CNT in water
33518
    1C        C    1   2.846   2.770   4.747  0.8281 -0.0470 -0.2545
    1C        C    2   2.901   2.721   4.868  0.2039 -0.0843  0.0175
    1C        C    3   2.847   2.776   4.985  0.4949  0.0891  0.0730
    1C        C    4   2.853   2.777   4.259 -0.3987 -0.2185 -0.2321
    1C        C    5   2.903   2.729   4.382 -0.1153 -0.4849 -0.4441
    1C        C    6   2.846   2.773   4.504 -0.0360 -0.5703 -0.3735
    1C        C    7   3.016   2.644   4.626  0.0077 -0.6610 -0.1525
    1C        C    8   2.899   2.722   4.625  0.1630 -0.4297 -0.3986
    1C        C    9   3.080   2.606   4.747  0.1946  0.4959  0.1215
    1C        C   10   3.010   2.631   4.867  0.5274  0.2978  0.3603
    1C        C   11   3.184   2.493   4.978  0.3997  0.3847  0.4546
    1C        C   12   3.067   2.569   4.979  0.0494 -0.1427  0.3660
    1C        C   13   2.848   2.767   3.773 -0.5827 -0.5617  0.4007
    1C        C   14   2.900   2.718   3.895  0.2604 -0.5623  0.0474
    1C        C   15   2.855   2.778   4.015 -0.1853 -0.0419 -0.3689
    1C        C   16   3.022   2.648   4.139 -0.3750 -0.0895 -0.2345
    1C        C   17   2.906   2.730   4.137 -0.2759  0.0555 -0.2901
    1C        C   18   3.083   2.613   4.262 -0.3415 -0.2838 -0.3041
    1C        C   19   3.017   2.646   4.382 -0.2406 -0.6647 -0.1397
    1C        C   20   3.207   2.555   4.504 -0.0830 -0.8411  0.0508
    1C        C   21   3.076   2.606   4.504  0.1021 -0.3615 -0.2006
    1C        C   22   3.280   2.541   4.624 -0.2225  0.1098  0.2488
    1C        C   23   3.213   2.556   4.748 -0.0202 -0.0824  0.3826
    1C        C   24   3.414   2.489   4.867  0.2608  0.2788  0.1290
    1C        C   25   3.272   2.503   4.866  0.2249 -0.0555  0.2726
    1C        C   26   3.491   2.478   4.984  0.2145  0.2333  0.1546
    1C        C   27   2.843   2.760   3.285 -0.5408 -0.4711  0.2017
    1C        C   28   2.902   2.721   3.408 -0.0329 -0.2901  0.0199
    1C        C   29   2.850   2.771   3.529 -0.4587 -0.8908  0.0912
    1C        C   30   3.017   2.640   3.650 -0.6266 -0.5676 -0.1824
    1C        C   31   2.903   2.723   3.651 -0.1232  0.1267  0.3565
    1C        C   32   3.079   2.606   3.772  0.1463  0.3870 -0.2980
    1C        C   33   3.015   2.637   3.895  0.2157 -0.6312  0.0045
    1C        C   34   3.212   2.557   4.018  0.0736 -0.4407  0.1601
    1C        C   35   3.081   2.611   4.017 -0.1606 -0.9951  0.1342
    1C        C   36   3.280   2.536   4.139 -0.3058 -0.8709  0.3053
    1C        C   37   3.214   2.562   4.262 -0.4562 -0.5907  0.1685
    1C        C   38   3.419   2.516   4.383  0.0832  0.5412 -0.0721
    1C        C   39   3.280   2.536   4.384 -0.0629 -0.4208 -0.0032
    1C        C   40   3.489   2.501   4.505  0.0144  0.7025 -0.0120
    1C        C   41   3.417   2.509   4.626 -0.2994 -0.2386 -0.1307
    1C        C   42   3.632   2.495   4.746 -0.1660  0.5039 -0.0979
    1C        C   43   3.490   2.494   4.746 -0.1637  0.3714 -0.1331
    1C        C   44   3.704   2.496   4.867 -0.2762  0.0914 -0.0276
    1C        C   45   3.630   2.477   4.985  0.2119  0.0330  0.2724
    1C        C   46   2.833   2.748   2.796 -0.3515 -0.4444  0.3793
    1C        C   47   2.889   2.703   2.918  0.3238  0.0157  0.2381
    1C        C   48   2.836   2.749   3.040  0.1685 -0.1495  0.2317
    1C        C   49   3.014   2.636   3.163 -0.4216 -0.6313 -0.0233
    1C        C   50   2.894   2.710   3.163 -0.6518 -0.9976  0.3663
    1C        C   51   3.077   2.604   3.285 -0.2956 -0.6319 -0.0898
    1C        C   52   3.017   2.639   3.408  0.3683  0.2677 -0.0165
    1C        C   53   3.210   2.548   3.527 -0.2349 -0.4995 -0.0596
    1C        C   54   3.079   2.601   3.529 -0.3796 -0.8527  0.0311
    1C        C   55   3.278   2.536   3.650 -0.5296 -1.1077  0.0460
    1C        C   56   3.213   2.564   3.773 -0.0678 -0.3067  0.1164
    1C        C   57   3.417   2.510   3.896 -0.0793 -0.4987  0.0216
    1C        C   58   3.278   2.538   3.895 -0.0871 -0.5261  0.0829
    1C        C   59   3.488   2.494   4.017 -0.0436  0.0887  0.0852
    1C        C   60   3.418   2.505   4.139 -0.2259 -0.5251  0.0431
    1C        C   61   3.630   2.502   4.260 -0.0099  0.0393 -0.2025
    1C        C   62   3.489   2.502   4.261 -0.0098  0.0017 -0.0664
    1C        C   63   3.701   2.507   4.382 -0.0658 -0.5573 -0.1427
    1C        C   64   3.631   2.498   4.504 -0.0001 -0.2690 -0.0830
    1C        C   65   3.837   2.552   4.621  0.1961 -0.5959 -0.0712
    1C        C   66   3.702   2.509   4.625 -0.0890  0.2809 -0.0782
    1C        C   67   3.904   2.566   4.745  0.1108 -0.2046 -0.0680
    1C        C   68   3.842   2.523   4.864 -0.1494 -0.5903 -0.3387
    1C        C   69   4.056   2.577   4.977  0.4864 -0.2157 -0.4533
    1C        C   70   3.925   2.529   4.977  0.6680 -0.7202 -0.9201
    1C        C   71   2.827   2.734   2.309  0.1308 -0.2966 -0.2369
    1C        C   72   2.883   2.692   2.432 -0.0583  0.0016 -0.0506
    1C        C   73   2.829   2.742   2.553 -0.2350 -0.5157  0.0868
    1C        C   74   3.006   2.625   2.674 -0.2572  0.0622 -0.0138
    1C        C   75   2.886   2.700   2.675 -0.5214 -0.3628  0.2745
    1C        C   76   3.068   2.589   2.795 -0.1010 -0.1248 -0.1528
    1C        C   77   3.009   2.628   2.917  0.1422 -0.2704  0.0106
    1C        C   78   3.205   2.549   3.039 -0.1212 -0.5304  0.0653
    1C        C   79   3.075   2.605   3.039  0.0003 -0.2522  0.0886
    1C        C   80   3.275   2.528   3.160 -0.0875 -0.7789 -0.0002
    1C        C   81   3.209   2.553   3.283 -0.1648 -0.2871 -0.1429
    1C        C   82   3.413   2.495   3.403 -0.0870  0.2583  0.0375
    1C        C   83   3.276   2.529   3.404 -0.1500  0.0098 -0.0945
    1C        C   84   3.482   2.495   3.526 -0.3185  0.0285  0.1682
    1C        C   85   3.416   2.506   3.650 -0.3681 -0.3854  0.1777
    1C        C   86   3.626   2.499   3.770 -0.0798  0.0263 -0.1306
    1C        C   87   3.485   2.501   3.773 -0.0883 -0.5190  0.0168
    1C        C   88   3.697   2.511   3.892 -0.0973 -0.4239 -0.0729
    1C        C   89   3.629   2.497   4.015 -0.0233 -0.5756 -0.0473
    1C        C   90   3.835   2.546   4.137  0.0610  0.1087  0.0477
    1C        C   91   3.700   2.506   4.137  0.0894  0.0056 -0.1488
    1C        C   92   3.905   2.569   4.257  0.4777 -0.2584 -0.1199
    1C        C   93   3.838   2.543   4.379 -0.1832 -0.1338 -0.4525
    1C        C   94   4.038   2.621   4.500 -0.4801  0.1322 -0.2113
    1C        C   95   3.907   2.568   4.500 -0.3714 -0.1343 -0.3430
    1C        C   96   4.099   2.659   4.622  0.0048 -0.0928 -0.3832
    1C        C   97   4.034   2.623   4.742 -0.0156  0.0728 -0.3447
    1C        C   98   4.191   2.764   4.861  0.4313 -0.2210 -0.0930
    1C        C   99   4.102   2.651   4.863  0.2902 -0.1188 -0.4688
    1C        C  100   4.211   2.840   4.977  0.2323 -0.1560 -0.1010
    1C        C  101   2.825   2.736   2.074 -0.0990  0.1784 -0.1877
    1C        C  102   2.992   2.591   2.193 -0.3746 -0.7273  0.2981
    1C        C  103   2.878   2.677   2.189  0.2731  0.1296 -0.3795
    1C        C  104   3.065   2.575   2.314 -0.1322 -0.5938  0.1700
    1C        C  105   3.002   2.617   2.433 -0.0721 -0.0140 -0.0011
    1C        C  106   3.200   2.532   2.551  0.1687  0.8225 -0.0791
    1C        C  107   3.073   2.594   2.553  0.1073  0.6879  0.0266
    1C        C  108   3.269   2.516   2.673  0.0832  0.5223 -0.0719
    1C        C  109   3.201   2.540   2.795 -0.1065 -0.1328 -0.0476
    1C        C  110   3.409   2.500   2.915 -0.0065  0.3511  0.1716
    1C        C  111   3.270   2.524   2.916 -0.0193  0.2781 -0.0453
    1C        C  112   3.484   2.493   3.035  0.1992 -0.0700  0.0195
    1C        C  113   3.414   2.506   3.157  0.0270 -0.0312 -0.0870
    1C        C  114   3.623   2.499   3.282 -0.1726  0.1745 -0.1338
    1C        C  115   3.482   2.493   3.280 -0.1593 -0.1285  0.0029
    1C        C  116   3.693   2.512   3.404 -0.2041 -0.5520 -0.0363
    1C        C  117   3.624   2.499   3.526 -0.2889 -0.8403 -0.1154
    1C        C  118   3.832   2.537   3.646 -0.2273 -0.0459  0.0571
    1C        C  119   3.696   2.499   3.647 -0.1703 -0.2565 -0.1835
    1C        C  120   3.900   2.564   3.767  0.0775  0.5723 -0.2456
    1C        C  121   3.835   2.539   3.890 -0.1649 -0.0990 -0.5049
    1C        C  122   4.024   2.633   4.011 -0.6130  0.1054  0.1221
    1C        C  123   3.900   2.566   4.013 -0.5999  0.0637 -0.3094
    1C        C  124   4.088   2.666   4.132 -0.4975  1.1171 -0.1996
    1C        C  125   4.033   2.626   4.256 -0.0379  0.9270 -0.0553
    1C        C  126   4.196   2.761   4.374 -0.0855  0.4395 -0.0497
    1C        C  127   4.098   2.659   4.378 -0.0323  0.3942  0.0871
    1C        C  128   4.237   2.818   4.497 -0.1692  0.4294 -0.0188
    1C        C  129   4.197   2.761   4.619 -0.3785  0.2840 -0.1560
    1C        C  130   4.325   2.934   4.741 -0.1138  0.1249  0.0315
    1C        C  131   4.242   2.818   4.740 -0.1834  0.1768 -0.1808
    1C        C  132   4.353   3.004   4.860  0.0434 -0.1869  0.1772
    1C        C  133   4.286   2.957   4.973  0.5793 -0.3548  0.4289
    1C        C  134   3.176   2.472   2.080 -0.3886  0.0663  0.1344
    1C        C  135   3.042   2.513   2.084 -0.4221 -0.0097 -0.2423
    1C        C  136   3.261   2.483   2.191 -0.0729  0.6645 -0.1629
    1C        C  137   3.197   2.520   2.311  0.1159 -0.0000  0.1495
    1C        C  138   3.407   2.482   2.431  0.2214  0.2290  0.0684
    1C        C  139   3.267   2.502   2.431  0.2125  0.1519  0.1145
    1C        C  140   3.480   2.484   2.552  0.2729  0.1037  0.0380
    1C        C  141   3.409   2.500   2.674  0.0241  0.0226 -0.0969
    1C        C  142   3.624   2.489   2.792 -0.2326 -0.2745 -0.4411
    1C        C  143   3.482   2.490   2.794 -0.2200  0.1600  0.0595
    1C        C  144   3.695   2.499   2.913 -0.3039  0.3559 -0.4511
    1C        C  145   3.625   2.491   3.036  0.2064  0.4364 -0.1562
    1C        C  146   3.829   2.539   3.155  0.0361  0.3119  0.2647
    1C        C  147   3.693   2.501   3.159 -0.0137  0.4651 -0.0393
    1C        C  148   3.897   2.560   3.277  0.2325 -0.0988  0.2263
    1C        C  149   3.832   2.540   3.401 -0.2767 -0.1914 -0.0558
    1C        C  150   4.025   2.621   3.519 -0.4741  0.2206  0.0881
    1C        C  151   3.899   2.558   3.524 -0.4119  0.0876 -0.0214
    1C        C  152   4.083   2.662   3.641 -0.5219  0.8617 -0.1039
    1C        C  153   4.022   2.634   3.765 -0.1067  0.9102  0.1102
    1C        C  154   4.189   2.762   3.885 -0.4104  0.7592 -0.3485
    1C        C  155   4.082   2.670   3.888 -0.7781  1.1957  0.3597
    1C        C  156   4.242   2.808   4.008 -0.5688  0.7698 -0.2852
    1C        C  157   4.198   2.754   4.131  0.0266  0.4724 -0.2002
    1C        C  158   4.327   2.925   4.251 -0.2576  0.4971 -0.1435
    1C        C  159   4.244   2.810   4.252 -0.3400  0.5592 -0.1009
    1C        C  160   4.365   2.987   4.373  0.0192  0.2791 -0.1202
    1C        C  161   4.322   2.931   4.495  0.2874  0.0864 -0.1153
    1C        C  162   4.425   3.116   4.613 -0.1637  0.0115  0.1876
    1C        C  163   4.364   2.989   4.617  0.3377 -0.2326  0.0163
    1C        C  164   4.454   3.189   4.731 -0.0026  0.1717  0.0472
    1C        C  165   4.426   3.125   4.853 -0.2109 -0.0499 -0.1171
    1C        C  166   4.524   3.317   4.964  0.7875 -0.2909 -0.4682
    1C        C  167   4.482   3.185   4.967  0.0188 -0.0491 -0.2327
    1C        C  168   3.474   2.435   2.074 -0.2573 -0.2573 -0.1087
    1C        C  169   3.401   2.461   2.191 -0.1539  0.1441 -0.1299
    1C        C  170   3.619   2.469   2.304 -0.2019 -0.0879 -0.2761
    1C        C  171   3.477   2.465   2.310 -0.1876 -0.3715 -0.0866
    1C        C  172   3.690   2.485   2.425 -0.1807  0.4348 -0.3571
    1C        C  173   3.621   2.487   2.548  0.2700 -0.0441 -0.0931
    1C        C  174   3.827   2.536   2.666  0.2927  0.0063  0.0411
    1C        C  175   3.693   2.492   2.669  0.3195 -0.0787 -0.1234
    1C        C  176   3.896   2.555   2.788 -0.0121  0.0182  0.2103
    1C        C  177   3.830   2.539   2.912 -0.3333  0.4746  0.0994
    1C        C  178   4.025   2.622   3.030 -0.0936 -0.1065 -0.2129
    1C        C  179   3.897   2.563   3.034 -0.2504  0.2574  0.0956
    1C        C  180   4.087   2.656   3.152 -0.3238  0.6039 -0.2908
    1C        C  181   4.026   2.616   3.273 -0.3318  1.2074 -0.0935
    1C        C  182   4.195   2.744   3.395 -0.3476  0.3691 -0.0326
    1C        C  183   4.085   2.656   3.396 -0.3570  0.3835  0.1910
    1C        C  184   4.242   2.799   3.516 -0.3233  0.6214 -0.1571
    1C        C  185   4.190   2.754   3.640 -0.3005  0.5997 -0.1579
    1C        C  186   4.326   2.919   3.762 -0.1354  0.6375 -0.0941
    1C        C  187   4.240   2.807   3.761  0.0314  0.5148 -0.2565
    1C        C  188   4.368   2.978   3.884  0.3294  0.3236 -0.1040
    1C        C  189   4.327   2.921   4.006 -0.2589  0.5367 -0.2003
    1C        C  190   4.431   3.106   4.125  0.5063  0.0257 -0.1742
    1C        C  191   4.365   2.982   4.128 -0.0926  0.3459 -0.1597
    1C        C  192   4.457   3.173   4.246  0.5308 -0.2654 -0.0217
    1C        C  193   4.430   3.112   4.371  0.4462  0.0599  0.1173
    1C        C  194   4.499   3.315   4.486  0.4743 -0.1525  0.0680
    1C        C  195   4.454   3.181   4.491  0.0398 -0.0004  0.2341
    1C        C  196   4.513   3.389   4.606  0.6435  0.1574 -0.1455
    1C        C  197   4.500   3.323   4.730 -0.0826  0.1972 -0.1969
    1C        C  198   4.551   3.537   4.846 -0.0577  0.1962  0.1273
    1C        C  199   4.533   3.395   4.848  0.0209  0.1819 -0.2175
    1C        C  200   4.585   3.620   4.958  0.4849  0.3912 -0.1810
    1C        C  201   3.614   2.425   2.069 -0.2147  0.1043  0.2836
    1C        C  202   3.828   2.508   2.183  0.3268  0.0938  0.0438
    1C        C  203   3.693   2.461   2.183  0.1389  0.6221 -0.1210
    1C        C  204   3.900   2.533   2.303  0.1585 -0.4468  0.2575
    1C        C  205   3.826   2.524   2.423 -0.1057  0.2066  0.1460
    1C        C  206   4.022   2.615   2.544  0.1587  0.1709  0.0579
    1C        C  207   3.894   2.555   2.543  0.1878  0.1149  0.0037
    1C        C  208   4.083   2.652   2.665  0.0762  0.0543  0.1340
    1C        C  209   4.024   2.615   2.788 -0.0464  0.0863  0.0825
    1C        C  210   4.197   2.746   2.906  0.3443 -0.1355 -0.1061
    1C        C  211   4.084   2.661   2.908  0.0066  0.3118 -0.0315
    1C        C  212   4.243   2.798   3.029 -0.1337  0.3573 -0.1341
    1C        C  213   4.192   2.750   3.152 -0.1240  0.3793 -0.1233
    1C        C  214   4.326   2.913   3.273  0.1192  0.0002  0.0420
    1C        C  215   4.242   2.800   3.274 -0.2148  0.2489 -0.0348
    1C        C  216   4.355   2.978   3.395 -0.2527  0.4930 -0.1274
    1C        C  217   4.323   2.915   3.518 -0.0342  0.4182 -0.1110
    1C        C  218   4.422   3.103   3.638  0.4359  0.2123 -0.0163
    1C        C  219   4.365   2.974   3.639  0.1205  0.3552 -0.1368
    1C        C  220   4.451   3.172   3.757  0.8621  0.2042 -0.1179
    1C        C  221   4.431   3.104   3.880  0.8849  0.0419 -0.2088
    1C        C  222   4.494   3.307   4.001  1.0185 -0.0739 -0.0474
    1C        C  223   4.457   3.170   4.002  0.5666  0.0477 -0.1469
    1C        C  224   4.513   3.376   4.123  0.8045 -0.3557  0.1476
    1C        C  225   4.499   3.308   4.246  0.7394 -0.3322  0.1508
    1C        C  226   4.527   3.523   4.365  1.0470 -0.1645 -0.1886
    1C        C  227   4.519   3.382   4.364  0.4532 -0.1365  0.0753
    1C        C  228   4.520   3.601   4.482  0.2024  0.0336 -0.3603
    1C        C  229   4.523   3.530   4.604  0.4685  0.1664 -0.2879
    1C        C  230   4.502   3.744   4.726 -0.3818 -0.3021  0.1749
    1C        C  231   4.534   3.605   4.723  0.4738 -0.1062 -0.1170
    1C        C  232   4.495   3.822   4.843  0.1298  0.0369 -0.0171
    1C        C  233   4.546   3.754   4.955  0.0485  0.2730  0.1613
    1C        C  234   4.020   2.601   2.065  0.3625 -0.0427  0.3012
    1C        C  235   3.891   2.548   2.064  0.4144 -0.1627  0.0032
    1C        C  236   4.085   2.645   2.182 -0.0175  0.5419  0.2931
    1C        C  237   4.027   2.597   2.301  0.0282 -0.1957  0.0257
    1C        C  238   4.194   2.736   2.421 -0.0107  0.1699 -0.0029
    1C        C  239   4.084   2.646   2.421 -0.3543  0.5853 -0.1026
    1C        C  240   4.245   2.788   2.542  0.0106 -0.2328  0.1592
    1C        C  241   4.191   2.743   2.665  0.1207 -0.0011  0.2904
    1C        C  242   4.337   2.902   2.783  0.1336  0.5443  0.0642
    1C        C  243   4.251   2.790   2.784  0.1942  0.5003  0.0558
    1C        C  244   4.374   2.963   2.905 -0.2719  0.4953  0.2123
    1C        C  245   4.331   2.908   3.028 -0.0641  0.3032  0.1968
    1C        C  246   4.427   3.097   3.146 -0.0458  0.4165 -0.0183
    1C        C  247   4.367   2.969   3.150 -0.3009  0.5417  0.1453
    1C        C  248   4.451   3.164   3.268  0.3778  0.1408  0.0471
    1C        C  249   4.418   3.104   3.392  0.3903  0.1797  0.0646
    1C        C  250   4.491   3.302   3.511  1.4686 -0.1112 -0.3667
    1C        C  251   4.447   3.168   3.515  0.6393  0.1700  0.0065
    1C        C  252   4.502   3.373   3.633  1.4419 -0.2898 -0.2653
    1C        C  253   4.483   3.310   3.758  0.6233  0.2557 -0.1137
    1C        C  254   4.521   3.518   3.877 -0.1318  0.1790  0.1316
    1C        C  255   4.503   3.378   3.880  0.3261  0.1193  0.0088
    1C        C  256   4.518   3.589   3.999  0.0604  0.0247  0.2246
    1C        C  257   4.521   3.517   4.121  0.3875 -0.3363  0.0070
    1C        C  258   4.493   3.730   4.239 -0.7773 -0.3159 -0.1535
    1C        C  259   4.517   3.591   4.241  0.3666 -0.1304 -0.1198
    1C        C  260   4.471   3.802   4.359 -0.9445 -0.4069 -0.1283
    1C        C  261   4.486   3.738   4.484  0.3529  0.0683 -0.0212
    1C        C  262   4.421   3.941   4.602 -0.5474 -0.3598 -0.0344
    1C        C  263   4.474   3.811   4.605 -0.7179 -0.4238  0.1854
    1C        C  264   4.403   4.013   4.722  0.2084 -0.2831  0.0291
    1C        C  265   4.431   3.947   4.844 -0.2317 -0.1510  0.1987
    1C        C  266   4.316   4.131   4.957  0.4829  0.2649 -0.0562
    1C        C  267   4.394   4.016   4.961  0.3193  0.1646  0.1905
    1C        C  268   4.266   2.764   2.061  0.1855  0.0180 -0.6896
    1C        C  269   4.191   2.737   2.176  0.4275 -0.0119 -0.5382
    1C        C  270   4.336   2.893   2.296 -0.6525  0.2189  0.0764
    1C        C  271   4.244   2.786   2.298 -0.0825 -0.2770 -0.2119
    1C        C  272   4.375   2.953   2.418  0.0348 -0.0724 -0.0003
    1C        C  273   4.338   2.894   2.540 -0.2618  0.0011 -0.0584
    1C        C  274   4.441   3.084   2.660  0.3594 -0.1100  0.0657
    1C        C  275   4.374   2.960   2.660  0.1081  0.0275 -0.1851
    1C        C  276   4.475   3.149   2.781  0.3554  0.2781 -0.1405
    1C        C  277   4.441   3.088   2.904  0.6369  0.0072 -0.1984
    1C        C  278   4.507   3.292   3.025  0.2552 -0.0405 -0.1391
    1C        C  279   4.463   3.158   3.024  0.6990 -0.1850 -0.1007
    1C        C  280   4.516   3.364   3.146  0.2470 -0.1059 -0.1039
    1C        C  281   4.494   3.298   3.269  0.8434 -0.0100  0.0527
    1C        C  282   4.510   3.512   3.388  0.9855  0.2779  0.0029
    1C        C  283   4.507   3.371   3.389  1.2869  0.2734 -0.1715
    1C        C  284   4.514   3.583   3.510  1.1049 -0.0358  0.1796
    1C        C  285   4.518   3.513   3.632  1.3132 -0.2781  0.0329
    1C        C  286   4.498   3.726   3.754 -0.1107 -0.2234 -0.0866
    1C        C  287   4.519   3.586   3.753  0.5880 -0.1224 -0.0525
    1C        C  288   4.484   3.798   3.874 -0.0595 -0.2600 -0.0600
    1C        C  289   4.498   3.728   3.996 -0.3016 -0.0279  0.1027
    1C        C  290   4.426   3.929   4.116 -0.7321 -0.0535  0.0238
    1C        C  291   4.479   3.798   4.117 -0.3804  0.0879  0.0227
    1C        C  292   4.398   3.999   4.236 -0.3219 -0.1259  0.1640
    1C        C  293   4.428   3.936   4.359 -0.3904 -0.2232  0.1301
    1C        C  294   4.317   4.122   4.479 -0.1634  0.0728 -0.0260
    1C        C  295   4.393   4.003   4.478 -0.5698 -0.1875  0.0573
    1C        C  296   4.281   4.189   4.598 -0.4159 -0.2253  0.0634
    1C        C  297   4.326   4.132   4.719 -0.2156 -0.5623 -0.1682
    1C        C  298   4.199   4.313   4.840  0.3038 -0.1199  0.1236
    1C        C  299   4.282   4.197   4.838  0.2953 -0.1200 -0.2169
    1C        C  300   4.165   4.401   4.948  0.1442 -0.1805  0.1248
    1C        C  301   4.354   2.871   2.064  0.3990 -0.1602 -0.5251
    1C        C  302   4.467   3.067   2.177 -1.0820  0.0155 -0.1174
    1C        C  303   4.394   2.944   2.176 -0.5255 -0.3189 -0.0911
    1C        C  304   4.477   3.144   2.296 -0.7494  0.0101 -0.1436
    1C        C  305   4.439   3.079   2.415 -0.5949  0.2459  0.0305
    1C        C  306   4.503   3.284   2.536  0.0906  0.0213 -0.2564
    1C        C  307   4.465   3.147   2.536 -0.5081  0.1867  0.0410
    1C        C  308   4.515   3.354   2.657  0.2612 -0.1241 -0.1949
    1C        C  309   4.507   3.286   2.781  0.5934  0.2218  0.0158
    1C        C  310   4.532   3.499   2.898  0.1056  0.2476 -0.1102
    1C        C  311   4.522   3.359   2.901  0.4014  0.2330  0.0290
    1C        C  312   4.525   3.572   3.019  0.2141  0.0055  0.0376
    1C        C  313   4.522   3.505   3.143 -0.1197 -0.0903 -0.0237
    1C        C  314   4.494   3.719   3.263  0.4966  0.1494 -0.1926
    1C        C  315   4.516   3.579   3.264  0.1851  0.1051 -0.1298
    1C        C  316   4.480   3.787   3.385 -0.0283 -0.5880  0.1653
    1C        C  317   4.498   3.723   3.510  0.8103 -0.0704  0.3160
    1C        C  318   4.425   3.923   3.627 -0.6667 -0.1260  0.1919
    1C        C  319   4.484   3.795   3.631 -0.1542  0.1052  0.1040
    1C        C  320   4.393   3.988   3.747 -0.5230  0.1313  0.0909
    1C        C  321   4.427   3.927   3.870 -0.0056 -0.2409 -0.2342
    1C        C  322   4.316   4.107   3.990  0.1577 -0.0637 -0.0502
    1C        C  323   4.394   3.990   3.992 -0.2527 -0.3451 -0.2448
    1C        C  324   4.265   4.160   4.111 -0.3929 -0.2169 -0.2109
    1C        C  325   4.311   4.111   4.235 -0.6761 -0.4004 -0.1758
    1C        C  326   4.183   4.283   4.354 -0.2957 -0.2627  0.1196
    1C        C  327   4.271   4.172   4.355 -0.3024 -0.2719 -0.1144
    1C        C  328   4.134   4.339   4.474  0.0840 -0.0370  0.1734
    1C        C  329   4.186   4.293   4.597 -0.4409 -0.2434  0.3224
    1C        C  330   4.024   4.434   4.714 -0.6877 -0.6989  0.3828
    1C        C  331   4.138   4.349   4.717 -0.6458 -0.6438  0.4299
    1C        C  332   3.969   4.495   4.829 -0.2733 -0.2510  0.3465
    1C        C  333   4.050   4.480   4.943  0.2944  0.0330 -0.0097
    1C        C  334   4.553   3.266   2.059 -0.3345  0.0771  0.1198
    1C        C  335   4.534   3.127   2.065 -0.1241  0.0645  0.4694
    1C        C  336   4.536   3.349   2.170  0.2817  0.2241  0.1011
    1C        C  337   4.509   3.282   2.292 -0.0887 -0.1450 -0.1827
    1C        C  338   4.523   3.495   2.411  0.2041 -0.0438  0.0025
    1C        C  339   4.515   3.354   2.414  0.4032 -0.0553 -0.2627
    1C        C  340   4.523   3.565   2.534 -0.0019  0.0275 -0.0446
    1C        C  341   4.524   3.495   2.657  0.2052 -0.1260 -0.1390
    1C        C  342   4.503   3.709   2.776  0.0832 -0.1173  0.1790
    1C        C  343   4.531   3.570   2.776  0.6652  0.0028 -0.2533
    1C        C  344   4.487   3.781   2.896  0.2943 -0.0792  0.1784
    1C        C  345   4.503   3.712   3.018  0.7219  0.0853  0.2122
    1C        C  346   4.429   3.914   3.139 -0.5215  0.0823  0.1262
    1C        C  347   4.479   3.782   3.138  0.1985  0.3561 -0.0494
    1C        C  348   4.396   3.982   3.259 -0.1178 -0.1982  0.3955
    1C        C  349   4.434   3.921   3.380  0.2239 -0.5021  0.1386
    1C        C  350   4.318   4.099   3.502 -0.0635 -0.2355 -0.0785
    1C        C  351   4.400   3.984   3.502 -0.4637 -0.5193 -0.0425
    1C        C  352   4.269   4.157   3.621 -1.0155 -0.6179 -0.2815
    1C        C  353   4.317   4.107   3.744 -0.8715 -0.0932 -0.1263
    1C        C  354   4.169   4.256   3.868  0.1569  0.4523  0.0914
    1C        C  355   4.274   4.163   3.867 -0.3874 -0.1725  0.0802
    1C        C  356   4.114   4.307   3.988 -0.3042 -0.0566  0.1010
    1C        C  357   4.168   4.263   4.111 -0.5008 -0.3174  0.0974
    1C        C  358   4.008   4.403   4.230 -0.2339 -0.1896 -0.1510
    1C        C  359   4.122   4.320   4.232 -0.0529  0.0612  0.0921
    1C        C  360   3.951   4.443   4.352  0.3062 -0.0765  0.0677
    1C        C  361   4.018   4.419   4.475  0.1292  0.0310  0.1888
    1C        C  362   3.824   4.515   4.593 -0.1324 -0.2736  0.0051
    1C        C  363   3.955   4.461   4.594 -0.0889 -0.1718  0.1483
    1C        C  364   3.758   4.542   4.714  0.0714 -0.3117  0.1269
    1C        C  365   3.836   4.541   4.832 -0.1769  0.0389  0.2996
    1C        C  366   3.627   4.578   4.954 -0.1234  0.8885  0.0536
    1C        C  367   3.766   4.580   4.947 -0.1197  0.7875  0.0881
    1C        C  368   4.509   3.564   2.052  0.1928 -0.0483  0.1828
    1C        C  369   4.524   3.489   2.169  0.6175  0.2529  0.3176
    1C        C  370   4.503   3.705   2.291 -0.3467  0.2708  0.1663
    1C        C  371   4.520   3.564   2.288  0.5011  0.3708  0.2346
    1C        C  372   4.488   3.777   2.411  0.5324  0.2781  0.2707
    1C        C  373   4.499   3.704   2.531  0.2123  0.0646  0.1608
    1C        C  374   4.429   3.904   2.650  0.0058 -0.0897  0.1090
    1C        C  375   4.484   3.774   2.652 -0.0047 -0.0865  0.2159
    1C        C  376   4.401   3.971   2.771 -0.1093  0.0845 -0.0200
    1C        C  377   4.438   3.914   2.894  0.3345 -0.0727 -0.2302
    1C        C  378   4.317   4.090   3.012 -0.2599 -0.4987 -0.1064
    1C        C  379   4.396   3.973   3.015 -0.3769 -0.5786 -0.2287
    1C        C  380   4.272   4.150   3.132  0.0167 -0.1172 -0.1950
    1C        C  381   4.314   4.096   3.256 -0.2000 -0.2719 -0.1903
    1C        C  382   4.173   4.251   3.378 -0.2678 -0.4468  0.0575
    1C        C  383   4.267   4.146   3.379  0.3040  0.0518 -0.1252
    1C        C  384   4.119   4.301   3.499 -0.5920 -0.3924 -0.1072
    1C        C  385   4.169   4.257   3.623 -1.2923 -0.8950 -0.0000
    1C        C  386   3.998   4.379   3.743 -0.3336  0.0063 -0.0595
    1C        C  387   4.113   4.298   3.746 -0.5019 -0.2331  0.1417
    1C        C  388   3.939   4.422   3.864 -0.3158  0.0107 -0.0496
    1C        C  389   4.003   4.393   3.987 -0.3098 -0.0621 -0.0669
    1C        C  390   3.816   4.492   4.107 -0.2251  0.4931  0.5602
    1C        C  391   3.947   4.440   4.108 -0.5709 -0.4006 -0.0521
    1C        C  392   3.751   4.514   4.231 -0.0013  0.5191  0.6779
    1C        C  393   3.819   4.493   4.352  0.4321  0.2705  0.3972
    1C        C  394   3.614   4.552   4.475 -0.0653  0.9209 -0.0077
    1C        C  395   3.754   4.532   4.471 -0.1566  0.2524  0.0875
    1C        C  396   3.544   4.568   4.597  0.1579  0.4199  0.1887
    1C        C  397   3.618   4.561   4.717  0.0868 -0.2026  0.2031
    1C        C  398   3.408   4.544   4.840  0.0818 -0.5753 -0.5269
    1C        C  399   3.547   4.569   4.839 -0.0914  0.4876  0.0630
    1C        C  400   3.338   4.515   4.957  0.3476  0.4071 -0.1111
    1C        C  401   4.508   3.703   2.054  0.6361 -0.0474  0.2081
    1C        C  402   4.449   3.913   2.167 -0.3210 -0.0128 -0.1066
    1C        C  403   4.491   3.778   2.171 -0.0273  0.0868  0.0246
    1C        C  404   4.407   3.974   2.286 -0.2883 -0.2015 -0.0026
    1C        C  405   4.429   3.905   2.408  0.0915  0.0635  0.0763
    1C        C  406   4.318   4.088   2.528 -0.1847 -0.2106  0.0543
    1C        C  407   4.393   3.968   2.529  0.1102 -0.0216  0.1192
    1C        C  408   4.275   4.144   2.650  0.1993  0.1880  0.0039
    1C        C  409   4.318   4.085   2.770 -0.3406 -0.0875  0.0611
    1C        C  410   4.168   4.241   2.890 -0.3217 -0.1718 -0.0680
    1C        C  411   4.272   4.145   2.890 -0.1671 -0.0022  0.0831
    1C        C  412   4.114   4.288   3.011 -0.3532 -0.7759  0.1574
    1C        C  413   4.171   4.248   3.134 -0.0719 -0.2183  0.2130
    1C        C  414   3.993   4.363   3.257 -0.3061 -0.4678 -0.1851
    1C        C  415   4.118   4.297   3.256 -0.0235  0.0493  0.1279
    1C        C  416   3.932   4.403   3.378 -0.2459  0.2348 -0.3822
    1C        C  417   3.998   4.373   3.499 -0.1668  0.3439 -0.3957
    1C        C  418   3.808   4.472   3.619 -0.0523 -0.0228  0.2969
    1C        C  419   3.934   4.409   3.620  0.0145  0.0905 -0.2230
    1C        C  420   3.743   4.501   3.741  0.0069  0.5295  0.2014
    1C        C  421   3.811   4.483   3.863 -0.0689  0.5489  0.2499
    1C        C  422   3.607   4.532   3.987  0.0962  0.3615 -0.0033
    1C        C  423   3.746   4.507   3.986  0.1511  0.6276  0.3547
    1C        C  424   3.540   4.544   4.111 -0.1702  0.9385 -0.2006
    1C        C  425   3.613   4.545   4.232  0.0032  0.6186 -0.2992
    1C        C  426   3.401   4.549   4.357  0.2123  0.5726  0.0661
    1C        C  427   3.543   4.554   4.354  0.2073  0.5977 -0.1776
    1C        C  428   3.331   4.546   4.479  0.4260  0.0489  0.1773
    1C        C  429   3.404   4.554   4.600  0.1605  0.4028  0.3147
    1C        C  430   3.193   4.514   4.722 -0.5683  0.0490  0.0201
    1C        C  431   3.333   4.541   4.721 -0.5574 -0.0096 -0.1449
    1C        C  432   3.121   4.492   4.842  0.0532  0.0497  0.3946
    1C        C  433   3.201   4.492   4.958  0.3287  0.5278  0.2066
    1C        C  434   4.384   4.122   2.054 -0.1711 -0.3591  0.3118
    1C        C  435   4.447   3.997   2.054 -0.6522 -0.6095 -0.5493
    1C        C  436   4.300   4.161   2.163 -0.4645 -0.1219  0.0010
    1C        C  437   4.331   4.095   2.285  0.0990  0.0375 -0.0571
    1C        C  438   4.170   4.236   2.404 -0.2585 -0.5109 -0.0867
    1C        C  439   4.277   4.144   2.405 -0.0181 -0.2264 -0.0053
    1C        C  440   4.114   4.282   2.525 -0.1216 -0.2068 -0.1392
    1C        C  441   4.168   4.236   2.647  0.1793  0.1589 -0.1327
    1C        C  442   4.000   4.368   2.766 -0.6194 -0.7038  0.1253
    1C        C  443   4.117   4.290   2.767 -0.4127 -0.4051 -0.1261
    1C        C  444   3.937   4.401   2.888 -0.0513  0.0098  0.2356
    1C        C  445   3.994   4.362   3.012 -0.0746 -0.3168  0.1461
    1C        C  446   3.803   4.453   3.131 -0.4946 -0.3538 -0.0453
    1C        C  447   3.931   4.393   3.134 -0.2033  0.2608 -0.0629
    1C        C  448   3.741   4.486   3.254 -0.0031  0.5296 -0.0291
    1C        C  449   3.809   4.472   3.377 -0.1439  0.4313  0.0399
    1C        C  450   3.605   4.531   3.498  0.2663  0.9788 -0.1531
    1C        C  451   3.744   4.504   3.498  0.1267  0.1910  0.2542
    1C        C  452   3.537   4.543   3.621 -0.0098 -0.2136 -0.1712
    1C        C  453   3.605   4.531   3.744 -0.2430 -0.5389 -0.0701
    1C        C  454   3.395   4.554   3.865  0.0602  0.4045  0.2333
    1C        C  455   3.536   4.549   3.866  0.0554  0.2028 -0.0036
    1C        C  456   3.329   4.544   3.989 -0.0451  0.0801  0.1519
    1C        C  457   3.399   4.548   4.112 -0.1774  0.5814  0.2147
    1C        C  458   3.194   4.505   4.234  0.0970 -0.2680 -0.0546
    1C        C  459   3.330   4.541   4.235 -0.0974  0.4690  0.2538
    1C        C  460   3.127   4.487   4.357  0.6001 -0.5074  0.1825
    1C        C  461   3.194   4.512   4.479  0.5239 -0.3549  0.1909
    1C        C  462   2.997   4.430   4.598 -0.2892  0.1844 -0.0115
    1C        C  463   3.124   4.493   4.601 -0.2447  0.1009 -0.1748
    1C        C  464   2.933   4.399   4.720 -0.0450  0.3569  0.1632
    1C        C  465   2.989   4.436   4.845  0.1544 -0.1967  0.2404
    1C        C  466   2.795   4.334   4.956 -0.1224 -0.0090 -0.0036
    1C        C  467   2.899   4.427   4.956 -0.0344 -0.1068  0.0949
    1C        C  468   4.122   4.289   2.043  0.8107  0.3557 -0.4768
    1C        C  469   4.186   4.247   2.160 -0.4987 -0.1708  0.0577
    1C        C  470   4.007   4.370   2.281 -0.1318  0.2069  0.0885
    1C        C  471   4.123   4.288   2.281 -0.4075 -0.1869  0.1086
    1C        C  472   3.942   4.403   2.401 -0.0969 -0.4539  0.2949
    1C        C  473   3.997   4.361   2.524  0.2308  0.3341  0.4319
    1C        C  474   3.803   4.453   2.645 -0.3157  0.3082 -0.0004
    1C        C  475   3.931   4.393   2.645 -0.3117  0.3114  0.1493
    1C        C  476   3.738   4.483   2.767 -0.2284  0.1519  0.0864
    1C        C  477   3.810   4.462   2.887  0.2824  0.7049 -0.1194
    1C        C  478   3.604   4.519   3.011  0.2918  1.1146 -0.1231
    1C        C  479   3.740   4.479   3.008  0.1238  0.5218 -0.1836
    1C        C  480   3.535   4.537   3.132  0.0696  0.2795 -0.1148
    1C        C  481   3.605   4.522   3.254 -0.1690 -0.0876 -0.0212
    1C        C  482   3.393   4.534   3.374 -0.1404  0.3839  0.2106
    1C        C  483   3.534   4.535   3.376 -0.1304 -0.2091  0.0168
    1C        C  484   3.326   4.532   3.498 -0.2268  0.9380  0.1739
    1C        C  485   3.395   4.543   3.621 -0.0173  0.5432  0.0905
    1C        C  486   3.188   4.502   3.743  0.1515  0.4284 -0.3152
    1C        C  487   3.326   4.534   3.743  0.1488  0.4362  0.1778
    1C        C  488   3.125   4.483   3.868  0.1195  0.2979 -0.3531
    1C        C  489   3.192   4.510   3.989 -0.1147  0.3591 -0.2386
    1C        C  490   3.004   4.416   4.113  0.3729 -0.1852  0.1682
    1C        C  491   3.126   4.486   4.112  0.0961  0.2907 -0.1398
    1C        C  492   2.943   4.382   4.236  0.4984 -0.6496  0.1028
    1C        C  493   3.001   4.424   4.358  0.5149 -0.3337 -0.0148
    1C        C  494   2.824   4.304   4.479 -0.0565  0.1905 -0.2472
    1C        C  495   2.933   4.393   4.478  0.0990 -0.0010 -0.1603
    1C        C  496   2.777   4.251   4.602  0.8110 -0.0989 -0.0314
    1C        C  497   2.822   4.310   4.722  0.2330  0.0079  0.1380
    1C        C  498   2.660   4.165   4.841 -0.0688  0.0745 -0.0625
    1C        C  499   2.753   4.271   4.839 -0.4458  0.4107 -0.1196
    1C        C  500   2.588   4.119   4.953 -0.0040 -0.1746 -0.1236
    1C        C  501   4.001   4.357   2.042  0.8253  0.3885 -0.0728
    1C        C  502   3.815   4.465   2.158 -0.2004 -0.8783 -0.5381
    1C        C  503   3.941   4.402   2.160  0.0887 -0.3029 -0.1705
    1C        C  504   3.743   4.472   2.279  0.2956 -0.3073 -0.2637
    1C        C  505   3.807   4.446   2.402 -0.1155 -0.5034 -0.0851
    1C        C  506   3.602   4.511   2.523 -0.0086  0.2778 -0.1827
    1C        C  507   3.738   4.473   2.521 -0.0861 -0.0122 -0.1776
    1C        C  508   3.530   4.522   2.644 -0.1176  0.1700 -0.2354
    1C        C  509   3.601   4.516   2.766 -0.3065 -0.1689 -0.1400
    1C        C  510   3.393   4.535   2.887  0.0333 -0.2320 -0.0718
    1C        C  511   3.534   4.533   2.889  0.0447  0.5783 -0.0490
    1C        C  512   3.323   4.533   3.010  0.1811 -0.5957  0.0075
    1C        C  513   3.394   4.541   3.132  0.0623  0.0633  0.0363
    1C        C  514   3.185   4.499   3.253  0.1857  0.0405  0.1980
    1C        C  515   3.322   4.536   3.253  0.0957  0.3771  0.0703
    1C        C  516   3.119   4.482   3.376  0.0310 -0.3870  0.0563
    1C        C  517   3.188   4.503   3.498 -0.0715  0.1890  0.0138
    1C        C  518   2.998   4.411   3.625 -0.2493  0.2917 -0.0298
    1C        C  519   3.123   4.477   3.621 -0.2851  0.3537 -0.0662
    1C        C  520   2.942   4.373   3.749  0.3424 -0.2269  0.0855
    1C        C  521   3.002   4.414   3.870  0.2090  0.1515  0.0243
    1C        C  522   2.837   4.281   3.994  0.8383 -0.6272  0.1026
    1C        C  523   2.943   4.375   3.992  0.8450 -0.6375  0.0833
    1C        C  524   2.790   4.234   4.118  0.4239 -0.6397 -0.0601
    1C        C  525   2.835   4.292   4.239  0.1072 -0.1911 -0.1586
    1C        C  526   2.694   4.131   4.361 -0.1227  0.0796  0.4309
    1C        C  527   2.781   4.242   4.360 -0.2262  0.1531 -0.1663
    1C        C  528   2.652   4.077   4.484 -0.1305  0.0121  0.3987
    1C        C  529   2.691   4.139   4.605 -0.2187  0.6742  0.0907
    1C        C  530   2.584   3.956   4.727  0.3390 -0.0790  0.0033
    1C        C  531   2.639   4.087   4.725 -0.0066  0.0682 -0.0710
    1C        C  532   2.539   3.900   4.849 -0.2925  0.1863 -0.1008
    1C        C  533   2.523   3.995   4.955  0.1494 -0.2475  0.3580
    1C        C  534   3.618   4.553   2.044  0.2268  0.5517  0.3876
    1C        C  535   3.755   4.521   2.044  0.2029  0.4225 -0.1378
    1C        C  536   3.535   4.536   2.159  0.0708 -0.2622  0.1593
    1C        C  537   3.605   4.506   2.279  0.3757  0.0285  0.0574
    1C        C  538   3.392   4.517   2.400 -0.0812 -0.9174  0.0296
    1C        C  539   3.533   4.516   2.400 -0.0701 -0.2904 -0.1750
    1C        C  540   3.321   4.513   2.522  0.0921 -0.2049  0.1598
    1C        C  541   3.389   4.525   2.645 -0.1179  0.1270  0.2472
    1C        C  542   3.183   4.482   2.766 -0.0411 -0.5853 -0.1228
    1C        C  543   3.319   4.522   2.768 -0.4156  0.7184  0.0949
    1C        C  544   3.119   4.463   2.890  0.1621 -0.5398 -0.0122
    1C        C  545   3.187   4.493   3.010  0.1275 -0.4100 -0.0260
    1C        C  546   2.995   4.402   3.133  0.3814 -0.2193 -0.0944
    1C        C  547   3.119   4.469   3.132  0.3883 -0.2307  0.1552
    1C        C  548   2.938   4.368   3.258 -0.2357  0.1961 -0.2609
    1C        C  549   2.995   4.414   3.378 -0.0321 -0.2747 -0.1774
    1C        C  550   2.833   4.284   3.506  0.1912 -0.2369  0.1881
    1C        C  551   2.940   4.375   3.502  0.1546 -0.2095 -0.0744
    1C        C  552   2.787   4.230   3.629  0.1840  0.0586  0.3150
    1C        C  553   2.834   4.282   3.751  0.0399  0.1351  0.3367
    1C        C  554   2.701   4.117   3.875  0.1806 -0.3733 -0.2162
    1C        C  555   2.785   4.231   3.873  0.5899 -0.6633  0.2277
    1C        C  556   2.668   4.059   3.999  0.5412 -0.1361 -0.0087
    1C        C  557   2.706   4.120   4.120 -0.1667 -0.2031  0.2514
    1C        C  558   2.600   3.938   4.243 -0.2739  0.0684  0.1675
    1C        C  559   2.656   4.067   4.241  0.2125 -0.1367  0.4389
    1C        C  560   2.571   3.875   4.366 -0.7358  0.4128  0.2365
    1C        C  561   2.592   3.949   4.484 -0.0658 -0.0189  0.3899
    1C        C  562   2.528   3.748   4.613 -0.2998 -0.3040 -0.2290
    1C        C  563   2.568   3.884   4.607  0.0231 -0.3747  0.2221
    1C        C  564   2.519   3.679   4.736 -0.1597 -0.3851 -0.2631
    1C        C  565   2.521   3.758   4.855 -0.4675  0.1852 -0.6303
    1C        C  566   2.520   3.546   4.978 -0.1115  0.1104  0.1588
    1C        C  567   2.520   3.685   4.974 -0.0176  0.0942 -0.6817
    1C        C  568   3.327   4.466   2.043 -0.3212  0.2093  0.1396
    1C        C  569   3.396   4.508   2.158 -0.0710  0.4283 -0.0862
    1C        C  570   3.183   4.475   2.278 -0.1795  0.1542 -0.3501
    1C        C  571   3.321   4.512   2.278 -0.0314 -0.3862 -0.0297
    1C        C  572   3.116   4.453   2.400 -0.0366 -0.1531 -0.3241
    1C        C  573   3.183   4.483   2.520  0.0361  0.0707 -0.4193
    1C        C  574   2.988   4.403   2.646  0.2923 -0.2675  0.0223
    1C        C  575   3.117   4.460   2.643  0.2656 -0.2280 -0.3523
    1C        C  576   2.931   4.363   2.769  0.1262 -0.3387 -0.0802
    1C        C  577   2.990   4.405   2.890  0.0664 -0.3230 -0.0590
    1C        C  578   2.828   4.269   3.015  0.0262 -0.1357 -0.2152
    1C        C  579   2.933   4.364   3.012  0.3155 -0.4486  0.0129
    1C        C  580   2.781   4.225   3.141  0.2334  0.2575  0.0020
    1C        C  581   2.831   4.276   3.263 -0.1507  0.1247  0.2133
    1C        C  582   2.701   4.113   3.385  0.5129 -0.4909  0.2572
    1C        C  583   2.783   4.228   3.387  0.2122 -0.2756  0.1989
    1C        C  584   2.665   4.055   3.509  0.2725 -0.5518  0.1573
    1C        C  585   2.704   4.115   3.630  0.4959 -0.1724 -0.1041
    1C        C  586   2.602   3.930   3.754 -0.7747  0.2282  0.4428
    1C        C  587   2.668   4.055   3.752 -0.2502 -0.0497 -0.2622
    1C        C  588   2.572   3.868   3.877 -0.5109  0.1291  0.4583
    1C        C  589   2.598   3.936   3.998  0.0688  0.1277  0.3341
    1C        C  590   2.541   3.734   4.126 -0.2998 -0.0564  0.0281
    1C        C  591   2.577   3.870   4.121  0.4588 -0.2466  0.2009
    1C        C  592   2.527   3.667   4.250 -0.8340  0.2038  0.1101
    1C        C  593   2.538   3.738   4.371 -0.6028  0.3694 -0.0050
    1C        C  594   2.514   3.531   4.498  0.6719 -0.3798  0.1027
    1C        C  595   2.518   3.672   4.495  0.2810 -0.3742 -0.2404
    1C        C  596   2.513   3.463   4.621  0.0439 -0.2173  0.1910
    1C        C  597   2.510   3.538   4.741 -0.2283 -0.3647  0.2803
    1C        C  598   2.537   3.326   4.863 -0.2192 -0.2097  0.4746
    1C        C  599   2.524   3.467   4.862  0.6234 -0.1205  0.3335
    1C        C  600   2.528   3.248   4.979  0.0897 -0.0706  0.5946
    1C        C  601   3.193   4.433   2.046 -0.2960  0.0067 -0.6957
    1C        C  602   2.976   4.395   2.160  0.0899 -0.3038  0.2782
    1C        C  603   3.112   4.441   2.160  0.0948 -0.3049 -0.3909
    1C        C  604   2.924   4.352   2.285 -0.1870  0.0409  0.2877
    1C        C  605   2.988   4.394   2.404  0.1318 -0.4890  0.3084
    1C        C  606   2.821   4.269   2.530 -0.3751  0.0692  0.0249
    1C        C  607   2.924   4.364   2.526 -0.1935 -0.1162  0.2305
    1C        C  608   2.775   4.214   2.652 -0.2102 -0.3183 -0.0867
    1C        C  609   2.823   4.272   2.772 -0.1136 -0.0593 -0.2521
    1C        C  610   2.687   4.111   2.897 -0.3979  0.2907  0.2724
    1C        C  611   2.770   4.225   2.894 -0.1730  0.1178 -0.2115
    1C        C  612   2.652   4.054   3.021 -0.0060  0.2681  0.3739
    1C        C  613   2.693   4.114   3.142  0.4539  0.0846  0.3112
    1C        C  614   2.598   3.926   3.265 -0.0290  0.0245 -0.0590
    1C        C  615   2.658   4.054   3.264  0.2519 -0.1058  0.1604
    1C        C  616   2.564   3.866   3.388 -0.2085  0.2898  0.0237
    1C        C  617   2.595   3.932   3.509 -0.5931 -0.0718  0.3250
    1C        C  618   2.529   3.733   3.637  0.2696 -0.1528 -0.0595
    1C        C  619   2.565   3.869   3.632 -0.4716  0.0709  0.4290
    1C        C  620   2.518   3.662   3.759  1.1889 -0.0439  0.0910
    1C        C  621   2.536   3.732   3.880  0.2081 -0.0714  0.2567
    1C        C  622   2.510   3.524   4.010  0.8783 -0.3886  0.1084
    1C        C  623   2.525   3.665   4.004 -0.1311 -0.2685  0.1232
    1C        C  624   2.510   3.454   4.132  0.3660 -0.3053  0.1640
    1C        C  625   2.510   3.527   4.253 -0.3892  0.1423 -0.0963
    1C        C  626   2.538   3.319   4.379  0.0870  0.0314 -0.0590
    1C        C  627   2.517   3.459   4.377  0.2466  0.0568 -0.1737
    1C        C  628   2.554   3.252   4.502 -0.1213 -0.0710 -0.0816
    1C        C  629   2.528   3.322   4.622  0.3754 -0.1842  0.0983
    1C        C  630   2.602   3.120   4.745 -0.3354 -0.0347  0.0095
    1C        C  631   2.554   3.254   4.743 -0.4496 -0.0657  0.3520
    1C        C  632   2.621   3.049   4.867  0.7684  0.0127 -0.1245
    1C        C  633   2.565   3.113   4.982 -0.0186 -0.1314 -0.4172
    1C        C  634   2.782   4.298   2.052 -0.1667  0.1632  0.3222
    1C        C  635   2.890   4.386   2.045 -0.0715  0.0512  0.3679
    1C        C  636   2.744   4.228   2.168 -0.3691  0.2603  0.3158
    1C        C  637   2.807   4.271   2.287  0.0832 -0.3563  0.3058
    1C        C  638   2.682   4.105   2.411 -1.0816  0.3156 -0.1627
    1C        C  639   2.762   4.221   2.411 -0.7240  0.0719  0.1934
    1C        C  640   2.642   4.044   2.531 -0.2337 -0.3304 -0.1931
    1C        C  641   2.683   4.106   2.651 -0.3709 -0.1788 -0.2234
    1C        C  642   2.594   3.920   2.776  0.4202  0.1719  0.2602
    1C        C  643   2.649   4.050   2.775 -0.0601  0.3788  0.1198
    1C        C  644   2.572   3.855   2.900 -0.7431  0.5001  0.2386
    1C        C  645   2.596   3.925   3.020  0.4853  0.0508  0.2670
    1C        C  646   2.536   3.723   3.149 -0.5614 -0.0347  0.2059
    1C        C  647   2.574   3.859   3.144  0.0285 -0.2048  0.0551
    1C        C  648   2.525   3.657   3.273 -0.2597  0.1878  0.3551
    1C        C  649   2.536   3.728   3.394 -0.3682  0.3306  0.2839
    1C        C  650   2.511   3.519   3.518  0.4175 -0.3640  0.3514
    1C        C  651   2.517   3.660   3.517  0.5264 -0.3689  0.0440
    1C        C  652   2.514   3.451   3.642 -0.0488 -0.5889  0.2463
    1C        C  653   2.511   3.521   3.764  0.1502 -0.0071 -0.0751
    1C        C  654   2.534   3.313   3.889 -0.0710 -0.1175  0.0868
    1C        C  655   2.513   3.453   3.888  0.2701 -0.0654 -0.1064
    1C        C  656   2.551   3.247   4.013  0.2097 -0.4603 -0.1290
    1C        C  657   2.533   3.315   4.136  0.4366 -0.3080 -0.1751
    1C        C  658   2.601   3.115   4.258 -0.0528 -0.0890  0.4551
    1C        C  659   2.553   3.247   4.258 -0.6080 -0.2794  0.0293
    1C        C  660   2.633   3.054   4.381 -0.0589 -0.2364  0.3891
    1C        C  661   2.605   3.121   4.502 -0.4175 -0.1918  0.2868
    1C        C  662   2.712   2.937   4.626  0.2602 -0.0755 -0.0260
    1C        C  663   2.634   3.055   4.624  0.1508 -0.1393  0.1891
    1C        C  664   2.750   2.874   4.747  0.2490 -0.5736 -0.2782
    1C        C  665   2.693   2.925   4.867 -0.2003 -0.5660 -0.4933
    1C        C  666   2.745   2.870   4.985  0.3095 -0.1075 -0.4999
    1C        C  667   2.679   4.018   2.054  0.5722 -0.1707  0.1504
    1C        C  668   2.689   4.098   2.169  0.1577  0.0318  0.0487
    1C        C  669   2.594   3.908   2.293  0.0052 -0.2417  0.3247
    1C        C  670   2.647   4.040   2.290 -0.2018 -0.1652 -0.1690
    1C        C  671   2.556   3.844   2.412 -0.4332 -0.3261  0.1396
    1C        C  672   2.585   3.914   2.531 -0.7122 -0.1231  0.0897
    1C        C  673   2.524   3.716   2.661 -0.6872  0.3509  0.2249
    1C        C  674   2.565   3.851   2.656  0.1778  0.1029  0.3554
    1C        C  675   2.517   3.648   2.785 -1.0548  0.4620  0.2681
    1C        C  676   2.540   3.718   2.905 -0.9964  0.5547  0.2058
    1C        C  677   2.517   3.509   3.029 -0.5491  0.1777  0.0116
    1C        C  678   2.526   3.650   3.028 -0.4461  0.1749  0.0662
    1C        C  679   2.517   3.441   3.153  0.6549  0.3324  0.1089
    1C        C  680   2.517   3.516   3.272  0.4116  0.1465  0.2293
    1C        C  681   2.535   3.308   3.398  0.8661  0.0210 -0.4847
    1C        C  682   2.514   3.448   3.396  0.5397 -0.0137  0.1472
    1C        C  683   2.557   3.243   3.522  0.3182 -0.0226 -0.4051
    1C        C  684   2.538   3.312   3.643  0.2713 -0.5412 -0.1150
    1C        C  685   2.612   3.116   3.768  0.2752 -0.0881  0.0629
    1C        C  686   2.557   3.247   3.767  0.3086 -0.0717  0.1312
    1C        C  687   2.642   3.055   3.891  0.3655 -0.2809 -0.0520
    1C        C  688   2.606   3.117   4.013  0.5837 -0.3037  0.0268
    1C        C  689   2.711   2.936   4.139 -0.5909 -0.4064  0.2073
    1C        C  690   2.630   3.051   4.135  0.2480  0.2002  0.3728
    1C        C  691   2.759   2.882   4.261 -0.4010 -0.2220  0.2179
    1C        C  692   2.714   2.938   4.383 -0.4026 -0.4802  0.3395
    1C        C  693   2.751   2.877   4.505 -0.3033 -0.8096  0.1491
    1C        C  694   2.632   3.887   2.055  0.6061 -0.1827  0.2736
    1C        C  695   2.528   3.703   2.177  0.3499 -0.0504  0.0288
    1C        C  696   2.579   3.834   2.173 -0.0438  0.1068  0.1160
    1C        C  697   2.503   3.635   2.298 -0.3858 -0.2701 -0.2345
    1C        C  698   2.520   3.707   2.418 -0.2817 -0.3787 -0.1830
    1C        C  699   2.498   3.501   2.544  0.3660  0.1761  0.0996
    1C        C  700   2.510   3.641   2.542  0.6195  0.1549  0.1811
    1C        C  701   2.507   3.433   2.667 -0.1303  0.2878  0.2026
    1C        C  702   2.513   3.507   2.787 -0.2074  0.4260  0.1233
    1C        C  703   2.532   3.296   2.912  0.3695  0.2295  0.0667
    1C        C  704   2.511   3.435   2.909 -0.0154  0.1750 -0.0174
    1C        C  705   2.543   3.227   3.034  0.6845 -0.0576 -0.1187
    1C        C  706   2.528   3.300   3.154  0.5235  0.3121 -0.3605
    1C        C  707   2.601   3.104   3.279  0.4519 -0.0089  0.0158
    1C        C  708   2.548   3.235   3.278  0.4659 -0.0052 -0.5146
    1C        C  709   2.631   3.044   3.404 -0.1286 -0.1183  0.1061
    1C        C  710   2.606   3.111   3.526  0.3258 -0.0063  0.1408
    1C        C  711   2.715   2.929   3.650 -0.3903 -0.5286 -0.3112
    1C        C  712   2.636   3.046   3.648  0.0090 -0.2458  0.0977
    1C        C  713   2.756   2.874   3.774 -0.3016 -0.3122 -0.2414
    1C        C  714   2.718   2.936   3.895 -0.1373 -0.6032 -0.0367
    1C        C  715   2.765   2.887   4.018 -0.3841 -0.2164  0.2176
    1C        C  716   2.446   3.497   2.063 -0.2800 -0.0568  0.3621
    1C        C  717   2.489   3.630   2.063  0.0780 -0.1709  0.1977
    1C        C  718   2.461   3.419   2.183  0.1751 -0.3484  0.1193
    1C        C  719   2.482   3.494   2.302 -0.0234 -0.3186  0.1361
    1C        C  720   2.521   3.287   2.425  0.9058 -0.0010  0.0446
    1C        C  721   2.493   3.425   2.424  0.6580 -0.0474  0.2281
    1C        C  722   2.544   3.221   2.548  0.8049  0.2700  0.2089
    1C        C  723   2.531   3.293   2.669  0.1272  0.3286  0.1100
    1C        C  724   2.585   3.089   2.794  0.8990  0.3547 -0.1437
    1C        C  725   2.545   3.224   2.791  0.8156  0.3375  0.0450
    1C        C  726   2.614   3.024   2.917  0.0383 -0.0228 -0.1338
    1C        C  727   2.596   3.096   3.037  0.1786 -0.2645  0.0337
    1C        C  728   2.705   2.915   3.159  0.1819 -0.2118 -0.1245
    1C        C  729   2.633   3.036   3.160  0.0942 -0.2635  0.0614
    1C        C  730   2.749   2.865   3.284 -0.5542 -0.4836  0.0317
    1C        C  731   2.703   2.923   3.404 -0.5378 -0.3691 -0.0160
    1C        C  732   2.752   2.872   3.527  0.1024 -0.3457 -0.2530
    1C        C  733   2.477   3.191   2.076 -0.7727  0.0740  0.0767
    1C        C  734   2.486   3.278   2.185 -0.2196 -0.4147  0.4244
    1C        C  735   2.576   3.080   2.307  0.5239 -0.3337  0.2816
    1C        C  736   2.522   3.212   2.305  0.5070 -0.3409  0.2505
    1C        C  737   2.608   3.017   2.429  0.2370 -0.2515  0.4001
    1C        C  738   2.589   3.087   2.549  0.3282  0.1065  0.2073
    1C        C  739   2.690   2.904   2.672  0.4505 -0.1785 -0.1628
    1C        C  740   2.614   3.023   2.673  0.4228 -0.1960  0.0325
    1C        C  741   2.735   2.849   2.794  0.1437  0.0313  0.0461
    1C        C  742   2.693   2.907   2.916 -0.4665 -0.3711  0.0340
    1C        C  743   2.742   2.854   3.037 -0.0789 -0.3772 -0.1229
    1C        C  744   2.536   3.066   2.075 -0.2349  0.3211  0.3644
    1C        C  745   2.690   2.902   2.189  0.1434  0.0381 -0.1149
    1C        C  746   2.606   3.015   2.185  0.2452  0.1165 -0.0303
    1C        C  747   2.731   2.839   2.309  0.1638 -0.2689 -0.2831
    1C        C  748   2.685   2.898   2.428 -0.1633 -0.5147 -0.2856
    1C        C  749   2.734   2.847   2.551 -0.0573 -0.3625 -0.2648
    1C        C  750   2.743   2.848   2.071 -0.3197  0.0123 -0.3095
    1C        C  751   3.667   2.327   1.972  0.0971  0.5461  0.0075
    1C        O  752   3.678   2.207   2.007  0.1322  0.5517  0.0148
    1C        O  753   3.670   2.345   1.833 -0.0157 -0.5535 -0.1410
    1C        C  754   4.636   3.052   1.989 -0.1934  0.1891  0.2536
    1C        O  755   4.628   3.040   1.863 -0.3642 -0.0200  0.2826
    1C        O  756   4.759   3.035   2.053 -0.1835 -0.5840  0.0388
    1C        C  757   4.463   4.223   1.979  0.0341 -0.5392  0.2870
    1C        O  758   4.563   4.280   2.029  0.0389 -0.1205 -0.1846
    1C        O  759   4.457   4.247   1.841  0.0813 -0.0484  0.3708
    1C        C  760   3.601   4.663   1.946  0.7626  0.0913 -0.2393
    1C        O  761   3.639   4.779   1.978  0.1869  0.2428 -0.0866
    1C        O  762   3.608   4.640   1.808 -0.3519 -0.1625 -0.2662
    1C        C  763   2.865   4.503   1.959  0.0451 -0.1241  0.0952
    1C        O  764   2.866   4.492   1.833  0.5213 -0.2045  0.1038
    1C        O  765   2.831   4.629   2.010  0.1061 -0.1639  0.2364
    1C        C  766   2.351   3.474   1.951  0.1005  0.3231 -0.0419
    1C        O  767   2.397   3.451   1.837 -0.1261 -0.3585  0.0010
    1C        O  768   2.233   3.549   1.938  0.0743  0.3253  0.1902
    1C        C  769   4.707   3.593   5.038  0.5656 -0.0873 -0.4590
    1C        O  770   4.687   3.545   5.152 -0.4552  0.0558 -0.5707
    1C        O  771   4.831   3.650   5.006  0.3236  0.8141  0.1547
    1C        C  772   4.258   4.435   5.058 -0.2515  0.5025  0.2536
    1C        O  773   4.244   4.377   5.169  0.4753  0.4934  0.3443
    1C        O  774   4.322   4.560   5.057 -0.5390  0.6505 -0.4571
    1C        C  775   4.153   2.494   5.052 -0.1377  0.0620  0.6851
    1C        O  776   4.192   2.387   4.997  0.0155  0.6265 -0.3303
    1C        O  777   4.167   2.483   5.191  1.0961  0.0038  0.5641
    1C        C  778   2.860   4.547   5.032 -0.1653 -0.0812 -0.0138
    1C        O  779   2.834   4.654   4.971 -0.0070  0.3326  0.6302
    1C        O  780   2.854   4.547   5.172  0.1151  0.3590 -0.0000
    1C        C  781   2.493   3.037   5.087  0.4603 -0.1167 -0.0759
    1C        O  782   2.393   2.968   5.052  0.1843  0.2013  0.0882
    1C        O  783   2.477   3.083   5.217 -0.0075  0.4691 -0.3374
    1C        C  784   2.403   3.979   5.039 -0.2709  0.0992 -0.1720
    1C        O  785   2.304   4.053   5.014 -0.5240 -0.2242 -0.1456
    1C        O  786   2.419   3.969   5.178 -0.4040 -0.8793 -0.2211
    1C        C  787   2.953   2.418   2.013 -0.2262 -0.4383  0.0869
    1C        O  788   2.903   2.432   1.898  0.4947 -0.2160 -0.2049
    1C        O  789   2.917   2.298   2.073 -0.2158 -0.0918  0.7920
    1C        C  790   3.188   2.379   5.073  0.1089  0.0750  0.0983
    1C        O  791   3.109   2.281   5.061 -0.2936  0.4889 -0.7577
    1C        O  792   3.202   2.408   5.209 -0.2871  0.8303 -0.0151
    1C        H  793   4.261   3.031   5.046 -0.3838 -0.5221  0.2901
    1C        H  794   4.173   2.808   5.072  0.0898 -0.6200 -0.3139
    1C        H  795   4.466   3.143   5.064  1.1674 -1.4124 -0.5818
    1C        H  796   4.535   3.365   5.059 -2.5033 -0.3983  0.0986
    1C        H  797   4.565   3.812   5.043  0.5309  0.3981 -0.0269
    1C        H  798   4.463   4.019   5.042 -0.4226 -1.8729  0.9821
    1C        H  799   4.246   4.136   5.037  0.3435 -0.5009 -0.1206
    1C        H  800   4.014   4.521   5.035  0.6989  0.6675 -0.1294
    1C        H  801   3.810   4.646   5.019  1.0412 -1.9443  2.0762
    1C        H  802   3.583   4.628   5.038 -0.6958  0.8185 -0.2027
    1C        H  803   3.388   4.461   5.035 -0.4154  1.1996  0.9602
    1C        H  804   3.158   4.467   5.053 -0.3268  0.1966 -0.1671
    1C        H  805   3.896   2.472   5.063  0.5490 -0.4706 -0.7930
    1C        H  806   3.679   2.438   5.072  1.1880  1.6266  0.4820
    1C        H  807   3.020   2.583   5.074 -0.0686 -1.2857  0.4915
    1C        H  808   3.446   2.508   5.076  0.5870 -0.5855  0.6074
    1C        H  809   2.882   2.748   5.082 -1.0437 -1.3633  0.2703
    1C        H  810   2.668   2.839   5.053  0.9032 -0.6041 -0.0525
    1C        H  811   2.460   3.283   5.053 -1.1743 -1.8450  0.3297
    1C        H  812   2.562   3.508   5.069  0.6972  0.3283 -0.1190
    1C        H  813   2.504   3.728   5.071 -0.6733 -0.6557 -0.4407
    1C        H  814   2.565   4.189   5.030 -0.1117 -0.2166 -0.1159
    1C        H  815   2.793   4.276   5.046  0.2543  2.1645  1.4942
    1C        H  816   2.712   2.887   1.975  1.2823  0.0170 -0.8552
    1C        H  817   2.819   2.676   1.986 -0.8784 -1.2310  0.7913
    1C        H  818   3.221   2.470   1.983 -0.6260 -1.0589  0.0405
    1C        H  819   3.429   2.458   1.980  0.2957 -0.2150 -0.3688
    1C        H  820   3.841   2.550   1.969  1.0948  0.3209 -0.3567
    1C        H  821   4.074   2.589   1.973 -0.6158 -0.7014 -0.2009
    1C        H  822   4.230   2.735   1.965  1.6514 -0.5105 -1.1111
    1C        H  823   4.380   2.919   1.971  1.1226  0.9385  0.2195
    1C        H  824   4.607   3.306   1.976 -1.1657 -0.4382 -0.6942
    1C        H  825   4.516   3.517   1.956  0.7546 -0.0019  0.2024
    1C        H  826   4.571   3.753   1.982  1.1457  0.3140  0.8941
    1C        H  827   3.822   4.558   1.970  0.6514 -1.2013 -0.5900
    1C        H  828   3.939   4.343   1.956  1.7417  0.5451 -0.7761
    1C        H  829   4.165   4.251   1.952  1.4622 -1.1518  0.4227
    1C        H  830   4.495   3.967   1.964  1.8349  0.2397  0.4113
    1C        H  831   2.658   3.826   1.970 -0.8810 -0.4438 -0.0244
    1C        H  832   2.700   4.061   1.958 -0.5846  0.2383  0.0612
    1C        H  833   2.724   4.279   1.964 -1.6176 -0.6713  1.4029
    1C        H  834   3.387   4.451   1.956  0.6743 -4.6652  1.3670
    1C        H  835   3.151   4.395   1.955  0.5289  0.6543 -1.3670
    1C        H  836   2.521   3.004   1.988  0.8660 -0.4708  0.7152
    1C        H  837   2.398   3.205   2.004 -0.1129 -0.7625 -0.8315
    1C        H  838   2.491   3.677   1.967  0.8518 -1.1070 -0.2605
    2V3OU   H29  839   2.812   3.545   1.584  1.8836 -0.0949  0.3421
    2V3OU   C27  840   2.785   3.499   1.682  0.3719 -0.5951 -0.2728
    2V3OU   H27  841   2.716   3.564   1.741  0.7861  0.2697 -0.7208
    2V3OU   H28  842   2.740   3.397   1.671  2.2120 -1.4799 -0.0514
    2V3OU   O11  843   2.908   3.473   1.750  0.3203  0.4293  0.2245
    2V3OU   C15  844   2.919   3.400   1.867  0.1224  0.2705  0.1432
    2V3OU   C13  845   3.047   3.376   1.921  0.2799 -0.1627 -0.4045
    2V3OU   C14  846   3.077   3.267   2.004 -0.1012  0.1667  0.1723
    2V3OU   C16  847   2.972   3.190   2.052  0.4163 -0.2035  0.7191
    2V3OU    H6  848   2.986   3.110   2.126  1.4097  1.4024  2.3496
    2V3OU   C12  849   3.214   3.223   2.038 -0.1265  0.2239  0.3465
    2V3OU    O2  850   3.239   3.121   2.106  0.3585  0.2615  0.2273
    2V3OU   C10  851   3.327   3.304   1.989 -0.1653 -0.2900 -0.5991
    2V3OU    C8  852   3.460   3.270   2.010 -0.1450 -0.2433 -0.6629
    2V3OU   O10  853   3.494   3.155   2.074 -0.0812 -0.1568 -0.5435
    2V3OU   H26  854   3.409   3.117   2.102  0.4952 -0.2986  1.1591
    2V3OU    C6  855   3.567   3.348   1.955 -0.4406  0.2248 -0.5727
    2V3OU    C5  856   3.537   3.469   1.893 -0.0345  0.3046 -0.6132
    2V3OU    C4  857   3.706   3.296   1.959 -0.6020 -0.1715  0.2457
    2V3OU    H4  858   3.719   3.234   2.052  0.3670  2.0022  1.6556
    2V3OU    H5  859   3.722   3.229   1.869  0.5186 -0.1857  0.4349
    2V3OU    C2  860   3.819   3.400   1.965 -0.4283 -0.3532  0.1546
    2V3OU    O6  861   3.807   3.469   2.090  0.2763  0.0361  0.0078
    2V3OU   H21  862   3.773   3.556   2.065  2.4507  0.5121 -1.6060
    2V3OU    C3  863   3.787   3.500   1.854 -0.4195 -0.6661 -0.1316
    2V3OU    H2  864   3.868   3.576   1.843 -2.1885  1.5932  1.4579
    2V3OU    H3  865   3.779   3.444   1.758 -2.2073  0.8899 -0.9528
    2V3OU   C25  866   3.952   3.332   1.933 -0.1423  0.0960  0.3897
    2V3OU    O7  867   3.991   3.304   1.820 -0.1473 -0.3980  0.5108
    2V3OU   C26  868   4.036   3.288   2.052  0.6818 -0.7005 -0.4771
    2V3OU   H22  869   4.073   3.384   2.097 -2.2826  0.5874 -0.5864
    2V3OU   H23  870   4.124   3.229   2.016 -0.2830 -1.5609 -1.4916
    2V3OU    O8  871   3.964   3.218   2.151 -0.0164 -0.0553 -0.5229
    2V3OU   H24  872   3.935   3.277   2.223  2.5085  0.9623 -0.2149
    2V3OU    C1  873   3.652   3.564   1.882 -0.0628  0.3341 -0.6462
    2V3OU    H1  874   3.626   3.624   1.790 -0.3225  1.4017  0.1015
    2V3OU    O3  875   3.659   3.652   1.995  0.3634  0.0133 -0.4232
    2V3OU   C19  876   3.614   3.787   1.989  0.3440  0.0565  0.4879
    2V3OU    H9  877   3.525   3.808   1.923  0.0290  1.2594  1.2558
    2V3OU    O4  878   3.708   3.853   1.907  0.0446  0.6367  0.6085
    2V3OU   C20  879   3.840   3.875   1.958  0.0568  0.5341  0.6200
    2V3OU   H10  880   3.887   3.775   1.979  0.9224  1.3078  2.6051
    2V3OU   C24  881   3.611   3.856   2.126 -0.2138 -0.0337  0.5204
    2V3OU   H16  882   3.537   3.795   2.184 -2.3855  1.4254 -0.5889
    2V3OU   H17  883   3.565   3.953   2.096 -1.0001 -1.3162 -2.8972
    2V3OU   C23  884   3.750   3.875   2.187 -0.0697 -0.2313  0.2573
    2V3OU   H15  885   3.795   3.774   2.214  3.1139  0.7576 -0.9413
    2V3OU    N1  886   3.737   3.952   2.309 -0.0526  0.2965 -0.0748
    2V3OU   H19  887   3.813   3.917   2.364  2.1001  1.5417 -2.0468
    2V3OU   H20  888   3.652   3.929   2.355 -1.2310  3.3831 -0.4587
    2V3OU   C21  889   3.852   3.946   2.093 -0.0997  0.4074  0.6999
    2V3OU   H11  890   3.955   3.928   2.135  0.3414  2.3236  0.5143
    2V3OU    O5  891   3.818   4.084   2.093  0.0954  0.4629 -0.1880
    2V3OU   H18  892   3.782   4.103   2.182  0.3624  1.1810 -0.2309
    2V3OU   C22  893   3.913   3.944   1.844  0.2131  0.0113  0.4022
    2V3OU   H12  894   3.860   4.039   1.816  0.5034 -0.3659 -1.6285
    2V3OU   H13  895   3.896   3.888   1.748 -0.6779  0.2397  0.4195
    2V3OU   H14  896   4.020   3.960   1.873 -0.0124  0.3133  1.0909
    2V3OU   C11  897   3.159   3.469   1.903  0.2696  0.0372  0.4992
    2V3OU    O1  898   3.133   3.591   1.898 -0.7600 -0.1852  0.3237
    2V3OU    C9  899   3.299   3.429   1.928  0.3710  0.2977  0.3460
    2V3OU    C7  900   3.401   3.512   1.882  0.0324  0.8699  0.6241
    2V3OU    O9  901   3.383   3.627   1.808  0.3932  0.7457  0.3400
    2V3OU   H25  902   3.288   3.630   1.787  0.6390  0.0378 -1.0012
    2V3OU   C17  903   2.816   3.317   1.916  0.0676  0.4315  0.3030
    2V3OU    H7  904   2.715   3.343   1.885 -0.5212 -0.0829  1.7321
    2V3OU   C18  905   2.843   3.213   2.004  0.7528  0.4463  0.1168
    2V3OU    H8  906   2.768   3.140   2.037  0.8192  0.6405  0.7018
    3SOL     OW  907   3.051   5.201   1.655 -0.5557  0.0125  0.5926
    3SOL    HW1  908   3.052   5.120   1.597 -1.5486 -0.6055  1.4105
    3SOL    HW2  909   3.019   5.177   1.747  2.3315  0.6626  1.9035
    4SOL     OW  910   5.039   0.169   1.272 -0.4100 -0.0695 -0.2105
    4SOL    HW1  911   5.078   0.122   1.352  0.8809 -0.7299 -1.1871
    4SOL    HW2  912   5.099   0.244   1.246 -1.2142  0.6088 -0.1180
    5SOL     OW  913   2.363   2.230   2.208 -0.0641  0.0880  0.0226
    5SOL    HW1  914   2.367   2.212   2.109  2.6715  2.1856 -0.3777
    5SOL    HW2  915   2.286   2.291   2.227  0.2401  0.8422 -1.0623
    6SOL     OW  916   3.950   6.729   1.607 -0.1615 -0.3983  0.1484
    6SOL    HW1  917   4.034   6.702   1.560 -0.1725 -2.8836  1.3551
    6SOL    HW2  918   3.969   6.741   1.704 -1.2348 -1.3595  0.5016
    7SOL     OW  919   5.996   3.548   3.042 -0.2180  0.0409  0.2217
    7SOL    HW1  920   6.017   3.480   2.973 -1.7652 -0.3313  0.0765
    7SOL    HW2  921   6.017   3.512   3.133  0.7733  0.1125  0.0269
    8SOL     OW  922   0.501   5.556   4.940 -0.4564  0.3965 -0.1736
    8SOL    HW1  923   0.500   5.484   4.871 -0.3886  0.4454 -0.2260
    8SOL    HW2  924   0.424   5.618   4.925 -1.1853 -0.3161  0.5667
    9SOL     OW  925   2.104   4.390   5.965 -0.1328 -0.0368 -0.3435
    9SOL    HW1  926   2.102   4.480   5.921  0.5216 -0.2029 -0.7358
    9SOL    HW2  927   2.189   4.344   5.940 -1.0507 -1.3026 -1.2288
   10SOL     OW  928   1.611   5.584   3.723  0.0961  0.5349  0.1698
   10SOL    HW1  929   1.648   5.664   3.676  0.2920  0.5021  0.2677
   10SOL    HW2  930   1.633   5.502   3.670 -0.2808  0.5636 -0.0358
   11SOL     OW  931   3.770   0.704   1.026 -0.2021  0.0962 -0.0495
   11SOL    HW1  932   3.755   0.671   0.933 -0.6794  1.5190 -0.5072
   11SOL    HW2  933   3.856   0.668   1.061 -0.2868 -0.9009 -0.8204
   12SOL     OW  934   4.727   4.436   3.505  0.1050 -0.7245 -0.1740
   12SOL    HW1  935   4.729   4.421   3.604  0.1415 -0.0514 -0.0637
   12SOL    HW2  936   4.804   4.494   3.479 -0.7161  0.3027 -0.3790
   13SOL     OW  937   2.650   6.941   1.543  0.4985  0.2691  0.0412
   13SOL    HW1  938   2.689   6.883   1.471 -0.4616 -0.4747  0.0924
   13SOL    HW2  939   2.654   7.036   1.515  0.9284  0.0638 -0.6211
   14SOL     OW  940   4.964   6.575   1.157 -0.0932  0.0781  0.4519
   14SOL    HW1  941   4.895   6.603   1.090  0.1805  0.2167  0.2237
   14SOL    HW2  942   4.940   6.486   1.194  1.1987 -1.3846 -1.9468
   15SOL     OW  943   0.627   5.979   5.196  0.0045 -0.1581 -0.1382
   15SOL    HW1  944   0.673   6.026   5.121 -0.6164 -0.0921 -0.4896
   15SOL    HW2  945   0.670   5.891   5.212 -0.6393 -0.7490 -1.4437
   16SOL     OW  946   5.412   3.452   5.087 -0.0999 -0.6072 -0.1368
   16SOL    HW1  947   5.394   3.548   5.110 -0.3605 -0.5859 -0.4260
   16SOL    HW2  948   5.326   3.402   5.083 -0.1139 -0.5014 -1.5357
   17SOL     OW  949   5.633   5.154   3.262 -0.5068  0.7002 -0.3033
   17SOL    HW1  950   5.693   5.231   3.239  0.6991 -0.8451 -2.7943
   17SOL    HW2  951   5.560   5.148   3.194 -0.4979 -0.4229 -0.2276
   18SOL     OW  952   2.276   2.729   6.502 -0.0121  0.3686 -0.1083
   18SOL    HW1  953   2.261   2.818   6.543  1.5288  0.7331 -0.2778
   18SOL    HW2  954   2.374   2.709   6.500 -0.3515 -1.5498  0.3903
   19SOL     OW  955   0.709   0.308   2.943 -0.1866 -0.3160 -0.7968
   19SOL    HW1  956   0.734   0.379   3.008  1.0914 -0.5647 -0.9707
   19SOL    HW2  957   0.640   0.342   2.880 -0.2406  0.4655 -0.3234
   20SOL     OW  958   2.824   1.115   4.626  0.1970 -0.1322  0.4170
   20SOL    HW1  959   2.786   1.204   4.653  0.1107 -0.5499  1.7379
   20SOL    HW2  960   2.790   1.044   4.687 -0.9632 -1.3755 -1.5434
   21SOL     OW  961   2.912   2.320   3.557 -0.0062  0.5011  0.2207
   21SOL    HW1  962   2.834   2.320   3.495 -0.4511  1.5578  0.7422
   21SOL    HW2  963   2.990   2.274   3.514 -0.2393  1.3852 -1.2011
   22SOL     OW  964   1.757   6.371   6.221  0.7662 -0.4951  0.3533
   22SOL    HW1  965   1.717   6.283   6.245 -0.3669 -0.4604 -1.2451
   22SOL    HW2  966   1.843   6.383   6.270 -0.0105 -1.6229  2.0731
   23SOL     OW  967   5.835   6.559   2.189  0.1246  0.5249  0.4753
   23SOL    HW1  968   5.900   6.580   2.115  0.4264 -0.3549  0.4853
   23SOL    HW2  969   5.749   6.608   2.171  0.1040  0.1289 -0.5973
   24SOL     OW  970   4.528   1.049   4.027 -0.6261  0.3924 -0.2232
   24SOL    HW1  971   4.525   1.148   4.015  0.6518  0.6036  0.9210
   24SOL    HW2  972   4.464   1.023   4.099 -1.5422  0.2703 -1.0636
   25SOL     OW  973   3.841   6.177   6.022  0.2348  0.4210  0.6062
   25SOL    HW1  974   3.773   6.136   6.083 -0.2221  2.1128  1.2876
   25SOL    HW2  975   3.817   6.273   6.005  2.2112  0.9348  0.4968
   26SOL     OW  976   6.433   1.424   1.999 -0.6322 -0.2069 -0.5379
   26SOL    HW1  977   6.333   1.420   2.001 -0.6363  0.1265  0.5316
   26SOL    HW2  978   6.465   1.399   1.907 -1.6712 -0.6805 -0.7950
   27SOL     OW  979   1.482   6.476   6.229  0.1241  0.0597  0.0272
   27SOL    HW1  980   1.570   6.520   6.248  0.2596  0.1953 -0.8836
   27SOL    HW2  981   1.456   6.493   6.134 -1.1454  0.4613  0.4267
   28SOL     OW  982   4.069   0.593   6.188 -0.6344  0.3849 -0.0271
   28SOL    HW1  983   4.067   0.693   6.194 -1.7401  0.3072  1.2980
   28SOL    HW2  984   4.163   0.561   6.194 -0.3225  1.3091  0.1513
   29SOL     OW  985   5.625   2.842   2.068  0.1619  0.1454 -0.1316
   29SOL    HW1  986   5.608   2.781   2.145  1.2253 -1.4024 -1.0571
   29SOL    HW2  987   5.540   2.856   2.018 -0.2938  0.2020  0.6361
   30SOL     OW  988   3.395   5.875   4.252 -0.1705 -0.0267 -0.2548
   30SOL    HW1  989   3.460   5.835   4.188 -0.8684  1.0071 -1.6686
   30SOL    HW2  990   3.355   5.957   4.211 -0.8920  0.4789  1.3911
   31SOL     OW  991   0.353   2.132   5.283 -0.3303  0.6498 -0.5081
   31SOL    HW1  992   0.412   2.054   5.304 -0.3854  0.2626 -1.7237
   31SOL    HW2  993   0.397   2.216   5.315 -0.2389  0.1426  0.7545
   32SOL     OW  994   0.645   2.185   2.610  0.4447  0.5028  0.2544
   32SOL    HW1  995   0.611   2.242   2.685 -1.3006 -0.3727  0.1648
   32SOL    HW2  996   0.667   2.094   2.645 -0.3887  0.0885 -0.2786
   33SOL     OW  997   3.264   1.942   6.957 -0.1537  0.4412  0.0937
   33SOL    HW1  998   3.241   1.847   6.940 -0.8259  0.7639 -0.9013
   33SOL    HW2  999   3.352   1.963   6.914  0.2382  0.1501  0.7422
   34SOL     OW 1000   3.669   0.412   4.502 -0.0514 -0.0511 -0.0580
   34SOL    HW1 1001   3.583   0.462   4.516 -0.1341 -0.1474 -0.2195
   34SOL    HW2 1002   3.715   0.448   4.421  0.3520  0.4038  0.3625
   35SOL     OW 1003   5.121   3.936   6.850  0.0783  0.3586  0.6273
   35SOL    HW1 1004   5.180   3.951   6.770  0.7394 -2.2182  0.5581
   35SOL    HW2 1005   5.028   3.964   6.828 -0.2380 -2.1916 -1.8924
   36SOL     OW 1006   2.483   0.815   6.280  0.4291  0.0733  0.5782
   36SOL    HW1 1007   2.396   0.861   6.295 -0.5368 -1.1788 -0.9151
   36SOL    HW2 1008   2.513   0.830   6.185  0.5830 -1.4715  0.3467
   37SOL     OW 1009   3.343   0.760   1.524 -0.8714  0.1334  0.4980
   37SOL    HW1 1010   3.437   0.788   1.545 -0.6462  1.0067 -1.4794
   37SOL    HW2 1011   3.336   0.734   1.428 -2.2308 -1.9455  1.0995
   38SOL     OW 1012   6.296   5.807   1.544 -0.5869 -0.7320 -0.6980
   38SOL    HW1 1013   6.314   5.754   1.627 -4.0362  1.5824  1.8505
   38SOL    HW2 1014   6.235   5.755   1.484  0.0094 -1.5093 -0.6432
   39SOL     OW 1015   0.464   5.202   4.994  0.2898  0.2780  0.3992
   39SOL    HW1 1016   0.444   5.115   4.949 -0.7764  0.3575  0.7067
   39SOL    HW2 1017   0.456   5.190   5.093 -4.0481  1.6381  0.4068
   40SOL     OW 1018   5.888   2.856   1.176 -0.1917  0.1780  0.1414
   40SOL    HW1 1019   5.946   2.931   1.145 -0.0027 -0.3318 -0.7925
   40SOL    HW2 1020   5.921   2.821   1.263  1.3474 -0.5371 -0.6836
   41SOL     OW 1021   2.265   5.073   4.863 -0.0716 -0.1109  0.7978
   41SOL    HW1 1022   2.250   5.170   4.880 -0.5077 -0.1210  0.4982
   41SOL    HW2 1023   2.351   5.044   4.905  1.1457  0.8765 -0.8833
   42SOL     OW 1024   1.281   0.363   6.589  0.2217  0.4897 -0.0212
   42SOL    HW1 1025   1.267   0.338   6.684 -2.2576  1.5652 -0.0239
   42SOL    HW2 1026   1.378   0.354   6.566  0.5642 -1.9475  1.9167
   43SOL     OW 1027   5.852   5.578   5.817 -0.0985 -0.1398  0.1278
   43SOL    HW1 1028   5.907   5.542   5.892 -0.2187 -0.9879 -0.1795
   43SOL    HW2 1029   5.806   5.662   5.846  0.5327  0.0015  0.7187
   44SOL     OW 1030   6.902   0.650   5.317 -0.0701 -0.2887  0.2760
   44SOL    HW1 1031   6.985   0.630   5.369  0.3207  0.2084 -0.1417
   44SOL    HW2 1032   6.890   0.581   5.245  0.7951  0.4473 -0.6035
   45SOL     OW 1033   4.478   5.781   4.355 -0.2128 -0.2289 -0.5568
   45SOL    HW1 1034   4.385   5.755   4.380 -0.3572  0.6884 -0.1031
   45SOL    HW2 1035   4.510   5.724   4.279 -1.9924  0.9524 -2.2754
   46SOL     OW 1036   5.184   3.371   6.667 -0.5930 -0.8008  0.0337
   46SOL    HW1 1037   5.220   3.351   6.576  1.5904 -1.4119  0.9663
   46SOL    HW2 1038   5.249   3.431   6.715 -1.5488 -0.7643  1.3114
   47SOL     OW 1039   5.136   3.588   2.572 -0.0057 -0.5194 -0.1020
   47SOL    HW1 1040   5.076   3.541   2.637 -1.6824  2.2309  0.5284
   47SOL    HW2 1041   5.082   3.620   2.494  0.6871  1.5020  0.1805
   48SOL     OW 1042   1.160   2.008   4.293 -0.0645 -0.1389  0.3505
   48SOL    HW1 1043   1.125   1.924   4.334 -0.8313  0.2585  0.5355
   48SOL    HW2 1044   1.197   2.068   4.364  0.6418 -0.3851  0.1996
   49SOL     OW 1045   4.792   4.640   2.214 -0.1467  0.5168  0.2290
   49SOL    HW1 1046   4.846   4.576   2.159 -1.2926  0.0554 -0.4050
   49SOL    HW2 1047   4.697   4.610   2.215 -0.2833  0.9264  1.8968
   50SOL     OW 1048   5.407   1.613   5.589  0.2537  0.1637  0.1704
   50SOL    HW1 1049   5.353   1.687   5.550 -0.7290 -0.5626  0.1016
   50SOL    HW2 1050   5.490   1.600   5.535  0.6642  1.4829  0.4470
   51SOL     OW 1051   2.655   5.245   1.444  0.3878 -0.0018  0.1056
   51SOL    HW1 1052   2.698   5.333   1.465 -1.2599  1.0382 -0.6896
   51SOL    HW2 1053   2.637   5.196   1.529 -2.3109  2.2366  0.9669
   52SOL     OW 1054   3.813   1.382   3.221 -0.3174  0.4565 -0.2738
   52SOL    HW1 1055   3.734   1.431   3.258  0.6475  0.3959  2.0438
   52SOL    HW2 1056   3.818   1.398   3.123 -2.9477  0.7867 -0.4379
   53SOL     OW 1057   5.340   1.676   4.038 -0.0630 -0.3111 -0.2509
   53SOL    HW1 1058   5.348   1.601   3.972 -0.1466  0.1508 -0.7894
   53SOL    HW2 1059   5.244   1.698   4.052 -0.0014  0.4397 -0.9493
   54SOL     OW 1060   3.162   4.273   6.893 -0.0404 -0.1903 -0.1889
   54SOL    HW1 1061   3.143   4.216   6.814  2.5570 -0.0304 -1.0341
   54SOL    HW2 1062   3.091   4.260   6.962 -1.0828 -2.1845 -1.5480
   55SOL     OW 1063   3.969   1.628   0.433  0.0307  0.1027 -0.2589
   55SOL    HW1 1064   3.985   1.632   0.531  0.2268  0.6937 -0.3076
   55SOL    HW2 1065   3.906   1.553   0.412 -1.8250  1.3368  0.5775
   56SOL     OW 1066   1.640   0.094   2.144 -0.3944  0.1830 -0.5129
   56SOL    HW1 1067   1.620   0.016   2.203  0.3547  1.1500  1.0848
   56SOL    HW2 1068   1.579   0.169   2.166 -0.2903  0.4717 -1.1791
   57SOL     OW 1069   4.312   1.022   0.467  0.2187  0.5655  0.7789
   57SOL    HW1 1070   4.357   0.939   0.434 -3.1003 -2.0549  2.2793
   57SOL    HW2 1071   4.275   1.073   0.390 -0.6053 -1.2041 -0.0457
   58SOL     OW 1072   0.666   5.862   6.601 -0.5075  0.2148  0.4087
   58SOL    HW1 1073   0.629   5.835   6.513  1.7385 -1.0139 -0.2527
   58SOL    HW2 1074   0.634   5.954   6.625  0.8464  1.7372 -2.9778
   59SOL     OW 1075   6.043   0.590   6.242 -0.2759  0.4638  0.1348
   59SOL    HW1 1076   6.117   0.626   6.184 -0.8296  1.0351 -0.2266
   59SOL    HW2 1077   6.033   0.492   6.226  1.2765  0.0877  1.1574
   60SOL     OW 1078   5.862   6.878   4.418 -0.2922 -0.3476 -0.2035
   60SOL    HW1 1079   5.823   6.953   4.364  0.0067 -0.3235 -0.3896
   60SOL    HW2 1080   5.859   6.901   4.515 -0.9154 -0.4285 -0.2008
   61SOL     OW 1081   4.891   1.415   5.765  0.2580  0.5387 -0.0014
   61SOL    HW1 1082   4.817   1.442   5.826 -0.7848  1.6128 -1.6417
   61SOL    HW2 1083   4.933   1.496   5.725  1.9590 -0.0792  0.4422
   62SOL     OW 1084   6.501   1.358   3.258  0.4013  0.3286 -0.3464
   62SOL    HW1 1085   6.567   1.337   3.330  1.7191  1.8182 -1.0353
   62SOL    HW2 1086   6.528   1.312   3.173  0.1524  0.3745 -0.4511
   63SOL     OW 1087   5.276   3.186   3.535  0.1380  0.4931  0.6428
   63SOL    HW1 1088   5.354   3.128   3.515 -0.0037  0.2135  0.8962
   63SOL    HW2 1089   5.232   3.214   3.449  0.0394 -0.0012  0.5324
   64SOL     OW 1090   6.916   3.462   0.534  0.8516  0.5726  0.0698
   64SOL    HW1 1091   6.837   3.405   0.553  1.0648 -0.0035 -0.6991
   64SOL    HW2 1092   6.967   3.478   0.618 -1.0614  2.5034  0.9472
   65SOL     OW 1093   6.761   4.470   5.175 -0.3774 -0.0130  0.3228
   65SOL    HW1 1094   6.740   4.467   5.077 -0.4910  0.8934  0.3095
   65SOL    HW2 1095   6.815   4.391   5.200 -2.2739 -1.4926 -0.0093
   66SOL     OW 1096   4.089   6.506   5.985  0.0077  0.0131 -0.3644
   66SOL    HW1 1097   4.075   6.448   5.905 -1.1313 -1.0918  0.6026
   66SOL    HW2 1098   4.187   6.510   6.007  0.3755  0.6238 -1.9878
   67SOL     OW 1099   6.394   6.424   4.256 -0.2691 -0.0066 -0.2525
   67SOL    HW1 1100   6.305   6.417   4.301 -0.1491  1.2349  0.1974
   67SOL    HW2 1101   6.467   6.410   4.324 -0.0679  2.7380  0.1817
   68SOL     OW 1102   0.184   6.834   6.235  0.1776 -0.4067  0.5242
   68SOL    HW1 1103   0.200   6.908   6.300 -0.2190  0.0279  0.1397
   68SOL    HW2 1104   0.207   6.865   6.142 -0.9945 -0.3885  0.2141
   69SOL     OW 1105   1.888   5.968   0.755 -0.3384  0.4932 -0.0416
   69SOL    HW1 1106   1.976   6.013   0.770 -0.2603  0.5696 -0.7218
   69SOL    HW2 1107   1.896   5.871   0.779 -0.0558  0.4898 -0.1478
   70SOL     OW 1108   6.375   3.659   4.033  0.6422 -0.4134  0.8671
   70SOL    HW1 1109   6.323   3.682   4.115  1.1951 -1.0594  1.4136
   70SOL    HW2 1110   6.364   3.562   4.012  1.1553 -0.4339  0.6599
   71SOL     OW 1111   4.123   2.182   2.690  0.3103  0.1884  0.6094
   71SOL    HW1 1112   4.197   2.201   2.626  0.7284  1.4731  1.4253
   71SOL    HW2 1113   4.159   2.181   2.784 -0.2494 -1.8756  0.8401
   72SOL     OW 1114   3.499   5.033   6.085  0.1023 -0.0894 -0.0265
   72SOL    HW1 1115   3.517   5.017   5.988 -1.0993  2.3793 -0.7300
   72SOL    HW2 1116   3.402   5.021   6.103 -0.3085  2.7106  0.0645
   73SOL     OW 1117   2.641   2.081   7.006  0.0236  0.4823 -0.9935
   73SOL    HW1 1118   2.608   1.996   6.966  0.7914  0.5201 -1.7278
   73SOL    HW2 1119   2.624   2.080   7.105  0.7228 -0.8459 -0.8691
   74SOL     OW 1120   5.728   6.847   5.898  0.3186  0.2486  0.4720
   74SOL    HW1 1121   5.746   6.855   5.800  1.7641  0.2580  0.7118
   74SOL    HW2 1122   5.723   6.751   5.923 -0.4558  0.2454  0.3368
   75SOL     OW 1123   4.486   0.137   6.281  1.0581 -0.4120  0.2960
   75SOL    HW1 1124   4.532   0.123   6.369  0.3583  0.6855  0.8489
   75SOL    HW2 1125   4.554   0.163   6.212  1.4581 -0.1482  0.7853
   76SOL     OW 1126   1.473   1.361   1.644  0.2248  0.4660 -0.5739
   76SOL    HW1 1127   1.447   1.449   1.603  1.9930  1.2704 -0.0517
   76SOL    HW2 1128   1.460   1.366   1.744  1.6970  0.6720 -0.3725
   77SOL     OW 1129   4.793   5.837   3.297  0.4700  0.2051 -0.1743
   77SOL    HW1 1130   4.759   5.767   3.361  1.4985  0.0048  0.1678
   77SOL    HW2 1131   4.756   5.820   3.206 -1.1284  0.5623  0.3571
   78SOL     OW 1132   6.562   6.668   5.468 -0.7062  0.9508  0.1571
   78SOL    HW1 1133   6.463   6.656   5.476 -0.7840  0.0215 -1.6095
   78SOL    HW2 1134   6.602   6.683   5.558 -2.5331  2.0623  0.8146
   79SOL     OW 1135   1.061   6.187   6.723 -0.0486 -0.3655  0.3787
   79SOL    HW1 1136   1.021   6.095   6.718 -1.6025  0.2345  1.3033
   79SOL    HW2 1137   0.998   6.248   6.771  0.2723  1.5850 -1.5911
   80SOL     OW 1138   6.091   0.724   2.883  0.0886 -0.5548 -0.0257
   80SOL    HW1 1139   6.068   0.753   2.976 -0.8355 -0.9906 -0.1085
   80SOL    HW2 1140   6.190   0.712   2.876  0.2181 -0.0499  0.7606
   81SOL     OW 1141   3.038   0.033   4.587  0.2867  0.5047 -0.0422
   81SOL    HW1 1142   3.137   0.017   4.591  1.0303  3.9212 -1.3421
   81SOL    HW2 1143   3.005   0.013   4.495 -0.0400  0.2137  0.1393
   82SOL     OW 1144   0.269   5.468   2.021  0.7571  0.4437  0.1520
   82SOL    HW1 1145   0.181   5.488   2.063 -0.1901 -0.0921 -1.5185
   82SOL    HW2 1146   0.286   5.533   1.947  1.6832  0.4216  0.3332
   83SOL     OW 1147   5.666   0.100   0.585 -0.1095 -0.9581  0.0714
   83SOL    HW1 1148   5.636   0.053   0.669  0.5946 -0.7093  0.4690
   83SOL    HW2 1149   5.765   0.092   0.576 -0.2282 -1.4302 -1.0229
   84SOL     OW 1150   6.306   3.627   4.553 -0.0541 -0.3780  0.0316
   84SOL    HW1 1151   6.331   3.585   4.466  0.1162 -0.3553  0.0676
   84SOL    HW2 1152   6.389   3.644   4.607 -0.2190 -1.0915  0.5238
   85SOL     OW 1153   1.054   0.562   5.671 -0.1128 -0.4997 -0.1798
   85SOL    HW1 1154   1.105   0.539   5.754 -0.1915  0.3213  0.0952
   85SOL    HW2 1155   1.034   0.660   5.669  1.6363 -0.1308 -2.1409
   86SOL     OW 1156   0.393   1.467   6.654  0.3863 -0.9360 -0.4473
   86SOL    HW1 1157   0.320   1.532   6.677  0.6728 -1.1965  1.3951
   86SOL    HW2 1158   0.470   1.481   6.717 -0.0079 -3.7918  0.7912
   87SOL     OW 1159   4.443   2.995   1.675  0.1172  0.4758  0.3269
   87SOL    HW1 1160   4.458   2.904   1.637  2.6777  0.5169  1.0734
   87SOL    HW2 1161   4.501   3.009   1.755 -1.3346  2.2494  1.1659
   88SOL     OW 1162   3.956   1.685   6.754 -0.3033  0.0537  0.1971
   88SOL    HW1 1163   3.945   1.729   6.843 -3.6606  1.9289 -0.9357
   88SOL    HW2 1164   3.903   1.601   6.751  0.4186 -0.4087  0.1827
   89SOL     OW 1165   1.039   2.767   6.017  0.3888  0.9170 -0.7951
   89SOL    HW1 1166   0.973   2.716   5.961 -1.1360  1.8795  0.0504
   89SOL    HW2 1167   1.042   2.862   5.987 -0.6656  1.5169  0.8768
   90SOL     OW 1168   6.763   0.100   5.184  0.1940 -0.6388 -0.0654
   90SOL    HW1 1169   6.830   0.029   5.203  0.5599 -0.5799 -1.1040
   90SOL    HW2 1170   6.693   0.064   5.122 -1.5956 -1.1694  2.0991
   91SOL     OW 1171   4.929   5.412   3.604 -0.1845  0.1979 -0.0752
   91SOL    HW1 1172   4.832   5.421   3.581  0.0873  0.4899 -1.1553
   91SOL    HW2 1173   4.938   5.373   3.696 -1.3188 -1.1173 -0.4876
   92SOL     OW 1174   2.487   2.970   6.654  1.0536  0.4171  0.1237
   92SOL    HW1 1175   2.420   2.971   6.580  1.2884  0.5602 -0.0877
   92SOL    HW2 1176   2.479   3.055   6.707  0.2068 -0.1138  0.8793
   93SOL     OW 1177   2.504   2.597   6.580  0.4094  0.2166 -0.0035
   93SOL    HW1 1178   2.587   2.651   6.569  0.0635  0.4302 -1.9154
   93SOL    HW2 1179   2.487   2.582   6.677  3.4775 -1.1207  0.4493
   94SOL     OW 1180   0.452   6.660   5.237  0.0744  0.5429 -0.1039
   94SOL    HW1 1181   0.361   6.636   5.269 -0.3914  0.8398 -1.1679
   94SOL    HW2 1182   0.481   6.746   5.279 -0.2269  0.5623  0.0622
   95SOL     OW 1183   3.525   0.244   4.841 -0.0182  0.5609 -0.7039
   95SOL    HW1 1184   3.596   0.187   4.799  1.5286  1.5827  0.3891
   95SOL    HW2 1185   3.453   0.262   4.775  1.7281  1.1611 -2.5555
   96SOL     OW 1186   2.775   5.670   2.055 -0.6905 -0.1292  0.3978
   96SOL    HW1 1187   2.862   5.679   2.104 -0.6776  0.9105  0.1959
   96SOL    HW2 1188   2.765   5.576   2.024 -0.5786 -0.7732  2.1655
   97SOL     OW 1189   1.371   4.047   6.097  0.3299 -0.1818  0.1148
   97SOL    HW1 1190   1.448   4.111   6.092 -0.1692  0.4483  0.3871
   97SOL    HW2 1191   1.358   4.018   6.192  1.1807 -1.4771 -0.1446
   98SOL     OW 1192   0.043   2.733   0.811  0.1872 -0.2977  0.3633
   98SOL    HW1 1193  -0.036   2.703   0.865 -0.7749  1.6993  0.1345
   98SOL    HW2 1194   0.037   2.692   0.719 -0.5430 -0.2338  0.3725
   99SOL     OW 1195   4.230   6.758   0.209  0.0401  0.1568 -0.5832
   99SOL    HW1 1196   4.221   6.683   0.275 -0.4642  0.8530  0.1573
   99SOL    HW2 1197   4.301   6.821   0.240 -0.6028  0.7981 -0.3963
  100SOL     OW 1198   1.178   6.564   6.013  0.1438 -0.3001 -0.8421
  100SOL    HW1 1199   1.178   6.664   6.017  0.9913 -0.2190 -2.2819
  100SOL    HW2 1200   1.272   6.530   6.024 -0.3136 -1.0514  1.2083
  101SOL     OW 1201   1.534   5.980   2.864  0.2323  0.5895  0.3138
  101SOL    HW1 1202   1.595   5.903   2.882 -0.1607  0.0315 -0.6815
  101SOL    HW2 1203   1.478   5.960   2.783  0.7309  2.2604 -0.4940
  102SOL     OW 1204   5.319   0.995   3.201 -0.3969 -0.6520 -0.3387
  102SOL    HW1 1205   5.407   1.041   3.209 -0.3828 -0.8453  0.6983
  102SOL    HW2 1206   5.263   1.041   3.132  0.2978 -0.1831 -0.5930
  103SOL     OW 1207   3.790   0.907   0.628  0.1889  0.0130  0.0263
  103SOL    HW1 1208   3.783   0.944   0.721  1.2466  0.4657 -0.0561
  103SOL    HW2 1209   3.856   0.832   0.627 -0.9776 -1.0594 -0.0723
  104SOL     OW 1210   6.742   5.519   1.134  0.1968 -1.1946 -0.2300
  104SOL    HW1 1211   6.673   5.455   1.168 -0.2211 -0.2458  0.7452
  104SOL    HW2 1212   6.828   5.505   1.183  0.8657 -2.6298 -1.6996
  105SOL     OW 1213   0.484   2.070   4.244  0.1708  0.1163 -0.3925
  105SOL    HW1 1214   0.462   2.154   4.195 -0.6111 -0.3500 -0.8620
  105SOL    HW2 1215   0.551   2.017   4.191 -0.3505 -0.1842 -0.7638
  106SOL     OW 1216   3.163   0.167   5.705 -0.1474 -0.6059  0.0993
  106SOL    HW1 1217   3.064   0.150   5.707 -0.5697  1.5406  1.3564
  106SOL    HW2 1218   3.209   0.103   5.766 -0.8834 -0.9769  0.2855
  107SOL     OW 1219   2.399   1.366   2.546  0.1294  0.3075  0.1785
  107SOL    HW1 1220   2.410   1.463   2.568  1.1848  0.7355 -2.0279
  107SOL    HW2 1221   2.302   1.341   2.554 -0.4526  2.0146 -0.9363
  108SOL     OW 1222   4.326   5.153   5.286  0.2350  0.6421 -0.1776
  108SOL    HW1 1223   4.241   5.199   5.312 -0.9303 -0.4759 -1.8478
  108SOL    HW2 1224   4.327   5.061   5.325 -0.6306 -0.3372 -2.3453
  109SOL     OW 1225   6.224   0.545   1.612  0.4922  0.1367  0.0900
  109SOL    HW1 1226   6.138   0.596   1.613  0.4968  0.1439  0.1233
  109SOL    HW2 1227   6.300   0.607   1.591  0.5679  0.2507  0.6894
  110SOL     OW 1228   3.149   5.582   6.112 -0.8428  0.1165  0.2293
  110SOL    HW1 1229   3.060   5.536   6.110 -0.9696  0.2800  1.2666
  110SOL    HW2 1230   3.220   5.516   6.135 -0.7273  0.0347 -0.3547
  111SOL     OW 1231   4.340   1.254   5.202  0.0674 -0.3462 -0.7236
  111SOL    HW1 1232   4.371   1.160   5.188 -0.4994 -0.5065 -0.9181
  111SOL    HW2 1233   4.404   1.317   5.159  2.6295 -0.3719  2.5838
  112SOL     OW 1234   6.258   6.085   6.298 -0.0659 -1.2243  0.2616
  112SOL    HW1 1235   6.202   6.168   6.300  2.1813  0.3889  0.4391
  112SOL    HW2 1236   6.208   6.012   6.253 -1.3717  0.8225 -1.8372
  113SOL     OW 1237   0.961   2.576   2.339  0.3232 -0.3053 -0.3619
  113SOL    HW1 1238   1.025   2.653   2.348 -0.1194 -0.0683  0.9727
  113SOL    HW2 1239   0.871   2.611   2.310  0.3116 -0.4154 -0.4611
  114SOL     OW 1240   0.363   4.905   0.455  0.4670 -0.1168  0.2397
  114SOL    HW1 1241   0.377   4.821   0.508 -1.3510  0.0716  1.0695
  114SOL    HW2 1242   0.375   4.985   0.514  0.9524  0.1876 -0.2555
  115SOL     OW 1243   3.996   0.598   4.506 -0.0645  0.0827 -0.8118
  115SOL    HW1 1244   3.965   0.503   4.511 -0.1426  0.1662  0.4070
  115SOL    HW2 1245   4.014   0.633   4.598  0.0809  1.2167 -1.2524
  116SOL     OW 1246   6.005   4.119   1.621  0.0520 -0.3699  0.0718
  116SOL    HW1 1247   6.058   4.159   1.546  0.9458  0.5588  1.1715
  116SOL    HW2 1248   6.030   4.023   1.633 -0.2618 -0.5922 -0.9418
  117SOL     OW 1249   1.656   1.999   4.743  0.4117  0.0590 -0.1436
  117SOL    HW1 1250   1.661   2.085   4.793 -0.5772  0.6366 -1.0041
  117SOL    HW2 1251   1.665   2.017   4.645 -1.0488 -0.6482 -0.4400
  118SOL     OW 1252   0.048   1.070   0.970 -0.2334 -0.3884  0.2779
  118SOL    HW1 1253   0.112   1.147   0.972  0.2658 -0.7379 -1.0973
  118SOL    HW2 1254   0.082   0.996   1.028 -0.5649  0.2813  1.3677
  119SOL     OW 1255   1.433   3.432   6.730  0.0076 -0.5576  0.2086
  119SOL    HW1 1256   1.384   3.519   6.742  1.2445  0.3057 -0.7273
  119SOL    HW2 1257   1.462   3.424   6.635  2.2850 -0.6774  0.8481
  120SOL     OW 1258   6.091   6.965   6.875 -0.1541  0.3808  0.2361
  120SOL    HW1 1259   6.031   7.013   6.811 -0.1172 -2.5531 -2.2402
  120SOL    HW2 1260   6.183   7.003   6.870  0.0175 -0.2039 -2.0920
  121SOL     OW 1261   0.798   3.448   0.232  0.9116 -0.7278 -0.0178
  121SOL    HW1 1262   0.814   3.435   0.330 -0.3831 -1.8034  0.0759
  121SOL    HW2 1263   0.875   3.408   0.181  0.7053 -1.8528  0.5202
  122SOL     OW 1264   0.171   5.125   0.060 -0.0017 -0.2587  0.1395
  122SOL    HW1 1265   0.260   5.164   0.036 -1.1789  0.9240 -2.8140
  122SOL    HW2 1266   0.133   5.174   0.139  1.1161  0.5259  0.2081
  123SOL     OW 1267   1.005   1.538   2.342  0.0066  0.3406  0.1122
  123SOL    HW1 1268   0.986   1.635   2.327  0.9683  0.5171 -0.0551
  123SOL    HW2 1269   1.073   1.507   2.275  0.9477 -0.0196  1.1963
  124SOL     OW 1270   5.627   1.604   0.709  0.2509  0.2825  0.2614
  124SOL    HW1 1271   5.608   1.701   0.696 -0.1227  0.2271  0.3582
  124SOL    HW2 1272   5.679   1.591   0.793 -1.0817  0.2714  1.1249
  125SOL     OW 1273   2.323   1.921   1.123  0.7144 -0.2964 -0.2196
  125SOL    HW1 1274   2.374   1.993   1.076  1.1086  0.5833  1.4695
  125SOL    HW2 1275   2.265   1.962   1.193 -0.1246 -1.5340 -0.1648
  126SOL     OW 1276   3.489   4.678   1.017  0.0747  0.6760 -0.1113
  126SOL    HW1 1277   3.551   4.749   0.985  1.4295  0.0179  0.9260
  126SOL    HW2 1278   3.413   4.668   0.953  0.7107  1.9326 -1.0992
  127SOL     OW 1279   0.544   4.324   5.538  0.6159  0.5604  0.2326
  127SOL    HW1 1280   0.637   4.324   5.574  1.3310 -0.3477 -1.4668
  127SOL    HW2 1281   0.521   4.417   5.507  0.5051  1.0367  1.6762
  128SOL     OW 1282   4.629   2.974   1.079 -0.4392 -0.3380 -0.2182
  128SOL    HW1 1283   4.691   2.903   1.113 -2.4341 -2.0961 -0.1037
  128SOL    HW2 1284   4.615   3.043   1.150  1.5813  0.2889 -0.3577
  129SOL     OW 1285   3.372   3.751   6.965  0.0396  1.1071  0.3274
  129SOL    HW1 1286   3.400   3.758   7.060  0.7016  0.4979  0.1944
  129SOL    HW2 1287   3.453   3.737   6.908 -0.4223  0.6069 -0.2250
  130SOL     OW 1288   6.659   0.512   4.616 -0.6264 -0.0780  0.4513
  130SOL    HW1 1289   6.746   0.561   4.622  0.0199 -1.2689  1.2465
  130SOL    HW2 1290   6.606   0.529   4.700 -1.7579  1.6502 -0.5456
  131SOL     OW 1291   5.752   1.613   1.800 -0.6231  0.0768 -0.6275
  131SOL    HW1 1292   5.666   1.649   1.764 -0.2036  0.5869 -1.1385
  131SOL    HW2 1293   5.824   1.623   1.731 -0.7796 -3.1158 -1.4287
  132SOL     OW 1294   1.286   2.476   0.788 -0.3981 -0.3599  0.0038
  132SOL    HW1 1295   1.339   2.412   0.733 -1.4324 -1.8445  0.6568
  132SOL    HW2 1296   1.228   2.532   0.728  0.1513 -0.3724 -0.5460
  133SOL     OW 1297   5.456   0.696   3.148 -0.5119 -0.6278  0.0239
  133SOL    HW1 1298   5.519   0.639   3.201 -1.6887 -2.0780 -0.0779
  133SOL    HW2 1299   5.384   0.732   3.209 -1.4604 -1.7157 -0.4212
  134SOL     OW 1300   5.077   0.803   0.608 -0.3891 -0.3995  0.0307
  134SOL    HW1 1301   5.048   0.891   0.572  0.1438 -0.1717  0.1604
  134SOL    HW2 1302   4.998   0.757   0.650 -0.5592  0.2346  0.4193
  135SOL     OW 1303   4.871   3.659   1.738 -0.1434 -0.0082  0.0423
  135SOL    HW1 1304   4.816   3.620   1.664 -0.1920 -1.9016  1.0001
  135SOL    HW2 1305   4.946   3.596   1.760  2.5995  2.5589 -1.3229
  136SOL     OW 1306   3.932   4.724   6.653  0.4263  0.2527  0.7954
  136SOL    HW1 1307   3.882   4.802   6.616  1.1442  0.0149 -0.7814
  136SOL    HW2 1308   4.028   4.730   6.624  0.3211 -1.6376 -0.0896
  137SOL     OW 1309   5.465   0.123   3.810  0.0923  0.9029 -0.0067
  137SOL    HW1 1310   5.388   0.130   3.747  0.7914  1.2576 -0.8307
  137SOL    HW2 1311   5.437   0.155   3.900 -1.1308 -0.2851  0.0781
  138SOL     OW 1312   6.038   3.144   4.528 -0.0437 -0.1685 -0.5132
  138SOL    HW1 1313   5.976   3.218   4.505 -1.0794 -0.1478  1.9852
  138SOL    HW2 1314   6.030   3.122   4.626  1.3505 -2.5324 -0.8262
  139SOL     OW 1315   1.023   6.724   5.643 -0.3246 -0.2457 -0.0404
  139SOL    HW1 1316   0.971   6.724   5.557  1.1142 -1.6252 -0.9539
  139SOL    HW2 1317   1.019   6.633   5.684  1.0800 -0.2937  0.0331
  140SOL     OW 1318   6.794   6.065   4.510 -0.0213 -0.2261 -0.1848
  140SOL    HW1 1319   6.870   6.080   4.446  1.0187 -1.0466  0.8039
  140SOL    HW2 1320   6.760   5.972   4.501 -0.5715 -0.0161 -0.2713
  141SOL     OW 1321   5.325   2.516   3.392  0.6068  0.6568 -0.3838
  141SOL    HW1 1322   5.272   2.458   3.454 -1.9802  2.3872 -0.8716
  141SOL    HW2 1323   5.364   2.592   3.443  0.5331  0.7513 -0.4691
  142SOL     OW 1324   0.611   6.410   6.199 -0.3507 -0.4718  0.1010
  142SOL    HW1 1325   0.634   6.313   6.206  1.5858 -0.0210  0.4383
  142SOL    HW2 1326   0.665   6.453   6.126  0.9390  0.9021  1.7716
  143SOL     OW 1327   0.191   4.226   2.967 -0.2358  0.1871  0.7855
  143SOL    HW1 1328   0.261   4.239   3.036  0.2032  1.0645  0.1909
  143SOL    HW2 1329   0.194   4.132   2.933  4.1667  1.3160 -2.8829
  144SOL     OW 1330   6.772   0.736   0.247  0.7190  0.3350  0.1423
  144SOL    HW1 1331   6.783   0.791   0.331 -1.5863  3.1373 -1.1993
  144SOL    HW2 1332   6.842   0.763   0.181  0.7434  0.2568  0.1364
  145SOL     OW 1333   0.497   2.920   0.844  0.3478 -0.2619  0.0039
  145SOL    HW1 1334   0.532   2.943   0.934 -1.0507 -3.8278  1.6627
  145SOL    HW2 1335   0.399   2.903   0.850 -0.1460  1.1234 -2.6470
  146SOL     OW 1336   5.322   6.236   5.313  0.6637  0.3386 -0.0621
  146SOL    HW1 1337   5.344   6.261   5.407 -2.1415 -1.3779  1.1971
  146SOL    HW2 1338   5.347   6.141   5.296 -1.3031 -0.2343 -0.0520
  147SOL     OW 1339   0.097   1.963   5.203  0.9496 -0.3320  0.1347
  147SOL    HW1 1340   0.124   1.893   5.138 -1.5767 -0.5307 -0.7775
  147SOL    HW2 1341   0.175   2.024   5.221  2.1215 -1.1707 -1.8687
  148SOL     OW 1342   6.162   6.465   6.427 -0.0848 -0.0098 -0.5668
  148SOL    HW1 1343   6.167   6.400   6.351 -1.6504  0.3288 -0.9985
  148SOL    HW2 1344   6.070   6.505   6.431  0.1842  0.5343  1.0574
  149SOL     OW 1345   2.615   0.448   3.571  0.0312 -0.4890  0.9281
  149SOL    HW1 1346   2.547   0.379   3.594  0.8161 -1.5561  0.1302
  149SOL    HW2 1347   2.571   0.537   3.565 -1.1398 -1.0325  1.2027
  150SOL     OW 1348   6.134   4.266   6.783 -0.0045 -0.1815  0.0044
  150SOL    HW1 1349   6.118   4.170   6.809  2.9808 -1.1990 -1.4315
  150SOL    HW2 1350   6.138   4.273   6.684 -1.3215  1.7016  0.0484
  151SOL     OW 1351   2.986   2.994   0.587 -0.5874 -0.4894  0.1187
  151SOL    HW1 1352   3.006   3.018   0.681 -0.0493  0.7202 -0.2884
  151SOL    HW2 1353   3.041   3.050   0.525 -1.2373 -0.9636 -0.9314
  152SOL     OW 1354   2.931   0.868   6.197 -0.0197 -0.5881  0.5705
  152SOL    HW1 1355   2.981   0.877   6.283  0.7071  0.7170  0.0360
  152SOL    HW2 1356   2.985   0.906   6.122 -0.8339 -1.2844 -0.4004
  153SOL     OW 1357   2.203   0.240   1.258 -0.1058  0.4346  0.0394
  153SOL    HW1 1358   2.107   0.259   1.236 -0.3397 -1.5076 -0.8293
  153SOL    HW2 1359   2.236   0.166   1.199  2.2228  1.6806 -0.3406
  154SOL     OW 1360   0.736   3.023   2.220  0.6924 -0.5321  0.4242
  154SOL    HW1 1361   0.697   3.046   2.131 -0.5803 -1.4317  0.7118
  154SOL    HW2 1362   0.829   3.058   2.226  0.7914 -0.4323 -1.2448
  155SOL     OW 1363   0.332   6.710   4.173  0.3493 -0.0382  0.1689
  155SOL    HW1 1364   0.272   6.767   4.118  0.4948 -0.9811 -1.0153
  155SOL    HW2 1365   0.393   6.658   4.113  0.1632 -1.5079  1.1876
  156SOL     OW 1366   5.155   1.970   6.820 -0.1520  0.3996 -0.0627
  156SOL    HW1 1367   5.216   2.030   6.871 -0.1436  0.2216  0.1381
  156SOL    HW2 1368   5.141   1.886   6.871 -2.5574  1.4308  1.1363
  157SOL     OW 1369   1.107   4.566   2.670  0.6148  0.1520  0.1273
  157SOL    HW1 1370   1.153   4.619   2.599 -0.7657 -0.3384 -1.1644
  157SOL    HW2 1371   1.021   4.611   2.695  1.0142  0.2477  1.4250
  158SOL     OW 1372   3.014   6.499   2.479  0.0041  0.0470  0.1655
  158SOL    HW1 1373   3.078   6.430   2.447  1.0244  1.7589 -1.7633
  158SOL    HW2 1374   2.940   6.456   2.530  1.6263 -2.1998  0.7450
  159SOL     OW 1375   3.397   4.289   1.676  0.1282 -0.2296 -0.0919
  159SOL    HW1 1376   3.437   4.197   1.685  0.6904  0.0456  0.2670
  159SOL    HW2 1377   3.315   4.295   1.733 -0.1230 -0.6257 -0.4048
  160SOL     OW 1378   5.986   0.532   6.856 -0.4429  0.0717 -1.1106
  160SOL    HW1 1379   6.004   0.627   6.834 -1.5409  0.8002  0.8663
  160SOL    HW2 1380   6.066   0.492   6.901 -1.1651  1.1847  1.3007
  161SOL     OW 1381   1.929   4.525   3.559  0.1380 -0.6423  0.4914
  161SOL    HW1 1382   1.885   4.436   3.558 -0.7044 -0.2527  1.3116
  161SOL    HW2 1383   2.015   4.519   3.610  1.2714 -1.4855 -1.4117
  162SOL     OW 1384   4.083   6.079   1.252  0.5308 -0.0034  0.2198
  162SOL    HW1 1385   4.036   5.993   1.230 -0.9982  0.1377  2.6271
  162SOL    HW2 1386   4.032   6.156   1.214  0.1384  0.0054  0.7543
  163SOL     OW 1387   6.121   6.514   6.867 -0.1396  0.2371  0.4698
  163SOL    HW1 1388   6.066   6.593   6.892  1.0474  0.9311  1.0129
  163SOL    HW2 1389   6.199   6.545   6.811 -0.0544 -0.6456  0.0876
  164SOL     OW 1390   6.500   4.759   2.860  0.1869  0.7761 -0.4561
  164SOL    HW1 1391   6.503   4.750   2.761 -1.0318  0.7036 -0.4996
  164SOL    HW2 1392   6.445   4.685   2.899  1.7364  0.0211  0.4029
  165SOL     OW 1393   4.622   2.513   1.400 -0.7524 -0.1743  0.7438
  165SOL    HW1 1394   4.574   2.598   1.377  1.4375  1.0215  0.3845
  165SOL    HW2 1395   4.554   2.441   1.416 -2.7037  1.6600  1.3177
  166SOL     OW 1396   0.814   3.102   3.961 -0.4552  0.1650 -0.1222
  166SOL    HW1 1397   0.792   3.021   4.015  0.8346  1.4823  2.5719
  166SOL    HW2 1398   0.909   3.098   3.931 -0.4559  0.5837 -0.1884
  167SOL     OW 1399   5.648   0.999   0.236 -0.2050 -1.1265  0.5530
  167SOL    HW1 1400   5.605   0.957   0.317  0.3433  0.0235  1.4602
  167SOL    HW2 1401   5.645   0.934   0.160 -1.3846 -1.9688  1.2779
  168SOL     OW 1402   2.005   3.102   6.969  0.7847  0.5141 -0.1915
  168SOL    HW1 1403   1.908   3.077   6.974  0.8055  0.4295 -0.2188
  168SOL    HW2 1404   2.058   3.025   6.934  1.1194 -0.0645  1.5254
  169SOL     OW 1405   4.426   0.104   2.923  0.1077  0.1454  0.5567
  169SOL    HW1 1406   4.360   0.034   2.895  1.3594 -0.4695 -1.0532
  169SOL    HW2 1407   4.423   0.180   2.859 -1.0974  1.5580  2.1844
  170SOL     OW 1408   6.578   0.385   2.474  0.6617  0.5094  0.3114
  170SOL    HW1 1409   6.514   0.457   2.447 -1.6484 -1.1171  1.1651
  170SOL    HW2 1410   6.638   0.421   2.546 -1.3298  1.2659  1.6888
  171SOL     OW 1411   3.955   3.014   7.002 -0.0751 -0.0258 -0.0933
  171SOL    HW1 1412   3.937   3.046   6.909 -1.5570 -0.7624 -0.0872
  171SOL    HW2 1413   4.040   2.961   7.003  1.7592  2.7018 -0.3417
  172SOL     OW 1414   6.414   2.769   4.095  0.2648 -0.2648 -0.4498
  172SOL    HW1 1415   6.319   2.798   4.106  0.4380  0.4504 -0.7750
  172SOL    HW2 1416   6.423   2.713   4.013  0.1236 -0.3154 -0.4299
  173SOL     OW 1417   5.368   0.680   4.626  0.3214 -0.1276 -0.1943
  173SOL    HW1 1418   5.302   0.680   4.701 -3.2126 -1.5651 -3.0208
  173SOL    HW2 1419   5.365   0.768   4.578 -0.9795 -0.7988 -1.4011
  174SOL     OW 1420   3.436   5.018   3.786 -0.1423  0.3910 -0.7066
  174SOL    HW1 1421   3.489   4.990   3.706 -1.9626 -2.5150 -1.0398
  174SOL    HW2 1422   3.465   4.965   3.866 -0.3573  1.1271 -0.1277
  175SOL     OW 1423   1.331   5.576   3.647 -0.4043 -0.5454 -0.1123
  175SOL    HW1 1424   1.300   5.646   3.710  1.3098  0.9231 -0.8094
  175SOL    HW2 1425   1.429   5.558   3.661 -0.3214 -1.2313 -1.3481
  176SOL     OW 1426   1.702   5.616   1.745 -0.3326  0.3008 -0.0245
  176SOL    HW1 1427   1.679   5.689   1.681  0.8133  1.8108  1.1999
  176SOL    HW2 1428   1.797   5.589   1.732 -0.4243 -0.1893  0.2919
  177SOL     OW 1429   5.127   2.606   2.923 -0.5402  0.4628 -0.6254
  177SOL    HW1 1430   5.065   2.533   2.951 -1.4434  2.0579  1.9594
  177SOL    HW2 1431   5.221   2.576   2.934 -0.8789 -0.6379 -0.5789
  178SOL     OW 1432   0.018   3.720   0.549  1.3614  0.6447 -0.4339
  178SOL    HW1 1433  -0.040   3.667   0.488  0.5423  1.6383 -0.5550
  178SOL    HW2 1434  -0.035   3.750   0.628  2.1638  0.1594  0.3123
  179SOL     OW 1435   0.869   1.990   5.189  0.0368  1.1894  0.0098
  179SOL    HW1 1436   0.916   1.953   5.269 -1.1851 -0.5344 -0.0204
  179SOL    HW2 1437   0.854   2.088   5.202  0.6995  1.1327  1.4492
  180SOL     OW 1438   1.744   0.156   6.436 -0.2249  0.0975 -0.5094
  180SOL    HW1 1439   1.766   0.147   6.339  0.0179  0.1733 -0.4632
  180SOL    HW2 1440   1.681   0.083   6.463 -0.4583  0.1994 -0.7711
  181SOL     OW 1441   4.689   2.454   4.667  0.0389 -0.8593 -0.5349
  181SOL    HW1 1442   4.771   2.435   4.613  0.9363 -2.1811  1.1576
  181SOL    HW2 1443   4.701   2.540   4.717  0.5489 -1.1811 -0.0831
  182SOL     OW 1444   5.555   2.785   3.445  0.6542  0.5898  0.0324
  182SOL    HW1 1445   5.477   2.784   3.507  2.6915  2.2297  2.8682
  182SOL    HW2 1446   5.575   2.879   3.417  2.2015  0.3585  0.2405
  183SOL     OW 1447   4.508   2.538   2.235 -0.0649 -0.1643 -0.4063
  183SOL    HW1 1448   4.530   2.565   2.141 -1.2359  1.6996 -0.1998
  183SOL    HW2 1449   4.576   2.473   2.268  1.4894  0.6568 -1.8647
  184SOL     OW 1450   0.838   6.991   4.889 -0.0889 -0.1830 -0.0898
  184SOL    HW1 1451   0.761   7.023   4.944  0.9483 -0.0953  1.4028
  184SOL    HW2 1452   0.826   6.894   4.869 -0.2121 -0.3834  0.8689
  185SOL     OW 1453   2.749   1.811   2.546 -0.2017 -0.0016 -0.3706
  185SOL    HW1 1454   2.834   1.777   2.507 -0.0467 -0.8321  0.6317
  185SOL    HW2 1455   2.769   1.867   2.627 -0.4427  2.6759 -2.0474
  186SOL     OW 1456   5.868   1.001   2.527 -0.2911 -0.4742 -0.1322
  186SOL    HW1 1457   5.886   1.080   2.468  1.2361 -0.6173  0.0933
  186SOL    HW2 1458   5.866   0.918   2.471  0.3111 -0.5097 -0.1165
  187SOL     OW 1459   4.994   0.384   2.316  0.0215 -1.0520  0.3015
  187SOL    HW1 1460   4.958   0.397   2.224  0.1026 -0.5960  0.3296
  187SOL    HW2 1461   5.004   0.286   2.335 -1.6000 -1.2146  0.4514
  188SOL     OW 1462   6.702   2.181   2.700 -0.2132 -0.1036 -0.3764
  188SOL    HW1 1463   6.800   2.191   2.685 -0.2724 -0.1913 -0.8606
  188SOL    HW2 1464   6.667   2.106   2.644 -0.7297  0.5854 -0.9988
  189SOL     OW 1465   2.562   6.154   3.357 -0.2170 -0.5400 -0.4214
  189SOL    HW1 1466   2.598   6.180   3.447 -1.2811  1.0251 -0.4027
  189SOL    HW2 1467   2.550   6.236   3.301 -0.5507 -1.3828 -1.6372
  190SOL     OW 1468   5.167   1.153   3.045 -0.2793  0.0941 -0.1421
  190SOL    HW1 1469   5.093   1.178   3.108  1.5662  0.5329  2.0117
  190SOL    HW2 1470   5.165   1.213   2.966 -3.5741 -1.4058 -1.3812
  191SOL     OW 1471   5.885   5.116   6.056  0.0708  0.2213  0.0351
  191SOL    HW1 1472   5.820   5.078   6.121 -0.6685  0.3978 -0.5971
  191SOL    HW2 1473   5.942   5.043   6.019 -1.1076 -0.2416 -0.9083
  192SOL     OW 1474   6.821   5.031   1.470  0.8159 -0.1643  0.0113
  192SOL    HW1 1475   6.867   5.059   1.385 -1.3509 -0.0886 -1.2068
  192SOL    HW2 1476   6.828   5.105   1.537  3.9869 -0.8565  0.5955
  193SOL     OW 1477   4.173   2.230   3.635  0.1031 -0.5920 -0.0441
  193SOL    HW1 1478   4.086   2.191   3.606 -1.1260  1.0339  1.2458
  193SOL    HW2 1479   4.227   2.255   3.555 -0.8373 -1.1323 -0.8744
  194SOL     OW 1480   3.269   0.867   2.171 -0.2660 -0.3932  0.6420
  194SOL    HW1 1481   3.330   0.942   2.146  1.1539 -2.0430 -1.1765
  194SOL    HW2 1482   3.324   0.790   2.203 -1.6294 -0.9806  1.6387
  195SOL     OW 1483   2.366   6.795   5.664 -0.1457 -0.4685  0.0199
  195SOL    HW1 1484   2.314   6.835   5.739 -1.5965 -1.8844 -0.1842
  195SOL    HW2 1485   2.320   6.814   5.577 -0.0563 -1.2947 -0.2153
  196SOL     OW 1486   4.155   3.252   6.432 -0.6363 -0.2861  0.2376
  196SOL    HW1 1487   4.065   3.236   6.392 -0.3590  0.9520 -0.9725
  196SOL    HW2 1488   4.217   3.177   6.409 -1.1277 -0.7313  0.3657
  197SOL     OW 1489   1.701   0.648   0.576 -0.4506 -0.0190 -0.4027
  197SOL    HW1 1490   1.742   0.635   0.485 -1.2053  1.1100 -0.9199
  197SOL    HW2 1491   1.614   0.599   0.580 -0.9183  0.7896 -0.6486
  198SOL     OW 1492   6.190   3.657   2.759 -0.8274 -0.4033 -0.0425
  198SOL    HW1 1493   6.130   3.729   2.794  2.5694  2.2584  0.8864
  198SOL    HW2 1494   6.211   3.594   2.833  0.0867  0.6047  0.5838
  199SOL     OW 1495   2.205   0.413   3.230 -0.6151 -0.5785 -0.3058
  199SOL    HW1 1496   2.116   0.368   3.217 -0.6352 -0.8811  0.7474
  199SOL    HW2 1497   2.250   0.373   3.310 -0.6135  1.2585  0.6673
  200SOL     OW 1498   0.550   2.614   0.430 -0.0786 -0.2602 -1.2296
  200SOL    HW1 1499   0.516   2.631   0.522  0.0780  3.2455 -1.6788
  200SOL    HW2 1500   0.485   2.650   0.363  2.4114  2.8618 -2.2248
  201SOL     OW 1501   1.122   1.246   5.545  0.0839 -0.3241 -0.3264
  201SOL    HW1 1502   1.164   1.157   5.532  1.0853 -0.3305  2.3756
  201SOL    HW2 1503   1.047   1.239   5.611  0.0711  0.7924 -0.1913
  202SOL     OW 1504   4.281   1.899   5.085 -1.0192 -0.4973  0.2163
  202SOL    HW1 1505   4.319   1.991   5.079  2.8133 -1.9609 -0.9176
  202SOL    HW2 1506   4.289   1.865   5.178 -0.4458 -0.4223  0.1970
  203SOL     OW 1507   5.266   3.283   4.385  0.3091 -0.0001  0.2477
  203SOL    HW1 1508   5.206   3.241   4.454  0.9837 -0.1946  0.7196
  203SOL    HW2 1509   5.361   3.279   4.415  0.8652 -1.7957 -1.5085
  204SOL     OW 1510   0.307   0.136   6.178 -0.0217  0.1131 -0.3924
  204SOL    HW1 1511   0.249   0.202   6.130 -0.2213 -0.0095 -0.3215
  204SOL    HW2 1512   0.323   0.057   6.119 -0.1493  0.0260 -0.3095
  205SOL     OW 1513   2.947   1.874   3.432 -0.0379 -0.9920 -0.5155
  205SOL    HW1 1514   2.944   1.779   3.460  2.5690 -2.0074 -3.0986
  205SOL    HW2 1515   2.966   1.879   3.334  0.7424  2.1783 -0.3196
  206SOL     OW 1516   2.482   5.291   1.910 -0.5600 -0.1008  0.0625
  206SOL    HW1 1517   2.434   5.311   1.825 -1.2204  0.1968  0.4978
  206SOL    HW2 1518   2.559   5.230   1.891 -0.6637  0.0121 -0.7523
  207SOL     OW 1519   6.431   6.858   1.080 -0.2446 -0.0977  0.2431
  207SOL    HW1 1520   6.397   6.948   1.055 -0.4851 -0.7025 -1.7688
  207SOL    HW2 1521   6.373   6.788   1.040  1.1321 -1.1597  0.0193
  208SOL     OW 1522   0.267   4.256   5.590  0.7342  0.3260 -0.0298
  208SOL    HW1 1523   0.228   4.224   5.503 -0.1357  3.2473 -0.8168
  208SOL    HW2 1524   0.363   4.279   5.577  0.4348  1.3906 -0.4219
  209SOL     OW 1525   0.148   4.339   1.662  0.3960 -0.1105  0.5098
  209SOL    HW1 1526   0.092   4.408   1.708  1.3165  0.7594  0.3752
  209SOL    HW2 1527   0.125   4.338   1.564  0.7930  0.4512  0.4028
  210SOL     OW 1528   3.764   1.795   6.319 -0.0253 -0.6962 -0.1750
  210SOL    HW1 1529   3.665   1.806   6.311 -0.1006  0.3323  1.5103
  210SOL    HW2 1530   3.803   1.778   6.229 -1.5602  0.4518 -1.1132
  211SOL     OW 1531   0.706   6.854   1.241 -0.2094 -0.3322 -0.0199
  211SOL    HW1 1532   0.645   6.782   1.208 -1.0732 -0.3986  1.6056
  211SOL    HW2 1533   0.699   6.861   1.341 -0.4418  2.2522 -0.1385
  212SOL     OW 1534   1.339   4.111   3.193 -0.0507 -0.1402 -0.6549
  212SOL    HW1 1535   1.317   4.065   3.107 -0.9689 -1.6502  0.3290
  212SOL    HW2 1536   1.338   4.044   3.267  0.0584  1.2365  0.6411
  213SOL     OW 1537   0.187   6.219   4.975  0.6214  0.0333  0.2157
  213SOL    HW1 1538   0.209   6.124   4.998 -1.4469 -0.5686 -0.0654
  213SOL    HW2 1539   0.100   6.222   4.927 -1.0258  2.3272  3.0392
  214SOL     OW 1540   3.221   4.848   2.127 -0.5295 -0.3135  0.2241
  214SOL    HW1 1541   3.165   4.826   2.047 -0.4949 -0.8530  0.3431
  214SOL    HW2 1542   3.162   4.852   2.208 -1.0471  2.9091 -0.1806
  215SOL     OW 1543   2.013   5.298   2.112 -0.2257 -0.0226 -0.5439
  215SOL    HW1 1544   1.958   5.371   2.153 -0.2887 -1.0997  1.3934
  215SOL    HW2 1545   2.103   5.296   2.156 -0.3258 -1.2869 -0.3774
  216SOL     OW 1546   0.384   6.066   3.112  0.0747 -0.3579 -0.9608
  216SOL    HW1 1547   0.391   6.035   3.017 -0.7367 -2.0237 -0.5083
  216SOL    HW2 1548   0.357   6.162   3.114  0.2467 -0.2562 -2.4079
  217SOL     OW 1549   0.859   1.195   3.933 -0.2319  0.0832 -0.4097
  217SOL    HW1 1550   0.922   1.265   3.899  0.3124 -1.0983 -1.9554
  217SOL    HW2 1551   0.768   1.235   3.944  0.6927  1.8207  1.8227
  218SOL     OW 1552   1.714   5.049   6.518 -0.9167  0.0727 -0.3108
  218SOL    HW1 1553   1.655   5.037   6.438  0.7876  1.2634 -1.8250
  218SOL    HW2 1554   1.772   4.968   6.528  0.7697  1.0109 -1.9944
  219SOL     OW 1555   4.249   0.130   6.810 -0.3926 -0.1172  0.2727
  219SOL    HW1 1556   4.346   0.114   6.830 -0.1499  1.2913  0.3495
  219SOL    HW2 1557   4.194   0.055   6.848  0.6461 -0.8281  0.4041
  220SOL     OW 1558   3.754   5.861   0.379  0.6496  0.2096 -0.1309
  220SOL    HW1 1559   3.687   5.886   0.308  0.3331 -1.0238 -0.2943
  220SOL    HW2 1560   3.725   5.899   0.467 -0.1128 -0.0603 -0.2587
  221SOL     OW 1561   5.617   4.960   0.235 -0.2279  0.1121 -0.3179
  221SOL    HW1 1562   5.645   4.897   0.163 -0.2884 -0.0873 -0.1707
  221SOL    HW2 1563   5.635   4.918   0.324 -1.4691 -0.2582 -0.2154
  222SOL     OW 1564   1.475   3.784   6.261 -0.0986 -0.2345 -0.4576
  222SOL    HW1 1565   1.549   3.849   6.276 -0.4275 -0.3705  2.3033
  222SOL    HW2 1566   1.486   3.742   6.171  1.9030  1.3084 -1.0301
  223SOL     OW 1567   1.408   3.440   5.068  0.3898  0.1474  0.4305
  223SOL    HW1 1568   1.424   3.482   5.157 -0.5812  2.1537 -0.2747
  223SOL    HW2 1569   1.473   3.366   5.054  0.0637 -0.7258  3.0973
  224SOL     OW 1570   4.559   6.838   5.531 -0.2365  0.2173  0.2601
  224SOL    HW1 1571   4.534   6.756   5.582  1.2082 -0.0695  0.5563
  224SOL    HW2 1572   4.544   6.918   5.589  2.2224 -0.1632  1.5717
  225SOL     OW 1573   3.898   5.050   0.853  0.1143 -0.5151 -0.1789
  225SOL    HW1 1574   3.967   4.977   0.858  1.5893  0.8828  1.2078
  225SOL    HW2 1575   3.942   5.135   0.824 -1.2273  0.2137 -0.1203
  226SOL     OW 1576   0.494   6.828   4.366  0.0620 -0.1271  0.1867
  226SOL    HW1 1577   0.472   6.925   4.362  1.0903  0.1026 -0.1490
  226SOL    HW2 1578   0.443   6.778   4.297  0.7107  0.4241 -0.7105
  227SOL     OW 1579   1.400   5.603   2.293  0.1365  0.2184 -0.2107
  227SOL    HW1 1580   1.472   5.537   2.271  0.6668  0.5391  0.5509
  227SOL    HW2 1581   1.440   5.685   2.334 -0.6543  0.4064  0.2093
  228SOL     OW 1582   1.260   1.370   4.892 -0.1211 -0.6853  0.1584
  228SOL    HW1 1583   1.325   1.361   4.968  0.1885 -1.9233 -0.2360
  228SOL    HW2 1584   1.247   1.467   4.871  0.8232 -0.3787  0.9046
  229SOL     OW 1585   5.091   4.259   6.448  0.4201 -0.3466 -0.4062
  229SOL    HW1 1586   5.020   4.271   6.517  1.1221  0.8198  0.1330
  229SOL    HW2 1587   5.066   4.308   6.364  0.5815  0.0534 -0.2206
  230SOL     OW 1588   5.266   5.766   3.788 -0.2661 -0.1068  0.2981
  230SOL    HW1 1589   5.284   5.745   3.692  1.0278 -0.0443  0.5052
  230SOL    HW2 1590   5.352   5.792   3.833 -1.0426  1.0411  1.1841
  231SOL     OW 1591   5.661   0.646   5.721  0.1424  0.1756 -0.0450
  231SOL    HW1 1592   5.696   0.614   5.809 -0.9172 -0.1423  0.2848
  231SOL    HW2 1593   5.678   0.576   5.651 -0.0525 -0.0864  0.1651
  232SOL     OW 1594   6.825   4.130   6.583  0.3212 -0.1001 -0.3898
  232SOL    HW1 1595   6.922   4.112   6.573  0.8836  1.0648  2.0567
  232SOL    HW2 1596   6.808   4.229   6.573 -0.8206 -0.4137 -1.9268
  233SOL     OW 1597   4.287   1.025   2.218 -0.1081 -0.0371  0.8663
  233SOL    HW1 1598   4.333   1.089   2.279  1.4916 -0.5504  0.2400
  233SOL    HW2 1599   4.353   0.960   2.181 -1.4213 -1.0932  0.2724
  234SOL     OW 1600   7.020   2.634   1.072  0.1841 -0.0723  0.0528
  234SOL    HW1 1601   7.104   2.665   1.116  0.4852  1.5911 -1.5562
  234SOL    HW2 1602   6.943   2.689   1.105 -0.0279 -0.5976  0.4360
  235SOL     OW 1603   6.301   3.802   2.543  0.2165  0.8111  0.3586
  235SOL    HW1 1604   6.324   3.898   2.558 -2.0895  1.8231 -1.8704
  235SOL    HW2 1605   6.275   3.760   2.630  1.4542  2.1105  1.4075
  236SOL     OW 1606   4.952   1.513   1.490 -0.0242 -0.2341  0.0310
  236SOL    HW1 1607   4.909   1.591   1.535  1.2727  0.2746  0.4315
  236SOL    HW2 1608   4.944   1.523   1.391 -2.4814 -1.1267  0.0748
  237SOL     OW 1609   1.812   6.709   1.599  0.4468  0.7201  0.6042
  237SOL    HW1 1610   1.825   6.614   1.569 -0.7382  0.6578  0.2552
  237SOL    HW2 1611   1.889   6.764   1.568  0.3413  0.2044 -0.6161
  238SOL     OW 1612   5.800   1.383   6.985 -0.2274  0.0995  0.4447
  238SOL    HW1 1613   5.776   1.291   6.956 -1.3056  1.1807 -2.5230
  238SOL    HW2 1614   5.900   1.391   6.991  0.1644 -0.4040 -3.0209
  239SOL     OW 1615   0.002   5.498   5.426 -0.0485 -0.4703  0.1657
  239SOL    HW1 1616  -0.074   5.553   5.460  0.9003  1.2050 -0.3106
  239SOL    HW2 1617   0.081   5.557   5.409  0.8761 -1.9225 -0.8201
  240SOL     OW 1618   6.381   3.114   4.974  0.1454  0.0714  0.4480
  240SOL    HW1 1619   6.292   3.144   5.009 -0.0326 -0.0104  0.0635
  240SOL    HW2 1620   6.435   3.078   5.050 -0.5658 -0.9068  0.5244
  241SOL     OW 1621   1.560   2.595   4.668 -0.0762  0.3430 -0.0448
  241SOL    HW1 1622   1.549   2.685   4.624 -1.1983  0.5186  0.5756
  241SOL    HW2 1623   1.604   2.533   4.604 -0.5114  0.9591 -0.9671
  242SOL     OW 1624   3.911   3.174   2.574  1.1235 -0.5868 -0.1583
  242SOL    HW1 1625   3.976   3.217   2.512  0.1598 -1.8338 -2.1513
  242SOL    HW2 1626   3.882   3.239   2.644  3.1010  0.5236 -0.3014
  243SOL     OW 1627   3.733   0.807   6.536 -0.0188 -0.4414  0.0122
  243SOL    HW1 1628   3.689   0.816   6.446 -0.5378  1.7153  0.4175
  243SOL    HW2 1629   3.680   0.745   6.593 -0.3623 -0.9000 -0.7848
  244SOL     OW 1630   5.706   3.231   6.364  0.3717 -0.2384 -0.3677
  244SOL    HW1 1631   5.636   3.196   6.301 -0.2956 -1.6146  1.0606
  244SOL    HW2 1632   5.797   3.216   6.324 -0.0540 -0.2923 -1.3604
  245SOL     OW 1633   4.109   1.874   4.163  0.0426  0.0132 -0.6574
  245SOL    HW1 1634   4.101   1.857   4.261 -2.8416  0.4754 -0.7245
  245SOL    HW2 1635   4.164   1.957   4.148  1.1534 -0.4856  0.4893
  246SOL     OW 1636   4.501   1.165   2.888 -0.2059  0.3396 -0.0512
  246SOL    HW1 1637   4.592   1.200   2.907 -0.1434  0.8459 -1.1537
  246SOL    HW2 1638   4.435   1.241   2.892 -0.2270  0.4216 -1.4418
  247SOL     OW 1639   2.706   2.228   1.044 -0.5254 -0.0533 -0.3272
  247SOL    HW1 1640   2.804   2.245   1.042 -0.5095  0.7517  2.8894
  247SOL    HW2 1641   2.678   2.198   1.135 -3.6288  2.3509 -0.2984
  248SOL     OW 1642   2.826   6.596   2.974 -0.5079 -0.2541 -0.7784
  248SOL    HW1 1643   2.817   6.634   2.882 -1.3195 -0.8840 -0.9710
  248SOL    HW2 1644   2.784   6.505   2.976 -0.0022 -0.4767  0.0766
  249SOL     OW 1645   4.558   6.619   5.215  0.0901 -0.0249  0.0460
  249SOL    HW1 1646   4.490   6.691   5.204  0.8251  0.8486  0.9997
  249SOL    HW2 1647   4.561   6.590   5.311  0.6948 -0.4195 -0.0822
  250SOL     OW 1648   3.813   4.640   0.957  0.4845  0.2732  0.0778
  250SOL    HW1 1649   3.792   4.657   1.053  1.3278  1.1362  0.1163
  250SOL    HW2 1650   3.850   4.548   0.946  0.6511  0.2748  0.6200
  251SOL     OW 1651   3.250   3.337   3.369  0.0219 -0.0910  0.0612
  251SOL    HW1 1652   3.298   3.331   3.281  0.6123 -0.4151  0.4013
  251SOL    HW2 1653   3.223   3.245   3.398 -1.2447  0.1264 -0.3538
  252SOL     OW 1654   6.512   0.715   4.914 -0.2861  0.4355 -0.5252
  252SOL    HW1 1655   6.468   0.632   4.879  0.1004 -0.3963  0.8659
  252SOL    HW2 1656   6.572   0.754   4.844  1.7359 -2.0682 -0.3334
  253SOL     OW 1657   3.579   4.166   5.102 -0.0259 -0.6872 -0.2267
  253SOL    HW1 1658   3.583   4.265   5.115 -1.6975 -0.5196 -0.8128
  253SOL    HW2 1659   3.670   4.133   5.075  0.4714  0.7235 -0.3938
  254SOL     OW 1660   0.758   0.954   4.292 -0.2816  0.4635 -0.4157
  254SOL    HW1 1661   0.677   0.987   4.243 -2.4051 -1.8441  1.2538
  254SOL    HW2 1662   0.740   0.862   4.328  2.9259  0.0782  0.5428
  255SOL     OW 1663   1.698   4.493   4.604  0.2139 -0.3677 -0.0911
  255SOL    HW1 1664   1.640   4.412   4.592  0.8536 -0.5787 -2.0932
  255SOL    HW2 1665   1.640   4.572   4.622 -0.4425 -1.1871  1.5649
  256SOL     OW 1666   6.212   4.047   5.810  0.0552  1.0558  0.5766
  256SOL    HW1 1667   6.268   4.075   5.733  0.9572 -0.5889  0.5893
  256SOL    HW2 1668   6.117   4.035   5.781  0.3088  0.8642 -0.1761
  257SOL     OW 1669   0.169   0.554   2.160 -0.0740 -0.0855 -0.4862
  257SOL    HW1 1670   0.080   0.594   2.183  0.5934  1.3808 -0.3519
  257SOL    HW2 1671   0.223   0.542   2.243  1.4359  3.0216 -0.8469
  258SOL     OW 1672   2.907   4.713   5.540 -0.4712  1.2711 -0.2227
  258SOL    HW1 1673   2.889   4.724   5.442  0.5679  1.3600 -0.4112
  258SOL    HW2 1674   2.913   4.615   5.562  0.2414  1.2652 -0.4309
  259SOL     OW 1675   6.321   0.609   1.304  0.0836 -0.4762  0.1410
  259SOL    HW1 1676   6.372   0.525   1.321  1.5373  0.2953 -0.2682
  259SOL    HW2 1677   6.224   0.592   1.318  0.4524 -1.9250  1.1976
  260SOL     OW 1678   4.727   5.708   3.067  0.4565 -0.0299 -0.1564
  260SOL    HW1 1679   4.791   5.635   3.089  4.1935  2.6645 -0.9746
  260SOL    HW2 1680   4.681   5.687   2.981  1.6161 -1.3131 -0.5012
  261SOL     OW 1681   6.806   4.061   2.275 -0.2647 -0.0505 -0.0119
  261SOL    HW1 1682   6.722   4.037   2.325  0.6132 -1.6546  0.7551
  261SOL    HW2 1683   6.799   4.027   2.181 -0.3076 -0.5793  0.1770
  262SOL     OW 1684   1.585   4.172   1.660 -0.2609 -0.5004  0.3044
  262SOL    HW1 1685   1.548   4.162   1.753 -1.9214  0.9100 -0.1463
  262SOL    HW2 1686   1.674   4.218   1.665 -1.1169  1.1745  1.1416
  263SOL     OW 1687   2.942   0.419   5.641 -0.3938 -0.1349 -0.4073
  263SOL    HW1 1688   2.933   0.415   5.740 -0.8699 -1.1583 -0.4719
  263SOL    HW2 1689   2.962   0.513   5.612 -0.7837  0.2750  0.6132
  264SOL     OW 1690   6.354   1.793   6.057 -0.3488  0.1947 -0.2128
  264SOL    HW1 1691   6.382   1.709   6.011  0.8073  1.8550 -2.7456
  264SOL    HW2 1692   6.427   1.824   6.117 -0.4736 -0.1865  0.1426
  265SOL     OW 1693   6.501   5.432   2.577  0.6983 -0.6914 -0.4784
  265SOL    HW1 1694   6.551   5.412   2.661 -1.4231 -0.8183  0.8420
  265SOL    HW2 1695   6.476   5.346   2.532  0.1853 -0.6992 -0.1873
  266SOL     OW 1696   4.936   4.119   5.964 -0.0946  0.4247  0.0802
  266SOL    HW1 1697   4.941   4.027   5.924  1.7729 -0.4605  2.0978
  266SOL    HW2 1698   4.896   4.112   6.055  1.0205  1.4129  0.6725
  267SOL     OW 1699   6.830   2.716   1.449 -0.0505  0.0404  0.1281
  267SOL    HW1 1700   6.871   2.629   1.423  1.8184  0.8710  0.1242
  267SOL    HW2 1701   6.875   2.751   1.531  1.0329  2.1792 -1.2890
  268SOL     OW 1702   3.863   6.641   5.909 -0.1646  0.2405  0.4149
  268SOL    HW1 1703   3.849   6.729   5.952 -3.0366 -0.1662  0.4781
  268SOL    HW2 1704   3.945   6.598   5.947  0.4658  2.2074  1.4183
  269SOL     OW 1705   1.980   3.866   0.521  0.3881  0.3702  0.1911
  269SOL    HW1 1706   1.959   3.841   0.616  0.1498  0.6741  0.2201
  269SOL    HW2 1707   1.903   3.842   0.463  0.6778 -0.1509  0.0110
  270SOL     OW 1708   5.408   6.093   1.270 -0.2118 -0.1651  0.1533
  270SOL    HW1 1709   5.356   6.121   1.351  1.5639 -0.0120  1.2890
  270SOL    HW2 1710   5.502   6.124   1.278  0.3493 -1.3424 -1.3440
  271SOL     OW 1711   1.026   2.100   5.814 -0.1675 -0.4192 -0.1688
  271SOL    HW1 1712   1.036   2.197   5.795 -0.5540 -0.1343  0.9671
  271SOL    HW2 1713   1.086   2.047   5.753  1.0191  0.6134  0.0596
  272SOL     OW 1714   6.100   5.580   4.719 -0.4975  0.0407  0.5022
  272SOL    HW1 1715   6.071   5.674   4.700 -0.0279  0.2556  0.8380
  272SOL    HW2 1716   6.086   5.523   4.638 -0.6878  0.4256  0.2671
  273SOL     OW 1717   2.107   4.179   3.462 -0.0737 -0.3347 -0.0409
  273SOL    HW1 1718   2.079   4.202   3.369  0.6779 -0.6963 -0.3646
  273SOL    HW2 1719   2.182   4.238   3.490 -0.1962 -0.3304  0.2848
  274SOL     OW 1720   4.046   1.737   2.292  0.1659  0.2691 -0.0582
  274SOL    HW1 1721   4.018   1.829   2.263  2.2367  1.0384  0.1417
  274SOL    HW2 1722   4.061   1.680   2.211  0.1678  0.5361 -0.2479
  275SOL     OW 1723   4.319   5.898   2.788  0.6086 -0.0250 -0.4350
  275SOL    HW1 1724   4.402   5.853   2.755  0.8984  0.1617  0.0326
  275SOL    HW2 1725   4.336   5.995   2.801  1.8221 -0.6294  4.1458
  276SOL     OW 1726   1.468   0.762   4.418 -0.6293 -0.2307  0.0349
  276SOL    HW1 1727   1.376   0.722   4.416 -0.3099 -0.9964 -2.1459
  276SOL    HW2 1728   1.530   0.699   4.465 -1.0565 -0.0004  0.9477
  277SOL     OW 1729   2.429   3.728   0.150 -0.0764 -0.2836  0.3852
  277SOL    HW1 1730   2.487   3.649   0.171 -1.9416 -1.7496  0.3030
  277SOL    HW2 1731   2.354   3.700   0.090 -1.5165  1.2630  1.3553
  278SOL     OW 1732   1.149   3.271   1.217 -0.8457 -0.1481 -0.5545
  278SOL    HW1 1733   1.102   3.203   1.160  1.9081 -0.4217 -2.7267
  278SOL    HW2 1734   1.114   3.362   1.197  0.1876 -0.2180 -2.9679
  279SOL     OW 1735   5.909   3.337   3.883  0.5984 -0.6044 -0.1505
  279SOL    HW1 1736   5.902   3.420   3.939 -0.1628 -1.0254  0.4021
  279SOL    HW2 1737   5.844   3.269   3.917  0.6033 -1.1183 -1.1327
  280SOL     OW 1738   2.638   5.266   2.375 -0.0859  0.0454 -0.2847
  280SOL    HW1 1739   2.559   5.209   2.352 -0.5348 -0.0117  1.3017
  280SOL    HW2 1740   2.681   5.299   2.290 -0.8224 -1.2451 -1.1985
  281SOL     OW 1741   2.593   5.608   3.377 -0.7100 -0.3178 -0.4810
  281SOL    HW1 1742   2.572   5.512   3.400 -2.6756 -0.0187 -0.8627
  281SOL    HW2 1743   2.537   5.636   3.300  0.2408  1.0074 -0.7114
  282SOL     OW 1744   3.355   2.419   6.228 -0.3081  1.1336  0.5759
  282SOL    HW1 1745   3.411   2.343   6.260  0.0555  0.8741 -0.6231
  282SOL    HW2 1746   3.258   2.393   6.234 -0.1537  0.0909 -0.9198
  283SOL     OW 1747   6.120   2.437   4.855 -0.2550 -0.1764 -0.3586
  283SOL    HW1 1748   6.020   2.433   4.862 -0.1444 -0.4548  1.8250
  283SOL    HW2 1749   6.159   2.441   4.947  1.8048 -1.3214 -1.1302
  284SOL     OW 1750   0.933   3.920   3.849  0.2159 -0.0148 -0.4542
  284SOL    HW1 1751   0.863   3.894   3.915 -0.0532  0.6179 -0.4883
  284SOL    HW2 1752   0.963   4.014   3.866  2.1470 -0.7375  0.5228
  285SOL     OW 1753   6.905   5.767   3.518 -0.1881  0.1807 -0.1074
  285SOL    HW1 1754   6.819   5.725   3.489 -0.4527  0.0732  0.8029
  285SOL    HW2 1755   6.886   5.852   3.567  0.2618  0.4987 -0.4757
  286SOL     OW 1756   1.825   5.513   6.492 -0.4857  0.6288  0.1364
  286SOL    HW1 1757   1.851   5.422   6.461 -1.1777  1.1251 -2.0582
  286SOL    HW2 1758   1.898   5.578   6.469  0.0889  0.6336  1.8558
  287SOL     OW 1759   1.065   3.386   0.752 -0.2418  0.0648 -0.4493
  287SOL    HW1 1760   1.111   3.297   0.759  2.5887  1.4696  0.5079
  287SOL    HW2 1761   1.116   3.446   0.691  0.4156  2.3327  2.0935
  288SOL     OW 1762   3.283   2.126   0.382 -0.6837 -0.6358 -0.3667
  288SOL    HW1 1763   3.247   2.036   0.404  1.6625 -1.8190 -1.0004
  288SOL    HW2 1764   3.242   2.158   0.296 -2.7767 -0.2854  0.7151
  289SOL     OW 1765   6.215   5.426   5.330  0.3673  0.1327  0.8114
  289SOL    HW1 1766   6.174   5.337   5.350  2.8662 -1.4298 -0.5742
  289SOL    HW2 1767   6.282   5.449   5.400  0.2866  0.5623  0.7507
  290SOL     OW 1768   0.074   1.550   3.289 -0.5669 -0.7289  0.2183
  290SOL    HW1 1769   0.142   1.509   3.228  0.9229  3.1249 -0.9975
  290SOL    HW2 1770   0.015   1.612   3.237 -1.1442  0.5210  2.2507
  291SOL     OW 1771   0.710   1.164   5.162  0.1763 -0.0872  0.0836
  291SOL    HW1 1772   0.703   1.078   5.112 -0.2729 -0.0734  0.1143
  291SOL    HW2 1773   0.683   1.240   5.103  2.1921  0.2361 -0.4700
  292SOL     OW 1774   3.453   0.467   3.501  0.3178 -0.2229 -0.3121
  292SOL    HW1 1775   3.452   0.369   3.522 -0.4608 -0.4067 -1.1262
  292SOL    HW2 1776   3.413   0.517   3.577  0.2042 -0.5923 -0.1231
  293SOL     OW 1777   2.260   6.618   1.990  0.4394  0.2352  0.2547
  293SOL    HW1 1778   2.247   6.589   1.896  0.5339  1.5026 -0.1674
  293SOL    HW2 1779   2.307   6.546   2.041  2.9604  0.6136 -1.3774
  294SOL     OW 1780   5.590   6.597   6.577 -0.9174  0.1456 -0.4983
  294SOL    HW1 1781   5.536   6.611   6.494 -2.6398  0.3360  0.5965
  294SOL    HW2 1782   5.639   6.681   6.599  0.3060 -0.1922 -1.7935
  295SOL     OW 1783   3.427   2.599   1.054 -0.2473  0.0261 -0.3549
  295SOL    HW1 1784   3.403   2.672   1.118 -0.5948 -1.3740  1.1702
  295SOL    HW2 1785   3.526   2.590   1.050 -0.2266 -0.1181  0.3010
  296SOL     OW 1786   3.023   1.371   1.508  0.2420 -0.0667  0.1627
  296SOL    HW1 1787   3.040   1.464   1.538  0.8121  0.3700 -1.4494
  296SOL    HW2 1788   3.109   1.325   1.489 -0.1114 -0.1499 -1.3078
  297SOL     OW 1789   2.295   4.450   3.024 -0.0812 -0.0659  0.8516
  297SOL    HW1 1790   2.392   4.472   3.033 -0.2419  0.7641  0.6017
  297SOL    HW2 1791   2.249   4.465   3.112 -0.2782  1.0658  0.5629
  298SOL     OW 1792   3.434   5.849   1.222  0.3130 -0.3195 -0.2653
  298SOL    HW1 1793   3.476   5.862   1.312 -0.5965  1.5862 -0.0756
  298SOL    HW2 1794   3.469   5.917   1.158 -0.3735 -0.5141 -0.8634
  299SOL     OW 1795   6.547   4.205   5.609 -0.5116 -0.0438 -0.3334
  299SOL    HW1 1796   6.457   4.174   5.576  0.2345 -1.8528 -0.7701
  299SOL    HW2 1797   6.580   4.142   5.680 -0.4869  1.7951  1.3785
  300SOL     OW 1798   0.553   1.514   2.503 -0.0500  0.3373  0.2668
  300SOL    HW1 1799   0.496   1.439   2.469  0.2606  0.4448 -0.5317
  300SOL    HW2 1800   0.501   1.570   2.567 -0.6630  0.1294 -0.0452
  301SOL     OW 1801   4.879   5.829   6.944  0.4728  0.4331  0.4366
  301SOL    HW1 1802   4.922   5.899   6.886  1.8222 -1.0049 -0.3717
  301SOL    HW2 1803   4.905   5.738   6.911  0.1537 -0.4488  2.4820
  302SOL     OW 1804   2.680   1.319   4.749  0.1090 -0.0605 -0.6261
  302SOL    HW1 1805   2.636   1.409   4.752 -2.7507 -1.1588 -3.4507
  302SOL    HW2 1806   2.656   1.268   4.832 -0.3066  0.9050 -0.1360
  303SOL     OW 1807   5.334   3.850   1.675 -0.0015 -0.2653  0.2777
  303SOL    HW1 1808   5.238   3.853   1.651 -0.8859 -0.2873  3.3046
  303SOL    HW2 1809   5.352   3.768   1.731  1.2643  0.7816  1.4899
  304SOL     OW 1810   2.872   6.361   4.015  0.0419  0.7985 -0.0830
  304SOL    HW1 1811   2.971   6.373   4.023 -0.0074  1.3537 -0.2530
  304SOL    HW2 1812   2.850   6.321   3.926  0.1760 -0.1741  0.3108
  305SOL     OW 1813   6.989   4.177   2.010  0.6731 -0.4184  0.5674
  305SOL    HW1 1814   6.981   4.169   2.109 -0.2132 -2.0471  0.4070
  305SOL    HW2 1815   6.980   4.086   1.969 -0.9917  0.4307 -1.1254
  306SOL     OW 1816   2.947   2.170   4.262 -0.0062  0.0209 -0.6268
  306SOL    HW1 1817   2.950   2.239   4.190  0.3728  1.2456  0.5150
  306SOL    HW2 1818   2.930   2.081   4.222 -0.5992  0.7786 -2.1504
  307SOL     OW 1819   4.325   6.489   0.054  0.4056  0.0483  0.2614
  307SOL    HW1 1820   4.359   6.583   0.039  1.9892 -0.7477 -1.6260
  307SOL    HW2 1821   4.372   6.449   0.133  1.5760  0.0669 -0.3893
  308SOL     OW 1822   0.206   5.411   5.792  0.2181 -0.0222 -0.4951
  308SOL    HW1 1823   0.175   5.318   5.771  3.3335 -1.5037  0.6554
  308SOL    HW2 1824   0.274   5.439   5.724 -1.6377  2.0577 -1.5919
  309SOL     OW 1825   4.910   5.059   0.570  0.6605  0.1468  0.5978
  309SOL    HW1 1826   4.984   5.020   0.516 -1.5525 -0.4946 -2.2427
  309SOL    HW2 1827   4.907   5.015   0.660  2.0219 -1.7694 -0.2278
  310SOL     OW 1828   5.442   1.159   5.937  0.1399 -0.0671  0.0406
  310SOL    HW1 1829   5.513   1.090   5.926  0.7127  0.0871  2.3004
  310SOL    HW2 1830   5.474   1.231   5.999 -2.1260 -0.2789  1.5823
  311SOL     OW 1831   0.454   4.625   1.807 -0.7760  0.2689  0.2926
  311SOL    HW1 1832   0.385   4.558   1.784 -1.5154  1.0038  0.3318
  311SOL    HW2 1833   0.526   4.625   1.737 -0.3174 -1.1534  0.7444
  312SOL     OW 1834   5.152   0.778   4.781 -0.4175  0.0913  0.1345
  312SOL    HW1 1835   5.072   0.829   4.749 -0.7655 -0.9093 -0.6762
  312SOL    HW2 1836   5.122   0.690   4.819  0.3130 -0.5168 -0.6539
  313SOL     OW 1837   1.225   5.525   0.720 -0.4225  0.1863  0.3486
  313SOL    HW1 1838   1.289   5.456   0.687  0.3977  0.2731  1.6599
  313SOL    HW2 1839   1.146   5.531   0.658  0.5404 -0.3489 -0.9707
  314SOL     OW 1840   2.614   4.618   2.278  0.1633 -0.5161  0.1173
  314SOL    HW1 1841   2.704   4.624   2.234  1.1089 -1.0313  1.8923
  314SOL    HW2 1842   2.588   4.522   2.287 -1.3333 -0.3438 -1.7833
  315SOL     OW 1843   1.896   1.093   4.218 -0.0620  0.0246  0.0492
  315SOL    HW1 1844   1.916   1.040   4.300  0.1821 -0.9110 -0.5890
  315SOL    HW2 1845   1.884   1.189   4.242  0.4461 -0.1605  1.1080
  316SOL     OW 1846   1.120   3.088   5.097 -0.3652 -0.4446 -0.4592
  316SOL    HW1 1847   1.109   3.176   5.050 -3.4366  0.2796  1.3715
  316SOL    HW2 1848   1.030   3.052   5.123  0.8838 -3.4754  0.1338
  317SOL     OW 1849   1.370   2.231   1.343  0.0042  0.1958  0.3879
  317SOL    HW1 1850   1.370   2.149   1.401 -0.8943  0.1586  0.3486
  317SOL    HW2 1851   1.396   2.310   1.397 -0.1197  0.0426  0.6735
  318SOL     OW 1852   1.690   3.095   2.753  0.1349 -0.1259  0.4462
  318SOL    HW1 1853   1.600   3.104   2.795  0.2438 -0.7849  0.8341
  318SOL    HW2 1854   1.738   3.182   2.758 -1.0503  0.6580 -1.1077
  319SOL     OW 1855   1.770   0.800   2.124  0.1136  0.1602 -0.3139
  319SOL    HW1 1856   1.694   0.742   2.153  0.6993 -0.0820  0.7637
  319SOL    HW2 1857   1.855   0.747   2.124  0.5967  0.9248  0.3449
  320SOL     OW 1858   5.952   2.233   6.111 -0.1550 -0.3682  0.4851
  320SOL    HW1 1859   5.891   2.209   6.187 -0.7148 -0.1319  0.1174
  320SOL    HW2 1860   5.955   2.333   6.102  1.6254 -0.2864  1.5780
  321SOL     OW 1861   1.461   4.139   1.153 -0.2732  0.0114 -0.5150
  321SOL    HW1 1862   1.542   4.151   1.095 -0.6574 -1.3815 -1.3936
  321SOL    HW2 1863   1.410   4.058   1.123 -1.9207  0.7607  0.1131
  322SOL     OW 1864   4.008   3.699   3.824  0.2590 -0.0617  0.0509
  322SOL    HW1 1865   4.065   3.671   3.747  0.5201  0.8358 -0.0877
  322SOL    HW2 1866   3.935   3.631   3.838 -0.4867  0.3237 -1.6952
  323SOL     OW 1867   6.431   3.452   0.198 -0.2032 -0.0095 -0.2514
  323SOL    HW1 1868   6.459   3.367   0.154  0.6002  0.9361 -1.6340
  323SOL    HW2 1869   6.392   3.514   0.131  0.8392  1.3860  0.3800
  324SOL     OW 1870   0.957   4.271   5.247 -0.2186  0.1534 -0.8141
  324SOL    HW1 1871   0.892   4.343   5.270 -1.9059 -1.8625  1.1628
  324SOL    HW2 1872   0.997   4.235   5.332 -0.4853 -2.1338 -1.5995
  325SOL     OW 1873   2.559   3.375   1.383 -0.0626  0.1177  0.2139
  325SOL    HW1 1874   2.541   3.364   1.481 -1.1984  2.2223  0.3088
  325SOL    HW2 1875   2.509   3.455   1.350 -1.7547 -1.9444 -2.6346
  326SOL     OW 1876   1.287   0.325   0.264 -0.3731  0.0371  0.0488
  326SOL    HW1 1877   1.368   0.336   0.206 -1.0245  0.3733 -0.8205
  326SOL    HW2 1878   1.204   0.330   0.208 -0.9679 -2.2425  0.6328
  327SOL     OW 1879   0.809   6.388   5.082  0.9347 -0.4395 -0.3052
  327SOL    HW1 1880   0.716   6.420   5.066  1.1205 -1.0268 -2.9404
  327SOL    HW2 1881   0.864   6.464   5.119  0.4918  1.3897 -3.0636
  328SOL     OW 1882   3.934   4.981   2.812 -0.7041 -0.0733 -0.2060
  328SOL    HW1 1883   3.850   4.962   2.761 -2.5641  0.0916  2.5686
  328SOL    HW2 1884   3.930   4.936   2.901  0.7007  2.5672  1.3202
  329SOL     OW 1885   3.907   3.895   3.229 -0.6148 -0.0785 -1.0667
  329SOL    HW1 1886   3.956   3.897   3.317 -0.8100  0.5151 -0.9677
  329SOL    HW2 1887   3.828   3.835   3.237 -0.8022  0.2089 -0.7454
  330SOL     OW 1888   3.318   4.922   2.719 -1.0363  0.0692  0.0041
  330SOL    HW1 1889   3.332   4.904   2.622  2.7340 -0.2929  0.4406
  330SOL    HW2 1890   3.327   4.836   2.770  2.2359  0.8315  0.9503
  331SOL     OW 1891   4.920   4.965   7.009 -0.2067  0.1997 -0.2420
  331SOL    HW1 1892   5.005   5.009   6.981  0.1608  0.3855  1.1317
  331SOL    HW2 1893   4.853   4.973   6.935  0.7223  0.6965 -1.0497
  332SOL     OW 1894   2.676   1.314   3.146 -0.0359 -0.2892 -0.1739
  332SOL    HW1 1895   2.606   1.267   3.200 -1.1505 -0.0545 -1.3918
  332SOL    HW2 1896   2.705   1.397   3.195 -1.8905  0.5626 -0.4250
  333SOL     OW 1897   2.983   5.824   5.793 -0.5886 -0.2077  0.4105
  333SOL    HW1 1898   3.077   5.810   5.825 -0.2582  0.3999 -0.2561
  333SOL    HW2 1899   2.984   5.886   5.715 -1.6823  0.9519  1.2769
  334SOL     OW 1900   3.048   5.088   1.924  0.5383  0.3354  0.4955
  334SOL    HW1 1901   3.109   5.009   1.912  1.6809  1.3087 -0.2633
  334SOL    HW2 1902   3.020   5.094   2.020  3.1628  0.9247  1.2888
  335SOL     OW 1903   4.648   6.807   4.028 -0.0561 -0.0261 -0.1200
  335SOL    HW1 1904   4.679   6.733   3.968 -1.6974 -1.1266  0.3395
  335SOL    HW2 1905   4.660   6.779   4.123 -1.5721 -0.1191  0.0651
  336SOL     OW 1906   4.782   0.643   3.912 -0.4899  0.2492  0.0201
  336SOL    HW1 1907   4.781   0.742   3.926  1.8827  0.2828  0.2120
  336SOL    HW2 1908   4.724   0.599   3.981  0.3226  1.3496  1.4301
  337SOL     OW 1909   1.402   2.757   2.697 -0.5074  0.6287 -0.2198
  337SOL    HW1 1910   1.399   2.805   2.785 -0.7300 -1.1507  0.8130
  337SOL    HW2 1911   1.330   2.688   2.695 -0.8468  0.9975 -2.0500
  338SOL     OW 1912   3.632   3.921   1.494 -0.1466  0.3311  0.5175
  338SOL    HW1 1913   3.723   3.880   1.491 -0.2473  0.0374  1.2838
  338SOL    HW2 1914   3.564   3.850   1.513 -0.4093  0.7192  1.0693
  339SOL     OW 1915   3.350   6.280   1.588  0.4721  0.1117  0.3287
  339SOL    HW1 1916   3.271   6.300   1.646  1.6899  2.8991  1.1616
  339SOL    HW2 1917   3.322   6.282   1.492 -0.3971  1.5650  0.5890
  340SOL     OW 1918   0.299   3.583   4.540 -0.2355 -0.1314 -0.3264
  340SOL    HW1 1919   0.261   3.646   4.609 -0.3863  0.1644 -0.6768
  340SOL    HW2 1920   0.330   3.500   4.585 -0.6428 -0.0807  0.0623
  341SOL     OW 1921   6.249   3.906   4.627 -0.3221  0.0586 -0.0676
  341SOL    HW1 1922   6.276   3.820   4.584 -1.0673 -1.2214  1.8827
  341SOL    HW2 1923   6.303   3.981   4.589  1.3154 -1.4562 -0.8765
  342SOL     OW 1924   4.808   4.281   1.455  0.2549  0.2761 -0.4763
  342SOL    HW1 1925   4.761   4.208   1.405 -1.2316  0.2111  0.9293
  342SOL    HW2 1926   4.753   4.307   1.534  2.4229  0.5103  1.0168
  343SOL     OW 1927   3.307   1.204   2.543 -0.1425  0.0031 -1.0726
  343SOL    HW1 1928   3.255   1.136   2.491  0.0459  0.1475 -1.4546
  343SOL    HW2 1929   3.404   1.183   2.539 -0.0962  0.2079 -1.0601
  344SOL     OW 1930   2.230   4.000   0.205 -0.4443  0.3603 -0.4091
  344SOL    HW1 1931   2.266   4.081   0.159 -0.4276  0.9454  0.6115
  344SOL    HW2 1932   2.136   4.017   0.234 -0.7611 -0.3265 -0.9923
  345SOL     OW 1933   1.007   1.641   3.999  0.3548 -0.0414 -1.1493
  345SOL    HW1 1934   0.996   1.568   3.932  3.0544  0.5914 -2.3987
  345SOL    HW2 1935   1.009   1.602   4.091  0.7232 -1.4328 -1.7291
  346SOL     OW 1936   2.016   0.657   3.313 -0.5457  0.3919 -0.7091
  346SOL    HW1 1937   1.936   0.635   3.257 -0.2569  1.1436 -1.4475
  346SOL    HW2 1938   2.082   0.582   3.309 -1.0357 -0.0622 -0.4138
  347SOL     OW 1939   4.934   0.511   6.500 -0.2443 -0.1702  0.1660
  347SOL    HW1 1940   5.000   0.494   6.573 -0.7226  2.2240  1.2423
  347SOL    HW2 1941   4.966   0.586   6.443 -1.7646  0.6907  0.3944
  348SOL     OW 1942   4.170   4.361   1.632  0.1396  0.4298 -0.4062
  348SOL    HW1 1943   4.241   4.412   1.681 -1.5087 -0.6153  3.4827
  348SOL    HW2 1944   4.196   4.265   1.627  0.0886  0.4542 -1.2654
  349SOL     OW 1945   6.927   4.032   4.863  0.2727  0.3639  0.1208
  349SOL    HW1 1946   6.901   3.941   4.832 -0.4797  0.7027 -0.2727
  349SOL    HW2 1947   6.982   4.077   4.792 -0.3034  0.6276 -0.1699
  350SOL     OW 1948   3.333   4.134   0.897  0.2648 -0.2152  0.0308
  350SOL    HW1 1949   3.383   4.074   0.960  0.7620  1.2044  1.0207
  350SOL    HW2 1950   3.239   4.143   0.928  0.9876  2.0851  1.8398
  351SOL     OW 1951   3.503   3.489   1.446 -1.0708  0.6364  0.0991
  351SOL    HW1 1952   3.490   3.391   1.437 -2.6723  0.6461  1.8467
  351SOL    HW2 1953   3.578   3.518   1.385 -1.7777 -1.3184 -1.8349
  352SOL     OW 1954   4.392   6.855   4.043  0.3855  0.6967  0.2096
  352SOL    HW1 1955   4.355   6.794   3.973  0.5988  2.4002 -1.4303
  352SOL    HW2 1956   4.488   6.834   4.059  0.4437  0.5749 -0.3030
  353SOL     OW 1957   2.181   6.858   2.031  0.4183  0.2419  0.2693
  353SOL    HW1 1958   2.210   6.763   2.018 -0.6346 -0.0883  0.2180
  353SOL    HW2 1959   2.222   6.894   2.115  1.6299  0.0804 -0.2316
  354SOL     OW 1960   3.434   1.281   0.720 -0.3731  0.4748 -0.4287
  354SOL    HW1 1961   3.425   1.244   0.627  0.0312 -0.4560 -0.1033
  354SOL    HW2 1962   3.415   1.209   0.787  2.2318  0.3352  0.2474
  355SOL     OW 1963   0.241   0.886   2.776  0.3408  0.0002 -0.3005
  355SOL    HW1 1964   0.207   0.815   2.837  1.6249 -0.6615 -0.3071
  355SOL    HW2 1965   0.245   0.973   2.824 -1.7291  0.2092 -0.4400
  356SOL     OW 1966   2.440   4.920   5.089 -0.3359 -0.2425 -0.6143
  356SOL    HW1 1967   2.383   4.952   5.165 -0.8538 -0.4972 -0.8823
  356SOL    HW2 1968   2.503   4.992   5.061  1.8466 -1.0325  1.8558
  357SOL     OW 1969   1.224   6.354   4.740  0.0928  0.2434  0.4303
  357SOL    HW1 1970   1.285   6.328   4.815 -1.1410 -0.9367  1.0618
  357SOL    HW2 1971   1.129   6.348   4.770 -0.5626 -2.4285 -1.7888
  358SOL     OW 1972   0.604   6.442   2.369 -0.3641  0.8989  0.4827
  358SOL    HW1 1973   0.625   6.468   2.464 -1.1748 -2.1438  1.6206
  358SOL    HW2 1974   0.506   6.448   2.353 -0.8647 -2.6156  1.3684
  359SOL     OW 1975   1.095   2.711   1.918 -0.2161  0.1575  0.1841
  359SOL    HW1 1976   1.047   2.799   1.913  0.3186  0.3953 -1.9211
  359SOL    HW2 1977   1.173   2.720   1.980 -1.4262  0.4818  1.7241
  360SOL     OW 1978   3.922   0.568   5.942  0.1156 -0.1271  0.3342
  360SOL    HW1 1979   3.937   0.564   6.040 -1.7232 -2.8909  0.6048
  360SOL    HW2 1980   3.897   0.478   5.908 -1.7705  1.2262 -2.2400
  361SOL     OW 1981   4.752   6.899   3.262  0.6245 -0.4412  0.0794
  361SOL    HW1 1982   4.826   6.834   3.241 -0.2854 -1.6012  0.3302
  361SOL    HW2 1983   4.710   6.874   3.350 -1.4625 -1.1519 -1.0548
  362SOL     OW 1984   3.305   3.450   7.004  0.4149 -0.0008  0.0700
  362SOL    HW1 1985   3.333   3.545   7.015  0.2355 -0.1692  2.8488
  362SOL    HW2 1986   3.311   3.404   7.093 -1.1058 -2.1428 -0.8579
  363SOL     OW 1987   3.902   0.672   4.073  0.1360 -0.4280 -0.7242
  363SOL    HW1 1988   3.942   0.740   4.134 -2.0945 -0.0895  0.4676
  363SOL    HW2 1989   3.838   0.717   4.011  1.8860 -0.8687 -2.9631
  364SOL     OW 1990   1.727   6.531   3.951 -0.3263  0.3152 -0.7446
  364SOL    HW1 1991   1.629   6.545   3.965 -0.4601 -1.7079  0.8681
  364SOL    HW2 1992   1.778   6.596   4.005 -0.8017  0.3722 -0.3571
  365SOL     OW 1993   4.779   4.749   1.711 -0.0759 -0.0649 -0.5861
  365SOL    HW1 1994   4.772   4.795   1.800 -2.0383 -1.4745  0.0412
  365SOL    HW2 1995   4.857   4.687   1.712  0.1544  0.2248 -0.0028
  366SOL     OW 1996   0.467   2.395   0.885  0.1662 -0.2038 -0.2258
  366SOL    HW1 1997   0.426   2.421   0.973  1.2841  1.3286 -0.1347
  366SOL    HW2 1998   0.437   2.302   0.862 -0.2324 -0.6121  1.7166
  367SOL     OW 1999   4.053   2.562   0.711 -0.5100  0.8508  0.2353
  367SOL    HW1 2000   4.120   2.635   0.698 -2.2276  2.6399  0.9483
  367SOL    HW2 2001   4.023   2.528   0.621 -1.4264  2.7179 -0.2083
  368SOL     OW 2002   1.306   5.674   5.775 -0.4753  0.0034 -0.1888
  368SOL    HW1 2003   1.290   5.607   5.702 -0.7393  0.4126 -0.5194
  368SOL    HW2 2004   1.345   5.757   5.735  0.5780 -0.2276  0.3284
  369SOL     OW 2005   1.584   4.901   0.874 -0.2486  0.0535 -0.3157
  369SOL    HW1 2006   1.517   4.864   0.809  0.4876 -0.1491 -0.9835
  369SOL    HW2 2007   1.539   4.963   0.937 -1.1290 -0.3636 -0.5227
  370SOL     OW 2008   2.064   0.429   5.969  0.0748 -0.1750 -0.4475
  370SOL    HW1 2009   2.112   0.473   6.045 -0.0684 -1.6435  0.5282
  370SOL    HW2 2010   1.967   0.424   5.990  0.4088 -3.5027  0.8618
  371SOL     OW 2011   1.262   4.396   1.773  0.3515 -0.0214  0.0575
  371SOL    HW1 2012   1.263   4.342   1.857  0.2221 -0.0267  0.0568
  371SOL    HW2 2013   1.168   4.400   1.738  0.4758 -0.3875 -0.3215
  372SOL     OW 2014   1.132   0.255   5.378 -0.2047 -0.2484 -0.5695
  372SOL    HW1 2015   1.058   0.310   5.416 -0.7472 -0.2760 -1.5481
  372SOL    HW2 2016   1.208   0.315   5.353  0.1596 -0.2323  0.5299
  373SOL     OW 2017   0.062   6.426   6.349 -0.7781  0.4112  0.7272
  373SOL    HW1 2018  -0.029   6.410   6.386 -0.6662 -1.4422  0.2884
  373SOL    HW2 2019   0.055   6.450   6.253 -0.7642 -1.6853  0.1525
  374SOL     OW 2020   3.989   6.600   2.381 -0.0650 -0.9939  0.3292
  374SOL    HW1 2021   4.029   6.590   2.472 -1.1308  1.1757  1.1086
  374SOL    HW2 2022   4.060   6.624   2.315  0.5451 -1.4826  0.7978
  375SOL     OW 2023   6.505   3.973   2.267  0.4770 -0.2117  0.2359
  375SOL    HW1 2024   6.446   4.019   2.201  1.0412  0.4455  0.1746
  375SOL    HW2 2025   6.478   3.999   2.360  0.9511  0.4626  0.1953
  376SOL     OW 2026   6.962   2.438   2.713  0.2195  0.5134  0.5049
  376SOL    HW1 2027   6.971   2.521   2.768  1.7143  1.3718 -0.9411
  376SOL    HW2 2028   6.959   2.462   2.616  0.4174 -1.1141  0.0605
  377SOL     OW 2029   5.194   2.987   2.266 -0.5409 -0.0082  0.4791
  377SOL    HW1 2030   5.094   2.993   2.261 -0.7226 -1.7663  1.4565
  377SOL    HW2 2031   5.222   2.959   2.358  0.8728  0.4223  0.2152
  378SOL     OW 2032   3.754   3.252   5.649 -0.1276 -0.1765  0.1846
  378SOL    HW1 2033   3.838   3.256   5.596 -0.1546 -0.7883  0.0960
  378SOL    HW2 2034   3.677   3.230   5.589 -0.3471  0.3313  0.2725
  379SOL     OW 2035   5.292   4.769   6.934  0.0867 -0.4798 -0.3416
  379SOL    HW1 2036   5.356   4.695   6.914 -0.1205 -0.6373 -0.4316
  379SOL    HW2 2037   5.289   4.785   7.032  2.1323  1.2120 -0.4900
  380SOL     OW 2038   1.301   6.744   2.162  0.0185 -0.0870 -0.0592
  380SOL    HW1 2039   1.348   6.711   2.243  0.3043  0.6436  0.0795
  380SOL    HW2 2040   1.204   6.757   2.182  0.3296  1.4693  0.6186
  381SOL     OW 2041   2.794   5.993   1.585 -0.1924  0.3360 -0.9846
  381SOL    HW1 2042   2.815   6.034   1.674 -2.1475  1.7721 -1.1282
  381SOL    HW2 2043   2.819   6.058   1.512  1.5588 -0.8981 -1.5565
  382SOL     OW 2044   2.539   5.327   1.043  0.3677 -0.2781 -0.0414
  382SOL    HW1 2045   2.535   5.311   0.944  2.2140 -0.8986 -0.0524
  382SOL    HW2 2046   2.544   5.240   1.091  0.7046  0.0490  0.5206
  383SOL     OW 2047   0.419   3.008   0.094  0.4037 -0.0157  0.1918
  383SOL    HW1 2048   0.380   3.032   0.005  0.9788  0.1340 -0.0256
  383SOL    HW2 2049   0.420   3.090   0.152  0.7752  0.0803  0.0518
  384SOL     OW 2050   1.599   6.601   6.673  0.0195 -0.0426  0.6035
  384SOL    HW1 2051   1.611   6.628   6.577  1.7123 -0.2867  0.7137
  384SOL    HW2 2052   1.683   6.558   6.706 -0.4963  0.1530  2.2517
  385SOL     OW 2053   4.182   5.825   1.454 -0.0691  0.5095 -0.4477
  385SOL    HW1 2054   4.230   5.891   1.396  0.6226 -0.5987 -1.1827
  385SOL    HW2 2055   4.084   5.842   1.449 -0.0729  0.1258 -2.3870
  386SOL     OW 2056   4.124   5.212   5.659 -0.2338  0.0979  0.1633
  386SOL    HW1 2057   4.105   5.290   5.600  0.3874  0.4124  0.3808
  386SOL    HW2 2058   4.213   5.174   5.637 -1.0727 -1.3777 -0.8446
  387SOL     OW 2059   5.270   1.291   3.302 -0.0320  0.3023  0.3355
  387SOL    HW1 2060   5.188   1.235   3.306 -1.2271  2.0531  1.8482
  387SOL    HW2 2061   5.350   1.235   3.324 -1.0719 -0.9782  0.9992
  388SOL     OW 2062   0.958   4.386   4.848 -0.0770 -0.0900 -0.3202
  388SOL    HW1 2063   0.921   4.408   4.758  1.0497  0.6552 -0.6177
  388SOL    HW2 2064   1.014   4.462   4.881  0.3131 -0.7528  0.5866
  389SOL     OW 2065   3.447   5.266   0.996  0.4095  0.4767 -0.0262
  389SOL    HW1 2066   3.525   5.270   0.934 -0.2668  1.5398 -0.8304
  389SOL    HW2 2067   3.369   5.314   0.956 -0.5093 -0.1066  0.9924
  390SOL     OW 2068   3.799   6.146   0.867 -0.1498 -0.1705 -0.1542
  390SOL    HW1 2069   3.742   6.064   0.875  0.1205 -0.4222 -0.8001
  390SOL    HW2 2070   3.877   6.128   0.807 -0.7021  0.8905 -1.2444
  391SOL     OW 2071   3.287   3.434   6.454 -0.1940 -0.0078 -0.2588
  391SOL    HW1 2072   3.276   3.339   6.424 -0.9953 -0.0859  0.2702
  391SOL    HW2 2073   3.305   3.492   6.374  2.9976 -0.9470 -0.3692
  392SOL     OW 2074   1.752   5.374   2.860 -0.2135 -0.8876  0.0432
  392SOL    HW1 2075   1.670   5.345   2.909 -0.7740 -0.2243 -0.4844
  392SOL    HW2 2076   1.782   5.300   2.799 -1.4739 -0.5034 -1.0903
  393SOL     OW 2077   0.393   4.002   0.075 -0.0202 -0.2958 -0.2198
  393SOL    HW1 2078   0.420   4.073   0.010  0.5845 -0.2375  0.0877
  393SOL    HW2 2079   0.303   4.023   0.112 -0.8533 -0.8792 -1.8190
  394SOL     OW 2080   0.129   0.806   5.601  0.1102  0.3635 -0.4778
  394SOL    HW1 2081   0.123   0.896   5.557 -1.1760 -0.0560 -1.2099
  394SOL    HW2 2082   0.130   0.735   5.530 -1.0810 -0.2815  0.1192
  395SOL     OW 2083   5.398   4.403   4.486  0.1475 -0.0302 -0.0296
  395SOL    HW1 2084   5.355   4.461   4.556 -0.2388 -1.7787  1.2549
  395SOL    HW2 2085   5.343   4.321   4.473  1.2973 -0.6826 -0.9168
  396SOL     OW 2086   3.773   2.141   2.508 -0.0523 -0.0679 -0.3517
  396SOL    HW1 2087   3.830   2.213   2.471 -1.9534  1.0713 -1.1915
  396SOL    HW2 2088   3.755   2.072   2.438 -0.5920  0.1561 -0.4420
  397SOL     OW 2089   5.021   0.488   2.842  0.1200 -0.1796  0.2195
  397SOL    HW1 2090   5.082   0.480   2.921 -0.4218  0.7159  0.7416
  397SOL    HW2 2091   5.013   0.584   2.815  1.2983 -0.5727 -1.7385
  398SOL     OW 2092   2.701   1.102   5.352  0.4666 -0.3698  0.4479
  398SOL    HW1 2093   2.790   1.144   5.367  0.7030 -0.8957  0.5470
  398SOL    HW2 2094   2.670   1.059   5.437  0.2281 -0.4002  0.3467
  399SOL     OW 2095   4.296   5.676   3.830 -0.2551  0.3455  0.1728
  399SOL    HW1 2096   4.344   5.754   3.792  0.2191  0.3285  0.7287
  399SOL    HW2 2097   4.345   5.592   3.806 -0.2670  0.2917  0.3341
  400SOL     OW 2098   5.679   0.200   4.045  0.5217 -0.2646 -0.0276
  400SOL    HW1 2099   5.579   0.198   4.046  0.5219 -0.6459  1.2117
  400SOL    HW2 2100   5.712   0.219   3.953 -0.6060 -5.1796 -1.7524
  401SOL     OW 2101   6.577   6.446   5.790  0.4525 -0.1016 -0.4739
  401SOL    HW1 2102   6.486   6.428   5.829 -0.1322  0.5822 -1.4916
  401SOL    HW2 2103   6.610   6.535   5.822  0.2753  0.1478 -0.9767
  402SOL     OW 2104   5.551   6.225   3.357 -0.1854 -0.4229 -0.1798
  402SOL    HW1 2105   5.476   6.171   3.318 -0.7488 -0.5190  1.0199
  402SOL    HW2 2106   5.549   6.318   3.320 -1.2854 -0.2415  0.3198
  403SOL     OW 2107   3.230   5.793   5.932 -0.1929 -0.0575 -0.0351
  403SOL    HW1 2108   3.219   5.706   5.980 -0.3907 -0.5411 -0.9214
  403SOL    HW2 2109   3.302   5.783   5.863 -0.0575  0.5578  0.0151
  404SOL     OW 2110   1.966   6.181   5.314 -0.0270  0.4806 -0.2366
  404SOL    HW1 2111   1.933   6.136   5.231 -0.0809  1.4753 -0.7785
  404SOL    HW2 2112   1.891   6.193   5.379 -0.0511 -0.0245 -0.1678
  405SOL     OW 2113   2.270   4.711   2.593 -0.3323  0.1868 -0.3564
  405SOL    HW1 2114   2.176   4.743   2.608  0.2936  1.7518  0.4967
  405SOL    HW2 2115   2.269   4.627   2.539 -2.1634  0.8917 -1.5023
  406SOL     OW 2116   0.625   3.004   4.264 -0.4931  0.4588  0.8198
  406SOL    HW1 2117   0.569   2.939   4.316 -1.0395 -0.0032 -0.3202
  406SOL    HW2 2118   0.718   2.969   4.257 -0.9229 -0.5258 -0.2988
  407SOL     OW 2119   1.256   3.102   3.098  0.0433  0.0831  0.3365
  407SOL    HW1 2120   1.328   3.168   3.117 -0.1637  0.1765  0.7969
  407SOL    HW2 2121   1.176   3.122   3.155 -0.8420  0.7926 -1.0862
  408SOL     OW 2122   3.360   0.896   3.700 -0.5146  0.0769  0.3880
  408SOL    HW1 2123   3.268   0.907   3.737 -0.2325 -2.6941  2.1700
  408SOL    HW2 2124   3.426   0.941   3.759 -0.2419 -2.9444  2.6572
  409SOL     OW 2125   1.911   5.648   3.185 -0.4265 -0.3650 -0.7250
  409SOL    HW1 2126   1.923   5.649   3.086 -0.9618  1.7646 -0.8033
  409SOL    HW2 2127   1.987   5.697   3.228  0.6042 -2.5120  0.0820
  410SOL     OW 2128   2.400   2.171   1.688  0.1496  0.0927 -0.1137
  410SOL    HW1 2129   2.491   2.134   1.668 -0.4926 -1.0664 -1.0394
  410SOL    HW2 2130   2.368   2.224   1.610  1.1127  2.8595  1.2460
  411SOL     OW 2131   0.886   1.889   1.000  0.2653  0.3019 -0.2318
  411SOL    HW1 2132   0.879   1.937   1.087  0.0513  1.0758 -0.6614
  411SOL    HW2 2133   0.909   1.954   0.928 -0.2133 -0.2075 -0.8640
  412SOL     OW 2134   2.980   5.051   4.754 -0.3968 -0.0147 -0.3827
  412SOL    HW1 2135   3.044   4.976   4.773 -0.7268 -0.5334 -1.2462
  412SOL    HW2 2136   2.896   5.038   4.806 -0.5860 -0.4417 -0.7857
  413SOL     OW 2137   3.860   5.005   3.412  0.0543 -0.2220 -0.3834
  413SOL    HW1 2138   3.904   5.073   3.353 -1.0800  0.3575 -0.5915
  413SOL    HW2 2139   3.807   4.941   3.356  0.5271 -0.8317 -0.1328
  414SOL     OW 2140   3.409   6.380   3.121  0.2572 -0.1894  0.5984
  414SOL    HW1 2141   3.400   6.396   3.220 -0.6725 -1.4584  0.7488
  414SOL    HW2 2142   3.335   6.426   3.073  0.5123  0.1428  0.5187
  415SOL     OW 2143   6.333   1.214   0.888 -0.0000  0.4081  0.1502
  415SOL    HW1 2144   6.239   1.211   0.923 -0.7153  2.5241 -1.3324
  415SOL    HW2 2145   6.339   1.163   0.802  0.6978 -1.2572  1.1586
  416SOL     OW 2146   3.246   4.099   6.181  0.2145 -0.2150  0.2480
  416SOL    HW1 2147   3.343   4.073   6.177  0.3213 -0.1572  1.7384
  416SOL    HW2 2148   3.233   4.165   6.255 -0.9573 -0.1455 -0.0059
  417SOL     OW 2149   2.790   1.709   0.338  0.2888 -0.5276  0.3700
  417SOL    HW1 2150   2.888   1.690   0.336  0.5581  0.8356 -0.1353
  417SOL    HW2 2151   2.770   1.776   0.409 -0.0810  0.1233 -0.3224
  418SOL     OW 2152   4.167   6.797   4.219  0.1138  0.5280  0.4305
  418SOL    HW1 2153   4.249   6.802   4.162 -1.5938 -0.5950 -2.3135
  418SOL    HW2 2154   4.112   6.879   4.207 -1.4792 -0.7479 -1.6887
  419SOL     OW 2155   0.556   0.294   2.104 -0.1637  0.1076  0.4782
  419SOL    HW1 2156   0.509   0.321   2.020 -0.8669  0.2241  0.8966
  419SOL    HW2 2157   0.495   0.308   2.182  0.1592 -0.8161  0.9206
  420SOL     OW 2158   6.732   2.289   4.670 -0.1801 -0.6166  0.5406
  420SOL    HW1 2159   6.831   2.303   4.668 -0.3134  0.6285  1.0400
  420SOL    HW2 2160   6.710   2.207   4.723  0.6246 -1.5661 -0.5830
  421SOL     OW 2161   2.953   4.784   4.402 -0.0322  0.5279  0.0111
  421SOL    HW1 2162   2.857   4.759   4.413  0.0590  0.2316  0.1338
  421SOL    HW2 2163   3.012   4.712   4.439  0.2397  0.6674 -0.1390
  422SOL     OW 2164   3.784   2.215   0.118  0.6281 -0.1497  0.3859
  422SOL    HW1 2165   3.764   2.198   0.021  0.4496 -0.4672  0.4787
  422SOL    HW2 2166   3.698   2.221   0.169  0.7089 -4.0194  1.2313
  423SOL     OW 2167   4.018   1.013   4.991  0.1992  0.1852  0.3099
  423SOL    HW1 2168   4.024   1.022   4.892 -0.2926 -1.9402  0.0483
  423SOL    HW2 2169   3.946   1.073   5.026 -0.2009  0.3235 -0.7170
  424SOL     OW 2170   5.799   3.812   3.669 -0.3485 -0.4776 -0.1595
  424SOL    HW1 2171   5.889   3.795   3.709  0.6182  1.7070 -1.2603
  424SOL    HW2 2172   5.742   3.863   3.733  0.5223  1.3226 -0.7506
  425SOL     OW 2173   3.547   0.683   5.773 -0.3772  0.0542 -0.2528
  425SOL    HW1 2174   3.558   0.678   5.673 -1.3705 -0.7123 -0.3481
  425SOL    HW2 2175   3.589   0.603   5.815  0.7491  0.7846  0.0253
  426SOL     OW 2176   2.375   4.322   4.555  0.0911 -0.0451 -0.0222
  426SOL    HW1 2177   2.473   4.305   4.543 -0.0224 -0.5082 -0.3326
  426SOL    HW2 2178   2.356   4.337   4.652  0.4441 -0.1455  0.0662
  427SOL     OW 2179   2.785   1.503   3.667 -0.1619  0.2967  0.3485
  427SOL    HW1 2180   2.747   1.421   3.624 -1.9622  0.7058  1.0847
  427SOL    HW2 2181   2.825   1.561   3.597  1.3385 -1.2551 -0.1696
  428SOL     OW 2182   1.897   2.120   4.855 -0.2426 -0.4250  0.0727
  428SOL    HW1 2183   1.811   2.167   4.877  0.2301  0.7224 -0.4945
  428SOL    HW2 2184   1.906   2.112   4.756  1.8842  2.5439 -0.0746
  429SOL     OW 2185   2.081   5.324   5.332 -0.1779  0.0256  0.2074
  429SOL    HW1 2186   1.999   5.286   5.373  0.4380 -2.9162 -1.0189
  429SOL    HW2 2187   2.064   5.341   5.234  0.3260  0.5178  0.2019
  430SOL     OW 2188   2.303   0.519   3.552  0.0162 -0.0408  0.8331
  430SOL    HW1 2189   2.239   0.478   3.616 -0.6822  1.0403  0.8433
  430SOL    HW2 2190   2.332   0.450   3.485 -2.6202 -0.1042 -0.3344
  431SOL     OW 2191   2.123   2.016   3.480  0.2347  0.2149  0.2664
  431SOL    HW1 2192   2.093   1.980   3.568 -0.3858 -0.9697 -0.4087
  431SOL    HW2 2193   2.063   2.091   3.452  1.5669  1.9001  1.7041
  432SOL     OW 2194   3.111   1.386   0.139  0.3422  0.5008  0.4338
  432SOL    HW1 2195   3.018   1.351   0.135  0.3522  0.5807 -0.5330
  432SOL    HW2 2196   3.133   1.410   0.234 -1.4719  2.7621  0.3583
  433SOL     OW 2197   2.474   1.502   1.148 -0.1738 -0.0425 -0.0092
  433SOL    HW1 2198   2.536   1.428   1.173  1.2838  0.4672 -1.8560
  433SOL    HW2 2199   2.385   1.464   1.122  0.2233 -1.0555  0.0624
  434SOL     OW 2200   4.638   0.151   4.641 -0.5320  0.1159  0.1980
  434SOL    HW1 2201   4.728   0.115   4.662 -1.4192 -0.8856  2.5999
  434SOL    HW2 2202   4.593   0.181   4.725 -2.1222  1.4114 -1.0416
  435SOL     OW 2203   2.845   0.789   5.394  0.1416 -0.1605  0.1364
  435SOL    HW1 2204   2.863   0.879   5.355  0.0113  0.1620  0.7924
  435SOL    HW2 2205   2.750   0.785   5.426 -0.2388 -0.9770 -1.0400
  436SOL     OW 2206   4.257   0.223   1.114 -0.2005  0.0274  0.2626
  436SOL    HW1 2207   4.213   0.195   1.028  1.8293 -0.4673 -0.6786
  436SOL    HW2 2208   4.347   0.262   1.094  0.0617  0.4816  2.1519
  437SOL     OW 2209   6.809   1.067   5.490 -0.4407  0.0311  0.4408
  437SOL    HW1 2210   6.834   0.975   5.519 -1.5817  0.0857  1.6667
  437SOL    HW2 2211   6.872   1.097   5.418 -0.4907 -1.9721 -0.5018
  438SOL     OW 2212   5.849   4.349   2.281  0.3075 -0.3058  0.2702
  438SOL    HW1 2213   5.813   4.258   2.302  2.5649 -1.1697  0.6869
  438SOL    HW2 2214   5.828   4.412   2.356 -2.3217 -0.0948 -0.5550
  439SOL     OW 2215   6.112   0.733   1.912 -0.1002  0.4119 -0.3601
  439SOL    HW1 2216   6.088   0.650   1.961  0.5021 -1.2029 -2.6337
  439SOL    HW2 2217   6.210   0.731   1.889 -0.3785  0.9798 -1.7309
  440SOL     OW 2218   3.626   6.914   6.468  0.4632  0.0547  0.0098
  440SOL    HW1 2219   3.549   6.868   6.512 -0.4634  0.0880 -1.5170
  440SOL    HW2 2220   3.637   6.879   6.375  3.1800 -0.9630  0.6042
  441SOL     OW 2221   5.063   4.058   4.195  0.3200  0.3875  0.4182
  441SOL    HW1 2222   5.155   4.039   4.161  0.0796  1.3897 -0.8891
  441SOL    HW2 2223   5.034   4.149   4.165 -0.1708  1.1261  2.8921
  442SOL     OW 2224   5.769   3.963   6.411 -0.3703  0.1664  0.0224
  442SOL    HW1 2225   5.782   3.945   6.313 -1.2024 -0.9676  0.1097
  442SOL    HW2 2226   5.673   3.979   6.430  0.0147  2.3425  0.3719
  443SOL     OW 2227   6.309   2.609   2.431  0.0707 -0.1452 -0.1395
  443SOL    HW1 2228   6.254   2.680   2.477  1.7220  1.4630 -0.5255
  443SOL    HW2 2229   6.251   2.529   2.413 -1.3730  0.3095  2.0594
  444SOL     OW 2230   3.465   6.659   7.004 -0.1327 -0.3223  0.1605
  444SOL    HW1 2231   3.441   6.576   7.056 -0.2206 -0.2171  0.2877
  444SOL    HW2 2232   3.383   6.715   6.991  0.1537  0.3754  1.1947
  445SOL     OW 2233   0.793   5.045   3.542  0.4970  0.1379 -0.2975
  445SOL    HW1 2234   0.866   5.046   3.610  0.5890  1.1135 -0.3900
  445SOL    HW2 2235   0.810   5.116   3.474 -0.6497  0.5451 -0.1878
  446SOL     OW 2236   5.181   0.034   2.212 -0.3261  0.6068  0.3326
  446SOL    HW1 2237   5.122   0.068   2.138 -2.4965 -1.1809  1.1321
  446SOL    HW2 2238   5.198  -0.064   2.199  0.9687  0.7066  1.1306
  447SOL     OW 2239   4.613   5.126   6.647  0.5285  0.0034  0.4904
  447SOL    HW1 2240   4.654   5.066   6.716 -0.8054 -0.6182  0.7821
  447SOL    HW2 2241   4.515   5.110   6.643  0.5417  0.1604 -1.4489
  448SOL     OW 2242   4.145   6.814   3.133  0.0389  0.4227 -0.9603
  448SOL    HW1 2243   4.216   6.751   3.100  0.8094 -0.0008  1.3360
  448SOL    HW2 2244   4.060   6.763   3.148  1.3619 -0.9426  3.5038
  449SOL     OW 2245   2.036   2.995   4.709 -0.2734  0.0342 -0.0885
  449SOL    HW1 2246   2.103   3.065   4.684 -0.6512  0.0168 -1.2378
  449SOL    HW2 2247   2.030   2.927   4.636 -2.8331  1.0080 -0.9012
  450SOL     OW 2248   5.659   2.439   1.099  0.1881 -0.1553  0.7566
  450SOL    HW1 2249   5.590   2.474   1.037  2.6823  0.0159 -2.1119
  450SOL    HW2 2250   5.633   2.346   1.128 -1.6758  0.2737  0.5768
  451SOL     OW 2251   1.067   2.348   2.204 -0.2637 -0.0721 -0.4548
  451SOL    HW1 2252   1.048   2.420   2.270 -0.1302 -0.1613 -0.3178
  451SOL    HW2 2253   1.159   2.362   2.165  0.3558 -0.9743  0.6348
  452SOL     OW 2254   3.663   1.642   1.454  0.5918 -0.6600 -0.0973
  452SOL    HW1 2255   3.615   1.710   1.509 -1.9017 -1.3421 -1.2567
  452SOL    HW2 2256   3.699   1.571   1.514  0.1313 -0.1170  0.8521
  453SOL     OW 2257   3.336   6.806   6.089  0.1691 -0.2635 -0.3315
  453SOL    HW1 2258   3.298   6.818   6.181  1.4343  0.1836  0.1498
  453SOL    HW2 2259   3.269   6.836   6.021 -1.1614 -1.5084  0.3765
  454SOL     OW 2260   6.670   3.065   4.909 -0.0245  1.0536 -0.1829
  454SOL    HW1 2261   6.708   2.991   4.854 -0.5665  0.5105  0.1636
  454SOL    HW2 2262   6.688   3.152   4.863 -0.4669  0.6165 -1.2286
  455SOL     OW 2263   6.658   3.994   5.749  0.5905  0.2288 -0.9238
  455SOL    HW1 2264   6.660   3.943   5.835 -0.3267  1.9116  0.1420
  455SOL    HW2 2265   6.704   3.941   5.678  0.1680 -1.8108  0.2531
  456SOL     OW 2266   1.961   1.127   2.666  0.4420 -0.2201  0.6651
  456SOL    HW1 2267   1.984   1.114   2.762  1.6517 -1.5475  0.2320
  456SOL    HW2 2268   1.948   1.037   2.623  1.1696  0.3060 -0.6945
  457SOL     OW 2269   2.681   5.427   5.482  0.2713  0.6675 -1.1125
  457SOL    HW1 2270   2.672   5.404   5.579  0.5040 -0.3400 -1.3185
  457SOL    HW2 2271   2.619   5.502   5.460 -1.1423 -0.3006 -0.5796
  458SOL     OW 2272   2.804   0.923   2.704  0.2349  0.1499  0.3557
  458SOL    HW1 2273   2.770   0.906   2.796  0.5938 -0.7442  0.3317
  458SOL    HW2 2274   2.733   0.902   2.637  0.0285  0.6436  0.4148
  459SOL     OW 2275   2.285   6.566   4.879 -1.0941  0.5344  0.2277
  459SOL    HW1 2276   2.243   6.575   4.969 -0.9748  0.6039  0.2773
  459SOL    HW2 2277   2.277   6.471   4.848  0.6581  0.0099  1.2130
  460SOL     OW 2278   2.144   2.908   6.007 -0.1246 -0.1270  0.4807
  460SOL    HW1 2279   2.093   2.824   5.991  0.5562 -0.5552  0.5138
  460SOL    HW2 2280   2.082   2.986   6.007 -0.9931 -0.7801  2.0472
  461SOL     OW 2281   2.713   5.961   5.500  0.4241 -0.8333  0.1675
  461SOL    HW1 2282   2.627   5.921   5.470 -0.4057 -0.1615  1.5560
  461SOL    HW2 2283   2.742   6.032   5.436 -0.1717 -0.9053 -0.1822
  462SOL     OW 2284   4.170   3.038   5.618  0.1614 -0.3346 -0.0300
  462SOL    HW1 2285   4.254   3.086   5.642 -0.4079  0.0053  1.3965
  462SOL    HW2 2286   4.098   3.104   5.596 -0.1557 -0.5576  0.2997
  463SOL     OW 2287   0.475   0.534   3.824  0.3813 -0.2046 -0.6436
  463SOL    HW1 2288   0.476   0.438   3.850 -0.8293 -0.2364 -0.6354
  463SOL    HW2 2289   0.540   0.550   3.750  3.8703 -0.1304  2.1583
  464SOL     OW 2290   2.612   3.860   6.530  0.2579 -0.4279 -0.0812
  464SOL    HW1 2291   2.580   3.943   6.576 -0.1520 -0.6788  0.1018
  464SOL    HW2 2292   2.710   3.865   6.514  0.1326  0.3589 -0.6285
  465SOL     OW 2293   2.132   1.982   0.887  0.0043 -0.4200  0.0697
  465SOL    HW1 2294   2.163   2.067   0.844 -1.4540  0.4575  0.6802
  465SOL    HW2 2295   2.164   1.979   0.982 -0.8272 -0.0352  0.3683
  466SOL     OW 2296   5.184   6.342   3.610 -0.3458  0.2672  0.1979
  466SOL    HW1 2297   5.176   6.409   3.684 -3.3259 -0.3373  0.5620
  466SOL    HW2 2298   5.258   6.278   3.631 -0.0065  1.1265  1.8160
  467SOL     OW 2299   7.020   6.858   1.520  0.2882 -0.0285 -0.3160
  467SOL    HW1 2300   6.953   6.877   1.448 -0.8286  0.5856  0.8449
  467SOL    HW2 2301   7.112   6.868   1.482 -0.1674 -2.5872 -2.4203
  468SOL     OW 2302   4.368   1.225   0.022 -0.2030 -0.4408 -0.1020
  468SOL    HW1 2303   4.409   1.220   0.113  1.4448  2.8586 -0.4993
  468SOL    HW2 2304   4.331   1.317   0.007  1.6433 -0.0857 -3.4899
  469SOL     OW 2305   2.182   5.213   6.496 -0.4812 -0.0974 -0.2806
  469SOL    HW1 2306   2.179   5.311   6.477  0.3506  0.0399  0.2445
  469SOL    HW2 2307   2.141   5.163   6.420  0.0650  0.5999 -1.0420
  470SOL     OW 2308   3.060   5.389   3.121 -0.1406 -0.2599  0.2437
  470SOL    HW1 2309   3.018   5.471   3.158  1.8909  0.1919  1.7180
  470SOL    HW2 2310   3.005   5.355   3.044 -1.8080  1.6046  0.5279
  471SOL     OW 2311   4.955   1.287   4.326  0.1080 -0.2192  0.5019
  471SOL    HW1 2312   5.049   1.260   4.307  0.6500  1.6628  0.3173
  471SOL    HW2 2313   4.898   1.268   4.246  1.0253  1.5842 -0.6361
  472SOL     OW 2314   5.735   3.997   5.178 -0.3833  0.8735  0.2780
  472SOL    HW1 2315   5.645   4.032   5.202  0.1855  0.9555  2.5599
  472SOL    HW2 2316   5.726   3.903   5.144 -1.3640  1.0839 -0.0681
  473SOL     OW 2317   6.663   2.087   3.811 -0.0026 -0.7289  0.9530
  473SOL    HW1 2318   6.584   2.030   3.830 -1.1645  0.6377  0.3757
  473SOL    HW2 2319   6.640   2.154   3.740  1.3566  0.3561  1.4958
  474SOL     OW 2320   4.571   0.183   3.159  0.1321 -0.2590 -0.0665
  474SOL    HW1 2321   4.502   0.153   3.093 -0.5881  0.2933  0.4220
  474SOL    HW2 2322   4.626   0.257   3.119  0.3336 -0.5751 -0.3872
  475SOL     OW 2323   3.781   6.581   6.597 -0.0703 -0.0409 -0.1607
  475SOL    HW1 2324   3.742   6.496   6.559 -0.2258 -0.5918  1.1623
  475SOL    HW2 2325   3.741   6.660   6.551  0.2313 -0.6764 -1.5652
  476SOL     OW 2326   1.847   4.532   3.003 -0.2537  0.1385  0.1215
  476SOL    HW1 2327   1.802   4.444   2.987 -0.1305  0.2896 -1.1670
  476SOL    HW2 2328   1.788   4.606   2.971  0.8282  0.3442 -1.5087
  477SOL     OW 2329   0.081   5.637   3.367 -0.3061 -0.3377  0.5227
  477SOL    HW1 2330   0.015   5.691   3.420  1.1112  0.2073  1.8119
  477SOL    HW2 2331   0.038   5.607   3.282 -0.9367  3.5728 -0.7331
  478SOL     OW 2332   2.270   5.809   0.527  0.1844 -0.2819 -0.3641
  478SOL    HW1 2333   2.323   5.875   0.473 -0.6190  0.9500  0.3127
  478SOL    HW2 2334   2.181   5.796   0.485 -0.7443  1.2641  0.9894
  479SOL     OW 2335   3.282   3.301   4.965 -0.0546  0.1325 -0.5036
  479SOL    HW1 2336   3.283   3.380   4.903 -1.0746 -0.0479 -0.7668
  479SOL    HW2 2337   3.368   3.297   5.015  0.1567  1.1950 -0.7607
  480SOL     OW 2338   3.697   6.559   3.705 -0.5044  0.5361  0.0972
  480SOL    HW1 2339   3.685   6.579   3.608  2.3684  1.5209 -0.1609
  480SOL    HW2 2340   3.715   6.461   3.717 -5.2517 -0.5583  0.2911
  481SOL     OW 2341   0.000   5.618   1.949 -0.0715  0.0821  0.0650
  481SOL    HW1 2342  -0.098   5.599   1.939 -0.1018  0.7489 -0.9922
  481SOL    HW2 2343   0.031   5.676   1.874  1.3840 -1.0524 -0.2541
  482SOL     OW 2344   3.571   4.674   6.647 -0.3126  0.1904  0.1723
  482SOL    HW1 2345   3.607   4.723   6.726  1.9459 -1.4012  0.2392
  482SOL    HW2 2346   3.597   4.577   6.653  1.0770  0.2332 -3.0523
  483SOL     OW 2347   6.614   4.457   1.098 -0.1765  0.1267 -0.5739
  483SOL    HW1 2348   6.576   4.421   1.013 -0.4313  0.3686 -0.5636
  483SOL    HW2 2349   6.706   4.494   1.080 -1.3286  2.9044 -1.4311
  484SOL     OW 2350   1.314   4.375   4.559 -0.1141  0.1993 -0.8621
  484SOL    HW1 2351   1.258   4.306   4.605  0.9042  0.0493  0.2046
  484SOL    HW2 2352   1.314   4.459   4.613 -0.0013  0.4827 -1.2992
  485SOL     OW 2353   4.180   2.742   1.715  0.0522  0.2456 -0.5237
  485SOL    HW1 2354   4.177   2.751   1.615  3.2625 -0.5412 -0.8146
  485SOL    HW2 2355   4.275   2.750   1.746 -0.6933 -0.8224  2.3507
  486SOL     OW 2356   5.308   0.893   5.228  0.2568 -0.5744  0.3549
  486SOL    HW1 2357   5.210   0.891   5.248  0.3636 -0.3554  0.9213
  486SOL    HW2 2358   5.323   0.881   5.130 -0.2907 -1.5974  0.3858
  487SOL     OW 2359   6.959   0.198   4.561  0.2152  0.1434  0.1075
  487SOL    HW1 2360   7.049   0.176   4.525  0.5841 -3.2841  2.6205
  487SOL    HW2 2361   6.968   0.234   4.654 -0.9625  2.2368 -0.5337
  488SOL     OW 2362   1.478   5.961   3.801  0.1626 -0.8214 -0.4322
  488SOL    HW1 2363   1.418   5.888   3.768 -2.7233 -0.0433  2.5538
  488SOL    HW2 2364   1.446   6.049   3.767  0.5450 -0.5071  0.0097
  489SOL     OW 2365   1.205   4.925   6.362  0.2229 -0.2218  0.5421
  489SOL    HW1 2366   1.158   4.839   6.343 -0.0313  0.4103 -2.1789
  489SOL    HW2 2367   1.302   4.906   6.380  0.1150 -1.1155  0.2594
  490SOL     OW 2368   6.811   4.745   0.477 -0.3371  0.1403 -0.6583
  490SOL    HW1 2369   6.838   4.659   0.434 -0.3179 -0.4860  0.5438
  490SOL    HW2 2370   6.716   4.765   0.453 -1.2672 -1.6568  1.1286
  491SOL     OW 2371   0.529   1.225   0.315  0.2193  0.3601  0.0734
  491SOL    HW1 2372   0.487   1.143   0.354  1.0074  0.6671  1.6467
  491SOL    HW2 2373   0.498   1.237   0.220 -0.7195 -1.1574  0.1607
  492SOL     OW 2374   0.800   0.644   0.335 -0.2993  0.0226  0.3343
  492SOL    HW1 2375   0.828   0.695   0.254 -0.1466  1.8991  1.4915
  492SOL    HW2 2376   0.701   0.636   0.337 -0.2321 -1.5804 -0.8756
  493SOL     OW 2377   1.992   7.000   5.175  0.4634 -0.0849 -0.1652
  493SOL    HW1 2378   2.051   6.978   5.097  2.1065  0.0679  0.9786
  493SOL    HW2 2379   2.049   7.021   5.254 -1.1350  1.7370  0.5677
  494SOL     OW 2380   1.365   5.894   5.403 -0.2640  0.2518 -0.3330
  494SOL    HW1 2381   1.332   5.858   5.316 -2.9388  0.5453  0.4635
  494SOL    HW2 2382   1.397   5.988   5.390  1.5356 -0.4422 -1.3596
  495SOL     OW 2383   2.737   6.204   6.281 -0.2211  0.2118  0.2059
  495SOL    HW1 2384   2.698   6.165   6.365  1.2135 -0.5135  0.5670
  495SOL    HW2 2385   2.780   6.291   6.302 -0.9951  0.6580 -0.0444
  496SOL     OW 2386   4.602   1.576   2.762 -0.2250 -0.2546 -0.2655
  496SOL    HW1 2387   4.579   1.614   2.673  0.1904  1.4843  0.3162
  496SOL    HW2 2388   4.702   1.579   2.774 -0.4054  2.6692  1.4696
  497SOL     OW 2389   3.733   2.913   6.159  0.1491  0.2455  0.0411
  497SOL    HW1 2390   3.649   2.860   6.173 -0.0057  0.8831  1.8178
  497SOL    HW2 2391   3.710   2.998   6.111 -0.7990  1.6809  2.7834
  498SOL     OW 2392   2.004   6.015   1.342  0.5150  0.5992 -0.2265
  498SOL    HW1 2393   1.910   6.045   1.329 -0.2350 -2.0014 -1.3595
  498SOL    HW2 2394   2.065   6.076   1.292 -0.1086  4.1060  2.8168
  499SOL     OW 2395   0.899   5.397   6.040  0.3121  0.0367  0.2826
  499SOL    HW1 2396   0.828   5.410   6.109  0.4786  0.5143  0.3676
  499SOL    HW2 2397   0.961   5.324   6.069  1.2036  1.1630  1.3243
  500SOL     OW 2398   5.786   2.214   6.929  0.0098  0.3308 -0.1879
  500SOL    HW1 2399   5.796   2.297   6.875 -1.1924  0.6239  0.0012
  500SOL    HW2 2400   5.777   2.135   6.868  0.0721  0.4759 -0.3835
  501SOL     OW 2401   1.625   6.657   2.225 -0.0106  0.7284 -0.1852
  501SOL    HW1 2402   1.609   6.623   2.132  2.3863 -2.0448  0.2617
  501SOL    HW2 2403   1.718   6.692   2.231  0.1293  0.1475  1.3187
  502SOL     OW 2404   6.849   6.035   6.288  0.0908  0.1698  0.2218
  502SOL    HW1 2405   6.835   6.118   6.343  0.5069 -0.2199  0.9403
  502SOL    HW2 2406   6.918   5.977   6.333 -0.4112 -0.7034 -0.1076
  503SOL     OW 2407   4.041   0.251   0.894  0.3170  0.0168  0.4993
  503SOL    HW1 2408   3.957   0.304   0.905 -0.0151 -0.4069  0.0567
  503SOL    HW2 2409   4.061   0.240   0.797 -0.9874 -2.7157  0.4327
  504SOL     OW 2410   0.309   0.480   3.593  0.5780 -0.3453 -0.1797
  504SOL    HW1 2411   0.393   0.464   3.542  2.0254  1.2309  1.5648
  504SOL    HW2 2412   0.329   0.479   3.691 -1.0687  1.7600  0.2476
  505SOL     OW 2413   4.632   0.608   2.948 -0.0841 -0.4867 -0.3556
  505SOL    HW1 2414   4.693   0.661   2.890  0.8249 -0.9276  0.1735
  505SOL    HW2 2415   4.541   0.649   2.947  0.3596  0.5240 -0.7109
  506SOL     OW 2416   4.173   4.769   3.155 -0.0253 -0.3453 -0.1449
  506SOL    HW1 2417   4.237   4.716   3.099  0.1866 -0.2975  0.0462
  506SOL    HW2 2418   4.184   4.742   3.251 -0.1271 -0.1679 -0.0841
  507SOL     OW 2419   1.973   1.851   6.213  0.0214 -0.2041 -0.4047
  507SOL    HW1 2420   1.901   1.912   6.182 -0.2483 -0.4733 -0.3123
  507SOL    HW2 2421   1.969   1.842   6.313  0.0499 -0.3820 -0.4185
  508SOL     OW 2422   0.696   3.583   4.455  0.3932  0.6479  0.5074
  508SOL    HW1 2423   0.660   3.636   4.532 -1.3741  0.6728 -0.2741
  508SOL    HW2 2424   0.732   3.495   4.488  0.5219  1.0547  1.4548
  509SOL     OW 2425   4.863   5.547   6.808  0.1126  0.2906  0.1567
  509SOL    HW1 2426   4.941   5.511   6.858  0.3221  0.0927 -0.3057
  509SOL    HW2 2427   4.888   5.559   6.711 -0.7991 -0.9137 -0.2424
  510SOL     OW 2428   0.047   4.199   5.760 -0.0658  0.2128 -0.3214
  510SOL    HW1 2429   0.056   4.100   5.762  1.9195  0.3602  1.5530
  510SOL    HW2 2430   0.124   4.240   5.712 -1.1903  0.8686 -1.6425
  511SOL     OW 2431   1.052   2.449   1.450  0.1836 -0.0268 -0.1142
  511SOL    HW1 2432   1.100   2.377   1.500 -1.3062 -0.4309  0.8241
  511SOL    HW2 2433   1.008   2.511   1.516 -0.3412  0.4766 -0.9198
  512SOL     OW 2434   1.002   3.073   6.739  0.2517  0.0661 -0.5363
  512SOL    HW1 2435   0.912   3.027   6.738  0.0200  0.5204 -1.6928
  512SOL    HW2 2436   1.046   3.061   6.650  0.7671  0.9674 -0.4071
  513SOL     OW 2437   4.762   1.172   1.030 -0.2296  0.5262  0.5831
  513SOL    HW1 2438   4.810   1.086   1.014  0.1388  0.8267  0.0579
  513SOL    HW2 2439   4.770   1.196   1.127  1.2260  0.8929  0.3975
  514SOL     OW 2440   1.060   5.929   3.926  0.1661 -0.2829  0.0620
  514SOL    HW1 2441   1.010   5.881   3.998  1.0721 -1.1827  0.1193
  514SOL    HW2 2442   1.129   5.989   3.967  0.1561 -0.2019 -0.0391
  515SOL     OW 2443   3.683   6.164   6.820  0.2658 -0.1237 -0.5534
  515SOL    HW1 2444   3.689   6.097   6.746 -1.5994  0.4824 -1.3203
  515SOL    HW2 2445   3.696   6.119   6.908  0.6999 -1.1857 -1.1426
  516SOL     OW 2446   0.658   5.628   6.798 -0.3751 -0.6588  0.3819
  516SOL    HW1 2447   0.721   5.574   6.743  0.7004 -0.3237  1.2377
  516SOL    HW2 2448   0.643   5.717   6.753 -2.0154 -1.5527 -0.9374
  517SOL     OW 2449   2.910   5.606   0.080 -0.6165  0.2947 -0.0479
  517SOL    HW1 2450   2.954   5.598   0.170  0.5059  0.5591 -0.5525
  517SOL    HW2 2451   2.980   5.621   0.010 -1.4621 -0.0831 -0.9980
  518SOL     OW 2452   2.238   2.553   3.219 -0.2463 -0.2834  0.4482
  518SOL    HW1 2453   2.295   2.502   3.284 -0.3444  0.0665  0.8155
  518SOL    HW2 2454   2.143   2.551   3.249 -0.4517 -0.9737 -0.2338
  519SOL     OW 2455   1.064   0.242   4.562  0.2871  0.5746  0.3533
  519SOL    HW1 2456   1.048   0.324   4.509 -0.2596  0.3831  0.2210
  519SOL    HW2 2457   1.159   0.241   4.595  0.3343  1.1770  0.2297
  520SOL     OW 2458   0.566   3.317   0.459  0.0373  0.3216  0.3641
  520SOL    HW1 2459   0.600   3.380   0.390 -0.1710 -0.0726 -0.1082
  520SOL    HW2 2460   0.635   3.304   0.530  0.4657  0.3162 -0.0489
  521SOL     OW 2461   5.433   5.728   5.451 -0.5896 -0.0098  0.0880
  521SOL    HW1 2462   5.418   5.665   5.375 -1.3874  0.5269 -0.2110
  521SOL    HW2 2463   5.386   5.693   5.532 -1.2816  0.3251 -0.1539
  522SOL     OW 2464   4.199   3.574   1.747 -0.0964 -0.1451 -1.1848
  522SOL    HW1 2465   4.195   3.671   1.772 -1.1324 -0.1681 -1.2333
  522SOL    HW2 2466   4.165   3.562   1.654 -0.2303 -0.5954 -1.0795
  523SOL     OW 2467   0.736   1.177   2.824  0.0149 -0.1150 -0.3470
  523SOL    HW1 2468   0.730   1.087   2.781  1.2187  0.0566 -0.8952
  523SOL    HW2 2469   0.782   1.240   2.763 -0.9637  0.9319 -0.0293
  524SOL     OW 2470   6.835   1.399   1.972 -0.0879 -0.2166 -0.4108
  524SOL    HW1 2471   6.841   1.312   1.923 -0.2083 -0.5277  0.1195
  524SOL    HW2 2472   6.854   1.384   2.069 -1.0938  0.1852 -0.1449
  525SOL     OW 2473   6.900   4.515   6.932  0.0037 -0.2319  0.6113
  525SOL    HW1 2474   6.830   4.486   6.866 -1.9328 -0.2266  2.5633
  525SOL    HW2 2475   6.857   4.562   7.008  2.2575  0.4301  1.5702
  526SOL     OW 2476   2.437   5.056   6.564 -0.5360 -0.6230  0.2751
  526SOL    HW1 2477   2.369   5.062   6.491 -2.0804  0.1497  1.7086
  526SOL    HW2 2478   2.460   5.148   6.596 -0.1553 -0.9544  0.9861
  527SOL     OW 2479   2.393   0.469   0.237 -0.1796  0.1515 -0.1015
  527SOL    HW1 2480   2.380   0.370   0.227  0.3382  0.1061 -0.3815
  527SOL    HW2 2481   2.470   0.498   0.180 -1.2438  0.9530 -1.2076
  528SOL     OW 2482   0.607   2.556   2.702  0.0091  0.1961 -0.0938
  528SOL    HW1 2483   0.616   2.482   2.769  1.0811  0.1588 -0.2613
  528SOL    HW2 2484   0.511   2.583   2.695 -0.3109 -0.7725  0.4006
  529SOL     OW 2485   1.639   6.494   4.921  0.0634 -0.5476  0.5295
  529SOL    HW1 2486   1.650   6.593   4.908 -1.7504 -0.1036  1.9812
  529SOL    HW2 2487   1.655   6.471   5.017 -1.7009 -1.2766  0.6940
  530SOL     OW 2488   4.865   5.786   5.890  0.1267  0.2705  0.5849
  530SOL    HW1 2489   4.908   5.850   5.826 -0.6194 -0.4829 -0.7204
  530SOL    HW2 2490   4.902   5.694   5.875  0.2329  0.1462  1.5390
  531SOL     OW 2491   1.983   0.945   0.585 -0.1783  0.0816 -0.0431
  531SOL    HW1 2492   1.939   0.945   0.675  0.7649 -1.0873  0.4563
  531SOL    HW2 2493   2.049   1.020   0.580  1.2936 -1.0755  1.0758
  532SOL     OW 2494   3.323   2.094   0.702 -0.0817  0.4673 -0.1424
  532SOL    HW1 2495   3.267   2.035   0.643  0.8036 -2.2805  1.5697
  532SOL    HW2 2496   3.294   2.083   0.797 -0.6807  3.8652  0.1895
  533SOL     OW 2497   5.822   0.256   3.832  0.1574 -0.4921  0.2776
  533SOL    HW1 2498   5.911   0.280   3.793  0.5182 -0.0851  1.3144
  533SOL    HW2 2499   5.759   0.231   3.759  0.5571  1.0605 -0.6479
  534SOL     OW 2500   1.617   6.759   1.864  0.0504  0.4715 -0.2324
  534SOL    HW1 2501   1.574   6.847   1.881 -2.3958 -0.3779 -1.6536
  534SOL    HW2 2502   1.652   6.755   1.771 -0.8284 -0.4262 -0.5382
  535SOL     OW 2503   5.920   3.971   2.531  0.1930 -0.0832 -0.1714
  535SOL    HW1 2504   5.832   4.005   2.565  0.8369  0.3115  1.1762
  535SOL    HW2 2505   5.907   3.882   2.487 -0.8335 -0.1421  0.2229
  536SOL     OW 2506   6.097   6.709   3.123  0.1641  0.7428  0.0496
  536SOL    HW1 2507   6.004   6.680   3.147  0.2523  0.5813  0.1997
  536SOL    HW2 2508   6.097   6.746   3.030  0.0379  0.3064 -0.1305
  537SOL     OW 2509   4.381   0.856   4.222 -0.1233  0.3679 -0.1692
  537SOL    HW1 2510   4.300   0.829   4.274 -0.8667 -0.2241 -1.5871
  537SOL    HW2 2511   4.462   0.810   4.260 -0.5853  0.2296  0.6718
  538SOL     OW 2512   2.502   5.630   6.600 -0.0082 -0.1152  0.6118
  538SOL    HW1 2513   2.473   5.607   6.507 -0.6937 -0.1483  0.8222
  538SOL    HW2 2514   2.443   5.582   6.666 -0.3361  0.8672  1.0567
  539SOL     OW 2515   5.769   0.580   0.330 -0.5613 -0.1785  0.6506
  539SOL    HW1 2516   5.689   0.607   0.277  0.0956 -0.0087 -0.2963
  539SOL    HW2 2517   5.779   0.639   0.410 -1.3548 -0.1850  0.7569
  540SOL     OW 2518   1.329   0.887   3.631  0.0042 -0.1188 -0.3812
  540SOL    HW1 2519   1.237   0.884   3.670  0.2398 -0.7634  0.1441
  540SOL    HW2 2520   1.368   0.979   3.645 -0.3900  0.0227 -0.2046
  541SOL     OW 2521   6.855   6.024   3.665 -0.0502 -0.1949 -0.1957
  541SOL    HW1 2522   6.805   5.980   3.739 -1.3897  0.3614 -0.7371
  541SOL    HW2 2523   6.799   6.098   3.626  1.4073  0.8131 -0.4773
  542SOL     OW 2524   3.897   0.214   0.059 -0.5902  0.5418  0.3957
  542SOL    HW1 2525   3.846   0.155  -0.003 -0.2338  0.6866 -0.0480
  542SOL    HW2 2526   3.985   0.171   0.080 -0.6172  0.5972  0.6194
  543SOL     OW 2527   4.042   1.559   2.580 -0.1140 -0.3987 -0.0768
  543SOL    HW1 2528   4.064   1.653   2.552  1.5537 -0.9583 -0.7558
  543SOL    HW2 2529   3.988   1.516   2.508  0.3856 -0.4144 -0.4520
  544SOL     OW 2530   0.998   3.348   6.457 -0.1907  0.3665  0.2495
  544SOL    HW1 2531   0.957   3.310   6.540 -1.2436 -0.2125 -0.5132
  544SOL    HW2 2532   1.083   3.298   6.436 -0.8433 -0.6773  0.0239
  545SOL     OW 2533   4.823   0.393   1.111 -0.3281  0.1721  0.0568
  545SOL    HW1 2534   4.870   0.320   1.061 -0.3518  0.9929 -1.2136
  545SOL    HW2 2535   4.835   0.379   1.209  1.3258 -0.4645 -0.1932
  546SOL     OW 2536   1.614   3.669   2.357  0.4423 -0.1463  0.0529
  546SOL    HW1 2537   1.540   3.703   2.298  1.2568  2.2375  0.2934
  546SOL    HW2 2538   1.699   3.665   2.306  0.6316 -0.5908  0.3941
  547SOL     OW 2539   4.509   1.405   6.505 -0.0614 -0.3182 -0.3405
  547SOL    HW1 2540   4.593   1.353   6.487 -0.0054 -1.3349  2.3547
  547SOL    HW2 2541   4.533   1.499   6.530  0.3895 -0.7245  0.8758
  548SOL     OW 2542   3.146   2.147   6.825  0.3464  0.1871  0.6366
  548SOL    HW1 2543   3.187   2.065   6.866  0.9676  0.9430  1.5841
  548SOL    HW2 2544   3.181   2.158   6.732  0.9908 -0.1217  0.8314
  549SOL     OW 2545   6.139   1.816   0.751  0.3244  0.0502  0.3978
  549SOL    HW1 2546   6.090   1.774   0.675  0.2375  1.5602 -0.4353
  549SOL    HW2 2547   6.231   1.776   0.758  0.4894  0.1942 -0.8012
  550SOL     OW 2548   0.376   4.067   2.008  0.4353  0.1421  0.0517
  550SOL    HW1 2549   0.333   4.091   2.095 -0.7079 -1.1409 -0.1390
  550SOL    HW2 2550   0.425   4.147   1.973 -0.1289  1.0536  1.2473
  551SOL     OW 2551   1.160   6.638   1.222 -0.1652  1.3834 -0.1089
  551SOL    HW1 2552   1.211   6.705   1.168  2.0232  0.9468  1.3034
  551SOL    HW2 2553   1.195   6.547   1.203 -1.9041  0.7934 -0.6591
  552SOL     OW 2554   6.610   6.305   5.176 -0.4050 -0.2670  0.5408
  552SOL    HW1 2555   6.522   6.309   5.129 -1.1095  1.5726  1.8826
  552SOL    HW2 2556   6.595   6.311   5.275  1.2718  1.5455  0.7439
  553SOL     OW 2557   3.626   7.015   0.020 -0.3866 -0.3746 -0.0902
  553SOL    HW1 2558   3.703   7.037  -0.040 -0.9946 -1.8687 -1.5063
  553SOL    HW2 2559   3.552   6.976  -0.034 -2.3496  1.3831  1.1760
  554SOL     OW 2560   6.091   6.326   6.187 -0.5934 -0.1455  0.3604
  554SOL    HW1 2561   6.004   6.283   6.165 -1.2059  1.1027  0.2467
  554SOL    HW2 2562   6.096   6.416   6.143  1.0581 -0.4868 -0.2373
  555SOL     OW 2563   2.680   6.154   6.556  0.4189 -0.6715 -0.3094
  555SOL    HW1 2564   2.644   6.061   6.566 -1.9115  0.2483  0.8339
  555SOL    HW2 2565   2.739   6.175   6.634 -2.2252  0.0232  1.6573
  556SOL     OW 2566   5.257   1.290   4.272 -0.2028  0.0544  0.6479
  556SOL    HW1 2567   5.325   1.264   4.340  0.1987 -0.8114 -0.0623
  556SOL    HW2 2568   5.301   1.298   4.182 -0.7337  1.1255  0.4614
  557SOL     OW 2569   5.851   4.564   5.965  0.9805 -0.2898 -0.3130
  557SOL    HW1 2570   5.797   4.524   5.891  0.6456 -0.0944 -0.1715
  557SOL    HW2 2571   5.829   4.518   6.051  1.1850 -0.3445 -0.2896
  558SOL     OW 2572   3.358   3.010   4.404  0.8276 -0.2866 -0.0660
  558SOL    HW1 2573   3.377   3.106   4.426  0.4596 -0.1722 -0.2516
  558SOL    HW2 2574   3.261   2.992   4.415  0.4555 -0.0103 -2.4136
  559SOL     OW 2575   0.212   1.642   5.790  0.1710 -0.0628  0.2620
  559SOL    HW1 2576   0.199   1.587   5.872  1.7643 -0.3127  0.3901
  559SOL    HW2 2577   0.258   1.586   5.720  4.4972  1.7403  1.3688
  560SOL     OW 2578   4.455   3.578   5.289  0.5181 -0.0706  0.6926
  560SOL    HW1 2579   4.384   3.539   5.230 -0.1855  0.4816  1.1528
  560SOL    HW2 2580   4.545   3.564   5.248  0.0830 -0.1773 -0.2388
  561SOL     OW 2581   1.084   3.086   0.032  1.0298 -0.2185  0.5193
  561SOL    HW1 2582   1.176   3.066   0.063  0.4965 -3.3220  0.4353
  561SOL    HW2 2583   1.079   3.076  -0.067  0.6399  0.1104  0.5018
  562SOL     OW 2584   4.208   0.262   6.593 -0.5705 -1.1214  0.3781
  562SOL    HW1 2585   4.231   0.206   6.673  0.7553 -0.3669  0.5374
  562SOL    HW2 2586   4.291   0.293   6.548 -1.2354  0.9410  0.4465
  563SOL     OW 2587   1.993   0.655   3.761  0.1035 -0.2274 -0.1310
  563SOL    HW1 2588   1.944   0.731   3.806 -0.5010 -0.1286 -0.9373
  563SOL    HW2 2589   2.085   0.648   3.800  0.6409  1.7383 -0.8979
  564SOL     OW 2590   6.962   2.194   3.797  0.2865 -0.4986  0.2771
  564SOL    HW1 2591   6.900   2.200   3.720  1.2126  0.7995 -0.4207
  564SOL    HW2 2592   6.910   2.196   3.883 -0.6239  1.2384 -0.2710
  565SOL     OW 2593   4.015   3.473   2.559 -0.1566 -0.0128  0.3068
  565SOL    HW1 2594   4.079   3.525   2.503 -0.9142  2.0664  1.2621
  565SOL    HW2 2595   4.056   3.457   2.650 -0.7839  0.8985  0.7589
  566SOL     OW 2596   4.581   5.803   2.755 -0.3523  0.1700 -0.0164
  566SOL    HW1 2597   4.541   5.713   2.774  1.1561 -0.5071  0.1580
  566SOL    HW2 2598   4.657   5.792   2.691  0.3455  1.2018  0.6022
  567SOL     OW 2599   2.147   1.106   5.887 -0.8371  0.2734  0.0707
  567SOL    HW1 2600   2.240   1.076   5.906 -0.4269  0.8914 -0.8776
  567SOL    HW2 2601   2.125   1.185   5.945 -0.8611 -0.0250  0.4690
  568SOL     OW 2602   6.952   0.626   1.346 -0.0535  0.1454  0.3318
  568SOL    HW1 2603   6.960   0.550   1.411  0.5283  0.2465  0.3863
  568SOL    HW2 2604   7.041   0.670   1.336 -0.3775  0.7834  0.2506
  569SOL     OW 2605   0.799   1.246   1.781  0.8893  0.2821 -0.1323
  569SOL    HW1 2606   0.852   1.231   1.865 -0.4594  0.2279  0.7265
  569SOL    HW2 2607   0.784   1.344   1.768  1.1969  0.2974 -0.3776
  570SOL     OW 2608   4.379   7.010   6.065  0.2059  0.1089  0.0019
  570SOL    HW1 2609   4.327   7.040   5.985  0.6036 -0.8564 -0.6418
  570SOL    HW2 2610   4.426   7.088   6.106  0.2619  0.5677 -0.9122
  571SOL     OW 2611   2.897   4.783   2.581 -0.6260 -0.3096  0.2888
  571SOL    HW1 2612   2.970   4.731   2.625 -0.4946 -1.4062 -1.1814
  571SOL    HW2 2613   2.923   4.805   2.487 -1.3475  1.0672  0.3799
  572SOL     OW 2614   2.601   5.491   5.151  0.5965 -0.0384 -0.1210
  572SOL    HW1 2615   2.611   5.585   5.185 -1.0190  0.4081 -0.7645
  572SOL    HW2 2616   2.623   5.488   5.054 -1.5108  0.2109 -0.6654
  573SOL     OW 2617   5.079   1.699   4.051 -0.2550  0.4395 -0.4161
  573SOL    HW1 2618   5.013   1.644   4.103  3.1895 -1.9189  1.8758
  573SOL    HW2 2619   5.051   1.700   3.955 -2.3548 -2.5065 -0.0051
  574SOL     OW 2620   2.509   0.578   5.659  0.2156  0.0985 -0.1433
  574SOL    HW1 2621   2.440   0.506   5.660  0.6689 -0.3992 -1.8213
  574SOL    HW2 2622   2.523   0.612   5.752  0.2476 -2.1909  0.7359
  575SOL     OW 2623   3.201   3.606   6.218 -0.0048  0.4682  0.3615
  575SOL    HW1 2624   3.113   3.575   6.182  1.0678 -0.8845 -1.2465
  575SOL    HW2 2625   3.213   3.703   6.197 -0.8875  0.5374  0.1343
  576SOL     OW 2626   1.857   2.314   3.897  0.6564  0.6004 -0.2222
  576SOL    HW1 2627   1.769   2.331   3.854 -0.7157 -4.3609  0.0481
  576SOL    HW2 2628   1.921   2.277   3.830  1.7419  1.7051  0.1493
  577SOL     OW 2629   3.840   0.917   3.459 -0.0665 -0.3619 -0.1743
  577SOL    HW1 2630   3.900   0.875   3.392 -0.4823 -0.4744 -0.4839
  577SOL    HW2 2631   3.750   0.932   3.418 -0.9167 -2.1884  0.9277
  578SOL     OW 2632   2.617   4.671   0.478  0.2123  0.3450 -0.0665
  578SOL    HW1 2633   2.714   4.688   0.460 -0.1900  1.2687 -1.6307
  578SOL    HW2 2634   2.579   4.748   0.529  0.5149 -0.5363  1.5560
  579SOL     OW 2635   3.040   5.869   2.839 -0.0583  0.4693  0.1990
  579SOL    HW1 2636   3.137   5.845   2.836  0.3117  1.5060  2.0471
  579SOL    HW2 2637   3.024   5.950   2.784  0.0327  0.0695 -0.4283
  580SOL     OW 2638   2.381   4.891   3.864  0.0950  0.2866  0.4489
  580SOL    HW1 2639   2.335   4.806   3.838 -0.9482  0.6703  1.0215
  580SOL    HW2 2640   2.480   4.874   3.868  0.0495 -0.4863 -1.0045
  581SOL     OW 2641   0.914   1.737   3.596 -0.0567  0.1225  0.0976
  581SOL    HW1 2642   0.972   1.778   3.666 -0.3343  0.1837  0.2936
  581SOL    HW2 2643   0.950   1.759   3.506 -0.3749  1.0636  0.1898
  582SOL     OW 2644   6.218   6.189   5.615  0.1590  0.0209  0.6191
  582SOL    HW1 2645   6.210   6.125   5.691  0.9648 -0.6050  0.1880
  582SOL    HW2 2646   6.279   6.151   5.546  0.6121  1.2300  0.3333
  583SOL     OW 2647   3.677   5.671   0.706 -0.1277  0.3201 -0.6251
  583SOL    HW1 2648   3.587   5.630   0.723 -0.6180  1.6368  0.1814
  583SOL    HW2 2649   3.712   5.640   0.618 -2.5921  1.7396 -2.2555
  584SOL     OW 2650   3.622   1.403   6.160 -0.4950  0.0059  0.2701
  584SOL    HW1 2651   3.660   1.311   6.152 -0.4526  0.1611 -2.2249
  584SOL    HW2 2652   3.642   1.441   6.250  1.9117 -1.3703  0.3777
  585SOL     OW 2653   1.203   6.144   1.041  0.0805  0.0334  0.4825
  585SOL    HW1 2654   1.136   6.107   0.976  1.6851 -1.4247 -0.4277
  585SOL    HW2 2655   1.192   6.099   1.130 -0.3811  0.0878  0.4563
  586SOL     OW 2656   3.081   6.851   1.085  0.0777  0.0690 -0.0859
  586SOL    HW1 2657   3.030   6.764   1.088 -0.8936  0.6449  1.1639
  586SOL    HW2 2658   3.120   6.870   1.175  0.4697  0.8285 -0.4082
  587SOL     OW 2659   5.189   2.879   1.450 -0.1548 -0.1916 -0.1116
  587SOL    HW1 2660   5.252   2.890   1.527  1.1485 -1.2004 -0.9903
  587SOL    HW2 2661   5.107   2.831   1.480  0.5612 -1.0263  0.5428
  588SOL     OW 2662   0.466   6.727   1.815  0.0280  0.9372 -0.1301
  588SOL    HW1 2663   0.518   6.690   1.737 -1.4481  0.3537 -0.8724
  588SOL    HW2 2664   0.530   6.764   1.883  1.3391  1.9206 -1.8211
  589SOL     OW 2665   2.900   5.715   1.245 -0.0244 -0.2344  0.5239
  589SOL    HW1 2666   2.994   5.707   1.278  1.0907 -0.2860 -2.4096
  589SOL    HW2 2667   2.852   5.628   1.258  1.4108 -1.2863 -0.8851
  590SOL     OW 2668   5.409   1.543   1.144  0.2749  0.3410  0.4046
  590SOL    HW1 2669   5.388   1.590   1.059 -1.2290 -0.2697  0.4031
  590SOL    HW2 2670   5.330   1.547   1.205  0.1136 -2.0196  0.4478
  591SOL     OW 2671   5.098   5.686   5.046  0.4143 -0.0246  0.3154
  591SOL    HW1 2672   5.187   5.657   5.011 -0.4464 -1.3279 -0.8922
  591SOL    HW2 2673   5.026   5.653   4.985 -0.8664  1.5990  0.9058
  592SOL     OW 2674   5.029   0.775   2.932 -0.4013 -0.3411  0.2454
  592SOL    HW1 2675   5.120   0.802   2.903 -0.1945 -0.6817  0.5681
  592SOL    HW2 2676   5.023   0.781   3.032 -1.1220  0.8852  0.1500
  593SOL     OW 2677   2.091   2.474   5.002 -0.1275 -0.3957 -0.8077
  593SOL    HW1 2678   2.150   2.508   4.928 -0.5816  0.1016 -0.9488
  593SOL    HW2 2679   2.072   2.377   4.987 -0.7364 -0.1492 -1.7023
  594SOL     OW 2680   5.837   2.541   2.807  0.5691  0.3191  0.2452
  594SOL    HW1 2681   5.755   2.589   2.777  0.4748 -0.7140 -1.2214
  594SOL    HW2 2682   5.842   2.544   2.907 -3.5012 -2.9926  0.8432
  595SOL     OW 2683   6.410   5.148   3.236 -0.8567  0.2978 -0.1317
  595SOL    HW1 2684   6.510   5.139   3.242 -0.7706  0.4029 -1.1841
  595SOL    HW2 2685   6.368   5.107   3.317 -0.0209 -0.8069 -0.2289
  596SOL     OW 2686   5.418   3.851   3.671 -0.0224  0.2564  0.2266
  596SOL    HW1 2687   5.415   3.816   3.577  0.2384 -1.6114  0.8631
  596SOL    HW2 2688   5.423   3.951   3.669 -0.5923  0.3050 -1.7252
  597SOL     OW 2689   2.575   3.893   6.109 -0.4372  0.3122  0.1969
  597SOL    HW1 2690   2.661   3.843   6.096  0.3910  1.8125 -0.3791
  597SOL    HW2 2691   2.531   3.908   6.020  0.2812  2.1505  0.0933
  598SOL     OW 2692   3.314   3.154   4.703 -0.4536  0.9345  0.0722
  598SOL    HW1 2693   3.217   3.131   4.696 -0.3169  0.4477 -0.2844
  598SOL    HW2 2694   3.328   3.216   4.781 -1.1239  1.4562 -0.2073
  599SOL     OW 2695   0.733   6.050   2.415  0.2469 -0.1774 -0.0993
  599SOL    HW1 2696   0.660   6.049   2.484  1.6676  1.2639  1.5254
  599SOL    HW2 2697   0.695   6.027   2.326 -1.8880 -0.9706  0.9417
  600SOL     OW 2698   0.077   2.864   5.728  0.1207 -0.0133  0.4930
  600SOL    HW1 2699   0.081   2.898   5.822  0.3729 -1.5338  1.0600
  600SOL    HW2 2700  -0.018   2.850   5.701 -0.1112  2.7102 -0.3845
  601SOL     OW 2701   0.531   0.419   4.602 -0.7509  0.4632 -0.3320
  601SOL    HW1 2702   0.556   0.370   4.686 -0.3725  0.6762 -0.3179
  601SOL    HW2 2703   0.532   0.517   4.619 -0.0779  0.5358 -0.7407
  602SOL     OW 2704   3.789   0.560   6.312  0.6402 -0.1775  0.0695
  602SOL    HW1 2705   3.741   0.644   6.287 -0.8525 -1.3384 -1.1599
  602SOL    HW2 2706   3.881   0.561   6.272  0.7461  0.9816  0.3177
  603SOL     OW 2707   2.463   2.110   5.456 -0.1300  0.2809 -0.2688
  603SOL    HW1 2708   2.558   2.079   5.465 -0.4980 -0.6966  0.4583
  603SOL    HW2 2709   2.440   2.120   5.359  1.2508  2.3260 -0.4565
  604SOL     OW 2710   7.021   2.465   2.392  0.1666 -0.0946  0.2416
  604SOL    HW1 2711   6.959   2.394   2.358 -2.3246  1.3077  1.6429
  604SOL    HW2 2712   7.115   2.429   2.393 -0.6474 -2.4863 -1.4024
  605SOL     OW 2713   0.759   5.276   3.378  0.4330 -0.3214  0.4730
  605SOL    HW1 2714   0.665   5.300   3.401  0.2189 -1.9508  1.4977
  605SOL    HW2 2715   0.819   5.355   3.394 -0.3739 -0.0610  2.5614
  606SOL     OW 2716   4.360   5.073   5.624  0.1258 -0.5184 -0.3348
  606SOL    HW1 2717   4.349   5.004   5.552 -1.5106  0.6332 -1.2565
  606SOL    HW2 2718   4.348   5.029   5.713 -0.6668 -1.5014 -0.8935
  607SOL     OW 2719   1.996   5.888   5.525 -0.2046  0.5643  0.6154
  607SOL    HW1 2720   2.078   5.854   5.479  1.4100  3.1878  1.3415
  607SOL    HW2 2721   1.934   5.929   5.457  0.0811  0.4423  0.2801
  608SOL     OW 2722   3.211   0.064   0.570 -0.0443  0.1892 -0.0741
  608SOL    HW1 2723   3.250   0.061   0.478 -0.4388 -0.8289 -0.2163
  608SOL    HW2 2724   3.267   0.011   0.632 -0.3989 -0.0625  0.0327
  609SOL     OW 2725   3.712   3.635   0.830 -0.0305  0.3999  0.6896
  609SOL    HW1 2726   3.618   3.658   0.805 -0.3501 -0.4161  1.1126
  609SOL    HW2 2727   3.761   3.719   0.855 -0.4137  0.9268 -0.2730
  610SOL     OW 2728   3.326   3.053   6.586  0.7222 -0.0823 -0.0659
  610SOL    HW1 2729   3.295   3.088   6.497  0.4045 -1.7302 -0.6645
  610SOL    HW2 2730   3.395   2.982   6.571 -0.9503 -2.0218  0.8133
  611SOL     OW 2731   4.556   0.378   1.375 -0.0788 -0.3884  0.1043
  611SOL    HW1 2732   4.641   0.325   1.385 -0.1542 -0.5827 -0.2786
  611SOL    HW2 2733   4.477   0.317   1.383 -0.1660 -0.3445 -0.3668
  612SOL     OW 2734   1.986   3.990   5.797 -0.3255 -0.2090  0.0342
  612SOL    HW1 2735   1.896   4.033   5.786 -0.3388  0.0059  0.8995
  612SOL    HW2 2736   2.016   3.954   5.709 -0.9314  0.3541 -0.4191
  613SOL     OW 2737   5.015   0.580   5.886  0.0163  0.5488 -0.0261
  613SOL    HW1 2738   4.979   0.519   5.957 -0.0517 -1.0874 -1.4054
  613SOL    HW2 2739   5.086   0.533   5.834 -0.0349  1.6470 -1.1567
  614SOL     OW 2740   5.637   4.686   5.286  0.0713 -0.2140  0.7782
  614SOL    HW1 2741   5.606   4.593   5.269 -3.4448  1.2455 -2.1347
  614SOL    HW2 2742   5.719   4.704   5.230 -0.7038 -0.8856 -0.6446
  615SOL     OW 2743   2.091   4.533   2.859 -0.0380  0.4058  0.2031
  615SOL    HW1 2744   2.179   4.542   2.906 -0.2915  2.9986  0.3413
  615SOL    HW2 2745   2.021   4.504   2.924  0.1524  1.2372  0.7831
  616SOL     OW 2746   0.579   2.966   2.648  0.2333  0.1603  0.3525
  616SOL    HW1 2747   0.560   3.035   2.578  0.6167 -0.5033 -0.4271
  616SOL    HW2 2748   0.504   2.900   2.652 -1.6991  2.2940  3.2917
  617SOL     OW 2749   0.672   5.653   5.615  0.0639 -0.9002  0.2174
  617SOL    HW1 2750   0.749   5.708   5.647  1.0550 -2.0062 -0.1843
  617SOL    HW2 2751   0.608   5.710   5.564  1.5476 -0.2764 -1.0201
  618SOL     OW 2752   0.966   2.718   1.271  0.0481  0.0589 -0.0222
  618SOL    HW1 2753   1.012   2.635   1.241 -2.0265 -0.9525 -0.5683
  618SOL    HW2 2754   0.901   2.748   1.201  1.0720  2.4602 -0.0630
  619SOL     OW 2755   2.669   0.334   0.202 -0.4200 -0.3104 -0.1445
  619SOL    HW1 2756   2.693   0.371   0.292  2.3398  0.0573 -0.9136
  619SOL    HW2 2757   2.701   0.240   0.195  0.5514  0.0515 -1.0861
  620SOL     OW 2758   3.911   4.169   6.450 -0.0601 -0.3416 -0.3062
  620SOL    HW1 2759   3.939   4.165   6.546 -0.1596 -0.5402 -0.2848
  620SOL    HW2 2760   3.869   4.082   6.424  0.5353 -0.5144 -0.7043
  621SOL     OW 2761   5.934   5.653   1.614 -0.4205  0.0601  0.2156
  621SOL    HW1 2762   5.972   5.586   1.550  1.0456  1.0176  0.0615
  621SOL    HW2 2763   5.851   5.693   1.574  0.5873  0.7980 -1.2067
  622SOL     OW 2764   2.169   0.109   6.463  0.1347 -0.0307 -0.6084
  622SOL    HW1 2765   2.163   0.195   6.413 -3.5610 -0.7195 -1.6696
  622SOL    HW2 2766   2.085   0.096   6.517  1.2221 -2.3384  0.6686
  623SOL     OW 2767   0.667   2.638   5.479  0.3524  0.6072 -0.1459
  623SOL    HW1 2768   0.602   2.669   5.548  1.4394  1.8701  0.3582
  623SOL    HW2 2769   0.755   2.618   5.523  0.1104 -1.8846 -0.6782
  624SOL     OW 2770   0.175   3.523   1.859  0.0580  0.2550 -1.4209
  624SOL    HW1 2771   0.153   3.442   1.806  2.1140 -0.8295 -0.7178
  624SOL    HW2 2772   0.237   3.582   1.807 -1.2216  1.2846 -1.8276
  625SOL     OW 2773   4.316   1.711   2.738 -0.2590  0.1970 -0.1005
  625SOL    HW1 2774   4.288   1.622   2.775  1.8181 -0.1797  0.6771
  625SOL    HW2 2775   4.299   1.712   2.639  1.5231 -1.8768 -0.5087
  626SOL     OW 2776   1.660   6.496   3.214 -0.2621 -0.2357 -0.2968
  626SOL    HW1 2777   1.569   6.457   3.222 -0.0167 -0.6206  0.6899
  626SOL    HW2 2778   1.728   6.433   3.253  0.4824 -0.1466 -1.3922
  627SOL     OW 2779   3.874   6.384   1.365  0.2688  0.0539  0.0431
  627SOL    HW1 2780   3.792   6.422   1.407  0.9983  2.2250 -0.3681
  627SOL    HW2 2781   3.849   6.331   1.284 -0.8701 -1.3920  1.2783
  628SOL     OW 2782   6.951   4.587   3.596  0.1888 -0.1817 -0.1807
  628SOL    HW1 2783   7.047   4.561   3.586  0.1650 -0.5967  0.6140
  628SOL    HW2 2784   6.893   4.507   3.581 -0.0301  0.0432 -0.5495
  629SOL     OW 2785   6.251   6.957   3.106  0.2373  0.7721 -0.0821
  629SOL    HW1 2786   6.231   7.046   3.145  1.1848  1.1098 -0.3560
  629SOL    HW2 2787   6.196   6.887   3.153 -1.0794  1.5691 -0.3698
  630SOL     OW 2788   3.953   1.981   2.224  0.7519 -0.0399 -0.0987
  630SOL    HW1 2789   3.978   2.077   2.233 -1.5381  0.8099 -1.6930
  630SOL    HW2 2790   3.876   1.961   2.284  1.3699 -0.9607  0.4035
  631SOL     OW 2791   6.806   1.804   5.848  0.3749 -0.0371  0.0089
  631SOL    HW1 2792   6.777   1.763   5.761  1.1226 -0.7478  0.0833
  631SOL    HW2 2793   6.781   1.901   5.850  1.6232  0.3477 -1.5896
  632SOL     OW 2794   2.407   6.366   2.069  0.1472 -0.0776 -0.3255
  632SOL    HW1 2795   2.476   6.409   2.127  0.0901 -0.9031  0.3730
  632SOL    HW2 2796   2.351   6.305   2.124  0.2344 -1.0607 -1.2916
  633SOL     OW 2797   0.824   5.443   5.764 -0.0153  0.1276 -0.2966
  633SOL    HW1 2798   0.761   5.521   5.760  1.2155  1.3172  1.5617
  633SOL    HW2 2799   0.843   5.421   5.860  0.6831 -1.6336 -0.8047
  634SOL     OW 2800   5.212   4.442   2.222 -0.0848 -0.3196 -0.5611
  634SOL    HW1 2801   5.236   4.396   2.308 -2.1319  0.4285  0.4833
  634SOL    HW2 2802   5.253   4.533   2.221  1.6515 -1.0622 -1.3673
  635SOL     OW 2803   3.077   0.741   2.057 -0.1739  0.1499 -0.0724
  635SOL    HW1 2804   3.149   0.784   2.113 -0.3506 -0.0539  0.3164
  635SOL    HW2 2805   3.101   0.645   2.041 -0.3828  0.0692  0.0986
  636SOL     OW 2806   4.322   6.992   6.427 -0.4026  0.3305  0.3639
  636SOL    HW1 2807   4.223   7.001   6.420 -0.3354  0.8656  0.0674
  636SOL    HW2 2808   4.366   7.051   6.359  0.1028 -0.5942 -0.1344
  637SOL     OW 2809   3.755   5.429   1.540  0.0807  0.0350 -0.9185
  637SOL    HW1 2810   3.674   5.454   1.487 -0.0354  0.4199 -0.5636
  637SOL    HW2 2811   3.757   5.482   1.625  0.3956 -0.3930 -0.6544
  638SOL     OW 2812   4.014   1.287   1.469 -0.2853 -0.1095 -0.0418
  638SOL    HW1 2813   4.089   1.350   1.451 -0.7299  0.6344  0.6544
  638SOL    HW2 2814   4.036   1.197   1.431  1.0840  0.0056  0.4284
  639SOL     OW 2815   5.421   4.530   3.370  0.0455 -0.1898  0.0978
  639SOL    HW1 2816   5.429   4.615   3.318 -1.8048  0.5170  0.8791
  639SOL    HW2 2817   5.493   4.527   3.440 -0.6250  1.3874  0.9002
  640SOL     OW 2818   2.617   4.420   5.276 -0.1402  0.0953  0.2141
  640SOL    HW1 2819   2.541   4.459   5.225  0.9632  0.1173 -1.4661
  640SOL    HW2 2820   2.700   4.472   5.258  0.4770 -0.4824  1.2974
  641SOL     OW 2821   2.324   5.965   6.049 -0.7633  0.2859 -0.5741
  641SOL    HW1 2822   2.417   5.995   6.027 -0.6586  0.0910 -0.4001
  641SOL    HW2 2823   2.258   6.021   5.999 -0.5512  0.4167 -0.7079
  642SOL     OW 2824   0.297   5.706   4.848 -0.5524  0.0484  0.5616
  642SOL    HW1 2825   0.254   5.715   4.938 -1.2537 -0.4853  0.2936
  642SOL    HW2 2826   0.251   5.765   4.783  0.0688  0.5666  0.5868
  643SOL     OW 2827   6.366   4.946   6.816  0.1635 -0.2166  0.2093
  643SOL    HW1 2828   6.350   4.896   6.731  1.6896 -0.6005  0.1195
  643SOL    HW2 2829   6.362   5.044   6.797  2.9665 -0.2322 -0.9044
  644SOL     OW 2830   1.427   1.674   2.950  0.1076  0.2662  0.1219
  644SOL    HW1 2831   1.352   1.614   2.979 -0.9876  1.8714  0.7671
  644SOL    HW2 2832   1.442   1.664   2.852  0.1647 -1.2571  0.2643
  645SOL     OW 2833   4.210   1.389   4.149 -0.1202  0.7546  0.5443
  645SOL    HW1 2834   4.301   1.356   4.123 -0.3785 -1.1580  1.8500
  645SOL    HW2 2835   4.194   1.479   4.110  0.8885 -0.3963 -2.8272
  646SOL     OW 2836   0.919   6.995   2.582 -0.1360  0.2880 -0.5553
  646SOL    HW1 2837   0.831   7.040   2.576 -0.5513 -0.3644  0.3540
  646SOL    HW2 2838   0.939   6.948   2.496 -1.0474 -0.2109 -0.5035
  647SOL     OW 2839   6.669   2.096   0.218 -0.1285  0.6374  0.1110
  647SOL    HW1 2840   6.758   2.117   0.259  0.1917 -0.3196 -0.0508
  647SOL    HW2 2841   6.680   2.088   0.118 -0.7187  2.0516 -0.0890
  648SOL     OW 2842   6.072   2.183   4.005  0.5088  0.5791  0.1332
  648SOL    HW1 2843   6.167   2.167   3.979 -0.2880 -0.8344 -2.2518
  648SOL    HW2 2844   6.042   2.272   3.970  0.1347 -0.3047 -1.9983
  649SOL     OW 2845   4.695   4.449   1.008  0.3025 -0.0744 -0.1297
  649SOL    HW1 2846   4.795   4.442   1.006  0.1839 -1.8791 -1.1353
  649SOL    HW2 2847   4.664   4.447   1.103  1.2080  0.7319  0.2061
  650SOL     OW 2848   5.180   3.005   1.213  0.0382  0.3761  0.6411
  650SOL    HW1 2849   5.177   2.946   1.295  0.3673  0.5665  0.7916
  650SOL    HW2 2850   5.264   3.060   1.215  0.7094 -0.5717 -0.4880
  651SOL     OW 2851   0.754   0.463   1.743  0.0728 -0.2511  0.1763
  651SOL    HW1 2852   0.720   0.512   1.823 -0.6719  0.3251 -0.4703
  651SOL    HW2 2853   0.714   0.503   1.660 -0.7639 -2.0990 -0.3698
  652SOL     OW 2854   3.703   1.572   1.976 -0.0943  0.3996 -0.1551
  652SOL    HW1 2855   3.721   1.657   1.926  1.1680 -0.2557 -0.8755
  652SOL    HW2 2856   3.733   1.582   2.071 -1.5152  1.2953  0.2308
  653SOL     OW 2857   3.778   5.313   3.597  0.1595  0.1762  1.0668
  653SOL    HW1 2858   3.806   5.247   3.666  4.3872  1.0102  0.4507
  653SOL    HW2 2859   3.694   5.359   3.626 -0.7965 -2.6741  3.3012
  654SOL     OW 2860   0.331   4.547   0.381  0.3521  0.2102 -0.3750
  654SOL    HW1 2861   0.257   4.484   0.407  0.6525  0.1585  0.3618
  654SOL    HW2 2862   0.361   4.598   0.461 -0.8027  2.3117 -1.1973
  655SOL     OW 2863   0.214   5.168   1.177  0.5400  0.6542  0.3825
  655SOL    HW1 2864   0.137   5.228   1.198 -0.1748  0.2821 -1.0635
  655SOL    HW2 2865   0.290   5.190   1.238 -0.4497  1.5207  1.3506
  656SOL     OW 2866   3.192   5.745   0.875 -0.1280 -0.0100 -0.6924
  656SOL    HW1 2867   3.207   5.840   0.901  2.3203 -0.4298 -0.3010
  656SOL    HW2 2868   3.221   5.732   0.780 -2.4665  0.0380 -1.4617
  657SOL     OW 2869   2.488   1.229   0.440  0.2412  0.6114  0.4214
  657SOL    HW1 2870   2.451   1.141   0.470 -0.2326  0.5136 -0.4345
  657SOL    HW2 2871   2.587   1.230   0.453  0.4800 -0.6607 -1.0612
  658SOL     OW 2872   3.735   3.853   5.085  0.3670 -0.0023 -0.7167
  658SOL    HW1 2873   3.774   3.825   5.173 -1.6503 -1.7389 -0.3120
  658SOL    HW2 2874   3.776   3.940   5.058  2.3433 -0.2852  1.0492
  659SOL     OW 2875   3.901   6.927   0.223  0.5731  0.5810 -0.3840
  659SOL    HW1 2876   3.899   6.829   0.206 -0.9369  0.4882  0.2050
  659SOL    HW2 2877   3.884   6.976   0.137 -0.4951  0.2710 -0.3620
  660SOL     OW 2878   3.074   6.966   3.447  0.6995  0.1241 -0.3283
  660SOL    HW1 2879   3.130   6.913   3.512 -0.3438 -1.3071 -0.5390
  660SOL    HW2 2880   3.116   6.962   3.357  0.3869 -0.7795 -0.4453
  661SOL     OW 2881   3.927   0.445   1.369  0.2362 -0.6202 -0.4306
  661SOL    HW1 2882   4.020   0.457   1.335 -0.2604 -0.8166 -1.9288
  661SOL    HW2 2883   3.884   0.369   1.320 -1.0182  0.0776 -0.4399
  662SOL     OW 2884   2.485   2.303   6.563  0.0236  0.0299  0.1271
  662SOL    HW1 2885   2.520   2.396   6.576  0.6355 -0.2779  0.7700
  662SOL    HW2 2886   2.456   2.265   6.651  0.6294 -0.7067  0.0262
  663SOL     OW 2887   1.093   6.416   5.499  0.4854  0.4132 -0.5577
  663SOL    HW1 2888   1.073   6.446   5.592 -0.2294  1.0570 -0.9111
  663SOL    HW2 2889   1.008   6.394   5.452  0.8891 -0.7217 -0.8079
  664SOL     OW 2890   4.618   0.299   4.887 -0.1304 -0.4360  0.0698
  664SOL    HW1 2891   4.519   0.289   4.885 -0.3274  1.1825  0.5791
  664SOL    HW2 2892   4.654   0.254   4.969 -0.1883 -2.6230 -1.0181
  665SOL     OW 2893   2.390   4.955   1.705 -0.0351  0.4702 -0.1660
  665SOL    HW1 2894   2.332   4.882   1.669  1.8717  0.2686 -3.1722
  665SOL    HW2 2895   2.343   5.043   1.694 -0.9822  0.0431  0.3444
  666SOL     OW 2896   4.506   1.635   0.400  0.2004 -0.1413 -0.1930
  666SOL    HW1 2897   4.508   1.690   0.317 -0.4644 -0.2378 -0.2818
  666SOL    HW2 2898   4.563   1.678   0.470  1.4248 -0.4995 -0.9523
  667SOL     OW 2899   1.723   6.019   1.007 -0.1036  0.0388 -0.5164
  667SOL    HW1 2900   1.624   6.027   0.997  0.0588  1.1957 -1.4559
  667SOL    HW2 2901   1.768   6.066   0.931  1.1617 -1.7428 -0.9353
  668SOL     OW 2902   0.264   4.829   5.794 -0.0255 -0.2415 -0.5378
  668SOL    HW1 2903   0.284   4.732   5.799 -1.5093 -0.5496 -0.2532
  668SOL    HW2 2904   0.261   4.857   5.698 -1.5257 -0.9103 -0.6972
  669SOL     OW 2905   5.922   1.805   0.125 -0.0274  0.7624  0.1322
  669SOL    HW1 2906   5.929   1.851   0.037  0.5767  0.7239  0.1491
  669SOL    HW2 2907   6.008   1.756   0.144 -0.4641  0.0645  0.3542
  670SOL     OW 2908   1.775   1.717   4.048 -0.0294  0.7226  0.5222
  670SOL    HW1 2909   1.683   1.731   4.085 -0.3461  1.3262 -0.4662
  670SOL    HW2 2910   1.799   1.620   4.056 -1.0157  0.4328  0.2150
  671SOL     OW 2911   3.050   0.386   3.982  0.2848  0.2702  0.2814
  671SOL    HW1 2912   3.121   0.349   4.042  0.0066  0.6835  0.8864
  671SOL    HW2 2913   3.036   0.483   4.003  0.4858  0.5389 -0.7573
  672SOL     OW 2914   1.683   0.015   2.577  0.1563  0.1125 -0.0731
  672SOL    HW1 2915   1.713  -0.069   2.622 -1.4196  0.7211  2.3160
  672SOL    HW2 2916   1.762   0.063   2.539  0.9117 -3.5679 -3.8507
  673SOL     OW 2917   5.460   0.244   0.854  0.1040 -0.2579 -0.0078
  673SOL    HW1 2918   5.534   0.307   0.880 -0.2743 -0.8368  2.6885
  673SOL    HW2 2919   5.491   0.150   0.868 -0.6374 -0.5574 -0.3678
  674SOL     OW 2920   5.466   2.246   5.826  0.3083 -0.3532  0.2463
  674SOL    HW1 2921   5.496   2.271   5.918  0.8024 -2.1017  0.6058
  674SOL    HW2 2922   5.535   2.188   5.783 -0.3131 -0.2705 -0.8942
  675SOL     OW 2923   5.252   2.422   6.862  0.2838 -0.2391 -0.3263
  675SOL    HW1 2924   5.328   2.481   6.836 -0.2791 -0.0119 -1.5680
  675SOL    HW2 2925   5.176   2.436   6.797 -0.2156 -1.6206 -0.0668
  676SOL     OW 2926   2.743   6.043   4.498  0.0767  0.5660 -0.0361
  676SOL    HW1 2927   2.701   6.101   4.568  1.1305 -1.4566  2.3873
  676SOL    HW2 2928   2.843   6.053   4.501  0.1400  0.7413 -1.5847
  677SOL     OW 2929   4.252   0.274   1.762 -0.2430 -0.4310 -0.2473
  677SOL    HW1 2930   4.238   0.203   1.692  0.0365 -1.0981  0.3606
  677SOL    HW2 2931   4.303   0.235   1.838 -1.8510 -0.1341  1.0234
  678SOL     OW 2932   2.103   4.672   5.242  0.1630 -0.0304  1.1450
  678SOL    HW1 2933   2.122   4.625   5.156 -0.2551  0.8558  0.5554
  678SOL    HW2 2934   2.041   4.617   5.298 -1.0167  0.1932  0.0965
  679SOL     OW 2935   5.931   0.371   6.634  0.5590 -0.2391  0.1549
  679SOL    HW1 2936   5.984   0.305   6.581 -0.3717 -1.5074  0.7398
  679SOL    HW2 2937   5.993   0.435   6.680  1.3848  1.5606 -3.1524
  680SOL     OW 2938   5.418   1.186   5.134  0.0795  0.1103 -0.3218
  680SOL    HW1 2939   5.514   1.212   5.131 -0.0668  0.6044 -0.8963
  680SOL    HW2 2940   5.411   1.087   5.148  0.7389 -0.3489 -2.7023
  681SOL     OW 2941   4.541   5.865   2.149 -0.1649 -0.7496 -0.1719
  681SOL    HW1 2942   4.472   5.935   2.167  0.4385 -0.5307  1.3665
  681SOL    HW2 2943   4.626   5.909   2.119 -0.7755 -1.0426 -2.5462
  682SOL     OW 2944   1.880   6.807   2.498 -0.3275 -0.2314  0.2619
  682SOL    HW1 2945   1.973   6.832   2.527 -0.3364 -0.6614  0.6661
  682SOL    HW2 2946   1.870   6.826   2.401 -0.6216  2.2470  0.6989
  683SOL     OW 2947   3.612   4.808   1.407  0.3517 -0.0004 -0.3812
  683SOL    HW1 2948   3.573   4.881   1.351  0.7053 -0.5237 -1.3154
  683SOL    HW2 2949   3.592   4.827   1.504 -0.6784  0.6461 -0.7066
  684SOL     OW 2950   5.463   2.168   0.640 -0.7316 -0.2679  0.1563
  684SOL    HW1 2951   5.532   2.151   0.570 -0.4675  0.5006  0.2156
  684SOL    HW2 2952   5.472   2.102   0.715  0.9681  0.7617  0.9137
  685SOL     OW 2953   4.258   0.482   2.877 -0.1683 -0.5683 -0.5928
  685SOL    HW1 2954   4.187   0.416   2.900 -0.3135  0.5346  2.6260
  685SOL    HW2 2955   4.292   0.525   2.961  0.3839  2.9538 -2.4451
  686SOL     OW 2956   4.311   6.810   3.438 -0.4379  0.6832  0.5905
  686SOL    HW1 2957   4.393   6.808   3.494 -0.2060  3.0173  0.4537
  686SOL    HW2 2958   4.333   6.846   3.347 -1.0039 -2.0062 -0.7052
  687SOL     OW 2959   6.893   2.422   4.974 -0.2072 -0.3079  0.0468
  687SOL    HW1 2960   6.919   2.497   5.034  0.0993  0.6129 -1.2067
  687SOL    HW2 2961   6.800   2.391   4.998  0.2428 -0.5691  1.5518
  688SOL     OW 2962   0.510   2.060   0.404  0.0684 -0.4029  0.1317
  688SOL    HW1 2963   0.522   2.039   0.502 -0.4671 -0.8891  0.0966
  688SOL    HW2 2964   0.478   2.154   0.394  0.5695 -0.1980  0.3980
  689SOL     OW 2965   1.888   4.249   3.630  0.2190 -0.3864  0.0254
  689SOL    HW1 2966   1.964   4.210   3.578 -0.0679 -0.4063 -0.3794
  689SOL    HW2 2967   1.891   4.214   3.724  1.2262  0.2971  0.2676
  690SOL     OW 2968   5.422   3.327   2.763  0.5158 -0.4835 -0.0220
  690SOL    HW1 2969   5.338   3.283   2.796  0.3806 -0.0038  0.2902
  690SOL    HW2 2970   5.398   3.393   2.691  0.5402  0.1794  0.5734
  691SOL     OW 2971   4.019   2.120   5.867 -0.3270 -0.1780  0.0810
  691SOL    HW1 2972   4.030   2.203   5.812 -2.4028 -2.1936 -3.7587
  691SOL    HW2 2973   3.938   2.129   5.925 -0.2008  0.6715  0.1400
  692SOL     OW 2974   4.323   1.822   5.627 -0.3252  0.2752  0.1138
  692SOL    HW1 2975   4.379   1.791   5.551 -1.0846 -1.0670  0.0710
  692SOL    HW2 2976   4.235   1.855   5.593 -1.0610 -1.2580  0.4499
  693SOL     OW 2977   5.329   4.605   2.845  0.4212 -0.2339 -0.0663
  693SOL    HW1 2978   5.422   4.604   2.882  0.1011 -1.7259  0.7622
  693SOL    HW2 2979   5.293   4.512   2.843 -1.7950  0.5130  1.5088
  694SOL     OW 2980   4.487   6.592   4.657  0.4899 -0.2588  0.0309
  694SOL    HW1 2981   4.405   6.606   4.712  2.2112 -0.0456  2.7396
  694SOL    HW2 2982   4.563   6.644   4.696  1.8335  0.0168 -2.6990
  695SOL     OW 2983   2.362   6.306   4.803 -0.0047 -0.3062 -0.3959
  695SOL    HW1 2984   2.390   6.236   4.869  0.1795 -1.0012 -1.1841
  695SOL    HW2 2985   2.438   6.370   4.788  0.4758 -0.9957 -1.0025
  696SOL     OW 2986   6.208   3.434   3.991 -1.1697 -0.2038  0.0826
  696SOL    HW1 2987   6.223   3.336   3.972 -1.5333 -0.1067 -0.8017
  696SOL    HW2 2988   6.113   3.448   4.018 -0.7810 -0.2638  1.5310
  697SOL     OW 2989   1.931   3.517   2.506  0.1201 -0.2315  0.5347
  697SOL    HW1 2990   2.001   3.576   2.466  1.3440 -1.2424  1.1276
  697SOL    HW2 2991   1.866   3.572   2.559 -0.0034  0.8032 -0.6497
  698SOL     OW 2992   6.756   6.629   1.349  0.0451  0.1130  0.1185
  698SOL    HW1 2993   6.818   6.652   1.274  0.8895  1.1050  1.0764
  698SOL    HW2 2994   6.748   6.529   1.357  1.2609 -0.0260 -0.2408
  699SOL     OW 2995   2.220   2.859   0.366  0.1773 -0.1064  0.6641
  699SOL    HW1 2996   2.217   2.759   0.369  2.1943 -0.1872  1.6141
  699SOL    HW2 2997   2.207   2.896   0.459 -0.2020  0.5093  0.3740
  700SOL     OW 2998   3.645   5.522   3.842 -0.3886 -0.2269 -0.3071
  700SOL    HW1 2999   3.582   5.501   3.767 -1.9462  0.6980  0.6903
  700SOL    HW2 3000   3.597   5.512   3.929  0.6128  1.2576  0.4563
  701SOL     OW 3001   0.184   4.059   1.678 -0.1924  0.2905 -0.3657
  701SOL    HW1 3002   0.278   4.080   1.651 -1.0113  1.9214 -2.1378
  701SOL    HW2 3003   0.135   4.143   1.698 -1.6828 -0.4182 -0.8701
  702SOL     OW 3004   3.834   5.899   3.889 -0.0618  0.1934 -0.3599
  702SOL    HW1 3005   3.816   5.877   3.793  0.9012 -1.7178 -0.1534
  702SOL    HW2 3006   3.933   5.912   3.902  0.2199 -2.5082  0.8459
  703SOL     OW 3007   1.660   2.867   6.142 -0.0848  0.1222  0.0271
  703SOL    HW1 3008   1.745   2.859   6.194  0.0594 -0.6110 -0.3214
  703SOL    HW2 3009   1.641   2.782   6.094 -0.8402  0.3950 -0.1778
  704SOL     OW 3010   0.522   3.604   6.181 -0.2749  0.1420  0.3792
  704SOL    HW1 3011   0.533   3.695   6.141  0.1882 -0.2430 -0.3669
  704SOL    HW2 3012   0.554   3.606   6.276  0.3730  0.5922  0.1600
  705SOL     OW 3013   0.306   5.724   3.537 -0.4706 -0.3928 -0.7434
  705SOL    HW1 3014   0.343   5.638   3.574  0.9956  0.7928  0.7232
  705SOL    HW2 3015   0.247   5.704   3.460 -2.8096 -2.9736  1.4800
  706SOL     OW 3016   3.315   6.898   5.667 -0.1208 -0.4605  0.2172
  706SOL    HW1 3017   3.275   6.919   5.756  1.3624  1.2404  0.5518
  706SOL    HW2 3018   3.374   6.818   5.675  1.4591  0.7434  1.2799
  707SOL     OW 3019   3.777   4.882   4.141 -0.0744  0.2598 -0.4707
  707SOL    HW1 3020   3.858   4.823   4.134  0.5916  1.2989 -2.0518
  707SOL    HW2 3021   3.790   4.948   4.215 -1.4804 -2.4228  2.4034
  708SOL     OW 3022   4.485   0.072   3.398 -0.1003  0.2107 -0.4285
  708SOL    HW1 3023   4.521   0.089   3.306 -0.7082  0.6775 -0.5929
  708SOL    HW2 3024   4.523  -0.012   3.434 -0.8378 -0.6793 -1.6323
  709SOL     OW 3025   2.446   6.908   3.173  0.3970  0.1765 -0.1393
  709SOL    HW1 3026   2.423   6.815   3.142 -1.8232 -0.1572  2.2381
  709SOL    HW2 3027   2.376   6.972   3.140 -2.2955 -0.2507  4.0713
  710SOL     OW 3028   4.699   2.816   3.273  0.5294  0.2889 -0.2399
  710SOL    HW1 3029   4.764   2.861   3.212  0.1577  1.0294 -0.1010
  710SOL    HW2 3030   4.669   2.730   3.232  3.2993 -1.2315  0.7065
  711SOL     OW 3031   5.582   1.682   4.167 -0.0208 -0.7421 -0.3056
  711SOL    HW1 3032   5.513   1.678   4.095  1.0923 -0.8730 -1.3881
  711SOL    HW2 3033   5.543   1.726   4.248 -1.7390 -1.8983 -0.4610
  712SOL     OW 3034   3.071   2.454   1.271 -0.6825 -0.1224 -0.4332
  712SOL    HW1 3035   3.068   2.380   1.338 -1.4835 -0.4647 -0.8229
  712SOL    HW2 3036   2.977   2.477   1.244 -0.5591  2.1902  0.9133
  713SOL     OW 3037   3.675   2.645   5.930  0.2946 -0.2708  0.3517
  713SOL    HW1 3038   3.584   2.605   5.943 -0.0710  0.1448 -0.8076
  713SOL    HW2 3039   3.742   2.596   5.986 -0.1010 -2.5790 -1.0638
  714SOL     OW 3040   0.126   3.598   2.507 -0.6966  0.0413  0.0557
  714SOL    HW1 3041   0.196   3.545   2.553 -0.8119 -0.1044  0.0652
  714SOL    HW2 3042   0.154   3.617   2.413 -0.6141  0.0444  0.0814
  715SOL     OW 3043   6.846   3.699   6.369  0.3105  0.4961 -0.3600
  715SOL    HW1 3044   6.934   3.728   6.406  1.2156 -3.1960  0.8682
  715SOL    HW2 3045   6.861   3.645   6.286 -0.7289 -0.4198  0.0163
  716SOL     OW 3046   2.863   1.485   1.845  0.4728 -0.0554 -0.1739
  716SOL    HW1 3047   2.883   1.569   1.895 -0.0804 -1.0503  1.8289
  716SOL    HW2 3048   2.871   1.407   1.907 -0.7360 -1.3122 -1.5282
  717SOL     OW 3049   0.086   5.647   4.342 -0.1179  0.2202  0.2543
  717SOL    HW1 3050   0.097   5.552   4.311 -3.2427 -0.3434  0.5949
  717SOL    HW2 3051   0.057   5.648   4.437 -1.5583  1.4096 -0.1497
  718SOL     OW 3052   6.141   1.465   4.291 -0.2264 -0.2497  0.7890
  718SOL    HW1 3053   6.126   1.541   4.355 -1.7621 -1.1865  1.5909
  718SOL    HW2 3054   6.093   1.484   4.206 -0.5828 -0.2986  0.9762
  719SOL     OW 3055   1.729   0.074   4.017  0.1554  0.3390  0.0111
  719SOL    HW1 3056   1.814   0.120   3.991  0.3808  0.4958  0.9700
  719SOL    HW2 3057   1.727  -0.018   3.978  0.7678  0.3395 -0.0249
  720SOL     OW 3058   1.623   0.290   6.801  0.5139  0.1655 -1.0421
  720SOL    HW1 3059   1.604   0.272   6.705 -0.5968 -0.8634 -0.6467
  720SOL    HW2 3060   1.591   0.382   6.825 -1.2486 -0.3842 -1.1487
  721SOL     OW 3061   1.008   1.682   2.958  0.3071  0.1292 -0.0542
  721SOL    HW1 3062   1.091   1.633   2.984 -0.4980 -0.9986  0.4106
  721SOL    HW2 3063   0.929   1.643   3.004 -0.2755  2.4001  0.9913
  722SOL     OW 3064   4.493   1.908   6.396 -0.3992  0.4739  0.4376
  722SOL    HW1 3065   4.412   1.894   6.339 -1.0719  4.1127  0.2649
  722SOL    HW2 3066   4.570   1.936   6.338  0.8221 -2.0120  0.7143
  723SOL     OW 3067   2.257   0.182   4.920  0.1451  0.4735  0.5065
  723SOL    HW1 3068   2.262   0.280   4.901 -2.5845  0.6077  0.0345
  723SOL    HW2 3069   2.161   0.153   4.923  0.7954 -1.8975  2.2346
  724SOL     OW 3070   1.792   1.720   3.210  0.2527 -0.3335 -0.5891
  724SOL    HW1 3071   1.885   1.753   3.230  0.6839 -1.5038 -0.5598
  724SOL    HW2 3072   1.795   1.656   3.134 -0.4686 -0.7265 -0.2974
  725SOL     OW 3073   3.089   5.297   3.880 -0.0689  0.3810  0.7240
  725SOL    HW1 3074   3.031   5.305   3.799 -0.3264 -2.8817  0.4413
  725SOL    HW2 3075   3.035   5.315   3.962 -1.0964 -0.9120  0.3696
  726SOL     OW 3076   1.490   4.341   0.240 -0.2416  0.3468  0.5063
  726SOL    HW1 3077   1.398   4.380   0.245 -0.1013  0.7738 -0.0727
  726SOL    HW2 3078   1.524   4.349   0.146  1.1140  1.9294  1.0757
  727SOL     OW 3079   5.644   5.219   5.384  0.3255  0.1858 -0.1109
  727SOL    HW1 3080   5.663   5.211   5.482 -0.1800 -0.1076 -0.0348
  727SOL    HW2 3081   5.589   5.141   5.354 -0.8686  1.0728 -0.2966
  728SOL     OW 3082   5.586   3.289   5.292  0.2544  0.0668 -0.1641
  728SOL    HW1 3083   5.613   3.198   5.262  1.0707  0.3761 -0.3831
  728SOL    HW2 3084   5.512   3.324   5.234  1.8891  0.7121 -1.9467
  729SOL     OW 3085   0.839   4.034   2.655 -0.0162  0.3128 -0.1314
  729SOL    HW1 3086   0.897   4.073   2.583 -0.0867 -0.3572 -0.5617
  729SOL    HW2 3087   0.884   3.954   2.694  0.0578  0.7238  0.6406
  730SOL     OW 3088   5.753   5.737   2.671  0.3946  0.2987 -0.1470
  730SOL    HW1 3089   5.659   5.763   2.692  1.2297  1.6790  2.2624
  730SOL    HW2 3090   5.797   5.810   2.618  0.7908  0.7419  0.7872
  731SOL     OW 3091   0.194   4.338   0.840 -0.0331 -0.1094  0.2114
  731SOL    HW1 3092   0.209   4.427   0.795 -2.1074 -0.0422 -0.4819
  731SOL    HW2 3093   0.158   4.354   0.932 -0.6162 -0.2023  0.0063
  732SOL     OW 3094   4.890   2.526   1.471  0.2007  0.2229  0.0963
  732SOL    HW1 3095   4.803   2.509   1.425 -0.4999  3.8568 -0.2158
  732SOL    HW2 3096   4.961   2.469   1.430 -1.4849 -0.8185 -1.5352
  733SOL     OW 3097   4.862   0.886   5.842  0.6259 -0.0352 -0.0532
  733SOL    HW1 3098   4.830   0.863   5.750 -0.7218 -0.4781  0.5015
  733SOL    HW2 3099   4.933   0.821   5.870  0.4263 -0.4248 -0.4489
  734SOL     OW 3100   6.584   5.909   1.802  0.3482 -0.4658  0.2203
  734SOL    HW1 3101   6.656   5.970   1.768 -1.6977  1.1154 -1.5976
  734SOL    HW2 3102   6.601   5.887   1.898  2.4657  0.9929  0.2485
  735SOL     OW 3103   0.005   6.253   2.039 -0.2724 -0.2405 -0.6767
  735SOL    HW1 3104  -0.030   6.192   1.968  1.0209 -0.1986 -1.3701
  735SOL    HW2 3105  -0.006   6.348   2.010  0.8952 -0.2359 -1.1573
  736SOL     OW 3106   0.430   0.742   5.128 -0.2476  0.4127  0.0502
  736SOL    HW1 3107   0.407   0.835   5.157 -0.9507  0.4847 -0.7070
  736SOL    HW2 3108   0.388   0.724   5.039  0.6882 -0.2897 -0.2651
  737SOL     OW 3109   0.051   2.233   4.880 -0.2292  0.2381 -0.0073
  737SOL    HW1 3110   0.142   2.246   4.920 -0.1225  1.7734 -0.6821
  737SOL    HW2 3111  -0.006   2.314   4.899 -1.4836 -0.7146  0.4325
  738SOL     OW 3112   3.263   4.627   1.237  0.6132  0.2393 -0.3378
  738SOL    HW1 3113   3.212   4.686   1.174 -0.8122 -0.7322 -0.1420
  738SOL    HW2 3114   3.205   4.604   1.315  1.9440  0.4394  0.7241
  739SOL     OW 3115   3.029   6.651   6.150 -0.6392 -0.0655 -0.0202
  739SOL    HW1 3116   2.947   6.708   6.156 -0.2330  0.6614 -1.0218
  739SOL    HW2 3117   3.014   6.578   6.083 -1.3907 -1.5947  1.7261
  740SOL     OW 3118   5.405   3.512   2.563 -0.4384  0.0564 -0.2761
  740SOL    HW1 3119   5.457   3.582   2.513  0.2881 -0.6906 -0.5890
  740SOL    HW2 3120   5.308   3.534   2.559 -0.7301 -1.0798 -3.9823
  741SOL     OW 3121   3.355   0.589   3.716 -0.0023 -0.4730 -0.0339
  741SOL    HW1 3122   3.401   0.560   3.800 -0.7228 -0.0107  0.5308
  741SOL    HW2 3123   3.358   0.689   3.710  1.5411 -0.5570 -1.4328
  742SOL     OW 3124   1.027   6.846   0.049  0.4588  0.7745 -0.0953
  742SOL    HW1 3125   1.072   6.816  -0.035  0.9761  0.4775  0.2806
  742SOL    HW2 3126   1.028   6.771   0.116 -1.0137  0.5969 -0.2406
  743SOL     OW 3127   1.403   0.342   3.339 -0.5551  0.1857 -0.3757
  743SOL    HW1 3128   1.367   0.434   3.322 -3.7018 -0.6338  1.1561
  743SOL    HW2 3129   1.502   0.347   3.351 -0.8679  3.8842  2.6447
  744SOL     OW 3130   5.269   1.603   1.379 -0.0794  0.1841  0.5136
  744SOL    HW1 3131   5.215   1.540   1.435 -0.9132  0.3570 -0.0812
  744SOL    HW2 3132   5.365   1.598   1.407 -0.3761 -0.2158  1.5057
  745SOL     OW 3133   1.464   5.345   6.333 -0.2116 -0.5981  0.2168
  745SOL    HW1 3134   1.525   5.415   6.296  0.0416 -1.2810 -0.7044
  745SOL    HW2 3135   1.406   5.385   6.404  2.1630 -0.2179  2.0364
  746SOL     OW 3136   0.402   4.984   5.581 -0.3251  0.0093  0.4741
  746SOL    HW1 3137   0.351   5.063   5.614 -0.4378 -0.2455  0.9204
  746SOL    HW2 3138   0.488   5.014   5.539 -0.9469  0.4628 -0.5181
  747SOL     OW 3139   5.084   0.132   2.440  0.5514 -0.3955  0.9642
  747SOL    HW1 3140   5.112   0.074   2.364 -0.9163 -0.5411  0.5061
  747SOL    HW2 3141   5.011   0.087   2.492  0.2106  0.5217  1.3117
  748SOL     OW 3142   5.099   6.019   1.937  0.4553 -0.4275 -0.7277
  748SOL    HW1 3143   5.053   5.942   1.892 -2.0125  0.7015 -0.2723
  748SOL    HW2 3144   5.181   5.986   1.984  0.0251 -2.5841 -1.3801
  749SOL     OW 3145   4.589   4.773   3.344 -0.2981  0.2597  0.3573
  749SOL    HW1 3146   4.528   4.839   3.299  0.1338  0.9749  0.7874
  749SOL    HW2 3147   4.549   4.682   3.339  0.0785  0.1645 -2.1273
  750SOL     OW 3148   2.686   1.957   0.892  0.0159  0.7262  0.1370
  750SOL    HW1 3149   2.632   1.890   0.942  0.7236  1.4939  2.0724
  750SOL    HW2 3150   2.634   2.042   0.884  0.9091  1.5772  2.2962
  751SOL     OW 3151   6.004   3.013   0.748 -0.2520  0.4230 -0.3440
  751SOL    HW1 3152   5.995   3.049   0.841 -0.8303 -1.3815  0.3379
  751SOL    HW2 3153   6.052   2.925   0.751 -0.4837  0.2293 -1.7416
  752SOL     OW 3154   2.659   1.851   5.564 -0.2222  0.1174 -0.1978
  752SOL    HW1 3155   2.712   1.917   5.618 -0.4473 -1.4306  2.0613
  752SOL    HW2 3156   2.585   1.814   5.620 -2.3985  0.5836 -2.5768
  753SOL     OW 3157   4.055   3.258   4.516 -0.0177  0.2081 -0.7524
  753SOL    HW1 3158   4.089   3.251   4.423 -1.4655  0.4013 -1.3296
  753SOL    HW2 3159   3.957   3.236   4.517 -0.5096  2.2410  0.3800
  754SOL     OW 3160   4.834   2.092   5.761 -0.1306  0.0442  0.1091
  754SOL    HW1 3161   4.820   2.174   5.706  0.0122 -0.3938 -0.6004
  754SOL    HW2 3162   4.773   2.020   5.729  2.8755 -1.6442 -2.4898
  755SOL     OW 3163   5.079   3.829   5.959 -0.1453 -0.5452 -0.3746
  755SOL    HW1 3164   5.069   3.875   6.047  1.7803 -0.1407 -0.3221
  755SOL    HW2 3165   5.134   3.885   5.897 -0.5704 -1.2967 -1.4780
  756SOL     OW 3166   0.417   5.196   7.015 -0.4937  0.3067  0.0972
  756SOL    HW1 3167   0.497   5.182   7.073 -0.1108  2.2451  0.0989
  756SOL    HW2 3168   0.445   5.206   6.920 -0.7990  0.2347 -0.0032
  757SOL     OW 3169   1.782   5.851   2.376  0.3081  0.3435 -0.7000
  757SOL    HW1 3170   1.777   5.843   2.276 -3.4445 -2.3299 -0.5006
  757SOL    HW2 3171   1.856   5.793   2.410  0.1764 -0.5019 -1.8013
  758SOL     OW 3172   4.541   1.698   4.169 -0.1764 -0.2092 -0.8546
  758SOL    HW1 3173   4.595   1.673   4.250  1.2404  0.4808 -1.5380
  758SOL    HW2 3174   4.586   1.662   4.087  0.6871  2.4747 -1.6669
  759SOL     OW 3175   0.102   1.798   3.070 -0.6813 -0.6830 -0.4660
  759SOL    HW1 3176   0.015   1.750   3.081 -0.7546 -0.5717 -0.5606
  759SOL    HW2 3177   0.089   1.896   3.086 -0.9497 -0.3956 -2.2743
  760SOL     OW 3178   0.841   0.345   3.365 -0.1199  0.5297 -0.6504
  760SOL    HW1 3179   0.928   0.393   3.377  0.2146  0.5190 -2.5785
  760SOL    HW2 3180   0.800   0.375   3.278 -0.2556 -2.1177 -1.5811
  761SOL     OW 3181   7.015   3.500   5.185 -0.1767 -0.1060  0.4754
  761SOL    HW1 3182   7.013   3.564   5.108 -0.3947  1.4070  1.6816
  761SOL    HW2 3183   7.070   3.420   5.161 -2.6703 -1.1786 -2.3309
  762SOL     OW 3184   2.747   6.595   6.145 -0.0420  0.5815 -0.3176
  762SOL    HW1 3185   2.667   6.649   6.122 -0.2591 -0.2609 -1.6804
  762SOL    HW2 3186   2.754   6.585   6.244 -2.1518 -0.0953 -0.1864
  763SOL     OW 3187   5.131   0.923   5.504 -0.0977  0.5081 -0.5812
  763SOL    HW1 3188   5.096   0.936   5.411 -2.0897 -2.1792 -0.3209
  763SOL    HW2 3189   5.079   0.851   5.550  2.3437  0.1008  1.8318
  764SOL     OW 3190   5.769   0.008   5.087 -0.4045  0.0018 -0.7152
  764SOL    HW1 3191   5.678  -0.022   5.113  0.1699 -0.4392  0.9187
  764SOL    HW2 3192   5.833  -0.069   5.094  0.4338  0.7335  0.0165
  765SOL     OW 3193   5.909   5.516   1.171  0.3160 -0.4547  0.2821
  765SOL    HW1 3194   5.978   5.445   1.158 -0.0789 -0.6185 -1.0886
  765SOL    HW2 3195   5.909   5.577   1.092 -0.8331 -0.2210  0.4475
  766SOL     OW 3196   0.878   2.271   4.904  0.0984 -0.2298  0.3595
  766SOL    HW1 3197   0.913   2.339   4.969  3.3560  0.2084 -1.6291
  766SOL    HW2 3198   0.909   2.180   4.931 -0.7688 -0.4120  0.7791
  767SOL     OW 3199   6.872   6.238   5.317  0.5395  0.5422 -0.4176
  767SOL    HW1 3200   6.831   6.169   5.257  1.2017 -0.3695  0.1500
  767SOL    HW2 3201   6.877   6.202   5.410  1.3276  1.1845 -0.2018
  768SOL     OW 3202   1.826   6.893   4.742 -0.2466  0.1953  0.1786
  768SOL    HW1 3203   1.799   6.872   4.648 -0.5180  2.4100 -0.2798
  768SOL    HW2 3204   1.837   6.991   4.753  2.7484 -0.1908  1.7004
  769SOL     OW 3205   2.848   2.221   5.628  0.4282 -0.1705  0.4891
  769SOL    HW1 3206   2.948   2.219   5.621  0.3160 -0.2188 -1.7684
  769SOL    HW2 3207   2.820   2.167   5.707  2.1874  0.2087  1.4400
  770SOL     OW 3208   3.420   4.956   3.421 -0.0459 -0.1492 -0.0976
  770SOL    HW1 3209   3.435   5.052   3.397 -0.1290 -0.5686 -2.0391
  770SOL    HW2 3210   3.322   4.934   3.410  0.2427 -0.8729 -1.5522
  771SOL     OW 3211   1.002   5.558   5.175  0.6462  0.2482  0.5116
  771SOL    HW1 3212   0.998   5.499   5.095 -0.1724  0.7872  0.1415
  771SOL    HW2 3213   0.989   5.653   5.147 -1.1253  0.3174  1.4315
  772SOL     OW 3214   6.190   4.636   6.928  0.2929 -0.7483 -0.1583
  772SOL    HW1 3215   6.132   4.558   6.955 -0.3861  0.0855  0.8702
  772SOL    HW2 3216   6.137   4.720   6.935  1.5411  0.0046  0.4535
  773SOL     OW 3217   2.148   3.887   3.090 -0.5200 -0.1789  0.1170
  773SOL    HW1 3218   2.070   3.895   3.152  0.4357 -0.8051  1.4694
  773SOL    HW2 3219   2.205   3.969   3.097 -0.4459 -0.2214  0.0157
  774SOL     OW 3220   3.348   0.819   5.873  0.1386  0.2977 -0.1080
  774SOL    HW1 3221   3.433   0.772   5.849  0.4862 -0.5078  2.3632
  774SOL    HW2 3222   3.333   0.895   5.809  1.3951 -1.0130 -2.0905
  775SOL     OW 3223   2.175   3.611   3.248 -0.3923  0.4547 -0.3568
  775SOL    HW1 3224   2.212   3.518   3.247 -2.0122 -0.2490  0.7778
  775SOL    HW2 3225   2.204   3.659   3.166  1.1004 -0.7903 -0.6137
  776SOL     OW 3226   1.674   0.327   5.108 -1.1746  0.1453  0.0370
  776SOL    HW1 3227   1.745   0.310   5.039 -1.2711  0.9796 -0.2829
  776SOL    HW2 3228   1.663   0.425   5.120 -0.0394  0.0534  2.4054
  777SOL     OW 3229   2.116   5.668   2.136 -0.7971 -0.5890 -0.2452
  777SOL    HW1 3230   2.065   5.688   2.052 -1.3759 -1.0787 -0.0230
  777SOL    HW2 3231   2.210   5.643   2.114 -0.8700 -0.4316 -0.7280
  778SOL     OW 3232   3.529   5.916   1.471  0.2142 -0.0260 -0.3172
  778SOL    HW1 3233   3.571   6.005   1.450 -0.3667  0.4547  0.4928
  778SOL    HW2 3234   3.599   5.854   1.508  0.4564  0.3635 -0.1143
  779SOL     OW 3235   6.794   3.848   1.701  0.6221  0.5969 -0.1767
  779SOL    HW1 3236   6.725   3.911   1.736  0.2242  0.0263  0.0666
  779SOL    HW2 3237   6.794   3.764   1.755 -1.1465 -1.0206 -2.4993
  780SOL     OW 3238   1.809   2.790   4.021  0.0519  0.2748 -0.4017
  780SOL    HW1 3239   1.879   2.859   4.003 -0.0998  0.1727 -1.4664
  780SOL    HW2 3240   1.824   2.749   4.111  0.4872  1.2792 -0.0089
  781SOL     OW 3241   6.057   5.890   1.672  0.2756 -0.2759  0.2439
  781SOL    HW1 3242   6.015   5.804   1.642 -0.4826  0.4752 -0.9031
  781SOL    HW2 3243   6.145   5.902   1.626 -0.2113  0.1696 -0.5844
  782SOL     OW 3244   1.891   4.433   6.220  0.3867 -0.1525 -0.2569
  782SOL    HW1 3245   1.925   4.343   6.250  1.2981  0.4575  0.6490
  782SOL    HW2 3246   1.896   4.440   6.121  0.9707 -0.8611 -0.2834
  783SOL     OW 3247   4.738   3.179   6.783  0.2187  0.2096 -0.3625
  783SOL    HW1 3248   4.649   3.219   6.760  1.0763  0.8857 -2.8350
  783SOL    HW2 3249   4.724   3.087   6.822 -1.5930  1.1149  1.3223
  784SOL     OW 3250   3.563   4.862   1.680  0.2613  0.7075  0.7023
  784SOL    HW1 3251   3.595   4.781   1.729  0.8809  1.1261  1.0000
  784SOL    HW2 3252   3.489   4.905   1.732 -1.7142 -0.9490 -0.5772
  785SOL     OW 3253   6.672   0.677   3.729  0.2795  0.3541  0.9384
  785SOL    HW1 3254   6.764   0.711   3.747  0.9874 -1.2609  0.6238
  785SOL    HW2 3255   6.616   0.749   3.688  1.7596  1.0422  0.0629
  786SOL     OW 3256   0.207   0.937   3.871  0.2223  0.2959 -0.2175
  786SOL    HW1 3257   0.119   0.945   3.917  0.0804  0.3873 -0.5045
  786SOL    HW2 3258   0.228   1.022   3.824  0.2431  0.1091 -0.5456
  787SOL     OW 3259   3.764   6.379   0.102  0.0966  0.0605 -0.3970
  787SOL    HW1 3260   3.784   6.477   0.092  1.1428  0.2673  2.7649
  787SOL    HW2 3261   3.845   6.326   0.078 -0.2980 -0.0288 -1.5832
  788SOL     OW 3262   2.022   2.544   1.356  0.2593 -0.5553 -0.0096
  788SOL    HW1 3263   2.040   2.642   1.352 -2.3984 -0.0053 -0.5460
  788SOL    HW2 3264   1.987   2.520   1.446 -0.8902 -0.6185 -0.4564
  789SOL     OW 3265   3.600   6.039   5.748 -0.0696 -0.0621  0.7707
  789SOL    HW1 3266   3.503   6.017   5.752 -0.0877 -0.0895  0.1948
  789SOL    HW2 3267   3.654   5.958   5.768 -0.1487 -0.4441 -0.4637
  790SOL     OW 3268   2.725   1.165   0.666 -0.1706  0.5523  0.0173
  790SOL    HW1 3269   2.779   1.109   0.604 -0.3241  1.0688 -0.5951
  790SOL    HW2 3270   2.785   1.223   0.721  0.0029 -0.3917  0.8418
  791SOL     OW 3271   3.139   5.378   4.857  0.6278  0.0278 -0.2181
  791SOL    HW1 3272   3.062   5.358   4.797 -0.9429  0.5928  1.5249
  791SOL    HW2 3273   3.174   5.293   4.896 -0.1865 -0.1071  0.2375
  792SOL     OW 3274   0.166   6.893   1.950  0.2164 -0.1742 -0.0773
  792SOL    HW1 3275   0.255   6.869   1.989  0.1042 -1.0013 -0.3100
  792SOL    HW2 3276   0.104   6.814   1.957 -0.8294  0.7084  1.0017
  793SOL     OW 3277   5.647   6.192   3.882 -0.0143  0.1233 -0.1473
  793SOL    HW1 3278   5.606   6.162   3.795  1.6319  0.1989 -0.9970
  793SOL    HW2 3279   5.647   6.292   3.886  1.5627  0.1770 -0.9339
  794SOL     OW 3280   2.898   2.744   5.381  0.4750 -0.0709  0.0439
  794SOL    HW1 3281   2.965   2.671   5.398  0.0692 -0.1600  1.3095
  794SOL    HW2 3282   2.815   2.704   5.341  0.0081 -0.4169  1.3187
  795SOL     OW 3283   3.844   1.380   5.247 -0.8578 -0.3770  0.8957
  795SOL    HW1 3284   3.846   1.292   5.200 -0.3165 -0.2205  0.6216
  795SOL    HW2 3285   3.769   1.380   5.314 -1.3384 -0.7668  0.3664
  796SOL     OW 3286   1.062   2.660   0.718 -0.5995 -0.0842  0.6073
  796SOL    HW1 3287   1.000   2.671   0.641 -1.6322 -0.4305  1.3575
  796SOL    HW2 3288   1.019   2.601   0.787  0.0551  0.6660  1.6942
  797SOL     OW 3289   3.639   5.982   6.619 -0.0635  0.1777  0.7642
  797SOL    HW1 3290   3.627   6.052   6.549 -1.0495 -1.0606 -0.3500
  797SOL    HW2 3291   3.550   5.942   6.642  0.5813 -1.4487  0.5783
  798SOL     OW 3292   4.169   6.020   0.615  0.1519 -0.1703 -0.0099
  798SOL    HW1 3293   4.191   6.044   0.521 -0.1186 -1.8107 -0.5314
  798SOL    HW2 3294   4.179   5.921   0.627 -1.1331 -0.1732  1.3149
  799SOL     OW 3295   2.796   1.366   6.799 -0.1814  0.6720 -0.3041
  799SOL    HW1 3296   2.814   1.392   6.704 -1.5292 -0.1778 -0.8149
  799SOL    HW2 3297   2.719   1.419   6.834 -0.3018  0.2955  0.0077
  800SOL     OW 3298   6.204   3.038   1.459  0.0269 -0.1108 -0.5681
  800SOL    HW1 3299   6.222   3.102   1.385  1.1623 -0.2563 -0.4348
  800SOL    HW2 3300   6.209   3.086   1.546  1.9133 -0.5311 -0.3966
  801SOL     OW 3301   3.609   5.139   6.706  0.4600 -0.1853 -0.7106
  801SOL    HW1 3302   3.590   5.114   6.801 -0.7269  0.4404 -0.7567
  801SOL    HW2 3303   3.524   5.169   6.662  0.8209 -1.2547 -2.2181
  802SOL     OW 3304   5.134   4.981   1.629 -0.6878  0.4764 -0.6244
  802SOL    HW1 3305   5.075   4.960   1.706  0.6219  2.4894  1.0205
  802SOL    HW2 3306   5.222   5.015   1.662  1.4638 -2.2808 -2.9643
  803SOL     OW 3307   3.334   1.138   5.828  0.0641 -0.0204  0.2703
  803SOL    HW1 3308   3.429   1.121   5.802  0.5391 -0.3954  2.1374
  803SOL    HW2 3309   3.331   1.191   5.913 -1.4164  0.8290 -0.2655
  804SOL     OW 3310   0.149   6.582   2.215  0.0250 -0.6719  0.4767
  804SOL    HW1 3311   0.111   6.661   2.166 -1.1606 -2.2314 -1.2730
  804SOL    HW2 3312   0.083   6.507   2.214  2.3003 -2.8259 -0.8598
  805SOL     OW 3313   2.944   1.771   4.195 -0.4910  0.5798 -0.7011
  805SOL    HW1 3314   2.859   1.816   4.220  0.5142  1.1876  1.9989
  805SOL    HW2 3315   3.022   1.826   4.226  0.8167 -1.4874 -0.0382
  806SOL     OW 3316   0.399   6.105   6.163 -0.7002  0.4235 -0.3684
  806SOL    HW1 3317   0.482   6.134   6.211 -0.5126 -1.4055  0.5243
  806SOL    HW2 3318   0.417   6.101   6.064 -0.4972  2.3446 -0.4454
  807SOL     OW 3319   1.240   6.751   4.423  0.1255  0.0312  0.2576
  807SOL    HW1 3320   1.160   6.698   4.396  0.6163 -0.6692  0.1604
  807SOL    HW2 3321   1.211   6.843   4.450 -0.6332  0.0022 -0.4169
  808SOL     OW 3322   5.881   2.738   6.928  0.0490  0.4844  0.5653
  808SOL    HW1 3323   5.979   2.739   6.909 -0.3550 -0.1054 -1.8678
  808SOL    HW2 3324   5.847   2.643   6.925 -0.4588  0.5856  2.2989
  809SOL     OW 3325   0.017   3.425   0.795  0.9405 -0.2534 -0.3614
  809SOL    HW1 3326   0.031   3.478   0.878 -1.4119 -2.0343  1.3468
  809SOL    HW2 3327   0.068   3.339   0.802 -1.6138 -1.7887  0.7954
  810SOL     OW 3328   2.263   4.391   5.694  0.6362  0.0141 -0.0854
  810SOL    HW1 3329   2.281   4.487   5.672  0.4536  0.0823  0.0571
  810SOL    HW2 3330   2.312   4.332   5.630 -3.1133  0.1608 -3.5061
  811SOL     OW 3331   4.373   4.757   3.923 -0.5777 -0.2468 -0.3663
  811SOL    HW1 3332   4.426   4.796   3.998 -2.4166 -0.1562  0.9512
  811SOL    HW2 3333   4.283   4.801   3.918 -0.4147 -0.0547 -2.8316
  812SOL     OW 3334   6.997   2.196   0.872  0.5405  0.1796  0.7158
  812SOL    HW1 3335   7.040   2.286   0.864  0.8041  0.0770  1.0097
  812SOL    HW2 3336   7.019   2.141   0.791  1.3277 -0.0328  1.0690
  813SOL     OW 3337   2.966   1.437   6.234  0.2610 -0.3300 -0.3978
  813SOL    HW1 3338   2.909   1.513   6.264 -0.4309 -0.6423 -0.8907
  813SOL    HW2 3339   3.060   1.452   6.264  0.1077  0.6435 -0.3636
  814SOL     OW 3340   6.608   6.600   3.930  0.2656  0.2557  0.7107
  814SOL    HW1 3341   6.708   6.604   3.921  0.2075 -0.8409 -0.7245
  814SOL    HW2 3342   6.582   6.511   3.967 -0.2598 -0.1049 -0.4939
  815SOL     OW 3343   5.846   0.506   1.850 -0.1697  0.0538 -0.6035
  815SOL    HW1 3344   5.772   0.460   1.899  0.3158 -1.3979 -1.1654
  815SOL    HW2 3345   5.825   0.604   1.842 -1.3069 -0.0640  0.5175
  816SOL     OW 3346   6.803   4.390   1.440  0.1060  0.0440 -0.9083
  816SOL    HW1 3347   6.901   4.369   1.445 -0.0832 -0.5632  1.0179
  816SOL    HW2 3348   6.757   4.322   1.384  0.1901 -2.2328  1.6099
  817SOL     OW 3349   2.505   6.261   1.814 -0.2810  0.0536  0.1101
  817SOL    HW1 3350   2.444   6.210   1.876 -1.8249 -1.4197 -2.4368
  817SOL    HW2 3351   2.486   6.359   1.821 -2.2914 -0.2981  0.1228
  818SOL     OW 3352   5.953   1.983   2.663  0.8653  0.1193  0.5966
  818SOL    HW1 3353   5.952   1.904   2.725  0.1381  0.0865  0.5581
  818SOL    HW2 3354   5.859   2.007   2.640  1.0781  1.0573  0.6764
  819SOL     OW 3355   4.110   4.904   0.893 -0.6314  0.1991  0.0534
  819SOL    HW1 3356   4.133   4.808   0.909 -2.6466 -0.4605 -0.6941
  819SOL    HW2 3357   4.141   4.959   0.970 -0.4899 -1.2380  1.0619
  820SOL     OW 3358   0.587   4.117   3.159  0.1657 -0.5621  0.0490
  820SOL    HW1 3359   0.636   4.135   3.244  1.7062 -2.1172 -0.4603
  820SOL    HW2 3360   0.624   4.175   3.087 -0.4653  0.0439  0.2030
  821SOL     OW 3361   5.915   4.400   4.684  0.2365  0.5935  0.3327
  821SOL    HW1 3362   5.910   4.336   4.761 -0.7897  0.6344  0.3116
  821SOL    HW2 3363   5.995   4.377   4.628  0.4982  0.0161  0.9194
  822SOL     OW 3364   0.353   1.924   2.784 -0.4434 -0.3705  0.2159
  822SOL    HW1 3365   0.276   1.863   2.769  1.7494 -3.0355 -0.9436
  822SOL    HW2 3366   0.408   1.891   2.861  2.8400 -2.2982 -2.6804
  823SOL     OW 3367   6.806   5.525   6.077  0.2388  0.0748  0.3044
  823SOL    HW1 3368   6.827   5.427   6.082 -1.4758 -0.3195  0.2535
  823SOL    HW2 3369   6.725   5.545   6.132  1.4970  1.7855  1.6528
  824SOL     OW 3370   0.022   0.335   6.368 -0.4916  0.3142  0.0809
  824SOL    HW1 3371  -0.058   0.281   6.340 -0.6994  0.4392  0.4238
  824SOL    HW2 3372   0.044   0.401   6.296 -1.2538  0.8899  0.3613
  825SOL     OW 3373   6.388   6.342   6.667 -0.4915  0.1323  0.1517
  825SOL    HW1 3374   6.339   6.260   6.639 -1.0499  0.5781 -0.1883
  825SOL    HW2 3375   6.377   6.356   6.766 -0.4322 -0.1725  0.2016
  826SOL     OW 3376   4.196   0.547   4.853  0.0509  0.0044  0.1710
  826SOL    HW1 3377   4.131   0.472   4.838  1.4715 -0.9065 -1.9406
  826SOL    HW2 3378   4.252   0.527   4.934 -2.4631  1.0316  2.3245
  827SOL     OW 3379   3.581   2.705   5.280 -0.1239  0.2569 -0.1986
  827SOL    HW1 3380   3.493   2.661   5.298 -0.0453 -0.1259 -0.7012
  827SOL    HW2 3381   3.569   2.775   5.210  0.1443 -0.5141 -1.0422
  828SOL     OW 3382   6.249   6.866   3.781  0.6811  0.1015  0.4611
  828SOL    HW1 3383   6.171   6.928   3.792  1.5668  1.4859 -0.7934
  828SOL    HW2 3384   6.325   6.914   3.738  0.5622 -2.4532 -3.0542
  829SOL     OW 3385   3.651   3.153   3.506  0.5275 -0.0602  0.2527
  829SOL    HW1 3386   3.673   3.193   3.417  2.4371 -2.5858 -0.5391
  829SOL    HW2 3387   3.679   3.057   3.507 -1.7705 -0.8217  2.7645
  830SOL     OW 3388   0.336   3.135   6.847 -0.0004  0.1085 -0.0020
  830SOL    HW1 3389   0.240   3.150   6.824 -0.2168 -0.8030  0.2720
  830SOL    HW2 3390   0.380   3.083   6.774 -0.0601 -0.6312  0.4807
  831SOL     OW 3391   5.488   6.468   2.158 -0.3217 -0.6319  0.2947
  831SOL    HW1 3392   5.571   6.428   2.198 -0.5525 -0.7412  0.6735
  831SOL    HW2 3393   5.409   6.442   2.214 -0.3272  1.4678  1.3781
  832SOL     OW 3394   5.127   1.576   4.985 -0.0897 -0.1284 -0.1680
  832SOL    HW1 3395   5.061   1.650   4.979  2.3702  2.1043 -3.1070
  832SOL    HW2 3396   5.170   1.577   5.076 -0.2803  1.9399 -0.0576
  833SOL     OW 3397   0.353   5.336   0.736 -0.0183  0.3553  0.2556
  833SOL    HW1 3398   0.272   5.366   0.686 -0.3298  0.7207  0.9660
  833SOL    HW2 3399   0.418   5.295   0.672 -0.8154 -0.0631 -0.3036
  834SOL     OW 3400   5.275   2.051   1.708  0.2345  0.0896  0.7215
  834SOL    HW1 3401   5.225   2.136   1.725 -1.5509 -0.7155 -0.2606
  834SOL    HW2 3402   5.272   1.995   1.791 -0.2331  0.1836  0.7730
  835SOL     OW 3403   4.081   4.796   3.910 -0.3450 -0.3336  0.4657
  835SOL    HW1 3404   4.001   4.841   3.871  0.1432 -0.2666 -0.4847
  835SOL    HW2 3405   4.062   4.698   3.920 -1.0103 -0.1143  1.5002
  836SOL     OW 3406   2.755   2.184   5.358 -0.0628 -0.7441  0.0727
  836SOL    HW1 3407   2.795   2.197   5.449  0.0095  0.4663 -0.1067
  836SOL    HW2 3408   2.800   2.247   5.294 -0.9988 -0.6682 -0.5215
  837SOL     OW 3409   1.351   0.236   2.173  0.4612 -0.2159 -0.3134
  837SOL    HW1 3410   1.270   0.294   2.165 -1.4700 -2.5001  1.3052
  837SOL    HW2 3411   1.375   0.227   2.270  2.5954  0.2590 -0.7563
  838SOL     OW 3412   2.153   5.887   4.356 -0.1569 -0.7996  0.0681
  838SOL    HW1 3413   2.058   5.908   4.330  0.4221  2.1671 -0.0633
  838SOL    HW2 3414   2.157   5.868   4.454 -0.6738  1.3906  0.5833
  839SOL     OW 3415   3.250   1.823   2.414 -0.6678  0.1145 -0.6863
  839SOL    HW1 3416   3.301   1.907   2.396  0.5693 -0.2987  0.6875
  839SOL    HW2 3417   3.289   1.748   2.362  0.5574 -0.3252  0.8188
  840SOL     OW 3418   6.857   5.125   1.188 -0.2544 -0.2489  0.1823
  840SOL    HW1 3419   6.766   5.153   1.222 -0.2958 -1.4327  1.1138
  840SOL    HW2 3420   6.847   5.070   1.105 -0.4523 -0.9467  0.6582
  841SOL     OW 3421   3.556   5.838   4.473 -0.1376 -0.6894 -0.4061
  841SOL    HW1 3422   3.496   5.850   4.394 -0.8906 -2.5960 -0.1748
  841SOL    HW2 3423   3.639   5.790   4.445 -0.5349 -1.6284 -0.0111
  842SOL     OW 3424   2.368   0.045   6.626 -0.1607 -0.4854 -0.1411
  842SOL    HW1 3425   2.294   0.077   6.566  1.2310  0.7281 -1.3029
  842SOL    HW2 3426   2.383  -0.052   6.611 -1.1943 -0.6299 -0.2671
  843SOL     OW 3427   1.999   1.065   2.909  0.7314 -0.4366 -0.1769
  843SOL    HW1 3428   2.091   1.024   2.915  0.1594 -1.5903  1.4871
  843SOL    HW2 3429   1.963   1.080   3.001 -0.8477 -0.2286 -0.7980
  844SOL     OW 3430   5.054   5.980   1.349 -0.1889 -0.1164  0.2383
  844SOL    HW1 3431   5.067   6.074   1.320  2.1502  0.0237  1.5202
  844SOL    HW2 3432   4.984   5.976   1.421  1.0079  0.9617  1.5103
  845SOL     OW 3433   3.772   0.945   1.159 -0.3002  0.3697  0.0565
  845SOL    HW1 3434   3.772   0.861   1.105 -1.5178  1.4256 -1.6985
  845SOL    HW2 3435   3.821   0.930   1.245  0.2151 -1.8728 -0.5720
  846SOL     OW 3436   2.999   2.660   6.848  0.5125 -0.1665  0.5210
  846SOL    HW1 3437   2.996   2.718   6.767 -3.1929  0.8406  1.1952
  846SOL    HW2 3438   3.025   2.715   6.928 -1.1097  0.2085  0.8335
  847SOL     OW 3439   2.827   4.309   1.242  0.2961 -0.5883 -0.1382
  847SOL    HW1 3440   2.926   4.316   1.245  0.5817 -1.4433 -3.3550
  847SOL    HW2 3441   2.793   4.349   1.156 -2.3405  1.0101  1.5096
  848SOL     OW 3442   5.284   6.514   5.428 -0.0426 -0.5184  0.2044
  848SOL    HW1 3443   5.229   6.497   5.347  0.6107 -0.3011 -0.2915
  848SOL    HW2 3444   5.246   6.463   5.506 -1.9404  0.9417  0.3064
  849SOL     OW 3445   4.357   2.667   0.181  0.1783  0.1485  0.2121
  849SOL    HW1 3446   4.389   2.754   0.144  0.7183  0.2445  0.8954
  849SOL    HW2 3447   4.328   2.608   0.105  0.5891  0.6138 -0.3157
  850SOL     OW 3448   6.319   1.157   6.211 -0.2444  0.3693 -0.2347
  850SOL    HW1 3449   6.399   1.100   6.188  0.3411  1.7377 -1.7961
  850SOL    HW2 3450   6.261   1.166   6.130  0.6488  3.4394 -0.6677
  851SOL     OW 3451   0.473   1.229   3.687  0.2042  0.4413 -0.3860
  851SOL    HW1 3452   0.467   1.313   3.633 -1.7971 -0.0251 -0.9593
  851SOL    HW2 3453   0.401   1.166   3.659  0.8168 -0.9301  0.9788
  852SOL     OW 3454   6.786   4.998   1.797 -0.0903  0.5981  0.2076
  852SOL    HW1 3455   6.859   5.062   1.822  2.1958 -0.8829 -2.1041
  852SOL    HW2 3456   6.699   5.047   1.792  1.4077  3.3828 -0.7137
  853SOL     OW 3457   2.422   4.602   0.992 -0.0304 -1.1026 -0.7649
  853SOL    HW1 3458   2.410   4.503   0.996  0.7791 -1.2666 -1.9676
  853SOL    HW2 3459   2.437   4.631   0.897  3.3922 -0.3134 -0.1450
  854SOL     OW 3460   6.321   6.970   5.241  0.0170 -0.0744 -0.1388
  854SOL    HW1 3461   6.273   6.883   5.254 -1.4775  0.9808  2.2300
  854SOL    HW2 3462   6.382   6.963   5.163 -0.0548 -3.2292 -0.0602
  855SOL     OW 3463   0.839   2.075   6.325 -0.4646 -0.4436 -0.4736
  855SOL    HW1 3464   0.851   2.125   6.240 -0.8959  1.0582  0.3286
  855SOL    HW2 3465   0.918   2.092   6.385 -1.0370 -0.0084  0.1584
  856SOL     OW 3466   0.737   5.437   6.251 -0.1506 -0.7439 -0.1389
  856SOL    HW1 3467   0.766   5.522   6.295 -1.1039 -0.2408 -0.4573
  856SOL    HW2 3468   0.643   5.416   6.277 -0.3740 -1.0006 -1.0943
  857SOL     OW 3469   1.666   3.865   4.979 -0.0798  0.1871 -0.3799
  857SOL    HW1 3470   1.700   3.785   5.028  0.7540  0.7011 -0.1008
  857SOL    HW2 3471   1.635   3.934   5.044 -2.4577 -0.5637 -0.6168
  858SOL     OW 3472   3.074   3.651   0.252  0.3135  0.1856  0.3803
  858SOL    HW1 3473   3.039   3.561   0.276  0.7198  0.1859  0.9902
  858SOL    HW2 3474   2.997   3.713   0.236  0.0351 -0.1425  0.4260
  859SOL     OW 3475   2.344   5.390   5.047  0.5359 -0.4679  0.0051
  859SOL    HW1 3476   2.311   5.391   4.952  0.2087  1.8093  0.0978
  859SOL    HW2 3477   2.443   5.395   5.047  0.4756  1.5645 -0.2629
  860SOL     OW 3478   4.669   1.517   0.049 -0.0280 -0.1810  0.3833
  860SOL    HW1 3479   4.666   1.615   0.028  0.8168  0.0924  1.4634
  860SOL    HW2 3480   4.576   1.483   0.064 -0.4509  0.1545 -1.2234
  861SOL     OW 3481   1.233   5.392   3.011  0.3802 -0.0600  0.4946
  861SOL    HW1 3482   1.312   5.405   3.070 -0.0738  1.9597  0.7403
  861SOL    HW2 3483   1.264   5.371   2.918  1.2610  1.5360  0.3927
  862SOL     OW 3484   1.727   2.555   3.457  0.8421 -0.1350  0.3581
  862SOL    HW1 3485   1.771   2.642   3.478 -1.5064  1.3878 -0.6032
  862SOL    HW2 3486   1.702   2.553   3.360  2.3119 -2.6421 -0.0621
  863SOL     OW 3487   5.693   2.123   1.023  0.5048 -0.8337 -0.4611
  863SOL    HW1 3488   5.790   2.144   1.024  0.2339  0.4622 -0.5004
  863SOL    HW2 3489   5.674   2.050   1.090  1.1189  0.7024  1.4831
  864SOL     OW 3490   3.049   0.657   5.542 -0.6353 -0.6358 -0.6297
  864SOL    HW1 3491   3.141   0.635   5.510 -1.1436 -2.7877 -0.7676
  864SOL    HW2 3492   2.999   0.703   5.469  0.8416  2.3142  0.0620
  865SOL     OW 3493   6.914   6.116   5.559  0.1044  0.9825 -0.0061
  865SOL    HW1 3494   6.973   6.191   5.589 -1.0579  1.2261  1.8843
  865SOL    HW2 3495   6.937   6.033   5.609 -0.4099  0.8000 -0.0638
  866SOL     OW 3496   2.151   6.305   0.460 -0.2022 -0.8826  0.4997
  866SOL    HW1 3497   2.227   6.248   0.428  0.3754 -1.4493  2.6655
  866SOL    HW2 3498   2.111   6.354   0.383  1.6262 -1.4362 -0.8862
  867SOL     OW 3499   6.207   2.854   2.613  0.1980  0.1432  0.0264
  867SOL    HW1 3500   6.296   2.869   2.657  1.0352 -1.4306 -1.0644
  867SOL    HW2 3501   6.162   2.776   2.655  0.0569 -0.0510 -0.4767
  868SOL     OW 3502   0.938   2.457   3.351 -0.2517  0.2194  0.2021
  868SOL    HW1 3503   0.925   2.358   3.340 -0.0999  0.3188 -0.9770
  868SOL    HW2 3504   1.035   2.475   3.369  0.0433  0.2601 -1.2766
  869SOL     OW 3505   0.888   4.221   3.905 -0.3931  0.1353  0.2844
  869SOL    HW1 3506   0.886   4.207   4.004 -0.0289  0.6530  0.3673
  869SOL    HW2 3507   0.959   4.288   3.882 -1.6837  1.3933 -0.1589
  870SOL     OW 3508   2.915   6.398   1.503  0.7023  0.3033  0.4291
  870SOL    HW1 3509   2.840   6.350   1.458 -0.2298  0.5916  1.6089
  870SOL    HW2 3510   2.953   6.340   1.575  0.1628  0.9523  1.2652
  871SOL     OW 3511   4.642   6.566   2.411  0.5729 -0.3326 -0.9528
  871SOL    HW1 3512   4.677   6.495   2.349 -0.8572 -2.0306  0.0750
  871SOL    HW2 3513   4.652   6.534   2.506  2.3382  2.0205 -0.2627
  872SOL     OW 3514   0.334   0.142   3.847  0.2943 -0.5712 -0.8101
  872SOL    HW1 3515   0.284   0.140   3.933  1.0260  0.2253 -0.3519
  872SOL    HW2 3516   0.269   0.132   3.771 -0.5266  0.0897 -0.2218
  873SOL     OW 3517   3.859   1.442   6.860 -0.1083  0.2538  0.3723
  873SOL    HW1 3518   3.940   1.461   6.917 -1.0741 -1.4650  2.4573
  873SOL    HW2 3519   3.779   1.432   6.918 -1.2295 -1.3409 -1.3249
  874SOL     OW 3520   5.283   3.314   5.812  0.0841  0.1830  0.2719
  874SOL    HW1 3521   5.250   3.405   5.839 -0.3043  0.1752 -0.1634
  874SOL    HW2 3522   5.218   3.272   5.749 -0.0198 -0.6450  0.9169
  875SOL     OW 3523   5.610   4.764   1.091  0.0964 -0.0898  0.2901
  875SOL    HW1 3524   5.564   4.846   1.127 -0.6917 -0.7766  0.8809
  875SOL    HW2 3525   5.675   4.731   1.159 -0.6794 -0.8167  0.6974
  876SOL     OW 3526   6.535   5.470   1.975 -0.0376 -0.8592  0.1832
  876SOL    HW1 3527   6.578   5.443   1.889 -1.3010 -0.7587 -0.4888
  876SOL    HW2 3528   6.449   5.517   1.957 -0.6054 -1.3211  1.5117
  877SOL     OW 3529   3.446   4.338   0.013  0.8637  0.2983 -0.1768
  877SOL    HW1 3530   3.427   4.425   0.057 -1.2238 -1.0608  1.8382
  877SOL    HW2 3531   3.383   4.325  -0.064 -2.1074 -1.2129  2.2750
  878SOL     OW 3532   4.485   6.428   4.138 -0.2273 -0.9316 -0.2620
  878SOL    HW1 3533   4.570   6.414   4.088  0.3338  0.7226  0.1564
  878SOL    HW2 3534   4.505   6.467   4.228 -1.2688 -2.9405  0.9117
  879SOL     OW 3535   3.569   0.382   1.471  0.8952 -0.0370 -0.6087
  879SOL    HW1 3536   3.582   0.290   1.434 -1.0088 -0.0489 -1.3684
  879SOL    HW2 3537   3.581   0.449   1.398  2.9453  0.4256  0.0805
  880SOL     OW 3538   3.437   4.153   4.589  0.0345  0.2036 -0.2295
  880SOL    HW1 3539   3.526   4.147   4.633 -0.0056  0.8676 -0.0548
  880SOL    HW2 3540   3.432   4.234   4.532 -0.2571 -0.1374 -0.7001
  881SOL     OW 3541   5.491   4.093   6.353 -0.7716  0.5782 -0.2050
  881SOL    HW1 3542   5.414   4.052   6.305  0.2350 -0.1083 -1.3087
  881SOL    HW2 3543   5.478   4.191   6.360 -1.3565  0.5841 -1.1553
  882SOL     OW 3544   1.278   1.948   4.830  0.3838 -0.1848  0.4691
  882SOL    HW1 3545   1.367   1.928   4.871 -0.2816 -0.5330  1.7991
  882SOL    HW2 3546   1.226   2.007   4.891 -0.5478 -0.4921 -0.0044
  883SOL     OW 3547   3.900   0.816   4.679  0.2604  0.6539 -0.5602
  883SOL    HW1 3548   3.904   0.894   4.617 -1.1522  0.3799 -1.0502
  883SOL    HW2 3549   3.872   0.847   4.770 -0.8161  0.6886 -0.8826
  884SOL     OW 3550   5.788   4.493   5.673  0.0401  0.1739  0.0890
  884SOL    HW1 3551   5.880   4.454   5.677  0.2866  0.7313 -0.0652
  884SOL    HW2 3552   5.722   4.421   5.650  0.4357 -0.2280  0.2030
  885SOL     OW 3553   2.848   6.690   0.424  0.4456  0.1831  0.2630
  885SOL    HW1 3554   2.924   6.755   0.409  0.8732 -0.2887  0.3555
  885SOL    HW2 3555   2.871   6.602   0.382  0.6396 -0.4436  1.6484
  886SOL     OW 3556   2.578   6.836   0.815 -0.3168 -0.0688 -0.3445
  886SOL    HW1 3557   2.482   6.857   0.793 -0.3202  0.8378  0.4493
  886SOL    HW2 3558   2.602   6.879   0.903  0.3851 -1.5548  0.2158
  887SOL     OW 3559   2.918   1.418   3.885  0.1631 -1.0098 -0.4552
  887SOL    HW1 3560   2.946   1.502   3.932  1.8799 -0.9938 -1.4391
  887SOL    HW2 3561   2.882   1.441   3.795  0.6422 -1.3261 -0.7285
  888SOL     OW 3562   3.362   6.791   5.226 -0.3293  0.1512 -0.3580
  888SOL    HW1 3563   3.404   6.849   5.156  3.4201 -1.3384  0.4069
  888SOL    HW2 3564   3.280   6.748   5.188 -0.3645  2.0228 -2.6295
  889SOL     OW 3565   0.168   4.055   1.059  0.1074  0.0340 -0.0148
  889SOL    HW1 3566   0.143   4.150   1.076  0.0063  0.3089 -1.6166
  889SOL    HW2 3567   0.090   3.996   1.082 -0.5219  0.5190 -0.8432
  890SOL     OW 3568   1.398   5.046   5.864 -0.3871 -0.1068 -0.4154
  890SOL    HW1 3569   1.404   5.146   5.860  0.3439 -0.1113  0.2741
  890SOL    HW2 3570   1.306   5.019   5.892 -0.0644  0.4485  1.3451
  891SOL     OW 3571   5.775   4.771   1.671  0.4761  0.1126 -0.1864
  891SOL    HW1 3572   5.710   4.815   1.609  0.5098 -0.3896 -0.5888
  891SOL    HW2 3573   5.861   4.753   1.623  0.7189  0.2749  0.1854
  892SOL     OW 3574   2.891   4.015   5.300 -0.3975  0.3523 -0.3324
  892SOL    HW1 3575   2.800   4.017   5.259 -1.0851  0.3286  1.1175
  892SOL    HW2 3576   2.912   3.921   5.327 -0.2241  0.4691 -0.0668
  893SOL     OW 3577   3.082   6.922   2.764 -0.0415 -1.0316 -0.4964
  893SOL    HW1 3578   3.064   7.011   2.722  0.0907 -0.4928  0.5522
  893SOL    HW2 3579   3.054   6.850   2.701 -0.1472 -0.2556 -1.3684
  894SOL     OW 3580   0.714   3.317   0.673  0.3114  0.3339  0.1829
  894SOL    HW1 3581   0.702   3.391   0.739 -2.5203 -0.1827  0.3703
  894SOL    HW2 3582   0.773   3.246   0.713 -0.6166  0.4362  1.8321
  895SOL     OW 3583   5.989   2.826   3.140  0.2716  0.3279 -0.0047
  895SOL    HW1 3584   6.048   2.758   3.183 -1.7923 -0.7038  1.3643
  895SOL    HW2 3585   5.969   2.899   3.206  0.0372  0.6916 -0.4705
  896SOL     OW 3586   4.983   4.809   6.157 -0.2671 -0.1750 -0.4228
  896SOL    HW1 3587   4.970   4.887   6.217 -2.0161 -0.5742 -0.2120
  896SOL    HW2 3588   5.013   4.730   6.210  0.1678 -0.0032 -0.4120
  897SOL     OW 3589   4.173   6.125   6.812 -0.2159 -0.0238  0.6080
  897SOL    HW1 3590   4.257   6.141   6.865 -0.2150  0.2911  0.5126
  897SOL    HW2 3591   4.099   6.099   6.874 -0.2993  0.6654  0.8119
  898SOL     OW 3592   4.133   6.340   1.332 -0.1314 -0.3634  0.1063
  898SOL    HW1 3593   4.113   6.243   1.313 -0.4847  0.1472 -2.5612
  898SOL    HW2 3594   4.047   6.390   1.343  0.0267 -0.1299  0.2905
  899SOL     OW 3595   0.622   4.736   6.128  0.0915 -0.6963 -0.2813
  899SOL    HW1 3596   0.580   4.798   6.061  0.8359 -0.0130 -0.1401
  899SOL    HW2 3597   0.624   4.780   6.217 -1.6409 -1.9264  0.4058
  900SOL     OW 3598   4.876   4.841   0.227  0.2699 -0.2644 -0.1623
  900SOL    HW1 3599   4.894   4.899   0.148  0.9863  1.2166  1.0354
  900SOL    HW2 3600   4.950   4.774   0.237  0.4427 -0.1209 -0.4709
  901SOL     OW 3601   3.747   0.513   0.777 -0.0851  0.0375 -0.6164
  901SOL    HW1 3602   3.655   0.547   0.759  0.1655  1.0183 -0.1148
  901SOL    HW2 3603   3.746   0.455   0.858 -0.2495  0.1293 -0.5517
  902SOL     OW 3604   5.017   3.607   0.492 -0.1455 -0.3075 -0.4384
  902SOL    HW1 3605   4.935   3.644   0.535 -0.2858 -0.6427 -0.4172
  902SOL    HW2 3606   4.991   3.551   0.413  0.0984  0.1498 -0.8484
  903SOL     OW 3607   6.070   1.123   6.059 -0.0912  0.2740 -0.2253
  903SOL    HW1 3608   6.011   1.133   5.979 -0.5932 -1.7795 -0.1424
  903SOL    HW2 3609   6.033   1.054   6.120  0.5684  1.4414  1.5625
  904SOL     OW 3610   2.834   0.416   3.274  0.3796  0.4970 -0.3316
  904SOL    HW1 3611   2.846   0.317   3.261 -1.7780  0.2543 -0.8385
  904SOL    HW2 3612   2.916   0.454   3.318  1.3271 -1.4656 -0.2847
  905SOL     OW 3613   3.752   2.197   6.871 -0.0510  0.5120 -0.2307
  905SOL    HW1 3614   3.684   2.227   6.803  1.5779 -0.0173 -2.1896
  905SOL    HW2 3615   3.823   2.143   6.825  1.5613  0.8114  1.7943
  906SOL     OW 3616   5.454   3.062   3.370  0.0519  0.7115 -0.0081
  906SOL    HW1 3617   5.544   3.100   3.350 -0.4578  1.4371 -0.9987
  906SOL    HW2 3618   5.402   3.052   3.285 -0.4410 -0.6576  0.4244
  907SOL     OW 3619   4.986   1.841   0.445 -0.0261 -0.0277  0.1726
  907SOL    HW1 3620   4.905   1.887   0.408  0.6604  1.0066 -0.0853
  907SOL    HW2 3621   5.064   1.903   0.441  1.1070 -1.4705 -0.8180
  908SOL     OW 3622   1.920   5.645   2.899  0.5160  0.4424 -0.3826
  908SOL    HW1 3623   1.959   5.555   2.881 -0.1605  0.1862 -0.6252
  908SOL    HW2 3624   1.942   5.706   2.823 -1.6063 -0.3989 -1.7884
  909SOL     OW 3625   5.463   6.574   6.336 -0.0132  0.1683  0.6562
  909SOL    HW1 3626   5.477   6.669   6.308 -1.5943  0.4206  0.6587
  909SOL    HW2 3627   5.383   6.536   6.290  2.3334 -2.2271 -1.8590
  910SOL     OW 3628   2.712   2.459   1.695  0.1664 -0.3880 -0.4993
  910SOL    HW1 3629   2.650   2.530   1.729 -1.3832 -1.3690 -1.1917
  910SOL    HW2 3630   2.798   2.463   1.747  0.9011  3.1480 -1.6808
  911SOL     OW 3631   1.436   5.487   5.344 -0.6119 -0.0059  0.3188
  911SOL    HW1 3632   1.420   5.393   5.376  0.8092 -0.2657  0.3134
  911SOL    HW2 3633   1.516   5.525   5.389  0.6408  0.1101 -1.8543
  912SOL     OW 3634   5.793   2.607   3.069  0.0182  0.1041 -0.2738
  912SOL    HW1 3635   5.717   2.609   3.134  0.3197  0.5785  0.0668
  912SOL    HW2 3636   5.846   2.691   3.077  0.6242 -0.2575 -0.4566
  913SOL     OW 3637   6.998   6.670   1.697  0.6804 -0.3045  0.0591
  913SOL    HW1 3638   7.021   6.753   1.648  0.3441  0.5492  1.3056
  913SOL    HW2 3639   6.915   6.630   1.658 -0.9571  1.6541  1.3540
  914SOL     OW 3640   3.392   6.968   6.896  0.0277 -0.2995  0.1164
  914SOL    HW1 3641   3.317   7.007   6.950 -1.5156 -0.9858 -1.4194
  914SOL    HW2 3642   3.369   6.975   6.799  2.2996  0.0843 -0.4372
  915SOL     OW 3643   5.017   3.309   5.615  0.5625 -0.1084 -0.4254
  915SOL    HW1 3644   5.019   3.241   5.542 -3.8756  0.7176 -1.6277
  915SOL    HW2 3645   5.027   3.401   5.575  0.3592  0.2225  0.2684
  916SOL     OW 3646   2.330   4.322   3.550  0.3438 -0.8976  0.1100
  916SOL    HW1 3647   2.376   4.377   3.480 -0.8324 -0.6252 -0.4703
  916SOL    HW2 3648   2.338   4.367   3.639 -0.5153  0.1912 -0.3377
  917SOL     OW 3649   0.566   0.562   0.003  0.3084  0.3065 -0.1153
  917SOL    HW1 3650   0.478   0.542  -0.040 -0.6510  1.6382  1.1223
  917SOL    HW2 3651   0.634   0.581  -0.068 -1.0779  1.8611 -1.1053
  918SOL     OW 3652   2.927   0.950   0.566  0.2994 -0.9423 -0.1773
  918SOL    HW1 3653   2.904   0.968   0.470 -0.7277  0.7059  0.3418
  918SOL    HW2 3654   2.931   0.851   0.581  0.2269 -1.2328 -1.8498
  919SOL     OW 3655   6.432   1.775   5.187 -0.3464  0.0132 -0.0634
  919SOL    HW1 3656   6.491   1.854   5.205 -0.1850  0.2123 -1.3942
  919SOL    HW2 3657   6.377   1.793   5.106 -0.0877 -1.3734 -0.5644
  920SOL     OW 3658   2.011   5.399   2.924 -0.0259 -0.2224  0.4156
  920SOL    HW1 3659   1.915   5.381   2.948  0.1637  0.1580  1.5240
  920SOL    HW2 3660   2.050   5.318   2.881 -1.0187 -0.1683 -0.6436
  921SOL     OW 3661   5.996   3.431   5.207 -0.2574  0.0280 -0.0250
  921SOL    HW1 3662   5.999   3.396   5.301 -0.6874  2.3191  0.9102
  921SOL    HW2 3663   6.090   3.450   5.176 -0.1833  0.6672  0.5474
  922SOL     OW 3664   2.770   2.431   6.012 -0.6544  0.1265 -0.4938
  922SOL    HW1 3665   2.703   2.406   5.941 -0.5483  1.6023 -1.1441
  922SOL    HW2 3666   2.789   2.529   6.006 -2.4757  0.8736  3.1260
  923SOL     OW 3667   2.256   4.050   5.912 -0.0976 -0.0869 -0.2085
  923SOL    HW1 3668   2.261   4.075   6.008 -0.1821  0.8920 -0.4493
  923SOL    HW2 3669   2.160   4.054   5.881 -0.0059  0.1242 -0.4664
  924SOL     OW 3670   0.492   3.893   1.825 -0.1304  0.2377 -0.0144
  924SOL    HW1 3671   0.487   3.933   1.733 -1.4829 -0.4134 -0.2598
  924SOL    HW2 3672   0.443   3.953   1.889 -0.9123 -0.2806 -0.1124
  925SOL     OW 3673   5.433   2.603   6.802  0.6066 -0.4076  0.0712
  925SOL    HW1 3674   5.449   2.680   6.864  2.7489 -1.0632  0.4298
  925SOL    HW2 3675   5.376   2.633   6.726  1.4320  1.5727  0.1658
  926SOL     OW 3676   5.927   2.509   1.473 -0.1036 -0.4296  0.7293
  926SOL    HW1 3677   6.025   2.519   1.456 -0.1135 -1.0813  0.2130
  926SOL    HW2 3678   5.876   2.551   1.398 -0.2491  0.7879  1.4867
  927SOL     OW 3679   5.414   4.889   5.040 -0.1655 -0.3388  0.7063
  927SOL    HW1 3680   5.396   4.791   5.043  2.3849 -0.8724  1.1722
  927SOL    HW2 3681   5.464   4.916   5.123  1.3600  0.8324 -0.5304
  928SOL     OW 3682   0.409   5.516   6.693 -0.8347  0.2757  0.5088
  928SOL    HW1 3683   0.416   5.615   6.682 -1.1515  0.1658 -0.8611
  928SOL    HW2 3684   0.487   5.482   6.744 -1.2609  1.3550  1.9361
  929SOL     OW 3685   5.741   1.928   0.275 -0.1438 -0.4604  0.3029
  929SOL    HW1 3686   5.756   1.871   0.356 -1.9669 -0.7681  0.4521
  929SOL    HW2 3687   5.784   1.885   0.196  2.0561  0.0618  1.1082
  930SOL     OW 3688   4.312   6.567   6.589  0.5098  0.4286 -0.2715
  930SOL    HW1 3689   4.229   6.533   6.544  0.5374  0.4506 -0.3401
  930SOL    HW2 3690   4.358   6.632   6.528  1.3051 -0.6127 -0.8292
  931SOL     OW 3691   0.011   0.279   4.836 -0.9907  0.0445 -0.2811
  931SOL    HW1 3692  -0.079   0.312   4.863 -0.9201  0.3079 -0.3717
  931SOL    HW2 3693   0.037   0.202   4.895 -1.7610 -0.7687 -0.9794
  932SOL     OW 3694   3.431   1.431   2.911 -0.0508 -0.1228  0.2128
  932SOL    HW1 3695   3.347   1.384   2.884 -0.9549  0.9095  1.1142
  932SOL    HW2 3696   3.505   1.365   2.920 -1.1690 -1.3143  1.0009
  933SOL     OW 3697   2.023   4.923   4.406 -0.1121 -0.2921 -0.6594
  933SOL    HW1 3698   2.042   4.931   4.309 -0.8911  0.3138 -0.7774
  933SOL    HW2 3699   1.924   4.916   4.420  0.0357 -1.2355  0.0371
  934SOL     OW 3700   3.661   5.069   0.470 -0.4936  0.3692 -0.2668
  934SOL    HW1 3701   3.695   4.978   0.493 -0.4131  0.6472  0.7791
  934SOL    HW2 3702   3.563   5.075   0.490 -0.2159  0.9250  1.0434
  935SOL     OW 3703   6.558   5.356   4.538  0.0092  0.3038 -0.1078
  935SOL    HW1 3704   6.608   5.395   4.615  0.5403  0.7282 -0.6557
  935SOL    HW2 3705   6.494   5.286   4.571  0.0515  0.6570  0.7332
  936SOL     OW 3706   1.513   1.442   4.699  0.7937 -0.6764 -0.1497
  936SOL    HW1 3707   1.489   1.537   4.718 -1.1154 -1.2053  0.2265
  936SOL    HW2 3708   1.555   1.402   4.780 -0.7816 -0.8724  0.6026
  937SOL     OW 3709   3.090   6.869   4.931 -0.0627 -0.0260  0.0458
  937SOL    HW1 3710   3.062   6.814   5.010  0.1149 -0.7001 -0.3474
  937SOL    HW2 3711   3.031   6.950   4.924  0.7843  0.7639  1.6494
  938SOL     OW 3712   6.468   5.323   4.195  0.4056 -0.0895 -0.3071
  938SOL    HW1 3713   6.377   5.282   4.208 -0.4195  0.8341 -2.6585
  938SOL    HW2 3714   6.533   5.277   4.255 -1.3492 -1.6721  0.5182
  939SOL     OW 3715   0.521   4.466   4.839 -0.5067  0.4477  0.2499
  939SOL    HW1 3716   0.528   4.368   4.820  2.4199  0.9516 -2.0002
  939SOL    HW2 3717   0.535   4.517   4.754 -0.0946  2.8422  1.6818
  940SOL     OW 3718   6.977   4.265   0.984  0.3360 -0.3443  0.9417
  940SOL    HW1 3719   6.998   4.255   0.887  1.8137 -0.5446  1.2613
  940SOL    HW2 3720   6.892   4.216   1.005 -1.3530  1.6757 -0.6813
  941SOL     OW 3721   3.534   1.721   4.130 -0.0482  0.1861 -0.4562
  941SOL    HW1 3722   3.573   1.630   4.113  0.6318  0.2526  0.6677
  941SOL    HW2 3723   3.557   1.750   4.223 -2.7442  0.2513  0.2727
  942SOL     OW 3724   6.046   0.508   0.249  0.0953 -0.1635  0.0944
  942SOL    HW1 3725   5.947   0.526   0.244  0.0725  0.0818  1.2120
  942SOL    HW2 3726   6.095   0.586   0.210 -0.1438 -0.1113 -0.1090
  943SOL     OW 3727   1.442   4.698   3.983  0.3992 -0.1071 -0.3219
  943SOL    HW1 3728   1.346   4.704   4.012  0.5843  0.2326  0.2227
  943SOL    HW2 3729   1.464   4.775   3.924  0.7621  0.6885  0.8174
  944SOL     OW 3730   0.263   4.466   5.220  0.6714 -0.0783  0.5516
  944SOL    HW1 3731   0.204   4.498   5.295  0.7788  0.8652  0.2448
  944SOL    HW2 3732   0.354   4.505   5.230  0.3986  0.9172 -0.6362
  945SOL     OW 3733   6.664   0.159   4.273  0.3306 -0.0176  0.1987
  945SOL    HW1 3734   6.692   0.078   4.325 -1.0272 -0.6945 -0.0916
  945SOL    HW2 3735   6.606   0.131   4.196 -0.0726  1.2203  0.0359
  946SOL     OW 3736   3.038   5.901   5.540 -0.1455 -0.6501 -0.2852
  946SOL    HW1 3737   2.984   5.973   5.495 -1.1253 -1.0067  0.2779
  946SOL    HW2 3738   3.012   5.812   5.502 -1.4836 -1.0287  1.3895
  947SOL     OW 3739   3.267   3.963   3.812  0.1563 -0.7708 -0.3218
  947SOL    HW1 3740   3.294   3.866   3.809 -0.0520 -0.8028 -2.1504
  947SOL    HW2 3741   3.188   3.973   3.873 -0.8277 -2.0454 -1.3323
  948SOL     OW 3742   4.043   1.916   1.814  0.4593 -0.2645 -0.2149
  948SOL    HW1 3743   4.011   2.007   1.840  1.2319 -0.3970  1.3503
  948SOL    HW2 3744   3.965   1.858   1.792 -0.6430 -0.7734  4.1341
  949SOL     OW 3745   1.735   6.508   1.333  0.6702 -0.0874  0.2938
  949SOL    HW1 3746   1.806   6.440   1.316  0.9358  0.4336 -0.7982
  949SOL    HW2 3747   1.705   6.547   1.245 -1.2874 -0.6067  0.6822
  950SOL     OW 3748   0.761   4.393   0.964 -0.1434 -0.0856 -0.1486
  950SOL    HW1 3749   0.715   4.466   0.914  4.0377  3.1395  0.2265
  950SOL    HW2 3750   0.803   4.330   0.899  0.0010  0.4638 -0.5934
  951SOL     OW 3751   4.041   6.300   5.024  0.3801  0.2467  0.3564
  951SOL    HW1 3752   4.034   6.365   4.949 -1.8164  1.3773  1.4461
  951SOL    HW2 3753   3.955   6.250   5.032 -0.1211  1.3873  3.1386
  952SOL     OW 3754   5.555   0.943   1.817 -0.0342  0.4477 -0.2690
  952SOL    HW1 3755   5.535   0.974   1.724 -0.2794  1.8079  0.2260
  952SOL    HW2 3756   5.625   1.002   1.858 -0.0273 -0.0533  0.4649
  953SOL     OW 3757   6.376   6.942   5.923  0.0724  0.2224 -0.1877
  953SOL    HW1 3758   6.311   6.993   5.867 -0.1322 -1.3426 -1.4351
  953SOL    HW2 3759   6.349   6.846   5.927  0.7592  0.0535  1.6351
  954SOL     OW 3760   5.329   4.998   2.316 -0.2330  0.2589 -0.1293
  954SOL    HW1 3761   5.427   5.002   2.300 -0.4497 -0.3727 -1.8071
  954SOL    HW2 3762   5.310   4.945   2.399  0.8538  0.9587  0.5804
  955SOL     OW 3763   0.792   4.455   5.343  0.4969 -0.2102 -0.2998
  955SOL    HW1 3764   0.835   4.532   5.391  0.2097  0.0983 -0.5383
  955SOL    HW2 3765   0.732   4.490   5.271  0.1482 -0.6525 -0.2220
  956SOL     OW 3766   6.493   0.491   2.096 -0.5505  0.0271 -0.3668
  956SOL    HW1 3767   6.588   0.498   2.125 -0.4363 -1.7684 -0.2366
  956SOL    HW2 3768   6.485   0.523   2.001  0.4275 -1.0080 -0.8135
  957SOL     OW 3769   6.106   3.622   0.873 -0.1734 -0.9713 -0.4609
  957SOL    HW1 3770   6.045   3.591   0.946  1.1335 -0.7026  0.8117
  957SOL    HW2 3771   6.131   3.717   0.888 -0.5401 -0.6485 -1.7640
  958SOL     OW 3772   4.677   5.501   0.752  0.1981 -0.3500  0.0774
  958SOL    HW1 3773   4.653   5.592   0.720  0.5871  0.0622  0.9049
  958SOL    HW2 3774   4.669   5.498   0.852  2.1969 -0.5778  0.2745
  959SOL     OW 3775   5.193   6.657   4.707 -0.7751  0.5005  1.1575
  959SOL    HW1 3776   5.210   6.655   4.609 -3.3094 -0.7977  0.6691
  959SOL    HW2 3777   5.264   6.712   4.752  2.2912 -1.4377 -0.9510
  960SOL     OW 3778   2.638   0.131   6.119 -0.3806 -0.3029  0.4792
  960SOL    HW1 3779   2.604   0.082   6.200 -0.6680  0.9204  1.1180
  960SOL    HW2 3780   2.674   0.220   6.146 -0.6715  0.2122 -0.7703
  961SOL     OW 3781   2.042   4.106   1.578 -0.0214  0.5670 -0.3945
  961SOL    HW1 3782   2.104   4.171   1.535 -1.3122  1.4712 -0.9381
  961SOL    HW2 3783   2.074   4.087   1.672  0.9615  1.1270 -0.5959
  962SOL     OW 3784   5.222   0.409   3.621 -0.6548 -0.3499  0.5330
  962SOL    HW1 3785   5.154   0.482   3.611 -1.6964 -1.4036 -0.2874
  962SOL    HW2 3786   5.301   0.430   3.563 -1.0878 -0.0360  0.0455
  963SOL     OW 3787   5.677   2.852   1.000  0.4180 -0.3120 -0.0870
  963SOL    HW1 3788   5.664   2.951   1.010  0.4281 -0.3283  0.0877
  963SOL    HW2 3789   5.764   2.826   1.042 -0.6077 -0.7405  1.9306
  964SOL     OW 3790   6.032   3.839   3.832  0.1548 -0.0175  0.2025
  964SOL    HW1 3791   6.128   3.810   3.832 -0.0470 -0.7216 -0.6847
  964SOL    HW2 3792   6.023   3.924   3.884  1.2741  0.1189  0.2001
  965SOL     OW 3793   4.914   1.182   2.416 -0.6760  0.3590 -0.0623
  965SOL    HW1 3794   4.830   1.235   2.409 -1.4642 -0.7122  0.8500
  965SOL    HW2 3795   4.897   1.100   2.471  0.7105 -0.4039 -0.7264
  966SOL     OW 3796   4.507   1.330   4.109  0.4412  0.4011  0.3073
  966SOL    HW1 3797   4.555   1.407   4.068  0.5229  0.8739  1.2620
  966SOL    HW2 3798   4.516   1.334   4.208 -1.2909  0.3243  0.4941
  967SOL     OW 3799   3.977   3.264   5.502 -0.7707 -0.1822  0.5598
  967SOL    HW1 3800   3.968   3.205   5.422 -3.0401 -0.9623  1.2986
  967SOL    HW2 3801   4.023   3.349   5.477 -0.3196 -0.9199 -1.2599
  968SOL     OW 3802   3.781   6.739   1.234  0.2698  0.1532  0.5556
  968SOL    HW1 3803   3.696   6.752   1.284 -0.2902 -0.3918 -0.2243
  968SOL    HW2 3804   3.780   6.796   1.151  1.4129  1.4640  1.3913
  969SOL     OW 3805   3.826   3.547   5.389  0.4498  0.7313  0.0049
  969SOL    HW1 3806   3.729   3.526   5.376  0.5418 -4.6531  4.4740
  969SOL    HW2 3807   3.840   3.587   5.479  2.4860  0.7915 -0.2905
  970SOL     OW 3808   4.714   1.689   5.339  0.1852 -0.2317 -0.3638
  970SOL    HW1 3809   4.795   1.709   5.395 -0.1331 -0.1232  0.0621
  970SOL    HW2 3810   4.688   1.593   5.351  0.1128 -0.2064 -0.3138
  971SOL     OW 3811   6.298   4.121   2.866 -0.3672 -0.3469  0.2486
  971SOL    HW1 3812   6.218   4.079   2.910 -0.2215  0.2792  1.1399
  971SOL    HW2 3813   6.337   4.189   2.927  0.9062 -0.6989 -0.1522
  972SOL     OW 3814   6.723   2.706   5.914 -0.2079  0.3517  0.2640
  972SOL    HW1 3815   6.736   2.729   5.817 -2.5385  0.4933 -0.0828
  972SOL    HW2 3816   6.792   2.639   5.942 -0.0829 -0.4520 -1.7767
  973SOL     OW 3817   1.551   3.130   6.550  0.0853 -0.0116 -0.2952
  973SOL    HW1 3818   1.571   3.033   6.539  0.3043 -0.3113  2.0645
  973SOL    HW2 3819   1.621   3.172   6.609 -0.8377  1.2102 -0.0207
  974SOL     OW 3820   0.335   5.501   3.681  0.1004  0.6697  0.2116
  974SOL    HW1 3821   0.402   5.436   3.646 -1.7812 -0.9399 -0.5939
  974SOL    HW2 3822   0.354   5.518   3.778  0.6711 -1.1143  0.4598
  975SOL     OW 3823   3.113   6.495   2.066 -0.5807  0.0719  0.2941
  975SOL    HW1 3824   3.016   6.518   2.059 -0.0512  2.4264 -0.3191
  975SOL    HW2 3825   3.147   6.519   2.157 -0.3422  0.2516  0.1586
  976SOL     OW 3826   1.662   5.165   3.996  0.4564 -0.3025  0.0223
  976SOL    HW1 3827   1.621   5.135   4.082 -0.0627 -0.2873 -0.2148
  976SOL    HW2 3828   1.648   5.095   3.927  0.6750 -0.2167 -0.1097
  977SOL     OW 3829   1.722   0.267   1.858 -0.1454  0.1359  0.0208
  977SOL    HW1 3830   1.651   0.298   1.921  0.4770  0.3208  0.6488
  977SOL    HW2 3831   1.797   0.334   1.857  0.1256 -0.1660 -0.4515
  978SOL     OW 3832   6.232   2.646   1.765 -0.0695  0.6659  0.4651
  978SOL    HW1 3833   6.293   2.725   1.756  0.4994  0.1749 -0.0621
  978SOL    HW2 3834   6.287   2.562   1.771 -0.6596  0.3138  1.1635
  979SOL     OW 3835   0.421   2.679   6.196  0.0169  0.2771 -0.2500
  979SOL    HW1 3836   0.409   2.776   6.215 -0.2153 -0.0865  1.5895
  979SOL    HW2 3837   0.424   2.627   6.281  2.3265 -1.1053 -1.0706
  980SOL     OW 3838   3.380   0.317   4.631  0.0940 -0.5396  0.3524
  980SOL    HW1 3839   3.436   0.400   4.631  1.6086 -1.5207 -0.5634
  980SOL    HW2 3840   3.337   0.306   4.541 -2.4609  0.7100  1.3132
  981SOL     OW 3841   5.437   0.239   5.961  0.5779 -0.5052 -0.5565
  981SOL    HW1 3842   5.437   0.258   6.059 -2.0416 -1.1648 -0.3514
  981SOL    HW2 3843   5.462   0.143   5.946 -0.0389 -0.7003 -0.4053
  982SOL     OW 3844   0.074   2.907   5.413  0.1951 -0.1814  0.9464
  982SOL    HW1 3845   0.138   2.873   5.344 -0.4696 -1.5812  0.9755
  982SOL    HW2 3846   0.102   2.875   5.504 -1.7217 -2.8483  0.7269
  983SOL     OW 3847   0.703   3.877   3.033 -0.5983 -0.2304 -1.0820
  983SOL    HW1 3848   0.621   3.921   3.069 -1.5499 -0.7346 -2.5253
  983SOL    HW2 3849   0.679   3.826   2.950  0.5459 -2.9029  0.0973
  984SOL     OW 3850   0.951   0.228   2.347  0.0776  0.1093  0.1458
  984SOL    HW1 3851   0.964   0.130   2.334  1.4886  0.0666  1.5327
  984SOL    HW2 3852   0.904   0.267   2.268 -2.2163 -1.9716  0.3548
  985SOL     OW 3853   6.332   4.263   3.455 -0.4129  0.1528 -0.3417
  985SOL    HW1 3854   6.317   4.303   3.364  3.2039  0.5397 -0.8993
  985SOL    HW2 3855   6.310   4.166   3.453  0.3663 -0.0163 -1.8871
  986SOL     OW 3856   2.981   3.810   2.120 -0.7578  0.0441  0.1906
  986SOL    HW1 3857   2.960   3.863   2.038  0.6653  0.7941  0.2746
  986SOL    HW2 3858   3.010   3.872   2.193 -1.5271 -0.6569  1.1159
  987SOL     OW 3859   6.569   5.533   3.672  0.4860 -0.1585 -0.5973
  987SOL    HW1 3860   6.640   5.553   3.740  0.2641 -0.0757 -0.3903
  987SOL    HW2 3861   6.593   5.449   3.624  0.0364 -0.8944  0.4279
  988SOL     OW 3862   3.807   4.423   1.344  0.1563 -0.4028  0.3186
  988SOL    HW1 3863   3.854   4.511   1.353 -0.7309  0.1535 -0.2842
  988SOL    HW2 3864   3.821   4.369   1.427  2.0646 -0.3787  0.0502
  989SOL     OW 3865   1.775   1.741   0.298 -0.0004 -0.7711  0.5536
  989SOL    HW1 3866   1.779   1.767   0.394  1.2888 -0.5787  0.4629
  989SOL    HW2 3867   1.681   1.745   0.266 -0.2559  0.5664  1.4207
  990SOL     OW 3868   4.328   0.198   3.717 -0.7044 -0.4635  0.1766
  990SOL    HW1 3869   4.268   0.256   3.661 -0.5658 -1.6168 -1.2088
  990SOL    HW2 3870   4.417   0.243   3.727 -0.7948 -0.1544 -0.3630
  991SOL     OW 3871   0.027   2.820   4.997  0.0907 -0.6080 -0.3681
  991SOL    HW1 3872  -0.009   2.757   4.927  1.4448 -0.5234 -1.1699
  991SOL    HW2 3873   0.075   2.895   4.952 -0.1787  0.1870  0.6381
  992SOL     OW 3874   6.972   5.127   1.953 -0.4862  0.0212  0.2621
  992SOL    HW1 3875   6.957   5.222   1.982  0.9805 -0.0485  1.3289
  992SOL    HW2 3876   7.023   5.078   2.024  2.9627 -0.2784 -2.2097
  993SOL     OW 3877   1.345   4.360   0.837 -0.6817 -0.6797 -0.0905
  993SOL    HW1 3878   1.291   4.426   0.785  0.7674 -0.0477 -0.8376
  993SOL    HW2 3879   1.418   4.407   0.886  0.5328 -1.7190 -0.8274
  994SOL     OW 3880   3.857   5.235   1.954  0.0503  0.2004 -0.2703
  994SOL    HW1 3881   3.874   5.137   1.961  1.3533  0.4299  0.2030
  994SOL    HW2 3882   3.848   5.261   1.857 -0.0995 -0.3552 -0.4066
  995SOL     OW 3883   0.609   4.628   5.838 -0.4246 -0.4611  0.3209
  995SOL    HW1 3884   0.616   4.629   5.937  0.9869 -0.9423  0.2481
  995SOL    HW2 3885   0.630   4.537   5.803  0.4761  0.0312 -0.4888
  996SOL     OW 3886   5.595   0.479   3.279 -0.3569 -0.6950  0.2674
  996SOL    HW1 3887   5.628   0.434   3.197  0.4666 -1.0997  0.7988
  996SOL    HW2 3888   5.671   0.491   3.343 -1.3693 -2.3790  1.8825
  997SOL     OW 3889   0.637   5.057   3.815  0.4165  0.1398  0.5253
  997SOL    HW1 3890   0.664   5.119   3.742  0.3138 -2.0699 -1.5062
  997SOL    HW2 3891   0.704   5.061   3.889  2.3318  0.0899 -1.1404
  998SOL     OW 3892   6.985   1.805   0.415 -0.3313  0.2681 -0.1801
  998SOL    HW1 3893   6.936   1.719   0.407 -1.3453  0.7098  0.9771
  998SOL    HW2 3894   6.995   1.846   0.324 -2.3301  0.2772 -0.4375
  999SOL     OW 3895   5.029   4.431   1.391  0.1146  0.2815 -0.2057
  999SOL    HW1 3896   4.957   4.369   1.421  1.7460 -0.3395  2.8051
  999SOL    HW2 3897   5.109   4.377   1.361  0.6868  0.9296  0.1311
 1000SOL     OW 3898   4.596   1.505   1.088  0.7562  0.0608 -0.3428
 1000SOL    HW1 3899   4.541   1.491   1.171 -0.7027 -2.0583 -1.5729
 1000SOL    HW2 3900   4.535   1.519   1.010  2.1034  1.6953 -1.1568
 1001SOL     OW 3901   3.485   0.743   2.000 -0.4073 -0.1079  0.0068
 1001SOL    HW1 3902   3.412   0.718   2.063  1.0474 -1.9630  1.0621
 1001SOL    HW2 3903   3.574   0.738   2.046  0.4346  2.4330 -1.1291
 1002SOL     OW 3904   5.154   4.690   1.295 -0.0316  0.2361 -0.3209
 1002SOL    HW1 3905   5.097   4.611   1.317  0.2697  0.2671  0.5755
 1002SOL    HW2 3906   5.186   4.682   1.200  0.9580 -1.3218  0.1066
 1003SOL     OW 3907   2.227   6.201   3.459  0.2896 -0.3224 -0.1411
 1003SOL    HW1 3908   2.276   6.148   3.529 -0.9078 -2.1479 -0.6142
 1003SOL    HW2 3909   2.187   6.282   3.501  0.9326 -0.5475  0.9509
 1004SOL     OW 3910   0.598   1.285   3.937  0.3018  0.8705 -0.2507
 1004SOL    HW1 3911   0.569   1.313   4.029  0.1956 -0.1598  0.0392
 1004SOL    HW2 3912   0.517   1.272   3.879  0.2328 -0.4691  0.1093
 1005SOL     OW 3913   1.617   4.348   3.674 -0.5093  0.5141 -0.0059
 1005SOL    HW1 3914   1.712   4.322   3.655 -0.3654 -0.1974  1.5212
 1005SOL    HW2 3915   1.614   4.444   3.703 -0.1247  0.3169  0.7251
 1006SOL     OW 3916   1.795   4.457   0.352  0.2909  0.5872 -0.4461
 1006SOL    HW1 3917   1.697   4.450   0.339  0.1109  1.4390  0.3367
 1006SOL    HW2 3918   1.843   4.411   0.277 -0.6909  1.4301 -1.6215
 1007SOL     OW 3919   2.708   2.083   5.816  0.1238 -0.3209 -0.3788
 1007SOL    HW1 3920   2.723   2.031   5.900  1.5972  0.8007  0.0844
 1007SOL    HW2 3921   2.626   2.139   5.825  0.9290  0.7110  0.8117
 1008SOL     OW 3922   6.534   4.537   4.581 -0.1106  0.1804 -0.4062
 1008SOL    HW1 3923   6.592   4.611   4.545  0.8725  0.2340  1.1626
 1008SOL    HW2 3924   6.448   4.576   4.615  0.7320  0.7845  1.1521
 1009SOL     OW 3925   6.781   4.491   0.374  0.3771  0.4108  0.1928
 1009SOL    HW1 3926   6.697   4.473   0.323 -0.2317  2.6728  0.2605
 1009SOL    HW2 3927   6.861   4.464   0.320 -0.2919  1.7645 -1.5702
 1010SOL     OW 3928   2.992   2.043   1.600 -0.5746 -0.5219 -0.7936
 1010SOL    HW1 3929   3.013   1.952   1.635  1.6010 -0.1514 -0.9951
 1010SOL    HW2 3930   2.962   2.102   1.676 -4.0854 -1.8524 -0.9599
 1011SOL     OW 3931   0.254   5.784   2.164 -0.0325 -0.1618  0.1079
 1011SOL    HW1 3932   0.267   5.789   2.065 -1.3515 -0.0030 -0.0663
 1011SOL    HW2 3933   0.171   5.733   2.185  0.4558 -0.5610  1.1583
 1012SOL     OW 3934   5.801   6.777   2.391  0.3133 -0.0528  0.6662
 1012SOL    HW1 3935   5.821   6.774   2.293 -0.7750  0.5693  0.4029
 1012SOL    HW2 3936   5.752   6.862   2.413 -0.0767 -0.5009  1.6229
 1013SOL     OW 3937   0.483   2.719   5.923  0.1695  0.1452  0.1692
 1013SOL    HW1 3938   0.516   2.627   5.903 -2.5734 -0.6477 -1.1591
 1013SOL    HW2 3939   0.483   2.734   6.022 -1.2035 -2.0679  0.5614
 1014SOL     OW 3940   0.442   4.490   3.578  0.0656 -0.0982  0.4556
 1014SOL    HW1 3941   0.487   4.536   3.501 -0.6826 -0.3071 -0.1169
 1014SOL    HW2 3942   0.508   4.478   3.652  0.7535  0.2667 -0.0795
 1015SOL     OW 3943   3.745   0.080   6.633  0.5935 -0.4855  0.1456
 1015SOL    HW1 3944   3.772   0.150   6.567  1.6495 -1.0949 -0.0918
 1015SOL    HW2 3945   3.700   0.004   6.585 -1.4801  0.4271  0.5121
 1016SOL     OW 3946   4.900   2.643   6.903  0.7164  0.7846  0.2978
 1016SOL    HW1 3947   4.912   2.545   6.916  1.4081  1.0774  2.0402
 1016SOL    HW2 3948   4.802   2.664   6.897  0.5556  0.0344  0.2159
 1017SOL     OW 3949   2.005   0.976   2.135 -0.3403 -0.0799 -0.2233
 1017SOL    HW1 3950   1.927   0.921   2.106  0.2479 -2.1686  1.8642
 1017SOL    HW2 3951   2.076   0.972   2.064 -0.4449 -1.8186 -0.2776
 1018SOL     OW 3952   6.453   5.677   4.556 -0.4036  0.2678  0.5479
 1018SOL    HW1 3953   6.455   5.581   4.585 -0.7571  0.2394  0.4843
 1018SOL    HW2 3954   6.368   5.695   4.507 -0.2118  0.5450  0.3145
 1019SOL     OW 3955   6.877   4.521   1.078 -0.0157 -0.0411  0.6322
 1019SOL    HW1 3956   6.897   4.539   0.982 -1.4604  1.2168  0.5330
 1019SOL    HW2 3957   6.930   4.442   1.109  1.9956  0.7439 -0.6206
 1020SOL     OW 3958   6.862   0.428   0.690 -0.2330 -0.4110 -0.4118
 1020SOL    HW1 3959   6.909   0.352   0.646  0.0357 -0.9295  0.7263
 1020SOL    HW2 3960   6.921   0.467   0.761 -0.4743  0.6919 -0.7968
 1021SOL     OW 3961   0.115   5.793   0.990 -0.0780 -0.3155  0.0603
 1021SOL    HW1 3962   0.054   5.801   1.068 -0.0378 -2.2870  0.3369
 1021SOL    HW2 3963   0.197   5.743   1.017  0.5855  0.2138 -0.9089
 1022SOL     OW 3964   1.421   6.813   5.088 -0.3697 -0.1284 -0.3056
 1022SOL    HW1 3965   1.423   6.904   5.129 -0.0704 -0.4256  0.3701
 1022SOL    HW2 3966   1.476   6.812   5.005 -0.4122  0.3139 -0.3415
 1023SOL     OW 3967   0.792   6.697   2.578  0.5938  0.2963 -0.3391
 1023SOL    HW1 3968   0.742   6.720   2.495 -0.3934 -1.2018 -0.1984
 1023SOL    HW2 3969   0.731   6.648   2.641  1.6009  0.5226  0.8449
 1024SOL     OW 3970   0.132   0.127   3.644 -0.0736 -0.3464 -0.2599
 1024SOL    HW1 3971   0.090   0.102   3.557 -1.1740 -0.2824  0.2312
 1024SOL    HW2 3972   0.062   0.165   3.705  0.6575 -0.4784  0.6855
 1025SOL     OW 3973   4.928   3.966   5.727 -0.1764 -0.2561  0.5752
 1025SOL    HW1 3974   4.947   4.064   5.720 -1.7444  0.0035 -0.3542
 1025SOL    HW2 3975   4.926   3.926   5.635 -0.0011 -1.0834  0.9233
 1026SOL     OW 3976   1.886   2.454   1.855 -0.3505 -0.1331  0.2646
 1026SOL    HW1 3977   1.970   2.499   1.885 -0.5901 -0.7744  2.0775
 1026SOL    HW2 3978   1.808   2.515   1.871 -0.2221  0.6684 -1.9113
 1027SOL     OW 3979   1.595   0.928   0.215  0.2501 -0.2289  0.1535
 1027SOL    HW1 3980   1.603   1.021   0.178 -0.9356 -0.3125 -0.3746
 1027SOL    HW2 3981   1.660   0.916   0.290  0.3825  1.0394  0.2641
 1028SOL     OW 3982   0.531   0.364   2.730  0.6217  0.3039 -0.2680
 1028SOL    HW1 3983   0.609   0.327   2.680  0.4760 -1.0926  0.4980
 1028SOL    HW2 3984   0.455   0.382   2.666  0.4245 -1.4768 -0.5788
 1029SOL     OW 3985   1.492   2.374   5.977  0.3267 -0.2857 -0.3277
 1029SOL    HW1 3986   1.509   2.359   5.880  1.2763  1.1787 -0.4180
 1029SOL    HW2 3987   1.565   2.330   6.031  0.0583 -0.6938 -0.2915
 1030SOL     OW 3988   3.044   2.614   0.758 -0.3670 -0.3112 -0.2379
 1030SOL    HW1 3989   3.143   2.616   0.766 -0.3816  0.0241 -0.1087
 1030SOL    HW2 3990   3.016   2.664   0.675 -0.4407 -0.1634 -0.1253
 1031SOL     OW 3991   1.784   3.251   6.788 -0.2283 -0.3300  0.2621
 1031SOL    HW1 3992   1.821   3.224   6.877 -2.4360  1.1715  1.7217
 1031SOL    HW2 3993   1.814   3.343   6.766 -2.5078  0.7305  1.2526
 1032SOL     OW 3994   2.020   1.970   5.235 -0.0216  1.1364  0.3581
 1032SOL    HW1 3995   2.050   2.030   5.161 -0.0986  0.3803 -0.2922
 1032SOL    HW2 3996   1.929   1.934   5.214  0.3759  0.1090  0.3227
 1033SOL     OW 3997   6.888   6.283   3.392  0.1882  0.7311  0.1132
 1033SOL    HW1 3998   6.887   6.200   3.335  1.7116  1.1574 -0.5875
 1033SOL    HW2 3999   6.827   6.270   3.470  1.4843 -1.6441  0.8418
 1034SOL     OW 4000   4.341   6.032   5.361  0.0728  0.3200  0.0674
 1034SOL    HW1 4001   4.419   6.030   5.298  0.0636  0.1656  0.0602
 1034SOL    HW2 4002   4.344   6.117   5.415 -0.0780  0.5853 -0.3403
 1035SOL     OW 4003   0.246   2.544   5.998 -0.0616  0.0389  0.1407
 1035SOL    HW1 4004   0.294   2.616   6.049  0.7055 -0.1433 -0.2990
 1035SOL    HW2 4005   0.314   2.480   5.960 -0.6838 -0.4146 -0.2173
 1036SOL     OW 4006   4.840   0.621   1.803 -0.2734  0.1199  0.3127
 1036SOL    HW1 4007   4.873   0.650   1.713  0.8250 -0.1284  0.6204
 1036SOL    HW2 4008   4.743   0.646   1.813 -0.4399  0.0554 -0.9695
 1037SOL     OW 4009   3.250   2.098   3.149  1.1054 -0.0953 -0.3268
 1037SOL    HW1 4010   3.177   2.160   3.178  0.3322 -2.1955  2.6932
 1037SOL    HW2 4011   3.235   2.071   3.054 -1.7186  0.0036  0.0205
 1038SOL     OW 4012   0.976   0.593   6.731 -0.2685 -0.2913 -0.0635
 1038SOL    HW1 4013   0.983   0.567   6.634  2.2804  0.8290 -0.2717
 1038SOL    HW2 4014   1.047   0.544   6.783  0.1069  1.0693  0.7463
 1039SOL     OW 4015   2.789   3.743   5.325  0.0264 -0.3451 -0.0915
 1039SOL    HW1 4016   2.823   3.651   5.306 -1.0177 -0.8518  0.4040
 1039SOL    HW2 4017   2.693   3.749   5.298  0.1208  0.6531 -0.2522
 1040SOL     OW 4018   4.448   5.924   3.425  0.7022  0.1723 -0.0466
 1040SOL    HW1 4019   4.448   6.021   3.402  1.5205  0.1792 -0.0334
 1040SOL    HW2 4020   4.372   5.905   3.488  0.2531  0.7079 -0.4232
 1041SOL     OW 4021   6.272   1.251   5.891  0.2812  0.6268  0.2859
 1041SOL    HW1 4022   6.211   1.177   5.922 -0.2675  0.9968  0.1167
 1041SOL    HW2 4023   6.289   1.313   5.967 -0.9122  1.4308 -0.0729
 1042SOL     OW 4024   3.194   4.832   1.715 -0.2029  0.5043  0.1728
 1042SOL    HW1 4025   3.242   4.920   1.712 -0.5162  0.8283  2.5007
 1042SOL    HW2 4026   3.261   4.758   1.720  0.0636  0.6761 -0.7859
 1043SOL     OW 4027   4.830   0.708   3.526 -0.0583 -0.1283 -0.5054
 1043SOL    HW1 4028   4.847   0.645   3.450 -0.4226  0.2432 -0.8970
 1043SOL    HW2 4029   4.734   0.737   3.525  0.3019  1.1245 -0.8621
 1044SOL     OW 4030   1.347   6.311   2.054  0.1145 -0.0302 -0.0435
 1044SOL    HW1 4031   1.282   6.342   2.124  1.4429 -0.2640  1.3515
 1044SOL    HW2 4032   1.400   6.234   2.089  1.1569  0.1637 -1.1224
 1045SOL     OW 4033   0.508   1.048   4.211 -0.2164 -0.4393 -0.3995
 1045SOL    HW1 4034   0.466   1.113   4.147 -0.2744  0.1135  0.1900
 1045SOL    HW2 4035   0.480   1.071   4.305  0.3417 -0.8813 -0.1199
 1046SOL     OW 4036   2.532   3.055   1.392  0.2011  0.2349 -0.1311
 1046SOL    HW1 4037   2.532   3.155   1.392  1.4861  0.2556  0.2692
 1046SOL    HW2 4038   2.478   3.022   1.315  0.8889  1.2505 -1.0801
 1047SOL     OW 4039   4.445   0.298   4.127  0.3446  1.1459 -0.0431
 1047SOL    HW1 4040   4.356   0.308   4.081  0.7023  0.4722 -0.9283
 1047SOL    HW2 4041   4.497   0.225   4.082  1.0538  1.0276  0.9370
 1048SOL     OW 4042   1.889   6.158   2.154 -0.6013 -0.2892 -0.1556
 1048SOL    HW1 4043   1.895   6.218   2.234  0.5914  1.4740 -1.4841
 1048SOL    HW2 4044   1.812   6.186   2.098  1.2673  1.6581 -1.9458
 1049SOL     OW 4045   5.150   6.778   5.304 -0.5509 -0.8166 -0.4435
 1049SOL    HW1 4046   5.071   6.748   5.250  0.0855 -0.3703 -1.6513
 1049SOL    HW2 4047   5.216   6.703   5.311 -0.1464 -0.5335 -1.2115
 1050SOL     OW 4048   5.005   5.801   4.283 -0.2440  0.0939  0.4030
 1050SOL    HW1 4049   5.053   5.865   4.343  0.6704  0.1055 -0.3299
 1050SOL    HW2 4050   4.993   5.841   4.193 -0.7642 -0.2957  0.2936
 1051SOL     OW 4051   6.097   6.583   1.176 -0.0889 -0.5976  0.1871
 1051SOL    HW1 4052   6.191   6.553   1.187  0.8011  1.6463 -0.7285
 1051SOL    HW2 4053   6.062   6.552   1.087  1.4394  2.2945 -1.5772
 1052SOL     OW 4054   1.415   0.068   4.512 -0.1585 -0.5044  0.0844
 1052SOL    HW1 4055   1.324   0.081   4.553 -1.7465 -1.9839 -2.6588
 1052SOL    HW2 4056   1.407   0.007   4.433  2.9641  0.6715 -1.2973
 1053SOL     OW 4057   6.916   2.924   1.907 -0.0897 -0.2491 -0.6442
 1053SOL    HW1 4058   6.916   2.921   2.007  1.7530  0.5522 -0.5816
 1053SOL    HW2 4059   6.823   2.942   1.874 -0.5172  0.7149  0.9802
 1054SOL     OW 4060   4.509   6.417   2.105  0.4919 -0.1978  0.3930
 1054SOL    HW1 4061   4.492   6.386   2.199 -0.3694 -0.4763  0.1493
 1054SOL    HW2 4062   4.520   6.338   2.045 -2.8219 -0.1799 -0.4368
 1055SOL     OW 4063   6.131   5.864   6.229 -0.8149  0.5183 -0.2032
 1055SOL    HW1 4064   6.174   5.778   6.257  0.2826  0.9818 -0.4204
 1055SOL    HW2 4065   6.064   5.846   6.157 -0.7890 -0.1836 -0.0583
 1056SOL     OW 4066   1.099   4.009   1.302 -0.3026 -0.3974 -0.4217
 1056SOL    HW1 4067   1.112   4.101   1.339  0.1944  0.1684 -1.9423
 1056SOL    HW2 4068   1.041   4.013   1.221  1.0912 -1.1817 -1.4982
 1057SOL     OW 4069   3.038   2.555   1.694 -0.0996 -0.0093 -0.1153
 1057SOL    HW1 4070   3.002   2.527   1.783  1.2261  3.3967  1.6920
 1057SOL    HW2 4071   2.969   2.608   1.646  0.0283  0.3101  0.0500
 1058SOL     OW 4072   2.768   2.305   4.645  0.3965 -0.3795  0.1280
 1058SOL    HW1 4073   2.862   2.271   4.633  0.8289  1.1101 -1.0038
 1058SOL    HW2 4074   2.760   2.349   4.734  0.3151 -1.8499  0.8763
 1059SOL     OW 4075   1.981   1.020   3.748  0.2150  0.6696 -1.1376
 1059SOL    HW1 4076   2.078   1.004   3.732 -0.0160 -2.4877 -0.1911
 1059SOL    HW2 4077   1.969   1.069   3.835  0.9844 -0.1241 -0.5600
 1060SOL     OW 4078   0.710   5.319   4.982  0.1574 -0.1392 -0.0250
 1060SOL    HW1 4079   0.615   5.288   4.991  0.8219 -2.1794  0.3639
 1060SOL    HW2 4080   0.772   5.248   5.014  1.8246  1.5653  0.7083
 1061SOL     OW 4081   0.582   2.996   0.418  0.2058 -0.0057  0.5797
 1061SOL    HW1 4082   0.663   2.950   0.381  0.4778  1.3560 -0.6061
 1061SOL    HW2 4083   0.592   3.095   0.406 -1.7335  0.1822  0.1882
 1062SOL     OW 4084   4.237   5.638   4.654 -0.0706  0.1523  0.5048
 1062SOL    HW1 4085   4.183   5.703   4.602 -1.2438 -1.2805 -0.1629
 1062SOL    HW2 4086   4.178   5.589   4.719  0.7450 -0.3167  0.9200
 1063SOL     OW 4087   1.233   0.980   4.324 -0.6509 -0.1421  0.1513
 1063SOL    HW1 4088   1.310   1.035   4.357 -1.0191  0.0349  0.7240
 1063SOL    HW2 4089   1.185   1.029   4.252  0.2344 -0.5838 -0.7692
 1064SOL     OW 4090   6.199   5.494   0.810  0.4142  0.3641 -0.3189
 1064SOL    HW1 4091   6.233   5.424   0.873  0.4676 -0.8977 -1.6830
 1064SOL    HW2 4092   6.246   5.580   0.827  0.8397 -0.0977  0.9653
 1065SOL     OW 4093   2.806   6.222   4.254 -0.1366  0.3450  0.3842
 1065SOL    HW1 4094   2.793   6.267   4.165 -0.1081  2.8342  1.5413
 1065SOL    HW2 4095   2.902   6.196   4.264 -0.3119 -0.7787 -0.6371
 1066SOL     OW 4096   3.289   6.556   2.923  0.6297 -0.4598 -0.4662
 1066SOL    HW1 4097   3.214   6.611   2.961  0.6364 -0.6968 -0.1077
 1066SOL    HW2 4098   3.352   6.616   2.873  1.2137  0.0296  0.8171
 1067SOL     OW 4099   5.004   1.960   0.147  0.1087  0.1493  0.0148
 1067SOL    HW1 4100   5.028   2.017   0.226 -1.4774 -1.0197  1.3941
 1067SOL    HW2 4101   4.924   1.905   0.168  0.8191 -1.6813 -1.7280
 1068SOL     OW 4102   4.728   3.202   0.674 -0.8666  0.5108 -0.9418
 1068SOL    HW1 4103   4.645   3.224   0.624 -2.1348 -1.2320  0.2996
 1068SOL    HW2 4104   4.794   3.158   0.613 -0.3845  2.7439 -2.1633
 1069SOL     OW 4105   6.041   5.236   1.685 -0.2409  0.0715  0.5528
 1069SOL    HW1 4106   6.076   5.169   1.619  0.7400  1.0890  0.0066
 1069SOL    HW2 4107   5.943   5.221   1.699  0.1699 -2.3213  1.4660
 1070SOL     OW 4108   2.049   0.501   2.619 -0.2344  0.2606 -0.0159
 1070SOL    HW1 4109   2.073   0.574   2.684  0.0296 -1.0071  1.3569
 1070SOL    HW2 4110   2.133   0.459   2.585 -0.4028 -0.3558  0.3225
 1071SOL     OW 4111   5.299   2.850   6.265  0.0465 -0.5183 -0.0248
 1071SOL    HW1 4112   5.348   2.765   6.279  0.5598 -0.1605  0.3850
 1071SOL    HW2 4113   5.285   2.896   6.353  1.4712  0.7418 -0.4193
 1072SOL     OW 4114   2.310   0.162   0.582 -0.0507  0.3349 -0.1500
 1072SOL    HW1 4115   2.371   0.239   0.564 -1.3822  1.4147 -0.2171
 1072SOL    HW2 4116   2.227   0.171   0.528 -0.7758 -0.4928  0.7666
 1073SOL     OW 4117   6.276   3.417   4.352 -0.1065  0.0812  0.4264
 1073SOL    HW1 4118   6.201   3.450   4.294  1.7058 -0.3061 -2.2968
 1073SOL    HW2 4119   6.275   3.317   4.354  0.5299  0.0677  0.1054
 1074SOL     OW 4120   3.114   4.949   2.408  0.7682  0.1182 -0.4089
 1074SOL    HW1 4121   3.202   4.908   2.431 -0.2183 -2.6720 -1.2434
 1074SOL    HW2 4122   3.102   5.034   2.460  3.5847  0.1980  0.2663
 1075SOL     OW 4123   5.483   0.794   3.998  0.3526  0.3010  0.6918
 1075SOL    HW1 4124   5.559   0.743   3.957  1.5525  0.6984  2.2977
 1075SOL    HW2 4125   5.465   0.876   3.943  0.9208  0.0698  0.1452
 1076SOL     OW 4126   1.565   4.084   5.124 -0.0813  0.1053 -0.0547
 1076SOL    HW1 4127   1.539   4.106   5.218 -1.2589  2.1276 -0.7939
 1076SOL    HW2 4128   1.484   4.082   5.067  0.8485  1.5426 -1.5032
 1077SOL     OW 4129   0.496   1.149   1.096  0.5074  0.1660  0.2839
 1077SOL    HW1 4130   0.560   1.078   1.068  0.6489 -0.4617  2.0356
 1077SOL    HW2 4131   0.535   1.199   1.174  0.1331  1.7496 -0.5204
 1078SOL     OW 4132   0.981   0.777   4.126  0.0522  0.1501  1.2495
 1078SOL    HW1 4133   0.883   0.780   4.146 -0.1269  2.2108  0.3156
 1078SOL    HW2 4134   1.030   0.740   4.205 -1.4837 -1.3127  1.5716
 1079SOL     OW 4135   1.217   4.487   2.903 -0.0068 -0.1442  0.0768
 1079SOL    HW1 4136   1.181   4.510   2.812  0.3530  0.0989 -0.0087
 1079SOL    HW2 4137   1.170   4.541   2.972 -2.7976 -2.7849  0.4625
 1080SOL     OW 4138   2.198   4.028   5.322 -0.2839  0.0727 -0.3015
 1080SOL    HW1 4139   2.224   4.099   5.387 -0.9177  0.3048 -0.3034
 1080SOL    HW2 4140   2.275   4.010   5.261  0.1890  0.1149  0.2670
 1081SOL     OW 4141   4.721   6.168   3.973  0.0514 -0.2128 -0.2625
 1081SOL    HW1 4142   4.787   6.144   3.902 -1.5143 -1.1405 -1.4771
 1081SOL    HW2 4143   4.731   6.105   4.050  1.5794  0.6315  0.2730
 1082SOL     OW 4144   6.460   0.455   4.822  0.4916  0.0971  0.5190
 1082SOL    HW1 4145   6.387   0.402   4.777 -1.0216  0.9411  1.8722
 1082SOL    HW2 4146   6.485   0.411   4.908  0.3105  0.7461  0.9088
 1083SOL     OW 4147   4.939   4.499   1.125  0.1031  0.6413  0.0452
 1083SOL    HW1 4148   4.925   4.597   1.132 -0.4208  0.6051 -0.4172
 1083SOL    HW2 4149   4.945   4.459   1.217 -0.2392  1.0299  0.2377
 1084SOL     OW 4150   6.512   1.316   5.275 -0.1653  0.0609  0.4334
 1084SOL    HW1 4151   6.508   1.362   5.363  2.9925  1.2666  0.0928
 1084SOL    HW2 4152   6.545   1.223   5.287  2.7655  1.0042  0.4543
 1085SOL     OW 4153   2.678   3.306   6.027  0.0102  0.3746 -0.1205
 1085SOL    HW1 4154   2.618   3.385   6.039  1.4449  1.7476 -1.5503
 1085SOL    HW2 4155   2.671   3.273   5.933  0.5409 -0.2758  0.0632
 1086SOL     OW 4156   6.919   4.806   6.191 -0.5939 -0.1481  0.4015
 1086SOL    HW1 4157   6.989   4.744   6.227 -0.5866 -0.6735 -0.4974
 1086SOL    HW2 4158   6.941   4.831   6.097 -0.9256  0.7433  0.5512
 1087SOL     OW 4159   6.506   1.129   3.721 -0.1774  0.8494  0.3321
 1087SOL    HW1 4160   6.423   1.158   3.769  0.5951 -1.3172  3.3330
 1087SOL    HW2 4161   6.583   1.132   3.785  1.4558  0.0582 -1.5296
 1088SOL     OW 4162   6.844   4.785   5.155 -0.0823  0.2294 -0.6360
 1088SOL    HW1 4163   6.790   4.742   5.083 -1.5872  1.2076 -0.1355
 1088SOL    HW2 4164   6.878   4.873   5.123 -1.1338  0.8742 -0.0278
 1089SOL     OW 4165   0.771   3.002   4.570  0.4411 -0.1642 -0.1192
 1089SOL    HW1 4166   0.838   3.042   4.633  0.4423 -0.3552  0.0014
 1089SOL    HW2 4167   0.684   2.988   4.617 -0.0802  1.2611 -0.6173
 1090SOL     OW 4168   5.666   2.323   4.486 -0.3112  0.4131  0.7461
 1090SOL    HW1 4169   5.741   2.307   4.551  0.3491 -0.8088 -0.2804
 1090SOL    HW2 4170   5.601   2.247   4.491 -0.7716  0.7987  0.6631
 1091SOL     OW 4171   0.197   0.891   0.722  0.8360 -0.6528  0.7504
 1091SOL    HW1 4172   0.124   0.956   0.698  0.2663 -0.4200  2.8584
 1091SOL    HW2 4173   0.194   0.875   0.821  1.4506 -3.3303  0.3874
 1092SOL     OW 4174   0.800   4.786   0.348  0.4822 -0.0547 -0.4200
 1092SOL    HW1 4175   0.757   4.871   0.316 -0.5068  0.0721  1.1046
 1092SOL    HW2 4176   0.735   4.710   0.337 -0.1439  0.0951  1.6887
 1093SOL     OW 4177   3.015   0.446   1.442  0.0954 -0.3012  0.5739
 1093SOL    HW1 4178   3.051   0.469   1.532 -0.7994 -2.5810  1.5772
 1093SOL    HW2 4179   2.916   0.435   1.446 -0.0724  0.3424 -0.8980
 1094SOL     OW 4180   0.984   5.823   2.284  0.2635 -0.4812 -0.2838
 1094SOL    HW1 4181   1.036   5.896   2.330  0.3115 -0.3049 -0.6149
 1094SOL    HW2 4182   0.933   5.862   2.208 -1.7881 -0.3251  1.1038
 1095SOL     OW 4183   0.458   4.236   6.507  0.2522 -0.0986  0.3651
 1095SOL    HW1 4184   0.525   4.229   6.580  0.5152  0.3011  0.1678
 1095SOL    HW2 4185   0.409   4.149   6.497  0.8020 -0.4196  0.4527
 1096SOL     OW 4186   2.634   6.028   1.218  0.0550 -0.4543 -0.3281
 1096SOL    HW1 4187   2.586   6.080   1.148  1.1539  1.9279  0.5715
 1096SOL    HW2 4188   2.592   5.937   1.227 -3.3239  0.9367 -0.5771
 1097SOL     OW 4189   1.818   6.866   3.246 -0.3581 -0.1472  0.3907
 1097SOL    HW1 4190   1.841   6.963   3.235 -1.3182 -0.0341 -0.7412
 1097SOL    HW2 4191   1.720   6.853   3.233 -0.3521 -1.1882  1.2363
 1098SOL     OW 4192   6.351   5.187   6.471 -0.0300 -0.3123 -0.6187
 1098SOL    HW1 4193   6.369   5.090   6.459 -1.6330 -0.7275 -0.0360
 1098SOL    HW2 4194   6.345   5.208   6.569  1.3369  0.5988 -0.7114
 1099SOL     OW 4195   5.141   1.098   6.853  0.5122 -0.2606  0.5034
 1099SOL    HW1 4196   5.234   1.062   6.856  0.5174 -0.2686  0.2330
 1099SOL    HW2 4197   5.140   1.185   6.804  0.5790  0.3529  1.5515
 1100SOL     OW 4198   4.924   2.395   4.555 -0.4497 -0.3258  0.2832
 1100SOL    HW1 4199   4.951   2.463   4.488 -2.3408 -0.4550 -0.6751
 1100SOL    HW2 4200   5.001   2.334   4.574  0.3568  0.1991 -1.1506
 1101SOL     OW 4201   6.464   3.805   3.571  0.0841  0.0311  0.7907
 1101SOL    HW1 4202   6.562   3.818   3.561  0.2065 -0.6468  1.0393
 1101SOL    HW2 4203   6.442   3.784   3.666 -0.0546 -1.6199  0.4377
 1102SOL     OW 4204   2.065   2.005   3.810 -0.2269 -0.4566 -0.0790
 1102SOL    HW1 4205   2.112   2.069   3.870 -0.2988 -0.6042  0.1358
 1102SOL    HW2 4206   1.967   2.010   3.827 -0.5016  1.2025 -1.8165
 1103SOL     OW 4207   2.953   0.257   0.368  0.1358  0.5351 -0.0185
 1103SOL    HW1 4208   3.028   0.192   0.383 -0.1556  0.7721  3.1599
 1103SOL    HW2 4209   2.959   0.331   0.435 -2.4226  1.0347 -0.2408
 1104SOL     OW 4210   6.353   4.731   3.222 -0.3596  0.2075  0.2268
 1104SOL    HW1 4211   6.349   4.796   3.299 -1.6386 -1.1886  1.3983
 1104SOL    HW2 4212   6.297   4.766   3.147 -1.5315  0.2312  1.0686
 1105SOL     OW 4213   3.744   2.157   3.995  0.3113 -0.1395  0.7415
 1105SOL    HW1 4214   3.786   2.091   3.933  1.1771 -0.8104  2.0038
 1105SOL    HW2 4215   3.646   2.136   4.005  0.4475 -0.8411  0.6277
 1106SOL     OW 4216   1.838   0.654   0.807 -0.3940 -0.4668  0.1339
 1106SOL    HW1 4217   1.853   0.753   0.808 -4.2269  0.2475  1.0248
 1106SOL    HW2 4218   1.791   0.627   0.724 -0.7622 -1.2791  0.5897
 1107SOL     OW 4219   2.313   1.997   6.344  0.4979 -0.7794  0.4212
 1107SOL    HW1 4220   2.376   1.920   6.331  0.8609 -0.5718  0.9136
 1107SOL    HW2 4221   2.310   2.052   6.261  0.8450 -0.8872  0.3347
 1108SOL     OW 4222   4.526   5.613   4.110  0.0682 -0.0517  0.0572
 1108SOL    HW1 4223   4.609   5.604   4.056 -0.4344  0.0061 -0.7440
 1108SOL    HW2 4224   4.466   5.535   4.092  0.1188 -0.3023  0.9396
 1109SOL     OW 4225   6.765   0.972   2.058  0.0826  0.1678  0.0798
 1109SOL    HW1 4226   6.790   1.056   2.106 -0.5202  0.4607 -0.1080
 1109SOL    HW2 4227   6.841   0.943   2.000  0.2216  0.7016 -0.0148
 1110SOL     OW 4228   4.427   6.724   1.312 -0.1566 -0.5729  0.0655
 1110SOL    HW1 4229   4.432   6.624   1.317  1.2006 -0.5181  0.1974
 1110SOL    HW2 4230   4.420   6.751   1.216  1.2046 -0.7630 -0.1118
 1111SOL     OW 4231   4.125   3.578   4.407 -0.4611 -0.4785  0.1911
 1111SOL    HW1 4232   4.146   3.485   4.376  1.3050  0.2525 -0.9315
 1111SOL    HW2 4233   4.118   3.578   4.507  2.3361 -1.3433  0.4688
 1112SOL     OW 4234   0.240   1.418   3.100  0.3175  0.0309  0.0617
 1112SOL    HW1 4235   0.317   1.373   3.144  0.8046  1.3222  0.5690
 1112SOL    HW2 4236   0.273   1.497   3.047 -0.3591 -0.8901 -1.8503
 1113SOL     OW 4237   0.552   4.405   2.441 -0.6810  0.1109 -0.1676
 1113SOL    HW1 4238   0.615   4.482   2.427 -0.9310  0.5248  0.9236
 1113SOL    HW2 4239   0.498   4.391   2.358 -0.6349  1.1228 -0.3813
 1114SOL     OW 4240   3.362   3.275   5.679 -0.1232 -0.2918  0.3183
 1114SOL    HW1 4241   3.331   3.291   5.772 -1.7865 -3.1983  0.3955
 1114SOL    HW2 4242   3.310   3.200   5.639  1.9066 -0.4837 -2.2734
 1115SOL     OW 4243   2.515   4.077   6.665  0.0443  0.2008  0.4529
 1115SOL    HW1 4244   2.490   4.050   6.758 -0.7105  1.9137  0.7818
 1115SOL    HW2 4245   2.571   4.160   6.668  1.5324 -0.7359 -0.5545
 1116SOL     OW 4246   5.215   6.163   6.956  0.1201  0.0173  0.6774
 1116SOL    HW1 4247   5.174   6.239   6.905  0.2448  0.7199  1.5939
 1116SOL    HW2 4248   5.144   6.117   7.010 -0.1228 -1.0902 -0.5344
 1117SOL     OW 4249   2.187   3.170   1.833 -0.6069  0.0250 -0.2777
 1117SOL    HW1 4250   2.158   3.215   1.918 -1.3022 -0.2886 -0.3391
 1117SOL    HW2 4251   2.201   3.239   1.763  1.0305  0.3944  0.3711
 1118SOL     OW 4252   4.091   0.308   5.432 -0.5779  0.5623  0.0768
 1118SOL    HW1 4253   4.118   0.378   5.366  0.1623 -0.0068 -0.2409
 1118SOL    HW2 4254   4.062   0.226   5.383  1.1360 -0.2960  0.4328
 1119SOL     OW 4255   4.584   4.616   4.547  0.4067 -0.0021  0.2311
 1119SOL    HW1 4256   4.646   4.683   4.506 -0.6048  0.1747 -1.0974
 1119SOL    HW2 4257   4.521   4.662   4.609  1.4107 -0.1464  1.3925
 1120SOL     OW 4258   6.602   5.366   1.710 -0.1472 -0.3155  0.1770
 1120SOL    HW1 4259   6.682   5.314   1.679 -0.4700 -0.4807 -0.4110
 1120SOL    HW2 4260   6.571   5.426   1.636 -0.6233 -0.3283  0.3642
 1121SOL     OW 4261   0.495   5.215   6.396 -0.3182 -0.1540 -0.0336
 1121SOL    HW1 4262   0.506   5.181   6.303  2.8212 -3.0547  1.1743
 1121SOL    HW2 4263   0.489   5.138   6.459  1.0368  1.6137  2.4536
 1122SOL     OW 4264   0.483   1.935   3.047 -0.0166 -0.1605 -0.3219
 1122SOL    HW1 4265   0.478   2.030   3.079 -1.2714 -0.2385 -0.2223
 1122SOL    HW2 4266   0.449   1.874   3.118 -1.2854 -0.4760 -1.1532
 1123SOL     OW 4267   4.422   2.472   3.050 -0.4221  0.2701  0.3431
 1123SOL    HW1 4268   4.339   2.424   3.020  0.4591 -0.0613 -1.7590
 1123SOL    HW2 4269   4.434   2.554   2.995  0.7434  0.1994  0.4651
 1124SOL     OW 4270   1.433   4.225   3.846 -0.0225 -0.6857  0.4683
 1124SOL    HW1 4271   1.462   4.280   3.924  0.6127 -0.1190 -0.1538
 1124SOL    HW2 4272   1.473   4.261   3.762 -1.9307 -0.3243 -0.3521
 1125SOL     OW 4273   6.502   4.127   3.705 -0.1316  0.8188 -0.0063
 1125SOL    HW1 4274   6.592   4.104   3.667  0.0566  0.7437  0.4689
 1125SOL    HW2 4275   6.451   4.183   3.639  0.6977  1.7952  0.1402
 1126SOL     OW 4276   4.766   6.204   6.780 -0.7302 -0.1786 -0.4386
 1126SOL    HW1 4277   4.692   6.144   6.749 -0.4000 -1.0063  0.3140
 1126SOL    HW2 4278   4.788   6.269   6.708 -0.9092 -1.1458 -1.4036
 1127SOL     OW 4279   5.379   6.460   2.417  0.1819 -0.4890  0.1439
 1127SOL    HW1 4280   5.468   6.498   2.440  0.4621 -1.6510  1.0725
 1127SOL    HW2 4281   5.368   6.371   2.462 -1.6354 -0.1403  0.4758
 1128SOL     OW 4282   4.829   1.481   3.545  0.2905  0.3045  0.2687
 1128SOL    HW1 4283   4.852   1.563   3.493  0.3635  0.6687  0.8745
 1128SOL    HW2 4284   4.730   1.476   3.557 -0.0278 -1.2234 -2.2735
 1129SOL     OW 4285   2.312   0.387   1.978 -0.3364  0.1587  0.2193
 1129SOL    HW1 4286   2.245   0.339   2.035  1.7620 -1.3702  1.5285
 1129SOL    HW2 4287   2.339   0.327   1.902 -0.3916  0.7411 -0.2674
 1130SOL     OW 4288   1.268   5.398   1.369 -0.0067  0.4145 -0.0470
 1130SOL    HW1 4289   1.306   5.309   1.344 -0.9345 -0.2634  0.8878
 1130SOL    HW2 4290   1.297   5.422   1.462 -0.1726  0.8561 -0.1046
 1131SOL     OW 4291   1.001   1.518   4.589 -0.3412  0.1504 -0.2600
 1131SOL    HW1 4292   1.081   1.461   4.608 -0.6899 -0.7825 -1.4983
 1131SOL    HW2 4293   0.998   1.593   4.655  0.0037 -1.3587  1.5798
 1132SOL     OW 4294   4.936   2.475   1.946 -0.0505  0.5374 -0.2273
 1132SOL    HW1 4295   4.879   2.470   1.864 -0.4096  0.2121  0.0362
 1132SOL    HW2 4296   5.022   2.522   1.925  1.0849 -1.8959 -1.5165
 1133SOL     OW 4297   0.129   5.375   4.209  0.2279 -0.5458  0.0141
 1133SOL    HW1 4298   0.148   5.312   4.135  1.7244 -1.2190  0.9348
 1133SOL    HW2 4299   0.214   5.397   4.258 -0.2056  2.2148 -0.2788
 1134SOL     OW 4300   4.073   0.187   2.853 -0.4245 -0.1615  0.1161
 1134SOL    HW1 4301   4.131   0.122   2.902 -1.0386 -0.2967  0.6829
 1134SOL    HW2 4302   4.118   0.215   2.768 -0.3025 -1.6178 -0.3384
 1135SOL     OW 4303   1.952   6.410   5.002  0.0316  0.3457 -0.2094
 1135SOL    HW1 4304   2.012   6.399   5.081  0.1245 -1.4639 -0.4999
 1135SOL    HW2 4305   1.858   6.424   5.033  0.2885  1.2023  0.2189
 1136SOL     OW 4306   3.161   5.893   2.251 -0.2147 -0.0385 -0.5972
 1136SOL    HW1 4307   3.204   5.901   2.341  1.1267  0.6452 -1.2627
 1136SOL    HW2 4308   3.227   5.920   2.181 -0.7217 -1.9880 -1.9079
 1137SOL     OW 4309   0.030   5.885   6.408 -0.2911 -0.3290  0.2858
 1137SOL    HW1 4310  -0.014   5.798   6.387 -1.8593  0.3024  0.8188
 1137SOL    HW2 4311   0.126   5.869   6.432 -0.7218 -1.9818  1.0589
 1138SOL     OW 4312   2.835   1.706   6.218  0.0785 -0.2745 -0.6099
 1138SOL    HW1 4313   2.762   1.692   6.285 -0.2512  1.4614 -0.5620
 1138SOL    HW2 4314   2.885   1.789   6.241  0.7387 -0.3122 -1.8382
 1139SOL     OW 4315   1.729   4.498   3.911  0.0916  0.1338  0.0329
 1139SOL    HW1 4316   1.636   4.512   3.876 -0.3091 -0.6115  0.7619
 1139SOL    HW2 4317   1.748   4.400   3.915  0.6553  0.2651  0.5571
 1140SOL     OW 4318   1.921   0.076   2.156  0.2360 -0.1588 -0.1916
 1140SOL    HW1 4319   1.937  -0.019   2.183  0.1618  0.0387  0.5801
 1140SOL    HW2 4320   1.822   0.093   2.156  0.2907  0.3681  1.3624
 1141SOL     OW 4321   5.125   6.297   5.158  0.3502  0.4278 -0.0524
 1141SOL    HW1 4322   5.199   6.272   5.219  0.4783  0.5397 -0.1624
 1141SOL    HW2 4323   5.053   6.343   5.210  0.3491  0.3023  0.0565
 1142SOL     OW 4324   3.735   6.648   2.259 -0.0477  0.0273 -0.1503
 1142SOL    HW1 4325   3.830   6.643   2.288  0.4052 -0.6217 -1.6487
 1142SOL    HW2 4326   3.705   6.744   2.260  1.5835  0.6615 -2.4429
 1143SOL     OW 4327   2.013   0.122   2.732  0.1189 -0.5644  0.5473
 1143SOL    HW1 4328   2.098   0.167   2.757 -1.4450  3.0544  0.1006
 1143SOL    HW2 4329   1.985   0.059   2.805  2.4132 -0.7517  1.3274
 1144SOL     OW 4330   5.165   4.369   3.918 -0.1498 -0.2714  0.1160
 1144SOL    HW1 4331   5.139   4.358   4.014 -1.9051  3.8709  0.3380
 1144SOL    HW2 4332   5.261   4.396   3.913 -0.5993  1.7837  1.0688
 1145SOL     OW 4333   1.554   1.720   1.601  0.3483  0.6988  0.5154
 1145SOL    HW1 4334   1.472   1.685   1.646  0.1427  1.5157  0.8052
 1145SOL    HW2 4335   1.629   1.725   1.666  0.5797  0.1196  0.2949
 1146SOL     OW 4336   4.586   0.703   1.784  0.3836  0.2190 -0.6604
 1146SOL    HW1 4337   4.511   0.645   1.816  1.5373 -1.1625 -0.3054
 1146SOL    HW2 4338   4.551   0.772   1.721 -1.2730  0.0726  0.0525
 1147SOL     OW 4339   3.249   5.634   2.660 -0.3186  1.0179 -0.3681
 1147SOL    HW1 4340   3.321   5.628   2.592 -1.7476  1.7061 -2.0171
 1147SOL    HW2 4341   3.168   5.584   2.628 -0.9625  1.1709  0.9279
 1148SOL     OW 4342   5.065   5.627   1.197  0.4273  0.0514  0.0508
 1148SOL    HW1 4343   5.020   5.545   1.161  0.2304  0.2704 -0.2112
 1148SOL    HW2 4344   5.072   5.696   1.124  2.3237 -0.4324 -0.2904
 1149SOL     OW 4345   0.230   1.565   1.076  0.0451 -0.2982 -0.3151
 1149SOL    HW1 4346   0.319   1.562   1.030  1.4923  1.4253  2.0986
 1149SOL    HW2 4347   0.160   1.598   1.013  1.2252 -1.0847 -2.1044
 1150SOL     OW 4348   2.499   4.170   1.294  0.4987 -0.4807  0.1393
 1150SOL    HW1 4349   2.408   4.167   1.336  1.0129 -0.3992  1.3047
 1150SOL    HW2 4350   2.562   4.217   1.356  1.3085 -0.4240 -0.7128
 1151SOL     OW 4351   6.121   5.741   2.486  0.2433  0.1804  0.2260
 1151SOL    HW1 4352   6.037   5.745   2.432  0.2686 -0.8006  0.0967
 1151SOL    HW2 4353   6.141   5.832   2.524 -2.2712 -0.0398  2.3617
 1152SOL     OW 4354   5.487   1.628   1.540 -0.4645  0.0882 -0.4426
 1152SOL    HW1 4355   5.429   1.585   1.610 -0.2731 -0.0203 -0.3495
 1152SOL    HW2 4356   5.528   1.711   1.578  0.9275 -0.8282  0.1264
 1153SOL     OW 4357   6.511   6.845   3.348  0.6192  0.2254  0.2127
 1153SOL    HW1 4358   6.538   6.778   3.279 -0.2772  0.7705 -0.6972
 1153SOL    HW2 4359   6.451   6.801   3.416  0.0108  0.0965 -0.3966
 1154SOL     OW 4360   2.123   3.679   2.931 -0.1886 -0.5417  0.2178
 1154SOL    HW1 4361   2.185   3.707   2.857 -0.6485 -1.1859 -0.4174
 1154SOL    HW2 4362   2.116   3.753   2.998 -0.3250  0.3360 -0.7459
 1155SOL     OW 4363   2.468   1.130   5.201  0.4039 -0.1500  0.1231
 1155SOL    HW1 4364   2.560   1.108   5.232  0.8662 -0.6189 -1.5009
 1155SOL    HW2 4365   2.464   1.124   5.101 -2.0898 -3.0421  0.2355
 1156SOL     OW 4366   4.483   1.885   4.872 -0.4054 -0.2232  0.0656
 1156SOL    HW1 4367   4.419   1.893   4.948  0.7138 -0.7325  1.1008
 1156SOL    HW2 4368   4.464   1.956   4.805 -0.9610  0.7164  1.1768
 1157SOL     OW 4369   5.556   0.226   6.952 -0.0106  0.9279  0.0022
 1157SOL    HW1 4370   5.614   0.219   7.033  1.2687  0.4257 -0.9248
 1157SOL    HW2 4371   5.590   0.299   6.892  0.1386  0.1337 -0.9076
 1158SOL     OW 4372   4.266   5.996   4.286 -0.5881  0.1749 -0.4055
 1158SOL    HW1 4373   4.278   6.094   4.269 -0.2634  0.1634 -0.2415
 1158SOL    HW2 4374   4.325   5.943   4.225  1.7333  0.1730  1.7287
 1159SOL     OW 4375   5.919   6.083   3.829  0.1634 -0.6809 -0.3778
 1159SOL    HW1 4376   5.850   6.155   3.833 -0.1744 -0.9660 -0.9228
 1159SOL    HW2 4377   5.883   6.001   3.874  1.7615  0.4142  3.2731
 1160SOL     OW 4378   1.944   6.348   1.272  0.0981 -0.5741  0.2475
 1160SOL    HW1 4379   1.932   6.323   1.368 -0.1684  1.1143  0.6770
 1160SOL    HW2 4380   2.032   6.396   1.261  0.4196 -1.2984 -0.4819
 1161SOL     OW 4381   5.058   6.366   6.818  0.0883  0.2293  0.0666
 1161SOL    HW1 4382   4.987   6.436   6.809 -0.8693 -0.4290  1.8365
 1161SOL    HW2 4383   5.094   6.343   6.728 -2.7905 -0.2512 -1.0911
 1162SOL     OW 4384   1.699   0.901   5.744 -0.1094 -0.3063  0.4488
 1162SOL    HW1 4385   1.645   0.938   5.668  0.1131 -0.6017  0.1483
 1162SOL    HW2 4386   1.678   0.804   5.756 -0.9574 -0.0215  1.4643
 1163SOL     OW 4387   4.965   4.489   2.064 -0.4320 -0.1063 -0.4322
 1163SOL    HW1 4388   4.999   4.397   2.045  0.0712 -0.2098  0.9004
 1163SOL    HW2 4389   5.027   4.536   2.126 -2.3877 -0.1161  1.6566
 1164SOL     OW 4390   3.455   2.100   6.227  0.6990  0.1331  0.2714
 1164SOL    HW1 4391   3.530   2.123   6.289  1.5576 -1.8223  0.0335
 1164SOL    HW2 4392   3.486   2.108   6.133  0.4077 -0.0262  0.1598
 1165SOL     OW 4393   6.386   4.438   3.633  0.0292 -0.7727  0.0110
 1165SOL    HW1 4394   6.371   4.364   3.568 -0.5636  0.4947 -1.3532
 1165SOL    HW2 4395   6.399   4.524   3.584 -0.4472  0.2494  1.5691
 1166SOL     OW 4396   2.514   1.829   6.269  0.2557  0.0529  0.2396
 1166SOL    HW1 4397   2.575   1.808   6.345 -0.9930  1.8392  1.8385
 1166SOL    HW2 4398   2.506   1.749   6.209  3.3421 -0.5451  0.4699
 1167SOL     OW 4399   5.621   5.594   0.926 -0.7642 -0.1229  0.2301
 1167SOL    HW1 4400   5.686   5.666   0.949  0.3753 -0.9128 -0.4535
 1167SOL    HW2 4401   5.540   5.635   0.883 -0.3550  0.7794  0.2967
 1168SOL     OW 4402   5.639   3.258   2.582  0.3975 -0.1558 -0.2479
 1168SOL    HW1 4403   5.723   3.308   2.559  0.2057  0.3564  0.1490
 1168SOL    HW2 4404   5.590   3.307   2.653 -1.3651  0.7209 -1.9800
 1169SOL     OW 4405   4.890   1.163   5.955 -0.0862  0.4357  0.3766
 1169SOL    HW1 4406   4.981   1.185   5.920 -0.4852  1.2319 -0.1988
 1169SOL    HW2 4407   4.858   1.077   5.914 -0.5966  1.4090 -1.3712
 1170SOL     OW 4408   4.127   6.006   3.129  0.1132 -0.3008  0.5509
 1170SOL    HW1 4409   4.097   6.016   3.224 -1.8338 -1.0961  0.0637
 1170SOL    HW2 4410   4.166   5.915   3.116 -0.7134 -0.6380  0.3437
 1171SOL     OW 4411   1.932   0.301   0.068 -0.3746 -0.1420 -0.3462
 1171SOL    HW1 4412   1.965   0.269  -0.021  2.0841  0.7384  0.1807
 1171SOL    HW2 4413   1.941   0.227   0.135  1.6122  0.3544  0.0053
 1172SOL     OW 4414   4.584   2.373   6.968  0.0553 -0.2693  0.0198
 1172SOL    HW1 4415   4.485   2.386   6.963 -0.1155 -1.4516  0.0480
 1172SOL    HW2 4416   4.613   2.373   7.063  0.1717  0.6444 -0.0099
 1173SOL     OW 4417   2.646   0.433   0.474  0.1544  0.1560 -0.1097
 1173SOL    HW1 4418   2.552   0.446   0.505  0.4983  1.3899  0.4975
 1173SOL    HW2 4419   2.685   0.521   0.446  1.8499  0.1129  1.8549
 1174SOL     OW 4420   3.681   4.404   1.723  0.3988  0.7650 -0.3635
 1174SOL    HW1 4421   3.591   4.378   1.688  0.1457 -1.5344  1.7443
 1174SOL    HW2 4422   3.676   4.498   1.758 -1.3189  0.5317  0.1226
 1175SOL     OW 4423   4.636   3.636   6.295 -0.2812 -0.6323  0.1986
 1175SOL    HW1 4424   4.567   3.602   6.231  0.1803  0.8802 -1.1959
 1175SOL    HW2 4425   4.661   3.564   6.359 -2.5136 -1.4865  0.2044
 1176SOL     OW 4426   4.540   2.970   6.203  0.2243  0.4538 -0.7541
 1176SOL    HW1 4427   4.578   2.918   6.126  0.7048 -0.1269 -0.1295
 1176SOL    HW2 4428   4.612   2.986   6.271 -0.2026  0.9606 -0.4138
 1177SOL     OW 4429   6.780   1.696   4.554  0.4018 -0.4199  0.5909
 1177SOL    HW1 4430   6.701   1.689   4.614  0.9667  0.7391  1.5023
 1177SOL    HW2 4431   6.785   1.615   4.496 -1.2756 -0.6447  0.7148
 1178SOL     OW 4432   3.147   4.542   0.713 -0.4058  0.3956  0.1155
 1178SOL    HW1 4433   3.226   4.599   0.736  0.6029 -0.7403 -0.4489
 1178SOL    HW2 4434   3.130   4.477   0.786 -0.0198 -0.2052 -0.3239
 1179SOL     OW 4435   2.775   6.241   0.243 -0.6400  0.2016 -0.2205
 1179SOL    HW1 4436   2.841   6.171   0.215  1.1967  1.2165  1.2795
 1179SOL    HW2 4437   2.683   6.203   0.243  0.4662 -3.0312  2.7869
 1180SOL     OW 4438   3.898   4.652   1.691 -0.2739 -0.9496  0.1538
 1180SOL    HW1 4439   3.974   4.648   1.756 -0.2386 -2.3119  0.0661
 1180SOL    HW2 4440   3.813   4.628   1.738 -0.6623  0.4929  0.2335
 1181SOL     OW 4441   0.387   5.744   6.023  0.4030  0.0756 -0.1744
 1181SOL    HW1 4442   0.316   5.673   6.026  0.1933  0.2709  2.4973
 1181SOL    HW2 4443   0.474   5.703   5.997  0.3077 -1.2472  1.4309
 1182SOL     OW 4444   5.402   6.680   2.645 -0.2533  0.5883 -0.6171
 1182SOL    HW1 4445   5.388   6.585   2.617  3.2695 -0.4466  0.5396
 1182SOL    HW2 4446   5.330   6.707   2.708 -1.1544 -1.4550 -0.6848
 1183SOL     OW 4447   1.344   5.340   0.971 -0.0594  0.0029 -0.3297
 1183SOL    HW1 4448   1.297   5.420   1.008 -0.6067 -0.9824  1.2240
 1183SOL    HW2 4449   1.355   5.350   0.873 -3.3547  0.4246 -0.7627
 1184SOL     OW 4450   1.957   6.767   3.727  0.4269 -0.0810 -0.3395
 1184SOL    HW1 4451   1.922   6.674   3.720  0.9627 -0.3314  0.1863
 1184SOL    HW2 4452   1.907   6.818   3.797  0.4153 -0.1053 -0.3305
 1185SOL     OW 4453   0.236   1.738   6.175  0.6707 -0.0714 -0.5946
 1185SOL    HW1 4454   0.173   1.683   6.122 -0.1738  0.0455  0.2658
 1185SOL    HW2 4455   0.227   1.834   6.149  0.7867 -0.1024 -0.7526
 1186SOL     OW 4456   6.339   5.622   4.824 -0.3135  0.0796  0.2790
 1186SOL    HW1 4457   6.368   5.718   4.825  1.3865 -0.4031  1.4871
 1186SOL    HW2 4458   6.249   5.615   4.780 -0.8229  2.3092  0.8186
 1187SOL     OW 4459   6.100   5.206   6.206  0.1683 -0.6041 -1.1936
 1187SOL    HW1 4460   6.023   5.163   6.159  0.6744 -2.2879 -0.5631
 1187SOL    HW2 4461   6.185   5.181   6.160  0.6104 -1.7055  0.1735
 1188SOL     OW 4462   1.862   0.617   4.817 -0.2428 -0.4977  0.4243
 1188SOL    HW1 4463   1.863   0.716   4.803 -1.3601 -0.5302 -0.0123
 1188SOL    HW2 4464   1.778   0.579   4.777  0.1836 -1.6225  0.5674
 1189SOL     OW 4465   6.794   2.635   3.650 -0.2110  0.4168 -0.6922
 1189SOL    HW1 4466   6.810   2.556   3.709 -0.0366  0.9006 -0.0917
 1189SOL    HW2 4467   6.705   2.625   3.605 -0.7072  0.4346  0.2732
 1190SOL     OW 4468   3.344   6.426   4.061 -0.0127  0.4419  0.2029
 1190SOL    HW1 4469   3.362   6.456   4.155  0.5845 -0.2807  0.3298
 1190SOL    HW2 4470   3.422   6.374   4.028 -1.1176 -1.2328  0.1103
 1191SOL     OW 4471   4.432   4.477   2.549 -0.0463 -0.5457 -0.3555
 1191SOL    HW1 4472   4.527   4.507   2.551 -0.6014  1.3221  0.3899
 1191SOL    HW2 4473   4.379   4.537   2.489 -1.1684 -0.0881  1.0327
 1192SOL     OW 4474   2.938   4.950   1.464  0.2678 -0.2065 -0.1447
 1192SOL    HW1 4475   3.031   4.950   1.427  0.7350 -0.3881  0.9875
 1192SOL    HW2 4476   2.912   4.856   1.489 -1.0341 -0.5068 -2.3604
 1193SOL     OW 4477   6.552   4.902   5.887 -1.1211 -0.1090 -0.1163
 1193SOL    HW1 4478   6.641   4.861   5.870 -0.5006  1.9146 -2.0838
 1193SOL    HW2 4479   6.562   4.985   5.943 -1.5378  1.0025 -1.6353
 1194SOL     OW 4480   4.624   6.847   2.346  0.8505  0.1027  0.0275
 1194SOL    HW1 4481   4.627   6.749   2.327  0.1677 -0.4334  2.3752
 1194SOL    HW2 4482   4.714   6.887   2.332  1.7064 -1.3332  1.1820
 1195SOL     OW 4483   6.716   2.699   1.970 -0.1789  0.3728 -0.0764
 1195SOL    HW1 4484   6.748   2.660   1.884 -0.1357  0.1794  0.0257
 1195SOL    HW2 4485   6.676   2.789   1.954  0.1551  0.4927 -0.2475
 1196SOL     OW 4486   6.307   5.907   2.938 -0.1047  0.2700 -0.5424
 1196SOL    HW1 4487   6.361   5.829   2.967 -0.7548 -0.2156 -0.6102
 1196SOL    HW2 4488   6.364   5.989   2.936  0.7521 -0.3249 -1.1195
 1197SOL     OW 4489   4.423   1.328   6.744 -0.0461 -0.1102 -0.0770
 1197SOL    HW1 4490   4.459   1.353   6.654  0.4173  1.3738  0.4861
 1197SOL    HW2 4491   4.456   1.236   6.769  2.7911  0.8215  0.0560
 1198SOL     OW 4492   1.677   3.337   2.172 -0.1210 -0.3930  0.1443
 1198SOL    HW1 4493   1.667   3.426   2.216  0.5339 -0.4431  0.3980
 1198SOL    HW2 4494   1.705   3.269   2.239  0.6098 -0.5269 -0.2935
 1199SOL     OW 4495   6.236   4.750   1.873  0.5127  0.3217  0.1918
 1199SOL    HW1 4496   6.240   4.723   1.777  0.7625 -0.6977  0.4859
 1199SOL    HW2 4497   6.212   4.672   1.930 -0.0135  0.9980  0.9326
 1200SOL     OW 4498   4.063   3.312   3.061  0.9909  0.1593  0.1591
 1200SOL    HW1 4499   4.063   3.402   3.018  1.5391  0.0038 -0.1753
 1200SOL    HW2 4500   4.004   3.250   3.009 -0.7209  0.7359  1.3090
 1201SOL     OW 4501   1.931   0.892   4.405  0.0961 -0.1035  0.2178
 1201SOL    HW1 4502   1.897   0.811   4.357  0.5464  0.1425 -0.5289
 1201SOL    HW2 4503   2.025   0.877   4.434  0.5312  0.5282 -0.8324
 1202SOL     OW 4504   0.267   6.935   5.974  0.2534 -0.2280 -0.5652
 1202SOL    HW1 4505   0.346   6.876   5.958 -0.4960 -1.8089  1.2374
 1202SOL    HW2 4506   0.190   6.905   5.917  0.0814 -0.5931 -0.1510
 1203SOL     OW 4507   5.758   6.946   4.658  0.1912  0.2275  0.0502
 1203SOL    HW1 4508   5.699   7.026   4.647  2.4458  1.7668 -1.9993
 1203SOL    HW2 4509   5.821   6.960   4.735  0.7152  0.5705 -0.4268
 1204SOL     OW 4510   3.479   6.571   6.713 -0.0314 -0.1252 -0.0163
 1204SOL    HW1 4511   3.502   6.477   6.688  0.8962 -0.0853  0.6072
 1204SOL    HW2 4512   3.509   6.589   6.807  1.1472  1.2158 -0.6035
 1205SOL     OW 4513   0.905   5.711   1.591  0.0962 -0.2407  0.3190
 1205SOL    HW1 4514   0.913   5.794   1.646 -1.0223 -0.2177  0.4692
 1205SOL    HW2 4515   0.846   5.645   1.638  0.1423 -0.7154 -0.2724
 1206SOL     OW 4516   3.522   3.491   6.590  0.3409 -0.8531 -0.5136
 1206SOL    HW1 4517   3.447   3.474   6.526 -2.2001 -1.5230  2.3669
 1206SOL    HW2 4518   3.558   3.404   6.623 -0.0205 -0.5759  0.6645
 1207SOL     OW 4519   2.558   1.368   1.767  0.6822  0.3486  0.3888
 1207SOL    HW1 4520   2.508   1.283   1.777  0.5724  0.3348 -0.2295
 1207SOL    HW2 4521   2.600   1.393   1.854 -0.5171  0.4413  0.9609
 1208SOL     OW 4522   1.137   5.077   1.053 -0.3261  0.8887 -0.5073
 1208SOL    HW1 4523   1.202   5.001   1.056  0.2222  1.3732  2.8074
 1208SOL    HW2 4524   1.059   5.057   1.112 -1.5925  1.7855 -1.7828
 1209SOL     OW 4525   4.656   5.688   4.538  0.0821  0.2901  0.2128
 1209SOL    HW1 4526   4.593   5.647   4.604 -1.8139  1.1320 -0.9717
 1209SOL    HW2 4527   4.605   5.713   4.455  2.0269  0.9384 -0.8382
 1210SOL     OW 4528   2.578   0.782   2.037  0.6167 -0.0688  0.1574
 1210SOL    HW1 4529   2.485   0.748   2.022  0.2660  1.3763 -1.2898
 1210SOL    HW2 4530   2.644   0.719   1.996  0.1862 -0.4596  0.0645
 1211SOL     OW 4531   2.618   3.353   0.700  0.3565 -0.3247  0.6763
 1211SOL    HW1 4532   2.615   3.367   0.799 -0.7689 -1.8258  0.8796
 1211SOL    HW2 4533   2.655   3.262   0.680  1.5476  0.3463 -0.3451
 1212SOL     OW 4534   6.319   0.776   6.840 -0.4020  0.1114 -0.0791
 1212SOL    HW1 4535   6.372   0.782   6.925 -0.9366  0.3972  0.2412
 1212SOL    HW2 4536   6.223   0.755   6.862 -0.2864 -1.1739 -0.6907
 1213SOL     OW 4537   5.375   0.648   5.906  0.4570  0.0174 -0.0460
 1213SOL    HW1 4538   5.384   0.747   5.893  0.6552 -0.0174 -0.1944
 1213SOL    HW2 4539   5.444   0.617   5.971  0.7871 -0.1101 -0.4505
 1214SOL     OW 4540   0.158   1.179   0.501 -0.5020  0.2711  0.8070
 1214SOL    HW1 4541   0.110   1.215   0.422 -0.5666 -1.3758  0.0436
 1214SOL    HW2 4542   0.248   1.145   0.473 -0.1258  0.5611  1.6306
 1215SOL     OW 4543   6.633   4.063   4.791 -0.1513  0.0409  0.1060
 1215SOL    HW1 4544   6.654   4.135   4.725 -0.1877  0.0934  0.1509
 1215SOL    HW2 4545   6.652   4.097   4.883 -0.5530  0.1323  0.1568
 1216SOL     OW 4546   3.813   0.660   0.324 -0.6062 -0.0362  0.5975
 1216SOL    HW1 4547   3.825   0.748   0.370  1.9428  1.1264 -1.9888
 1216SOL    HW2 4548   3.886   0.598   0.351  0.9338  0.6626 -1.6596
 1217SOL     OW 4549   1.510   4.541   1.928  0.1052  0.2063 -0.1560
 1217SOL    HW1 4550   1.540   4.579   1.841 -0.8978 -0.5094 -0.8426
 1217SOL    HW2 4551   1.470   4.613   1.984  1.0881  0.7391 -0.1280
 1218SOL     OW 4552   0.663   3.328   4.094 -0.3348 -0.4931  0.6246
 1218SOL    HW1 4553   0.653   3.241   4.046  1.5602 -0.2287 -0.4039
 1218SOL    HW2 4554   0.649   3.315   4.192 -0.9690 -1.7550  0.3860
 1219SOL     OW 4555   5.311   5.253   0.026 -0.0034  0.1870 -0.5169
 1219SOL    HW1 4556   5.314   5.182   0.096  1.7990 -0.3812 -1.1082
 1219SOL    HW2 4557   5.217   5.265  -0.006 -0.4336 -1.4997  0.0167
 1220SOL     OW 4558   0.823   6.230   4.274 -0.3359  0.1470  0.7511
 1220SOL    HW1 4559   0.917   6.221   4.242 -0.6358 -0.1644 -0.0614
 1220SOL    HW2 4560   0.782   6.139   4.283 -0.4035  0.2515  1.5961
 1221SOL     OW 4561   4.765   1.501   4.974 -0.5403  0.4289  0.1966
 1221SOL    HW1 4562   4.737   1.597   4.973  0.0372  0.5985 -0.4637
 1221SOL    HW2 4563   4.792   1.473   4.882  0.8478  0.1063  0.6703
 1222SOL     OW 4564   6.257   0.048   6.486 -0.0262 -0.3281 -0.4649
 1222SOL    HW1 4565   6.161   0.046   6.514  0.1321 -0.1742  0.0824
 1222SOL    HW2 4566   6.281  -0.041   6.446 -0.3621 -0.4084 -0.4953
 1223SOL     OW 4567   4.005   6.897   6.439  0.3254 -0.5244 -0.0274
 1223SOL    HW1 4568   3.985   6.812   6.390  0.3003 -0.1259 -0.7187
 1223SOL    HW2 4569   4.013   6.878   6.537 -1.7238 -1.0120  0.0908
 1224SOL     OW 4570   1.592   5.273   6.063  0.3088 -0.0341  0.8502
 1224SOL    HW1 4571   1.576   5.188   6.114  0.9972 -1.5433 -1.2832
 1224SOL    HW2 4572   1.687   5.302   6.077  0.3109 -0.0908  0.9557
 1225SOL     OW 4573   3.182   5.370   6.365 -0.0607 -0.6489 -0.0166
 1225SOL    HW1 4574   3.111   5.440   6.361  0.5151 -0.0536 -0.1098
 1225SOL    HW2 4575   3.267   5.407   6.326  0.0784 -1.6173 -0.6654
 1226SOL     OW 4576   2.719   4.869   2.116  0.6980  0.5392 -0.9512
 1226SOL    HW1 4577   2.623   4.870   2.145  0.3744  2.7747 -1.9103
 1226SOL    HW2 4578   2.739   4.781   2.072 -0.1560 -0.9545  1.4153
 1227SOL     OW 4579   6.790   4.324   1.893 -0.3425 -0.4952  0.0268
 1227SOL    HW1 4580   6.713   4.348   1.952 -0.5359 -1.2508  0.0934
 1227SOL    HW2 4581   6.853   4.264   1.943 -1.2487 -2.3704 -0.9529
 1228SOL     OW 4582   2.582   3.303   5.717  0.0112 -0.2152 -0.1023
 1228SOL    HW1 4583   2.678   3.331   5.708  0.2908 -1.4001 -1.0174
 1228SOL    HW2 4584   2.523   3.378   5.687  0.7025 -0.1122 -1.2611
 1229SOL     OW 4585   4.526   4.069   6.079 -0.7683  0.1382  0.0076
 1229SOL    HW1 4586   4.581   3.988   6.061  1.7706  1.8916 -0.6417
 1229SOL    HW2 4587   4.493   4.106   5.992 -0.7342  0.5727  0.1774
 1230SOL     OW 4588   2.455   1.538   5.407  0.0068  0.4175  0.2125
 1230SOL    HW1 4589   2.491   1.494   5.490  0.0144  0.0668  0.0232
 1230SOL    HW2 4590   2.513   1.616   5.384 -1.0572  1.6928  1.6097
 1231SOL     OW 4591   1.057   5.431   5.608 -0.2309  0.3766 -0.0886
 1231SOL    HW1 4592   0.984   5.409   5.673  0.3132 -0.1480  0.3598
 1231SOL    HW2 4593   1.023   5.420   5.515 -0.9368  0.8550  0.1077
 1232SOL     OW 4594   1.426   2.421   5.274  0.6133 -0.7216  0.4975
 1232SOL    HW1 4595   1.455   2.507   5.233 -0.7318 -0.0947  0.7898
 1232SOL    HW2 4596   1.504   2.374   5.315  1.8668 -0.9821 -2.0095
 1233SOL     OW 4597   1.734   2.990   3.666 -0.0774  0.0109 -0.1315
 1233SOL    HW1 4598   1.818   3.023   3.709 -1.7353  2.3360  1.5628
 1233SOL    HW2 4599   1.676   3.067   3.640 -1.9300 -1.4981 -0.8220
 1234SOL     OW 4600   6.804   2.910   2.835  0.9728  0.0870 -0.7756
 1234SOL    HW1 4601   6.786   3.002   2.871  0.8994 -1.0132  2.3303
 1234SOL    HW2 4602   6.727   2.850   2.858  2.2340 -1.3746 -0.1829
 1235SOL     OW 4603   1.887   0.161   2.416 -0.1507  0.0644  0.3078
 1235SOL    HW1 4604   1.856   0.127   2.327  1.6694  0.6947 -0.6097
 1235SOL    HW2 4605   1.986   0.173   2.415 -0.3629  2.6740  1.5013
 1236SOL     OW 4606   5.197   2.537   0.112 -0.0724  0.7273 -0.2948
 1236SOL    HW1 4607   5.276   2.507   0.166 -1.1867  0.4649  1.2578
 1236SOL    HW2 4608   5.176   2.469   0.042 -0.4599 -0.4782  0.9506
 1237SOL     OW 4609   1.040   4.124   6.228 -0.4014 -0.0524 -0.1477
 1237SOL    HW1 4610   1.083   4.195   6.171 -0.5160  0.2044  0.0843
 1237SOL    HW2 4611   0.986   4.168   6.300  1.2086 -0.3385  1.3066
 1238SOL     OW 4612   1.536   0.171   1.203 -0.4825 -0.0450  0.2638
 1238SOL    HW1 4613   1.485   0.100   1.154 -2.0893 -0.8109  2.8377
 1238SOL    HW2 4614   1.482   0.255   1.204 -0.1564  0.1666  0.1773
 1239SOL     OW 4615   1.455   6.441   0.217  0.3963 -0.1378 -0.1727
 1239SOL    HW1 4616   1.554   6.442   0.230  0.2817 -1.0970  0.9319
 1239SOL    HW2 4617   1.425   6.348   0.198 -0.2555  0.2066 -0.8513
 1240SOL     OW 4618   6.659   6.945   2.364  0.2613  0.4977  0.0492
 1240SOL    HW1 4619   6.619   6.921   2.275  0.8200  0.9373 -0.3260
 1240SOL    HW2 4620   6.732   7.011   2.351  0.8130  0.0488  0.7748
 1241SOL     OW 4621   5.031   4.043   3.137 -0.9067  0.5547 -0.2238
 1241SOL    HW1 4622   4.973   3.995   3.071  0.1358  0.1469 -0.8534
 1241SOL    HW2 4623   5.060   3.980   3.208 -0.3555  0.4776 -0.5079
 1242SOL     OW 4624   1.656   1.529   1.010 -0.0776  0.5799 -0.7211
 1242SOL    HW1 4625   1.733   1.586   1.039 -0.7434  0.9974  0.2738
 1242SOL    HW2 4626   1.655   1.445   1.065 -0.7789  0.9274 -0.2010
 1243SOL     OW 4627   1.416   5.612   4.836  0.2693  0.5213  0.2897
 1243SOL    HW1 4628   1.484   5.606   4.908 -1.2267 -0.1580  1.6963
 1243SOL    HW2 4629   1.335   5.660   4.870 -0.6484 -0.2117 -0.7968
 1244SOL     OW 4630   0.757   1.581   3.359  0.1096 -0.1559 -0.0662
 1244SOL    HW1 4631   0.681   1.640   3.386  0.2398  0.6696 -1.4187
 1244SOL    HW2 4632   0.838   1.637   3.341  0.3531 -0.7660 -0.9541
 1245SOL     OW 4633   4.992   3.048   1.016  0.1131  0.2931 -0.0752
 1245SOL    HW1 4634   5.046   3.040   1.099  0.0092 -1.3227 -0.1192
 1245SOL    HW2 4635   4.958   2.957   0.989  0.1206  0.7721 -1.8599
 1246SOL     OW 4636   2.288   0.364   2.602  0.4720 -0.0739  0.2206
 1246SOL    HW1 4637   2.382   0.398   2.596  0.8815 -1.0686  0.7402
 1246SOL    HW2 4638   2.279   0.308   2.684  0.0948 -2.0254 -1.0883
 1247SOL     OW 4639   1.358   0.133   6.317  0.2541  0.3572 -0.3592
 1247SOL    HW1 4640   1.389   0.184   6.397  0.1148 -0.0362 -0.0439
 1247SOL    HW2 4641   1.303   0.192   6.258 -2.1186 -0.0344  1.2979
 1248SOL     OW 4642   2.787   6.837   4.452 -0.0323 -0.2397 -0.1893
 1248SOL    HW1 4643   2.803   6.932   4.426  0.9721 -0.1751  0.5991
 1248SOL    HW2 4644   2.732   6.833   4.535 -0.3887 -0.3557 -0.4304
 1249SOL     OW 4645   4.852   4.478   4.329 -0.0946 -0.5962 -0.2600
 1249SOL    HW1 4646   4.808   4.562   4.294  0.9040 -0.4480 -1.2081
 1249SOL    HW2 4647   4.791   4.435   4.396 -1.0610  0.3559 -0.4824
 1250SOL     OW 4648   1.004   3.355   5.338 -0.1817  0.1240  0.2862
 1250SOL    HW1 4649   0.940   3.326   5.409 -1.5176 -0.8202 -1.2393
 1250SOL    HW2 4650   1.083   3.400   5.381 -1.3341  0.3654  2.2882
 1251SOL     OW 4651   5.421   0.149   4.085  0.4553 -0.6806 -0.5733
 1251SOL    HW1 4652   5.326   0.178   4.075  1.1401  2.0095 -0.1940
 1251SOL    HW2 4653   5.443   0.141   4.183  0.5273 -1.6375 -0.6675
 1252SOL     OW 4654   3.740   4.764   0.362  0.3070 -0.3159  0.5777
 1252SOL    HW1 4655   3.803   4.690   0.337  0.4738  0.1049 -0.2685
 1252SOL    HW2 4656   3.648   4.741   0.331  0.5309  0.2484 -0.5366
 1253SOL     OW 4657   6.004   5.498   1.851  0.4659  0.4480 -0.3882
 1253SOL    HW1 4658   6.013   5.418   1.792 -1.0047  0.0893 -0.1675
 1253SOL    HW2 4659   5.970   5.575   1.797  0.0061  0.3794 -0.1959
 1254SOL     OW 4660   3.654   1.247   4.288 -0.3773 -0.0732 -0.9664
 1254SOL    HW1 4661   3.621   1.177   4.225 -1.9224 -0.6048  0.3702
 1254SOL    HW2 4662   3.578   1.307   4.313  0.4714  0.8355 -0.5036
 1255SOL     OW 4663   6.878   0.808   5.554  0.2359 -1.1974  0.2237
 1255SOL    HW1 4664   6.863   0.747   5.476  1.7906 -1.3351 -0.0064
 1255SOL    HW2 4665   6.974   0.803   5.582 -0.0266 -0.2322  1.3773
 1256SOL     OW 4666   6.392   6.149   2.157  0.1984 -0.4913 -0.3681
 1256SOL    HW1 4667   6.294   6.146   2.175  0.1659  3.0067  0.8823
 1256SOL    HW2 4668   6.434   6.063   2.186 -2.1904 -1.1791  1.3572
 1257SOL     OW 4669   6.813   2.407   1.902 -0.4254 -0.0304  0.2463
 1257SOL    HW1 4670   6.900   2.445   1.933 -0.1383 -0.2606 -0.2761
 1257SOL    HW2 4671   6.751   2.398   1.981 -0.5495  1.6126  0.3735
 1258SOL     OW 4672   0.517   5.319   3.608 -0.5506 -0.3289  0.5689
 1258SOL    HW1 4673   0.464   5.235   3.601  0.7111 -1.0835 -0.0931
 1258SOL    HW2 4674   0.604   5.301   3.655  0.3706  0.2835 -0.8418
 1259SOL     OW 4675   3.588   1.937   4.922  0.3321  0.0399 -0.0297
 1259SOL    HW1 4676   3.516   1.898   4.865  2.6563 -4.3753 -0.4010
 1259SOL    HW2 4677   3.669   1.955   4.866  0.8950  0.9347  1.0263
 1260SOL     OW 4678   1.030   0.181   6.769 -0.1714 -0.0905 -0.1134
 1260SOL    HW1 4679   0.947   0.152   6.817  0.6124  0.2382  1.4638
 1260SOL    HW2 4680   1.027   0.145   6.675 -3.3501  2.1151 -1.0445
 1261SOL     OW 4681   0.207   5.167   0.907  0.5190  0.2018  0.0577
 1261SOL    HW1 4682   0.230   5.185   1.003 -0.5168  1.0266  0.1806
 1261SOL    HW2 4683   0.245   5.239   0.849 -2.3232  2.1314  0.3703
 1262SOL     OW 4684   6.385   0.027   3.615 -0.1823 -0.2200  0.3837
 1262SOL    HW1 4685   6.376   0.095   3.542  1.7835 -1.1515 -0.8061
 1262SOL    HW2 4686   6.439   0.065   3.689 -0.1240 -0.0816  0.2721
 1263SOL     OW 4687   2.462   1.617   2.541 -0.3828  0.9189  0.1349
 1263SOL    HW1 4688   2.373   1.653   2.516  0.2913  0.8462 -2.6517
 1263SOL    HW2 4689   2.525   1.692   2.562  0.7024  1.5863 -4.5487
 1264SOL     OW 4690   1.615   3.217   5.048 -0.3567  0.5355 -0.0885
 1264SOL    HW1 4691   1.692   3.248   4.993  0.2878 -0.8995 -0.0309
 1264SOL    HW2 4692   1.603   3.118   5.037 -2.2826  0.7382 -0.2066
 1265SOL     OW 4693   0.197   5.163   2.895  0.3176 -0.1880  0.0329
 1265SOL    HW1 4694   0.204   5.216   2.979 -0.2751  3.1070 -1.8025
 1265SOL    HW2 4695   0.289   5.146   2.858  0.4958  0.7475  0.0186
 1266SOL     OW 4696   1.574   1.518   4.423  0.4584  0.0372 -0.0882
 1266SOL    HW1 4697   1.654   1.476   4.381  1.4374  2.7667 -1.1974
 1266SOL    HW2 4698   1.562   1.483   4.516  2.8834 -0.5419  0.0681
 1267SOL     OW 4699   3.179   5.959   1.869 -0.3321  0.0338  0.4982
 1267SOL    HW1 4700   3.192   5.974   1.771 -0.7199 -1.1533  0.2501
 1267SOL    HW2 4701   3.103   6.015   1.902 -1.8096 -1.3539 -0.4077
 1268SOL     OW 4702   4.818   3.943   3.712 -0.4340  0.1429 -0.0631
 1268SOL    HW1 4703   4.775   4.030   3.689  0.1154  0.2949 -0.5339
 1268SOL    HW2 4704   4.887   3.958   3.784 -0.0401  0.1702 -0.4441
 1269SOL     OW 4705   6.174   0.846   3.273 -0.4649 -0.0608  0.3903
 1269SOL    HW1 4706   6.258   0.791   3.279 -1.0854 -0.9670  1.0590
 1269SOL    HW2 4707   6.105   0.795   3.221 -0.8143  0.4102  0.3927
 1270SOL     OW 4708   1.691   3.946   3.653 -0.2059 -0.1726  0.3052
 1270SOL    HW1 4709   1.680   3.935   3.554  1.7850 -0.9895  0.1517
 1270SOL    HW2 4710   1.777   3.993   3.672 -1.4781  1.7745  1.6113
 1271SOL     OW 4711   1.958   5.941   6.337  0.1930 -0.1110  0.2444
 1271SOL    HW1 4712   1.932   5.929   6.241  0.2304 -1.2953  0.3679
 1271SOL    HW2 4713   1.969   6.038   6.356 -1.1337  0.2336 -0.6003
 1272SOL     OW 4714   4.599   1.819   0.611  0.0465  0.1142  0.1028
 1272SOL    HW1 4715   4.691   1.787   0.634 -0.1190  0.2144  0.9360
 1272SOL    HW2 4716   4.532   1.774   0.670 -0.7703 -2.1095 -2.3017
 1273SOL     OW 4717   2.128   3.853   5.568  0.1190  0.4878  0.2086
 1273SOL    HW1 4718   2.094   3.766   5.534  1.7704 -0.4670  0.8865
 1273SOL    HW2 4719   2.143   3.916   5.492 -0.4344 -0.0512 -0.3539
 1274SOL     OW 4720   1.499   0.104   0.677 -0.0319 -0.2260  0.7272
 1274SOL    HW1 4721   1.476   0.179   0.614 -1.3640 -0.8711  0.4313
 1274SOL    HW2 4722   1.594   0.115   0.707 -0.0989  1.4112  0.4503
 1275SOL     OW 4723   5.654   2.340   2.704  0.2830 -0.2007  0.7064
 1275SOL    HW1 4724   5.566   2.346   2.752  1.2356  0.9648  2.4230
 1275SOL    HW2 4725   5.723   2.389   2.756  1.7024 -0.0196 -1.2486
 1276SOL     OW 4726   6.090   5.258   3.631  0.3977 -0.2961 -0.7621
 1276SOL    HW1 4727   6.006   5.205   3.641  0.4099  0.0027  1.5959
 1276SOL    HW2 4728   6.166   5.197   3.611 -0.0532 -0.8361 -0.8489
 1277SOL     OW 4729   6.801   6.321   0.730  0.6248 -0.0207  0.2964
 1277SOL    HW1 4730   6.751   6.315   0.816 -0.7714  0.8280 -0.4119
 1277SOL    HW2 4731   6.786   6.412   0.690  0.7520 -0.6089 -1.1266
 1278SOL     OW 4732   0.006   4.950   5.084 -0.0594 -0.0207  0.0504
 1278SOL    HW1 4733   0.068   4.871   5.088  1.2447  1.0309  1.4288
 1278SOL    HW2 4734   0.010   4.991   4.993  0.1330 -0.8339 -0.3185
 1279SOL     OW 4735   2.444   3.520   5.661  0.3459  0.6234 -0.1218
 1279SOL    HW1 4736   2.526   3.572   5.681  1.4392 -1.3342  0.8487
 1279SOL    HW2 4737   2.419   3.530   5.565  3.2129 -0.6845 -1.0900
 1280SOL     OW 4738   2.614   0.676   5.184 -0.3434 -0.6086 -0.6891
 1280SOL    HW1 4739   2.583   0.672   5.279  0.2222 -0.1719 -0.4765
 1280SOL    HW2 4740   2.713   0.694   5.182  0.6044 -4.7477 -1.2567
 1281SOL     OW 4741   4.775   6.592   3.906 -0.4444 -0.1414 -0.1513
 1281SOL    HW1 4742   4.844   6.558   3.970 -1.6829  1.7662  2.3750
 1281SOL    HW2 4743   4.768   6.529   3.829  0.4241 -3.1884  2.0447
 1282SOL     OW 4744   5.985   2.101   0.197  0.0078  0.3305  0.0579
 1282SOL    HW1 4745   5.964   2.003   0.194 -0.4640  0.4426 -0.2551
 1282SOL    HW2 4746   6.033   2.127   0.113 -1.3747  0.7096 -0.6452
 1283SOL     OW 4747   5.611   5.547   6.824 -0.2540 -0.6575 -0.4214
 1283SOL    HW1 4748   5.581   5.468   6.879 -1.7855  0.1719 -0.0250
 1283SOL    HW2 4749   5.710   5.542   6.811  0.0430 -1.3373  1.7064
 1284SOL     OW 4750   3.339   1.659   1.661  0.3105  0.1900  0.0966
 1284SOL    HW1 4751   3.352   1.588   1.729 -0.7934  0.8720  1.0589
 1284SOL    HW2 4752   3.275   1.728   1.696 -1.9984 -0.5029 -2.4143
 1285SOL     OW 4753   1.538   0.988   5.541 -0.7141  0.2174  0.1927
 1285SOL    HW1 4754   1.505   0.924   5.471  1.4695 -1.5974  0.7017
 1285SOL    HW2 4755   1.549   1.079   5.501  0.6891 -0.8055 -1.9512
 1286SOL     OW 4756   2.878   2.683   6.429  0.1402  0.1460  0.0083
 1286SOL    HW1 4757   2.894   2.589   6.460  1.2409  0.2804 -0.1055
 1286SOL    HW2 4758   2.790   2.715   6.463  0.0820 -0.6728  0.6594
 1287SOL     OW 4759   5.500   2.999   6.679 -0.1114 -0.1121 -0.3416
 1287SOL    HW1 4760   5.512   3.095   6.652 -0.6033  0.5028  1.5112
 1287SOL    HW2 4761   5.584   2.965   6.721 -0.5686  0.1501  0.8161
 1288SOL     OW 4762   4.445   3.542   5.873 -0.1220 -0.0471  0.3192
 1288SOL    HW1 4763   4.354   3.524   5.835 -0.0886  0.2849  0.0758
 1288SOL    HW2 4764   4.514   3.520   5.805  0.0008 -0.6681  0.6402
 1289SOL     OW 4765   0.459   6.743   1.508  0.4553  0.1771 -0.5431
 1289SOL    HW1 4766   0.370   6.708   1.538  0.7504  0.3496  0.6057
 1289SOL    HW2 4767   0.515   6.668   1.475  1.0607 -0.5201  1.8365
 1290SOL     OW 4768   0.849   6.399   6.884  0.0568 -0.5769 -0.1438
 1290SOL    HW1 4769   0.760   6.366   6.914 -0.1563 -0.3058 -0.4677
 1290SOL    HW2 4770   0.915   6.388   6.958  0.1317 -2.2046 -0.4173
 1291SOL     OW 4771   0.926   5.917   1.813  0.2135  0.5357 -0.5531
 1291SOL    HW1 4772   0.939   6.016   1.820 -1.0757  0.6301  2.8413
 1291SOL    HW2 4773   0.933   5.877   1.905 -1.1603 -2.2565 -1.5638
 1292SOL     OW 4774   6.953   6.238   4.885  0.0480 -0.1461 -0.6715
 1292SOL    HW1 4775   6.868   6.278   4.919  0.6983 -1.1734  2.4271
 1292SOL    HW2 4776   6.938   6.141   4.863  0.4337 -0.3420 -0.0683
 1293SOL     OW 4777   1.602   2.861   6.455  0.0267  0.1354 -0.1227
 1293SOL    HW1 4778   1.685   2.821   6.417  0.2941  2.5519 -2.4478
 1293SOL    HW2 4779   1.543   2.789   6.491  2.5924 -1.7567  0.5980
 1294SOL     OW 4780   0.942   4.000   6.515 -0.1123 -0.1240 -0.2371
 1294SOL    HW1 4781   0.933   4.070   6.585  0.8881 -0.3402  0.1364
 1294SOL    HW2 4782   0.904   4.033   6.429 -1.4125  0.1186  0.4195
 1295SOL     OW 4783   2.025   4.718   1.200  0.1103 -0.2389 -0.6633
 1295SOL    HW1 4784   1.966   4.796   1.176 -2.2630 -1.3144  1.2497
 1295SOL    HW2 4785   2.048   4.668   1.117 -1.1968  0.5840 -1.5650
 1296SOL     OW 4786   4.589   2.342   6.275 -0.0526  0.0948  0.0449
 1296SOL    HW1 4787   4.524   2.415   6.259 -0.6098 -0.5976 -0.9380
 1296SOL    HW2 4788   4.663   2.375   6.333 -0.9875  1.0438  0.7232
 1297SOL     OW 4789   6.889   6.031   1.966  0.0011  0.4596  0.2665
 1297SOL    HW1 4790   6.821   6.050   2.038 -0.1550 -1.3310  0.6625
 1297SOL    HW2 4791   6.975   6.003   2.009  0.2315  0.3868 -0.2429
 1298SOL     OW 4792   5.597   5.442   1.492 -0.0867  0.5026 -0.5328
 1298SOL    HW1 4793   5.577   5.512   1.423  1.5140  0.6428 -0.8995
 1298SOL    HW2 4794   5.606   5.486   1.582 -0.7280  0.5203 -0.4707
 1299SOL     OW 4795   2.114   3.753   3.456  0.3768  0.7510  0.9496
 1299SOL    HW1 4796   2.016   3.771   3.446  0.2590  0.2235  1.1239
 1299SOL    HW2 4797   2.146   3.700   3.377  0.5230  0.9373  0.8849
 1300SOL     OW 4798   3.645   5.157   2.137 -0.9232  0.3923  0.1571
 1300SOL    HW1 4799   3.729   5.202   2.107 -1.5542  2.8054  1.7008
 1300SOL    HW2 4800   3.575   5.168   2.067 -0.0830 -1.3957 -1.0212
 1301SOL     OW 4801   2.582   1.186   2.532  0.2547  0.4384  0.7449
 1301SOL    HW1 4802   2.507   1.250   2.548 -0.9192 -0.6072 -0.3713
 1301SOL    HW2 4803   2.546   1.101   2.493  2.1246  0.3302 -0.9135
 1302SOL     OW 4804   5.219   1.061   1.432  0.4864  0.3867  0.3182
 1302SOL    HW1 4805   5.136   1.078   1.485  0.9224  0.0256  1.1284
 1302SOL    HW2 4806   5.254   1.148   1.397 -0.5002  0.4980 -0.4683
 1303SOL     OW 4807   3.416   4.980   2.014  0.4432 -0.2426 -0.2578
 1303SOL    HW1 4808   3.337   4.934   2.055  1.8259 -1.0111  1.7270
 1303SOL    HW2 4809   3.492   4.915   2.008  1.9933  1.3221  1.1824
 1304SOL     OW 4810   1.838   2.323   0.183 -0.7565  0.4959  0.2340
 1304SOL    HW1 4811   1.894   2.302   0.103  0.9314  0.9190  1.2741
 1304SOL    HW2 4812   1.803   2.238   0.222 -0.3866  0.1895 -0.0909
 1305SOL     OW 4813   5.277   5.058   5.413 -0.1732 -0.3483  0.5607
 1305SOL    HW1 4814   5.206   5.008   5.461  0.1656 -2.0390 -0.6083
 1305SOL    HW2 4815   5.259   5.157   5.419 -3.8107 -0.7280 -1.4202
 1306SOL     OW 4816   6.293   1.131   3.886 -0.0684 -0.6668 -0.5240
 1306SOL    HW1 4817   6.251   1.045   3.914 -0.1464 -0.1208  1.0959
 1306SOL    HW2 4818   6.223   1.202   3.879  0.3441 -0.1219  0.6896
 1307SOL     OW 4819   2.136   4.238   3.834  0.1723  0.5824 -0.2636
 1307SOL    HW1 4820   2.174   4.187   3.756 -0.7426  0.7748 -0.8525
 1307SOL    HW2 4821   2.211   4.272   3.891  0.9341  1.7032 -1.8664
 1308SOL     OW 4822   0.419   6.496   5.818 -0.3474 -0.4874 -0.0069
 1308SOL    HW1 4823   0.447   6.407   5.782  1.6210 -0.0318  0.2899
 1308SOL    HW2 4824   0.389   6.555   5.744  2.5620  0.0550 -0.8777
 1309SOL     OW 4825   4.526   4.534   6.350 -0.3904  0.1673  0.0020
 1309SOL    HW1 4826   4.459   4.494   6.288 -1.2878  0.5236  0.7340
 1309SOL    HW2 4827   4.617   4.527   6.309 -0.9260  0.1142 -1.2082
 1310SOL     OW 4828   1.377   3.888   4.701 -0.6784  0.0103 -0.0383
 1310SOL    HW1 4829   1.464   3.853   4.667 -0.6267  0.8733 -0.8409
 1310SOL    HW2 4830   1.365   3.861   4.797  1.2270  1.2218  0.5970
 1311SOL     OW 4831   4.362   5.361   5.963 -0.4833 -0.1870  0.3127
 1311SOL    HW1 4832   4.376   5.459   5.946 -1.6233 -0.2281 -1.0748
 1311SOL    HW2 4833   4.423   5.308   5.904 -2.1822 -0.3057 -1.4307
 1312SOL     OW 4834   2.320   1.400   0.634  0.0817  0.2399  0.1245
 1312SOL    HW1 4835   2.351   1.337   0.563  0.0151  1.1976 -0.7872
 1312SOL    HW2 4836   2.252   1.355   0.693 -0.6204 -0.2590 -1.0419
 1313SOL     OW 4837   6.644   5.430   2.322  0.1901  0.2878  0.3380
 1313SOL    HW1 4838   6.624   5.399   2.415 -1.3562  2.2559  0.7507
 1313SOL    HW2 4839   6.637   5.354   2.258  1.7563 -1.2062  1.8487
 1314SOL     OW 4840   2.169   0.183   4.370 -0.8035  0.6603 -0.0696
 1314SOL    HW1 4841   2.255   0.140   4.342  0.2528  2.5298  0.1427
 1314SOL    HW2 4842   2.117   0.208   4.288 -0.7329  0.3167 -0.2217
 1315SOL     OW 4843   0.175   1.797   5.004 -0.4152  0.2165 -0.1949
 1315SOL    HW1 4844   0.108   1.804   4.930 -0.8058 -1.4777 -0.0365
 1315SOL    HW2 4845   0.263   1.832   4.972 -0.7343  0.0916 -1.2497
 1316SOL     OW 4846   2.117   0.049   5.569 -0.2863 -0.4054  0.3971
 1316SOL    HW1 4847   2.075  -0.041   5.583  0.1060 -0.5440  0.7356
 1316SOL    HW2 4848   2.176   0.045   5.488  0.1995 -0.6326  0.7554
 1317SOL     OW 4849   1.989   3.952   5.184 -0.5469  0.1950  0.0889
 1317SOL    HW1 4850   2.057   3.998   5.241 -1.2587  0.0046  1.1092
 1317SOL    HW2 4851   1.991   3.992   5.092 -1.1600  2.3174  0.9225
 1318SOL     OW 4852   2.100   1.500   0.417 -0.1610 -0.1752 -0.2281
 1318SOL    HW1 4853   2.035   1.442   0.467 -1.3839  1.5637  0.2800
 1318SOL    HW2 4854   2.176   1.523   0.478 -1.0928  1.0266  0.5294
 1319SOL     OW 4855   4.901   5.327   0.738 -0.0705  0.3708  0.6765
 1319SOL    HW1 4856   4.848   5.411   0.732  1.3260  1.1842 -1.3951
 1319SOL    HW2 4857   4.898   5.279   0.651  1.8053 -0.0262  0.7880
 1320SOL     OW 4858   3.898   3.667   5.615 -0.0728 -0.1747  0.2922
 1320SOL    HW1 4859   3.916   3.651   5.712  0.0375 -0.6500  0.1938
 1320SOL    HW2 4860   3.873   3.763   5.602 -0.0640 -0.1007  0.7858
 1321SOL     OW 4861   6.769   1.687   6.393 -0.3594  0.1028 -0.4934
 1321SOL    HW1 4862   6.814   1.765   6.436 -1.4435 -0.2787  1.4621
 1321SOL    HW2 4863   6.809   1.602   6.429 -0.7590 -0.2272 -0.8197
 1322SOL     OW 4864   4.523   0.585   4.844 -0.0607  0.0729  0.4346
 1322SOL    HW1 4865   4.599   0.522   4.855 -1.1009 -1.9578 -2.6236
 1322SOL    HW2 4866   4.437   0.537   4.865 -0.7618  0.9898 -0.2625
 1323SOL     OW 4867   2.527   5.296   6.668 -0.3679 -0.0248  0.4591
 1323SOL    HW1 4868   2.611   5.344   6.646 -0.6203  0.1601 -0.1364
 1323SOL    HW2 4869   2.454   5.362   6.684 -0.8967 -0.1778 -1.0851
 1324SOL     OW 4870   1.869   3.649   0.049 -0.7928  0.7152  0.1796
 1324SOL    HW1 4871   1.846   3.671  -0.046  1.4224  0.1475 -0.5391
 1324SOL    HW2 4872   1.868   3.550   0.062 -0.8457  0.7779  0.6928
 1325SOL     OW 4873   3.549   6.314   5.448 -0.2807 -0.2715  0.7341
 1325SOL    HW1 4874   3.586   6.237   5.396  2.4198  1.6079 -0.3848
 1325SOL    HW2 4875   3.594   6.318   5.538 -0.7783 -0.2811  0.9845
 1326SOL     OW 4876   4.900   3.335   5.008  0.3679  0.4451 -0.2111
 1326SOL    HW1 4877   4.887   3.304   5.102 -0.6399  0.3949 -0.3470
 1326SOL    HW2 4878   4.891   3.434   5.004  0.6862  0.4740 -0.2138
 1327SOL     OW 4879   0.761   6.710   0.060  0.0170  0.2833  0.2911
 1327SOL    HW1 4880   0.750   6.701  -0.040 -1.8833  0.4807  0.4461
 1327SOL    HW2 4881   0.798   6.800   0.081  2.0303 -0.3580 -0.2988
 1328SOL     OW 4882   1.750   4.000   5.360  0.0043  0.1711  0.5533
 1328SOL    HW1 4883   1.670   3.956   5.320  0.1454 -0.5264  1.0193
 1328SOL    HW2 4884   1.833   3.965   5.316  0.0334  1.2634 -0.2784
 1329SOL     OW 4885   0.446   0.575   1.261  0.5599  0.6859  0.3859
 1329SOL    HW1 4886   0.520   0.630   1.221  0.3196  0.9728  0.3303
 1329SOL    HW2 4887   0.455   0.573   1.361 -0.2169  1.9918  0.5040
 1330SOL     OW 4888   0.431   2.353   0.326  0.4995  0.1661  0.6456
 1330SOL    HW1 4889   0.509   2.409   0.353 -0.1205  0.7995  1.1559
 1330SOL    HW2 4890   0.356   2.367   0.390 -0.4258  0.4087 -0.4451
 1331SOL     OW 4891   4.483   0.906   1.583 -1.0350  0.8452  0.2959
 1331SOL    HW1 4892   4.495   0.997   1.622 -1.2241  0.6733  0.7749
 1331SOL    HW2 4893   4.449   0.912   1.490  0.7937  1.3116 -0.3759
 1332SOL     OW 4894   0.333   0.388   6.926  0.0419  0.0136  0.5691
 1332SOL    HW1 4895   0.292   0.376   7.016 -0.6697 -0.5702  0.1752
 1332SOL    HW2 4896   0.345   0.299   6.882  2.1056  0.1250  0.8143
 1333SOL     OW 4897   3.208   2.984   2.843 -0.0915  0.0377 -0.9514
 1333SOL    HW1 4898   3.258   2.967   2.758  0.6927 -0.7010 -0.3592
 1333SOL    HW2 4899   3.273   3.000   2.918 -0.7139 -1.2986 -0.0901
 1334SOL     OW 4900   0.388   2.277   1.270 -0.1521 -0.1295  0.1970
 1334SOL    HW1 4901   0.417   2.350   1.208  2.2026 -0.9320  0.2505
 1334SOL    HW2 4902   0.316   2.223   1.226 -1.1534  1.5232 -0.2850
 1335SOL     OW 4903   1.379   3.574   3.093  0.8224 -0.8159  0.2346
 1335SOL    HW1 4904   1.285   3.603   3.075  0.3939 -0.6518  2.4568
 1335SOL    HW2 4905   1.440   3.616   3.025 -0.4817  0.6107 -0.1246
 1336SOL     OW 4906   2.194   6.961   5.849 -0.3756  0.1897  0.0683
 1336SOL    HW1 4907   2.190   7.025   5.772 -0.7097  1.7487  1.3299
 1336SOL    HW2 4908   2.212   7.012   5.933  0.2630 -1.5082  0.9988
 1337SOL     OW 4909   1.097   0.128   2.872 -0.9007  0.6103  0.0412
 1337SOL    HW1 4910   1.064   0.038   2.846 -0.7785  0.4169  0.5421
 1337SOL    HW2 4911   1.066   0.196   2.805 -0.3436  0.0858 -0.7610
 1338SOL     OW 4912   5.985   2.778   4.039 -0.4926 -0.1652  0.7264
 1338SOL    HW1 4913   6.014   2.870   4.011 -0.3055  0.4808  2.9034
 1338SOL    HW2 4914   5.896   2.783   4.084 -0.3748 -1.0201  1.0692
 1339SOL     OW 4915   6.878   0.226   1.033  0.2896 -0.6442  0.8215
 1339SOL    HW1 4916   6.809   0.290   1.000  1.4471  0.5176  0.5321
 1339SOL    HW2 4917   6.907   0.253   1.126 -0.1531 -1.5501  1.2323
 1340SOL     OW 4918   6.285   2.147   2.414  0.5490  0.5931  0.2133
 1340SOL    HW1 4919   6.261   2.208   2.339  1.5097 -0.2709 -0.8415
 1340SOL    HW2 4920   6.214   2.077   2.423  0.0019  1.1997  0.6931
 1341SOL     OW 4921   2.691   5.364   6.201  0.2340 -0.6264  0.2462
 1341SOL    HW1 4922   2.764   5.314   6.248 -0.9216 -1.8793  0.8035
 1341SOL    HW2 4923   2.730   5.430   6.138  1.8389 -1.3049  0.4908
 1342SOL     OW 4924   2.344   4.505   1.406 -0.3625 -0.0650 -0.1414
 1342SOL    HW1 4925   2.392   4.573   1.460  1.8655  0.2519 -2.3233
 1342SOL    HW2 4926   2.312   4.546   1.321  1.8829 -1.8221 -1.9652
 1343SOL     OW 4927   6.385   6.644   2.220 -0.4848  0.4683  0.0850
 1343SOL    HW1 4928   6.434   6.703   2.156  0.9792  0.6674  1.3203
 1343SOL    HW2 4929   6.332   6.701   2.283 -1.6693  0.2854 -0.7064
 1344SOL     OW 4930   6.803   6.717   3.657 -0.0040  0.6200  0.1496
 1344SOL    HW1 4931   6.850   6.640   3.701  0.1119  0.8712  0.4739
 1344SOL    HW2 4932   6.705   6.700   3.656 -0.0594  0.8665  1.0185
 1345SOL     OW 4933   1.469   4.521   2.761  0.0396 -0.4882 -0.3582
 1345SOL    HW1 4934   1.539   4.574   2.809  1.2894 -2.3209 -0.0929
 1345SOL    HW2 4935   1.391   4.507   2.822 -0.4572  1.2266 -0.5252
 1346SOL     OW 4936   1.642   4.375   5.057 -0.2291  0.0472 -0.0193
 1346SOL    HW1 4937   1.641   4.276   5.040  0.0802 -0.1747  1.2005
 1346SOL    HW2 4938   1.567   4.417   5.005 -0.5975 -0.8720 -0.2666
 1347SOL     OW 4939   0.089   0.918   5.940  0.6590 -0.1268  0.2635
 1347SOL    HW1 4940   0.107   0.820   5.934 -1.4693 -0.5272 -0.5050
 1347SOL    HW2 4941   0.121   0.952   6.028 -1.6409 -2.3011  2.0988
 1348SOL     OW 4942   0.905   4.955   5.299  0.1145 -0.1976 -0.2818
 1348SOL    HW1 4943   0.944   4.868   5.269  0.3504 -0.0200 -0.4943
 1348SOL    HW2 4944   0.952   4.986   5.382  1.9290  1.0666 -1.6908
 1349SOL     OW 4945   5.009   3.668   2.988  0.0689 -0.2760 -0.1224
 1349SOL    HW1 4946   5.065   3.674   2.905  0.6358 -0.5672  0.2384
 1349SOL    HW2 4947   4.976   3.759   3.011 -0.7595 -0.3044 -1.1194
 1350SOL     OW 4948   2.153   5.749   6.713  0.3434  0.3361  0.2207
 1350SOL    HW1 4949   2.171   5.652   6.729  1.2424  0.4946  0.2557
 1350SOL    HW2 4950   2.219   5.803   6.766  1.4038  0.9163 -1.6200
 1351SOL     OW 4951   4.439   1.382   4.459 -0.2617 -0.2012  0.0440
 1351SOL    HW1 4952   4.527   1.371   4.413 -1.4601 -0.0164 -2.4462
 1351SOL    HW2 4953   4.413   1.479   4.459 -0.9547 -0.3771 -0.2278
 1352SOL     OW 4954   0.141   5.981   6.133  0.2638  0.4564  0.2582
 1352SOL    HW1 4955   0.234   5.986   6.095  1.0129 -0.3605  1.8857
 1352SOL    HW2 4956   0.140   6.021   6.225 -1.2822  1.5010 -0.1648
 1353SOL     OW 4957   0.784   3.761   1.488 -0.1596 -0.4373 -0.7171
 1353SOL    HW1 4958   0.867   3.780   1.540 -0.9212  0.0878  0.3309
 1353SOL    HW2 4959   0.805   3.767   1.390  0.8038  0.7538 -0.4665
 1354SOL     OW 4960   6.618   2.602   4.193 -0.6711 -0.0066  0.6757
 1354SOL    HW1 4961   6.578   2.511   4.190 -2.0581  0.5624  0.7728
 1354SOL    HW2 4962   6.547   2.670   4.172  0.3208  1.0493  0.6281
 1355SOL     OW 4963   0.025   3.190   4.675  0.0628  0.0710 -0.1233
 1355SOL    HW1 4964   0.103   3.196   4.737  0.7596  0.4016 -1.0104
 1355SOL    HW2 4965  -0.058   3.220   4.722  0.0773 -2.1449  1.4619
 1356SOL     OW 4966   3.625   2.881   3.657  0.1934 -0.1720 -0.3990
 1356SOL    HW1 4967   3.527   2.889   3.640  0.0744 -0.3037  0.1984
 1356SOL    HW2 4968   3.670   2.839   3.578 -0.3303 -0.7133 -0.4143
 1357SOL     OW 4969   4.779   1.408   6.368  0.4321 -0.6781 -0.0080
 1357SOL    HW1 4970   4.795   1.413   6.269  1.1416  1.6867  0.1695
 1357SOL    HW2 4971   4.851   1.354   6.411  1.4063  0.1464 -0.5604
 1358SOL     OW 4972   0.926   6.978   0.801  0.9302  0.0860 -0.7582
 1358SOL    HW1 4973   1.001   6.951   0.860 -0.2441 -1.3490  0.1348
 1358SOL    HW2 4974   0.962   7.007   0.712  2.5007 -1.0202 -0.5207
 1359SOL     OW 4975   1.371   3.877   2.667 -0.3440  0.2523  0.6246
 1359SOL    HW1 4976   1.309   3.870   2.746  0.6858  0.0135  1.4365
 1359SOL    HW2 4977   1.373   3.789   2.619 -0.4861  0.2077  0.6988
 1360SOL     OW 4978   4.920   3.190   6.463  0.0182  0.4060 -0.4818
 1360SOL    HW1 4979   4.976   3.222   6.540  1.6687 -0.2008 -1.3653
 1360SOL    HW2 4980   4.961   3.221   6.377  0.6241 -2.3679 -1.2867
 1361SOL     OW 4981   0.577   2.142   5.937  0.1006 -0.3285 -0.4579
 1361SOL    HW1 4982   0.539   2.057   5.973  0.2748  1.1967  3.9080
 1361SOL    HW2 4983   0.503   2.203   5.909 -0.2585 -0.3103  0.5175
 1362SOL     OW 4984   3.370   3.588   2.841 -0.0572  0.4121 -0.4271
 1362SOL    HW1 4985   3.450   3.528   2.850  1.4223  2.3473 -0.0208
 1362SOL    HW2 4986   3.335   3.611   2.932 -0.9943 -0.2940 -0.5998
 1363SOL     OW 4987   6.260   6.676   5.896 -0.0464  0.4454  0.5627
 1363SOL    HW1 4988   6.183   6.617   5.872  0.7302 -0.3489 -0.0218
 1363SOL    HW2 4989   6.310   6.635   5.973  0.5188  0.3114  0.1284
 1364SOL     OW 4990   6.355   4.091   0.140  0.5857  0.7778  0.2840
 1364SOL    HW1 4991   6.365   4.059   0.045  0.6315  1.8863 -0.0918
 1364SOL    HW2 4992   6.445   4.100   0.181  0.5413 -0.3993  0.6905
 1365SOL     OW 4993   1.907   3.881   6.051  0.0668 -0.0143  0.2202
 1365SOL    HW1 4994   1.968   3.849   6.124  0.8504  0.7309 -0.0929
 1365SOL    HW2 4995   1.959   3.893   5.967 -1.0323 -1.9884 -0.8288
 1366SOL     OW 4996   0.010   0.998   4.535  0.2822  0.3198 -0.2120
 1366SOL    HW1 4997  -0.066   0.935   4.517  1.1488 -0.7402 -0.2428
 1366SOL    HW2 4998  -0.020   1.092   4.516 -0.5692 -0.2111 -1.6968
 1367SOL     OW 4999   3.506   6.989   3.461  0.5444 -0.3232 -0.3685
 1367SOL    HW1 5000   3.579   7.033   3.514 -0.0738 -1.1847  1.2595
 1367SOL    HW2 5001   3.444   6.941   3.523 -0.8178 -0.5016 -1.8111
 1368SOL     OW 5002   6.585   6.843   2.615 -0.2232 -0.0243 -0.1468
 1368SOL    HW1 5003   6.614   6.862   2.521  1.3302 -0.9427  0.1187
 1368SOL    HW2 5004   6.538   6.923   2.652  1.3575  1.3027 -0.8595
 1369SOL     OW 5005   6.873   4.767   4.278  0.0517  0.2093  0.1829
 1369SOL    HW1 5006   6.820   4.692   4.238 -0.8961  0.5233  0.8115
 1369SOL    HW2 5007   6.970   4.750   4.264 -0.1871 -0.5277 -0.7556
 1370SOL     OW 5008   3.364   6.656   0.694  0.4323  0.4734  0.4772
 1370SOL    HW1 5009   3.375   6.753   0.676  0.3378  1.2448  3.9443
 1370SOL    HW2 5010   3.288   6.642   0.758  0.0499 -1.9738 -0.3822
 1371SOL     OW 5011   4.384   0.425   4.371  0.2330  0.1492  0.0319
 1371SOL    HW1 5012   4.472   0.419   4.419  0.4820 -3.1976 -0.6311
 1371SOL    HW2 5013   4.394   0.390   4.278 -1.6278  0.6135 -0.3809
 1372SOL     OW 5014   1.740   1.488   2.606  0.3221 -0.1003 -0.7148
 1372SOL    HW1 5015   1.737   1.396   2.568 -0.5523  0.0267 -0.9726
 1372SOL    HW2 5016   1.808   1.492   2.679 -0.2183 -1.1620 -0.1406
 1373SOL     OW 5017   6.815   4.770   6.663  0.0585  0.3770 -0.2404
 1373SOL    HW1 5018   6.785   4.684   6.704  3.0918 -0.3691  0.6663
 1373SOL    HW2 5019   6.755   4.844   6.693 -1.9410 -1.2090 -0.1224
 1374SOL     OW 5020   2.286   2.377   1.483  0.0538  0.3929  0.3195
 1374SOL    HW1 5021   2.270   2.376   1.385  0.5184 -0.5537  0.2389
 1374SOL    HW2 5022   2.206   2.342   1.531 -0.0368  0.5132  0.2556
 1375SOL     OW 5023   6.553   4.595   1.786 -0.3988  0.1506 -0.2268
 1375SOL    HW1 5024   6.512   4.590   1.877 -1.0668  1.5300 -0.4146
 1375SOL    HW2 5025   6.621   4.668   1.785  0.0757 -0.2931 -0.6684
 1376SOL     OW 5026   6.123   4.838   4.556  0.1998 -0.5671 -0.3509
 1376SOL    HW1 5027   6.088   4.747   4.532 -1.3863 -0.4005  1.1433
 1376SOL    HW2 5028   6.113   4.853   4.654  1.8934  0.6573 -0.3043
 1377SOL     OW 5029   6.922   6.424   6.644  0.2852 -0.1757  0.0578
 1377SOL    HW1 5030   6.833   6.380   6.658  1.0788 -1.4491  1.2900
 1377SOL    HW2 5031   6.933   6.499   6.708  0.3750 -0.4538  0.3679
 1378SOL     OW 5032   0.213   1.899   6.853 -0.2614  0.2318  0.1796
 1378SOL    HW1 5033   0.307   1.934   6.849 -0.5202  0.9672  0.5678
 1378SOL    HW2 5034   0.204   1.822   6.789  1.3795 -1.7036  2.0883
 1379SOL     OW 5035   4.335   5.063   2.908 -0.5227  0.4589 -0.5101
 1379SOL    HW1 5036   4.295   4.988   2.855 -0.4674 -0.2750  0.4537
 1379SOL    HW2 5037   4.265   5.132   2.925 -1.5024 -0.8859  1.2983
 1380SOL     OW 5038   0.766   1.653   2.775  0.1467 -0.2285  0.3278
 1380SOL    HW1 5039   0.674   1.635   2.741 -0.1538  1.5379  0.0921
 1380SOL    HW2 5040   0.765   1.737   2.830  2.3118  2.2257 -3.0329
 1381SOL     OW 5041   6.635   2.177   6.812  0.2402  0.1581  0.8333
 1381SOL    HW1 5042   6.595   2.158   6.723  0.9197 -2.4836  1.0053
 1381SOL    HW2 5043   6.646   2.276   6.823 -1.0501  0.6328 -1.4389
 1382SOL     OW 5044   5.991   5.510   5.194  0.0851  1.1137  0.2290
 1382SOL    HW1 5045   5.956   5.599   5.223 -2.0101 -0.0485  1.4884
 1382SOL    HW2 5046   6.080   5.495   5.237  0.0699  2.2221  0.7035
 1383SOL     OW 5047   0.710   0.660   1.200 -0.2517  0.5485 -0.5355
 1383SOL    HW1 5048   0.715   0.710   1.113  1.3746  1.7596  0.2161
 1383SOL    HW2 5049   0.778   0.587   1.201 -1.7541 -0.9458 -1.1055
 1384SOL     OW 5050   4.010   0.802   3.213  0.7328 -0.2978  0.0652
 1384SOL    HW1 5051   4.097   0.754   3.225  1.0129  0.4292  1.1801
 1384SOL    HW2 5052   4.004   0.838   3.120  1.4776 -0.6573 -0.1273
 1385SOL     OW 5053   0.971   3.932   1.875  0.1678  0.2611  0.2145
 1385SOL    HW1 5054   0.948   4.008   1.936 -1.1296 -0.6297  0.8666
 1385SOL    HW2 5055   0.894   3.870   1.868  1.5256 -1.5505  0.5013
 1386SOL     OW 5056   0.623   4.215   2.660 -0.1020 -0.6775 -0.0266
 1386SOL    HW1 5057   0.614   4.281   2.584 -0.1213  1.1378  1.4831
 1386SOL    HW2 5058   0.709   4.165   2.649  0.1406 -0.0937 -0.9971
 1387SOL     OW 5059   4.576   6.323   3.177  0.0712  0.1594  0.3348
 1387SOL    HW1 5060   4.570   6.289   3.270 -0.5963  2.2075  1.0971
 1387SOL    HW2 5061   4.487   6.358   3.148  0.6664  1.1317 -0.3995
 1388SOL     OW 5062   6.313   2.938   3.340  0.3447  0.1424 -0.0120
 1388SOL    HW1 5063   6.408   2.929   3.309  0.1366 -0.9054 -0.4114
 1388SOL    HW2 5064   6.261   2.857   3.311 -0.8977  1.0987 -0.5749
 1389SOL     OW 5065   6.209   0.069   5.730  0.0492 -0.1114  0.0744
 1389SOL    HW1 5066   6.276   0.141   5.709 -0.6540  0.8041  0.8907
 1389SOL    HW2 5067   6.124   0.089   5.681 -0.1408 -0.4067  0.2897
 1390SOL     OW 5068   3.044   1.756   0.278 -0.3089 -0.1976 -0.0942
 1390SOL    HW1 5069   3.012   1.709   0.195  1.1311 -0.0432 -0.7675
 1390SOL    HW2 5070   3.071   1.849   0.255 -1.6300  0.4761  0.9342
 1391SOL     OW 5071   6.059   5.930   4.442  0.1685  0.3943 -0.5984
 1391SOL    HW1 5072   5.967   5.903   4.471  1.4909 -0.7133  3.0825
 1391SOL    HW2 5073   6.094   5.864   4.377 -0.5988 -0.7834  0.1490
 1392SOL     OW 5074   4.353   5.431   5.215 -0.3317 -0.0709 -0.0313
 1392SOL    HW1 5075   4.307   5.431   5.304  1.4481 -0.9086  0.9326
 1392SOL    HW2 5076   4.366   5.336   5.185 -0.1231  0.1911 -0.7789
 1393SOL     OW 5077   0.214   1.126   5.373 -0.9797 -0.1193  0.3643
 1393SOL    HW1 5078   0.243   1.169   5.458 -1.0761  0.1054  0.2840
 1393SOL    HW2 5079   0.127   1.166   5.343 -0.9686 -0.2272  0.1832
 1394SOL     OW 5080   5.064   0.143   1.536 -0.1305 -0.3218  0.1645
 1394SOL    HW1 5081   5.074   0.063   1.595 -2.2242 -1.5744 -1.0210
 1394SOL    HW2 5082   5.019   0.216   1.588  1.7555  0.1240  1.2465
 1395SOL     OW 5083   2.762   6.239   2.007  0.3214 -0.0710  0.6051
 1395SOL    HW1 5084   2.722   6.246   1.916  0.6971 -0.0859  0.4362
 1395SOL    HW2 5085   2.753   6.327   2.053  0.1383 -0.0609  0.5532
 1396SOL     OW 5086   1.478   2.868   5.783  0.4583 -0.2202  0.5392
 1396SOL    HW1 5087   1.384   2.899   5.780 -0.1556 -1.3493  3.8524
 1396SOL    HW2 5088   1.539   2.944   5.806  0.2149  0.2604 -0.3821
 1397SOL     OW 5089   1.008   5.165   4.593 -0.2468  0.4205 -0.0104
 1397SOL    HW1 5090   0.929   5.214   4.557 -0.3255  0.9095  0.7942
 1397SOL    HW2 5091   1.090   5.194   4.544 -0.2493  1.6021  0.6550
 1398SOL     OW 5092   1.817   0.236   1.043 -0.8950 -0.2121  0.1956
 1398SOL    HW1 5093   1.861   0.214   1.130  0.8391  0.1069 -0.5553
 1398SOL    HW2 5094   1.830   0.333   1.022 -1.7653 -0.1639 -0.1811
 1399SOL     OW 5095   4.067   0.305   6.330 -0.3815 -0.1381  1.2671
 1399SOL    HW1 5096   4.101   0.322   6.423 -0.2693  0.6236  1.0892
 1399SOL    HW2 5097   4.032   0.390   6.291 -0.5823 -0.4910  0.6696
 1400SOL     OW 5098   4.761   2.197   4.497  0.8249  0.2629  0.5304
 1400SOL    HW1 5099   4.687   2.257   4.466 -0.0988 -0.8951  0.4391
 1400SOL    HW2 5100   4.842   2.252   4.515  0.7738  1.2595 -1.9174
 1401SOL     OW 5101   0.051   1.141   1.572 -0.0374  0.1357  0.2627
 1401SOL    HW1 5102  -0.016   1.202   1.528 -0.3400 -0.6504 -0.3782
 1401SOL    HW2 5103   0.119   1.112   1.505 -0.0110 -0.3963  0.5211
 1402SOL     OW 5104   6.377   4.087   2.573  0.1171 -0.1206 -0.3033
 1402SOL    HW1 5105   6.368   4.111   2.670  0.1232  0.0071 -0.3332
 1402SOL    HW2 5106   6.473   4.080   2.549  0.1460  0.9688 -0.5627
 1403SOL     OW 5107   3.233   3.700   0.537  0.2714  0.1342 -0.5333
 1403SOL    HW1 5108   3.315   3.721   0.485 -0.7911  0.2384 -2.2441
 1403SOL    HW2 5109   3.220   3.601   0.539  0.6672  0.0914  0.1256
 1404SOL     OW 5110   3.547   0.111   0.623  0.1447 -0.4650  0.0822
 1404SOL    HW1 5111   3.620   0.174   0.646  0.5785 -0.8076 -0.3431
 1404SOL    HW2 5112   3.556   0.082   0.528  0.0763 -1.3249  0.3262
 1405SOL     OW 5113   1.777   4.909   6.821  0.4348 -0.2858 -0.4195
 1405SOL    HW1 5114   1.842   4.888   6.894  0.1663 -1.7859 -0.5816
 1405SOL    HW2 5115   1.790   4.845   6.746  0.7831  1.2898 -1.7703
 1406SOL     OW 5116   1.776   2.948   0.515  0.2096 -0.4242  0.1144
 1406SOL    HW1 5117   1.680   2.969   0.535  0.1708 -0.2183 -0.2782
 1406SOL    HW2 5118   1.821   2.916   0.598 -0.2887 -0.8621  0.2251
 1407SOL     OW 5119   6.922   3.327   1.753 -0.0472 -0.4942 -0.2935
 1407SOL    HW1 5120   7.008   3.282   1.729  1.1969  1.5511  0.1363
 1407SOL    HW2 5121   6.927   3.424   1.730 -1.7769 -0.0698  0.8982
 1408SOL     OW 5122   4.883   6.613   6.513  0.1852  0.5946 -0.3381
 1408SOL    HW1 5123   4.874   6.526   6.466  1.8347  1.3274 -2.1312
 1408SOL    HW2 5124   4.860   6.601   6.610 -0.8733 -1.5029 -0.7805
 1409SOL     OW 5125   0.374   1.852   4.831 -0.2600  0.0765  0.0679
 1409SOL    HW1 5126   0.438   1.782   4.800 -0.4416 -1.1601  2.2849
 1409SOL    HW2 5127   0.402   1.942   4.796  1.3800 -0.7517 -0.8112
 1410SOL     OW 5128   4.506   3.167   5.925 -0.1410 -0.0425  0.0551
 1410SOL    HW1 5129   4.477   3.242   5.984 -0.6622 -0.7612  0.7332
 1410SOL    HW2 5130   4.590   3.126   5.963 -0.6498 -0.7038  0.4855
 1411SOL     OW 5131   4.357   5.909   1.238 -0.3130 -0.3435 -0.5406
 1411SOL    HW1 5132   4.347   5.998   1.193 -0.0194 -0.1941 -0.3130
 1411SOL    HW2 5133   4.454   5.891   1.254 -0.4527  0.0392  0.8852
 1412SOL     OW 5134   0.903   3.321   0.455  0.5945  1.0357 -0.2120
 1412SOL    HW1 5135   0.929   3.316   0.551 -1.5120  0.8258  0.3779
 1412SOL    HW2 5136   0.931   3.236   0.408  1.0345  0.8645  0.3529
 1413SOL     OW 5137   1.811   1.179   4.693 -0.0566 -0.4164 -0.1186
 1413SOL    HW1 5138   1.820   1.202   4.790 -0.4634 -0.5780 -0.0385
 1413SOL    HW2 5139   1.839   1.256   4.637  0.0979 -0.2923  0.1303
 1414SOL     OW 5140   2.101   3.606   3.688  0.2345 -0.2700 -0.2629
 1414SOL    HW1 5141   2.131   3.528   3.633 -1.9578 -0.3750 -1.4451
 1414SOL    HW2 5142   2.078   3.682   3.627 -0.9586  0.0867  0.6064
 1415SOL     OW 5143   2.209   0.789   6.385 -0.3433 -0.5255  0.2152
 1415SOL    HW1 5144   2.258   0.703   6.396 -0.0358 -0.1825  1.6381
 1415SOL    HW2 5145   2.205   0.837   6.472 -1.4000  0.4350 -0.3359
 1416SOL     OW 5146   4.143   5.571   4.055  0.0252  0.0416 -0.0474
 1416SOL    HW1 5147   4.158   5.587   3.958 -0.6178  2.3702  0.1864
 1416SOL    HW2 5148   4.055   5.611   4.083  0.0323 -0.8908  1.4210
 1417SOL     OW 5149   2.299   4.594   6.330  0.4124 -0.1756  0.2147
 1417SOL    HW1 5150   2.356   4.519   6.297 -1.3817 -1.4414 -0.1751
 1417SOL    HW2 5151   2.221   4.606   6.268 -0.0635  1.1115  1.0241
 1418SOL     OW 5152   3.449   4.053   7.021 -0.7666 -0.4991  0.0974
 1418SOL    HW1 5153   3.457   4.152   7.033 -0.0926 -0.5702  0.2311
 1418SOL    HW2 5154   3.481   4.028   6.930 -0.0738 -0.7014  0.3922
 1419SOL     OW 5155   1.827   4.761   3.769 -0.5472 -0.9602 -0.5554
 1419SOL    HW1 5156   1.862   4.667   3.775 -2.0947 -1.6638 -1.7759
 1419SOL    HW2 5157   1.904   4.824   3.770  0.7799 -2.4079 -2.4365
 1420SOL     OW 5158   5.186   6.120   3.389 -0.0722  0.0677 -0.4875
 1420SOL    HW1 5159   5.208   6.154   3.481  2.5556 -2.5098  0.0045
 1420SOL    HW2 5160   5.092   6.088   3.388  0.0753 -0.6228  1.6302
 1421SOL     OW 5161   2.027   4.213   5.441  0.5700 -0.8452  0.0977
 1421SOL    HW1 5162   1.934   4.174   5.446  0.3613 -0.3245  0.3976
 1421SOL    HW2 5163   2.059   4.211   5.347  0.2928 -1.1172  0.0053
 1422SOL     OW 5164   3.160   4.012   5.459 -0.3911 -0.3628  0.5449
 1422SOL    HW1 5165   3.062   4.031   5.453 -0.5995 -1.3633  0.6032
 1422SOL    HW2 5166   3.210   4.075   5.399 -1.1909 -0.7613 -0.5768
 1423SOL     OW 5167   4.211   0.550   5.319  0.7543  0.1146 -0.4637
 1423SOL    HW1 5168   4.205   0.534   5.220 -0.5735  0.3167 -0.4255
 1423SOL    HW2 5169   4.203   0.648   5.337  2.3462  0.2305 -0.2286
 1424SOL     OW 5170   4.867   4.013   4.374  0.0103 -0.3513 -0.1849
 1424SOL    HW1 5171   4.881   4.069   4.456  1.5548 -2.6835  1.2663
 1424SOL    HW2 5172   4.940   4.031   4.308 -0.3697  0.4144 -0.4088
 1425SOL     OW 5173   5.756   1.466   2.517 -0.0603 -0.0303 -0.1013
 1425SOL    HW1 5174   5.658   1.481   2.532 -0.1111 -0.5285  0.0950
 1425SOL    HW2 5175   5.771   1.446   2.420 -0.1902 -0.1909 -0.0903
 1426SOL     OW 5176   2.992   0.800   4.753  0.3407  0.0743  0.0397
 1426SOL    HW1 5177   3.037   0.820   4.840  0.9167  1.8474 -0.6146
 1426SOL    HW2 5178   2.906   0.851   4.747  0.6118  0.4647 -0.6689
 1427SOL     OW 5179   0.672   0.252   5.706  0.6492 -0.2283  0.5661
 1427SOL    HW1 5180   0.636   0.243   5.799 -0.2017 -0.9972  0.1806
 1427SOL    HW2 5181   0.755   0.307   5.707  0.1269  0.5655  1.6549
 1428SOL     OW 5182   0.552   2.546   3.877  0.1103 -0.1283 -0.2494
 1428SOL    HW1 5183   0.501   2.609   3.819 -0.1051 -0.8868 -0.9059
 1428SOL    HW2 5184   0.537   2.569   3.974 -0.1833  0.6395 -0.4724
 1429SOL     OW 5185   6.157   0.274   1.140  0.2683 -0.3315  0.0984
 1429SOL    HW1 5186   6.209   0.193   1.167  0.8523  0.1328  0.3695
 1429SOL    HW2 5187   6.092   0.297   1.212 -0.0545 -0.6804 -0.0737
 1430SOL     OW 5188   0.223   5.813   1.876 -0.3402  0.4039 -0.4016
 1430SOL    HW1 5189   0.145   5.835   1.817  1.3943  1.6571 -2.3862
 1430SOL    HW2 5190   0.275   5.738   1.835 -0.1556 -0.0296  0.5906
 1431SOL     OW 5191   2.219   1.761   6.102  0.5339  0.1992  0.1345
 1431SOL    HW1 5192   2.132   1.787   6.145  0.4783  0.6603 -0.2578
 1431SOL    HW2 5193   2.265   1.842   6.067  0.7819 -0.1260 -0.3057
 1432SOL     OW 5194   2.180   1.672   2.641  0.7766 -0.9524 -0.2310
 1432SOL    HW1 5195   2.146   1.679   2.547  1.3984  0.4992 -0.3858
 1432SOL    HW2 5196   2.103   1.668   2.704  0.3254 -0.2047 -0.7177
 1433SOL     OW 5197   3.907   6.056   5.194  0.1902  0.0908  0.0286
 1433SOL    HW1 5198   3.950   5.965   5.196 -1.5862 -0.7844  0.6404
 1433SOL    HW2 5199   3.887   6.081   5.099  0.8434 -0.0626 -0.1572
 1434SOL     OW 5200   0.273   0.368   0.858 -0.6415  0.1443 -0.1953
 1434SOL    HW1 5201   0.280   0.418   0.945 -2.0546  0.0619 -0.0223
 1434SOL    HW2 5202   0.284   0.270   0.876 -2.4822 -0.0275  0.1406
 1435SOL     OW 5203   2.065   1.098   4.736  0.2307 -0.3717 -0.2014
 1435SOL    HW1 5204   2.101   1.121   4.646  1.9676 -0.7030  0.3695
 1435SOL    HW2 5205   1.965   1.095   4.732  0.2501  0.1050 -1.9801
 1436SOL     OW 5206   5.509   1.034   1.058  0.3716 -0.0499  0.0180
 1436SOL    HW1 5207   5.528   1.117   1.005 -3.4285 -0.0412 -1.5990
 1436SOL    HW2 5208   5.526   0.954   1.000 -1.5470 -0.1160 -0.5169
 1437SOL     OW 5209   2.524   0.849   1.224 -0.5990  0.1923 -0.2243
 1437SOL    HW1 5210   2.462   0.866   1.300 -2.5541  1.5230 -1.9789
 1437SOL    HW2 5211   2.483   0.784   1.161  0.6394 -0.3137 -0.5439
 1438SOL     OW 5212   1.619   5.832   4.030  0.1811  0.2867  0.1773
 1438SOL    HW1 5213   1.719   5.840   4.027  0.2682  1.9192  3.2279
 1438SOL    HW2 5214   1.579   5.876   3.949  1.8900 -1.0239 -1.4609
 1439SOL     OW 5215   0.241   4.529   5.722  0.1319  0.0110  0.1471
 1439SOL    HW1 5216   0.143   4.513   5.713 -0.0543  1.5938 -1.0023
 1439SOL    HW2 5217   0.282   4.539   5.631  1.3192 -0.2835  0.6214
 1440SOL     OW 5218   3.644   3.581   3.491 -0.0954 -0.3002 -0.8594
 1440SOL    HW1 5219   3.566   3.526   3.522  0.1758  0.0230  0.4512
 1440SOL    HW2 5220   3.729   3.539   3.523  0.1702  0.2875 -0.7946
 1441SOL     OW 5221   5.937   2.062   4.227  0.1610  0.3324 -0.2559
 1441SOL    HW1 5222   5.989   2.102   4.151  0.4469 -0.6530 -0.5969
 1441SOL    HW2 5223   5.990   2.072   4.312  0.3227  0.4745 -0.3713
 1442SOL     OW 5224   4.691   4.598   2.531  0.2832 -0.0761 -0.2644
 1442SOL    HW1 5225   4.737   4.563   2.613  1.1768 -1.4966 -1.3327
 1442SOL    HW2 5226   4.739   4.567   2.450  0.8254  3.2411 -1.3675
 1443SOL     OW 5227   5.590   1.284   1.607  0.3158  0.1376 -0.5289
 1443SOL    HW1 5228   5.538   1.200   1.594  1.2592 -0.5889  0.2244
 1443SOL    HW2 5229   5.532   1.352   1.653  0.2788 -0.9875  1.1970
 1444SOL     OW 5230   4.477   1.208   3.722  0.2152 -0.1040 -0.3451
 1444SOL    HW1 5231   4.545   1.187   3.653 -0.5257  0.1382 -1.1664
 1444SOL    HW2 5232   4.465   1.307   3.728  1.4584 -0.0150  1.3111
 1445SOL     OW 5233   5.015   3.199   3.079  0.3477  0.1198  0.1775
 1445SOL    HW1 5234   4.964   3.131   3.027  1.2002  0.8367 -1.6905
 1445SOL    HW2 5235   5.090   3.234   3.023  1.5091  0.7257  2.0275
 1446SOL     OW 5236   4.944   0.479   7.008 -0.5454 -0.1349  0.4678
 1446SOL    HW1 5237   4.926   0.414   7.082 -0.0246 -3.2934 -1.9615
 1446SOL    HW2 5238   4.885   0.558   7.018 -2.8926 -1.9825  2.4071
 1447SOL     OW 5239   6.108   6.715   4.289 -0.3605  0.1090  0.3428
 1447SOL    HW1 5240   6.076   6.786   4.226 -2.3572 -0.5600  0.5421
 1447SOL    HW2 5241   6.033   6.689   4.350  1.4749  0.7824  3.0903
 1448SOL     OW 5242   4.916   0.512   5.433  0.2483 -0.1523 -0.1504
 1448SOL    HW1 5243   4.863   0.455   5.371  0.9010  0.1527 -1.0123
 1448SOL    HW2 5244   4.996   0.461   5.466  0.6358  0.1354 -0.6349
 1449SOL     OW 5245   5.290   1.868   0.162 -0.1913  0.3703  0.1555
 1449SOL    HW1 5246   5.250   1.940   0.219 -0.9795 -0.9678  1.3582
 1449SOL    HW2 5247   5.388   1.886   0.152 -0.2048  1.1518  1.1590
 1450SOL     OW 5248   5.228   1.700   5.273  0.1471 -0.1773  0.6574
 1450SOL    HW1 5249   5.295   1.744   5.333  0.2797 -1.5450  1.5578
 1450SOL    HW2 5250   5.247   1.602   5.268 -0.9631 -0.3711 -0.1859
 1451SOL     OW 5251   0.525   6.337   3.821 -0.0785 -0.0508 -0.0307
 1451SOL    HW1 5252   0.589   6.405   3.785  0.2287  0.4374  1.3893
 1451SOL    HW2 5253   0.549   6.316   3.916 -0.2391 -2.0709 -0.4050
 1452SOL     OW 5254   5.127   6.972   4.644 -0.3403 -0.5091 -0.2331
 1452SOL    HW1 5255   5.149   7.040   4.575 -1.0364 -1.5278 -1.4927
 1452SOL    HW2 5256   5.119   6.882   4.601 -1.3115 -1.0832  1.0858
 1453SOL     OW 5257   0.468   4.681   5.014  0.8363  0.4862  0.5598
 1453SOL    HW1 5258   0.461   4.597   4.961 -0.7662  0.9439 -0.0280
 1453SOL    HW2 5259   0.530   4.668   5.091  1.8980 -0.7121 -0.4511
 1454SOL     OW 5260   3.876   3.881   0.891  0.1601 -0.1861  0.0636
 1454SOL    HW1 5261   3.848   3.977   0.879  0.7729  0.4646  3.1337
 1454SOL    HW2 5262   3.973   3.872   0.870  0.0922 -0.1692 -0.2722
 1455SOL     OW 5263   2.851   0.990   2.167 -0.1314 -0.0631 -0.2439
 1455SOL    HW1 5264   2.840   1.055   2.242  2.1268  2.6747 -2.0830
 1455SOL    HW2 5265   2.949   0.978   2.147 -0.6302 -1.1590 -2.3569
 1456SOL     OW 5266   4.238   5.899   5.135 -1.2832 -0.2823  0.1662
 1456SOL    HW1 5267   4.325   5.915   5.089 -2.2064  1.8233 -0.9945
 1456SOL    HW2 5268   4.230   5.960   5.214 -2.0884  0.2530 -0.3145
 1457SOL     OW 5269   2.828   1.930   2.789 -0.0909 -0.2110 -0.4280
 1457SOL    HW1 5270   2.805   1.857   2.854  1.2354 -0.8975 -0.6944
 1457SOL    HW2 5271   2.877   2.003   2.836 -1.4653  0.5766 -0.1504
 1458SOL     OW 5272   5.286   6.220   3.936  0.3370  0.0316  0.4658
 1458SOL    HW1 5273   5.308   6.250   4.029  2.3789  0.8801 -0.2400
 1458SOL    HW2 5274   5.199   6.261   3.908  0.0942  0.4125  1.6999
 1459SOL     OW 5275   1.324   5.346   6.008  0.0837 -0.3349 -0.5389
 1459SOL    HW1 5276   1.407   5.315   6.055  0.9549 -0.1582 -1.8957
 1459SOL    HW2 5277   1.307   5.442   6.030  0.7504 -0.1196 -0.9151
 1460SOL     OW 5278   0.728   1.251   1.293  0.4087  0.0483  0.2078
 1460SOL    HW1 5279   0.810   1.201   1.321  0.9485  0.1100 -1.2209
 1460SOL    HW2 5280   0.753   1.324   1.230 -0.7862 -0.1594 -0.5299
 1461SOL     OW 5281   6.255   4.340   2.273 -0.7040  0.1859 -0.0464
 1461SOL    HW1 5282   6.202   4.425   2.260  0.0261  0.6359 -0.1440
 1461SOL    HW2 5283   6.202   4.277   2.329 -1.2487  0.7267  0.0665
 1462SOL     OW 5284   0.132   1.824   0.105 -0.1096  0.0262 -0.4617
 1462SOL    HW1 5285   0.033   1.840   0.110 -0.3405 -1.2944 -0.5646
 1462SOL    HW2 5286   0.171   1.880   0.032 -0.6669  0.9993 -0.0476
 1463SOL     OW 5287   0.434   3.110   4.042  0.4074  0.2294  0.0128
 1463SOL    HW1 5288   0.375   3.031   4.056 -0.8130  1.2838  1.1264
 1463SOL    HW2 5289   0.508   3.107   4.109 -1.0880  1.2922  1.8086
 1464SOL     OW 5290   6.887   4.773   0.161 -0.3647  0.0799  0.1793
 1464SOL    HW1 5291   6.964   4.711   0.172  1.1957  2.1250  1.2636
 1464SOL    HW2 5292   6.886   4.840   0.235 -2.6299  0.7259 -0.3494
 1465SOL     OW 5293   0.457   6.626   4.583 -0.0277 -0.0801 -0.3169
 1465SOL    HW1 5294   0.498   6.713   4.552 -0.3937 -0.1502 -1.0272
 1465SOL    HW2 5295   0.382   6.645   4.646  2.0846  0.0214  2.3373
 1466SOL     OW 5296   5.683   3.752   4.182  0.3094  0.0759 -0.0860
 1466SOL    HW1 5297   5.595   3.715   4.151  1.0862 -1.4247 -0.5689
 1466SOL    HW2 5298   5.675   3.781   4.277 -1.2693  1.9254 -0.7162
 1467SOL     OW 5299   1.856   0.875   2.705 -0.3950  0.2322 -0.4484
 1467SOL    HW1 5300   1.810   0.820   2.635  0.1503 -0.7961 -0.0281
 1467SOL    HW2 5301   1.788   0.931   2.753 -0.8850  0.3520 -1.2563
 1468SOL     OW 5302   6.280   6.512   4.629  0.0444 -0.4118 -0.0591
 1468SOL    HW1 5303   6.371   6.553   4.640 -0.3839  0.4903  0.2444
 1468SOL    HW2 5304   6.255   6.514   4.533  0.1525 -0.2238 -0.0852
 1469SOL     OW 5305   6.879   1.578   2.572  0.1838  0.1489  0.2894
 1469SOL    HW1 5306   6.916   1.571   2.664  1.5591  1.9968 -0.0596
 1469SOL    HW2 5307   6.949   1.552   2.505 -0.7525 -1.0451 -0.2617
 1470SOL     OW 5308   6.131   0.180   2.133 -0.0057  0.2318 -0.6982
 1470SOL    HW1 5309   6.224   0.203   2.160  0.3197 -0.3932 -1.2544
 1470SOL    HW2 5310   6.085   0.262   2.099  0.4158  0.4964 -0.6341
 1471SOL     OW 5311   0.576   0.075   6.316 -0.5925 -0.7244 -0.1124
 1471SOL    HW1 5312   0.490   0.121   6.294 -0.7290 -0.6945  0.4538
 1471SOL    HW2 5313   0.614   0.115   6.400 -0.4833 -1.3378  0.1378
 1472SOL     OW 5314   5.429   0.989   3.835  0.0111 -0.0856 -0.5167
 1472SOL    HW1 5315   5.372   1.055   3.884  0.5886  0.0843 -0.0667
 1472SOL    HW2 5316   5.405   0.989   3.738 -0.5063  0.2379 -0.3919
 1473SOL     OW 5317   6.275   3.503   5.180 -0.4338 -0.7627  0.1212
 1473SOL    HW1 5318   6.288   3.553   5.095 -1.3300  1.0775  1.0169
 1473SOL    HW2 5319   6.357   3.450   5.201 -0.1800 -1.2250 -1.8243
 1474SOL     OW 5320   5.986   4.246   5.584 -0.1467  0.3132 -0.9559
 1474SOL    HW1 5321   6.004   4.151   5.606  0.9214  0.9250  1.0334
 1474SOL    HW2 5322   6.020   4.305   5.658  0.3243  2.3242 -2.6734
 1475SOL     OW 5323   3.114   6.564   3.986 -0.2995 -0.2952  0.2219
 1475SOL    HW1 5324   3.064   6.552   4.072 -1.9316  1.1233 -0.4783
 1475SOL    HW2 5325   3.209   6.538   4.000 -0.9358 -2.0494  1.9080
 1476SOL     OW 5326   1.472   1.950   3.062  0.4082 -0.2654 -0.5387
 1476SOL    HW1 5327   1.532   1.964   2.983 -1.4202  0.1083 -1.9225
 1476SOL    HW2 5328   1.434   1.857   3.058 -1.1951  0.3894 -1.2263
 1477SOL     OW 5329   2.679   4.652   4.746  0.1239  0.4347  0.1636
 1477SOL    HW1 5330   2.758   4.640   4.806 -0.6722  0.1952  1.2039
 1477SOL    HW2 5331   2.595   4.648   4.801 -0.5821  1.4606 -0.7957
 1478SOL     OW 5332   5.458   3.842   0.397 -0.0766  0.4083  0.6903
 1478SOL    HW1 5333   5.382   3.864   0.335  0.7253 -0.3985 -0.6225
 1478SOL    HW2 5334   5.422   3.799   0.480 -0.9975 -1.0996 -0.4370
 1479SOL     OW 5335   1.647   5.283   7.003 -0.0418 -1.0667 -0.2594
 1479SOL    HW1 5336   1.617   5.192   7.033  1.5626 -2.3274 -2.2415
 1479SOL    HW2 5337   1.620   5.298   6.908  2.0911 -0.6324 -0.8385
 1480SOL     OW 5338   1.538   0.895   1.464  0.4152  0.2997 -0.8723
 1480SOL    HW1 5339   1.570   0.861   1.552 -0.7723 -0.2358 -0.6358
 1480SOL    HW2 5340   1.478   0.974   1.478 -1.0646 -0.7669 -1.0829
 1481SOL     OW 5341   4.260   1.430   5.585 -0.3620 -0.1794  0.2295
 1481SOL    HW1 5342   4.161   1.442   5.589 -0.2924  0.1452  1.4401
 1481SOL    HW2 5343   4.282   1.336   5.560 -0.9637 -0.0332 -0.8861
 1482SOL     OW 5344   6.527   0.015   4.998  0.2914 -0.1288 -0.0015
 1482SOL    HW1 5345   6.569  -0.076   5.008  2.2458  0.7712  0.5221
 1482SOL    HW2 5346   6.496   0.027   4.904  0.4025 -1.1926 -0.1847
 1483SOL     OW 5347   1.502   2.555   0.955 -0.1419 -0.0678 -0.4360
 1483SOL    HW1 5348   1.484   2.574   1.052  0.2935  1.9687 -0.7123
 1483SOL    HW2 5349   1.421   2.512   0.914 -0.4791 -0.5891  0.7219
 1484SOL     OW 5350   5.998   5.931   3.590 -0.3143  0.1685 -0.2929
 1484SOL    HW1 5351   5.975   5.969   3.679  2.6477 -1.2278  1.2228
 1484SOL    HW2 5352   6.031   6.004   3.530 -0.7141  0.8800  0.3352
 1485SOL     OW 5353   5.184   3.737   2.782 -0.2482 -0.2431 -0.0388
 1485SOL    HW1 5354   5.168   3.686   2.697 -0.5552 -1.3847  0.6863
 1485SOL    HW2 5355   5.174   3.835   2.764  2.3665 -0.2197 -1.9338
 1486SOL     OW 5356   5.975   2.089   1.059  0.5102  0.2063  0.2092
 1486SOL    HW1 5357   6.050   2.030   1.030  2.1168  1.3893  1.7475
 1486SOL    HW2 5358   5.961   2.161   0.991  1.4703  0.5409  0.3375
 1487SOL     OW 5359   6.713   1.343   5.551 -0.1641  0.3693  0.5191
 1487SOL    HW1 5360   6.753   1.412   5.491 -1.3008  0.3626 -0.2587
 1487SOL    HW2 5361   6.765   1.258   5.542  0.1742  0.6070  0.1711
 1488SOL     OW 5362   4.325   2.357   3.432 -0.6144 -0.1297 -0.3135
 1488SOL    HW1 5363   4.362   2.449   3.440  0.3825 -0.3514 -1.9218
 1488SOL    HW2 5364   4.399   2.290   3.435 -1.2183 -0.8165 -0.2743
 1489SOL     OW 5365   2.315   5.390   3.963  0.2310 -0.0528 -0.2221
 1489SOL    HW1 5366   2.391   5.452   3.980 -0.0580 -0.0217  1.0321
 1489SOL    HW2 5367   2.265   5.420   3.881  0.4455  1.0140  0.0280
 1490SOL     OW 5368   0.478   2.310   0.053  0.4071  0.8215  0.2727
 1490SOL    HW1 5369   0.573   2.277   0.054 -0.5190 -2.1481  1.2398
 1490SOL    HW2 5370   0.458   2.355   0.140  0.8294  1.2099  0.1738
 1491SOL     OW 5371   0.950   2.151   4.666 -0.3196 -0.1417 -0.5098
 1491SOL    HW1 5372   1.032   2.188   4.623  0.1891  0.3243  0.8158
 1491SOL    HW2 5373   0.922   2.209   4.742 -2.0091 -0.1900 -1.0404
 1492SOL     OW 5374   5.730   2.453   1.669  0.6949 -0.5227  0.4361
 1492SOL    HW1 5375   5.711   2.532   1.726 -0.3857  0.8050 -1.6304
 1492SOL    HW2 5376   5.814   2.468   1.618  0.7901 -0.9647  0.4587
 1493SOL     OW 5377   2.016   0.319   5.447  0.2314  0.0636 -0.0830
 1493SOL    HW1 5378   2.009   0.231   5.494 -2.0543  0.2399  0.0472
 1493SOL    HW2 5379   2.049   0.388   5.511  1.7336 -0.6006 -0.1001
 1494SOL     OW 5380   3.115   1.310   5.778 -0.3142  0.1252  0.1261
 1494SOL    HW1 5381   3.195   1.251   5.776 -1.2043 -1.4509  3.2261
 1494SOL    HW2 5382   3.051   1.282   5.707  1.4875  0.9136 -1.8895
 1495SOL     OW 5383   1.514   1.923   2.533  0.3021  0.1917 -0.3705
 1495SOL    HW1 5384   1.429   1.880   2.565 -0.3764  0.8305 -1.2498
 1495SOL    HW2 5385   1.541   1.881   2.447  1.2388 -0.4337  0.2166
 1496SOL     OW 5386   6.562   0.547   2.816  0.0190 -0.1624 -0.2856
 1496SOL    HW1 5387   6.546   0.502   2.728  0.0659  0.9239 -0.8730
 1496SOL    HW2 5388   6.533   0.486   2.890  0.1310 -1.1637 -1.0367
 1497SOL     OW 5389   6.616   4.879   5.609 -0.1238 -0.0051  0.4636
 1497SOL    HW1 5390   6.569   4.955   5.653 -2.0628 -1.3175  0.7896
 1497SOL    HW2 5391   6.630   4.900   5.512 -0.0501  1.0202  0.6885
 1498SOL     OW 5392   1.042   6.111   0.829  0.1427 -0.2012  0.3042
 1498SOL    HW1 5393   1.028   6.013   0.847  0.8770 -0.2364  0.7677
 1498SOL    HW2 5394   0.962   6.149   0.784  0.0229 -1.1178 -0.2892
 1499SOL     OW 5395   0.598   2.492   6.841  0.5743 -0.6776  0.2987
 1499SOL    HW1 5396   0.546   2.560   6.790  0.7880  0.3022  1.3432
 1499SOL    HW2 5397   0.537   2.443   6.904  0.6062 -0.7047  0.3085
 1500SOL     OW 5398   4.680   5.860   0.108 -0.0617 -0.5571  0.6820
 1500SOL    HW1 5399   4.759   5.818   0.064  0.4302 -0.4922  1.4984
 1500SOL    HW2 5400   4.596   5.820   0.069  0.3019  0.4443 -1.2588
 1501SOL     OW 5401   2.562   6.573   5.481  0.5373 -0.1516  0.2514
 1501SOL    HW1 5402   2.646   6.611   5.521 -0.5097  0.2376  2.2238
 1501SOL    HW2 5403   2.522   6.506   5.544 -1.0667  0.2904 -0.2408
 1502SOL     OW 5404   6.307   0.407   5.402 -0.4981 -0.1761  0.0634
 1502SOL    HW1 5405   6.242   0.402   5.326 -0.8165  2.2341  0.0997
 1502SOL    HW2 5406   6.392   0.362   5.377 -0.3359  1.1870 -2.0372
 1503SOL     OW 5407   5.386   5.613   5.216  0.6717 -0.1318 -0.1628
 1503SOL    HW1 5408   5.417   5.688   5.156 -0.3888  1.0478  0.7049
 1503SOL    HW2 5409   5.399   5.526   5.169 -1.5153  0.7973 -2.8381
 1504SOL     OW 5410   2.797   6.991   5.246 -0.4133 -0.6350  0.1270
 1504SOL    HW1 5411   2.726   6.945   5.192 -1.2002 -1.3145  1.6854
 1504SOL    HW2 5412   2.870   6.927   5.268  2.2050  0.6697 -3.7391
 1505SOL     OW 5413   6.696   5.211   6.307  0.1461  0.0641 -0.0653
 1505SOL    HW1 5414   6.642   5.130   6.286 -0.6177  0.1407  1.4355
 1505SOL    HW2 5415   6.766   5.224   6.237 -0.3753 -1.2906 -0.8774
 1506SOL     OW 5416   6.794   5.661   4.134  0.0645  0.4025 -0.1201
 1506SOL    HW1 5417   6.811   5.668   4.036  0.5270  0.5048 -0.0340
 1506SOL    HW2 5418   6.807   5.751   4.177 -0.5330  0.4490 -0.0232
 1507SOL     OW 5419   1.288   1.357   4.541  0.1997  0.2060  0.2608
 1507SOL    HW1 5420   1.306   1.428   4.473 -0.3731  1.9077  1.8124
 1507SOL    HW2 5421   1.362   1.356   4.608 -0.0187 -0.3455  0.4969
 1508SOL     OW 5422   4.720   0.835   6.096 -0.0056  0.1697 -0.3088
 1508SOL    HW1 5423   4.766   0.850   6.008  2.6793  0.0364  0.9701
 1508SOL    HW2 5424   4.701   0.738   6.108 -1.8623  0.3580 -1.3676
 1509SOL     OW 5425   2.974   3.204   6.685 -0.1665 -0.6883 -0.0338
 1509SOL    HW1 5426   2.896   3.253   6.645  0.5949  0.0783 -0.6106
 1509SOL    HW2 5427   2.975   3.217   6.784  0.0909  0.5737 -0.1943
 1510SOL     OW 5428   6.751   0.295   4.028 -0.4812  0.0580 -0.4415
 1510SOL    HW1 5429   6.693   0.370   3.998 -0.4354  1.3564  2.3502
 1510SOL    HW2 5430   6.694   0.216   4.053 -0.8981  0.5550  0.2233
 1511SOL     OW 5431   0.950   5.760   6.825  0.4630 -0.0032 -0.0303
 1511SOL    HW1 5432   0.953   5.699   6.746 -0.5539 -0.7971  0.5253
 1511SOL    HW2 5433   0.914   5.849   6.796  1.3507  0.1468 -0.7165
 1512SOL     OW 5434   1.955   0.332   3.411 -0.3595  0.3224  0.3813
 1512SOL    HW1 5435   1.922   0.394   3.482 -0.2117  1.7454 -0.7390
 1512SOL    HW2 5436   1.895   0.338   3.331  0.3167 -0.0995 -0.1700
 1513SOL     OW 5437   1.540   2.927   4.590  0.2095 -0.1786  0.1134
 1513SOL    HW1 5438   1.527   2.971   4.501 -1.2977  0.4859  0.6412
 1513SOL    HW2 5439   1.638   2.917   4.608  0.5785 -1.4163 -2.1364
 1514SOL     OW 5440   6.436   0.564   6.375  0.0794 -0.0263 -0.5415
 1514SOL    HW1 5441   6.437   0.467   6.402  2.1580 -0.1535 -0.8463
 1514SOL    HW2 5442   6.413   0.620   6.454 -0.8280 -0.7491 -0.2768
 1515SOL     OW 5443   6.705   3.446   5.126  0.1471  0.2524  0.3064
 1515SOL    HW1 5444   6.719   3.491   5.214 -1.5908  2.0305 -0.2526
 1515SOL    HW2 5445   6.789   3.401   5.097  1.4580  1.6952  1.7294
 1516SOL     OW 5446   0.662   1.676   1.292  0.5610  0.4518 -0.1642
 1516SOL    HW1 5447   0.710   1.755   1.330 -0.3909  0.7744  0.3845
 1516SOL    HW2 5448   0.573   1.666   1.336  0.4839 -0.6736 -0.5312
 1517SOL     OW 5449   3.311   5.601   3.303 -0.7946 -0.9327  0.0792
 1517SOL    HW1 5450   3.345   5.669   3.238 -0.3285 -1.3536 -0.1178
 1517SOL    HW2 5451   3.330   5.509   3.269  1.2915 -1.1859  1.7257
 1518SOL     OW 5452   6.096   2.234   7.020 -0.0202  0.2658 -0.2479
 1518SOL    HW1 5453   6.150   2.257   6.939 -0.6039 -0.7419 -0.9340
 1518SOL    HW2 5454   6.034   2.310   7.041 -2.5455 -0.8204 -3.0083
 1519SOL     OW 5455   4.280   4.227   0.698 -0.1411  0.3021  0.7101
 1519SOL    HW1 5456   4.332   4.142   0.697 -0.3517  0.1566  1.5296
 1519SOL    HW2 5457   4.230   4.235   0.785 -1.1421  0.6410  0.1239
 1520SOL     OW 5458   0.816   1.492   3.113  0.6430  0.1154 -0.7499
 1520SOL    HW1 5459   0.842   1.395   3.111 -2.0548 -0.6757 -0.9395
 1520SOL    HW2 5460   0.761   1.510   3.194 -1.8860  0.5597 -2.4482
 1521SOL     OW 5461   3.403   4.381   6.281  0.3567  0.2894 -0.0078
 1521SOL    HW1 5462   3.456   4.307   6.321 -0.4653 -0.1394  0.3237
 1521SOL    HW2 5463   3.414   4.464   6.336  2.2312  0.7872 -1.0462
 1522SOL     OW 5464   0.506   2.400   6.148  0.1443  0.4376  0.3774
 1522SOL    HW1 5465   0.603   2.394   6.125 -0.0864  0.2766 -0.6018
 1522SOL    HW2 5466   0.487   2.487   6.193  0.9314  0.0196  1.5764
 1523SOL     OW 5467   6.979   1.086   0.718  0.4327  0.0820 -0.3302
 1523SOL    HW1 5468   7.009   1.164   0.663 -1.1145  0.9478 -0.0181
 1523SOL    HW2 5469   7.005   1.099   0.813 -0.4275  0.5833 -0.1520
 1524SOL     OW 5470   5.866   0.146   1.957  0.5743  0.0440 -0.2610
 1524SOL    HW1 5471   5.863   0.062   1.902  0.4769 -0.1718  0.0713
 1524SOL    HW2 5472   5.818   0.219   1.907 -0.6115 -0.4742  0.0703
 1525SOL     OW 5473   5.149   3.151   0.604  0.3498  0.2513 -0.3740
 1525SOL    HW1 5474   5.152   3.250   0.617 -0.2957  0.1887  0.3366
 1525SOL    HW2 5475   5.157   3.105   0.692  2.4990 -0.4017 -0.8542
 1526SOL     OW 5476   6.352   3.497   0.894 -0.3754 -0.3532  0.2705
 1526SOL    HW1 5477   6.415   3.564   0.932  0.3759 -2.2370  2.6404
 1526SOL    HW2 5478   6.260   3.535   0.891  0.5754  2.0518 -2.1938
 1527SOL     OW 5479   4.424   0.716   0.295 -0.2216 -0.0464 -0.2015
 1527SOL    HW1 5480   4.475   0.630   0.299  1.5332  0.9934  2.5002
 1527SOL    HW2 5481   4.348   0.712   0.360  0.8605  0.9360  1.1965
 1528SOL     OW 5482   5.163   4.860   2.524 -0.3460 -0.0253  0.2266
 1528SOL    HW1 5483   5.240   4.862   2.588 -0.9253  0.0603  0.9367
 1528SOL    HW2 5484   5.086   4.812   2.565 -0.5476 -0.4565 -0.6321
 1529SOL     OW 5485   4.596   0.617   5.751 -0.2073  0.7092 -0.5042
 1529SOL    HW1 5486   4.509   0.642   5.793 -0.5484 -0.1359 -0.6796
 1529SOL    HW2 5487   4.615   0.678   5.674 -2.1416 -0.8799 -2.3674
 1530SOL     OW 5488   3.178   5.286   0.082 -0.2977 -0.4220 -0.8428
 1530SOL    HW1 5489   3.206   5.360   0.021  1.2223  1.1552  1.6302
 1530SOL    HW2 5490   3.097   5.314   0.134  1.3478  0.3974  1.4463
 1531SOL     OW 5491   0.772   5.712   0.349 -0.4965 -1.0450 -0.0988
 1531SOL    HW1 5492   0.819   5.800   0.361  0.4234 -1.4422 -0.6629
 1531SOL    HW2 5493   0.761   5.668   0.438 -2.0580  0.1598  0.3556
 1532SOL     OW 5494   3.072   1.004   5.976 -0.0554 -0.2613  0.0749
 1532SOL    HW1 5495   3.159   1.051   5.991 -1.3501  1.7241  1.8076
 1532SOL    HW2 5496   3.079   0.948   5.893  2.2407  1.3889 -0.9673
 1533SOL     OW 5497   5.605   3.031   4.375 -0.0660  0.4188  0.2699
 1533SOL    HW1 5498   5.596   3.019   4.474  0.9418  1.5266  0.5079
 1533SOL    HW2 5499   5.523   2.995   4.330  1.0076 -3.7139  1.1605
 1534SOL     OW 5500   6.972   6.875   6.700 -0.0116  0.3586  0.0127
 1534SOL    HW1 5501   7.022   6.827   6.628  0.0441  0.0296  0.2695
 1534SOL    HW2 5502   6.876   6.847   6.698  0.2084 -0.4940  0.7713
 1535SOL     OW 5503   3.314   5.555   4.930  0.2782  0.4279  0.3372
 1535SOL    HW1 5504   3.412   5.545   4.913  0.1785  0.3910 -0.2505
 1535SOL    HW2 5505   3.266   5.474   4.895  0.1854 -0.2954  2.0273
 1536SOL     OW 5506   2.291   5.673   4.864  0.1335 -0.8009  0.9268
 1536SOL    HW1 5507   2.386   5.693   4.888  0.2047  1.3790 -0.8716
 1536SOL    HW2 5508   2.285   5.651   4.766 -1.4235  1.0335  0.5569
 1537SOL     OW 5509   2.873   5.663   3.794  0.0653  0.4147 -0.2083
 1537SOL    HW1 5510   2.912   5.640   3.704  2.1361  1.4205  0.3833
 1537SOL    HW2 5511   2.824   5.750   3.787  0.0268  0.3808 -0.3930
 1538SOL     OW 5512   1.160   4.210   6.735 -0.7171 -0.1750  0.1272
 1538SOL    HW1 5513   1.211   4.172   6.812  0.3598 -2.6719 -1.6821
 1538SOL    HW2 5514   1.217   4.278   6.689 -1.8292  2.2582  2.1187
 1539SOL     OW 5515   3.537   4.048   1.727 -0.3709  0.7754 -0.0930
 1539SOL    HW1 5516   3.608   4.048   1.657 -0.3654 -0.1594 -0.1015
 1539SOL    HW2 5517   3.565   4.108   1.803  0.1182  0.9304 -0.3902
 1540SOL     OW 5518   0.289   0.546   4.493 -0.2217  0.1172  0.6816
 1540SOL    HW1 5519   0.263   0.574   4.401  1.5054  1.0855  0.4398
 1540SOL    HW2 5520   0.338   0.459   4.490  1.1828  0.8797  0.4470
 1541SOL     OW 5521   4.176   2.294   0.740  0.8570 -0.0126  1.2185
 1541SOL    HW1 5522   4.167   2.277   0.641 -0.0834 -0.3774  1.3534
 1541SOL    HW2 5523   4.128   2.379   0.763 -0.1688 -0.6698  1.5701
 1542SOL     OW 5524   1.325   6.702   1.870 -0.2461  0.1933 -0.0406
 1542SOL    HW1 5525   1.412   6.713   1.822  0.8040 -0.1639  1.6962
 1542SOL    HW2 5526   1.332   6.743   1.961 -1.0672 -1.9985  1.0668
 1543SOL     OW 5527   2.980   3.499   4.966 -0.0580 -0.3293 -0.3283
 1543SOL    HW1 5528   3.078   3.482   4.957  0.3227  0.4930  1.8237
 1543SOL    HW2 5529   2.942   3.522   4.876  1.7597 -0.3775 -1.1527
 1544SOL     OW 5530   3.393   3.963   2.396 -0.4056 -0.2491 -0.0794
 1544SOL    HW1 5531   3.366   4.030   2.327  0.0042  1.1390  1.0551
 1544SOL    HW2 5532   3.414   3.876   2.351  0.6708  0.8325 -1.8279
 1545SOL     OW 5533   4.928   0.006   5.505  0.4872  0.3474  0.3201
 1545SOL    HW1 5534   4.946   0.072   5.578 -2.2228 -0.7095  2.1245
 1545SOL    HW2 5535   4.982  -0.076   5.520 -1.4932 -0.6803  2.4904
 1546SOL     OW 5536   2.136   0.716   4.893  0.3380 -0.0185 -0.1516
 1546SOL    HW1 5537   2.053   0.675   4.855  0.3636 -0.4974  0.3044
 1546SOL    HW2 5538   2.129   0.719   4.993  0.6107  0.5094 -0.1444
 1547SOL     OW 5539   3.224   5.367   2.794  0.1661 -0.4845 -0.1895
 1547SOL    HW1 5540   3.147   5.430   2.802  1.1772  0.8833 -0.9888
 1547SOL    HW2 5541   3.202   5.297   2.726 -0.1975  0.1403 -0.7171
 1548SOL     OW 5542   0.103   3.850   4.586  0.4141  0.2276 -0.1465
 1548SOL    HW1 5543   0.083   3.940   4.624  1.9778  0.4023  0.3519
 1548SOL    HW2 5544   0.111   3.856   4.487  0.0636  0.5379 -0.1578
 1549SOL     OW 5545   6.164   3.214   1.679 -0.0760 -0.4099  0.6202
 1549SOL    HW1 5546   6.233   3.286   1.678 -0.9450  0.4518 -0.1821
 1549SOL    HW2 5547   6.073   3.255   1.669 -0.4428 -1.7112 -2.6184
 1550SOL     OW 5548   1.017   4.009   1.629  1.1710  0.2511 -0.6127
 1550SOL    HW1 5549   1.103   4.053   1.600 -0.1941  2.4230 -1.6244
 1550SOL    HW2 5550   1.012   4.010   1.729 -0.1638  5.7241 -0.4169
 1551SOL     OW 5551   1.133   3.780   1.161  0.2263  0.0215  0.2192
 1551SOL    HW1 5552   1.073   3.793   1.082  0.9521  0.1899 -0.3160
 1551SOL    HW2 5553   1.103   3.838   1.236 -0.6611 -0.3751  0.1791
 1552SOL     OW 5554   6.663   0.235   0.351  0.0240 -0.0217  0.2656
 1552SOL    HW1 5555   6.663   0.330   0.322 -0.9397 -0.4242 -1.1576
 1552SOL    HW2 5556   6.756   0.199   0.350  0.6254  1.3063  2.3490
 1553SOL     OW 5557   5.534   3.271   6.597  0.6034 -0.4690  0.6981
 1553SOL    HW1 5558   5.596   3.272   6.518 -0.8089  3.3841 -0.5981
 1553SOL    HW2 5559   5.559   3.345   6.659 -1.8251  0.3850  0.7682
 1554SOL     OW 5560   3.744   1.133   0.201  0.1923 -0.3308 -0.3320
 1554SOL    HW1 5561   3.690   1.202   0.152 -0.6309 -0.8021 -0.1199
 1554SOL    HW2 5562   3.705   1.119   0.291 -0.1418 -1.6388 -0.6583
 1555SOL     OW 5563   1.224   0.724   0.467  0.1102  0.2260 -0.2108
 1555SOL    HW1 5564   1.284   0.761   0.396  1.0266 -1.3828 -0.3162
 1555SOL    HW2 5565   1.177   0.644   0.432  1.9526 -1.7107  1.4733
 1556SOL     OW 5566   2.735   1.845   1.684  0.2538  0.3072 -0.0375
 1556SOL    HW1 5567   2.763   1.921   1.625  0.4417 -0.9792 -1.6838
 1556SOL    HW2 5568   2.636   1.832   1.677  0.4703 -0.8725 -1.4307
 1557SOL     OW 5569   3.477   1.739   2.074 -0.0483  0.1317  0.2161
 1557SOL    HW1 5570   3.549   1.692   2.024  0.1494  0.9731 -0.3168
 1557SOL    HW2 5571   3.435   1.808   2.014 -0.9214  0.0235  0.6938
 1558SOL     OW 5572   5.198   3.632   4.525 -0.5506 -0.3707  0.5167
 1558SOL    HW1 5573   5.135   3.563   4.489 -1.6644  0.4781  0.7571
 1558SOL    HW2 5574   5.194   3.631   4.625 -0.3561 -0.1491  0.5276
 1559SOL     OW 5575   1.780   5.524   2.157 -0.7100  0.3926  0.3332
 1559SOL    HW1 5576   1.733   5.482   2.080  1.2626  0.5724 -1.0326
 1559SOL    HW2 5577   1.772   5.623   2.151 -0.7694  0.4006  0.5179
 1560SOL     OW 5578   3.407   2.156   1.013 -0.0795 -0.2465  0.0252
 1560SOL    HW1 5579   3.339   2.222   1.044  1.2736  0.4482  1.6389
 1560SOL    HW2 5580   3.363   2.067   0.998 -1.6765  0.6635 -0.9201
 1561SOL     OW 5581   5.106   0.178   6.955 -0.5210  0.7261  0.0260
 1561SOL    HW1 5582   5.155   0.203   6.872  1.2682 -0.0826  0.7727
 1561SOL    HW2 5583   5.155   0.212   7.035 -0.1403 -1.6222  0.8843
 1562SOL     OW 5584   3.768   0.045   2.218  0.2500  0.1482  0.4496
 1562SOL    HW1 5585   3.688   0.059   2.159  0.9088  1.1115 -0.2469
 1562SOL    HW2 5586   3.818   0.131   2.227  0.6047 -0.1745  1.7983
 1563SOL     OW 5587   4.649   1.502   5.912 -0.6766  0.0281 -0.2257
 1563SOL    HW1 5588   4.581   1.486   5.840  0.8480  0.2253 -1.7650
 1563SOL    HW2 5589   4.679   1.598   5.909  1.4728 -0.6271 -1.2489
 1564SOL     OW 5590   3.701   1.429   2.653  0.4783  0.1494  0.4104
 1564SOL    HW1 5591   3.706   1.480   2.739  0.1427  0.1255  0.4436
 1564SOL    HW2 5592   3.787   1.441   2.603  1.0547 -0.6236  1.1909
 1565SOL     OW 5593   5.309   0.629   3.423 -0.0817 -0.4532  0.0554
 1565SOL    HW1 5594   5.383   0.642   3.489  0.4926  0.9570 -0.8197
 1565SOL    HW2 5595   5.222   0.651   3.466  0.3147  0.7251  0.2855
 1566SOL     OW 5596   5.118   4.592   4.293 -0.0309  1.0010 -0.3659
 1566SOL    HW1 5597   5.084   4.620   4.203 -2.3910 -0.0262  0.1136
 1566SOL    HW2 5598   5.041   4.557   4.347  1.4841  0.7955  1.7489
 1567SOL     OW 5599   5.273   0.357   2.989 -0.2253 -0.0714  0.0822
 1567SOL    HW1 5600   5.258   0.399   3.078 -0.3466 -0.6114  0.3171
 1567SOL    HW2 5601   5.244   0.262   2.991 -1.7175  0.3330 -0.9872
 1568SOL     OW 5602   3.213   6.416   4.712  0.4234  0.2013 -0.5712
 1568SOL    HW1 5603   3.274   6.352   4.665  0.1116 -1.9980  1.8401
 1568SOL    HW2 5604   3.267   6.495   4.743  1.7678 -0.9581  0.1624
 1569SOL     OW 5605   5.250   6.877   4.142  0.2368 -0.2197  0.4024
 1569SOL    HW1 5606   5.161   6.855   4.182  0.7505  0.3280  1.9238
 1569SOL    HW2 5607   5.236   6.924   4.055 -1.0077  0.9533  1.1899
 1570SOL     OW 5608   2.324   0.488   1.273 -0.3911  0.3028  0.1052
 1570SOL    HW1 5609   2.337   0.545   1.192  0.5371  0.2466  0.2073
 1570SOL    HW2 5610   2.276   0.404   1.247 -2.7573  1.5441  0.1341
 1571SOL     OW 5611   2.681   2.234   4.347 -0.6788 -1.1473  0.5375
 1571SOL    HW1 5612   2.647   2.302   4.282 -0.1301 -0.9203  0.4881
 1571SOL    HW2 5613   2.776   2.253   4.369 -0.6696 -1.6071  0.9105
 1572SOL     OW 5614   2.002   4.805   2.927 -0.0461 -0.1789 -0.2647
 1572SOL    HW1 5615   1.976   4.714   2.960  0.8546 -0.2828  0.1991
 1572SOL    HW2 5616   2.063   4.795   2.848 -0.7754  0.0487 -0.8707
 1573SOL     OW 5617   5.364   5.219   1.215 -0.2006 -0.3583 -0.2781
 1573SOL    HW1 5618   5.280   5.226   1.161  0.6102  1.5167 -1.3964
 1573SOL    HW2 5619   5.346   5.248   1.309 -1.0611 -1.1667 -0.1824
 1574SOL     OW 5620   5.265   2.942   2.839  0.0809  0.0059 -0.2351
 1574SOL    HW1 5621   5.346   2.890   2.868  0.2995  0.7947  0.6450
 1574SOL    HW2 5622   5.184   2.884   2.846  0.4597 -0.5323 -0.2725
 1575SOL     OW 5623   1.333   1.093   6.549 -0.1443 -0.3873 -0.2106
 1575SOL    HW1 5624   1.301   1.165   6.488 -1.2985  0.1433  0.9890
 1575SOL    HW2 5625   1.297   1.005   6.519  1.1542 -0.4994 -1.5962
 1576SOL     OW 5626   6.537   0.022   1.370  0.2428 -0.2405  0.2356
 1576SOL    HW1 5627   6.506  -0.068   1.336  1.6807 -0.5901 -0.2201
 1576SOL    HW2 5628   6.517   0.091   1.301 -1.5873 -0.0365  0.9103
 1577SOL     OW 5629   4.853   2.368   6.915 -0.3105 -0.2758 -1.0402
 1577SOL    HW1 5630   4.754   2.361   6.906 -0.1822 -2.4125 -1.2396
 1577SOL    HW2 5631   4.894   2.276   6.913  1.4766  0.3396  1.4138
 1578SOL     OW 5632   5.329   0.712   5.604 -0.5575 -0.1647  0.4135
 1578SOL    HW1 5633   5.351   0.675   5.694 -0.0017  0.4634  0.5414
 1578SOL    HW2 5634   5.236   0.747   5.604 -0.4510  0.1274  0.8456
 1579SOL     OW 5635   2.260   3.223   1.094 -0.0475  0.5877 -0.5204
 1579SOL    HW1 5636   2.360   3.224   1.088  0.0759  2.1827  0.9999
 1579SOL    HW2 5637   2.230   3.289   1.164 -2.1113 -0.6902 -0.1242
 1580SOL     OW 5638   3.522   3.293   5.070  0.3309  0.4298  0.0390
 1580SOL    HW1 5639   3.579   3.332   5.144 -0.5912  0.1027  0.9391
 1580SOL    HW2 5640   3.560   3.205   5.042 -0.0310 -0.0576  1.0327
 1581SOL     OW 5641   6.406   5.241   6.736  0.2683 -0.5323  0.3479
 1581SOL    HW1 5642   6.344   5.266   6.810  0.5055  1.1050  0.0516
 1581SOL    HW2 5643   6.484   5.305   6.735  0.6443 -0.9694 -0.8442
 1582SOL     OW 5644   3.611   6.008   2.998 -1.0459 -0.0500  0.4332
 1582SOL    HW1 5645   3.613   6.103   2.968 -2.6120  0.0066  0.4277
 1582SOL    HW2 5646   3.664   5.998   3.082 -2.2082  1.1941  1.3610
 1583SOL     OW 5647   1.431   5.920   5.072  0.1952  0.3331  0.0381
 1583SOL    HW1 5648   1.493   5.845   5.052 -0.9444 -0.2876 -1.3976
 1583SOL    HW2 5649   1.347   5.885   5.113 -0.1169  0.8759 -0.1137
 1584SOL     OW 5650   0.092   6.504   6.063  0.0431  0.2786  0.2317
 1584SOL    HW1 5651   0.189   6.479   6.061 -0.6624 -2.9982 -0.8000
 1584SOL    HW2 5652   0.058   6.511   5.969 -0.8053  1.0407  0.5861
 1585SOL     OW 5653   5.261   6.361   4.209 -0.7579  0.4135  0.5754
 1585SOL    HW1 5654   5.176   6.413   4.205 -0.5202  0.9237  1.6342
 1585SOL    HW2 5655   5.339   6.423   4.206 -0.4786  0.2925  3.0360
 1586SOL     OW 5656   3.628   5.562   4.600 -0.2880  0.6811 -0.2545
 1586SOL    HW1 5657   3.625   5.529   4.695 -0.4828 -0.0160 -0.4938
 1586SOL    HW2 5658   3.723   5.577   4.573 -0.2766  1.8058  0.3502
 1587SOL     OW 5659   1.719   0.755   6.315 -0.0294  0.3573  0.1806
 1587SOL    HW1 5660   1.709   0.851   6.342  1.9979 -0.1168  2.9881
 1587SOL    HW2 5661   1.813   0.737   6.287  0.1653 -1.2092  1.6715
 1588SOL     OW 5662   6.368   0.283   2.200 -0.3817  0.6932 -0.3031
 1588SOL    HW1 5663   6.434   0.259   2.271 -1.9097  1.4343  1.4482
 1588SOL    HW2 5664   6.412   0.342   2.132  0.9587  0.4399  0.3099
 1589SOL     OW 5665   5.111   3.614   2.148 -0.4692  0.3041 -0.0208
 1589SOL    HW1 5666   5.025   3.611   2.098 -0.0509 -1.5735 -0.7244
 1589SOL    HW2 5667   5.169   3.687   2.112 -1.1486  0.5718 -0.5934
 1590SOL     OW 5668   6.514   1.089   4.097 -0.7303 -0.2732 -0.1275
 1590SOL    HW1 5669   6.452   1.157   4.058 -0.5582 -0.6389 -1.0608
 1590SOL    HW2 5670   6.603   1.096   4.052 -0.1789  0.0525  0.9970
 1591SOL     OW 5671   6.269   5.974   3.299  0.2346 -0.2012 -0.9328
 1591SOL    HW1 5672   6.263   5.901   3.367 -2.8442  0.3429 -0.4454
 1591SOL    HW2 5673   6.200   5.959   3.228  2.0750  0.2964 -2.9041
 1592SOL     OW 5674   6.781   3.044   6.588  0.3033  0.2256 -0.4065
 1592SOL    HW1 5675   6.739   2.993   6.513 -1.7363  0.1698  0.6914
 1592SOL    HW2 5676   6.842   2.984   6.639 -0.6989 -0.6390 -0.1957
 1593SOL     OW 5677   2.745   5.454   6.621  0.3528  0.0787 -0.6487
 1593SOL    HW1 5678   2.830   5.403   6.607 -0.2333 -1.4528  0.9567
 1593SOL    HW2 5679   2.765   5.538   6.672  1.1241  0.6938 -1.9224
 1594SOL     OW 5680   6.602   1.767   6.643  0.4349 -0.0161  0.1095
 1594SOL    HW1 5681   6.518   1.804   6.603  0.8927 -0.4756 -1.3111
 1594SOL    HW2 5682   6.681   1.812   6.602  1.0502 -2.8895 -2.1929
 1595SOL     OW 5683   1.577   3.796   0.455  0.0467  0.3186  0.5102
 1595SOL    HW1 5684   1.647   3.781   0.385  2.0034  0.8109  2.2884
 1595SOL    HW2 5685   1.578   3.891   0.484 -1.3390  0.3194  0.6400
 1596SOL     OW 5686   5.827   3.619   1.810 -0.4047  0.0894 -0.1741
 1596SOL    HW1 5687   5.824   3.622   1.710 -0.6498  1.0422 -0.1437
 1596SOL    HW2 5688   5.893   3.687   1.843 -0.3568 -0.1942  0.3181
 1597SOL     OW 5689   1.356   6.442   1.362  0.7912 -0.5609  0.0585
 1597SOL    HW1 5690   1.408   6.514   1.408 -0.4132  0.6709 -0.4485
 1597SOL    HW2 5691   1.356   6.459   1.264  0.9786 -1.5978 -0.1329
 1598SOL     OW 5692   1.664   5.851   6.011  0.2762 -0.3889 -0.2192
 1598SOL    HW1 5693   1.756   5.832   6.044 -0.4116 -1.6144  1.0952
 1598SOL    HW2 5694   1.634   5.941   6.044  0.9631 -0.0073 -0.6109
 1599SOL     OW 5695   1.706   4.931   5.865 -0.0485  0.1004 -0.3970
 1599SOL    HW1 5696   1.650   4.966   5.940 -0.2752 -1.5568  0.2434
 1599SOL    HW2 5697   1.723   5.005   5.799 -0.8569  1.2738  0.6620
 1600SOL     OW 5698   3.151   6.802   1.350 -0.4633 -0.5524 -0.2589
 1600SOL    HW1 5699   3.139   6.710   1.388  1.1394 -1.0901 -0.9258
 1600SOL    HW2 5700   3.087   6.865   1.393 -0.1780 -1.5550  1.7676
 1601SOL     OW 5701   4.400   5.879   4.077  0.2809  0.0904 -0.4387
 1601SOL    HW1 5702   4.460   5.807   4.112 -2.2400 -1.9228  0.0334
 1601SOL    HW2 5703   4.369   5.854   3.985  2.8716  2.8853 -2.2583
 1602SOL     OW 5704   4.630   6.859   3.506  0.7111 -0.1919 -0.0451
 1602SOL    HW1 5705   4.667   6.768   3.524  1.4409  0.5170  2.3903
 1602SOL    HW2 5706   4.640   6.916   3.588 -0.2026  1.9330 -1.3333
 1603SOL     OW 5707   3.991   7.007   4.351  0.3900 -0.2628 -0.2657
 1603SOL    HW1 5708   4.075   7.049   4.388  1.2181  0.8047 -3.1119
 1603SOL    HW2 5709   3.921   7.077   4.342  0.0298 -0.6223 -0.2500
 1604SOL     OW 5710   3.179   5.228   2.184  0.5008 -0.4808 -0.8715
 1604SOL    HW1 5711   3.111   5.156   2.202 -0.1888  0.8769  3.0380
 1604SOL    HW2 5712   3.136   5.318   2.197  2.3186  0.5083 -1.4750
 1605SOL     OW 5713   3.152   3.666   6.831  0.1175  0.2267 -0.8855
 1605SOL    HW1 5714   3.145   3.583   6.775  2.0823 -0.3488 -0.3527
 1605SOL    HW2 5715   3.240   3.666   6.879 -0.7026  1.6508  0.7017
 1606SOL     OW 5716   2.946   5.536   6.308  0.5258  0.1039  0.3971
 1606SOL    HW1 5717   2.987   5.586   6.384 -0.4173  0.7750  0.4899
 1606SOL    HW2 5718   2.850   5.563   6.299  0.2925 -0.8941 -0.2497
 1607SOL     OW 5719   4.749   6.633   0.977  0.6078  0.4895  0.3290
 1607SOL    HW1 5720   4.722   6.698   0.906  1.0052 -0.9890 -1.2484
 1607SOL    HW2 5721   4.671   6.576   1.002  0.9874 -0.4584 -0.5735
 1608SOL     OW 5722   6.190   1.293   1.601  0.1701  0.3441 -0.0313
 1608SOL    HW1 5723   6.162   1.199   1.621 -2.1787  1.0502  0.2912
 1608SOL    HW2 5724   6.241   1.331   1.678 -0.0873 -0.2209  0.4208
 1609SOL     OW 5725   3.409   0.143   2.211  0.0449  0.2293 -0.0995
 1609SOL    HW1 5726   3.460   0.129   2.126 -0.5822 -1.9195 -0.1786
 1609SOL    HW2 5727   3.318   0.178   2.189  0.4934  1.4030 -0.1555
 1610SOL     OW 5728   4.019   0.689   6.603  0.2203  0.2536  0.0401
 1610SOL    HW1 5729   3.949   0.726   6.543  0.9782  2.4088  0.4068
 1610SOL    HW2 5730   4.019   0.589   6.597  0.2101  0.3576 -3.4626
 1611SOL     OW 5731   2.238   2.240   0.870  0.0563  0.0894 -0.0979
 1611SOL    HW1 5732   2.273   2.234   0.777  1.6443  1.9698  0.3270
 1611SOL    HW2 5733   2.215   2.335   0.892 -0.5619 -0.3583  1.3476
 1612SOL     OW 5734   3.226   6.880   1.978 -0.0353  0.1089  0.0576
 1612SOL    HW1 5735   3.156   6.821   1.937 -0.3988  1.4563 -1.3577
 1612SOL    HW2 5736   3.312   6.870   1.927  0.5903 -0.8887  1.2518
 1613SOL     OW 5737   4.092   5.565   2.592 -0.0925 -0.1323  0.5896
 1613SOL    HW1 5738   4.000   5.575   2.631 -0.3477 -1.3758  0.3321
 1613SOL    HW2 5739   4.131   5.656   2.577 -1.2937  0.4191  0.6669
 1614SOL     OW 5740   5.104   2.293   6.019 -0.1208  0.5930  0.5428
 1614SOL    HW1 5741   5.084   2.387   6.047  1.2283  0.9532  0.3508
 1614SOL    HW2 5742   5.080   2.230   6.094 -0.0400  1.1907  1.0811
 1615SOL     OW 5743   0.728   5.035   5.917 -0.6351  0.7894  0.3911
 1615SOL    HW1 5744   0.812   5.007   5.871 -0.9910  0.8889 -0.3263
 1615SOL    HW2 5745   0.745   5.042   6.016 -0.2424 -0.8601  0.4695
 1616SOL     OW 5746   1.741   2.960   5.635  0.1728 -0.0150 -0.4051
 1616SOL    HW1 5747   1.735   2.899   5.714  1.1659 -0.7242 -0.8516
 1616SOL    HW2 5748   1.661   2.948   5.577  0.3872 -0.9525 -0.5184
 1617SOL     OW 5749   5.563   6.438   4.714  0.3353 -0.1341 -0.1368
 1617SOL    HW1 5750   5.464   6.424   4.708  0.2144  1.0569 -1.1206
 1617SOL    HW2 5751   5.610   6.380   4.647  0.2957 -0.4520  0.1047
 1618SOL     OW 5752   2.293   0.239   3.451  0.0957 -0.4344  0.7406
 1618SOL    HW1 5753   2.333   0.218   3.540 -1.4927 -2.7174  1.0323
 1618SOL    HW2 5754   2.229   0.165   3.426  1.3388 -0.4896 -2.8148
 1619SOL     OW 5755   2.618   5.043   0.883  0.0646  0.3178 -0.3251
 1619SOL    HW1 5756   2.604   5.132   0.840  1.4156 -0.0159 -1.5241
 1619SOL    HW2 5757   2.711   5.038   0.920 -0.1116 -0.4770  0.0222
 1620SOL     OW 5758   2.978   5.402   0.968 -0.2347  0.2045 -0.5228
 1620SOL    HW1 5759   2.962   5.350   0.884 -0.1912  1.5256 -1.3901
 1620SOL    HW2 5760   2.906   5.382   1.034 -0.2674 -0.8613 -0.8633
 1621SOL     OW 5761   5.952   0.073   0.606  0.2682  0.3156 -0.3044
 1621SOL    HW1 5762   6.009   0.140   0.558 -0.4531  2.2145  1.3562
 1621SOL    HW2 5763   5.987  -0.019   0.587  1.4097  1.1109 -2.5149
 1622SOL     OW 5764   0.354   3.614   5.193  0.2979 -0.4904 -0.0627
 1622SOL    HW1 5765   0.314   3.705   5.191  0.9959 -0.1406  0.9046
 1622SOL    HW2 5766   0.291   3.551   5.239 -0.0664 -0.4420 -0.4904
 1623SOL     OW 5767   2.163   3.346   4.589 -0.2806 -0.3132  0.3180
 1623SOL    HW1 5768   2.078   3.394   4.566 -0.2052 -0.9628 -1.4419
 1623SOL    HW2 5769   2.239   3.412   4.588 -0.6652  0.1643  1.3523
 1624SOL     OW 5770   4.698   0.879   0.493  0.2339 -0.6767  0.1127
 1624SOL    HW1 5771   4.669   0.783   0.495  1.0803 -0.9390  2.0411
 1624SOL    HW2 5772   4.721   0.908   0.585  1.0409  1.0798 -0.6072
 1625SOL     OW 5773   2.252   4.135   2.290  0.1735 -0.2868 -0.1040
 1625SOL    HW1 5774   2.225   4.133   2.386  1.9834 -1.9018  0.4348
 1625SOL    HW2 5775   2.245   4.043   2.251  0.7787  0.0836 -1.1260
 1626SOL     OW 5776   3.058   6.892   0.451  0.4005 -0.3147 -0.1668
 1626SOL    HW1 5777   3.144   6.885   0.400 -0.0169  0.0456 -0.9317
 1626SOL    HW2 5778   3.069   6.958   0.525  1.5106 -2.0404  1.2693
 1627SOL     OW 5779   4.147   2.298   2.984  0.4886 -0.4012 -0.2035
 1627SOL    HW1 5780   4.162   2.249   3.070 -0.2898 -0.4605 -0.0930
 1627SOL    HW2 5781   4.051   2.289   2.957  0.6886 -0.2404 -0.9932
 1628SOL     OW 5782   4.811   0.373   4.258 -0.4048  0.1263  0.2308
 1628SOL    HW1 5783   4.840   0.279   4.239  0.1610  0.0481  1.3769
 1628SOL    HW2 5784   4.891   0.433   4.256 -0.4389  0.2477  1.3981
 1629SOL     OW 5785   3.659   6.693   3.469  0.2046 -0.1289 -0.6666
 1629SOL    HW1 5786   3.571   6.735   3.493  1.2298  1.5864  0.2738
 1629SOL    HW2 5787   3.667   6.688   3.369 -0.9427 -0.3207 -0.7672
 1630SOL     OW 5788   2.346   5.389   5.389 -0.5271  0.2216  0.1046
 1630SOL    HW1 5789   2.248   5.376   5.374 -0.6318  2.1146 -1.1584
 1630SOL    HW2 5790   2.389   5.419   5.304  1.2529 -0.9317  0.5354
 1631SOL     OW 5791   6.499   4.903   1.969 -0.1490  0.2655 -0.1018
 1631SOL    HW1 5792   6.439   4.833   1.930  1.7604 -1.1603 -0.6231
 1631SOL    HW2 5793   6.530   4.964   1.896 -0.2657  0.4710  0.0191
 1632SOL     OW 5794   5.548   6.082   1.713  0.2467 -0.5154 -0.4796
 1632SOL    HW1 5795   5.553   6.175   1.748  0.1084 -0.1934 -1.2854
 1632SOL    HW2 5796   5.605   6.021   1.769  0.5510  0.0993 -0.1162
 1633SOL     OW 5797   5.623   1.805   4.988 -0.5323 -0.1771 -0.7207
 1633SOL    HW1 5798   5.561   1.729   5.006 -1.1585  0.0104 -1.9404
 1633SOL    HW2 5799   5.717   1.778   5.011 -1.1708  0.0264  2.5347
 1634SOL     OW 5800   5.997   5.858   4.131 -0.4371  0.5097 -0.1864
 1634SOL    HW1 5801   5.987   5.931   4.199  2.9906  2.8899 -1.9287
 1634SOL    HW2 5802   6.089   5.820   4.138 -1.8590 -3.3351  0.1391
 1635SOL     OW 5803   2.869   5.567   3.497  0.3401 -0.1659 -0.1129
 1635SOL    HW1 5804   2.904   5.594   3.407  1.4249  1.3170  0.7166
 1635SOL    HW2 5805   2.773   5.595   3.505  0.2817 -0.1704 -0.7311
 1636SOL     OW 5806   4.845   4.755   1.210 -0.3870  0.1617  0.6101
 1636SOL    HW1 5807   4.746   4.749   1.200 -0.2876 -3.0562  0.4399
 1636SOL    HW2 5808   4.868   4.805   1.294 -2.3417 -1.9696  2.5636
 1637SOL     OW 5809   0.857   6.003   6.790  0.6387 -0.1742  0.4364
 1637SOL    HW1 5810   0.771   6.016   6.741 -0.5583 -2.5196  1.7042
 1637SOL    HW2 5811   0.851   6.046   6.880  0.7892 -0.3393  0.5257
 1638SOL     OW 5812   4.541   2.856   0.640 -0.0162  0.4236  0.0042
 1638SOL    HW1 5813   4.511   2.764   0.668  1.5266  0.2064  1.1090
 1638SOL    HW2 5814   4.620   2.883   0.695  1.9279  0.8809 -2.8022
 1639SOL     OW 5815   6.160   3.335   4.925  0.4176  0.6501  0.0265
 1639SOL    HW1 5816   6.253   3.373   4.926  0.5238  0.3887  0.0386
 1639SOL    HW2 5817   6.135   3.305   5.017  0.9021 -0.6809 -0.2501
 1640SOL     OW 5818   5.844   0.694   6.385 -0.5826 -0.2162  0.0289
 1640SOL    HW1 5819   5.914   0.630   6.352  0.1268  0.6833 -0.2279
 1640SOL    HW2 5820   5.826   0.675   6.482 -0.2068 -0.6402  0.0209
 1641SOL     OW 5821   0.307   2.839   1.664  0.2021 -0.1465  1.1703
 1641SOL    HW1 5822   0.241   2.833   1.739  0.9529  0.0518  1.8535
 1641SOL    HW2 5823   0.398   2.817   1.698  0.7192  0.9492  0.5447
 1642SOL     OW 5824   5.241   2.877   5.886 -0.2297 -0.3634 -0.7827
 1642SOL    HW1 5825   5.180   2.820   5.941  0.7851  0.0510  0.8494
 1642SOL    HW2 5826   5.268   2.828   5.804 -0.7795 -1.5363 -0.2845
 1643SOL     OW 5827   2.886   5.697   5.223 -0.0609  0.9712 -0.0925
 1643SOL    HW1 5828   2.909   5.606   5.189 -1.0815  0.8869 -0.5721
 1643SOL    HW2 5829   2.879   5.694   5.323  0.6555  0.7029 -0.0416
 1644SOL     OW 5830   6.827   1.831   3.696 -0.3605 -0.7141  0.3572
 1644SOL    HW1 5831   6.918   1.873   3.706 -0.0432 -1.5884  1.2670
 1644SOL    HW2 5832   6.771   1.854   3.775 -0.6154 -0.9642  0.2518
 1645SOL     OW 5833   1.769   1.260   3.617 -0.2781  0.0651  0.4220
 1645SOL    HW1 5834   1.842   1.247   3.550  0.1604  0.0835  0.8902
 1645SOL    HW2 5835   1.746   1.171   3.658  1.5426  0.4186  2.3974
 1646SOL     OW 5836   0.068   3.731   5.983  0.4907  0.2009 -0.0646
 1646SOL    HW1 5837   0.049   3.811   6.040  1.4616  0.9285 -0.7308
 1646SOL    HW2 5838   0.068   3.649   6.040  2.1575  0.9790  1.1527
 1647SOL     OW 5839   6.591   2.997   3.546 -0.0933 -0.3960  0.3582
 1647SOL    HW1 5840   6.573   3.021   3.450 -1.2012 -0.2500  0.5837
 1647SOL    HW2 5841   6.657   2.923   3.550  2.2120  1.4804 -0.4254
 1648SOL     OW 5842   5.655   6.214   1.321  0.2267 -0.0434 -0.2929
 1648SOL    HW1 5843   5.721   6.213   1.396  0.3456 -0.4795 -0.4057
 1648SOL    HW2 5844   5.701   6.240   1.236 -0.3512  3.0567  0.1982
 1649SOL     OW 5845   2.566   6.485   4.784  0.3928  0.3947  0.3359
 1649SOL    HW1 5846   2.649   6.439   4.752  2.6617  3.1968  1.7987
 1649SOL    HW2 5847   2.521   6.530   4.707  1.8863  1.2492 -0.0709
 1650SOL     OW 5848   3.340   5.314   1.257  0.2101  0.1848 -0.2319
 1650SOL    HW1 5849   3.394   5.306   1.173  0.1142 -0.6750 -0.2239
 1650SOL    HW2 5850   3.266   5.246   1.256  0.1658  0.2112  0.5205
 1651SOL     OW 5851   0.704   2.795   2.353 -0.1169  0.5079 -0.2610
 1651SOL    HW1 5852   0.609   2.765   2.366  0.6061 -2.6394 -1.4008
 1651SOL    HW2 5853   0.705   2.871   2.288 -1.8629  0.5756 -0.2775
 1652SOL     OW 5854   0.874   2.647   2.671 -0.0356 -0.4484  0.0498
 1652SOL    HW1 5855   0.922   2.605   2.748 -0.5526 -1.1824 -0.0211
 1652SOL    HW2 5856   0.776   2.633   2.681 -0.1900  0.3966 -0.1925
 1653SOL     OW 5857   1.365   6.477   2.990  0.0367  0.3430  0.0408
 1653SOL    HW1 5858   1.357   6.515   2.897  1.3309 -0.1537 -0.2988
 1653SOL    HW2 5859   1.408   6.387   2.985 -0.6680 -0.0560  1.0602
 1654SOL     OW 5860   2.568   2.414   2.285  0.0371  0.1341  0.2714
 1654SOL    HW1 5861   2.654   2.367   2.302 -0.9097 -1.0528  2.0036
 1654SOL    HW2 5862   2.500   2.349   2.250  0.2265  1.3648 -2.7528
 1655SOL     OW 5863   6.542   0.091   4.047  0.0470 -0.5754 -0.2148
 1655SOL    HW1 5864   6.520  -0.007   4.047  1.5985 -0.9387 -0.4758
 1655SOL    HW2 5865   6.573   0.118   3.956  0.6486 -0.0752  0.1325
 1656SOL     OW 5866   3.221   5.604   4.001  0.7089 -0.1699 -0.8247
 1656SOL    HW1 5867   3.178   5.667   4.067 -0.3229 -0.4712 -1.1926
 1656SOL    HW2 5868   3.203   5.637   3.908  1.6094 -0.1003 -0.9775
 1657SOL     OW 5869   0.877   1.421   5.077  0.1330  0.3946 -0.1349
 1657SOL    HW1 5870   0.918   1.512   5.073  0.8290  0.1939  1.4654
 1657SOL    HW2 5871   0.870   1.392   5.173  1.0697 -1.7201 -0.6404
 1658SOL     OW 5872   6.258   0.123   6.784 -0.2277 -0.2942  0.0222
 1658SOL    HW1 5873   6.354   0.144   6.802 -0.5640 -0.6763  2.7386
 1658SOL    HW2 5874   6.244   0.111   6.686  1.8315  2.7846 -0.7868
 1659SOL     OW 5875   4.716   0.331   5.732  0.4568 -0.0220  0.6212
 1659SOL    HW1 5876   4.660   0.278   5.796  0.5338 -0.3328  0.4330
 1659SOL    HW2 5877   4.729   0.424   5.768 -0.9676  0.3617  0.2383
 1660SOL     OW 5878   0.793   5.865   0.705 -0.1724  0.0519 -0.1838
 1660SOL    HW1 5879   0.700   5.901   0.699 -0.1960  0.3166  1.4560
 1660SOL    HW2 5880   0.841   5.907   0.782  1.4552  0.2232 -1.2327
 1661SOL     OW 5881   3.991   5.158   2.329  0.0076  0.0819  0.4548
 1661SOL    HW1 5882   3.954   5.245   2.296  1.2211  1.6688  2.9925
 1661SOL    HW2 5883   3.960   5.142   2.422  0.9497 -1.5320  0.5264
 1662SOL     OW 5884   6.782   1.705   5.329 -0.5098 -0.0870  0.4772
 1662SOL    HW1 5885   6.795   1.618   5.281  3.4216  1.2073 -1.2482
 1662SOL    HW2 5886   6.752   1.775   5.264  1.4886  0.9318  0.5900
 1663SOL     OW 5887   4.305   4.261   0.979  0.3823  0.1016  0.9638
 1663SOL    HW1 5888   4.239   4.186   0.986  0.4182 -0.5841 -3.2186
 1663SOL    HW2 5889   4.275   4.338   1.036 -2.7405 -1.0364  1.0654
 1664SOL     OW 5890   6.504   0.538   3.494  0.1482  0.2281 -0.2477
 1664SOL    HW1 5891   6.578   0.484   3.532 -1.1067 -1.6711 -0.3828
 1664SOL    HW2 5892   6.470   0.602   3.564  1.6658  0.9076 -0.0991
 1665SOL     OW 5893   2.826   3.851   1.543  0.3411  0.4795 -0.2845
 1665SOL    HW1 5894   2.823   3.819   1.638  3.5278  0.1522 -0.1712
 1665SOL    HW2 5895   2.861   3.778   1.485  0.5244  1.3637 -1.3155
 1666SOL     OW 5896   4.906   6.689   5.183  0.2915  0.0774  0.5322
 1666SOL    HW1 5897   4.937   6.698   5.088 -0.6917 -0.3372  0.1593
 1666SOL    HW2 5898   4.806   6.685   5.185  0.3313 -1.3503  1.4529
 1667SOL     OW 5899   0.650   6.518   0.922  0.2215  0.4780  0.4825
 1667SOL    HW1 5900   0.594   6.575   0.862  0.5892 -1.9557 -2.4208
 1667SOL    HW2 5901   0.747   6.539   0.907  0.2850  0.4672  0.8791
 1668SOL     OW 5902   5.196   4.127   4.827 -0.2726  0.2680 -0.3844
 1668SOL    HW1 5903   5.158   4.176   4.749  1.3319  1.7600 -0.2747
 1668SOL    HW2 5904   5.252   4.051   4.794  0.3292  0.8404 -0.7072
 1669SOL     OW 5905   5.796   3.464   0.428  0.0473 -0.6802  0.0531
 1669SOL    HW1 5906   5.860   3.539   0.442 -0.9241  0.3445 -0.8246
 1669SOL    HW2 5907   5.718   3.473   0.491 -0.3293 -0.6510 -0.4103
 1670SOL     OW 5908   3.234   5.039   6.091 -0.3521  0.5847  0.5437
 1670SOL    HW1 5909   3.145   5.077   6.119  0.8294  2.6569  1.8125
 1670SOL    HW2 5910   3.262   5.080   6.004 -0.3544  0.4240  0.4669
 1671SOL     OW 5911   5.839   1.285   1.202  0.5524  0.4262  0.2731
 1671SOL    HW1 5912   5.913   1.319   1.144 -0.9013  1.6581 -0.9531
 1671SOL    HW2 5913   5.829   1.186   1.188  0.9986  0.5062 -0.7126
 1672SOL     OW 5914   6.357   4.265   0.682 -0.0976  0.2314  0.1638
 1672SOL    HW1 5915   6.423   4.192   0.664 -0.6657 -0.1252 -0.5212
 1672SOL    HW2 5916   6.310   4.289   0.597  0.0436  1.3647  0.3912
 1673SOL     OW 5917   1.218   2.349   4.046 -0.4331 -0.0789 -0.0600
 1673SOL    HW1 5918   1.134   2.333   4.098 -0.3844  1.5069  0.5571
 1673SOL    HW2 5919   1.194   2.391   3.958 -0.2922  0.5474  0.1944
 1674SOL     OW 5920   6.101   2.816   3.692 -0.0461 -0.4579  0.0441
 1674SOL    HW1 5921   6.072   2.903   3.733  1.4506 -0.8919  2.1597
 1674SOL    HW2 5922   6.025   2.751   3.698 -0.4634  0.0484  0.4884
 1675SOL     OW 5923   5.635   1.491   1.332 -0.3499  0.0826  0.0593
 1675SOL    HW1 5924   5.594   1.537   1.411 -1.1624 -1.0421  0.3189
 1675SOL    HW2 5925   5.570   1.493   1.256  0.4304  1.1668 -0.6180
 1676SOL     OW 5926   3.273   1.024   4.387 -0.0696 -1.1319 -0.5030
 1676SOL    HW1 5927   3.275   1.076   4.472 -0.4351 -0.7373 -0.7330
 1676SOL    HW2 5928   3.268   1.087   4.310  0.4333 -1.4809 -0.8266
 1677SOL     OW 5929   3.073   2.495   5.416 -0.6099  0.0046  0.3439
 1677SOL    HW1 5930   3.151   2.467   5.359  0.0841 -0.8975  1.6721
 1677SOL    HW2 5931   3.105   2.510   5.510 -2.0658 -0.4506  0.9303
 1678SOL     OW 5932   0.302   0.773   2.008  0.4998  0.1817  0.2762
 1678SOL    HW1 5933   0.277   0.691   2.060  0.2887  0.1632  0.1482
 1678SOL    HW2 5934   0.344   0.840   2.069 -1.0744  0.7572  0.7823
 1679SOL     OW 5935   0.802   1.796   5.741 -0.2037 -0.1746  0.3054
 1679SOL    HW1 5936   0.775   1.891   5.726 -1.0766 -0.4404  0.1273
 1679SOL    HW2 5937   0.882   1.775   5.685 -0.7710  0.1029 -0.6309
 1680SOL     OW 5938   4.433   0.578   2.207 -0.6461  0.2451  0.1388
 1680SOL    HW1 5939   4.426   0.611   2.301 -0.2964  2.9117 -0.6907
 1680SOL    HW2 5940   4.528   0.553   2.188 -0.7979 -0.7412  0.5823
 1681SOL     OW 5941   2.287   5.795   2.827 -0.2199  0.1771  0.4866
 1681SOL    HW1 5942   2.374   5.840   2.806 -0.6823  1.4949  1.3143
 1681SOL    HW2 5943   2.247   5.760   2.742 -0.3806  2.3198 -0.3829
 1682SOL     OW 5944   3.548   0.521   4.907 -0.7085 -0.0344 -0.1441
 1682SOL    HW1 5945   3.529   0.423   4.898 -0.1410 -0.1837  0.2472
 1682SOL    HW2 5946   3.630   0.544   4.854 -1.3062  0.3913 -0.9100
 1683SOL     OW 5947   5.623   3.858   3.017  0.3690 -0.3742 -0.0289
 1683SOL    HW1 5948   5.578   3.921   3.080 -0.1191  0.9823 -1.6393
 1683SOL    HW2 5949   5.691   3.804   3.066  0.4653  1.0772  1.5336
 1684SOL     OW 5950   2.472   5.156   2.150  0.2370 -0.0654  0.1473
 1684SOL    HW1 5951   2.517   5.067   2.149 -1.1893 -0.8575  1.8340
 1684SOL    HW2 5952   2.487   5.201   2.062  2.4805 -1.1646 -0.1234
 1685SOL     OW 5953   6.982   1.142   6.818  0.0648 -0.3714 -0.0225
 1685SOL    HW1 5954   6.942   1.228   6.786 -1.3155 -1.0789 -0.2317
 1685SOL    HW2 5955   6.985   1.076   6.744 -0.5566 -1.0933  0.5788
 1686SOL     OW 5956   4.669   5.372   3.513 -0.7955 -0.3063  0.7974
 1686SOL    HW1 5957   4.675   5.292   3.572 -0.5077 -1.8045 -1.1494
 1686SOL    HW2 5958   4.610   5.352   3.435 -1.9676  1.9311  1.0227
 1687SOL     OW 5959   5.095   3.849   0.348 -0.2537  0.2996 -0.2909
 1687SOL    HW1 5960   5.074   3.767   0.401 -0.6030  0.2631 -0.4870
 1687SOL    HW2 5961   5.105   3.825   0.251 -0.7197  0.5453 -0.4025
 1688SOL     OW 5962   3.743   0.677   3.817  0.2501 -0.2064 -0.4039
 1688SOL    HW1 5963   3.842   0.664   3.809  0.5157  1.5212 -0.2797
 1688SOL    HW2 5964   3.701   0.670   3.726  0.6007 -0.1080 -0.5746
 1689SOL     OW 5965   6.552   0.829   0.079  0.1984 -0.1891  0.6844
 1689SOL    HW1 5966   6.607   0.821   0.162 -1.5481 -0.5806  1.8559
 1689SOL    HW2 5967   6.457   0.850   0.103 -0.3470 -0.2571 -1.2233
 1690SOL     OW 5968   2.338   2.836   4.101 -0.6608 -0.4901 -0.3633
 1690SOL    HW1 5969   2.278   2.773   4.149  0.4082 -0.9149  0.4519
 1690SOL    HW2 5970   2.421   2.789   4.072  0.8291  0.7838  1.5210
 1691SOL     OW 5971   4.681   1.774   4.677 -0.0561 -0.1877  0.9423
 1691SOL    HW1 5972   4.714   1.867   4.689  1.1115 -0.7397  2.3013
 1691SOL    HW2 5973   4.604   1.757   4.739  0.3314 -0.3944  1.3740
 1692SOL     OW 5974   6.927   3.928   6.979  0.2265  0.3864 -0.5742
 1692SOL    HW1 5975   6.971   3.917   7.068  1.0219 -1.5578 -1.1609
 1692SOL    HW2 5976   6.939   3.845   6.925 -3.2078  0.1471 -1.2088
 1693SOL     OW 5977   6.110   5.753   5.846  0.2733 -0.4300  0.5817
 1693SOL    HW1 5978   6.029   5.789   5.893  0.1572 -0.5616  0.4843
 1693SOL    HW2 5979   6.089   5.662   5.809  0.4187 -0.4002  0.4244
 1694SOL     OW 5980   5.177   6.635   3.757 -0.1578 -0.2952 -0.3793
 1694SOL    HW1 5981   5.239   6.654   3.680  0.1650  0.3483  0.0285
 1694SOL    HW2 5982   5.174   6.714   3.818 -0.9305 -0.5468 -0.0763
 1695SOL     OW 5983   3.723   6.578   6.313 -0.1391  0.1397  0.0040
 1695SOL    HW1 5984   3.815   6.603   6.283 -0.3686  0.9335 -0.0662
 1695SOL    HW2 5985   3.656   6.637   6.267 -0.6421 -0.0310  0.5087
 1696SOL     OW 5986   0.119   6.234   6.682  1.0144  0.9576 -0.3690
 1696SOL    HW1 5987   0.038   6.293   6.682  0.7129  0.5651 -0.8998
 1696SOL    HW2 5988   0.141   6.208   6.587  0.2795 -0.9027 -0.0912
 1697SOL     OW 5989   6.385   6.453   0.524 -0.0459 -0.5714 -0.4568
 1697SOL    HW1 5990   6.468   6.497   0.558  0.1585 -2.4379  1.7443
 1697SOL    HW2 5991   6.337   6.515   0.462  2.5052  0.8895 -1.0966
 1698SOL     OW 5992   5.338   0.635   0.386  0.2439 -0.3889  0.5048
 1698SOL    HW1 5993   5.244   0.601   0.388  0.3641 -0.7377  0.3059
 1698SOL    HW2 5994   5.339   0.733   0.407 -0.0218 -0.7032  2.1276
 1699SOL     OW 5995   0.706   0.669   5.034  0.6270  0.1541 -0.2559
 1699SOL    HW1 5996   0.614   0.678   5.072  1.3655  1.6334  1.2875
 1699SOL    HW2 5997   0.751   0.589   5.074  0.2094 -0.2673 -0.6193
 1700SOL     OW 5998   5.637   1.789   3.239  0.9070 -0.6804  0.1727
 1700SOL    HW1 5999   5.556   1.731   3.242  1.9420 -2.1737  2.3934
 1700SOL    HW2 6000   5.621   1.872   3.294  0.2418  0.0124 -1.0364
 1701SOL     OW 6001   6.195   5.501   5.667 -0.0832  0.0798  0.0145
 1701SOL    HW1 6002   6.278   5.527   5.617 -0.1983  0.4386  0.0008
 1701SOL    HW2 6003   6.115   5.525   5.611 -0.1955 -0.3487 -0.0129
 1702SOL     OW 6004   2.446   1.981   0.560  0.2302 -0.2611  0.7313
 1702SOL    HW1 6005   2.418   2.077   0.548  0.4005 -0.2248  0.6170
 1702SOL    HW2 6006   2.395   1.924   0.496  1.2175 -0.0534 -0.2672
 1703SOL     OW 6007   2.406   0.832   5.917 -0.3308  0.1717  0.4899
 1703SOL    HW1 6008   2.497   0.791   5.912 -0.3333  0.2957 -2.5857
 1703SOL    HW2 6009   2.343   0.783   5.856 -1.1722  2.6322 -0.7950
 1704SOL     OW 6010   3.700   1.928   2.350 -0.2482 -0.2088 -0.3203
 1704SOL    HW1 6011   3.642   1.984   2.291  0.6821  0.6029 -0.5022
 1704SOL    HW2 6012   3.680   1.832   2.336 -1.1730  0.0377 -0.7610
 1705SOL     OW 6013   4.163   1.288   0.360 -0.0377  0.3526 -0.4592
 1705SOL    HW1 6014   4.216   1.353   0.414 -0.1553  0.6237 -0.6679
 1705SOL    HW2 6015   4.066   1.303   0.376 -0.0543 -0.3553  0.1702
 1706SOL     OW 6016   4.409   2.620   1.017 -0.8108 -0.4630 -0.2338
 1706SOL    HW1 6017   4.509   2.612   1.018 -0.7541 -0.4059 -2.1600
 1706SOL    HW2 6018   4.370   2.554   1.081  0.3978 -1.7618 -0.7897
 1707SOL     OW 6019   2.990   1.692   2.470  0.5123  0.1329  0.1557
 1707SOL    HW1 6020   3.028   1.602   2.448  0.9567 -0.0427  1.5712
 1707SOL    HW2 6021   3.057   1.762   2.445  1.3974 -0.1194  1.6896
 1708SOL     OW 6022   1.672   6.205   0.769 -0.5268 -0.4444 -0.3519
 1708SOL    HW1 6023   1.739   6.148   0.722  0.0013  1.1851 -1.6900
 1708SOL    HW2 6024   1.583   6.158   0.772 -0.7162 -0.4927 -3.4357
 1709SOL     OW 6025   2.567   4.769   5.893  0.3702 -0.2517 -0.1993
 1709SOL    HW1 6026   2.565   4.843   5.960 -0.0015  1.7236 -2.2409
 1709SOL    HW2 6027   2.654   4.770   5.845 -0.6545  0.7718 -2.1630
 1710SOL     OW 6028   4.477   5.459   2.581 -0.4409  0.3206  0.3572
 1710SOL    HW1 6029   4.383   5.428   2.599 -1.0846  2.9571  2.1084
 1710SOL    HW2 6030   4.525   5.474   2.667  1.1248  0.4058 -0.4832
 1711SOL     OW 6031   3.652   5.825   6.309 -0.0895  0.2319  0.2682
 1711SOL    HW1 6032   3.636   5.757   6.238 -1.1618  0.4922  0.2444
 1711SOL    HW2 6033   3.733   5.800   6.363  1.0259  0.2838 -1.3310
 1712SOL     OW 6034   5.171   6.956   3.900 -0.0024  0.1116 -0.3706
 1712SOL    HW1 6035   5.207   7.014   3.827 -1.1286  1.3896  0.0520
 1712SOL    HW2 6036   5.073   6.942   3.887  0.2568 -1.8449 -0.5300
 1713SOL     OW 6037   2.914   0.388   4.704 -0.7676  0.0318  0.6375
 1713SOL    HW1 6038   2.921   0.289   4.720 -0.0864 -0.3348 -1.5397
 1713SOL    HW2 6039   3.000   0.432   4.727 -0.3702 -0.2259 -0.3010
 1714SOL     OW 6040   3.971   2.310   6.712 -0.0122 -0.0064 -0.6289
 1714SOL    HW1 6041   3.975   2.211   6.721  1.0325 -0.3054 -3.2844
 1714SOL    HW2 6042   4.059   2.349   6.737 -1.0483  0.5749  2.4965
 1715SOL     OW 6043   5.703   0.285   2.303  0.2441 -0.1406  0.5549
 1715SOL    HW1 6044   5.726   0.263   2.397 -0.4403 -1.3133  0.4724
 1715SOL    HW2 6045   5.676   0.201   2.255  0.6130  0.4292 -0.6889
 1716SOL     OW 6046   5.275   0.048   4.872 -0.1638 -0.8627 -0.3456
 1716SOL    HW1 6047   5.192   0.055   4.817 -0.5380 -2.8563 -0.1199
 1716SOL    HW2 6048   5.251   0.025   4.966  0.5987 -0.2070  0.0217
 1717SOL     OW 6049   3.299   4.555   5.573  0.1497  0.4478 -0.3213
 1717SOL    HW1 6050   3.279   4.534   5.477  1.3168 -0.2002 -0.4411
 1717SOL    HW2 6051   3.213   4.567   5.622 -0.4691  1.1024 -1.4996
 1718SOL     OW 6052   2.148   2.814   1.318 -0.4536  0.6988  0.4024
 1718SOL    HW1 6053   2.118   2.818   1.223 -1.9808 -1.5646  0.7186
 1718SOL    HW2 6054   2.243   2.784   1.323 -0.3048  1.0257 -0.3967
 1719SOL     OW 6055   0.843   5.130   2.230 -0.1236 -0.1471 -0.4313
 1719SOL    HW1 6056   0.769   5.108   2.166 -1.2424 -1.5501  1.2448
 1719SOL    HW2 6057   0.858   5.228   2.231 -0.9054  0.0260 -1.9149
 1720SOL     OW 6058   5.541   4.239   5.741  0.4531  0.2198 -0.0252
 1720SOL    HW1 6059   5.540   4.164   5.807 -1.2040 -1.1578 -1.5263
 1720SOL    HW2 6060   5.542   4.327   5.790 -0.5132 -0.7400  1.8240
 1721SOL     OW 6061   0.640   1.785   2.379 -0.0399 -0.1601  0.3597
 1721SOL    HW1 6062   0.585   1.867   2.396 -0.0370 -0.1623  0.3797
 1721SOL    HW2 6063   0.597   1.706   2.424  0.5631  0.0343  1.3090
 1722SOL     OW 6064   3.491   1.726   3.629  0.4789  0.7667 -0.0702
 1722SOL    HW1 6065   3.481   1.654   3.698  1.4101  1.9134  1.3279
 1722SOL    HW2 6066   3.418   1.718   3.561 -1.9071  0.9476  2.2908
 1723SOL     OW 6067   4.460   2.271   1.081 -0.1212 -0.5851  0.0596
 1723SOL    HW1 6068   4.450   2.237   0.988  1.2026  2.2492 -1.2607
 1723SOL    HW2 6069   4.520   2.209   1.133 -0.6394 -2.0500 -1.0190
 1724SOL     OW 6070   0.044   2.756   0.119 -0.3999  0.2794  0.3995
 1724SOL    HW1 6071   0.131   2.804   0.129  0.3707 -0.9016 -0.3213
 1724SOL    HW2 6072  -0.025   2.819   0.084  0.8027  0.6724 -1.3842
 1725SOL     OW 6073   2.282   5.130   6.104  0.1657  0.2262  0.4360
 1725SOL    HW1 6074   2.275   5.060   6.175 -1.0634 -0.0326  0.0803
 1725SOL    HW2 6075   2.256   5.092   6.016  2.8096  0.2276 -0.4223
 1726SOL     OW 6076   6.065   4.591   3.934  0.0603  0.2228 -0.6186
 1726SOL    HW1 6077   6.086   4.494   3.938  0.3130  0.2449 -1.1934
 1726SOL    HW2 6078   6.070   4.631   4.025 -1.8022 -0.6468 -0.0770
 1727SOL     OW 6079   2.956   3.612   2.954 -0.2518  0.2596 -0.1066
 1727SOL    HW1 6080   2.968   3.597   2.856  0.3023  1.5444 -0.2564
 1727SOL    HW2 6081   2.965   3.710   2.974 -0.8747  0.0753  1.1570
 1728SOL     OW 6082   3.975   1.939   5.191  0.1807 -0.1349 -0.7516
 1728SOL    HW1 6083   3.984   2.013   5.125  0.3673 -0.2474 -0.8533
 1728SOL    HW2 6084   4.063   1.924   5.237  1.1081 -2.4481 -3.0220
 1729SOL     OW 6085   2.147   5.543   2.368  0.2800 -0.2820 -0.7664
 1729SOL    HW1 6086   2.122   5.589   2.283 -0.2625 -0.5282 -0.7481
 1729SOL    HW2 6087   2.239   5.570   2.395  0.4683 -0.2239 -1.4461
 1730SOL     OW 6088   4.817   6.076   5.356  0.0162  0.0393 -0.0616
 1730SOL    HW1 6089   4.832   6.003   5.423  0.3405 -2.3612 -2.5568
 1730SOL    HW2 6090   4.790   6.035   5.269 -1.0195  3.0518 -1.2767
 1731SOL     OW 6091   5.131   4.697   5.455  0.0971  0.5219  0.3508
 1731SOL    HW1 6092   5.185   4.632   5.401 -0.1105  1.1170 -0.5941
 1731SOL    HW2 6093   5.041   4.707   5.414 -0.5551 -0.0363  1.6029
 1732SOL     OW 6094   1.247   3.990   6.370 -0.6105 -0.0614  0.2550
 1732SOL    HW1 6095   1.169   4.046   6.343  0.0165 -0.6279 -3.2273
 1732SOL    HW2 6096   1.220   3.894   6.372 -0.1540 -0.2127 -0.4761
 1733SOL     OW 6097   4.730   4.688   0.618  0.0069 -0.2551 -0.0060
 1733SOL    HW1 6098   4.686   4.736   0.543 -0.6754 -1.3824 -0.3518
 1733SOL    HW2 6099   4.805   4.743   0.654  0.5734  0.1391 -1.7373
 1734SOL     OW 6100   1.267   5.092   1.573 -0.5061  0.0504  0.1123
 1734SOL    HW1 6101   1.334   5.091   1.647 -0.8202  3.8932  0.6178
 1734SOL    HW2 6102   1.314   5.107   1.486 -0.4533 -0.8983 -0.0354
 1735SOL     OW 6103   4.388   6.086   6.214  0.1021 -0.3371  0.3332
 1735SOL    HW1 6104   4.442   6.119   6.137 -0.3887 -1.2914 -0.4387
 1735SOL    HW2 6105   4.338   6.163   6.255  0.0269  0.1075 -0.5674
 1736SOL     OW 6106   3.805   4.153   0.914 -0.5605 -0.2821  0.1608
 1736SOL    HW1 6107   3.826   4.107   1.000  0.1622  0.1939  0.2431
 1736SOL    HW2 6108   3.861   4.235   0.906 -1.0747  0.0118 -0.4774
 1737SOL     OW 6109   5.307   2.092   4.118 -0.1464 -0.4610 -0.3004
 1737SOL    HW1 6110   5.255   2.009   4.137  0.5366 -1.1393 -1.2479
 1737SOL    HW2 6111   5.404   2.076   4.139 -0.3279  0.8965  1.7950
 1738SOL     OW 6112   0.711   2.490   5.239  0.4900  0.0938  0.1347
 1738SOL    HW1 6113   0.685   2.531   5.153  0.9907 -0.3858 -0.2591
 1738SOL    HW2 6114   0.674   2.543   5.315  0.1525  0.5890 -0.3732
 1739SOL     OW 6115   5.958   0.492   3.714  0.3864  0.2205 -0.6054
 1739SOL    HW1 6116   5.861   0.503   3.733  0.2243  0.9038 -1.7761
 1739SOL    HW2 6117   5.985   0.550   3.637  1.8595  0.5322  0.0976
 1740SOL     OW 6118   5.239   0.521   4.463 -0.1343 -0.0875  0.0304
 1740SOL    HW1 6119   5.298   0.569   4.528 -0.2332 -0.9168  0.7520
 1740SOL    HW2 6120   5.286   0.440   4.429 -0.2350  0.1356 -0.6493
 1741SOL     OW 6121   1.212   1.706   5.363 -0.1016  0.0225 -0.3042
 1741SOL    HW1 6122   1.166   1.621   5.390  0.0338  0.1811  0.4362
 1741SOL    HW2 6123   1.194   1.724   5.266 -1.9677  0.3226  0.0753
 1742SOL     OW 6124   6.037   6.799   6.628 -0.3556 -0.1098 -0.1193
 1742SOL    HW1 6125   6.075   6.758   6.546  0.9157  0.5778  0.0877
 1742SOL    HW2 6126   6.010   6.728   6.693 -0.4423 -0.6296 -0.7233
 1743SOL     OW 6127   0.829   0.313   2.121 -0.2600 -0.2721  0.3571
 1743SOL    HW1 6128   0.731   0.329   2.120 -0.4664 -1.3244  1.1493
 1743SOL    HW2 6129   0.860   0.286   2.030 -0.9859 -1.3829  0.4242
 1744SOL     OW 6130   3.415   0.802   2.938  0.1252  0.2784 -1.0429
 1744SOL    HW1 6131   3.464   0.736   2.881 -0.8678  0.0276 -1.6258
 1744SOL    HW2 6132   3.380   0.876   2.880 -0.1401  0.4890 -0.6197
 1745SOL     OW 6133   6.912   0.064   1.736 -0.1199  0.8088  0.2873
 1745SOL    HW1 6134   6.903   0.042   1.833  0.2021 -1.3052 -0.1066
 1745SOL    HW2 6135   6.888  -0.017   1.681  0.0120  1.8551 -1.3927
 1746SOL     OW 6136   0.677   4.391   3.264 -0.0985 -0.0032 -0.5932
 1746SOL    HW1 6137   0.670   4.406   3.165  0.2719 -0.5095 -0.7046
 1746SOL    HW2 6138   0.774   4.380   3.288 -0.1139  1.0601 -0.0261
 1747SOL     OW 6139   4.250   5.260   1.943  0.1896 -1.1924 -0.4990
 1747SOL    HW1 6140   4.214   5.182   1.890 -1.2950 -0.2909 -0.8699
 1747SOL    HW2 6141   4.271   5.230   2.036  1.0853 -2.3822 -1.0590
 1748SOL     OW 6142   5.330   3.121   6.006 -0.3839  0.2383  0.4189
 1748SOL    HW1 6143   5.311   3.190   5.936  2.3497 -0.9671 -1.6834
 1748SOL    HW2 6144   5.318   3.030   5.968  1.5769 -0.4581  1.3239
 1749SOL     OW 6145   2.808   5.315   2.174 -0.3725 -0.2163 -0.2305
 1749SOL    HW1 6146   2.804   5.322   2.074 -0.0066  0.2723 -0.2124
 1749SOL    HW2 6147   2.849   5.227   2.199 -2.8598 -1.5363 -0.4763
 1750SOL     OW 6148   4.842   1.043   6.211  0.9594 -0.1567  0.1879
 1750SOL    HW1 6149   4.846   1.100   6.129  0.0852  0.9943  0.9187
 1750SOL    HW2 6150   4.765   0.979   6.203  1.8158 -1.1401 -0.5402
 1751SOL     OW 6151   4.818   0.689   4.408 -0.3664  0.0251 -1.0379
 1751SOL    HW1 6152   4.886   0.640   4.355  0.2337  3.0033 -3.2943
 1751SOL    HW2 6153   4.839   0.679   4.506  0.6375 -2.6832 -1.4415
 1752SOL     OW 6154   4.515   6.239   1.306 -0.1983 -0.2924 -0.6327
 1752SOL    HW1 6155   4.472   6.317   1.350 -0.3810 -0.7674  0.0516
 1752SOL    HW2 6156   4.466   6.217   1.221 -1.4442 -0.9259  0.2184
 1753SOL     OW 6157   5.522   6.450   1.628  0.0407 -0.2032 -0.2145
 1753SOL    HW1 6158   5.443   6.511   1.622  0.1492  0.4185  2.9365
 1753SOL    HW2 6159   5.570   6.448   1.540 -2.7492  0.3139 -1.8833
 1754SOL     OW 6160   3.533   4.175   6.426 -0.3869  0.0488 -0.9850
 1754SOL    HW1 6161   3.600   4.110   6.462 -0.9259  0.0732  0.1306
 1754SOL    HW2 6162   3.461   4.188   6.494 -2.8012 -1.7553 -3.0131
 1755SOL     OW 6163   6.064   5.841   4.711  0.4672  0.1607 -0.4006
 1755SOL    HW1 6164   6.094   5.905   4.780  2.4031 -0.8599 -0.2119
 1755SOL    HW2 6165   6.077   5.881   4.620  1.3557  0.1758 -0.2747
 1756SOL     OW 6166   5.962   0.986   7.019 -0.5765 -0.7217  0.1076
 1756SOL    HW1 6167   5.946   0.972   7.117  0.8018 -0.7575  0.3428
 1756SOL    HW2 6168   6.040   1.047   7.006  1.0726 -2.8910 -0.9217
 1757SOL     OW 6169   2.734   5.301   4.505  0.3343 -0.3963  0.5148
 1757SOL    HW1 6170   2.782   5.268   4.423 -1.5594 -0.6101 -0.5737
 1757SOL    HW2 6171   2.703   5.395   4.490  0.6966 -0.1377  1.3308
 1758SOL     OW 6172   2.534   6.763   6.022  0.9748  0.2771  0.4473
 1758SOL    HW1 6173   2.486   6.839   6.067 -0.4971 -1.2707  1.6483
 1758SOL    HW2 6174   2.574   6.795   5.937 -2.2151  1.7785 -0.6774
 1759SOL     OW 6175   0.758   6.654   6.805  0.5612  1.2280  0.7414
 1759SOL    HW1 6176   0.750   6.555   6.807 -0.6689  1.2858 -0.2158
 1759SOL    HW2 6177   0.853   6.680   6.784  0.2393  0.1513 -2.7959
 1760SOL     OW 6178   3.657   2.125   4.352 -0.2063  0.0945 -0.3681
 1760SOL    HW1 6179   3.679   2.208   4.404 -0.9505  0.2126 -0.2182
 1760SOL    HW2 6180   3.739   2.089   4.309  0.3768  0.1447  0.6812
 1761SOL     OW 6181   6.419   0.581   0.012  0.0511  0.1452  0.3166
 1761SOL    HW1 6182   6.320   0.588   0.017  0.0214  3.0271 -1.6882
 1761SOL    HW2 6183   6.461   0.650   0.071  0.9194 -1.2476  1.3840
 1762SOL     OW 6184   6.232   0.870   2.606  0.3506 -0.1201  0.1793
 1762SOL    HW1 6185   6.272   0.852   2.696 -2.3898 -2.8425  1.0494
 1762SOL    HW2 6186   6.149   0.924   2.617  1.4377  1.9353 -1.1201
 1763SOL     OW 6187   1.122   2.874   5.516  0.1109 -0.0859  0.1388
 1763SOL    HW1 6188   1.160   2.879   5.608  0.7996 -0.7404 -0.0956
 1763SOL    HW2 6189   1.162   2.796   5.468 -0.4133  0.1113 -0.6358
 1764SOL     OW 6190   6.619   6.284   2.016  0.7590  0.3638 -0.7580
 1764SOL    HW1 6191   6.604   6.382   2.010 -0.0815  0.2726 -0.3350
 1764SOL    HW2 6192   6.537   6.240   2.052  1.1541 -0.4853 -0.8657
 1765SOL     OW 6193   5.899   4.732   2.515 -0.5358 -0.1245  0.2908
 1765SOL    HW1 6194   5.868   4.778   2.431 -1.3670  0.7024  1.0232
 1765SOL    HW2 6195   5.864   4.639   2.517  2.5834 -1.5369 -2.0502
 1766SOL     OW 6196   2.620   6.174   5.170 -0.1885  0.1900  0.7568
 1766SOL    HW1 6197   2.620   6.260   5.220 -1.4899  0.5485  0.1769
 1766SOL    HW2 6198   2.700   6.170   5.110  0.1345  0.7662  1.1436
 1767SOL     OW 6199   5.719   6.953   0.995 -0.2978 -0.5115  0.6341
 1767SOL    HW1 6200   5.793   6.966   0.929 -1.0083  0.7366  0.0389
 1767SOL    HW2 6201   5.755   6.963   1.087  0.1359  0.9897  0.3279
 1768SOL     OW 6202   0.015   0.131   1.454  0.0842 -0.8645  0.7935
 1768SOL    HW1 6203   0.033   0.078   1.537 -0.8202  0.4415  1.8756
 1768SOL    HW2 6204  -0.071   0.101   1.413  1.6955 -3.1939 -1.1376
 1769SOL     OW 6205   5.594   1.413   0.469  0.0858 -0.4107  0.0210
 1769SOL    HW1 6206   5.608   1.454   0.559 -0.1980  0.0345 -0.1339
 1769SOL    HW2 6207   5.496   1.402   0.451  0.1375 -0.4397 -0.2602
 1770SOL     OW 6208   3.491   4.198   6.712  0.1462  0.5769  0.1412
 1770SOL    HW1 6209   3.480   4.297   6.702 -1.1733  0.2609 -2.7302
 1770SOL    HW2 6210   3.579   4.178   6.754  1.3700  2.9377 -1.0804
 1771SOL     OW 6211   6.896   5.374   7.019 -0.4285 -0.0504  0.0073
 1771SOL    HW1 6212   6.891   5.466   6.980  1.9480 -0.6048 -1.8685
 1771SOL    HW2 6213   6.915   5.308   6.946  0.9348 -1.6121  1.6823
 1772SOL     OW 6214   1.982   5.785   1.896  0.3485  0.3299 -0.2072
 1772SOL    HW1 6215   2.024   5.849   1.832 -0.4728  0.2892 -0.8114
 1772SOL    HW2 6216   1.969   5.697   1.851 -3.4904  1.2666 -1.3009
 1773SOL     OW 6217   0.616   4.430   3.784 -0.4049  0.5071  0.0237
 1773SOL    HW1 6218   0.659   4.341   3.771  0.0520  0.8910 -1.2980
 1773SOL    HW2 6219   0.566   4.431   3.871 -1.0929 -1.2980 -0.3096
 1774SOL     OW 6220   6.756   5.811   2.733  0.5934  0.6688 -0.8056
 1774SOL    HW1 6221   6.686   5.779   2.669  0.1325 -0.5422  0.2593
 1774SOL    HW2 6222   6.817   5.734   2.756 -0.5651  0.4722  1.8704
 1775SOL     OW 6223   1.971   6.003   6.068  0.3754  0.1926 -0.5907
 1775SOL    HW1 6224   1.913   6.065   6.016  0.7269  1.0582  0.0196
 1775SOL    HW2 6225   2.036   5.958   6.007  1.9150  2.4548 -0.7352
 1776SOL     OW 6226   4.781   0.167   6.181 -0.8416  0.0766 -0.3537
 1776SOL    HW1 6227   4.827   0.169   6.269 -0.4289 -1.2795 -0.5088
 1776SOL    HW2 6228   4.798   0.078   6.137 -0.5648  0.9175 -2.0372
 1777SOL     OW 6229   3.697   1.157   6.047  0.2363  0.3792 -0.0121
 1777SOL    HW1 6230   3.630   1.087   6.068 -0.0837  1.0943  1.4956
 1777SOL    HW2 6231   3.788   1.116   6.042 -0.1993 -0.4631 -1.2724
 1778SOL     OW 6232   4.397   1.986   2.612  0.5272 -0.0873 -0.3275
 1778SOL    HW1 6233   4.408   2.077   2.574  0.1124 -0.5598 -1.6612
 1778SOL    HW2 6234   4.367   1.992   2.707  2.8461  1.1374  0.3834
 1779SOL     OW 6235   5.342   5.662   4.351  0.4217 -0.2166  0.2619
 1779SOL    HW1 6236   5.438   5.634   4.352  0.3778 -0.4997 -1.1961
 1779SOL    HW2 6237   5.328   5.731   4.280 -0.7088 -1.2507 -0.5611
 1780SOL     OW 6238   2.048   4.579   4.310 -0.4603  0.2049 -0.5924
 1780SOL    HW1 6239   2.002   4.495   4.341 -1.3925  1.1392  0.6400
 1780SOL    HW2 6240   2.076   4.633   4.389 -2.3254  2.3710 -1.3214
 1781SOL     OW 6241   5.139   0.941   3.453  0.0612  0.6756 -0.3657
 1781SOL    HW1 6242   5.163   0.859   3.505  0.3055 -0.4071 -2.0837
 1781SOL    HW2 6243   5.214   1.006   3.456 -0.4358  1.2038  1.6540
 1782SOL     OW 6244   3.162   2.156   2.622 -0.1508 -0.2065  0.3145
 1782SOL    HW1 6245   3.200   2.085   2.681  0.6283  0.4665  0.6466
 1782SOL    HW2 6246   3.225   2.172   2.545 -1.5092 -1.6094 -1.1588
 1783SOL     OW 6247   2.478   2.573   6.853 -0.3019  0.4812  0.0442
 1783SOL    HW1 6248   2.491   2.671   6.868  0.1006  1.2118 -4.0748
 1783SOL    HW2 6249   2.540   2.522   6.912 -1.1803  2.5352  3.0075
 1784SOL     OW 6250   3.511   6.752   0.253 -0.2938  0.1073  0.2019
 1784SOL    HW1 6251   3.605   6.747   0.286 -0.7223 -0.9491  1.3323
 1784SOL    HW2 6252   3.502   6.701   0.167 -0.4413 -2.5245  1.6739
 1785SOL     OW 6253   6.853   6.575   4.126 -0.1887  0.3599  0.3375
 1785SOL    HW1 6254   6.866   6.670   4.153  1.8445 -0.0157  0.7925
 1785SOL    HW2 6255   6.803   6.526   4.198 -2.6359  1.3776 -0.5616
 1786SOL     OW 6256   6.514   6.621   0.828  0.9803 -0.5411  0.0958
 1786SOL    HW1 6257   6.522   6.719   0.814  1.3463 -0.3601  1.3996
 1786SOL    HW2 6258   6.420   6.592   0.807  0.1439  0.5433  2.0027
 1787SOL     OW 6259   0.125   3.361   4.446 -0.0274  0.0971  1.2397
 1787SOL    HW1 6260   0.101   3.292   4.514  0.4299 -0.3900  0.9131
 1787SOL    HW2 6261   0.069   3.442   4.460 -0.7948 -0.4553  1.4373
 1788SOL     OW 6262   4.656   5.170   0.810 -0.3793  0.2371  0.0949
 1788SOL    HW1 6263   4.692   5.140   0.721 -0.2105  2.9395 -0.8543
 1788SOL    HW2 6264   4.558   5.187   0.802 -0.7217 -1.1649  0.9603
 1789SOL     OW 6265   0.836   2.099   6.760 -0.2038 -0.1251  0.0629
 1789SOL    HW1 6266   0.762   2.041   6.726  0.0822  0.5937 -1.8822
 1789SOL    HW2 6267   0.807   2.195   6.758  0.0290  0.0019  1.4077
 1790SOL     OW 6268   1.876   3.270   3.666  0.0342  0.0089 -0.3194
 1790SOL    HW1 6269   1.834   3.293   3.754 -1.2036 -2.0768 -0.2834
 1790SOL    HW2 6270   1.965   3.314   3.659 -0.3741  1.2360  1.4169
 1791SOL     OW 6271   5.565   6.489   3.220 -0.2131  0.2103  0.8357
 1791SOL    HW1 6272   5.503   6.473   3.144  2.9347 -0.0188 -1.9178
 1791SOL    HW2 6273   5.567   6.586   3.243 -1.6290  0.1953  1.0970
 1792SOL     OW 6274   5.963   1.487   5.704 -0.4371  0.4953 -0.7581
 1792SOL    HW1 6275   5.876   1.469   5.748  0.0144  1.7605  0.7675
 1792SOL    HW2 6276   6.025   1.411   5.719 -0.9528  0.0221 -1.0012
 1793SOL     OW 6277   5.312   3.411   6.430 -0.3269  0.2706 -0.4858
 1793SOL    HW1 6278   5.407   3.401   6.457 -0.5243  0.7518  0.4298
 1793SOL    HW2 6279   5.299   3.374   6.338  0.7220  0.1423 -0.5891
 1794SOL     OW 6280   7.021   6.426   0.383 -0.0838 -0.5498  0.2789
 1794SOL    HW1 6281   7.119   6.420   0.363 -0.1791 -2.5693  0.2689
 1794SOL    HW2 6282   6.973   6.469   0.307  0.7173  0.0341  0.0911
 1795SOL     OW 6283   0.920   4.676   1.606  0.1571 -0.5189  0.0564
 1795SOL    HW1 6284   0.978   4.757   1.599  0.0070 -0.5418 -3.0417
 1795SOL    HW2 6285   0.829   4.702   1.638  0.1025  0.5725 -0.9381
 1796SOL     OW 6286   0.783   5.753   5.267 -0.2566  0.2449 -0.3289
 1796SOL    HW1 6287   0.856   5.766   5.199 -0.3664 -0.9641 -0.6916
 1796SOL    HW2 6288   0.811   5.795   5.354 -0.1274  1.8376 -1.0919
 1797SOL     OW 6289   1.606   5.718   5.027 -0.2580  0.0748  0.0738
 1797SOL    HW1 6290   1.617   5.648   5.098  1.8467  0.3684  0.1054
 1797SOL    HW2 6291   1.694   5.735   4.983 -1.4362  0.1273 -2.4381
 1798SOL     OW 6292   3.777   2.901   4.737  0.6199 -0.5623 -0.1956
 1798SOL    HW1 6293   3.727   2.847   4.669  1.2003 -0.6695 -0.5384
 1798SOL    HW2 6294   3.810   2.841   4.809  1.0446 -0.6297 -0.4446
 1799SOL     OW 6295   2.662   2.860   0.077  0.0884 -0.0024 -0.3621
 1799SOL    HW1 6296   2.673   2.938   0.016 -0.3392  0.5683  0.2775
 1799SOL    HW2 6297   2.575   2.868   0.126  0.3335 -0.5550  0.1729
 1800SOL     OW 6298   6.615   3.923   4.504  0.4556  0.1605 -0.4501
 1800SOL    HW1 6299   6.548   3.991   4.474 -0.7230 -0.9244 -0.3884
 1800SOL    HW2 6300   6.619   3.921   4.603 -0.8827 -1.0835 -0.3873
 1801SOL     OW 6301   2.822   0.369   2.948  0.1875 -0.2276 -0.2770
 1801SOL    HW1 6302   2.781   0.317   3.023 -1.1142 -0.8919 -1.4061
 1801SOL    HW2 6303   2.893   0.430   2.985  1.2394 -2.2133  1.1835
 1802SOL     OW 6304   6.029   4.916   1.819 -0.5982 -0.2989 -0.1031
 1802SOL    HW1 6305   6.100   4.856   1.857 -1.9217 -2.0099 -0.1836
 1802SOL    HW2 6306   6.059   4.952   1.731  0.7926  0.3009  0.5888
 1803SOL     OW 6307   0.227   0.627   3.930  0.8530 -0.1851  0.1285
 1803SOL    HW1 6308   0.310   0.582   3.896  0.5476  0.1853 -1.1840
 1803SOL    HW2 6309   0.236   0.726   3.918  1.1206  0.0639  2.0892
 1804SOL     OW 6310   2.577   2.977   5.422  0.4680 -0.0403 -0.6982
 1804SOL    HW1 6311   2.519   3.002   5.499  1.2969 -1.2979  0.3705
 1804SOL    HW2 6312   2.526   2.987   5.337 -0.7674  0.4731  0.0851
 1805SOL     OW 6313   6.870   4.774   1.235  0.2218  0.1065  0.1325
 1805SOL    HW1 6314   6.806   4.782   1.311  0.4598  0.7595  0.2732
 1805SOL    HW2 6315   6.858   4.685   1.190 -1.1045  0.3997 -0.1334
 1806SOL     OW 6316   0.691   6.320   1.098 -0.7955  0.2439  0.1764
 1806SOL    HW1 6317   0.689   6.386   1.023  0.9394  0.3423  0.1755
 1806SOL    HW2 6318   0.756   6.351   1.168 -0.5175 -1.0765  0.5366
 1807SOL     OW 6319   0.941   4.726   2.410 -0.3020 -0.6628 -0.0402
 1807SOL    HW1 6320   0.916   4.742   2.314  0.7459  0.7930 -0.1152
 1807SOL    HW2 6321   1.037   4.752   2.424 -0.3680 -1.0820  1.3533
 1808SOL     OW 6322   4.624   3.121   5.310 -0.0272  0.0380  0.2542
 1808SOL    HW1 6323   4.534   3.078   5.325 -1.7156  3.3091  0.3605
 1808SOL    HW2 6324   4.660   3.091   5.222 -0.8901 -1.8520  0.4914
 1809SOL     OW 6325   4.337   1.206   6.163  0.0796 -0.0322  0.1747
 1809SOL    HW1 6326   4.331   1.254   6.251 -0.4547 -0.7881  0.5645
 1809SOL    HW2 6327   4.384   1.264   6.097  0.9302  0.3499  1.0934
 1810SOL     OW 6328   0.127   6.903   4.795  0.2637 -0.0659  0.3158
 1810SOL    HW1 6329   0.056   6.865   4.854  0.3027  0.8039  0.9335
 1810SOL    HW2 6330   0.095   6.902   4.700 -0.4241 -0.0343  0.5405
 1811SOL     OW 6331   4.689   6.874   0.662  0.3228 -0.4556 -0.2861
 1811SOL    HW1 6332   4.707   6.872   0.564  1.7890 -1.6219 -0.0247
 1811SOL    HW2 6333   4.775   6.866   0.712 -0.2462  1.3984  1.1331
 1812SOL     OW 6334   4.117   6.648   4.435  0.0387  0.1399  0.4844
 1812SOL    HW1 6335   4.149   6.697   4.516  2.4189 -0.0939 -0.2334
 1812SOL    HW2 6336   4.150   6.695   4.353 -0.6092 -0.7396 -0.3027
 1813SOL     OW 6337   5.025   4.754   2.728 -0.0404 -0.2689  0.1812
 1813SOL    HW1 6338   5.050   4.776   2.823  1.4412 -1.1868  0.0350
 1813SOL    HW2 6339   4.938   4.705   2.728  0.0426 -0.4482  1.1024
 1814SOL     OW 6340   6.016   6.607   1.980  0.2028 -0.0982 -0.1136
 1814SOL    HW1 6341   6.075   6.550   2.037  1.1289  1.2537  0.3326
 1814SOL    HW2 6342   5.964   6.549   1.917  1.9016 -1.3545 -0.4370
 1815SOL     OW 6343   0.580   5.760   1.764  0.0106  0.2739 -0.3258
 1815SOL    HW1 6344   0.523   5.678   1.766 -1.9554  1.5464  2.1816
 1815SOL    HW2 6345   0.661   5.745   1.820  0.1686 -0.2706 -0.6933
 1816SOL     OW 6346   5.877   4.745   6.284 -0.4526 -0.5384  0.3245
 1816SOL    HW1 6347   5.946   4.688   6.239 -0.7338 -0.0829 -0.7030
 1816SOL    HW2 6348   5.786   4.717   6.254 -0.6478 -0.2165  0.6052
 1817SOL     OW 6349   4.609   7.008   3.730  0.3519 -0.1384  0.6429
 1817SOL    HW1 6350   4.520   6.971   3.756 -0.1207  1.5801  1.6536
 1817SOL    HW2 6351   4.606   7.108   3.737  2.5331 -0.0749  1.2556
 1818SOL     OW 6352   1.457   2.778   1.889 -0.1164 -0.7160 -0.4037
 1818SOL    HW1 6353   1.488   2.863   1.847 -1.9763  0.4972  0.5689
 1818SOL    HW2 6354   1.412   2.722   1.820  0.3492 -0.5456 -0.8582
 1819SOL     OW 6355   1.000   6.113   4.806  0.2142 -0.8457 -0.2741
 1819SOL    HW1 6356   0.967   6.168   4.730 -1.5861 -1.7530 -0.2006
 1819SOL    HW2 6357   1.099   6.098   4.796  0.3649  0.6965 -1.3377
 1820SOL     OW 6358   0.995   5.924   6.034 -0.2085  0.1819  0.4218
 1820SOL    HW1 6359   1.037   5.845   5.989  1.4979  1.6196 -0.6583
 1820SOL    HW2 6360   0.906   5.942   5.993  0.1287 -0.1928 -0.5144
 1821SOL     OW 6361   4.355   0.751   2.418  0.3986  0.2115 -0.2345
 1821SOL    HW1 6362   4.335   0.842   2.382  1.3514  1.1861  1.5359
 1821SOL    HW2 6363   4.327   0.747   2.514  0.7542 -1.2448 -0.1710
 1822SOL     OW 6364   1.756   3.300   3.031  0.1104  0.1185 -0.2281
 1822SOL    HW1 6365   1.844   3.342   3.007  0.0210  0.3779 -0.1082
 1822SOL    HW2 6366   1.684   3.338   2.973 -0.0510  0.4987  0.2113
 1823SOL     OW 6367   3.487   0.022   4.034  0.1564 -0.2754  0.3612
 1823SOL    HW1 6368   3.555  -0.013   3.969  0.5049  0.3708  0.3764
 1823SOL    HW2 6369   3.442   0.102   3.995 -0.5097 -0.6159  0.4075
 1824SOL     OW 6370   3.861   3.396   2.344 -0.4546  0.0566  0.1713
 1824SOL    HW1 6371   3.934   3.436   2.399  0.4001 -0.6218 -0.4268
 1824SOL    HW2 6372   3.839   3.457   2.268 -1.0238  0.5924  0.7580
 1825SOL     OW 6373   1.834   1.566   4.973  0.5830 -0.0487 -0.1921
 1825SOL    HW1 6374   1.813   1.639   4.908 -1.8658  0.9518  1.5535
 1825SOL    HW2 6375   1.922   1.584   5.016  0.9061  0.8212 -1.1738
 1826SOL     OW 6376   3.934   1.984   1.316 -0.0126 -0.1264  0.1388
 1826SOL    HW1 6377   3.843   2.014   1.343 -0.1821 -1.8550  1.7139
 1826SOL    HW2 6378   3.927   1.906   1.254  0.1476 -3.5061  3.9597
 1827SOL     OW 6379   0.782   2.874   0.252  0.0599  0.5399 -0.4838
 1827SOL    HW1 6380   0.749   2.780   0.254 -1.2952  0.9854 -0.6177
 1827SOL    HW2 6381   0.737   2.923   0.176  0.3626  1.4213 -0.1071
 1828SOL     OW 6382   0.916   5.819   4.127  0.3886 -0.2742 -0.1146
 1828SOL    HW1 6383   0.821   5.791   4.118  0.5616 -0.7674 -0.3867
 1828SOL    HW2 6384   0.941   5.819   4.224  0.2763 -0.6861 -0.0839
 1829SOL     OW 6385   3.267   6.972   3.187  0.3556 -0.1759  0.2191
 1829SOL    HW1 6386   3.233   6.929   3.103  0.2848  1.1506 -0.4575
 1829SOL    HW2 6387   3.367   6.973   3.186  0.4989  3.5715 -1.9753
 1830SOL     OW 6388   5.374   0.361   4.309  0.4073 -0.3496 -0.0516
 1830SOL    HW1 6389   5.384   0.418   4.227  1.9166 -1.1357 -0.4660
 1830SOL    HW2 6390   5.465   0.336   4.343 -0.2069 -1.3830  0.9002
 1831SOL     OW 6391   3.010   4.791   0.790  0.0292 -0.6367 -0.0723
 1831SOL    HW1 6392   2.935   4.822   0.731 -1.1597 -0.7681  1.2909
 1831SOL    HW2 6393   3.044   4.703   0.756  0.5139  0.0672 -1.4908
 1832SOL     OW 6394   2.236   4.293   0.002 -0.3741  0.1273  0.3410
 1832SOL    HW1 6395   2.335   4.292   0.014 -0.3007  1.0035 -0.0988
 1832SOL    HW2 6396   2.214   4.320  -0.091 -1.0301  0.5221  0.6028
 1833SOL     OW 6397   4.755   1.276   0.770 -0.3889  0.7267 -0.4823
 1833SOL    HW1 6398   4.662   1.256   0.738 -0.7501  1.7274 -0.0857
 1833SOL    HW2 6399   4.753   1.292   0.869 -0.0334  2.1531 -0.6876
 1834SOL     OW 6400   2.283   2.193   1.232  0.0008  0.2093  0.4054
 1834SOL    HW1 6401   2.253   2.281   1.197  0.5831  0.4798  0.5773
 1834SOL    HW2 6402   2.208   2.150   1.283 -0.0931  0.8753  0.8419
 1835SOL     OW 6403   6.365   3.196   0.541 -0.7451  0.4006  0.3493
 1835SOL    HW1 6404   6.418   3.275   0.512 -0.1436  0.2776  1.0775
 1835SOL    HW2 6405   6.272   3.225   0.563 -0.7646  0.7569 -0.1733
 1836SOL     OW 6406   3.085   1.910   1.957  0.2875 -0.3100  0.1395
 1836SOL    HW1 6407   3.142   1.977   1.910  0.7951  0.5960  1.9381
 1836SOL    HW2 6408   3.026   1.957   2.022 -1.1071 -1.4278 -0.2789
 1837SOL     OW 6409   4.123   2.368   5.719 -0.6870 -0.3447  0.6773
 1837SOL    HW1 6410   4.165   2.314   5.792 -0.0513 -0.9889 -0.1295
 1837SOL    HW2 6411   4.117   2.311   5.636 -0.8111  0.5636  0.0526
 1838SOL     OW 6412   1.397   0.751   0.232 -0.2363 -0.4602 -0.3835
 1838SOL    HW1 6413   1.419   0.671   0.175  1.2570 -0.7469  0.5409
 1838SOL    HW2 6414   1.482   0.799   0.255 -0.8006 -0.3205  1.5507
 1839SOL     OW 6415   2.688   0.403   2.371  0.2726  0.6478  0.6633
 1839SOL    HW1 6416   2.610   0.342   2.383 -0.2838  1.1540 -0.2328
 1839SOL    HW2 6417   2.685   0.442   2.279  1.9274  0.1970  0.3760
 1840SOL     OW 6418   5.144   0.362   2.591 -0.3858  0.4085 -0.1396
 1840SOL    HW1 6419   5.062   0.397   2.637 -0.0242  0.5952  0.3662
 1840SOL    HW2 6420   5.116   0.300   2.517 -0.9905  0.6822 -0.1499
 1841SOL     OW 6421   3.247   0.202   4.390  0.7140 -0.3305  0.3956
 1841SOL    HW1 6422   3.244   0.298   4.362  1.3347 -0.6953 -1.0030
 1841SOL    HW2 6423   3.211   0.145   4.317  1.0667 -1.2272  0.9077
 1842SOL     OW 6424   2.196   3.795   6.794 -0.5617  0.1527  0.1015
 1842SOL    HW1 6425   2.160   3.888   6.795  1.8437  1.1606  1.7757
 1842SOL    HW2 6426   2.264   3.786   6.721 -1.6834 -0.7215 -0.8729
 1843SOL     OW 6427   3.719   0.482   5.461  0.2360  0.3079  0.1896
 1843SOL    HW1 6428   3.797   0.452   5.516 -0.4697 -0.8119  0.6031
 1843SOL    HW2 6429   3.694   0.576   5.487 -0.1270 -0.2221  1.8608
 1844SOL     OW 6430   5.510   1.196   0.015 -0.1587  0.2972 -0.4247
 1844SOL    HW1 6431   5.564   1.181   0.098 -0.8122 -0.2837 -0.0963
 1844SOL    HW2 6432   5.564   1.250  -0.050  0.8726 -0.3907 -0.1653
 1845SOL     OW 6433   2.595   1.631   4.116  0.4275  0.0961  0.0157
 1845SOL    HW1 6434   2.608   1.561   4.187  1.3787  0.6454  0.3999
 1845SOL    HW2 6435   2.553   1.712   4.157  0.7015  0.3034 -0.1126
 1846SOL     OW 6436   5.451   2.194   2.105 -0.3015  0.5395 -0.7631
 1846SOL    HW1 6437   5.477   2.221   2.012  0.1270 -1.0404 -1.1376
 1846SOL    HW2 6438   5.361   2.232   2.126 -1.1265 -0.3355 -2.4570
 1847SOL     OW 6439   2.089   6.647   6.700 -0.4089 -0.6250 -0.1931
 1847SOL    HW1 6440   2.161   6.596   6.654 -0.2136  1.8667 -2.9799
 1847SOL    HW2 6441   2.129   6.713   6.764 -0.4380 -1.2281  0.4605
 1848SOL     OW 6442   2.545   6.592   5.075 -0.3552  0.1962 -0.4549
 1848SOL    HW1 6443   2.450   6.562   5.071 -0.8603  1.8357 -3.3550
 1848SOL    HW2 6444   2.590   6.576   4.987  1.7227  0.5352  0.4679
 1849SOL     OW 6445   4.929   3.330   2.115  0.0984 -0.1700  0.1062
 1849SOL    HW1 6446   4.871   3.251   2.097  1.2770 -0.9370 -0.4052
 1849SOL    HW2 6447   5.025   3.303   2.110  0.5160  1.0769  0.9307
 1850SOL     OW 6448   4.827   0.110   1.812  0.5370 -0.0340 -0.3510
 1850SOL    HW1 6449   4.907   0.141   1.863  0.0514 -0.0741  0.4502
 1850SOL    HW2 6450   4.856   0.050   1.738  1.1848 -0.7666  0.4772
 1851SOL     OW 6451   6.821   5.781   5.196  0.2378 -0.1469  0.7005
 1851SOL    HW1 6452   6.739   5.743   5.153  0.6144 -1.4309  1.0941
 1851SOL    HW2 6453   6.831   5.877   5.168 -1.1026 -0.1175  0.2372
 1852SOL     OW 6454   1.093   6.859   1.890 -0.1752 -0.0630  0.0617
 1852SOL    HW1 6455   1.175   6.809   1.860 -0.4498  0.0939 -0.9790
 1852SOL    HW2 6456   1.020   6.846   1.824 -0.7829  0.3624  0.6365
 1853SOL     OW 6457   0.514   0.910   4.818  0.8044  0.3947 -0.0409
 1853SOL    HW1 6458   0.598   0.907   4.872  1.5065  0.6409 -1.0792
 1853SOL    HW2 6459   0.461   0.827   4.835  0.5894  0.8442  1.6297
 1854SOL     OW 6460   5.722   3.136   3.297  0.6353  0.7285  0.3339
 1854SOL    HW1 6461   5.792   3.131   3.368 -0.4513  3.2622  1.7047
 1854SOL    HW2 6462   5.757   3.187   3.219  0.5521  1.4860  0.7783
 1855SOL     OW 6463   3.809   2.675   5.621 -0.9814 -0.4620  0.1317
 1855SOL    HW1 6464   3.749   2.654   5.698 -0.6905 -0.2826  0.4076
 1855SOL    HW2 6465   3.778   2.624   5.540 -1.1341 -0.8470  0.4300
 1856SOL     OW 6466   3.209   1.900   6.453 -0.2053  0.0897 -0.2701
 1856SOL    HW1 6467   3.233   1.896   6.356  1.0001  0.9776 -0.0298
 1856SOL    HW2 6468   3.143   1.974   6.467  1.4521  1.5984 -0.0949
 1857SOL     OW 6469   2.382   2.209   6.810 -0.8782  0.0140  0.2808
 1857SOL    HW1 6470   2.361   2.120   6.850  2.5545 -0.6829  0.8454
 1857SOL    HW2 6471   2.426   2.267   6.878 -1.2127  1.4192 -0.6558
 1858SOL     OW 6472   4.960   1.885   2.787 -0.0113  0.0534 -0.0529
 1858SOL    HW1 6473   4.914   1.904   2.701 -0.2108  0.0812  0.0590
 1858SOL    HW2 6474   5.055   1.857   2.769 -0.4441 -1.2528 -0.3579
 1859SOL     OW 6475   1.466   1.081   4.442 -0.7738  0.1994  0.3796
 1859SOL    HW1 6476   1.543   1.018   4.445 -0.6180  0.2502 -1.6162
 1859SOL    HW2 6477   1.458   1.127   4.531 -1.5113 -3.2444  2.2757
 1860SOL     OW 6478   0.596   0.684   3.274 -0.2502 -0.3153  0.0910
 1860SOL    HW1 6479   0.589   0.744   3.194 -0.4183 -0.7117 -0.1909
 1860SOL    HW2 6480   0.647   0.732   3.346 -0.7264  0.3221  0.0172
 1861SOL     OW 6481   6.682   1.069   4.335 -0.3667 -0.4293  0.2147
 1861SOL    HW1 6482   6.766   1.054   4.284  0.2465 -1.3134  1.4387
 1861SOL    HW2 6483   6.605   1.079   4.271  0.5056 -0.6259 -0.8858
 1862SOL     OW 6484   2.204   6.158   5.433 -0.1293  0.2640 -0.3282
 1862SOL    HW1 6485   2.126   6.144   5.372  1.3063 -2.1605 -1.7400
 1862SOL    HW2 6486   2.289   6.142   5.384  1.1917  0.1940  1.8287
 1863SOL     OW 6487   2.070   4.618   1.827  0.2914  0.2368  0.2597
 1863SOL    HW1 6488   2.109   4.694   1.878  0.5727 -0.0940  0.5441
 1863SOL    HW2 6489   2.000   4.652   1.764 -1.1280  0.5016  1.8922
 1864SOL     OW 6490   3.800   4.950   1.874  0.0570 -0.1418 -0.3383
 1864SOL    HW1 6491   3.752   5.015   1.815 -0.5639 -0.4563 -0.1758
 1864SOL    HW2 6492   3.735   4.890   1.919  0.4250  0.8379  1.5996
 1865SOL     OW 6493   5.473   3.823   0.058 -0.4603 -0.1235 -0.0677
 1865SOL    HW1 6494   5.527   3.823   0.142  1.1997 -1.8251 -1.0515
 1865SOL    HW2 6495   5.491   3.907   0.006 -1.3727  0.8613  1.1439
 1866SOL     OW 6496   0.220   5.241   4.894 -0.0601  0.2370 -0.1811
 1866SOL    HW1 6497   0.151   5.228   4.966 -1.0030  1.5838 -0.8035
 1866SOL    HW2 6498   0.310   5.247   4.936 -0.1749 -2.2438  0.6016
 1867SOL     OW 6499   2.472   2.579   2.083  0.0503 -0.5149 -0.1365
 1867SOL    HW1 6500   2.476   2.538   1.992 -0.2080 -0.4887 -0.1594
 1867SOL    HW2 6501   2.524   2.522   2.147 -0.4000 -0.9345 -0.1448
 1868SOL     OW 6502   6.620   3.063   5.674  0.6021  0.1888  0.1500
 1868SOL    HW1 6503   6.602   3.150   5.627  0.4512  0.1893  0.2076
 1868SOL    HW2 6504   6.597   2.987   5.613  0.9972  0.1897 -0.0001
 1869SOL     OW 6505   4.514   1.789   2.253 -0.5204 -0.1240 -0.4457
 1869SOL    HW1 6506   4.461   1.865   2.215 -1.0733 -0.5307 -0.4908
 1869SOL    HW2 6507   4.571   1.750   2.182 -0.5383 -0.0112 -0.5234
 1870SOL     OW 6508   6.974   3.709   3.430 -0.4183 -0.3309  0.1242
 1870SOL    HW1 6509   6.955   3.639   3.500 -1.2416 -0.9766 -0.7145
 1870SOL    HW2 6510   6.902   3.706   3.361  0.0304  0.7566 -0.3995
 1871SOL     OW 6511   6.208   4.816   2.372 -0.3069  0.2921 -0.1029
 1871SOL    HW1 6512   6.132   4.862   2.418  1.0953  2.5690  0.1133
 1871SOL    HW2 6513   6.271   4.780   2.440  0.6104  1.6566 -0.1795
 1872SOL     OW 6514   1.717   3.393   0.766  0.8973 -0.0611  0.2276
 1872SOL    HW1 6515   1.644   3.366   0.829  1.0481  0.4073  0.6039
 1872SOL    HW2 6516   1.786   3.445   0.815  1.0014  0.3425 -0.3324
 1873SOL     OW 6517   1.837   0.660   1.438  0.4402  0.0468 -0.3455
 1873SOL    HW1 6518   1.883   0.582   1.395 -1.2515 -0.8027 -0.7075
 1873SOL    HW2 6519   1.745   0.669   1.400 -0.9439 -0.3543  2.6065
 1874SOL     OW 6520   1.909   1.824   1.464  0.3384 -0.1218  0.1614
 1874SOL    HW1 6521   1.898   1.725   1.462  2.3744 -0.4196 -2.7935
 1874SOL    HW2 6522   1.861   1.864   1.386  0.4430  1.1052  0.7067
 1875SOL     OW 6523   6.295   2.737   0.305  0.0868 -0.6962 -0.9218
 1875SOL    HW1 6524   6.317   2.721   0.401 -0.7343  0.8694 -0.4259
 1875SOL    HW2 6525   6.373   2.711   0.248  1.4711  0.4065  0.3656
 1876SOL     OW 6526   1.081   6.359   1.479 -0.0021 -0.6043 -0.4943
 1876SOL    HW1 6527   1.152   6.418   1.440 -0.1090 -0.0254  0.1616
 1876SOL    HW2 6528   1.055   6.393   1.569 -0.5281 -1.2920 -0.3744
 1877SOL     OW 6529   0.874   1.467   1.234 -0.3784 -0.1635  0.0585
 1877SOL    HW1 6530   0.941   1.519   1.182 -1.0763  0.5555 -0.1358
 1877SOL    HW2 6531   0.823   1.528   1.295 -0.3433 -0.8200  0.7667
 1878SOL     OW 6532   6.061   3.548   2.084 -0.3551  0.1961 -0.7370
 1878SOL    HW1 6533   6.086   3.645   2.087 -0.4928  0.2360 -0.8767
 1878SOL    HW2 6534   5.997   3.527   2.158  0.8666 -0.1296  0.2560
 1879SOL     OW 6535   2.135   4.657   5.840  0.0615 -0.1067  0.0211
 1879SOL    HW1 6536   2.109   4.647   5.744  0.6140 -2.5269  0.0670
 1879SOL    HW2 6537   2.082   4.731   5.881 -1.4926 -0.1977 -1.6846
 1880SOL     OW 6538   2.462   6.788   3.662  0.1439 -0.2040 -0.4154
 1880SOL    HW1 6539   2.463   6.787   3.762  0.3344  0.2833 -0.4147
 1880SOL    HW2 6540   2.543   6.835   3.627  0.2620 -0.6817 -0.8074
 1881SOL     OW 6541   0.599   0.283   4.384 -0.3589 -0.2963 -0.0983
 1881SOL    HW1 6542   0.572   0.341   4.462 -0.4903 -2.2655  1.3931
 1881SOL    HW2 6543   0.674   0.223   4.413  0.4418 -0.2239 -1.9076
 1882SOL     OW 6544   3.286   5.984   5.637 -0.2410  0.4486 -0.3651
 1882SOL    HW1 6545   3.213   5.931   5.594  0.0602  0.7009 -1.1957
 1882SOL    HW2 6546   3.295   6.072   5.591 -1.0909  1.4822  1.3226
 1883SOL     OW 6547   1.072   1.182   1.195 -0.4025 -0.9276 -0.1181
 1883SOL    HW1 6548   1.098   1.262   1.140  0.4503 -1.6798 -0.8436
 1883SOL    HW2 6549   1.099   1.098   1.147 -2.1256 -1.6965  0.1862
 1884SOL     OW 6550   3.342   0.383   0.474 -0.6602 -0.2828  0.0880
 1884SOL    HW1 6551   3.409   0.455   0.454  0.0355 -0.7533  0.6405
 1884SOL    HW2 6552   3.274   0.417   0.539 -1.1553  0.3010 -0.7252
 1885SOL     OW 6553   6.855   1.645   0.771 -0.6229  0.2428 -0.0883
 1885SOL    HW1 6554   6.841   1.574   0.702 -1.4531  0.1530  0.1559
 1885SOL    HW2 6555   6.815   1.731   0.738  1.0893  0.8284 -0.7315
 1886SOL     OW 6556   2.190   2.607   6.941  0.5245 -0.1413  0.3148
 1886SOL    HW1 6557   2.282   2.586   6.908  0.8295  0.3294  0.8503
 1886SOL    HW2 6558   2.131   2.527   6.930  1.4973 -1.0919  1.7953
 1887SOL     OW 6559   6.321   6.097   6.019 -0.2399 -0.5304  0.0765
 1887SOL    HW1 6560   6.420   6.087   6.006 -0.3093 -0.5784 -0.4509
 1887SOL    HW2 6561   6.302   6.123   6.114  0.2936 -0.2738  0.1162
 1888SOL     OW 6562   1.258   0.576   1.501  0.1211 -0.4087  0.1219
 1888SOL    HW1 6563   1.338   0.542   1.550 -0.2151 -1.4694 -0.0422
 1888SOL    HW2 6564   1.176   0.559   1.555  0.0579  1.4891  0.7019
 1889SOL     OW 6565   3.152   4.512   6.776  0.9498  0.0675 -0.0641
 1889SOL    HW1 6566   3.180   4.598   6.818 -1.2015  0.7904 -0.0103
 1889SOL    HW2 6567   3.146   4.441   6.846 -1.2115  0.9175  0.6967
 1890SOL     OW 6568   6.637   5.615   6.966 -0.6880 -0.1781  0.1329
 1890SOL    HW1 6569   6.670   5.677   6.895 -1.0904  1.6000  1.4226
 1890SOL    HW2 6570   6.670   5.646   7.055 -0.8413 -1.8957  0.8319
 1891SOL     OW 6571   4.041   4.894   4.723 -0.0587  0.6227  0.0298
 1891SOL    HW1 6572   4.017   4.826   4.653 -0.4432  1.8305 -1.0597
 1891SOL    HW2 6573   3.966   4.901   4.789 -0.5191  0.7834 -0.4969
 1892SOL     OW 6574   5.125   0.128   6.015 -0.5172  0.0635 -0.3338
 1892SOL    HW1 6575   5.087   0.169   6.098  0.3885  1.0081 -0.3572
 1892SOL    HW2 6576   5.167   0.200   5.959  2.2950 -0.9993  0.2573
 1893SOL     OW 6577   5.163   3.633   6.434  0.6886  0.0932 -0.2895
 1893SOL    HW1 6578   5.136   3.642   6.338  2.7537  1.9371 -0.7814
 1893SOL    HW2 6579   5.204   3.543   6.449 -2.5335 -1.5280 -0.2435
 1894SOL     OW 6580   3.775   4.647   7.005 -0.8418 -0.4060  0.1482
 1894SOL    HW1 6581   3.814   4.625   7.094 -0.2983 -2.3151 -0.5048
 1894SOL    HW2 6582   3.848   4.648   6.936 -1.5191 -1.0539 -0.6077
 1895SOL     OW 6583   6.842   0.358   4.366 -0.6387 -0.4947 -0.6093
 1895SOL    HW1 6584   6.852   0.299   4.447 -1.6992 -0.9161 -0.7605
 1895SOL    HW2 6585   6.795   0.307   4.294  0.4115 -0.1618 -1.5468
 1896SOL     OW 6586   6.749   1.811   4.972 -0.5307  0.1740  0.3171
 1896SOL    HW1 6587   6.832   1.866   4.965 -1.4660  1.4741 -1.0111
 1896SOL    HW2 6588   6.698   1.838   5.054 -1.5483  2.1947 -0.8972
 1897SOL     OW 6589   5.987   5.485   3.036 -0.0849 -0.4166  0.1935
 1897SOL    HW1 6590   5.967   5.431   2.955  0.0809  0.4761 -0.4650
 1897SOL    HW2 6591   6.085   5.482   3.055  0.3493  1.5846 -1.3268
 1898SOL     OW 6592   6.004   4.708   0.365  0.0573  0.1980 -0.0607
 1898SOL    HW1 6593   6.041   4.801   0.366  0.8181 -0.0920  0.8880
 1898SOL    HW2 6594   6.067   4.648   0.315  0.3799 -0.1018  0.6881
 1899SOL     OW 6595   1.891   2.468   2.603  0.6674 -0.2697 -0.0695
 1899SOL    HW1 6596   1.904   2.369   2.612 -0.1125 -0.2712  1.4747
 1899SOL    HW2 6597   1.795   2.490   2.619  0.9582  0.8013  0.2465
 1900SOL     OW 6598   0.285   5.054   6.584  0.1314  0.6307  0.1200
 1900SOL    HW1 6599   0.264   5.151   6.569 -0.1408  0.5045 -0.2890
 1900SOL    HW2 6600   0.208   5.009   6.628  1.1797  1.1765  2.7458
 1901SOL     OW 6601   0.269   1.408   0.178 -0.0651  0.4104  0.1593
 1901SOL    HW1 6602   0.335   1.478   0.207 -0.0202  0.6872 -0.6030
 1901SOL    HW2 6603   0.186   1.453   0.144 -0.3529  0.0756  0.4125
 1902SOL     OW 6604   1.126   4.277   3.356  0.1679  0.4337 -0.5483
 1902SOL    HW1 6605   1.088   4.230   3.435 -2.2815  0.3863 -1.6490
 1902SOL    HW2 6606   1.182   4.214   3.303  0.0291 -0.1588  0.0019
 1903SOL     OW 6607   0.132   1.537   3.693  0.2408  0.1737 -0.3348
 1903SOL    HW1 6608   0.112   1.456   3.639  0.0877 -0.6465  0.9257
 1903SOL    HW2 6609   0.206   1.589   3.649  2.9865 -2.5999  0.7184
 1904SOL     OW 6610   6.080   5.515   3.742  0.0798 -0.2827  0.3925
 1904SOL    HW1 6611   6.170   5.559   3.748  0.2099 -0.0067 -2.3378
 1904SOL    HW2 6612   6.088   5.432   3.688 -1.3770 -0.0027 -0.2913
 1905SOL     OW 6613   0.618   2.342   4.845  0.2808 -0.6473  0.2434
 1905SOL    HW1 6614   0.712   2.331   4.876  0.7282  2.3800  0.2728
 1905SOL    HW2 6615   0.571   2.254   4.848  3.0476 -2.2301  0.3295
 1906SOL     OW 6616   2.469   6.376   1.103  0.4564 -0.2846  0.3662
 1906SOL    HW1 6617   2.397   6.307   1.111 -0.2779  0.5201  0.8944
 1906SOL    HW2 6618   2.532   6.367   1.181  1.4783 -1.5642 -0.5568
 1907SOL     OW 6619   5.178   5.795   3.123 -1.1491  0.1050  0.2393
 1907SOL    HW1 6620   5.157   5.886   3.159 -2.0075  0.0771 -0.1825
 1907SOL    HW2 6621   5.153   5.726   3.192  1.3565  0.2365  1.4134
 1908SOL     OW 6622   4.636   3.089   0.225  0.6446 -0.3050 -0.2031
 1908SOL    HW1 6623   4.725   3.055   0.195  2.0268  1.2302  1.8986
 1908SOL    HW2 6624   4.647   3.176   0.272 -2.0332  0.0768 -0.1040
 1909SOL     OW 6625   2.511   0.247   3.188 -0.5686 -0.6362  0.1953
 1909SOL    HW1 6626   2.571   0.214   3.261  1.4432  0.6617 -0.7961
 1909SOL    HW2 6627   2.418   0.215   3.205  0.2571 -2.2472  2.1054
 1910SOL     OW 6628   3.752   0.360   6.521  0.1528 -0.8169  0.4730
 1910SOL    HW1 6629   3.752   0.427   6.446  0.0010 -2.5910 -1.1867
 1910SOL    HW2 6630   3.839   0.364   6.570  0.7053 -0.3919 -0.5148
 1911SOL     OW 6631   1.238   2.654   5.425  0.8673 -0.8620  0.1019
 1911SOL    HW1 6632   1.328   2.685   5.393  0.7072 -1.1171 -0.6104
 1911SOL    HW2 6633   1.250   2.573   5.484  1.1884 -0.1795  0.9964
 1912SOL     OW 6634   3.615   6.275   2.911  0.3799 -0.3429  0.0868
 1912SOL    HW1 6635   3.559   6.286   2.829  0.4749  3.3292  0.3709
 1912SOL    HW2 6636   3.564   6.307   2.991  2.0343  1.0625  0.6527
 1913SOL     OW 6637   6.296   4.922   5.777 -0.8524 -1.0000  0.1167
 1913SOL    HW1 6638   6.270   4.827   5.760 -0.5493 -1.4331  1.8351
 1913SOL    HW2 6639   6.393   4.927   5.798 -0.5724 -0.0998 -1.2249
 1914SOL     OW 6640   3.743   1.215   4.813  0.0311 -1.0376 -0.4574
 1914SOL    HW1 6641   3.823   1.197   4.755 -0.5738 -1.6683 -1.1122
 1914SOL    HW2 6642   3.717   1.311   4.804 -0.0359 -1.1227 -1.2029
 1915SOL     OW 6643   4.286   6.776   6.173  0.3603  0.6007  0.2673
 1915SOL    HW1 6644   4.348   6.775   6.252  0.9781  1.0067 -0.2009
 1915SOL    HW2 6645   4.305   6.856   6.117 -0.5935  0.7179  0.1048
 1916SOL     OW 6646   4.370   5.594   2.084 -0.8527 -0.2698  0.2668
 1916SOL    HW1 6647   4.392   5.534   2.161  1.2033 -0.7140 -0.5827
 1916SOL    HW2 6648   4.371   5.540   2.000  1.3539  0.9244 -0.5596
 1917SOL     OW 6649   3.660   3.976   3.786 -0.3532 -0.5086  0.1752
 1917SOL    HW1 6650   3.631   3.887   3.820  0.9704 -1.1431 -0.2817
 1917SOL    HW2 6651   3.758   3.972   3.762 -0.0808  1.2723  0.8571
 1918SOL     OW 6652   4.927   6.681   3.259 -0.4902  0.2071  0.3790
 1918SOL    HW1 6653   5.023   6.673   3.284 -0.0276  0.3534 -1.2453
 1918SOL    HW2 6654   4.879   6.596   3.280  0.0446  0.0408  0.9438
 1919SOL     OW 6655   0.454   6.041   1.745  0.9105  0.1914  0.2779
 1919SOL    HW1 6656   0.468   6.063   1.648  0.0415  0.1772  0.1408
 1919SOL    HW2 6657   0.481   5.946   1.762  1.1863  0.2328  0.0757
 1920SOL     OW 6658   5.856   6.060   3.208 -0.7906 -0.1619 -0.3138
 1920SOL    HW1 6659   5.915   6.010   3.145 -2.3550  0.6626 -2.5787
 1920SOL    HW2 6660   5.788   5.998   3.247 -0.6328 -0.4340 -0.4757
 1921SOL     OW 6661   2.676   0.936   0.808 -0.6060  0.1126  0.0606
 1921SOL    HW1 6662   2.634   0.867   0.749 -1.4939  0.5751  0.1381
 1921SOL    HW2 6663   2.685   1.022   0.758  0.5954 -0.0719 -0.0715
 1922SOL     OW 6664   3.361   6.102   0.067 -0.0373 -0.0591  0.4597
 1922SOL    HW1 6665   3.322   6.135   0.152 -3.9410  0.9149 -1.4688
 1922SOL    HW2 6666   3.351   6.172  -0.004  0.0870 -1.9318 -1.5247
 1923SOL     OW 6667   1.077   0.298   0.100  0.3308  0.7257 -0.0052
 1923SOL    HW1 6668   0.984   0.334   0.092 -0.6053 -0.9310  2.4284
 1923SOL    HW2 6669   1.081   0.205   0.064  1.3361  1.1384 -1.0236
 1924SOL     OW 6670   1.645   4.468   3.250 -0.4902  0.2534  0.3235
 1924SOL    HW1 6671   1.611   4.472   3.156  1.8572  2.4561 -0.5512
 1924SOL    HW2 6672   1.638   4.374   3.284 -1.6242 -0.5637 -1.9348
 1925SOL     OW 6673   3.271   3.895   2.026 -0.0409  0.3824 -0.4249
 1925SOL    HW1 6674   3.238   3.811   2.069  2.2821 -0.0047  0.8003
 1925SOL    HW2 6675   3.304   3.875   1.934  1.4843 -0.3569  0.2358
 1926SOL     OW 6676   0.691   5.440   4.650  0.1267 -0.6895  0.2245
 1926SOL    HW1 6677   0.710   5.508   4.721 -0.9328 -0.2256  0.0826
 1926SOL    HW2 6678   0.598   5.405   4.662  0.1855 -1.1207 -0.5260
 1927SOL     OW 6679   3.685   4.257   0.180  0.3395  0.1039 -0.2353
 1927SOL    HW1 6680   3.602   4.267   0.124  0.1037 -1.2329 -0.1638
 1927SOL    HW2 6681   3.660   4.218   0.269  0.8281  1.3933  0.4774
 1928SOL     OW 6682   5.767   5.322   5.169 -0.0008  0.1484  0.2772
 1928SOL    HW1 6683   5.717   5.305   5.254  1.0354 -0.6581  0.7463
 1928SOL    HW2 6684   5.828   5.400   5.181  0.5374 -0.2924  0.4611
 1929SOL     OW 6685   1.229   7.004   0.270  0.1344  0.1914 -0.0048
 1929SOL    HW1 6686   1.316   6.962   0.244  1.7719  1.3964  3.0738
 1929SOL    HW2 6687   1.238   7.104   0.270 -1.9511  0.4621 -1.6231
 1930SOL     OW 6688   4.645   5.351   5.371 -0.1616  0.0717  0.4221
 1930SOL    HW1 6689   4.733   5.397   5.369  0.3304 -0.7856  1.3399
 1930SOL    HW2 6690   4.581   5.398   5.310  0.6784  1.1888  0.3725
 1931SOL     OW 6691   0.073   1.591   5.167  0.3426 -0.9046  0.2968
 1931SOL    HW1 6692   0.087   1.651   5.088 -0.3453 -2.6226 -1.2016
 1931SOL    HW2 6693   0.137   1.616   5.240  1.8308 -0.0263 -1.2404
 1932SOL     OW 6694   6.631   3.985   2.512  0.1233  0.3158  0.1338
 1932SOL    HW1 6695   6.665   3.951   2.600  0.4940 -0.9337 -0.4673
 1932SOL    HW2 6696   6.608   3.908   2.453 -0.5898  1.1399 -0.7016
 1933SOL     OW 6697   3.366   4.410   0.980 -0.1223  0.2402  0.1325
 1933SOL    HW1 6698   3.272   4.384   0.960 -0.3214 -0.0817  1.4092
 1933SOL    HW2 6699   3.428   4.351   0.929 -0.6010 -0.5074  0.4062
 1934SOL     OW 6700   0.340   0.172   5.846 -0.0596  0.0176  0.5977
 1934SOL    HW1 6701   0.429   0.127   5.839  1.0016  2.1825 -0.8807
 1934SOL    HW2 6702   0.274   0.109   5.887  2.2475 -1.4768  2.2753
 1935SOL     OW 6703   2.699   0.082   4.055 -0.6602  0.1887 -0.2609
 1935SOL    HW1 6704   2.613   0.125   4.030 -1.1459 -1.1255 -0.9282
 1935SOL    HW2 6705   2.763   0.088   3.978  0.6230  2.9208  0.8793
 1936SOL     OW 6706   6.265   4.833   6.593  0.1322 -0.4790  0.6138
 1936SOL    HW1 6707   6.221   4.747   6.619 -0.7193  0.2578  1.7227
 1936SOL    HW2 6708   6.206   4.882   6.529  0.2188 -0.3291  0.6483
 1937SOL     OW 6709   1.746   6.080   1.275  0.4844  0.0008  0.2442
 1937SOL    HW1 6710   1.660   6.121   1.308  0.7041 -0.0295  0.8496
 1937SOL    HW2 6711   1.735   6.055   1.178 -0.4782 -0.7942  0.5404
 1938SOL     OW 6712   4.492   1.253   3.305 -0.1703 -0.2444 -0.1481
 1938SOL    HW1 6713   4.412   1.248   3.364  0.9404  2.1429  1.7273
 1938SOL    HW2 6714   4.466   1.292   3.216 -1.0914  0.4411  0.4054
 1939SOL     OW 6715   0.552   0.733   4.324  0.3506  0.3611  0.0765
 1939SOL    HW1 6716   0.462   0.776   4.330  0.6307  1.0717 -0.6439
 1939SOL    HW2 6717   0.543   0.643   4.282  0.0377  0.6693 -0.5364
 1940SOL     OW 6718   1.226   4.578   0.758  0.5139 -0.1498 -0.6144
 1940SOL    HW1 6719   1.136   4.594   0.717  1.0995 -1.5634 -2.6029
 1940SOL    HW2 6720   1.221   4.594   0.856 -1.2865  2.1959 -0.9912
 1941SOL     OW 6721   5.633   4.505   3.538  0.6198  0.7586 -0.1998
 1941SOL    HW1 6722   5.700   4.571   3.572  1.5867  0.6071 -1.7191
 1941SOL    HW2 6723   5.680   4.422   3.509 -0.2569  0.5377 -1.0340
 1942SOL     OW 6724   5.931   3.589   4.012 -0.5142 -0.3031  0.3975
 1942SOL    HW1 6725   5.837   3.620   4.000 -0.3669  0.9864  2.0586
 1942SOL    HW2 6726   5.992   3.649   3.960 -0.4203  0.7905  1.7000
 1943SOL     OW 6727   2.457   5.113   3.219  0.1434 -0.0383 -0.7194
 1943SOL    HW1 6728   2.462   5.200   3.169  2.1503  0.2870 -0.0538
 1943SOL    HW2 6729   2.518   5.046   3.176 -0.3669 -0.6945 -0.4406
 1944SOL     OW 6730   6.886   0.862   1.808  0.1300  0.2978  1.1304
 1944SOL    HW1 6731   6.912   0.809   1.728  2.5177  0.4357  1.7538
 1944SOL    HW2 6732   6.867   0.957   1.780  0.7294  0.2938  0.6959
 1945SOL     OW 6733   3.580   5.195   4.514 -0.0481  0.0935  0.3691
 1945SOL    HW1 6734   3.510   5.246   4.464 -1.7692 -1.4674  1.0374
 1945SOL    HW2 6735   3.591   5.235   4.605 -1.5265 -0.7567  0.9613
 1946SOL     OW 6736   1.400   1.552   6.616 -0.0149  0.3070  0.1636
 1946SOL    HW1 6737   1.324   1.604   6.654  0.9331  0.5071  1.8362
 1946SOL    HW2 6738   1.422   1.475   6.677  0.1470 -0.6684 -1.0743
 1947SOL     OW 6739   0.821   0.166   4.459  0.1385 -0.6997 -0.6802
 1947SOL    HW1 6740   0.885   0.208   4.523 -1.6305 -2.4853  2.4624
 1947SOL    HW2 6741   0.809   0.069   4.481 -3.3758 -0.5343 -1.3110
 1948SOL     OW 6742   6.385   4.719   4.747  0.0775 -0.1382  0.7967
 1948SOL    HW1 6743   6.385   4.819   4.746 -0.0875 -0.1315  1.3147
 1948SOL    HW2 6744   6.410   4.686   4.838  0.1466 -0.5717  0.6252
 1949SOL     OW 6745   4.271   5.004   6.352  0.1329  0.1633 -0.0037
 1949SOL    HW1 6746   4.329   4.925   6.371  0.1817  0.0568 -0.5815
 1949SOL    HW2 6747   4.177   4.975   6.338  0.6855 -0.3061 -3.7714
 1950SOL     OW 6748   2.243   3.823   0.486  0.4667  0.4626 -0.3677
 1950SOL    HW1 6749   2.265   3.771   0.569  0.6632 -1.0589 -1.3435
 1950SOL    HW2 6750   2.147   3.853   0.490 -0.1773 -1.4726 -0.5332
 1951SOL     OW 6751   4.782   2.354   6.048  0.1745 -0.3892  0.1600
 1951SOL    HW1 6752   4.731   2.387   6.128 -1.7517 -2.4349 -0.1313
 1951SOL    HW2 6753   4.810   2.259   6.064 -1.9858 -1.5587 -2.2793
 1952SOL     OW 6754   3.287   1.927   0.976 -0.6653 -0.9943  0.1890
 1952SOL    HW1 6755   3.190   1.948   0.967 -0.8568 -0.9683  1.9968
 1952SOL    HW2 6756   3.308   1.846   0.921 -1.9467 -1.6249  0.5867
 1953SOL     OW 6757   1.388   2.181   2.192  0.3106  0.2730 -0.0210
 1953SOL    HW1 6758   1.337   2.128   2.260  1.4356 -1.2051 -0.2742
 1953SOL    HW2 6759   1.431   2.118   2.127 -0.0040  1.6147 -1.5912
 1954SOL     OW 6760   4.918   3.049   2.261  0.1252 -0.2819 -0.1179
 1954SOL    HW1 6761   4.849   3.032   2.190 -0.8138  3.6000 -0.3315
 1954SOL    HW2 6762   4.875   3.040   2.351 -0.0296 -0.1854 -0.1816
 1955SOL     OW 6763   0.980   5.754   5.679 -0.5836  0.4695  0.2772
 1955SOL    HW1 6764   1.002   5.687   5.609  2.3444  2.6053 -1.0855
 1955SOL    HW2 6765   0.990   5.712   5.770  0.4309 -1.1408 -0.5361
 1956SOL     OW 6766   4.872   6.234   1.975 -0.2809  0.1335 -0.4632
 1956SOL    HW1 6767   4.885   6.333   1.982  0.0670  0.0429  0.2653
 1956SOL    HW2 6768   4.962   6.190   1.962  0.0455 -0.3490  2.6527
 1957SOL     OW 6769   6.299   0.940   4.712 -0.6439 -0.3746 -0.0112
 1957SOL    HW1 6770   6.219   0.990   4.678 -1.1050 -0.6093  0.6879
 1957SOL    HW2 6771   6.324   0.869   4.646 -1.1469 -0.4353 -0.1422
 1958SOL     OW 6772   5.853   4.498   6.960  0.4638 -0.0467 -0.6079
 1958SOL    HW1 6773   5.866   4.596   6.946 -1.0931  0.8655  3.1165
 1958SOL    HW2 6774   5.939   4.458   6.992  0.8348  0.3447 -1.1046
 1959SOL     OW 6775   1.498   2.832   0.106  0.2391 -0.7984  0.0479
 1959SOL    HW1 6776   1.540   2.756   0.055  3.0611 -0.1459  1.2131
 1959SOL    HW2 6777   1.543   2.841   0.194 -1.0087  1.3664  0.5126
 1960SOL     OW 6778   5.367   5.436   0.765  0.0619 -0.1984  0.1677
 1960SOL    HW1 6779   5.287   5.384   0.735 -0.0782 -0.2861  0.6842
 1960SOL    HW2 6780   5.395   5.404   0.855  0.5700 -0.0427  0.0658
 1961SOL     OW 6781   6.010   3.373   3.629  0.8498 -0.1967  0.6425
 1961SOL    HW1 6782   5.987   3.362   3.726  0.8105  0.1577  0.6762
 1961SOL    HW2 6783   6.105   3.403   3.620  1.1499 -1.1637  0.5265
 1962SOL     OW 6784   1.406   5.189   5.315 -0.1117  0.6462 -0.3062
 1962SOL    HW1 6785   1.466   5.118   5.352 -1.1094 -0.0249  0.0895
 1962SOL    HW2 6786   1.331   5.145   5.265 -0.3335  1.4530 -0.6855
 1963SOL     OW 6787   1.599   6.545   2.811  0.3850  0.1829  0.3663
 1963SOL    HW1 6788   1.692   6.535   2.846  0.2169 -0.1120  0.7392
 1963SOL    HW2 6789   1.541   6.590   2.880 -0.4507 -2.2402  1.3717
 1964SOL     OW 6790   5.150   2.518   4.790  0.3319  0.5363  0.6117
 1964SOL    HW1 6791   5.200   2.515   4.877  0.1069  0.9022  0.7566
 1964SOL    HW2 6792   5.202   2.573   4.724  0.8709 -0.3614  0.2711
 1965SOL     OW 6793   6.770   4.199   3.921 -0.1839  0.4830 -0.2263
 1965SOL    HW1 6794   6.810   4.162   3.837  1.4483  0.2655  0.5989
 1965SOL    HW2 6795   6.776   4.299   3.920 -0.3560  0.4908 -0.4602
 1966SOL     OW 6796   6.513   5.175   5.666  0.3081 -0.3008 -0.2301
 1966SOL    HW1 6797   6.583   5.180   5.594  0.1358  0.8375 -0.3290
 1966SOL    HW2 6798   6.426   5.208   5.631 -0.1824 -1.2754  0.0358
 1967SOL     OW 6799   4.907   1.798   3.034 -0.1354 -0.4185  0.3246
 1967SOL    HW1 6800   4.826   1.828   3.084  0.6812  0.8503  0.9509
 1967SOL    HW2 6801   4.912   1.846   2.947 -0.2530 -0.7765  0.1189
 1968SOL     OW 6802   2.498   6.063   0.829  0.1841 -0.2468 -0.5734
 1968SOL    HW1 6803   2.594   6.067   0.856 -0.3901 -0.2620  1.6555
 1968SOL    HW2 6804   2.478   5.974   0.789  1.1984 -0.0664 -1.5038
 1969SOL     OW 6805   6.495   1.740   1.937 -0.2407 -0.5126  0.0298
 1969SOL    HW1 6806   6.405   1.708   1.908 -0.5551 -0.2990  0.7349
 1969SOL    HW2 6807   6.552   1.759   1.857 -1.1862  0.3593 -0.4564
 1970SOL     OW 6808   3.222   0.439   4.273  0.3266 -0.0353  0.0077
 1970SOL    HW1 6809   3.236   0.537   4.290  0.3334  0.0463 -0.4559
 1970SOL    HW2 6810   3.269   0.413   4.188 -0.9956 -0.0958 -0.7233
 1971SOL     OW 6811   0.585   6.483   0.378 -0.6991  0.7017 -0.1465
 1971SOL    HW1 6812   0.533   6.567   0.396 -2.0983  0.1633 -1.4658
 1971SOL    HW2 6813   0.533   6.404   0.412 -0.2240  0.2359 -0.4893
 1972SOL     OW 6814   5.112   5.743   5.542  0.7053  0.0941 -0.2823
 1972SOL    HW1 6815   5.107   5.677   5.467  0.1483  0.2415 -0.3832
 1972SOL    HW2 6816   5.184   5.716   5.606  0.9476 -0.2272 -0.6844
 1973SOL     OW 6817   3.901   2.828   1.445  0.0449 -0.1907  0.0103
 1973SOL    HW1 6818   3.999   2.844   1.451  0.0130  1.0861 -1.9235
 1973SOL    HW2 6819   3.868   2.788   1.530  1.6025  2.9682  2.3104
 1974SOL     OW 6820   6.341   0.780   4.487  0.2245  0.9827  0.2613
 1974SOL    HW1 6821   6.422   0.723   4.474 -1.3326 -1.3901  0.2111
 1974SOL    HW2 6822   6.339   0.852   4.418  0.3655 -1.2941 -2.2594
 1975SOL     OW 6823   3.960   5.963   4.246 -0.3830 -0.1401 -0.0493
 1975SOL    HW1 6824   4.048   6.007   4.231 -0.8782  1.2101  0.8171
 1975SOL    HW2 6825   3.950   5.885   4.184  1.2404 -0.0734 -0.4217
 1976SOL     OW 6826   0.549   6.617   1.214 -0.5957 -0.0176 -0.3717
 1976SOL    HW1 6827   0.598   6.562   1.146  0.6545  0.6974 -0.0932
 1976SOL    HW2 6828   0.547   6.568   1.301 -0.4723 -0.1010 -0.4152
 1977SOL     OW 6829   0.965   3.047   3.695 -0.0394  0.0089 -0.1054
 1977SOL    HW1 6830   1.049   3.094   3.720 -0.8367  1.0076  0.7902
 1977SOL    HW2 6831   0.974   3.010   3.603  1.3292  0.1815 -0.0678
 1978SOL     OW 6832   5.539   2.916   4.642 -0.1188 -0.2436  0.2433
 1978SOL    HW1 6833   5.470   2.975   4.683  0.6704 -0.4119  1.9163
 1978SOL    HW2 6834   5.628   2.962   4.645 -0.3677  0.7642 -3.5993
 1979SOL     OW 6835   0.519   5.609   3.159  0.0082 -0.1433  0.4498
 1979SOL    HW1 6836   0.480   5.700   3.174  0.4693  0.2051 -0.4113
 1979SOL    HW2 6837   0.587   5.590   3.230 -1.0735 -0.4049  1.4556
 1980SOL     OW 6838   3.901   6.352   0.527 -0.1296  0.2499  0.0669
 1980SOL    HW1 6839   3.935   6.315   0.613 -0.5140  1.2602  0.6718
 1980SOL    HW2 6840   3.862   6.443   0.542 -0.9899  0.0915 -1.0172
 1981SOL     OW 6841   4.873   2.595   3.500  0.8203  0.1315  0.7637
 1981SOL    HW1 6842   4.861   2.513   3.443  2.4635  1.0080 -0.9556
 1981SOL    HW2 6843   4.808   2.665   3.471  1.5259  0.5076  0.0227
 1982SOL     OW 6844   4.845   4.339   5.324  0.0184  0.3978 -0.1873
 1982SOL    HW1 6845   4.831   4.383   5.413 -0.1652 -3.8185  2.1575
 1982SOL    HW2 6846   4.943   4.340   5.301  0.4357 -0.4572  1.3630
 1983SOL     OW 6847   1.354   2.294   6.872 -0.0231 -0.0065 -0.4619
 1983SOL    HW1 6848   1.273   2.313   6.816 -0.9690 -1.0633  0.4827
 1983SOL    HW2 6849   1.421   2.243   6.818 -0.7676 -0.7011 -0.7605
 1984SOL     OW 6850   4.323   0.733   5.982  0.1263 -0.2047  0.6457
 1984SOL    HW1 6851   4.375   0.779   5.910  1.5531  0.8786  2.2782
 1984SOL    HW2 6852   4.276   0.802   6.038 -2.7774 -1.1433 -0.5072
 1985SOL     OW 6853   1.293   2.802   1.536  0.1939  0.0721 -0.3753
 1985SOL    HW1 6854   1.194   2.813   1.533  0.4593  2.8413 -1.7838
 1985SOL    HW2 6855   1.316   2.724   1.595 -2.7607 -0.3980  0.3020
 1986SOL     OW 6856   2.911   1.182   6.991 -0.1880  0.0344 -0.0639
 1986SOL    HW1 6857   2.846   1.113   7.022  0.9407 -0.7960  0.5358
 1986SOL    HW2 6858   2.868   1.240   6.922 -1.5339 -0.5153  0.2821
 1987SOL     OW 6859   2.464   3.758   0.731 -0.1171 -0.1555 -0.1646
 1987SOL    HW1 6860   2.493   3.752   0.826 -2.2695  0.9473  0.6158
 1987SOL    HW2 6861   2.510   3.835   0.687  0.0032  0.0461  0.3128
 1988SOL     OW 6862   5.427   5.176   1.956 -0.2852  0.1567 -0.1110
 1988SOL    HW1 6863   5.498   5.107   1.943  0.2965  0.5741  0.7437
 1988SOL    HW2 6864   5.352   5.136   2.010 -0.1127  0.0899  0.0808
 1989SOL     OW 6865   1.721   0.101   4.315  0.1660  0.3581 -0.2724
 1989SOL    HW1 6866   1.698   0.021   4.371  0.7661 -0.7075 -1.4938
 1989SOL    HW2 6867   1.726   0.074   4.219 -1.4562  2.2569 -0.9672
 1990SOL     OW 6868   3.042   0.947   0.298 -0.2368  0.3213  0.3004
 1990SOL    HW1 6869   3.008   1.041   0.290  1.8768  1.1197 -0.0757
 1990SOL    HW2 6870   3.016   0.895   0.217  0.0048  1.1035 -0.2928
 1991SOL     OW 6871   2.010   5.619   3.586 -0.1279  0.2454  0.0123
 1991SOL    HW1 6872   1.979   5.712   3.566 -0.9700 -0.2608 -1.1312
 1991SOL    HW2 6873   2.005   5.564   3.503  1.3756 -0.5623  0.4169
 1992SOL     OW 6874   1.698   6.008   4.610 -0.2498  0.1247  0.6198
 1992SOL    HW1 6875   1.739   5.917   4.598 -0.2417  0.1852  0.1758
 1992SOL    HW2 6876   1.767   6.070   4.648  0.3466  0.4496 -0.9415
 1993SOL     OW 6877   3.746   3.314   4.053  0.3229 -0.6988 -0.3838
 1993SOL    HW1 6878   3.651   3.296   4.028  0.2434 -0.2878 -0.3791
 1993SOL    HW2 6879   3.802   3.321   3.970  0.7928 -3.2243 -0.3719
 1994SOL     OW 6880   5.287   2.545   1.511 -0.8332 -0.0485  0.4554
 1994SOL    HW1 6881   5.232   2.515   1.434 -1.4580  0.8184  0.5440
 1994SOL    HW2 6882   5.341   2.469   1.546 -0.4982 -0.4428 -0.8681
 1995SOL     OW 6883   4.729   3.347   0.405  0.1637 -1.1600  0.8334
 1995SOL    HW1 6884   4.767   3.263   0.445  0.6972 -0.2193  2.3942
 1995SOL    HW2 6885   4.735   3.421   0.472  0.3760  0.3170 -0.7533
 1996SOL     OW 6886   4.878   6.352   0.053 -0.2664  0.2311 -0.0180
 1996SOL    HW1 6887   4.900   6.310  -0.034 -0.7224 -0.1454  0.0443
 1996SOL    HW2 6888   4.811   6.425   0.039 -1.3990 -0.7461  0.1738
 1997SOL     OW 6889   4.600   0.097   3.982 -0.0122  0.1297  0.7877
 1997SOL    HW1 6890   4.597  -0.002   3.967  2.3162 -0.1508  1.7654
 1997SOL    HW2 6891   4.593   0.144   3.894  0.3554 -0.9623  0.1489
 1998SOL     OW 6892   2.319   4.042   0.893 -0.1596 -0.4642 -0.1728
 1998SOL    HW1 6893   2.276   4.095   0.820 -0.2622  2.0395  1.5745
 1998SOL    HW2 6894   2.253   4.027   0.967  1.3882  2.5217  2.0785
 1999SOL     OW 6895   2.196   1.011   1.955 -0.4081 -0.0475 -0.0845
 1999SOL    HW1 6896   2.249   0.973   1.879 -0.5737  1.3752 -0.9483
 1999SOL    HW2 6897   2.189   1.110   1.944 -0.5269  0.1833  1.7458
 2000SOL     OW 6898   5.411   2.097   5.570  0.4131  0.5432  0.1423
 2000SOL    HW1 6899   5.349   2.138   5.636  0.2385  1.5463 -0.6161
 2000SOL    HW2 6900   5.396   2.138   5.480  1.7543  0.3838 -0.1876
 2001SOL     OW 6901   2.822   2.375   0.580  0.4171 -0.3757  0.1201
 2001SOL    HW1 6902   2.821   2.450   0.514 -0.0100  1.0178  1.6344
 2001SOL    HW2 6903   2.906   2.322   0.568  1.3902  1.1488 -0.1446
 2002SOL     OW 6904   2.968   6.000   0.264  0.4941  0.1526  0.1561
 2002SOL    HW1 6905   2.896   5.933   0.243 -0.7504  1.2913  0.6342
 2002SOL    HW2 6906   3.031   5.961   0.331  1.1713 -1.3839 -1.3099
 2003SOL     OW 6907   0.061   4.459   4.810  0.0591 -0.1684 -0.1470
 2003SOL    HW1 6908  -0.033   4.434   4.788 -1.2547  1.8606  2.5839
 2003SOL    HW2 6909   0.078   4.553   4.781  1.3800 -0.5871 -0.8227
 2004SOL     OW 6910   2.921   4.240   0.045 -0.6102  0.7171 -0.1644
 2004SOL    HW1 6911   2.842   4.205  -0.006 -0.4380 -0.0556  0.0846
 2004SOL    HW2 6912   2.938   4.181   0.124 -0.5741  1.6204  0.5145
 2005SOL     OW 6913   1.020   5.624   5.972 -0.5982 -1.0310 -0.6475
 2005SOL    HW1 6914   0.985   5.531   5.984  0.8484 -1.4064  1.1382
 2005SOL    HW2 6915   1.114   5.628   6.006 -0.3586  0.9179 -1.4394
 2006SOL     OW 6916   5.545   5.751   5.890 -0.2450 -0.2598  0.2891
 2006SOL    HW1 6917   5.517   5.838   5.931  1.5445  0.5348 -0.1111
 2006SOL    HW2 6918   5.502   5.676   5.941 -2.1846  0.8256  0.3641
 2007SOL     OW 6919   6.714   3.826   0.408  0.5506  0.4035  0.0399
 2007SOL    HW1 6920   6.690   3.748   0.351 -2.4162  1.2872 -0.0899
 2007SOL    HW2 6921   6.730   3.906   0.349 -0.1620  0.7599  0.3251
 2008SOL     OW 6922   0.257   6.606   2.824  0.2407  0.6714 -0.3845
 2008SOL    HW1 6923   0.182   6.565   2.772  0.3370 -0.6492  0.4810
 2008SOL    HW2 6924   0.220   6.676   2.885 -0.0516  1.2251 -1.1810
 2009SOL     OW 6925   1.136   6.869   0.958  0.8480  0.2795  0.3054
 2009SOL    HW1 6926   1.079   6.904   1.032 -3.3524 -3.1816 -0.8659
 2009SOL    HW2 6927   1.131   6.769   0.957  1.9552  0.0866 -3.6970
 2010SOL     OW 6928   1.142   6.577   0.907 -0.0850 -0.3108 -0.6046
 2010SOL    HW1 6929   1.055   6.532   0.885  0.6588 -1.6012 -1.0329
 2010SOL    HW2 6930   1.208   6.559   0.834  0.1733  1.8064 -0.9795
 2011SOL     OW 6931   6.148   6.176   4.006 -0.3477  0.6631  0.8068
 2011SOL    HW1 6932   6.175   6.262   3.963  1.4174 -0.4319 -0.3805
 2011SOL    HW2 6933   6.074   6.134   3.953  0.0393  0.5758  0.3319
 2012SOL     OW 6934   0.761   6.017   1.606 -0.0337  0.7857  0.3795
 2012SOL    HW1 6935   0.800   5.983   1.692 -1.1831 -1.1108  0.2092
 2012SOL    HW2 6936   0.689   5.955   1.576  0.7760  1.0212 -2.3141
 2013SOL     OW 6937   6.285   3.181   3.073  0.5071  0.1330  0.2124
 2013SOL    HW1 6938   6.259   3.163   3.168 -1.0852 -1.4946 -0.4764
 2013SOL    HW2 6939   6.218   3.242   3.031  1.4818  1.2538  0.2461
 2014SOL     OW 6940   1.724   6.732   4.167 -0.9130 -0.3432 -0.1078
 2014SOL    HW1 6941   1.630   6.743   4.201 -0.8154  1.1127 -0.2458
 2014SOL    HW2 6942   1.766   6.652   4.211 -2.5130 -1.6154 -0.7682
 2015SOL     OW 6943   2.386   0.487   0.514 -0.4016 -0.0017  0.5272
 2015SOL    HW1 6944   2.301   0.486   0.567 -0.7603  0.0595 -0.0331
 2015SOL    HW2 6945   2.364   0.488   0.416  0.2460  0.0935  0.3771
 2016SOL     OW 6946   1.921   1.360   5.635 -0.3541 -0.4490 -0.7155
 2016SOL    HW1 6947   1.917   1.453   5.672 -0.0937 -0.2299 -1.2247
 2016SOL    HW2 6948   1.889   1.295   5.704  0.6507 -0.1127  0.1011
 2017SOL     OW 6949   2.690   6.394   2.469 -0.4340 -0.1056  0.0090
 2017SOL    HW1 6950   2.639   6.456   2.528  0.9620  1.2065 -0.1080
 2017SOL    HW2 6951   2.763   6.349   2.522  0.3549  0.5205 -0.5128
 2018SOL     OW 6952   0.815   7.002   6.866 -0.6306 -0.0836  0.6558
 2018SOL    HW1 6953   0.881   6.928   6.877  0.0338  0.4838  0.5257
 2018SOL    HW2 6954   0.761   6.986   6.784 -0.3751 -0.3335  0.5336
 2019SOL     OW 6955   5.047   2.006   1.534  0.1999  0.3039  0.3685
 2019SOL    HW1 6956   5.138   1.976   1.563  0.7441  3.3689  2.3276
 2019SOL    HW2 6957   4.992   2.025   1.615 -0.8652  2.1020 -0.7296
 2020SOL     OW 6958   2.257   6.952   2.281  0.8502  0.0355  0.2362
 2020SOL    HW1 6959   2.350   6.957   2.318  0.2315 -0.8699  2.0252
 2020SOL    HW2 6960   2.197   7.014   2.331  0.1119 -0.7354  0.3350
 2021SOL     OW 6961   3.555   0.093   2.003 -0.2714 -0.4937 -0.1969
 2021SOL    HW1 6962   3.530   0.004   1.964 -0.9484 -0.1829 -0.4996
 2021SOL    HW2 6963   3.610   0.143   1.936  0.9743 -1.0662  0.3603
 2022SOL     OW 6964   2.046   2.973   3.230 -0.1335 -0.2268  0.3704
 2022SOL    HW1 6965   2.000   2.933   3.309 -2.4146 -1.6226 -1.5500
 2022SOL    HW2 6966   2.112   2.908   3.193 -1.1190 -0.7623 -0.5051
 2023SOL     OW 6967   0.620   0.317   4.859 -0.3338  0.4772  0.1723
 2023SOL    HW1 6968   0.718   0.316   4.877 -0.0599  1.4168 -1.1442
 2023SOL    HW2 6969   0.595   0.234   4.808 -0.1470  0.4243  0.1643
 2024SOL     OW 6970   5.897   0.211   3.196  0.3409 -0.0308 -0.0550
 2024SOL    HW1 6971   5.876   0.174   3.106  1.5782 -1.9169  0.3672
 2024SOL    HW2 6972   5.995   0.201   3.214  0.3555  1.6180  0.9534
 2025SOL     OW 6973   1.859   1.923   0.830 -0.0191  0.1419  0.3569
 2025SOL    HW1 6974   1.951   1.924   0.870  0.1176  0.4681  0.0463
 2025SOL    HW2 6975   1.807   2.001   0.864  0.3528  0.8622 -0.6543
 2026SOL     OW 6976   0.417   2.682   6.717 -0.0196 -0.0277 -0.5901
 2026SOL    HW1 6977   0.321   2.688   6.744  0.2362 -0.3002  0.4260
 2026SOL    HW2 6978   0.468   2.755   6.760 -0.0226  1.1298 -2.4215
 2027SOL     OW 6979   2.014   6.750   3.112 -0.0708  0.0643  0.9991
 2027SOL    HW1 6980   2.088   6.723   3.172 -0.0454  0.8769  1.3510
 2027SOL    HW2 6981   1.931   6.765   3.165 -0.2521  0.0355  0.7286
 2028SOL     OW 6982   2.923   4.386   5.556  0.1495  0.1794 -0.4248
 2028SOL    HW1 6983   2.937   4.344   5.466 -1.0095 -1.2312  0.0138
 2028SOL    HW2 6984   2.854   4.334   5.606 -0.4902  1.9594  0.6174
 2029SOL     OW 6985   1.554   1.410   6.432  0.2747  0.7802 -0.3892
 2029SOL    HW1 6986   1.513   1.488   6.480 -0.1317  1.0528 -1.1734
 2029SOL    HW2 6987   1.628   1.372   6.488  2.2355  3.3093 -1.0592
 2030SOL     OW 6988   2.607   1.425   4.309 -0.0169  0.1813 -0.0668
 2030SOL    HW1 6989   2.523   1.382   4.343  0.5999 -0.8290  0.2172
 2030SOL    HW2 6990   2.673   1.355   4.284  0.0450  0.9171 -2.1782
 2031SOL     OW 6991   4.971   0.234   0.948 -0.2820  0.3186 -0.0757
 2031SOL    HW1 6992   4.918   0.259   0.867  0.5908 -0.3972 -0.8930
 2031SOL    HW2 6993   5.065   0.264   0.937  0.5601 -2.2512 -0.6371
 2032SOL     OW 6994   5.470   0.811   6.253 -0.0197 -0.6651 -0.1484
 2032SOL    HW1 6995   5.420   0.862   6.183  1.0054  1.0422  0.2987
 2032SOL    HW2 6996   5.482   0.716   6.223 -1.6796 -0.5875 -1.1789
 2033SOL     OW 6997   3.003   4.844   6.484  0.5989  0.3744 -0.0475
 2033SOL    HW1 6998   2.969   4.750   6.479 -0.5784  0.7591  0.4729
 2033SOL    HW2 6999   3.049   4.867   6.398  0.1936 -0.4010 -0.4833
 2034SOL     OW 7000   1.777   0.151   3.543 -0.3147  0.7998  0.3897
 2034SOL    HW1 7001   1.686   0.112   3.555 -0.3312  0.3055 -1.0450
 2034SOL    HW2 7002   1.844   0.077   3.537 -0.0934  1.0491 -0.4624
 2035SOL     OW 7003   1.891   0.396   3.125  0.5641  0.0928 -0.5724
 2035SOL    HW1 7004   1.799   0.380   3.091  0.4967  0.9562 -0.8300
 2035SOL    HW2 7005   1.917   0.491   3.106  0.5242  0.6301  1.8223
 2036SOL     OW 7006   6.981   0.513   5.058  0.9587  0.0339 -0.2422
 2036SOL    HW1 7007   7.077   0.532   5.035  1.2635 -3.1446 -2.2679
 2036SOL    HW2 7008   6.921   0.567   4.999  1.4905  1.2249  0.2808
 2037SOL     OW 7009   4.925   3.720   3.578 -0.3228 -0.2621  0.2537
 2037SOL    HW1 7010   4.871   3.798   3.610 -0.1931  0.3486 -0.9911
 2037SOL    HW2 7011   4.978   3.683   3.655 -0.5501  0.7342  0.9086
 2038SOL     OW 7012   0.441   0.947   5.670 -0.3732  0.0143  0.1017
 2038SOL    HW1 7013   0.420   0.859   5.628  0.6263 -0.9996  1.6368
 2038SOL    HW2 7014   0.456   1.016   5.599  0.9981 -1.5564 -1.1884
 2039SOL     OW 7015   5.507   6.007   2.915  0.3023  0.1033  0.6493
 2039SOL    HW1 7016   5.495   6.106   2.903  1.3324  0.2868  1.0468
 2039SOL    HW2 7017   5.513   5.986   3.013  0.4093 -0.3065  0.5542
 2040SOL     OW 7018   4.167   3.675   5.084 -0.0628  0.3858  0.0376
 2040SOL    HW1 7019   4.091   3.686   5.020  0.8751  2.5039 -0.7835
 2040SOL    HW2 7020   4.169   3.580   5.116 -2.2709 -0.0380 -0.8577
 2041SOL     OW 7021   4.981   3.312   6.999 -0.3281 -0.5528  0.6142
 2041SOL    HW1 7022   5.026   3.259   6.926 -0.5827 -1.0817  0.8409
 2041SOL    HW2 7023   5.050   3.343   7.065 -0.2806 -1.2874  0.9132
 2042SOL     OW 7024   6.321   4.427   5.908 -0.4454 -0.0488 -0.1968
 2042SOL    HW1 7025   6.376   4.410   5.990 -1.0562  1.0716  0.4746
 2042SOL    HW2 7026   6.366   4.496   5.851 -0.8894  0.5116  0.1139
 2043SOL     OW 7027   6.956   5.197   2.388  0.4444  0.3730  0.5930
 2043SOL    HW1 7028   7.009   5.279   2.367 -1.9044  2.4128  2.0894
 2043SOL    HW2 7029   6.890   5.180   2.314 -1.3611  1.9445  1.7382
 2044SOL     OW 7030   4.831   6.860   1.290 -0.6182  0.2454 -0.0712
 2044SOL    HW1 7031   4.845   6.767   1.257 -0.3264 -0.3940  1.7398
 2044SOL    HW2 7032   4.745   6.865   1.342 -0.6889  1.0144 -0.2467
 2045SOL     OW 7033   2.321   4.397   0.565 -0.2345 -0.5653  0.0735
 2045SOL    HW1 7034   2.361   4.347   0.489  0.5413 -2.8556  1.8695
 2045SOL    HW2 7035   2.264   4.335   0.619 -0.5978  0.9396  1.4955
 2046SOL     OW 7036   5.039   2.445   2.453  0.3208  0.2165  0.2790
 2046SOL    HW1 7037   5.064   2.382   2.527  1.5154  0.9542  0.5165
 2046SOL    HW2 7038   5.036   2.394   2.366  1.2792 -0.1825  0.4651
 2047SOL     OW 7039   5.562   2.118   0.387  0.1555  0.3952 -0.4142
 2047SOL    HW1 7040   5.635   2.073   0.336 -0.0647  1.2995 -1.5535
 2047SOL    HW2 7041   5.493   2.153   0.324 -1.0265  0.0082  0.6124
 2048SOL     OW 7042   3.885   1.290   0.388 -0.0702  0.3516 -0.4435
 2048SOL    HW1 7043   3.817   1.264   0.457 -0.8413  2.8715 -0.1474
 2048SOL    HW2 7044   3.859   1.252   0.299  0.3998 -2.1045  0.3926
 2049SOL     OW 7045   4.168   1.744   6.583  0.0514 -0.8425  0.2979
 2049SOL    HW1 7046   4.139   1.696   6.501  1.1499 -0.6156 -0.2301
 2049SOL    HW2 7047   4.102   1.726   6.657 -1.0565 -0.8718 -0.6738
 2050SOL     OW 7048   5.020   2.787   2.463 -0.2346 -0.4854  1.0916
 2050SOL    HW1 7049   5.095   2.729   2.492  1.4915  0.9910 -0.1925
 2050SOL    HW2 7050   4.975   2.746   2.383  0.6267 -0.3513  0.5262
 2051SOL     OW 7051   6.887   6.995   5.992  0.0149  0.2249  0.0683
 2051SOL    HW1 7052   6.897   7.054   6.072  0.0491 -1.5148  1.4029
 2051SOL    HW2 7053   6.826   7.039   5.926 -0.4384  1.4773  1.2615
 2052SOL     OW 7054   0.723   3.235   5.972  0.1235 -0.1585 -0.0024
 2052SOL    HW1 7055   0.654   3.290   5.924  0.0993 -1.2518 -1.2879
 2052SOL    HW2 7056   0.683   3.148   6.000  1.0424 -0.9817 -1.1302
 2053SOL     OW 7057   6.313   0.737   6.179  0.7116 -0.4016 -0.1800
 2053SOL    HW1 7058   6.323   0.683   6.262  0.7827  1.1666  0.8850
 2053SOL    HW2 7059   6.396   0.793   6.167 -0.7435  2.1411  0.8070
 2054SOL     OW 7060   0.373   3.431   6.830 -0.4160 -0.3473  0.2304
 2054SOL    HW1 7061   0.375   3.331   6.833  3.6271 -0.3697  1.3705
 2054SOL    HW2 7062   0.321   3.466   6.908 -0.5546 -1.5575  0.6965
 2055SOL     OW 7063   4.429   1.531   2.414  0.1875  0.0123  0.2323
 2055SOL    HW1 7064   4.421   1.625   2.383  0.9434  0.0554  0.1593
 2055SOL    HW2 7065   4.343   1.482   2.395  0.3163  0.2810 -1.1129
 2056SOL     OW 7066   2.213   6.885   3.739 -0.6253  0.3811  0.3035
 2056SOL    HW1 7067   2.130   6.839   3.706 -0.0661  0.1495 -0.8003
 2056SOL    HW2 7068   2.294   6.841   3.701  0.0747  0.0472  2.0547
 2057SOL     OW 7069   5.540   3.393   2.324  0.0090 -0.0875  0.3289
 2057SOL    HW1 7070   5.564   3.335   2.402  1.6397 -0.3933 -0.3522
 2057SOL    HW2 7071   5.617   3.452   2.302  0.7736 -2.0242 -2.8034
 2058SOL     OW 7072   0.078   3.449   2.967  0.0071 -0.4623  0.2459
 2058SOL    HW1 7073   0.175   3.474   2.959  0.8891 -2.7306  2.3269
 2058SOL    HW2 7074   0.064   3.358   2.927 -0.7241 -1.1046  1.8577
 2059SOL     OW 7075   0.800   5.720   6.161 -0.0721 -0.2694  0.0525
 2059SOL    HW1 7076   0.861   5.788   6.121 -1.0529  0.3326 -0.4364
 2059SOL    HW2 7077   0.759   5.665   6.088 -0.3144 -0.4968  0.3568
 2060SOL     OW 7078   0.282   6.912   1.700  0.1479 -0.5339  0.1809
 2060SOL    HW1 7079   0.206   6.902   1.764 -0.2567 -0.0051 -0.2139
 2060SOL    HW2 7080   0.358   6.854   1.730 -0.3075 -0.8612  0.7252
 2061SOL     OW 7081   1.273   1.282   2.522 -0.1115 -0.0934 -0.3578
 2061SOL    HW1 7082   1.281   1.307   2.618  2.3541  0.0894 -0.5450
 2061SOL    HW2 7083   1.180   1.250   2.503 -0.2753 -1.5680  2.4238
 2062SOL     OW 7084   5.187   6.686   1.276  0.8366 -0.1868 -0.0006
 2062SOL    HW1 7085   5.101   6.656   1.236 -0.5579 -0.3359  2.8912
 2062SOL    HW2 7086   5.245   6.607   1.295  0.8366 -0.2547 -0.2857
 2063SOL     OW 7087   0.166   4.367   0.509  0.4204  0.2417  0.7311
 2063SOL    HW1 7088   0.099   4.299   0.478 -0.2915  1.4127 -0.3668
 2063SOL    HW2 7089   0.227   4.325   0.576 -0.5049 -1.2529  0.6762
 2064SOL     OW 7090   0.497   1.066   6.360  0.0317  0.2765 -0.0138
 2064SOL    HW1 7091   0.512   0.987   6.418  0.0168  1.5621  1.8233
 2064SOL    HW2 7092   0.584   1.112   6.342  0.1601 -0.5566 -1.7535
 2065SOL     OW 7093   6.589   1.983   2.510  0.3809 -0.1796 -0.3974
 2065SOL    HW1 7094   6.571   2.036   2.427 -0.9672 -1.0993 -0.7281
 2065SOL    HW2 7095   6.618   1.891   2.485 -0.0519 -0.4716  0.1420
 2066SOL     OW 7096   2.347   1.315   4.757  0.2700  0.4919  0.5428
 2066SOL    HW1 7097   2.353   1.241   4.825  0.6535  0.1821  0.1819
 2066SOL    HW2 7098   2.387   1.398   4.795 -0.8055  0.7148  1.2126
 2067SOL     OW 7099   5.584   0.570   6.620 -0.4779  0.5865  0.0459
 2067SOL    HW1 7100   5.498   0.608   6.588 -1.4796 -0.4456  1.3975
 2067SOL    HW2 7101   5.603   0.484   6.572 -0.1951  0.8063 -0.2425
 2068SOL     OW 7102   1.940   0.642   5.506  0.2225 -0.1837 -0.2144
 2068SOL    HW1 7103   1.996   0.720   5.478  0.6617 -1.0416 -1.8875
 2068SOL    HW2 7104   1.877   0.619   5.432 -1.7737  0.2093  1.2928
 2069SOL     OW 7105   3.222   3.968   0.626 -0.5081 -0.2007 -0.0874
 2069SOL    HW1 7106   3.216   3.869   0.633  0.0387 -0.1987  0.5950
 2069SOL    HW2 7107   3.258   4.005   0.712 -1.4554  0.6596 -0.0303
 2070SOL     OW 7108   3.992   0.287   3.553  0.0328 -0.7649 -0.0302
 2070SOL    HW1 7109   3.936   0.229   3.495  0.5677 -2.3335  0.9575
 2070SOL    HW2 7110   4.087   0.286   3.521  0.3342 -1.6499  0.8195
 2071SOL     OW 7111   1.433   6.817   3.535 -0.3161 -0.4016  0.5391
 2071SOL    HW1 7112   1.441   6.764   3.620 -0.6955  1.1135  1.5539
 2071SOL    HW2 7113   1.337   6.841   3.520  0.0216  1.2679  0.9152
 2072SOL     OW 7114   5.842   4.408   1.336 -0.3597 -0.6069 -0.0590
 2072SOL    HW1 7115   5.882   4.317   1.339 -0.2765 -0.5935 -0.6951
 2072SOL    HW2 7116   5.901   4.472   1.385 -1.0274 -1.1100  1.4533
 2073SOL     OW 7117   4.427   6.165   5.778 -0.1000  0.1870 -0.0213
 2073SOL    HW1 7118   4.470   6.129   5.696 -0.3168  0.0416 -0.0723
 2073SOL    HW2 7119   4.334   6.129   5.786 -0.2736  0.6280 -0.0006
 2074SOL     OW 7120   6.335   1.160   0.623  0.3580 -0.0831 -0.0397
 2074SOL    HW1 7121   6.273   1.236   0.603  0.7774  0.2728  0.0030
 2074SOL    HW2 7122   6.287   1.073   0.608  0.3848  0.1608 -1.7742
 2075SOL     OW 7123   2.637   3.647   6.946 -0.1271 -0.3018 -0.6654
 2075SOL    HW1 7124   2.681   3.647   6.857  0.8950 -0.3028 -0.1825
 2075SOL    HW2 7125   2.585   3.562   6.958  1.6145 -1.3904 -0.3899
 2076SOL     OW 7126   6.592   4.902   0.158  0.9795 -0.3645 -0.1397
 2076SOL    HW1 7127   6.503   4.934   0.124  0.9263 -1.9107 -1.5701
 2076SOL    HW2 7128   6.665   4.954   0.114  0.8145 -0.2609 -0.2952
 2077SOL     OW 7129   6.039   2.546   2.273  0.8042  0.4707 -0.7344
 2077SOL    HW1 7130   5.984   2.514   2.351 -0.6596  0.2028 -1.8346
 2077SOL    HW2 7131   6.060   2.643   2.285  0.1102  0.5716 -0.2724
 2078SOL     OW 7132   0.944   4.181   0.796 -0.3401 -0.0240 -0.4198
 2078SOL    HW1 7133   0.952   4.188   0.696 -0.6028  1.7057 -0.3462
 2078SOL    HW2 7134   1.034   4.189   0.837 -0.3492  0.3599 -0.4718
 2079SOL     OW 7135   6.979   2.660   2.857  0.1175  0.6609 -0.2221
 2079SOL    HW1 7136   7.042   2.712   2.915 -1.5251  1.3798  0.9924
 2079SOL    HW2 7137   6.898   2.715   2.838 -0.4169 -0.4435 -1.2756
 2080SOL     OW 7138   2.725   1.721   5.327  0.2856 -0.1312  0.7920
 2080SOL    HW1 7139   2.817   1.681   5.333  0.0341 -0.7221  0.7928
 2080SOL    HW2 7140   2.697   1.755   5.416 -0.2253 -1.6184  1.2254
 2081SOL     OW 7141   0.213   1.068   5.725 -0.3909  0.2115 -0.0025
 2081SOL    HW1 7142   0.169   0.999   5.783  1.8192 -2.0653 -0.8507
 2081SOL    HW2 7143   0.298   1.031   5.688  1.4283  3.7590  0.2040
 2082SOL     OW 7144   4.460   0.411   0.767  0.5879 -0.5361 -0.4360
 2082SOL    HW1 7145   4.503   0.452   0.847  1.5985 -0.9104 -0.7765
 2082SOL    HW2 7146   4.483   0.465   0.686  0.3754 -0.7105 -0.6139
 2083SOL     OW 7147   3.923   5.045   5.723  0.3903 -0.3381 -0.2658
 2083SOL    HW1 7148   4.017   5.080   5.728  0.2811  0.1257 -1.2415
 2083SOL    HW2 7149   3.914   4.985   5.644 -0.4038  0.5006 -0.8393
 2084SOL     OW 7150   0.254   1.267   2.281 -0.3855  0.1606 -0.1226
 2084SOL    HW1 7151   0.227   1.248   2.376 -0.0587 -2.7852 -0.5410
 2084SOL    HW2 7152   0.353   1.280   2.276 -0.5732  1.9844  0.1136
 2085SOL     OW 7153   2.926   2.179   0.134  0.3764 -0.2106  0.5070
 2085SOL    HW1 7154   2.909   2.170   0.233  1.6486  0.6007  0.8313
 2085SOL    HW2 7155   2.909   2.274   0.107  1.2287 -0.1424  0.2044
 2086SOL     OW 7156   3.893   3.403   6.810 -0.2307  0.8037  0.4442
 2086SOL    HW1 7157   3.893   3.414   6.909  0.7443 -0.5018  0.6056
 2086SOL    HW2 7158   3.954   3.328   6.784 -0.1753  1.3656 -1.1722
 2087SOL     OW 7159   4.658   1.278   4.340 -0.0883 -1.1400 -1.0550
 2087SOL    HW1 7160   4.685   1.192   4.297  2.6979 -0.5362 -0.7421
 2087SOL    HW2 7161   4.693   1.282   4.433 -0.1982  0.2968 -1.0425
 2088SOL     OW 7162   2.829   0.226   2.143  0.4247 -0.0572 -0.7424
 2088SOL    HW1 7163   2.857   0.299   2.081  1.0105 -0.4535 -0.9603
 2088SOL    HW2 7164   2.770   0.162   2.094  0.8919 -0.3733 -0.9027
 2089SOL     OW 7165   5.117   0.856   6.510 -0.2869 -0.0067 -0.3755
 2089SOL    HW1 7166   5.023   0.860   6.545 -0.0185  0.9410  0.2605
 2089SOL    HW2 7167   5.181   0.842   6.585  0.2266  1.2051 -0.5691
 2090SOL     OW 7168   3.669   3.295   4.655  0.6906 -0.3331 -0.6251
 2090SOL    HW1 7169   3.722   3.285   4.571  0.9223  0.3231 -0.5647
 2090SOL    HW2 7170   3.626   3.386   4.656  0.9367 -0.2176  0.1030
 2091SOL     OW 7171   0.792   6.485   0.212 -0.2008  0.0237 -0.8327
 2091SOL    HW1 7172   0.783   6.570   0.160 -0.4498  0.0644 -0.7250
 2091SOL    HW2 7173   0.714   6.476   0.274 -1.0249 -1.0597 -1.9739
 2092SOL     OW 7174   5.508   6.998   5.948  0.5176 -0.3840 -0.5068
 2092SOL    HW1 7175   5.600   6.961   5.934  0.4445 -0.7783  0.0092
 2092SOL    HW2 7176   5.473   6.967   6.036  0.9506  1.9559  0.5757
 2093SOL     OW 7177   1.199   2.506   3.392 -0.0568 -0.1942 -0.3800
 2093SOL    HW1 7178   1.245   2.493   3.304 -1.0841 -1.2714 -0.7778
 2093SOL    HW2 7179   1.229   2.593   3.432  1.2532 -0.2121 -1.2664
 2094SOL     OW 7180   5.895   6.430   1.542  0.2270 -0.4722  0.1697
 2094SOL    HW1 7181   5.985   6.466   1.520 -0.4657  1.4043  0.1923
 2094SOL    HW2 7182   5.888   6.335   1.512  1.9352 -0.4158 -0.4988
 2095SOL     OW 7183   5.294   6.074   3.160 -0.6658  0.0115 -0.2697
 2095SOL    HW1 7184   5.374   6.015   3.151  0.0762  0.8553  0.5782
 2095SOL    HW2 7185   5.264   6.075   3.256  0.4438  2.3616  0.1327
 2096SOL     OW 7186   5.123   4.303   2.996  0.0387  0.0068 -0.5366
 2096SOL    HW1 7187   5.070   4.309   2.912 -0.7630 -0.2255 -0.0581
 2096SOL    HW2 7188   5.063   4.276   3.072  0.6488  0.6513  0.2009
 2097SOL     OW 7189   0.472   2.610   6.446 -0.7664  0.5083 -0.5031
 2097SOL    HW1 7190   0.427   2.641   6.530  0.1101 -0.5668  0.4110
 2097SOL    HW2 7191   0.561   2.654   6.438 -0.5829  0.1448 -0.5172
 2098SOL     OW 7192   3.687   5.423   3.330 -0.2574  0.1012 -0.4828
 2098SOL    HW1 7193   3.678   5.363   3.251  1.4078 -0.0781 -0.5596
 2098SOL    HW2 7194   3.752   5.384   3.395 -2.0680 -0.0783  1.3208
 2099SOL     OW 7195   3.303   2.208   6.580 -0.1836  0.4467  0.6466
 2099SOL    HW1 7196   3.256   2.294   6.557  0.8816  0.5192 -1.4713
 2099SOL    HW2 7197   3.279   2.138   6.513  0.5681 -0.3144  1.1511
 2100SOL     OW 7198   4.993   4.421   0.403  0.4202  0.7389  0.2743
 2100SOL    HW1 7199   5.081   4.383   0.433  1.0091 -0.9849 -3.1623
 2100SOL    HW2 7200   4.919   4.379   0.456  1.5072  0.0598  1.3050
 2101SOL     OW 7201   6.768   0.120   2.629  0.0479 -0.4317 -0.2777
 2101SOL    HW1 7202   6.673   0.142   2.653 -0.0667 -2.1549  1.0661
 2101SOL    HW2 7203   6.782   0.136   2.531 -1.6769 -0.2596 -0.5318
 2102SOL     OW 7204   6.569   4.688   3.845  0.3750  0.3344  0.2880
 2102SOL    HW1 7205   6.470   4.688   3.828  0.3073 -1.2934  0.5001
 2102SOL    HW2 7206   6.586   4.708   3.941  0.2026 -0.0857  0.4082
 2103SOL     OW 7207   2.247   2.057   6.045 -0.3210  0.2992 -0.3336
 2103SOL    HW1 7208   2.208   2.110   5.970 -1.1003  0.9763  0.5228
 2103SOL    HW2 7209   2.344   2.078   6.054 -0.5559  1.3894 -0.1937
 2104SOL     OW 7210   1.830   4.995   6.187  0.0011 -0.2913 -0.9880
 2104SOL    HW1 7211   1.731   4.996   6.197  0.1606  1.7924  1.5808
 2104SOL    HW2 7212   1.859   5.070   6.127  0.0773  0.0532 -0.5265
 2105SOL     OW 7213   4.989   6.102   2.493  0.4031 -0.3190 -0.4324
 2105SOL    HW1 7214   4.963   6.196   2.474  0.5834 -0.0473  0.5923
 2105SOL    HW2 7215   4.907   6.045   2.500  0.2765 -0.1678 -0.6870
 2106SOL     OW 7216   5.193   6.016   5.529  0.0908 -0.0242  0.7666
 2106SOL    HW1 7217   5.196   5.954   5.451 -0.6215  0.8268  0.0360
 2106SOL    HW2 7218   5.119   6.082   5.516  0.5192  0.6795  1.7493
 2107SOL     OW 7219   4.050   4.610   5.684 -0.3268  0.0542  0.2937
 2107SOL    HW1 7220   3.980   4.539   5.676 -0.8992  0.6418  0.0478
 2107SOL    HW2 7221   4.121   4.579   5.747 -0.1515 -1.0695 -0.4324
 2108SOL     OW 7222   6.777   3.572   6.658 -0.1482  0.1105  0.2048
 2108SOL    HW1 7223   6.717   3.610   6.588 -1.7089 -0.9386  0.8994
 2108SOL    HW2 7224   6.767   3.472   6.660  2.4191 -0.2438 -0.3150
 2109SOL     OW 7225   6.438   6.041   2.593 -0.0427 -0.6624  0.1769
 2109SOL    HW1 7226   6.357   6.062   2.648  0.3266 -2.0588  1.3411
 2109SOL    HW2 7227   6.520   6.057   2.648  0.5659  1.6494 -1.3068
 2110SOL     OW 7228   2.129   3.192   4.340 -0.1847  0.1493  0.1515
 2110SOL    HW1 7229   2.117   3.093   4.338  0.3965  0.0664  0.4620
 2110SOL    HW2 7230   2.148   3.221   4.434 -1.1184  0.6542  0.1959
 2111SOL     OW 7231   6.709   5.814   5.910  0.0050  0.4550 -0.3045
 2111SOL    HW1 7232   6.612   5.797   5.924 -0.3285  0.4271 -2.4243
 2111SOL    HW2 7233   6.723   5.866   5.826  1.7037  2.2366  0.9676
 2112SOL     OW 7234   4.724   2.226   2.091 -0.0753 -0.2102  0.0357
 2112SOL    HW1 7235   4.712   2.298   2.159 -1.9044  1.0740 -1.5341
 2112SOL    HW2 7236   4.635   2.189   2.066  0.7166 -1.9853 -0.3181
 2113SOL     OW 7237   1.001   0.702   2.956 -0.4154  0.0513 -0.2841
 2113SOL    HW1 7238   1.014   0.798   2.982 -0.1007  0.3401 -1.4496
 2113SOL    HW2 7239   1.049   0.643   3.021 -0.3207  0.6868  0.2440
 2114SOL     OW 7240   2.162   6.012   0.819  0.3475  0.5293 -0.0375
 2114SOL    HW1 7241   2.213   6.096   0.832 -0.8674  1.5042 -1.2205
 2114SOL    HW2 7242   2.221   5.933   0.836  1.2977  1.6017  1.8042
 2115SOL     OW 7243   3.843   4.959   4.424 -0.0364 -0.4634  0.5342
 2115SOL    HW1 7244   3.747   4.932   4.431 -0.0948 -0.4116 -0.0042
 2115SOL    HW2 7245   3.902   4.885   4.455 -0.2513 -0.4873  0.8862
 2116SOL     OW 7246   6.007   3.937   3.209 -0.3962 -0.6828 -0.1809
 2116SOL    HW1 7247   5.942   3.967   3.279 -1.0930 -0.1098 -1.0515
 2116SOL    HW2 7248   5.989   3.842   3.185  0.1915 -1.0522  0.7845
 2117SOL     OW 7249   0.460   0.430   1.872  0.5540  0.1964  0.2144
 2117SOL    HW1 7250   0.405   0.358   1.830 -0.2025  0.9383 -0.0924
 2117SOL    HW2 7251   0.449   0.515   1.821  1.2090  0.6062  0.7373
 2118SOL     OW 7252   6.505   3.282   4.245  0.4141  0.1096 -0.0018
 2118SOL    HW1 7253   6.532   3.291   4.149  0.1333 -0.2117 -0.1098
 2118SOL    HW2 7254   6.428   3.343   4.264 -0.2150 -0.6088 -0.2438
 2119SOL     OW 7255   1.395   4.733   0.583 -0.3236 -0.2182  0.5311
 2119SOL    HW1 7256   1.339   4.661   0.624 -0.2408  0.7327  2.4449
 2119SOL    HW2 7257   1.372   4.821   0.625  1.3271  0.4785  0.0486
 2120SOL     OW 7258   0.545   4.793   1.330  0.1274  0.0455 -0.4276
 2120SOL    HW1 7259   0.550   4.817   1.233  0.0446 -0.2801 -0.5161
 2120SOL    HW2 7260   0.614   4.724   1.351 -2.1025 -2.6031 -1.1002
 2121SOL     OW 7261   0.449   4.879   0.162  0.2592  0.5459  0.2630
 2121SOL    HW1 7262   0.476   4.973   0.180 -1.2675  1.2752 -0.9858
 2121SOL    HW2 7263   0.407   4.840   0.245 -1.3626  1.8317  0.0871
 2122SOL     OW 7264   5.113   4.313   5.278 -0.2326 -0.2872 -0.3799
 2122SOL    HW1 7265   5.093   4.272   5.367 -1.3240 -0.3697 -0.6526
 2122SOL    HW2 7266   5.200   4.362   5.283 -0.6412  0.3475  0.9493
 2123SOL     OW 7267   6.497   6.407   2.318  0.4518 -0.0290  0.2032
 2123SOL    HW1 7268   6.459   6.498   2.305  0.8327  0.4924  2.4469
 2123SOL    HW2 7269   6.455   6.344   2.252 -1.2687  1.3510 -0.0909
 2124SOL     OW 7270   2.288   0.908   0.944 -0.1878  0.3202  0.1087
 2124SOL    HW1 7271   2.191   0.931   0.931 -0.4795 -1.8481 -2.2341
 2124SOL    HW2 7272   2.339   0.932   0.861  0.9372 -0.3102  0.6008
 2125SOL     OW 7273   0.953   0.105   1.363 -0.1144  0.7463 -0.1337
 2125SOL    HW1 7274   0.870   0.151   1.394 -1.0457 -0.8798 -0.0495
 2125SOL    HW2 7275   1.029   0.169   1.361 -0.4967  1.4726  3.3949
 2126SOL     OW 7276   5.204   1.349   6.742  0.1786  0.2423  0.3201
 2126SOL    HW1 7277   5.187   1.358   6.644 -0.0075 -0.5824  0.2683
 2126SOL    HW2 7278   5.297   1.381   6.763 -0.5051  2.4679  0.2322
 2127SOL     OW 7279   6.358   1.423   4.543 -0.0635 -0.5628  0.1500
 2127SOL    HW1 7280   6.411   1.507   4.534 -2.5748  0.9795 -1.3299
 2127SOL    HW2 7281   6.421   1.345   4.546  2.4068  1.3133  2.5053
 2128SOL     OW 7282   5.898   2.789   4.941 -0.5171  0.4610 -0.0197
 2128SOL    HW1 7283   5.831   2.806   4.868 -2.1087  1.0130  1.5041
 2128SOL    HW2 7284   5.914   2.691   4.950 -0.0658  0.3973 -1.2842
 2129SOL     OW 7285   4.913   3.898   5.458 -0.6215 -0.3588  0.4066
 2129SOL    HW1 7286   4.965   3.921   5.375  0.4892 -1.4224  0.7918
 2129SOL    HW2 7287   4.837   3.838   5.433 -1.0269  0.2968  0.0056
 2130SOL     OW 7288   5.825   6.322   3.129 -0.1967 -0.8991  0.1972
 2130SOL    HW1 7289   5.734   6.360   3.113 -1.1184 -3.6870 -2.0084
 2130SOL    HW2 7290   5.817   6.237   3.182  1.4261 -0.0691  1.9246
 2131SOL     OW 7291   0.842   1.119   2.372  0.4499 -0.3764 -0.2858
 2131SOL    HW1 7292   0.910   1.046   2.379 -2.1842 -2.8795  3.4318
 2131SOL    HW2 7293   0.878   1.203   2.414  2.1995 -0.6871 -1.0797
 2132SOL     OW 7294   3.304   3.050   1.301 -0.3302 -1.0476  0.1462
 2132SOL    HW1 7295   3.349   3.127   1.255 -0.5439 -0.9368  0.1236
 2132SOL    HW2 7296   3.208   3.073   1.319  0.1253 -0.4902  2.0372
 2133SOL     OW 7297   3.646   4.445   5.474  0.2024 -0.1707 -0.3811
 2133SOL    HW1 7298   3.574   4.388   5.514 -0.6262  0.2944 -1.1690
 2133SOL    HW2 7299   3.695   4.393   5.404 -1.1280  0.3124 -1.7232
 2134SOL     OW 7300   5.845   1.713   1.139 -0.2638  0.4406  0.0517
 2134SOL    HW1 7301   5.796   1.736   1.223 -0.5709  1.8479 -0.4836
 2134SOL    HW2 7302   5.943   1.719   1.154 -0.2203 -1.4847  0.8774
 2135SOL     OW 7303   6.215   5.782   3.470  0.1283 -0.2770 -0.1382
 2135SOL    HW1 7304   6.137   5.818   3.522  0.7245 -0.6984  1.0863
 2135SOL    HW2 7305   6.280   5.740   3.533  2.5375  2.1536 -0.8127
 2136SOL     OW 7306   3.504   6.319   6.616  0.9490  0.1140 -0.7044
 2136SOL    HW1 7307   3.604   6.310   6.611  0.9531  0.2617 -0.9125
 2136SOL    HW2 7308   3.465   6.308   6.525  0.6774 -0.9775 -0.4606
 2137SOL     OW 7309   2.538   5.835   5.381  0.1740 -0.3619  0.0687
 2137SOL    HW1 7310   2.495   5.753   5.419 -0.2357 -0.3124 -0.2906
 2137SOL    HW2 7311   2.579   5.814   5.293  0.8168 -0.3859  0.3637
 2138SOL     OW 7312   5.265   6.879   1.933  0.6062 -0.2346  0.2099
 2138SOL    HW1 7313   5.182   6.888   1.988 -0.7397  0.2121 -1.7919
 2138SOL    HW2 7314   5.329   6.951   1.958  0.5897 -0.8317  2.0711
 2139SOL     OW 7315   3.438   0.463   5.924  0.3901  0.5247 -0.2311
 2139SOL    HW1 7316   3.394   0.551   5.907  1.1418  1.1113  0.7680
 2139SOL    HW2 7317   3.373   0.401   5.968  0.2050  0.9962  0.1701
 2140SOL     OW 7318   4.308   0.374   5.690  0.0459 -0.1127 -0.2332
 2140SOL    HW1 7319   4.228   0.361   5.630  0.6636  0.0665 -1.1166
 2140SOL    HW2 7320   4.277   0.402   5.781 -1.0829 -2.6989  0.2786
 2141SOL     OW 7321   1.186   3.564   3.569  0.0024  0.3559 -0.1782
 2141SOL    HW1 7322   1.221   3.617   3.646 -1.7570 -0.0229  0.9307
 2141SOL    HW2 7323   1.137   3.625   3.506  0.5659  0.5009 -0.4844
 2142SOL     OW 7324   0.942   4.464   3.241 -0.1019  0.0356 -0.4173
 2142SOL    HW1 7325   1.016   4.405   3.274 -0.4000  0.0430  0.2802
 2142SOL    HW2 7326   0.939   4.547   3.295 -1.6982 -0.7116  0.7128
 2143SOL     OW 7327   2.285   0.201   1.768 -0.4725  0.4563 -0.1112
 2143SOL    HW1 7328   2.203   0.159   1.806 -0.5980 -0.9398 -1.8026
 2143SOL    HW2 7329   2.260   0.266   1.696 -0.1163  0.3411 -0.3429
 2144SOL     OW 7330   0.207   5.713   5.716  0.3942 -0.0923  0.0899
 2144SOL    HW1 7331   0.266   5.634   5.703  0.8685 -0.2212  2.5251
 2144SOL    HW2 7332   0.114   5.682   5.736  0.8324 -0.1709  2.2862
 2145SOL     OW 7333   3.737   5.844   3.612  0.0519 -0.0573  0.1215
 2145SOL    HW1 7334   3.816   5.785   3.593  1.0809  0.5944  2.0383
 2145SOL    HW2 7335   3.654   5.788   3.617  0.8776 -1.2448  1.0530
 2146SOL     OW 7336   1.279   2.134   0.200  0.2820  0.2178 -0.3380
 2146SOL    HW1 7337   1.226   2.080   0.264 -1.8980 -2.1705 -3.7933
 2146SOL    HW2 7338   1.227   2.216   0.175 -0.6115 -0.7197 -1.6709
 2147SOL     OW 7339   4.883   3.019   5.701 -0.4790 -0.2404  0.5703
 2147SOL    HW1 7340   4.948   3.066   5.762  0.3568 -0.7137  0.0670
 2147SOL    HW2 7341   4.804   3.078   5.684  0.1135  0.6048  0.6957
 2148SOL     OW 7342   5.376   2.529   6.522 -0.0351 -0.2721 -0.1855
 2148SOL    HW1 7343   5.455   2.469   6.537 -0.0610  0.0637  1.4813
 2148SOL    HW2 7344   5.405   2.624   6.527 -0.2386 -0.1305 -1.4314
 2149SOL     OW 7345   6.553   0.999   0.969  0.1168  0.8823  0.2647
 2149SOL    HW1 7346   6.455   1.004   0.948  0.5874 -0.3888 -2.7081
 2149SOL    HW2 7347   6.576   0.905   0.995  0.3423  1.5137  2.5443
 2150SOL     OW 7348   3.847   2.938   2.089  0.6755 -0.2737  0.0302
 2150SOL    HW1 7349   3.837   2.877   2.167 -0.9847  1.4986  1.3017
 2150SOL    HW2 7350   3.874   3.029   2.121 -1.5632  0.9258 -1.2392
 2151SOL     OW 7351   0.380   6.530   6.096  0.5770 -0.2800 -0.0219
 2151SOL    HW1 7352   0.383   6.536   5.996  0.6606  1.8585  0.0641
 2151SOL    HW2 7353   0.462   6.481   6.128  0.2892 -1.4548 -0.9951
 2152SOL     OW 7354   4.109   5.033   1.838 -0.0691  0.6413  0.0592
 2152SOL    HW1 7355   4.093   4.998   1.930  0.8441 -0.9566 -0.3586
 2152SOL    HW2 7356   4.086   4.964   1.770  0.9547  1.1399 -0.8393
 2153SOL     OW 7357   4.914   6.859   3.909 -0.6160 -0.4787 -0.2107
 2153SOL    HW1 7358   4.888   6.798   3.835 -0.8456 -0.8615  0.1767
 2153SOL    HW2 7359   4.850   6.935   3.915 -0.4788 -0.3395 -0.5339
 2154SOL     OW 7360   3.388   5.884   3.877  0.3238 -0.1577  0.4602
 2154SOL    HW1 7361   3.465   5.836   3.919 -0.6088 -0.3381  2.0688
 2154SOL    HW2 7362   3.325   5.819   3.836  0.6618 -0.0579 -0.2325
 2155SOL     OW 7363   2.546   0.513   1.680 -0.2220  0.8318 -0.4653
 2155SOL    HW1 7364   2.506   0.572   1.751  0.1604  1.2414 -0.5817
 2155SOL    HW2 7365   2.541   0.560   1.592  0.6094  0.9391 -0.4652
 2156SOL     OW 7366   6.264   2.738   2.952 -0.3736  0.4491 -0.6438
 2156SOL    HW1 7367   6.198   2.707   2.884 -1.0881  2.0793 -0.7532
 2156SOL    HW2 7368   6.215   2.772   3.033  0.4583 -1.8957  0.9541
 2157SOL     OW 7369   3.967   5.444   2.312 -0.0635  0.2861 -0.4104
 2157SOL    HW1 7370   4.046   5.459   2.370 -0.0404 -0.6113 -0.1920
 2157SOL    HW2 7371   3.995   5.449   2.216 -0.0510  1.5036 -0.3494
 2158SOL     OW 7372   4.533   0.920   0.142  0.2885 -0.6391 -0.0803
 2158SOL    HW1 7373   4.540   0.908   0.043 -3.8459  1.2011 -0.7979
 2158SOL    HW2 7374   4.511   0.833   0.185 -3.6836 -0.6401 -1.7178
 2159SOL     OW 7375   0.947   1.063   5.785  0.3687  0.3382  0.0279
 2159SOL    HW1 7376   0.918   1.146   5.738  2.0276  1.0664  0.2087
 2159SOL    HW2 7377   0.967   1.085   5.881  2.0305  0.0619 -0.2140
 2160SOL     OW 7378   4.616   6.115   2.387  0.3553 -0.4603  0.0188
 2160SOL    HW1 7379   4.703   6.088   2.428  0.1520 -0.7307  0.2709
 2160SOL    HW2 7380   4.623   6.108   2.287  0.9621  0.5410 -0.0241
 2161SOL     OW 7381   1.404   2.370   3.165  0.0979  0.1654  0.4913
 2161SOL    HW1 7382   1.496   2.338   3.142  0.3956  1.1412  0.2666
 2161SOL    HW2 7383   1.405   2.470   3.172 -1.1130  0.2488 -0.2674
 2162SOL     OW 7384   3.480   0.924   4.616  0.4180  0.4695  0.3431
 2162SOL    HW1 7385   3.424   0.902   4.696  0.4993 -0.0585  0.2540
 2162SOL    HW2 7386   3.501   1.022   4.616 -0.7252  0.7237  0.2363
 2163SOL     OW 7387   1.033   2.817   1.557  0.0690  0.1247  0.0410
 2163SOL    HW1 7388   0.992   2.907   1.571  0.0218 -0.0090  0.7999
 2163SOL    HW2 7389   0.995   2.776   1.474 -0.1489  0.6670 -0.1337
 2164SOL     OW 7390   0.519   1.877   6.821 -0.0050  0.0172  1.0817
 2164SOL    HW1 7391   0.486   1.801   6.876  0.9149 -1.1398  0.0749
 2164SOL    HW2 7392   0.594   1.847   6.763 -1.4542  0.9378 -1.4356
 2165SOL     OW 7393   1.655   1.933   2.856 -0.0357 -0.1543 -0.4991
 2165SOL    HW1 7394   1.658   2.020   2.808  0.9150 -0.7591 -1.5705
 2165SOL    HW2 7395   1.741   1.884   2.843  0.2229 -0.3973  1.7559
 2166SOL     OW 7396   1.794   4.100   3.048 -0.2640  0.4051  0.4399
 2166SOL    HW1 7397   1.870   4.120   3.110  0.0356  1.0989 -0.1398
 2166SOL    HW2 7398   1.791   4.001   3.030  0.4935  0.3711  0.4789
 2167SOL     OW 7399   1.919   2.371   2.242 -0.4619 -0.1785 -0.4574
 2167SOL    HW1 7400   1.840   2.433   2.243 -0.7788 -0.5664  0.6972
 2167SOL    HW2 7401   1.915   2.313   2.161 -0.4335  0.9559 -1.2891
 2168SOL     OW 7402   1.675   2.101   3.193 -0.3406  0.0225 -0.4066
 2168SOL    HW1 7403   1.757   2.061   3.152  0.2719  0.2140  0.5785
 2168SOL    HW2 7404   1.595   2.046   3.168  0.0865 -0.1839 -1.3563
 2169SOL     OW 7405   6.653   0.037   6.495 -0.6145  0.6163  0.3291
 2169SOL    HW1 7406   6.585   0.095   6.451 -0.5307  1.1030  0.8286
 2169SOL    HW2 7407   6.682  -0.035   6.431 -1.0393  0.8588 -0.1442
 2170SOL     OW 7408   0.249   3.969   5.727  0.6494  0.6882 -0.1878
 2170SOL    HW1 7409   0.265   3.870   5.735  0.7444  0.6392 -0.9163
 2170SOL    HW2 7410   0.289   4.002   5.642 -1.5108  0.8822 -1.1977
 2171SOL     OW 7411   1.112   6.033   2.428 -0.2012  1.0156  0.3319
 2171SOL    HW1 7412   1.053   6.109   2.401 -1.4029  1.0502  2.7767
 2171SOL    HW2 7413   1.173   6.062   2.501  0.7642  0.1581 -0.1138
 2172SOL     OW 7414   5.797   1.423   4.220 -0.4150 -0.2715  0.2439
 2172SOL    HW1 7415   5.829   1.454   4.309  0.7806 -0.8152  0.0272
 2172SOL    HW2 7416   5.706   1.460   4.202  0.4693  2.1840  0.4468
 2173SOL     OW 7417   5.358   6.660   5.161 -0.4519 -0.6159 -0.5500
 2173SOL    HW1 7418   5.413   6.577   5.152 -1.4398 -1.2463 -0.9978
 2173SOL    HW2 7419   5.293   6.665   5.085 -1.1126  0.0205  0.0384
 2174SOL     OW 7420   6.625   5.402   6.784 -0.4511 -0.3919 -0.5014
 2174SOL    HW1 7421   6.604   5.469   6.856  0.4992 -1.9741  1.3480
 2174SOL    HW2 7422   6.671   5.447   6.708 -0.3691  1.1471  0.4321
 2175SOL     OW 7423   1.417   3.589   4.827  0.5283  0.3096 -0.4148
 2175SOL    HW1 7424   1.480   3.552   4.759  1.2486  1.3371 -0.3322
 2175SOL    HW2 7425   1.444   3.559   4.918  0.8217  0.6485 -0.3909
 2176SOL     OW 7426   6.055   1.582   6.805 -0.0087 -0.2881  0.3148
 2176SOL    HW1 7427   6.021   1.497   6.765  1.5524  0.2113 -2.3083
 2176SOL    HW2 7428   6.095   1.563   6.895  0.2733 -2.3306 -0.1854
 2177SOL     OW 7429   0.821   0.945   1.659  0.1809  0.2112 -0.6190
 2177SOL    HW1 7430   0.786   1.038   1.642 -2.1416  0.0249  2.3993
 2177SOL    HW2 7431   0.775   0.881   1.597 -0.6354  0.6778 -0.5083
 2178SOL     OW 7432   0.916   1.837   1.719 -0.1381 -0.9479  0.5051
 2178SOL    HW1 7433   0.984   1.769   1.744 -1.1658 -2.1642  0.1182
 2178SOL    HW2 7434   0.852   1.851   1.794  0.4138  0.0628  0.8059
 2179SOL     OW 7435   1.738   5.477   0.272 -0.8497 -0.3603  0.3393
 2179SOL    HW1 7436   1.696   5.508   0.357 -1.2567  0.2292 -0.0690
 2179SOL    HW2 7437   1.672   5.422   0.221  0.0043 -2.3520  1.2670
 2180SOL     OW 7438   2.593   5.859   2.665 -0.4789 -0.1044  0.6254
 2180SOL    HW1 7439   2.573   5.933   2.729  0.4017  0.5578  0.1581
 2180SOL    HW2 7440   2.540   5.871   2.582 -0.5049 -0.1189  0.6401
 2181SOL     OW 7441   5.309   4.574   4.713 -0.0091 -0.2261  0.3936
 2181SOL    HW1 7442   5.338   4.602   4.805  0.6912  0.4549 -0.0171
 2181SOL    HW2 7443   5.215   4.603   4.697  0.1200  0.3336  0.6287
 2182SOL     OW 7444   6.736   5.952   4.164  0.0482 -0.0270  0.3311
 2182SOL    HW1 7445   6.821   5.963   4.215 -0.1728  0.4117  0.6113
 2182SOL    HW2 7446   6.683   6.037   4.168 -1.0161 -0.7170  1.2894
 2183SOL     OW 7447   2.659   3.446   6.313  0.0361  0.3942  0.2047
 2183SOL    HW1 7448   2.620   3.538   6.312 -0.2771  0.2729 -1.3447
 2183SOL    HW2 7449   2.597   3.383   6.266 -0.3555 -0.8934  2.3308
 2184SOL     OW 7450   0.080   0.967   1.956  0.3342  0.3742 -0.4161
 2184SOL    HW1 7451   0.018   0.915   1.897 -0.0383 -0.5191  0.7256
 2184SOL    HW2 7452   0.158   0.910   1.981  0.2656  0.5936  0.3122
 2185SOL     OW 7453   0.996   0.117   0.557 -0.0157 -0.2681  0.4167
 2185SOL    HW1 7454   0.959   0.207   0.536  0.0337 -0.6583 -1.5322
 2185SOL    HW2 7455   1.085   0.127   0.601 -0.0634  0.6349  0.3275
 2186SOL     OW 7456   6.660   4.173   1.674  0.3892 -0.6013  0.1732
 2186SOL    HW1 7457   6.680   4.142   1.581  3.1456 -3.3457  1.4805
 2186SOL    HW2 7458   6.717   4.252   1.695  1.1307 -1.0935  0.0644
 2187SOL     OW 7459   0.588   5.507   4.187  0.2502  0.2554  0.1744
 2187SOL    HW1 7460   0.550   5.533   4.098  1.6345  0.1220 -0.4717
 2187SOL    HW2 7461   0.687   5.499   4.180  0.2765 -0.8024  1.4774
 2188SOL     OW 7462   1.169   6.405   0.324 -0.1278  0.0863  0.5038
 2188SOL    HW1 7463   1.265   6.410   0.349 -0.1234 -0.6096  0.6524
 2188SOL    HW2 7464   1.124   6.334   0.379 -1.4911  2.5524  2.8400
 2189SOL     OW 7465   1.164   1.325   0.776  0.0901 -0.3159 -0.1984
 2189SOL    HW1 7466   1.164   1.228   0.751  1.1651  0.0890 -1.9686
 2189SOL    HW2 7467   1.236   1.343   0.843 -0.2819 -0.7769  0.3309
 2190SOL     OW 7468   6.416   1.924   1.461 -0.1122  0.2905  0.0775
 2190SOL    HW1 7469   6.433   2.013   1.504  0.5368  1.5089 -2.5380
 2190SOL    HW2 7470   6.377   1.937   1.370 -2.3476 -2.2142  0.5695
 2191SOL     OW 7471   1.213   0.654   6.031  0.1561  0.0857  0.0909
 2191SOL    HW1 7472   1.238   0.558   6.047  1.7669  0.4648 -0.0401
 2191SOL    HW2 7473   1.114   0.664   6.042 -0.3937 -2.0177 -1.8927
 2192SOL     OW 7474   4.817   1.230   1.288 -0.4247  0.5468 -0.1896
 2192SOL    HW1 7475   4.856   1.317   1.260 -1.3863  1.1631  0.3584
 2192SOL    HW2 7476   4.830   1.217   1.386  1.3793 -0.8113 -0.5358
 2193SOL     OW 7477   4.522   6.859   0.246 -0.2068 -0.1806  0.3525
 2193SOL    HW1 7478   4.516   6.955   0.273  0.3703 -0.9810  3.8170
 2193SOL    HW2 7479   4.603   6.817   0.288 -0.5658 -2.2394 -0.8690
 2194SOL     OW 7480   6.789   4.467   3.859 -0.0492 -0.2082 -0.3247
 2194SOL    HW1 7481   6.696   4.483   3.892  0.8109 -0.6043  2.6169
 2194SOL    HW2 7482   6.812   4.536   3.790 -1.1058  2.7554  2.0456
 2195SOL     OW 7483   0.613   5.590   5.890 -0.4313  0.6638 -0.2309
 2195SOL    HW1 7484   0.578   5.639   5.810 -0.8535  0.6259 -0.0685
 2195SOL    HW2 7485   0.573   5.499   5.894 -0.1163  0.5249 -0.1860
 2196SOL     OW 7486   1.406   0.383   5.307  0.5756  0.3596  0.0460
 2196SOL    HW1 7487   1.361   0.372   5.218  0.3680 -3.5331  0.4606
 2196SOL    HW2 7488   1.504   0.398   5.292  0.2606  1.9627 -0.7614
 2197SOL     OW 7489   2.324   2.587   6.239 -0.1896 -0.1731  0.3815
 2197SOL    HW1 7490   2.335   2.493   6.271 -1.8309 -0.7534 -0.6453
 2197SOL    HW2 7491   2.285   2.642   6.312 -1.7727 -0.9612  0.1896
 2198SOL     OW 7492   6.599   6.676   6.539  0.4441 -0.2328 -0.2732
 2198SOL    HW1 7493   6.639   6.704   6.627 -2.0276  1.1378  0.5005
 2198SOL    HW2 7494   6.622   6.744   6.469 -1.3706  1.2275  0.4515
 2199SOL     OW 7495   4.991   6.768   4.165 -0.9926  0.2972  0.2308
 2199SOL    HW1 7496   4.983   6.793   4.069  0.4777 -0.2070 -0.0295
 2199SOL    HW2 7497   4.912   6.805   4.215 -2.8083 -1.1138 -1.4774
 2200SOL     OW 7498   4.760   1.174   5.383  0.0887 -0.2620 -0.2467
 2200SOL    HW1 7499   4.768   1.175   5.482 -2.2253  0.7914 -0.0029
 2200SOL    HW2 7500   4.686   1.111   5.356  0.1373  0.0912 -1.2437
 2201SOL     OW 7501   6.879   1.714   4.068  0.2402  0.1226  0.3498
 2201SOL    HW1 7502   6.927   1.765   4.139 -0.3977 -0.0917  0.9426
 2201SOL    HW2 7503   6.813   1.652   4.110  0.5651 -0.7414 -0.3946
 2202SOL     OW 7504   3.104   5.195   1.193 -0.2375 -0.3986 -0.3229
 2202SOL    HW1 7505   3.021   5.246   1.172 -0.7509  0.1847  2.6779
 2202SOL    HW2 7506   3.081   5.099   1.211 -0.0742 -0.5124 -0.7230
 2203SOL     OW 7507   2.480   4.791   1.296 -0.1261  0.0964  0.2110
 2203SOL    HW1 7508   2.507   4.782   1.200 -1.1082  1.9123 -0.2757
 2203SOL    HW2 7509   2.554   4.833   1.348  0.7629 -1.7072  0.4899
 2204SOL     OW 7510   4.714   0.902   2.287 -0.0397  0.0694 -0.3633
 2204SOL    HW1 7511   4.614   0.900   2.278  0.1482 -0.1528 -3.2764
 2204SOL    HW2 7512   4.738   0.921   2.382 -2.8375  0.0114  0.4507
 2205SOL     OW 7513   1.546   6.868   6.804 -0.3242  0.1803 -0.1165
 2205SOL    HW1 7514   1.469   6.910   6.756 -0.7027  1.0433  1.1910
 2205SOL    HW2 7515   1.555   6.773   6.776 -0.7762  0.5445 -1.5736
 2206SOL     OW 7516   3.998   3.749   5.288 -0.3480  0.0940 -0.3241
 2206SOL    HW1 7517   3.939   3.669   5.300  1.3308 -1.1054  0.2175
 2206SOL    HW2 7518   4.077   3.725   5.233 -1.0265  2.0597 -2.2917
 2207SOL     OW 7519   3.582   4.464   0.799  0.5698  0.1752  0.2678
 2207SOL    HW1 7520   3.560   4.531   0.871  2.5414  1.6647 -0.4154
 2207SOL    HW2 7521   3.662   4.496   0.748 -0.0676 -1.4199 -1.8563
 2208SOL     OW 7522   1.263   5.278   3.893 -0.3301  0.3146  0.2526
 2208SOL    HW1 7523   1.319   5.325   3.825  1.1906 -0.5219  0.8734
 2208SOL    HW2 7524   1.290   5.307   3.985 -0.0297 -0.9927  0.6063
 2209SOL     OW 7525   2.662   4.902   3.647  0.2955 -0.6089  0.0584
 2209SOL    HW1 7526   2.720   4.982   3.653 -0.3633 -0.2264  1.9272
 2209SOL    HW2 7527   2.587   4.920   3.583  0.1393  0.2795  0.4831
 2210SOL     OW 7528   6.779   5.783   2.357 -0.2643  0.0871  0.4127
 2210SOL    HW1 7529   6.764   5.864   2.412  0.5487  0.5415 -0.0201
 2210SOL    HW2 7530   6.707   5.716   2.376  0.8077 -0.4033  3.1581
 2211SOL     OW 7531   5.978   0.633   1.380 -0.1196 -0.1906 -0.1654
 2211SOL    HW1 7532   5.913   0.600   1.448  1.8722 -0.6752  1.5950
 2211SOL    HW2 7533   5.935   0.703   1.323 -2.3756 -1.0451  0.4026
 2212SOL     OW 7534   1.737   0.605   6.662  0.2191 -0.0311  0.3345
 2212SOL    HW1 7535   1.708   0.663   6.586  0.1951  0.6507  0.8519
 2212SOL    HW2 7536   1.759   0.514   6.628  1.0733  0.5117 -0.6219
 2213SOL     OW 7537   3.940   1.523   3.741  0.2950  0.2345 -0.4186
 2213SOL    HW1 7538   3.942   1.585   3.662 -0.9971  0.1280 -0.5604
 2213SOL    HW2 7539   3.924   1.429   3.709 -0.3460  0.2062 -0.0401
 2214SOL     OW 7540   2.659   2.811   6.511  0.3082  0.3078 -0.1953
 2214SOL    HW1 7541   2.609   2.858   6.584 -1.9723 -0.0416 -1.4174
 2214SOL    HW2 7542   2.626   2.843   6.422  2.1081 -0.1951 -1.0954
 2215SOL     OW 7543   5.369   1.322   5.514  0.4554 -0.5228  0.7238
 2215SOL    HW1 7544   5.379   1.405   5.570  0.9813 -0.5469  0.6706
 2215SOL    HW2 7545   5.459   1.292   5.483  0.1558 -0.4064 -0.2953
 2216SOL     OW 7546   5.398   0.027   6.874  0.3652  0.3173  0.0346
 2216SOL    HW1 7547   5.358  -0.038   6.940 -1.2945  1.8415  0.6105
 2216SOL    HW2 7548   5.455   0.093   6.923  1.0196  0.0789 -0.3893
 2217SOL     OW 7549   3.872   1.254   3.606  0.3880  0.4644 -0.6818
 2217SOL    HW1 7550   3.936   1.281   3.535  0.0930 -0.4327 -1.3044
 2217SOL    HW2 7551   3.883   1.157   3.627 -3.7282 -1.0410 -4.0853
 2218SOL     OW 7552   1.452   6.473   5.959 -0.0131 -0.2072 -0.1173
 2218SOL    HW1 7553   1.440   6.530   5.878  0.4685  1.1892  0.7689
 2218SOL    HW2 7554   1.452   6.376   5.932 -1.2985  0.1686 -1.5884
 2219SOL     OW 7555   6.551   1.700   0.499  0.2750  0.7735  0.7640
 2219SOL    HW1 7556   6.637   1.748   0.515  0.3795  0.3801  1.4418
 2219SOL    HW2 7557   6.478   1.767   0.483  0.5638  1.1281  0.9105
 2220SOL     OW 7558   0.094   6.347   4.454 -0.4105 -0.3171 -0.3542
 2220SOL    HW1 7559   0.149   6.375   4.375  0.0318 -1.0608 -0.3229
 2220SOL    HW2 7560   0.144   6.277   4.506 -0.0226  1.2374  1.4620
 2221SOL     OW 7561   5.203   1.892   4.597  0.2771 -0.4906  0.0305
 2221SOL    HW1 7562   5.201   1.936   4.687  1.4609 -0.8411  0.2543
 2221SOL    HW2 7563   5.293   1.851   4.583  0.3377  0.1242 -1.5850
 2222SOL     OW 7564   5.724   5.501   0.639  0.8767  0.5254  0.2880
 2222SOL    HW1 7565   5.775   5.415   0.640 -1.1791 -0.7566  0.2141
 2222SOL    HW2 7566   5.664   5.505   0.718  0.0051  1.3087 -0.3951
 2223SOL     OW 7567   6.761   1.029   0.324 -0.0056 -0.7028 -0.3599
 2223SOL    HW1 7568   6.734   1.105   0.266 -1.4798 -1.5007 -0.7645
 2223SOL    HW2 7569   6.861   1.020   0.323  0.3861  2.2345  1.0439
 2224SOL     OW 7570   0.382   3.717   0.929  0.2902  0.7016  0.2917
 2224SOL    HW1 7571   0.380   3.629   0.976 -0.5649  0.2692 -0.5370
 2224SOL    HW2 7572   0.378   3.703   0.830 -3.6564  1.7031  0.1584
 2225SOL     OW 7573   2.922   0.033   4.822 -0.1668  0.2650 -0.2586
 2225SOL    HW1 7574   2.856  -0.042   4.832 -1.3535  1.0561 -1.7643
 2225SOL    HW2 7575   2.957   0.034   4.728  0.9230  0.7383  0.1434
 2226SOL     OW 7576   3.057   6.162   0.524 -0.7036  0.0067  0.5459
 2226SOL    HW1 7577   3.027   6.239   0.580 -0.0162 -0.7756  2.0640
 2226SOL    HW2 7578   2.990   6.088   0.531 -1.1365  0.2827 -0.5413
 2227SOL     OW 7579   6.073   4.078   1.183 -0.2302  0.0523 -0.2140
 2227SOL    HW1 7580   6.129   4.136   1.123 -1.2377  1.9241  0.5710
 2227SOL    HW2 7581   6.133   4.021   1.239  0.9783  2.0968  0.7091
 2228SOL     OW 7582   4.532   5.466   0.084  0.0198 -0.0255  0.0301
 2228SOL    HW1 7583   4.436   5.445   0.065 -0.3297  1.0106  0.5324
 2228SOL    HW2 7584   4.557   5.550   0.036 -0.2656  1.4592  2.2929
 2229SOL     OW 7585   3.947   3.964   3.810  0.6515 -0.1651  0.3237
 2229SOL    HW1 7586   3.945   3.998   3.904  0.4943 -1.5240  0.8355
 2229SOL    HW2 7587   3.971   3.867   3.811  0.3206 -0.2733 -1.0240
 2230SOL     OW 7588   5.152   6.617   7.020 -0.1611 -0.2552  0.5270
 2230SOL    HW1 7589   5.192   6.533   7.057  0.9129  0.3819  0.8271
 2230SOL    HW2 7590   5.080   6.649   7.081  0.4391 -0.1484  1.1823
 2231SOL     OW 7591   6.869   3.010   5.095 -0.3176  0.0485 -0.5874
 2231SOL    HW1 7592   6.928   2.933   5.072 -1.0549 -0.9858  0.8612
 2231SOL    HW2 7593   6.784   3.004   5.041 -0.0859  0.2615 -0.9857
 2232SOL     OW 7594   1.414   0.503   5.558 -0.0680  0.3688  0.2399
 2232SOL    HW1 7595   1.508   0.526   5.582 -0.1670  0.7163  0.2939
 2232SOL    HW2 7596   1.412   0.456   5.470  0.1670  0.2602  0.2928
 2233SOL     OW 7597   3.355   4.330   1.356 -0.5593 -0.0031  0.0105
 2233SOL    HW1 7598   3.393   4.397   1.420  2.6744 -0.2952 -1.3918
 2233SOL    HW2 7599   3.388   4.239   1.379  1.1776 -0.0428 -2.2706
 2234SOL     OW 7600   4.088   0.107   1.552 -0.0378  0.4561 -0.0127
 2234SOL    HW1 7601   4.162   0.122   1.487 -0.4680  0.5179 -0.4945
 2234SOL    HW2 7602   4.021   0.043   1.513  0.8520 -1.3514  1.2930
 2235SOL     OW 7603   3.629   0.487   1.820  0.4008 -0.7574  0.2232
 2235SOL    HW1 7604   3.553   0.551   1.828 -0.5417 -2.0107  2.0818
 2235SOL    HW2 7605   3.689   0.515   1.745 -0.0832  2.1308  0.7948
 2236SOL     OW 7606   2.469   4.410   6.218 -0.0107 -0.4954 -0.1922
 2236SOL    HW1 7607   2.476   4.453   6.128 -2.5344 -0.2428 -0.3524
 2236SOL    HW2 7608   2.469   4.311   6.207 -0.3056 -0.4656 -0.4849
 2237SOL     OW 7609   5.859   3.235   3.092  0.4150 -0.2429  0.8339
 2237SOL    HW1 7610   5.844   3.330   3.063 -2.2034 -0.4976  1.0943
 2237SOL    HW2 7611   5.900   3.183   3.018  0.9117  0.8470  0.3216
 2238SOL     OW 7612   4.579   5.967   4.671 -0.6183  0.2313  0.5650
 2238SOL    HW1 7613   4.585   5.990   4.768 -0.9505  1.5325  0.3027
 2238SOL    HW2 7614   4.600   5.870   4.658  1.0945  0.4074  1.7299
 2239SOL     OW 7615   3.837   4.106   4.995 -0.0769 -0.0926 -0.1648
 2239SOL    HW1 7616   3.919   4.163   5.002  0.6355 -1.0930 -0.0821
 2239SOL    HW2 7617   3.814   4.094   4.898 -1.6552  2.2587 -0.1546
 2240SOL     OW 7618   3.646   6.877   1.029  0.1831 -0.1790  0.8989
 2240SOL    HW1 7619   3.655   6.908   0.934 -3.3460 -2.5542 -0.4126
 2240SOL    HW2 7620   3.560   6.912   1.067  0.2066 -1.4832  2.2308
 2241SOL     OW 7621   6.777   6.645   0.956 -0.2684  0.0985 -0.6688
 2241SOL    HW1 7622   6.686   6.634   0.918 -0.7061  0.7946  0.1232
 2241SOL    HW2 7623   6.844   6.653   0.882 -1.1835  2.2303 -1.3576
 2242SOL     OW 7624   5.018   4.496   3.181 -0.1676 -0.2483 -0.1369
 2242SOL    HW1 7625   5.071   4.464   3.103  0.6816 -0.0908  0.3614
 2242SOL    HW2 7626   4.957   4.423   3.212  1.8506 -1.5196  1.0775
 2243SOL     OW 7627   3.147   4.521   6.492  0.0963 -0.0544  0.1937
 2243SOL    HW1 7628   3.139   4.507   6.590 -1.5803 -0.2490  0.0664
 2243SOL    HW2 7629   3.231   4.571   6.471  0.7308 -0.4751  1.6630
 2244SOL     OW 7630   4.049   6.284   0.308 -0.2812  0.3123  0.1116
 2244SOL    HW1 7631   4.001   6.313   0.390  2.3121  0.8696  1.5465
 2244SOL    HW2 7632   4.114   6.211   0.331  0.9093  0.8656 -1.3040
 2245SOL     OW 7633   1.396   1.159   1.497 -0.0116 -0.1081 -0.6726
 2245SOL    HW1 7634   1.328   1.100   1.541  1.5845 -0.7160  1.1697
 2245SOL    HW2 7635   1.416   1.237   1.557  2.3124 -1.0038 -0.1496
 2246SOL     OW 7636   2.882   0.590   6.334 -0.4549  0.3458 -0.1547
 2246SOL    HW1 7637   2.795   0.612   6.379 -0.8963  0.7755 -1.2041
 2246SOL    HW2 7638   2.938   0.672   6.328  0.6925 -0.2062  1.8479
 2247SOL     OW 7639   3.286   3.222   2.636  0.4230 -0.5467 -0.9944
 2247SOL    HW1 7640   3.209   3.161   2.656 -0.1460 -0.0306 -1.5612
 2247SOL    HW2 7641   3.275   3.260   2.544  0.5075  0.7785 -0.4717
 2248SOL     OW 7642   0.317   5.804   3.200 -0.2347 -0.0307  0.0121
 2248SOL    HW1 7643   0.349   5.899   3.202 -1.2910  0.3221  0.3582
 2248SOL    HW2 7644   0.218   5.802   3.191 -0.4530 -1.0471  2.0178
 2249SOL     OW 7645   3.811   6.951   3.198  0.0766  0.7952  0.1805
 2249SOL    HW1 7646   3.848   7.023   3.257 -0.8979  0.7370  0.8736
 2249SOL    HW2 7647   3.842   6.967   3.104  2.3848  0.3983  0.7938
 2250SOL     OW 7648   3.381   3.719   3.834  0.8696 -0.4475 -0.1488
 2250SOL    HW1 7649   3.348   3.680   3.919  0.5891  0.2263  0.0574
 2250SOL    HW2 7650   3.478   3.699   3.823  0.9556 -0.3562  0.4340
 2251SOL     OW 7651   4.054   6.374   3.859 -0.0938 -0.8580 -0.3071
 2251SOL    HW1 7652   4.093   6.418   3.940  1.1643 -1.8741 -0.3475
 2251SOL    HW2 7653   4.107   6.399   3.778 -1.1217 -0.1486 -0.7961
 2252SOL     OW 7654   5.723   2.978   2.825  0.0155 -0.6244 -0.7075
 2252SOL    HW1 7655   5.705   3.046   2.754  0.5311 -0.0557 -0.3022
 2252SOL    HW2 7656   5.676   3.005   2.909  1.6465  0.1901 -0.0222
 2253SOL     OW 7657   0.125   3.202   0.113 -0.4559 -0.4604  0.2038
 2253SOL    HW1 7658   0.221   3.221   0.131 -0.6450  0.1086  0.6495
 2253SOL    HW2 7659   0.072   3.214   0.197 -1.4141  2.6463 -0.6956
 2254SOL     OW 7660   3.696   3.482   3.126 -0.1817  0.0994 -0.0637
 2254SOL    HW1 7661   3.689   3.566   3.180  0.9548 -0.1832  0.5588
 2254SOL    HW2 7662   3.737   3.503   3.036 -1.5393  0.4770 -0.6094
 2255SOL     OW 7663   2.917   3.703   0.458  0.1072  0.1719 -0.4688
 2255SOL    HW1 7664   3.010   3.682   0.426 -0.1266 -0.6659 -0.6235
 2255SOL    HW2 7665   2.903   3.662   0.548 -0.1732  0.1447 -0.5256
 2256SOL     OW 7666   4.688   5.502   1.036  0.8282  0.0763 -0.1712
 2256SOL    HW1 7667   4.653   5.414   1.071 -0.6836  0.8619  0.3925
 2256SOL    HW2 7668   4.664   5.575   1.100 -2.1498  1.6216 -2.7442
 2257SOL     OW 7669   6.967   1.099   3.514  0.3705  0.6933  0.0554
 2257SOL    HW1 7670   6.897   1.030   3.493 -1.6530  2.0473  1.8412
 2257SOL    HW2 7671   7.054   1.053   3.534 -0.6736 -1.2955  0.3154
 2258SOL     OW 7672   1.920   6.492   4.731 -0.6179 -0.0819 -0.1381
 2258SOL    HW1 7673   1.937   6.503   4.829 -0.2491  1.6766 -0.3634
 2258SOL    HW2 7674   1.825   6.515   4.711 -0.2741  1.2069 -0.3891
 2259SOL     OW 7675   6.037   2.193   5.843 -0.0980  0.2058 -0.0422
 2259SOL    HW1 7676   6.005   2.170   5.935  0.7491  0.8192  0.4218
 2259SOL    HW2 7677   5.962   2.182   5.778 -0.4897 -1.0517  0.5809
 2260SOL     OW 7678   1.902   4.180   0.596  0.5832  0.0289 -0.3130
 2260SOL    HW1 7679   1.809   4.193   0.630  1.3846  0.6773  1.7372
 2260SOL    HW2 7680   1.936   4.090   0.624  0.7382 -0.0283 -0.6769
 2261SOL     OW 7681   0.720   3.980   0.768 -0.1056  0.4384  0.4765
 2261SOL    HW1 7682   0.735   3.935   0.680  1.8488 -2.8695  2.3161
 2261SOL    HW2 7683   0.785   4.056   0.777 -0.0881  0.5946 -0.7600
 2262SOL     OW 7684   0.048   6.488   2.696  0.7040  0.2792  0.3787
 2262SOL    HW1 7685  -0.049   6.464   2.694  0.6878  0.3912 -0.2595
 2262SOL    HW2 7686   0.101   6.419   2.647  0.8670  0.5570  0.1583
 2263SOL     OW 7687   0.725   4.488   6.198  0.3572  0.4599  0.0348
 2263SOL    HW1 7688   0.700   4.574   6.154  1.3836  0.7581  0.0059
 2263SOL    HW2 7689   0.645   4.428   6.202 -0.7918  1.9877  1.4373
 2264SOL     OW 7690   0.325   0.455   6.189 -0.1013  0.0324 -0.5149
 2264SOL    HW1 7691   0.301   0.548   6.163  1.9657  0.4998 -0.9077
 2264SOL    HW2 7692   0.340   0.400   6.107 -2.4760 -1.0422 -0.3195
 2265SOL     OW 7693   1.300   1.295   4.261  0.1640 -0.5938  0.2387
 2265SOL    HW1 7694   1.277   1.259   4.352 -0.4289 -0.3560  0.1871
 2265SOL    HW2 7695   1.301   1.395   4.264 -1.3963 -0.5305 -0.3627
 2266SOL     OW 7696   3.321   1.213   5.090  0.1707 -0.5591 -0.0503
 2266SOL    HW1 7697   3.266   1.273   5.149  0.2564 -1.5390  1.0665
 2266SOL    HW2 7698   3.397   1.265   5.052  0.1518  0.0929  0.7700
 2267SOL     OW 7699   5.123   2.405   3.234 -0.7235 -0.0971 -0.1288
 2267SOL    HW1 7700   5.176   2.347   3.171  0.0691 -0.0125  0.4406
 2267SOL    HW2 7701   5.186   2.453   3.295 -1.4839 -0.3640  0.8985
 2268SOL     OW 7702   6.246   2.093   6.629  0.1323 -0.1618 -0.7341
 2268SOL    HW1 7703   6.181   2.122   6.558 -1.0656 -0.0911  0.3465
 2268SOL    HW2 7704   6.202   2.028   6.690  0.8776  0.3565  0.3974
 2269SOL     OW 7705   0.279   3.636   4.269  0.6301 -0.1053  0.4940
 2269SOL    HW1 7706   0.206   3.703   4.257  1.4005  0.6295 -0.1658
 2269SOL    HW2 7707   0.278   3.602   4.363 -3.0764 -3.0881 -0.3636
 2270SOL     OW 7708   3.979   4.514   5.310  0.2524  0.5649 -0.3841
 2270SOL    HW1 7709   4.066   4.470   5.287  0.0567  0.8775 -1.8227
 2270SOL    HW2 7710   3.907   4.445   5.315 -0.0132  0.6283 -2.4148
 2271SOL     OW 7711   0.356   3.481   0.717  0.5893  0.1118  0.0740
 2271SOL    HW1 7712   0.408   3.424   0.781 -1.0887 -1.1868  0.3621
 2271SOL    HW2 7713   0.334   3.427   0.636  0.0141  0.7398 -0.1925
 2272SOL     OW 7714   0.694   2.555   1.177 -0.9599 -0.0169  0.5696
 2272SOL    HW1 7715   0.631   2.504   1.119  0.6566 -0.7859 -0.5611
 2272SOL    HW2 7716   0.727   2.635   1.128 -1.0655  0.4061  1.1739
 2273SOL     OW 7717   2.205   2.176   3.233  0.5223  0.5597  0.0260
 2273SOL    HW1 7718   2.267   2.254   3.238  1.5509 -0.2760  1.1303
 2273SOL    HW2 7719   2.111   2.207   3.248  0.9561  1.5379  0.8909
 2274SOL     OW 7720   6.784   1.201   6.611  0.1570  0.4684  0.5345
 2274SOL    HW1 7721   6.738   1.252   6.539  0.5635  1.0605  0.6864
 2274SOL    HW2 7722   6.848   1.136   6.571 -1.1079 -0.6968  0.3011
 2275SOL     OW 7723   6.395   5.692   1.769  0.5904  0.4939  0.5325
 2275SOL    HW1 7724   6.461   5.766   1.782  0.9094  0.6752 -1.6691
 2275SOL    HW2 7725   6.352   5.670   1.856  0.1709  3.5761  1.2289
 2276SOL     OW 7726   1.508   5.858   2.400 -0.3749  0.3346 -0.0734
 2276SOL    HW1 7727   1.475   5.946   2.432  0.7072  0.0451  2.0020
 2276SOL    HW2 7728   1.607   5.863   2.384 -0.3451 -0.4272 -0.1747
 2277SOL     OW 7729   2.938   3.582   4.662 -0.6089  0.0612 -0.1684
 2277SOL    HW1 7730   2.964   3.652   4.595 -2.9007  0.0606 -1.1581
 2277SOL    HW2 7731   2.990   3.499   4.645  0.0878  0.6256 -0.8433
 2278SOL     OW 7732   0.201   2.323   4.437 -0.1037  0.3840  0.2444
 2278SOL    HW1 7733   0.202   2.223   4.439  0.7756  0.3985  1.9670
 2278SOL    HW2 7734   0.253   2.354   4.358 -0.2897 -0.5072 -0.2474
 2279SOL     OW 7735   0.061   6.825   6.976 -0.1166  0.4525 -0.3789
 2279SOL    HW1 7736   0.002   6.882   7.033 -0.9154 -0.0679 -0.6712
 2279SOL    HW2 7737   0.023   6.819   6.884  0.2753 -0.0789 -0.5151
 2280SOL     OW 7738   5.415   0.910   2.047 -0.4352  0.4097 -0.1023
 2280SOL    HW1 7739   5.368   0.983   2.097 -2.6066 -1.4888  0.7929
 2280SOL    HW2 7740   5.420   0.934   1.950 -3.0826  0.8868 -0.2125
 2281SOL     OW 7741   4.276   0.251   1.387  0.1242  0.4187 -0.5450
 2281SOL    HW1 7742   4.256   0.349   1.387 -0.9787  0.2272  1.0441
 2281SOL    HW2 7743   4.258   0.214   1.296 -1.0006  1.4068 -0.7540
 2282SOL     OW 7744   4.190   5.810   5.973 -0.0622 -0.4488 -0.0139
 2282SOL    HW1 7745   4.118   5.834   6.038  0.9815  0.8562  0.7057
 2282SOL    HW2 7746   4.179   5.714   5.945 -1.3379 -0.6316  1.0171
 2283SOL     OW 7747   1.617   0.928   6.953 -0.3297 -0.6632 -0.1904
 2283SOL    HW1 7748   1.589   1.024   6.958 -1.2626 -0.9548  0.3328
 2283SOL    HW2 7749   1.591   0.881   7.037  0.6137 -1.2553 -0.2174
 2284SOL     OW 7750   1.606   3.857   5.656 -0.4166 -0.1622 -0.5851
 2284SOL    HW1 7751   1.612   3.768   5.610 -0.7590 -0.9877  0.9053
 2284SOL    HW2 7752   1.662   3.856   5.738 -1.2629  0.6127  0.0242
 2285SOL     OW 7753   0.357   3.803   6.910 -0.1172  0.4575 -0.0335
 2285SOL    HW1 7754   0.350   3.883   6.970  0.3712  1.1305 -0.8538
 2285SOL    HW2 7755   0.312   3.725   6.954 -1.0556  1.3024  0.5482
 2286SOL     OW 7756   4.749   6.598   3.508  0.1837 -0.2456  0.3585
 2286SOL    HW1 7757   4.775   6.547   3.426  2.3409  0.4871  0.5228
 2286SOL    HW2 7758   4.726   6.534   3.581 -1.6697 -0.9083 -0.7214
 2287SOL     OW 7759   2.433   5.734   1.776 -0.2642 -0.2533 -0.3605
 2287SOL    HW1 7760   2.399   5.662   1.836  1.6804 -0.9819 -0.0803
 2287SOL    HW2 7761   2.462   5.695   1.689  1.6671 -0.0204  0.1249
 2288SOL     OW 7762   0.782   3.823   4.066  0.2606  0.2032  0.7369
 2288SOL    HW1 7763   0.720   3.758   4.021  0.7733 -0.3722  0.8431
 2288SOL    HW2 7764   0.750   3.840   4.159 -0.6583  1.1961  0.2525
 2289SOL     OW 7765   6.761   4.080   0.779  1.0042 -0.1928 -0.2614
 2289SOL    HW1 7766   6.695   4.101   0.851  0.2543 -0.2704 -0.9142
 2289SOL    HW2 7767   6.729   4.117   0.692  1.0156 -1.6128 -0.8989
 2290SOL     OW 7768   1.117   5.127   3.039 -0.6853  0.2325 -0.0683
 2290SOL    HW1 7769   1.047   5.128   3.111  0.1878 -0.5138  0.8280
 2290SOL    HW2 7770   1.127   5.219   3.000 -0.0095  1.0780  1.9585
 2291SOL     OW 7771   1.566   1.162   4.890  0.4500 -0.6057  0.3812
 2291SOL    HW1 7772   1.647   1.110   4.917  1.2573  0.2336 -0.3686
 2291SOL    HW2 7773   1.590   1.258   4.879 -0.3191 -0.5566 -1.1880
 2292SOL     OW 7774   1.354   1.158   4.728  0.2055 -0.3635 -0.3378
 2292SOL    HW1 7775   1.442   1.148   4.775  0.6772 -0.5395 -1.2296
 2292SOL    HW2 7776   1.316   1.248   4.747  0.6239 -0.2515 -0.0066
 2293SOL     OW 7777   5.110   4.891   1.913  0.1979  0.7010  0.3227
 2293SOL    HW1 7778   5.153   4.952   1.980 -0.4914  1.7992 -0.2102
 2293SOL    HW2 7779   5.012   4.885   1.931  0.5951 -2.6828  2.2325
 2294SOL     OW 7780   2.821   6.621   6.764  0.3351 -0.0759  0.9469
 2294SOL    HW1 7781   2.918   6.646   6.757  0.1481  0.8195  1.3485
 2294SOL    HW2 7782   2.806   6.570   6.849  0.2710  0.7515  1.4428
 2295SOL     OW 7783   6.954   0.600   4.406  0.6415  0.4034  0.1246
 2295SOL    HW1 7784   6.901   0.516   4.389 -0.4770  0.3387  3.3419
 2295SOL    HW2 7785   7.052   0.577   4.409  0.3403 -0.8380  1.1208
 2296SOL     OW 7786   3.749   5.760   1.530  0.0612 -0.0503 -0.1062
 2296SOL    HW1 7787   3.788   5.735   1.442 -0.1563  2.0205 -0.8440
 2296SOL    HW2 7788   3.822   5.768   1.598  0.6772  1.4098 -0.8892
 2297SOL     OW 7789   2.321   5.070   5.295 -0.0782 -0.1903  0.3978
 2297SOL    HW1 7790   2.368   5.158   5.291 -0.8663  0.2083 -0.6226
 2297SOL    HW2 7791   2.308   5.043   5.391 -1.3327  1.6362  0.7868
 2298SOL     OW 7792   2.892   2.158   1.847  0.3675 -0.1663  0.2834
 2298SOL    HW1 7793   2.895   2.245   1.897 -0.1202  0.8903 -1.4382
 2298SOL    HW2 7794   2.822   2.099   1.887  0.1560  0.5481  0.9943
 2299SOL     OW 7795   3.979   0.158   0.630  0.0160  0.2393  0.3523
 2299SOL    HW1 7796   3.956   0.070   0.589  1.6718 -0.8685  1.6300
 2299SOL    HW2 7797   3.901   0.220   0.624 -0.2150 -0.1936 -3.3522
 2300SOL     OW 7798   1.730   5.205   1.772  0.2021  1.2463 -0.4649
 2300SOL    HW1 7799   1.753   5.168   1.862  0.6711 -0.2205 -1.1553
 2300SOL    HW2 7800   1.660   5.148   1.729 -0.9935  2.6968 -0.5161
 2301SOL     OW 7801   4.127   3.685   3.211 -0.0117  0.0806 -0.5104
 2301SOL    HW1 7802   4.188   3.764   3.220  0.1254 -0.2609  2.3289
 2301SOL    HW2 7803   4.032   3.716   3.214  0.0135  0.2565 -1.1838
 2302SOL     OW 7804   4.512   6.327   2.567 -0.1580 -0.8926 -0.1485
 2302SOL    HW1 7805   4.445   6.267   2.610 -1.2082 -1.0258 -1.8485
 2302SOL    HW2 7806   4.558   6.279   2.492 -0.1332  0.0235 -0.7488
 2303SOL     OW 7807   1.612   3.906   6.552  0.1560 -0.3072  0.3748
 2303SOL    HW1 7808   1.560   3.979   6.507  0.2892  0.6720  1.7744
 2303SOL    HW2 7809   1.623   3.927   6.649  0.5452 -2.0058  0.7296
 2304SOL     OW 7810   3.131   6.267   2.395  0.5681 -0.2927 -0.4700
 2304SOL    HW1 7811   3.094   6.179   2.426 -1.5554  0.6511 -0.1382
 2304SOL    HW2 7812   3.183   6.254   2.311 -0.6181 -1.7283 -1.0161
 2305SOL     OW 7813   3.666   5.210   4.250  0.0776 -0.1044  0.3497
 2305SOL    HW1 7814   3.638   5.166   4.335  1.2767 -0.8889  0.3664
 2305SOL    HW2 7815   3.714   5.295   4.271 -0.1075 -0.0234  0.4398
 2306SOL     OW 7816   1.127   0.358   2.163  0.0879 -0.3151  0.1543
 2306SOL    HW1 7817   1.054   0.409   2.119 -0.0239 -0.4854  0.1395
 2306SOL    HW2 7818   1.093   0.318   2.248  0.3482  0.1531  0.4870
 2307SOL     OW 7819   1.655   3.083   4.050 -0.3716 -0.2981 -0.4772
 2307SOL    HW1 7820   1.722   3.018   4.014 -0.5806 -0.3356 -0.8027
 2307SOL    HW2 7821   1.669   3.172   4.007  2.2240  0.8947  2.4883
 2308SOL     OW 7822   1.312   0.072   5.624 -0.1118  0.1532  0.2452
 2308SOL    HW1 7823   1.259   0.109   5.548 -0.0103 -0.7628 -0.2779
 2308SOL    HW2 7824   1.356  -0.013   5.596  0.2380  0.0054  1.2128
 2309SOL     OW 7825   2.928   5.742   6.652  0.3625  0.6922  0.2908
 2309SOL    HW1 7826   2.995   5.733   6.579 -0.6656  0.7376 -0.6860
 2309SOL    HW2 7827   2.973   5.727   6.740  1.2999 -1.1075 -0.4380
 2310SOL     OW 7828   0.425   6.943   2.100 -0.5639 -0.3605  0.3547
 2310SOL    HW1 7829   0.482   7.024   2.107 -2.1391  0.7299  1.5414
 2310SOL    HW2 7830   0.384   6.924   2.190 -0.9326 -1.9226 -0.1201
 2311SOL     OW 7831   1.722   1.240   1.588 -0.1528  0.1414 -0.6742
 2311SOL    HW1 7832   1.754   1.310   1.652 -0.3677  0.3056 -0.7462
 2311SOL    HW2 7833   1.622   1.237   1.590 -0.1647  0.2486 -1.1091
 2312SOL     OW 7834   4.837   6.610   2.884 -0.5287 -0.0223  0.2193
 2312SOL    HW1 7835   4.801   6.549   2.814 -2.5932  0.8093  0.4732
 2312SOL    HW2 7836   4.770   6.618   2.959 -0.0369  1.9817  0.5118
 2313SOL     OW 7837   6.053   4.119   3.000  0.9676 -0.1458 -0.4190
 2313SOL    HW1 7838   6.044   4.058   3.079  0.1739  0.2550 -0.1870
 2313SOL    HW2 7839   6.017   4.209   3.024  2.7814  0.6648 -0.5016
 2314SOL     OW 7840   5.342   1.477   1.727  0.4501  0.3487  0.2922
 2314SOL    HW1 7841   5.376   1.454   1.818  0.5885 -0.3060  0.0831
 2314SOL    HW2 7842   5.249   1.442   1.716 -0.5586  2.6046  1.0555
 2315SOL     OW 7843   4.940   5.135   5.476 -0.1446  0.7357 -0.2072
 2315SOL    HW1 7844   4.946   5.080   5.392 -1.3623  0.6388 -0.2484
 2315SOL    HW2 7845   4.844   5.158   5.493  0.1668  1.2852  0.8243
 2316SOL     OW 7846   2.611   1.812   5.095 -0.6179  0.1315  0.1798
 2316SOL    HW1 7847   2.645   1.774   5.181  1.1864  0.4330 -0.3428
 2316SOL    HW2 7848   2.644   1.906   5.086 -2.4254  0.7906  0.0257
 2317SOL     OW 7849   5.615   6.759   3.277 -0.0006 -0.0119  0.5609
 2317SOL    HW1 7850   5.575   6.803   3.357  0.5202  0.7537  0.4054
 2317SOL    HW2 7851   5.710   6.786   3.267 -0.2839  0.6018 -0.7948
 2318SOL     OW 7852   1.786   4.585   4.178  0.2299 -0.1786 -0.1904
 2318SOL    HW1 7853   1.812   4.552   4.087  1.7853  2.4508 -0.8073
 2318SOL    HW2 7854   1.850   4.547   4.245  0.9529  0.1868 -0.6475
 2319SOL     OW 7855   1.711   4.248   5.495  0.5503  0.3524  0.5657
 2319SOL    HW1 7856   1.720   4.168   5.435  2.8126  0.6883  0.3755
 2319SOL    HW2 7857   1.687   4.328   5.440  0.5436  0.2463  0.4140
 2320SOL     OW 7858   2.355   1.540   6.709 -0.5816  0.3344  0.3398
 2320SOL    HW1 7859   2.260   1.510   6.714 -0.2284 -0.9922 -0.4357
 2320SOL    HW2 7860   2.359   1.635   6.680 -1.7233  0.9618  2.0766
 2321SOL     OW 7861   1.499   5.681   6.633  0.2141  0.0377 -0.0348
 2321SOL    HW1 7862   1.532   5.702   6.540  0.4752  0.9532  0.2565
 2321SOL    HW2 7863   1.496   5.765   6.687  0.5043 -0.5621  0.9343
 2322SOL     OW 7864   2.645   4.830   1.515  0.2053 -0.2116  0.0065
 2322SOL    HW1 7865   2.590   4.814   1.597  0.8356  0.3932  0.5604
 2322SOL    HW2 7866   2.703   4.749   1.498 -0.5828 -0.7038 -0.3738
 2323SOL     OW 7867   3.982   4.634   1.416  0.2363  0.2013 -0.1831
 2323SOL    HW1 7868   3.968   4.653   1.513  2.6038  1.1876  0.0495
 2323SOL    HW2 7869   4.080   4.625   1.399 -0.1229  0.2933 -2.5388
 2324SOL     OW 7870   5.188   0.390   0.839  0.7989  0.6811 -0.3494
 2324SOL    HW1 7871   5.264   0.326   0.831  0.4694  0.2675 -0.2129
 2324SOL    HW2 7872   5.213   0.478   0.797  1.0321  0.2702 -1.0881
 2325SOL     OW 7873   5.606   4.906   0.838 -0.7038 -0.1481 -0.2790
 2325SOL    HW1 7874   5.610   4.890   0.937 -2.0098 -0.1231 -0.2027
 2325SOL    HW2 7875   5.560   4.993   0.820  2.7097  1.7062 -0.8358
 2326SOL     OW 7876   0.224   5.961   5.024 -0.6930  0.5909  0.0623
 2326SOL    HW1 7877   0.219   5.886   5.090 -0.6104  1.5606  1.2121
 2326SOL    HW2 7878   0.243   5.924   4.933  0.0299 -0.7207  0.7121
 2327SOL     OW 7879   0.052   1.967   3.718 -0.3521 -0.1041 -0.2692
 2327SOL    HW1 7880   0.036   2.062   3.746  0.5919  0.0370 -0.1934
 2327SOL    HW2 7881   0.146   1.941   3.739 -1.0942 -1.6657  1.4742
 2328SOL     OW 7882   0.529   2.448   3.124 -0.2234  0.0916 -0.5583
 2328SOL    HW1 7883   0.611   2.414   3.077 -0.1520  1.0502 -1.1589
 2328SOL    HW2 7884   0.477   2.506   3.061 -0.0949  1.4518  0.5394
 2329SOL     OW 7885   6.607   3.827   5.992  0.9395 -0.1869 -0.1237
 2329SOL    HW1 7886   6.622   3.878   6.077  1.2699  0.3569 -0.5017
 2329SOL    HW2 7887   6.676   3.756   5.984 -0.6088 -1.9685  1.3209
 2330SOL     OW 7888   6.690   2.945   0.299 -0.1233  0.0639 -0.1990
 2330SOL    HW1 7889   6.590   2.950   0.307  0.0038  1.0246  1.1368
 2330SOL    HW2 7890   6.729   3.035   0.319  1.0417 -0.4119 -0.2775
 2331SOL     OW 7891   3.928   5.810   5.742  0.2820  0.2442  0.0482
 2331SOL    HW1 7892   3.834   5.780   5.761  1.5872 -3.6947  1.2310
 2331SOL    HW2 7893   3.974   5.831   5.828  1.2274 -0.4197 -0.2882
 2332SOL     OW 7894   6.257   0.583   5.618  0.2879 -0.0979  0.1682
 2332SOL    HW1 7895   6.182   0.572   5.683  0.2580  0.5108  0.2370
 2332SOL    HW2 7896   6.233   0.538   5.532 -1.8801  3.3739 -1.2059
 2333SOL     OW 7897   5.573   6.798   1.284 -0.2976 -0.1991  0.1255
 2333SOL    HW1 7898   5.594   6.752   1.371  0.1679 -1.2066 -0.5055
 2333SOL    HW2 7899   5.651   6.853   1.255  0.3324 -1.4636 -0.6490
 2334SOL     OW 7900   2.247   0.379   0.877  0.4895 -0.0674 -0.1216
 2334SOL    HW1 7901   2.223   0.415   0.787  0.0054 -0.1492 -0.0260
 2334SOL    HW2 7902   2.209   0.287   0.888 -2.2154  1.1198  1.3604
 2335SOL     OW 7903   6.131   0.042   1.570  0.2164 -0.3714 -0.4472
 2335SOL    HW1 7904   6.100   0.104   1.642  1.6765  0.8055 -0.7801
 2335SOL    HW2 7905   6.152  -0.047   1.608 -0.8550 -0.3511  0.2335
 2336SOL     OW 7906   4.025   1.045   4.492  0.4171  0.3388  0.4129
 2336SOL    HW1 7907   3.934   1.069   4.459 -0.1498  0.0445  1.6863
 2336SOL    HW2 7908   4.086   1.123   4.480  0.0999  0.4252 -0.7588
 2337SOL     OW 7909   4.375   2.190   2.033  0.0911 -0.4956  0.1699
 2337SOL    HW1 7910   4.355   2.244   1.950 -1.1909  0.0266  0.7929
 2337SOL    HW2 7911   4.398   2.097   2.007  1.5068  0.1032 -0.8864
 2338SOL     OW 7912   0.512   2.867   5.033  0.1612 -0.0790  0.1437
 2338SOL    HW1 7913   0.513   2.771   5.006  0.7993  0.3150 -1.3147
 2338SOL    HW2 7914   0.595   2.887   5.086 -0.1757 -0.4168  0.8094
 2339SOL     OW 7915   4.125   3.406   3.603 -0.3567  0.0950  0.0182
 2339SOL    HW1 7916   4.148   3.383   3.697  0.1325  0.4117 -0.0245
 2339SOL    HW2 7917   4.111   3.505   3.594 -1.7758 -0.0774  0.0515
 2340SOL     OW 7918   5.998   5.291   7.010 -0.0314 -0.0689 -0.2113
 2340SOL    HW1 7919   5.957   5.200   7.010 -0.5284  0.1553 -0.0523
 2340SOL    HW2 7920   6.023   5.317   7.103 -3.0622  1.3707  0.3021
 2341SOL     OW 7921   3.487   5.699   2.181  0.3591  0.2345  0.2555
 2341SOL    HW1 7922   3.576   5.737   2.204  0.4414 -0.4394  1.0972
 2341SOL    HW2 7923   3.498   5.609   2.140  0.0277 -0.7820  2.2582
 2342SOL     OW 7924   3.136   0.286   6.179  0.5378  0.4965  0.1393
 2342SOL    HW1 7925   3.129   0.307   6.082 -0.6636  0.4125  0.1941
 2342SOL    HW2 7926   3.210   0.220   6.194  0.0735 -0.2710 -0.8576
 2343SOL     OW 7927   1.469   2.571   3.738  0.0730  0.5490  0.8745
 2343SOL    HW1 7928   1.518   2.492   3.701 -1.7328  0.3857 -1.3729
 2343SOL    HW2 7929   1.534   2.645   3.754  1.3308 -0.2721 -0.1821
 2344SOL     OW 7930   0.651   0.390   6.247  0.3017  0.1781  0.1841
 2344SOL    HW1 7931   0.576   0.388   6.182  0.0857  0.3522  0.4262
 2344SOL    HW2 7932   0.626   0.336   6.328 -0.5971  2.2608  1.3777
 2345SOL     OW 7933   1.658   5.109   4.489 -0.6143  0.2516 -0.3257
 2345SOL    HW1 7934   1.658   5.134   4.586  0.3851 -0.2040 -0.1917
 2345SOL    HW2 7935   1.565   5.093   4.459 -0.9746  0.8064  0.4525
 2346SOL     OW 7936   5.436   3.828   5.413  0.1976 -0.1361 -0.1328
 2346SOL    HW1 7937   5.429   3.925   5.390  0.3970  0.5450  2.3268
 2346SOL    HW2 7938   5.491   3.818   5.496 -1.4444 -2.1451  0.8158
 2347SOL     OW 7939   2.734   2.778   1.559  0.3233 -0.0870  0.1825
 2347SOL    HW1 7940   2.758   2.704   1.497  0.5587  0.4544 -0.3941
 2347SOL    HW2 7941   2.634   2.791   1.558  0.3430  0.0554 -0.2540
 2348SOL     OW 7942   2.490   6.386   3.918 -0.5091  0.0271 -0.2576
 2348SOL    HW1 7943   2.482   6.296   3.874 -0.4546 -0.8925  1.5107
 2348SOL    HW2 7944   2.400   6.417   3.948 -0.3460 -0.1621  0.4577
 2349SOL     OW 7945   0.508   5.063   4.680  0.2133 -0.1832 -0.4796
 2349SOL    HW1 7946   0.521   5.055   4.581  0.1079 -0.5746 -0.4631
 2349SOL    HW2 7947   0.597   5.062   4.725  0.3813  1.7025 -0.6787
 2350SOL     OW 7948   0.353   6.676   5.597 -0.6122  0.1941 -0.0555
 2350SOL    HW1 7949   0.416   6.710   5.528 -1.0860 -2.0719 -1.7258
 2350SOL    HW2 7950   0.259   6.701   5.574 -0.5038  3.6824  2.5015
 2351SOL     OW 7951   2.650   5.838   3.833  0.1887  0.0508  0.5143
 2351SOL    HW1 7952   2.628   5.831   3.736  0.1833 -0.6849  0.5646
 2351SOL    HW2 7953   2.581   5.789   3.887  1.3054 -1.2889  0.7473
 2352SOL     OW 7954   2.158   1.572   3.484 -0.7588 -0.2047 -0.0509
 2352SOL    HW1 7955   2.177   1.496   3.546 -1.1856 -0.4178 -0.1732
 2352SOL    HW2 7956   2.126   1.651   3.536 -0.6892 -0.2379  0.0418
 2353SOL     OW 7957   1.216   6.023   3.069 -0.0441  0.0810 -0.5289
 2353SOL    HW1 7958   1.301   6.052   3.024  0.0316 -1.2829 -1.3519
 2353SOL    HW2 7959   1.185   5.936   3.028  0.4127 -1.6669  2.5556
 2354SOL     OW 7960   2.641   0.927   0.390 -0.1491  0.3269  0.4353
 2354SOL    HW1 7961   2.547   0.938   0.359  0.0031  0.5765  0.0507
 2354SOL    HW2 7962   2.695   1.007   0.362 -0.3892  1.4337  2.8915
 2355SOL     OW 7963   2.559   6.288   7.009  0.5319  0.5562 -0.5201
 2355SOL    HW1 7964   2.541   6.301   7.107 -1.2445  0.0842 -0.7446
 2355SOL    HW2 7965   2.506   6.356   6.957 -2.0222 -1.8622 -1.3009
 2356SOL     OW 7966   0.857   4.088   6.899  0.2515 -0.3502 -0.0921
 2356SOL    HW1 7967   0.907   4.139   6.968  0.0345 -0.2171 -0.0329
 2356SOL    HW2 7968   0.863   4.136   6.811  0.6941 -0.6209 -0.2150
 2357SOL     OW 7969   2.814   0.854   1.491 -0.3630 -0.1514  0.3291
 2357SOL    HW1 7970   2.763   0.910   1.557 -0.2368 -1.4422  1.5694
 2357SOL    HW2 7971   2.910   0.849   1.518  0.0861  0.8050 -1.0074
 2358SOL     OW 7972   2.355   4.210   5.474 -0.2691 -0.8759  0.5786
 2358SOL    HW1 7973   2.310   4.286   5.426  1.0500 -1.0586 -1.0681
 2358SOL    HW2 7974   2.443   4.191   5.430  0.2051 -2.2463  2.0376
 2359SOL     OW 7975   5.826   1.797   4.620  0.2700 -0.1876  0.3895
 2359SOL    HW1 7976   5.734   1.826   4.594  0.0984 -2.3264 -1.7264
 2359SOL    HW2 7977   5.822   1.709   4.666  1.2866 -0.7594 -0.5554
 2360SOL     OW 7978   4.102   4.102   6.976 -0.8058 -0.2665 -0.0678
 2360SOL    HW1 7979   4.034   4.081   7.046 -0.6227 -1.6697 -0.2843
 2360SOL    HW2 7980   4.188   4.128   7.019 -0.7705 -0.8661  0.2285
 2361SOL     OW 7981   7.007   6.965   0.180 -0.4105  0.2540  0.0614
 2361SOL    HW1 7982   7.098   6.943   0.215  0.2297 -1.0022 -2.2089
 2361SOL    HW2 7983   6.996   7.064   0.178  2.0622  0.6090 -2.1396
 2362SOL     OW 7984   1.199   0.037   3.720 -0.5615  0.2030  0.4030
 2362SOL    HW1 7985   1.102   0.013   3.731 -0.6097  1.3393  3.4223
 2362SOL    HW2 7986   1.206   0.117   3.661 -1.4606  0.0902  0.1235
 2363SOL     OW 7987   4.440   2.340   4.556  0.0341  0.4477 -0.2345
 2363SOL    HW1 7988   4.524   2.382   4.589 -0.2974  0.9131  0.0446
 2363SOL    HW2 7989   4.364   2.368   4.615 -0.1210 -0.9935  0.2867
 2364SOL     OW 7990   1.154   1.978   3.439  0.3739 -0.2276  0.4178
 2364SOL    HW1 7991   1.225   2.038   3.403  0.4613  0.8936  2.3487
 2364SOL    HW2 7992   1.191   1.921   3.512 -0.1964 -1.2357 -0.0588
 2365SOL     OW 7993   6.296   2.344   0.191 -0.0976  0.3286  0.3039
 2365SOL    HW1 7994   6.296   2.245   0.203  0.4917  0.2805 -0.0575
 2365SOL    HW2 7995   6.208   2.381   0.221 -0.8114 -0.4379 -0.7424
 2366SOL     OW 7996   0.999   5.510   0.553  0.7262 -0.0252 -0.4467
 2366SOL    HW1 7997   1.007   5.476   0.459 -0.1746  0.2832 -0.6517
 2366SOL    HW2 7998   0.903   5.532   0.572  0.4951 -2.2089  1.3024
 2367SOL     OW 7999   3.565   4.554   1.382  0.0565  0.2905  0.5621
 2367SOL    HW1 8000   3.570   4.650   1.409 -1.1016  0.8789 -1.1251
 2367SOL    HW2 8001   3.657   4.516   1.374  0.5660  1.5351  0.3140
 2368SOL     OW 8002   5.180   5.472   4.772  0.1015  0.5172 -0.1254
 2368SOL    HW1 8003   5.084   5.469   4.797  0.3467 -2.8452  0.9775
 2368SOL    HW2 8004   5.192   5.442   4.678  0.1229 -0.4363  0.1688
 2369SOL     OW 8005   2.461   0.410   5.967 -0.3149 -0.2867  0.1748
 2369SOL    HW1 8006   2.428   0.491   6.016 -1.6959 -0.3762 -0.5499
 2369SOL    HW2 8007   2.407   0.398   5.884  1.5858 -0.4712 -1.0846
 2370SOL     OW 8008   5.567   2.724   0.198  0.1603  0.1594  0.2542
 2370SOL    HW1 8009   5.506   2.746   0.275  0.9902  2.3753  0.3502
 2370SOL    HW2 8010   5.522   2.748   0.112  0.6187  1.2149  0.2918
 2371SOL     OW 8011   0.921   1.068   1.389  0.2577  0.2484 -0.5685
 2371SOL    HW1 8012   0.980   1.114   1.323  0.5564  1.1209  0.2822
 2371SOL    HW2 8013   0.971   0.994   1.433  1.0030  1.3967  0.6277
 2372SOL     OW 8014   5.457   2.815   3.022 -0.0279  0.0701  0.4178
 2372SOL    HW1 8015   5.495   2.756   3.093 -1.3217 -0.4079  0.7382
 2372SOL    HW2 8016   5.449   2.908   3.057  3.2422  0.8442 -0.5066
 2373SOL     OW 8017   6.997   7.009   0.654  0.0351 -0.2775 -0.2296
 2373SOL    HW1 8018   7.030   7.016   0.748  0.6279 -0.8908 -0.3814
 2373SOL    HW2 8019   7.003   7.099   0.610  1.0442 -0.2645 -0.0910
 2374SOL     OW 8020   4.545   2.157   3.484  0.1267  0.2002 -0.0488
 2374SOL    HW1 8021   4.575   2.189   3.574 -1.7577  1.9259  0.0216
 2374SOL    HW2 8022   4.536   2.057   3.486 -0.7437  0.2645  1.9765
 2375SOL     OW 8023   2.620   6.832   5.411 -0.3556 -0.2652  0.3097
 2375SOL    HW1 8024   2.610   6.872   5.320 -0.2878 -1.0588 -0.0604
 2375SOL    HW2 8025   2.575   6.743   5.413 -2.0381  0.5645  1.6266
 2376SOL     OW 8026   6.837   3.194   4.270 -0.1109 -0.6239  0.2635
 2376SOL    HW1 8027   6.917   3.228   4.221 -0.0500 -0.9206  0.1531
 2376SOL    HW2 8028   6.797   3.118   4.218 -0.1524 -0.8205  0.5831
 2377SOL     OW 8029   3.710   3.095   5.065 -0.2603  0.1845 -0.1219
 2377SOL    HW1 8030   3.765   3.135   4.992  0.2996 -0.4106 -0.0423
 2377SOL    HW2 8031   3.764   3.094   5.150 -1.4708  2.4187  0.7646
 2378SOL     OW 8032   6.720   1.397   1.216  0.3901  0.0819 -0.2437
 2378SOL    HW1 8033   6.721   1.491   1.183  0.5057 -0.5562 -2.2008
 2378SOL    HW2 8034   6.651   1.345   1.166  0.9021 -1.0818  0.2120
 2379SOL     OW 8035   0.307   0.102   0.928 -0.4222  0.2859 -0.3590
 2379SOL    HW1 8036   0.214   0.066   0.926 -1.3937  2.5857 -0.4479
 2379SOL    HW2 8037   0.362   0.051   0.995 -1.1353 -2.3446 -1.6544
 2380SOL     OW 8038   1.217   3.475   6.998  1.1672  0.6448  0.1946
 2380SOL    HW1 8039   1.298   3.534   7.001  0.9505  0.9905 -0.4707
 2380SOL    HW2 8040   1.208   3.436   6.907  1.1799 -0.2515  0.5671
 2381SOL     OW 8041   1.511   6.303   5.182  0.2814 -0.1473 -0.4214
 2381SOL    HW1 8042   1.512   6.243   5.262 -3.1168  0.3795  0.2071
 2381SOL    HW2 8043   1.580   6.274   5.116  3.5226 -0.3839  2.7786
 2382SOL     OW 8044   0.817   3.860   5.252  0.5495 -0.0197 -0.0629
 2382SOL    HW1 8045   0.897   3.800   5.246  1.7864  1.6431 -0.9512
 2382SOL    HW2 8046   0.734   3.804   5.255  1.5360 -1.7813 -2.4276
 2383SOL     OW 8047   4.193   6.781   1.492  0.5654 -0.4328 -0.3320
 2383SOL    HW1 8048   4.275   6.769   1.436  1.0033 -0.2024  0.2571
 2383SOL    HW2 8049   4.127   6.839   1.443  0.6279 -0.8542 -0.9276
 2384SOL     OW 8050   0.093   1.598   0.840 -0.0353  0.3733  0.2338
 2384SOL    HW1 8051  -0.000   1.622   0.817 -0.3116  0.2199  1.1370
 2384SOL    HW2 8052   0.121   1.517   0.787 -0.8889 -0.3931  0.9133
 2385SOL     OW 8053   1.234   6.957   1.598  0.2107 -0.5880 -0.4399
 2385SOL    HW1 8054   1.141   6.994   1.595 -0.1444 -1.1774  1.5457
 2385SOL    HW2 8055   1.231   6.859   1.576  0.6826 -0.2197 -2.3467
 2386SOL     OW 8056   5.727   4.763   4.225 -0.2980  0.0369 -0.3532
 2386SOL    HW1 8057   5.671   4.708   4.163 -0.2533  0.1494 -0.4932
 2386SOL    HW2 8058   5.710   4.734   4.319 -1.7204  1.0612 -0.2518
 2387SOL     OW 8059   0.624   1.917   4.077  0.2962 -0.2398  0.5128
 2387SOL    HW1 8060   0.641   1.833   4.129 -0.9202 -0.4423  0.6348
 2387SOL    HW2 8061   0.708   1.946   4.032  0.7913 -1.4325  0.6099
 2388SOL     OW 8062   6.082   0.954   3.833 -0.3237  0.1663  0.0619
 2388SOL    HW1 8063   6.086   0.877   3.770 -0.4934  0.6971 -0.6006
 2388SOL    HW2 8064   6.024   1.026   3.795 -0.0937  0.6633  0.6305
 2389SOL     OW 8065   3.267   4.924   3.170  0.3533 -0.0514 -0.2530
 2389SOL    HW1 8066   3.189   4.874   3.132  0.8721 -1.4444  0.4250
 2389SOL    HW2 8067   3.236   4.985   3.242 -0.3622  1.0088 -1.4322
 2390SOL     OW 8068   3.921   3.107   2.866 -0.4149  0.1975 -0.3044
 2390SOL    HW1 8069   3.959   3.086   2.776  1.0676  0.2444  0.2887
 2390SOL    HW2 8070   3.858   3.184   2.858  1.9627  2.2056 -0.8928
 2391SOL     OW 8071   4.663   4.449   0.734  0.0455  0.4879  0.5077
 2391SOL    HW1 8072   4.650   4.457   0.832  1.0273 -0.8569  0.7714
 2391SOL    HW2 8073   4.700   4.535   0.698 -1.2113  1.3130  1.1356
 2392SOL     OW 8074   4.375   5.102   6.121 -0.6096  0.2646 -0.0173
 2392SOL    HW1 8075   4.334   5.180   6.073 -0.8774 -0.7906 -1.5765
 2392SOL    HW2 8076   4.335   5.094   6.212 -2.1811  0.6483 -0.6404
 2393SOL     OW 8077   3.522   3.986   6.150  0.0066  0.0604  0.0087
 2393SOL    HW1 8078   3.569   4.042   6.219 -1.7563  3.7443 -1.5010
 2393SOL    HW2 8079   3.589   3.933   6.099  1.5624 -1.1896  3.0675
 2394SOL     OW 8080   6.993   5.892   5.750 -0.1183  0.1146  0.2039
 2394SOL    HW1 8081   6.945   5.805   5.760  1.1730 -0.6090  0.3151
 2394SOL    HW2 8082   7.084   5.885   5.790 -0.0008  1.5379  0.2478
 2395SOL     OW 8083   5.697   1.037   3.864 -0.8715 -0.1874  0.4684
 2395SOL    HW1 8084   5.607   1.055   3.825 -0.3766 -0.7705 -1.0238
 2395SOL    HW2 8085   5.706   1.084   3.952 -1.2038  3.1659 -1.1456
 2396SOL     OW 8086   2.308   5.295   0.703 -0.1046  0.0842 -0.5972
 2396SOL    HW1 8087   2.245   5.316   0.778  2.1428 -0.8085  1.6762
 2396SOL    HW2 8088   2.268   5.225   0.644 -0.0280 -3.1648  2.8268
 2397SOL     OW 8089   6.475   4.422   6.133  0.1290  0.3477 -0.1873
 2397SOL    HW1 8090   6.550   4.423   6.066 -0.6712 -1.1839 -1.1708
 2397SOL    HW2 8091   6.458   4.328   6.162 -0.8347  0.7793  0.7162
 2398SOL     OW 8092   4.568   4.101   0.945 -0.0321 -0.1842  0.0283
 2398SOL    HW1 8093   4.595   4.046   1.024  1.2858 -0.5509 -0.6524
 2398SOL    HW2 8094   4.501   4.169   0.974  0.9862  0.1908  1.6514
 2399SOL     OW 8095   6.774   0.919   3.481 -0.0871  0.0941 -0.0829
 2399SOL    HW1 8096   6.802   0.823   3.471 -2.3863 -0.5342 -1.0416
 2399SOL    HW2 8097   6.739   0.953   3.394  0.7330  1.8613  0.2279
 2400SOL     OW 8098   2.156   4.137   2.546  0.4050  0.0762  0.6015
 2400SOL    HW1 8099   2.167   4.065   2.615 -2.3168  1.3366  2.5097
 2400SOL    HW2 8100   2.164   4.227   2.589 -0.2500  0.9309 -0.9566
 2401SOL     OW 8101   5.387   6.708   6.014 -0.1963 -0.0686 -0.1419
 2401SOL    HW1 8102   5.366   6.739   5.922  2.0573 -1.3012 -1.1515
 2401SOL    HW2 8103   5.409   6.786   6.072 -0.7843  0.6525 -0.8712
 2402SOL     OW 8104   6.140   0.018   2.727 -0.0334 -0.0931 -0.0662
 2402SOL    HW1 8105   6.229  -0.029   2.723 -0.6080 -1.1541 -1.0613
 2402SOL    HW2 8106   6.144   0.102   2.674  0.2637 -0.3380 -0.4358
 2403SOL     OW 8107   0.946   1.654   6.583  0.4921  0.2674 -0.5659
 2403SOL    HW1 8108   0.930   1.572   6.528 -0.9119 -0.8804  1.4492
 2403SOL    HW2 8109   1.035   1.649   6.628  0.2137 -0.3826 -0.0827
 2404SOL     OW 8110   2.563   2.187   1.265  0.9219 -0.1532  0.3215
 2404SOL    HW1 8111   2.468   2.215   1.250  1.2206  0.1815 -1.0670
 2404SOL    HW2 8112   2.610   2.255   1.320  0.9334  0.8042 -0.8353
 2405SOL     OW 8113   3.277   3.677   3.084  0.0729  0.4512  0.4592
 2405SOL    HW1 8114   3.200   3.719   3.036 -1.1512 -2.1489 -0.0624
 2405SOL    HW2 8115   3.272   3.701   3.181 -1.1113  0.7437  0.3459
 2406SOL     OW 8116   3.253   0.184   2.799  0.6006 -0.5024 -0.5966
 2406SOL    HW1 8117   3.202   0.235   2.730  0.5533  0.5237  0.1711
 2406SOL    HW2 8118   3.199   0.176   2.883  1.6182  0.5054  0.1931
 2407SOL     OW 8119   5.291   3.434   3.630 -0.1335 -0.4232  0.2962
 2407SOL    HW1 8120   5.222   3.477   3.572 -1.1553  0.0009  1.7653
 2407SOL    HW2 8121   5.307   3.341   3.598  0.1018  0.1210 -1.2755
 2408SOL     OW 8122   4.642   5.251   2.487 -0.3448 -0.1858 -0.1066
 2408SOL    HW1 8123   4.699   5.248   2.569  1.1547  0.2411 -1.0944
 2408SOL    HW2 8124   4.589   5.336   2.487  0.8462  0.5823 -0.3207
 2409SOL     OW 8125   2.615   6.004   0.194  0.1906 -0.8724 -0.2331
 2409SOL    HW1 8126   2.652   5.912   0.201 -0.1895 -1.0712 -0.8024
 2409SOL    HW2 8127   2.638   6.043   0.105 -2.0398 -1.4932 -1.1504
 2410SOL     OW 8128   3.074   3.059   4.420  0.1918 -0.0123 -0.9012
 2410SOL    HW1 8129   3.069   3.158   4.406  5.1983  0.4323 -1.2242
 2410SOL    HW2 8130   3.073   3.038   4.517 -1.2483  0.2469 -0.8386
 2411SOL     OW 8131   5.541   4.118   3.944 -0.2874  0.2531  0.3573
 2411SOL    HW1 8132   5.586   4.029   3.933  1.4797  1.2876 -1.6967
 2411SOL    HW2 8133   5.508   4.149   3.855  1.9306  2.9802  0.3457
 2412SOL     OW 8134   3.980   4.098   1.139  0.1385  0.5196  0.0288
 2412SOL    HW1 8135   4.044   4.080   1.064  1.2040 -0.1162  1.0617
 2412SOL    HW2 8136   4.029   4.097   1.226 -1.5597 -2.1219  1.0806
 2413SOL     OW 8137   5.785   0.609   0.867 -0.5364  0.4378 -0.5669
 2413SOL    HW1 8138   5.741   0.529   0.908  1.0844 -0.6184 -0.7654
 2413SOL    HW2 8139   5.816   0.586   0.775  2.0843  0.4628  0.2329
 2414SOL     OW 8140   5.105   4.565   3.709 -0.9524 -0.2864  0.2464
 2414SOL    HW1 8141   5.135   4.527   3.797  1.4013  0.3388 -0.2017
 2414SOL    HW2 8142   5.101   4.491   3.641 -0.1886 -0.3879  0.2948
 2415SOL     OW 8143   6.647   0.406   3.688 -0.2069 -0.5232  0.5666
 2415SOL    HW1 8144   6.670   0.503   3.698 -0.0099 -0.7911  3.2830
 2415SOL    HW2 8145   6.551   0.392   3.709  0.0077 -1.0419  1.2204
 2416SOL     OW 8146   4.686   2.420   5.817  0.0380 -0.6183  0.0017
 2416SOL    HW1 8147   4.627   2.500   5.818  0.4221 -0.3380  0.2776
 2416SOL    HW2 8148   4.723   2.405   5.908 -0.5101 -1.4700  0.0965
 2417SOL     OW 8149   3.830   3.543   4.175  0.3944  0.0629  0.1820
 2417SOL    HW1 8150   3.919   3.531   4.219 -0.8938 -0.4627  2.8728
 2417SOL    HW2 8151   3.810   3.463   4.119  1.2276 -0.2127  0.2569
 2418SOL     OW 8152   3.437   2.916   6.211 -0.7424  0.3679  0.2333
 2418SOL    HW1 8153   3.365   2.849   6.232 -1.4862  0.8358 -0.7715
 2418SOL    HW2 8154   3.402   2.983   6.146  1.6552 -1.4225 -3.1673
 2419SOL     OW 8155   5.955   5.685   3.330  0.0008 -0.2464 -0.2250
 2419SOL    HW1 8156   5.960   5.714   3.234  3.2388 -3.7235 -1.3849
 2419SOL    HW2 8157   6.012   5.745   3.386  1.2410 -0.3738 -1.2875
 2420SOL     OW 8158   4.714   1.683   4.405 -0.3411 -0.1485  0.4576
 2420SOL    HW1 8159   4.715   1.711   4.501 -1.0398 -0.7869  0.6565
 2420SOL    HW2 8160   4.802   1.642   4.381 -0.7050 -1.4427  1.2694
 2421SOL     OW 8161   3.385   1.851   4.737 -0.1611  0.0906 -0.4195
 2421SOL    HW1 8162   3.415   1.871   4.644 -0.2721 -0.8429 -0.6640
 2421SOL    HW2 8163   3.334   1.929   4.773  1.3033  1.1231 -0.5177
 2422SOL     OW 8164   4.237   1.376   2.352  0.1169  0.1869 -0.0734
 2422SOL    HW1 8165   4.211   1.286   2.386 -0.5537  0.7667  1.0404
 2422SOL    HW2 8166   4.171   1.406   2.283 -0.3108  0.2764  0.3634
 2423SOL     OW 8167   1.467   6.538   3.995 -0.1983 -0.6264 -0.3181
 2423SOL    HW1 8168   1.403   6.586   4.055  0.8400 -0.5753  0.7867
 2423SOL    HW2 8169   1.462   6.440   4.011 -0.3470 -0.6631 -0.5841
 2424SOL     OW 8170   0.228   0.082   5.576  0.1814  0.4355  0.6882
 2424SOL    HW1 8171   0.257   0.176   5.593  1.0270 -0.1027  2.4801
 2424SOL    HW2 8172   0.300   0.019   5.604 -0.8717 -0.7873  0.7328
 2425SOL     OW 8173   4.524   1.955   4.306  0.3778  0.5424  0.1297
 2425SOL    HW1 8174   4.487   1.871   4.266 -0.1239 -0.1121  1.8647
 2425SOL    HW2 8175   4.624   1.953   4.302  0.3452  0.4341 -0.9234
 2426SOL     OW 8176   1.129   6.648   4.755  0.2776 -0.1266 -0.1044
 2426SOL    HW1 8177   1.161   6.695   4.838  4.2089 -0.6121 -1.1559
 2426SOL    HW2 8178   1.064   6.577   4.780  0.4280  0.5211  2.4165
 2427SOL     OW 8179   5.460   0.321   5.496  0.2185 -0.2381 -0.2334
 2427SOL    HW1 8180   5.512   0.406   5.494  3.4060 -1.9873  1.2312
 2427SOL    HW2 8181   5.462   0.279   5.405 -0.6975  0.8008 -0.7615
 2428SOL     OW 8182   0.598   5.024   2.613  0.1366  0.0271 -0.2461
 2428SOL    HW1 8183   0.694   5.011   2.636 -0.1683  0.5824  1.4729
 2428SOL    HW2 8184   0.566   4.946   2.559  1.0436 -1.1109  0.8146
 2429SOL     OW 8185   5.284   3.992   2.355 -0.4931  0.4088 -0.0988
 2429SOL    HW1 8186   5.266   4.006   2.258 -0.1120 -0.6616 -0.3294
 2429SOL    HW2 8187   5.365   4.044   2.382 -1.1410  1.4719 -0.1190
 2430SOL     OW 8188   6.646   0.864   1.553 -0.8464  0.1725 -0.1684
 2430SOL    HW1 8189   6.692   0.888   1.468  0.2368 -1.3530 -0.0532
 2430SOL    HW2 8190   6.636   0.946   1.610  0.9234  0.7260 -0.5884
 2431SOL     OW 8191   4.574   0.561   2.506 -0.0334 -0.1658 -0.0821
 2431SOL    HW1 8192   4.541   0.655   2.498  1.7100  0.7142  1.9991
 2431SOL    HW2 8193   4.503   0.503   2.546 -0.8045  0.4629 -0.5204
 2432SOL     OW 8194   5.721   4.510   2.459 -0.1056 -0.4118 -0.3496
 2432SOL    HW1 8195   5.685   4.450   2.531 -0.3286  0.5180  0.3275
 2432SOL    HW2 8196   5.650   4.526   2.391 -0.3327 -0.1874 -0.0598
 2433SOL     OW 8197   3.574   1.607   6.745  0.4740 -0.4467  0.0209
 2433SOL    HW1 8198   3.650   1.652   6.792 -0.4594  0.7772  0.3983
 2433SOL    HW2 8199   3.523   1.674   6.692  0.3707 -1.4821 -1.2283
 2434SOL     OW 8200   4.251   0.817   4.724 -0.4425 -0.2836 -0.0478
 2434SOL    HW1 8201   4.202   0.732   4.742 -0.7298 -0.4566 -1.5213
 2434SOL    HW2 8202   4.314   0.804   4.648 -0.4923  0.8302 -0.2920
 2435SOL     OW 8203   5.935   5.620   4.427  0.1118 -0.2013 -0.1464
 2435SOL    HW1 8204   5.890   5.692   4.479 -0.5343  0.9479 -2.2079
 2435SOL    HW2 8205   5.877   5.538   4.428 -1.5620  0.8688 -1.7479
 2436SOL     OW 8206   1.589   6.752   6.183 -0.3763 -0.8461 -0.2023
 2436SOL    HW1 8207   1.511   6.754   6.120  0.7681 -2.3990 -1.7439
 2436SOL    HW2 8208   1.660   6.692   6.147  1.0029 -0.5362  1.8288
 2437SOL     OW 8209   5.264   6.876   7.020  0.9489 -0.3859 -0.1544
 2437SOL    HW1 8210   5.212   6.792   7.009 -0.5344  0.6755 -1.9402
 2437SOL    HW2 8211   5.224   6.932   7.093 -0.8749  0.6657 -1.8744
 2438SOL     OW 8212   4.145   3.258   6.739  1.0592  0.1769  0.2367
 2438SOL    HW1 8213   4.174   3.296   6.651  1.4772 -0.7059 -0.0229
 2438SOL    HW2 8214   4.214   3.278   6.809  0.6175  1.0769  0.4249
 2439SOL     OW 8215   5.457   5.857   1.537  0.0397 -0.3290 -0.2349
 2439SOL    HW1 8216   5.466   5.956   1.540  1.5165 -0.4403 -0.1752
 2439SOL    HW2 8217   5.384   5.832   1.474  0.6951  0.7602 -1.4865
 2440SOL     OW 8218   3.235   4.384   5.329  0.2317  0.2542  0.0071
 2440SOL    HW1 8219   3.284   4.297   5.336  0.4022  0.2021 -1.6119
 2440SOL    HW2 8220   3.138   4.366   5.315 -0.1425  0.3625  2.0752
 2441SOL     OW 8221   6.003   2.502   0.149 -0.3429  0.0075  0.4781
 2441SOL    HW1 8222   5.987   2.591   0.192 -1.4278  0.6871 -1.2064
 2441SOL    HW2 8223   5.927   2.440   0.169 -0.9290  0.3770 -0.5152
 2442SOL     OW 8224   0.248   2.158   0.022 -0.4647  0.3687  0.2710
 2442SOL    HW1 8225   0.330   2.215   0.027  0.9803 -1.5777 -0.0254
 2442SOL    HW2 8226   0.261   2.087  -0.048 -2.1422 -0.3848  0.6726
 2443SOL     OW 8227   4.242   4.539   5.858 -0.5879  0.6380 -0.0330
 2443SOL    HW1 8228   4.321   4.481   5.836 -0.9508 -0.1268  0.6346
 2443SOL    HW2 8229   4.249   4.570   5.953 -0.3096  1.8584 -0.4252
 2444SOL     OW 8230   1.872   4.830   6.519  0.7977 -0.5446 -0.0487
 2444SOL    HW1 8231   1.955   4.788   6.555  0.0982 -0.7752  1.3310
 2444SOL    HW2 8232   1.819   4.762   6.468  0.7628 -0.7553  0.2691
 2445SOL     OW 8233   0.273   2.161   0.635 -0.6352  0.4703  0.2733
 2445SOL    HW1 8234   0.224   2.240   0.598 -0.0679 -0.4291 -2.6129
 2445SOL    HW2 8235   0.215   2.079   0.628 -0.1186  0.0831  0.4564
 2446SOL     OW 8236   6.515   3.061   2.972  0.4293  0.0016  0.0247
 2446SOL    HW1 8237   6.429   3.093   3.012  0.3194  0.9209 -0.8981
 2446SOL    HW2 8238   6.497   3.013   2.886  0.7735 -0.6612  0.3149
 2447SOL     OW 8239   1.012   4.506   0.335  0.5274  0.1502  0.0253
 2447SOL    HW1 8240   1.037   4.505   0.432  2.1683  0.3900 -0.3547
 2447SOL    HW2 8241   0.927   4.556   0.322  0.3155  0.1557  1.3306
 2448SOL     OW 8242   0.506   0.437   3.391 -0.3628  0.0530 -0.2960
 2448SOL    HW1 8243   0.549   0.511   3.339 -0.0534  0.8894  1.0791
 2448SOL    HW2 8244   0.504   0.354   3.336 -0.3097  0.9546 -1.7260
 2449SOL     OW 8245   6.794   3.212   0.171 -0.5162 -0.6591  0.1757
 2449SOL    HW1 8246   6.863   3.158   0.122  1.9451  2.4750 -0.1964
 2449SOL    HW2 8247   6.748   3.273   0.106  0.6247  1.4086  1.2168
 2450SOL     OW 8248   2.300   6.155   2.910 -0.7254  0.0066  0.0952
 2450SOL    HW1 8249   2.220   6.145   2.851 -1.6463 -0.8860  1.4532
 2450SOL    HW2 8250   2.272   6.152   3.005  0.7170  1.6541  0.6170
 2451SOL     OW 8251   4.622   0.378   2.787 -0.3526  0.1747  0.3150
 2451SOL    HW1 8252   4.613   0.411   2.693  1.0730  1.7805  0.6954
 2451SOL    HW2 8253   4.639   0.455   2.848  1.3229 -1.0781  1.5074
 2452SOL     OW 8254   2.100   2.379   2.806  0.3783  0.4271 -0.1348
 2452SOL    HW1 8255   2.016   2.417   2.844 -0.0704  0.0768 -0.7648
 2452SOL    HW2 8256   2.105   2.281   2.826  0.2294  0.2780 -0.8086
 2453SOL     OW 8257   0.541   4.683   2.757  0.6068 -0.2683  0.3219
 2453SOL    HW1 8258   0.497   4.743   2.824  3.4050 -0.1097  2.1991
 2453SOL    HW2 8259   0.518   4.588   2.777  2.2353 -0.3096  2.2972
 2454SOL     OW 8260   3.462   0.651   3.959 -0.0517 -0.4038  0.2463
 2454SOL    HW1 8261   3.525   0.724   3.933  0.8169 -1.2952 -0.2461
 2454SOL    HW2 8262   3.389   0.688   4.016  1.0956  0.6019  1.1019
 2455SOL     OW 8263   5.951   4.590   0.740  0.3926  0.0383  0.0874
 2455SOL    HW1 8264   5.859   4.558   0.716 -1.1633  4.0260 -0.0108
 2455SOL    HW2 8265   5.976   4.553   0.830 -0.3948 -2.6279 -0.6915
 2456SOL     OW 8266   4.896   6.345   2.400 -0.2170  0.4144  0.0437
 2456SOL    HW1 8267   4.858   6.364   2.310  0.0649 -0.0215 -0.1749
 2456SOL    HW2 8268   4.992   6.373   2.402 -0.3032  0.6872  0.3003
 2457SOL     OW 8269   6.032   0.952   6.604  0.2418  0.2433  0.0832
 2457SOL    HW1 8270   5.975   1.019   6.555 -2.0320  1.0560  3.5100
 2457SOL    HW2 8271   6.107   1.000   6.650  0.9915 -0.1967 -0.6505
 2458SOL     OW 8272   0.262   0.214   3.334  0.8807  0.0169 -0.0914
 2458SOL    HW1 8273   0.193   0.217   3.406  0.5159 -2.5669 -0.2177
 2458SOL    HW2 8274   0.241   0.281   3.263 -0.7726  0.1434  0.4849
 2459SOL     OW 8275   3.308   6.064   0.626  0.0540 -0.4570 -0.5354
 2459SOL    HW1 8276   3.390   6.114   0.599  0.6584  0.2365  2.3298
 2459SOL    HW2 8277   3.227   6.120   0.605  0.6438  1.1728  1.2454
 2460SOL     OW 8278   2.301   5.203   1.516 -0.1137  0.2685  0.6819
 2460SOL    HW1 8279   2.216   5.173   1.473  0.6066 -1.0180  0.1058
 2460SOL    HW2 8280   2.362   5.242   1.446 -0.8681  2.8750  1.3395
 2461SOL     OW 8281   5.580   6.248   0.686  0.1087 -0.0317 -0.3903
 2461SOL    HW1 8282   5.611   6.159   0.652 -1.1316  0.1590 -2.1431
 2461SOL    HW2 8283   5.521   6.234   0.766 -0.3158 -0.8025 -0.8275
 2462SOL     OW 8284   2.294   4.911   6.263 -0.1239 -0.4453  0.8394
 2462SOL    HW1 8285   2.323   4.816   6.274 -0.2946 -0.5356  0.5372
 2462SOL    HW2 8286   2.207   4.926   6.311 -0.1088 -0.4494  0.8676
 2463SOL     OW 8287   6.219   0.594   2.657  1.2218  0.5210 -0.4601
 2463SOL    HW1 8288   6.253   0.674   2.607  0.7918  1.5924  0.8769
 2463SOL    HW2 8289   6.122   0.609   2.680  0.0815 -1.8851 -3.0792
 2464SOL     OW 8290   1.307   3.425   2.278 -0.0910 -0.8526  0.5760
 2464SOL    HW1 8291   1.330   3.416   2.181 -1.4455 -0.9713  0.2460
 2464SOL    HW2 8292   1.318   3.520   2.307 -1.6460 -0.3843 -0.2505
 2465SOL     OW 8293   5.987   6.047   2.196  0.2239  0.2274 -0.5056
 2465SOL    HW1 8294   6.069   5.994   2.175 -0.7022 -0.2417 -3.3989
 2465SOL    HW2 8295   6.012   6.141   2.220  1.6394 -0.0002 -1.0412
 2466SOL     OW 8296   4.516   2.479   2.712  0.2386  0.7256 -0.9743
 2466SOL    HW1 8297   4.547   2.561   2.665  1.3981  1.3170  0.7388
 2466SOL    HW2 8298   4.595   2.428   2.746 -0.4947 -0.7764 -1.4339
 2467SOL     OW 8299   0.222   1.006   6.437  0.1997  0.1255  0.1655
 2467SOL    HW1 8300   0.313   1.030   6.402  0.7356  0.0218  1.4208
 2467SOL    HW2 8301   0.231   0.928   6.500 -0.5319  1.0444  1.4624
 2468SOL     OW 8302   0.243   5.681   1.426  0.0344 -0.2644  0.1723
 2468SOL    HW1 8303   0.177   5.637   1.487  2.1465 -1.2440  1.8743
 2468SOL    HW2 8304   0.333   5.641   1.439  1.5992  2.8938 -0.0240
 2469SOL     OW 8305   3.524   4.943   4.895  0.1617  0.1429 -0.2932
 2469SOL    HW1 8306   3.447   4.922   4.835  1.8349 -2.0567 -1.8014
 2469SOL    HW2 8307   3.512   4.896   4.983 -0.0588 -0.4504 -0.6379
 2470SOL     OW 8308   4.486   4.717   6.082 -0.2042 -0.0475 -0.2280
 2470SOL    HW1 8309   4.394   4.701   6.118  0.0357  1.0658  0.9353
 2470SOL    HW2 8310   4.531   4.630   6.066 -0.4002 -0.6130  1.9868
 2471SOL     OW 8311   1.200   0.491   2.850  0.7709 -0.1156 -0.7081
 2471SOL    HW1 8312   1.219   0.586   2.826  0.5339  0.1600  0.1576
 2471SOL    HW2 8313   1.190   0.483   2.949 -0.2263 -0.8670 -0.8548
 2472SOL     OW 8314   4.787   1.820   3.794  1.0143  0.4005 -0.1656
 2472SOL    HW1 8315   4.701   1.769   3.792  0.2631  1.5016  1.7316
 2472SOL    HW2 8316   4.790   1.878   3.875  2.1129  2.8812 -1.8485
 2473SOL     OW 8317   0.886   4.795   4.946 -0.4175 -0.3099  0.6001
 2473SOL    HW1 8318   0.928   4.822   4.859 -0.9560 -0.8334  0.1647
 2473SOL    HW2 8319   0.949   4.737   4.997  0.4008  1.0255  1.1441
 2474SOL     OW 8320   6.716   4.422   6.594  0.0135 -0.0444  0.3880
 2474SOL    HW1 8321   6.695   4.454   6.502  0.5493 -0.0149  0.2700
 2474SOL    HW2 8322   6.653   4.463   6.660 -1.3703 -1.2321 -0.1308
 2475SOL     OW 8323   3.956   3.203   0.167  0.0680  0.2585  0.1013
 2475SOL    HW1 8324   3.938   3.149   0.250  1.0837  2.2505  1.6979
 2475SOL    HW2 8325   3.943   3.145   0.087 -1.3976 -1.6363  1.5992
 2476SOL     OW 8326   0.208   3.064   3.056 -0.8664  0.5363 -0.9913
 2476SOL    HW1 8327   0.284   3.116   3.095 -1.7838  0.1939  1.4455
 2476SOL    HW2 8328   0.130   3.124   3.041 -1.7620  0.0491  1.3586
 2477SOL     OW 8329   4.923   5.692   1.617 -0.0391  0.9655 -0.0176
 2477SOL    HW1 8330   4.912   5.754   1.695 -0.0299  0.3499  0.4781
 2477SOL    HW2 8331   5.018   5.696   1.585  0.9416 -1.2716  2.1828
 2478SOL     OW 8332   5.818   6.541   3.913  0.3979  0.5099  0.1810
 2478SOL    HW1 8333   5.758   6.585   3.980 -1.2385 -2.7086  1.0388
 2478SOL    HW2 8334   5.830   6.444   3.937  2.8777  0.1082 -2.1379
 2479SOL     OW 8335   1.783   1.898   2.573  0.4912  0.4151  0.4025
 2479SOL    HW1 8336   1.684   1.888   2.561  0.4439  1.0743  0.2120
 2479SOL    HW2 8337   1.815   1.976   2.519  1.1346  0.1320  0.3682
 2480SOL     OW 8338   1.344   4.964   0.676  0.1594  0.8691 -0.6120
 2480SOL    HW1 8339   1.254   4.972   0.719  0.7387  0.6788  0.6625
 2480SOL    HW2 8340   1.362   5.047   0.622 -0.2192  1.5052  0.2096
 2481SOL     OW 8341   4.900   4.320   2.807 -0.2304 -0.1016  0.6116
 2481SOL    HW1 8342   4.938   4.258   2.739  0.0846  1.3656 -0.6029
 2481SOL    HW2 8343   4.800   4.309   2.810 -0.4172  0.7605 -1.1327
 2482SOL     OW 8344   6.180   1.695   1.930 -0.7147  0.0370 -0.1077
 2482SOL    HW1 8345   6.113   1.762   1.897  0.3237  1.5996  0.8242
 2482SOL    HW2 8346   6.140   1.643   2.005 -0.6649  1.5214  0.9921
 2483SOL     OW 8347   0.142   3.212   2.166  0.2073 -0.1107  0.0223
 2483SOL    HW1 8348   0.084   3.250   2.239  1.8623  0.1209  1.2676
 2483SOL    HW2 8349   0.208   3.149   2.205  1.3061  0.2118 -1.2566
 2484SOL     OW 8350   3.309   0.950   5.140  0.3039 -0.4023 -0.2823
 2484SOL    HW1 8351   3.384   0.896   5.102 -0.1713 -0.0525 -1.7640
 2484SOL    HW2 8352   3.316   1.044   5.108 -0.3680 -0.2024  0.1470
 2485SOL     OW 8353   2.413   6.912   1.213 -0.2253  0.4431 -0.4880
 2485SOL    HW1 8354   2.425   6.821   1.175 -0.6008  0.4807 -0.7018
 2485SOL    HW2 8355   2.472   6.977   1.165 -0.9662  0.5550 -1.2582
 2486SOL     OW 8356   6.819   6.055   2.237  0.5244 -0.0509 -0.1021
 2486SOL    HW1 8357   6.913   6.026   2.253  0.4705 -0.7180 -0.9234
 2486SOL    HW2 8358   6.794   6.127   2.302  2.2363  1.5920 -1.1790
 2487SOL     OW 8359   4.508   6.492   0.523 -0.1081  0.4405 -0.2805
 2487SOL    HW1 8360   4.564   6.485   0.441 -0.0480  1.7051 -0.3632
 2487SOL    HW2 8361   4.433   6.557   0.507 -0.4553  0.2351  0.4635
 2488SOL     OW 8362   0.925   5.828   2.905 -0.6501  0.0659  0.0010
 2488SOL    HW1 8363   0.916   5.843   2.806 -1.8248  1.1090  0.2359
 2488SOL    HW2 8364   0.845   5.778   2.938 -1.2557  1.4440  0.7131
 2489SOL     OW 8365   1.244   5.642   4.488 -0.5286 -0.1428 -0.0293
 2489SOL    HW1 8366   1.153   5.607   4.469  0.2895 -2.7728  0.3660
 2489SOL    HW2 8367   1.288   5.583   4.556  2.1057 -0.0439 -1.5252
 2490SOL     OW 8368   0.727   3.033   1.431 -0.2211  0.3380 -0.1159
 2490SOL    HW1 8369   0.779   3.041   1.516 -1.5038  1.1858  0.6251
 2490SOL    HW2 8370   0.656   3.103   1.429 -0.1482  0.3918 -1.9470
 2491SOL     OW 8371   2.672   5.127   0.543  0.1659 -0.0042  0.4028
 2491SOL    HW1 8372   2.631   5.177   0.618 -0.1447  0.6164 -0.1709
 2491SOL    HW2 8373   2.619   5.044   0.525 -1.3938  1.1823 -0.8543
 2492SOL     OW 8374   5.790   3.681   6.566  0.4123 -0.2597  0.8727
 2492SOL    HW1 8375   5.790   3.780   6.578 -0.1431 -0.0459 -0.7050
 2492SOL    HW2 8376   5.740   3.638   6.641  2.2753  0.4773  2.6216
 2493SOL     OW 8377   6.892   2.325   4.325  0.5316 -0.4436  0.4186
 2493SOL    HW1 8378   6.947   2.367   4.252  0.1351 -3.7960 -2.0714
 2493SOL    HW2 8379   6.947   2.321   4.409  2.5133  0.1180 -0.7618
 2494SOL     OW 8380   3.103   0.915   3.902 -0.0221 -0.5414  0.1906
 2494SOL    HW1 8381   3.038   0.971   3.851  0.5134  0.2804  0.3972
 2494SOL    HW2 8382   3.085   0.924   4.000  0.9306  0.3674  0.2935
 2495SOL     OW 8383   5.602   1.027   4.325 -0.2356 -0.2819 -0.2232
 2495SOL    HW1 8384   5.513   0.999   4.360 -0.4084  1.3723  0.7494
 2495SOL    HW2 8385   5.648   0.948   4.283 -1.5987 -1.4473  0.4134
 2496SOL     OW 8386   6.580   6.913   0.812  0.3719  0.4398 -0.1730
 2496SOL    HW1 8387   6.520   6.975   0.761 -1.1690  0.5052  1.6147
 2496SOL    HW2 8388   6.609   6.957   0.896  0.6738 -0.6308  0.2960
 2497SOL     OW 8389   0.324   0.799   3.597  0.2474  0.1344 -0.3037
 2497SOL    HW1 8390   0.265   0.724   3.629 -1.3343  1.7304  0.6635
 2497SOL    HW2 8391   0.418   0.780   3.624 -0.5073 -0.2987  2.2289
 2498SOL     OW 8392   1.990   3.461   5.754  0.2361  0.1814 -0.6891
 2498SOL    HW1 8393   1.999   3.363   5.736  1.8765 -0.4132  2.5132
 2498SOL    HW2 8394   2.074   3.494   5.797 -0.6041  2.8231 -0.9467
 2499SOL     OW 8395   5.813   6.968   3.720 -0.9677 -0.1863 -0.1162
 2499SOL    HW1 8396   5.752   7.036   3.759 -1.2752 -0.5781  0.0893
 2499SOL    HW2 8397   5.779   6.876   3.740  1.2923 -0.5581  2.7668
 2500SOL     OW 8398   5.026   3.149   1.393  0.3702 -0.2231 -0.0191
 2500SOL    HW1 8399   4.978   3.229   1.355 -0.4455 -0.2608  0.8740
 2500SOL    HW2 8400   5.081   3.106   1.322 -0.5343  0.1294 -0.9593
 2501SOL     OW 8401   0.800   5.191   1.190  0.3817  0.0615  0.4189
 2501SOL    HW1 8402   0.726   5.218   1.252 -2.6669 -1.4565 -2.2568
 2501SOL    HW2 8403   0.838   5.104   1.220  1.2342  0.9030  1.8832
 2502SOL     OW 8404   3.003   6.078   4.494  0.4246 -0.1645  0.8483
 2502SOL    HW1 8405   3.065   6.097   4.417  0.4037  0.4067  0.9686
 2502SOL    HW2 8406   3.037   6.124   4.576  0.6628 -1.0984  1.2824
 2503SOL     OW 8407   3.281   3.825   6.648  0.4085  0.0034  0.0200
 2503SOL    HW1 8408   3.228   3.803   6.566 -1.5010  1.9013  0.6420
 2503SOL    HW2 8409   3.270   3.752   6.715  2.7410 -2.0306 -1.6341
 2504SOL     OW 8410   2.080   6.162   2.740  0.1743  0.1735  0.4056
 2504SOL    HW1 8411   2.013   6.095   2.775  0.2058 -0.1605 -0.1665
 2504SOL    HW2 8412   2.108   6.136   2.648  1.2458  0.2047  0.7147
 2505SOL     OW 8413   6.334   4.761   5.181  0.4760 -0.4400 -0.4326
 2505SOL    HW1 8414   6.278   4.705   5.242 -0.2598 -0.8793 -1.4759
 2505SOL    HW2 8415   6.356   4.708   5.099  0.5394  0.5014 -1.0321
 2506SOL     OW 8416   0.537   3.642   4.131 -0.1468  0.4731 -0.4766
 2506SOL    HW1 8417   0.454   3.675   4.177  0.7051  1.1330  0.6383
 2506SOL    HW2 8418   0.605   3.617   4.199  0.6437  0.1088 -1.3797
 2507SOL     OW 8419   5.427   6.372   1.171  0.1563 -0.2956  0.8074
 2507SOL    HW1 8420   5.514   6.421   1.177  0.0650 -0.0122 -0.0025
 2507SOL    HW2 8421   5.393   6.353   1.263  0.4176  0.7620  1.1342
 2508SOL     OW 8422   2.586   1.086   1.422 -0.0797 -0.1330 -0.9815
 2508SOL    HW1 8423   2.589   1.186   1.412 -0.8719 -0.2155 -2.0845
 2508SOL    HW2 8424   2.576   1.063   1.519 -0.2599  0.8658 -0.7527
 2509SOL     OW 8425   5.125   3.415   4.183  0.6784 -0.5181 -0.2341
 2509SOL    HW1 8426   5.170   3.381   4.099 -0.0604 -0.4439 -0.6668
 2509SOL    HW2 8427   5.178   3.387   4.263  0.5025 -2.0162 -0.6297
 2510SOL     OW 8428   3.583   6.147   2.040 -0.0794  0.2790 -0.1518
 2510SOL    HW1 8429   3.581   6.163   1.942 -0.2127 -0.0282 -0.2009
 2510SOL    HW2 8430   3.535   6.061   2.061 -0.3501  0.5161  0.2131
 2511SOL     OW 8431   6.477   0.856   3.600 -0.0226  0.4676 -0.2069
 2511SOL    HW1 8432   6.455   0.855   3.503 -3.2801  0.5571  0.4092
 2511SOL    HW2 8433   6.486   0.950   3.632  2.4312  0.4367 -0.5885
 2512SOL     OW 8434   4.730   4.897   5.161 -0.0730 -0.7516  0.0400
 2512SOL    HW1 8435   4.792   4.864   5.090 -0.7704 -1.2859 -0.3345
 2512SOL    HW2 8436   4.748   4.994   5.178  1.2362 -1.0185  0.3451
 2513SOL     OW 8437   0.536   1.332   0.010 -0.2608 -0.1107  0.2556
 2513SOL    HW1 8438   0.582   1.381  -0.064  0.2406 -0.1831  0.5133
 2513SOL    HW2 8439   0.453   1.381   0.036  0.6485  1.0611  1.0636
 2514SOL     OW 8440   6.677   0.691   2.558  0.1034 -0.2088  0.0936
 2514SOL    HW1 8441   6.599   0.692   2.495 -0.0944 -1.7822  0.2775
 2514SOL    HW2 8442   6.702   0.785   2.582 -2.2342  0.3224  0.6519
 2515SOL     OW 8443   6.759   5.773   0.184 -0.3312 -0.3601  0.2261
 2515SOL    HW1 8444   6.754   5.827   0.100 -0.3835  1.2335  1.2108
 2515SOL    HW2 8445   6.852   5.741   0.197 -0.5087 -1.4114 -0.8922
 2516SOL     OW 8446   4.424   5.375   2.997  0.1472  0.1022  0.6595
 2516SOL    HW1 8447   4.419   5.282   2.959 -0.0361 -0.0601  1.0763
 2516SOL    HW2 8448   4.379   5.377   3.086 -2.1213  1.1760 -0.4503
 2517SOL     OW 8449   2.126   5.174   2.797 -0.5354 -0.6710  0.3425
 2517SOL    HW1 8450   2.152   5.106   2.865 -2.9479 -0.7668  1.2709
 2517SOL    HW2 8451   2.171   5.154   2.711  1.5056 -1.3739  1.5128
 2518SOL     OW 8452   2.599   2.093   0.266  0.2331 -0.5013  0.5063
 2518SOL    HW1 8453   2.570   2.140   0.350  0.5295 -2.6156  1.8909
 2518SOL    HW2 8454   2.695   2.065   0.276 -0.2287 -2.3356  0.2759
 2519SOL     OW 8455   4.560   5.619   5.257 -0.2210  0.4218 -0.1270
 2519SOL    HW1 8456   4.544   5.715   5.279 -0.5502  0.0130  1.5237
 2519SOL    HW2 8457   4.475   5.577   5.225 -0.6884  0.1297  1.4032
 2520SOL     OW 8458   3.300   0.019   2.415 -0.2980  0.2481 -0.2436
 2520SOL    HW1 8459   3.227  -0.035   2.373  0.9406 -0.7358 -1.1978
 2520SOL    HW2 8460   3.364   0.048   2.344 -0.8315  2.8815  0.2661
 2521SOL     OW 8461   5.887   6.777   5.032 -0.0880 -0.0877  0.5044
 2521SOL    HW1 8462   5.912   6.733   5.118  2.4898 -2.6274 -1.3493
 2521SOL    HW2 8463   5.870   6.708   4.962 -1.6042  1.8836 -1.2211
 2522SOL     OW 8464   1.976   2.402   4.347 -0.0523  0.3520 -0.1008
 2522SOL    HW1 8465   1.956   2.320   4.293  1.1614 -0.8542  1.1915
 2522SOL    HW2 8466   2.073   2.425   4.337 -0.7001  2.6914 -1.7836
 2523SOL     OW 8467   6.916   3.181   0.939 -0.2553  0.3868  0.0554
 2523SOL    HW1 8468   6.854   3.116   0.895 -0.3019  0.1201  0.5176
 2523SOL    HW2 8469   7.008   3.170   0.903 -0.3626  0.4126 -0.2328
 2524SOL     OW 8470   5.037   0.464   5.160  0.3204  0.1501 -0.4495
 2524SOL    HW1 8471   5.134   0.449   5.144  0.5829  1.3679 -0.1638
 2524SOL    HW2 8472   5.022   0.485   5.257 -0.1911  0.1593 -0.5273
 2525SOL     OW 8473   1.845   2.863   2.745  0.7364  0.1413  0.2396
 2525SOL    HW1 8474   1.790   2.946   2.752 -1.0342 -0.9747  0.0998
 2525SOL    HW2 8475   1.796   2.786   2.787  2.2272 -0.8932  0.1672
 2526SOL     OW 8476   5.336   3.054   4.790  0.4345 -0.1307 -0.5279
 2526SOL    HW1 8477   5.273   3.029   4.864  1.2837 -0.6396  0.0376
 2526SOL    HW2 8478   5.395   3.129   4.821  0.6549 -0.2094 -0.7553
 2527SOL     OW 8479   0.591   0.611   2.360 -0.4731 -0.9157  0.1059
 2527SOL    HW1 8480   0.499   0.600   2.322 -0.7976  0.4580  0.4066
 2527SOL    HW2 8481   0.645   0.671   2.301 -1.0694  1.4532  1.8238
 2528SOL     OW 8482   6.352   5.565   0.038 -0.7163  0.0577 -0.0513
 2528SOL    HW1 8483   6.452   5.563   0.037 -0.5972 -0.3817  2.9255
 2528SOL    HW2 8484   6.321   5.658   0.053 -0.7872  0.2060 -1.0526
 2529SOL     OW 8485   5.177   4.438   3.494  0.3768 -0.4415  0.2475
 2529SOL    HW1 8486   5.267   4.473   3.467 -0.0661  0.0379 -0.6588
 2529SOL    HW2 8487   5.173   4.340   3.478  0.6852 -0.4340  0.1225
 2530SOL     OW 8488   0.835   6.294   3.217  0.5100 -0.0999  0.1226
 2530SOL    HW1 8489   0.774   6.220   3.189 -0.3207 -0.4355  2.5559
 2530SOL    HW2 8490   0.788   6.382   3.206 -0.9197 -0.4158  2.8618
 2531SOL     OW 8491   4.123   0.917   5.762 -0.2646  0.3699 -0.0489
 2531SOL    HW1 8492   4.166   0.983   5.823 -0.5268  0.7003 -0.2180
 2531SOL    HW2 8493   4.062   0.858   5.815  0.8124 -0.4711  0.2850
 2532SOL     OW 8494   6.668   6.357   6.707 -0.0905  0.4460 -0.2596
 2532SOL    HW1 8495   6.574   6.372   6.677 -0.3417 -0.0538  0.2474
 2532SOL    HW2 8496   6.670   6.280   6.771  0.5195  1.0736  0.4941
 2533SOL     OW 8497   6.149   6.439   4.404  0.2912  0.0290 -0.0116
 2533SOL    HW1 8498   6.097   6.513   4.362  1.6177  0.3183 -1.2469
 2533SOL    HW2 8499   6.114   6.351   4.372 -0.6383  0.1450  0.6636
 2534SOL     OW 8500   1.880   2.117   4.599  0.1752  0.3857 -0.3102
 2534SOL    HW1 8501   1.853   2.208   4.567  1.7212  0.9976  0.0140
 2534SOL    HW2 8502   1.884   2.054   4.522 -4.6167 -0.5206 -0.1023
 2535SOL     OW 8503   3.270   0.719   4.322 -0.0337  0.0144 -0.3216
 2535SOL    HW1 8504   3.323   0.804   4.330 -0.8633  0.4546  0.8189
 2535SOL    HW2 8505   3.209   0.710   4.401 -1.7615 -0.4105 -1.6368
 2536SOL     OW 8506   6.714   6.269   2.419  0.0638  0.0498  0.4821
 2536SOL    HW1 8507   6.747   6.300   2.509  0.5575  1.0480 -0.0207
 2536SOL    HW2 8508   6.640   6.329   2.389  1.1418  0.9247 -0.5818
 2537SOL     OW 8509   6.414   5.672   3.050 -0.0717  0.1948  0.3321
 2537SOL    HW1 8510   6.366   5.659   3.136 -2.0173 -0.2150 -0.7734
 2537SOL    HW2 8511   6.380   5.607   2.982 -0.3997  2.1310 -1.4659
 2538SOL     OW 8512   1.512   3.446   2.869 -0.0641  0.4348 -0.1687
 2538SOL    HW1 8513   1.496   3.418   2.775  2.0442 -0.2282 -0.3945
 2538SOL    HW2 8514   1.473   3.378   2.931  0.9027 -0.5933 -0.6434
 2539SOL     OW 8515   2.469   5.611   5.504  0.1634  0.2790 -0.0692
 2539SOL    HW1 8516   2.490   5.614   5.602 -0.1058 -0.5554  0.0249
 2539SOL    HW2 8517   2.398   5.542   5.487  0.3139  0.3103 -0.8706
 2540SOL     OW 8518   6.481   0.139   2.419 -0.0923 -0.0440  0.6569
 2540SOL    HW1 8519   6.543   0.214   2.441 -0.3136  0.5109 -0.5622
 2540SOL    HW2 8520   6.534   0.055   2.408  0.3345  0.2435  0.5099
 2541SOL     OW 8521   0.611   5.984   4.700  0.4710 -0.0915  0.4565
 2541SOL    HW1 8522   0.552   6.064   4.700 -0.1164 -0.4750  1.8673
 2541SOL    HW2 8523   0.562   5.906   4.661  0.2163 -0.2879  1.1561
 2542SOL     OW 8524   2.232   2.094   4.579  0.0282 -0.2431 -0.1337
 2542SOL    HW1 8525   2.133   2.092   4.574  0.0651 -0.8184 -1.0244
 2542SOL    HW2 8526   2.266   2.008   4.617  0.2038 -0.3815 -0.5862
 2543SOL     OW 8527   6.565   1.266   2.207 -0.0889  1.0292 -0.3794
 2543SOL    HW1 8528   6.657   1.230   2.193  0.3543  2.4766 -1.3851
 2543SOL    HW2 8529   6.532   1.307   2.123 -1.8679  0.1305 -0.1665
 2544SOL     OW 8530   0.227   6.853   1.392 -0.5726 -0.2405  0.5250
 2544SOL    HW1 8531   0.228   6.772   1.334 -0.8497  0.9609 -1.2241
 2544SOL    HW2 8532   0.313   6.858   1.443  0.4455 -0.3969 -1.1221
 2545SOL     OW 8533   1.260   1.026   0.810  0.1819 -0.0234 -0.1514
 2545SOL    HW1 8534   1.323   1.071   0.748 -1.4389  0.3372 -1.6395
 2545SOL    HW2 8535   1.211   0.954   0.760 -1.2558  0.3607  0.6479
 2546SOL     OW 8536   0.210   4.159   3.314  0.5555  0.3978 -0.5195
 2546SOL    HW1 8537   0.283   4.226   3.328 -1.1707  2.1711  0.5398
 2546SOL    HW2 8538   0.164   4.142   3.401  0.4197 -1.6140 -0.9328
 2547SOL     OW 8539   3.387   3.128   1.645  0.6737  0.2845 -0.2244
 2547SOL    HW1 8540   3.340   3.048   1.683 -0.8321  0.1856 -2.1424
 2547SOL    HW2 8541   3.464   3.098   1.589 -0.4301  0.0739 -1.6772
 2548SOL     OW 8542   6.537   1.611   5.976 -0.2433  0.4441 -0.1156
 2548SOL    HW1 8543   6.587   1.526   5.994  0.7359  1.1572  0.6442
 2548SOL    HW2 8544   6.526   1.623   5.878  2.5380  1.0504 -0.4293
 2549SOL     OW 8545   3.354   2.419   0.463  0.1745 -0.1728 -0.4276
 2549SOL    HW1 8546   3.393   2.337   0.421  0.7019 -0.2131  0.1292
 2549SOL    HW2 8547   3.370   2.418   0.561 -0.0855  0.4503 -0.3704
 2550SOL     OW 8548   4.548   4.718   0.978  0.4735 -0.1205  0.4410
 2550SOL    HW1 8549   4.615   4.652   1.011  0.4015  0.1431  1.1325
 2550SOL    HW2 8550   4.515   4.690   0.888  2.5602  0.4844 -0.5658
 2551SOL     OW 8551   2.522   5.493   0.275 -0.0453  0.1667  0.4288
 2551SOL    HW1 8552   2.504   5.564   0.207 -3.7822 -0.4760  0.5046
 2551SOL    HW2 8553   2.482   5.520   0.363  0.6991 -0.9572  1.1325
 2552SOL     OW 8554   6.922   0.243   0.281  0.2133  0.0153 -0.1216
 2552SOL    HW1 8555   6.979   0.326   0.278 -0.4725  0.5707  1.3617
 2552SOL    HW2 8556   6.898   0.216   0.188 -0.5961  2.2220 -0.6091
 2553SOL     OW 8557   3.424   2.748   0.494 -0.1987  0.3665  0.0369
 2553SOL    HW1 8558   3.390   2.682   0.561 -0.1122  0.8440  0.5648
 2553SOL    HW2 8559   3.346   2.788   0.444 -0.1770 -0.9746 -1.1130
 2554SOL     OW 8560   0.147   4.087   0.701  0.0731  0.1520 -0.4437
 2554SOL    HW1 8561   0.231   4.035   0.717 -1.1512 -1.6654  0.3366
 2554SOL    HW2 8562   0.147   4.168   0.759  1.3842  0.3289 -0.6473
 2555SOL     OW 8563   6.833   6.791   4.638  0.2591 -0.3231 -0.1444
 2555SOL    HW1 8564   6.852   6.872   4.694 -2.7343  0.6137 -0.2903
 2555SOL    HW2 8565   6.787   6.722   4.693 -1.2019 -0.0653 -0.9710
 2556SOL     OW 8566   3.982   0.494   0.451 -0.3088  0.5926 -0.3175
 2556SOL    HW1 8567   3.914   0.422   0.436  1.3323 -1.2805  0.8389
 2556SOL    HW2 8568   4.067   0.470   0.403  0.7399  1.0158  1.2693
 2557SOL     OW 8569   1.529   0.317   6.520 -0.6079  0.1200  0.2150
 2557SOL    HW1 8570   1.587   0.237   6.507 -1.4180 -0.1874 -1.7977
 2557SOL    HW2 8571   1.552   0.386   6.452 -1.6270  0.5759  0.3226
 2558SOL     OW 8572   6.482   3.365   1.452  0.1148 -0.3002  0.0565
 2558SOL    HW1 8573   6.527   3.367   1.541 -1.5262 -0.0652  0.9182
 2558SOL    HW2 8574   6.480   3.456   1.412 -1.0907  0.0282  0.8227
 2559SOL     OW 8575   1.275   5.798   4.234 -0.3620  0.3968 -0.6615
 2559SOL    HW1 8576   1.238   5.791   4.326  0.5008  0.0102 -0.3328
 2559SOL    HW2 8577   1.272   5.894   4.204 -1.3880  0.4075 -0.5645
 2560SOL     OW 8578   4.045   2.290   1.779 -0.5558  0.2696  0.4368
 2560SOL    HW1 8579   3.981   2.346   1.727 -0.5618 -1.0288 -1.0243
 2560SOL    HW2 8580   3.997   2.250   1.858 -1.4496 -0.3178 -0.3775
 2561SOL     OW 8581   5.657   0.026   2.924  0.0572  0.5367 -0.1314
 2561SOL    HW1 8582   5.642   0.077   2.839  0.7858  1.6942  0.4067
 2561SOL    HW2 8583   5.755   0.018   2.941 -0.0819  0.6610  0.7807
 2562SOL     OW 8584   3.647   5.683   3.338 -0.0236  0.3853  0.2350
 2562SOL    HW1 8585   3.648   5.584   3.326  0.4364  0.5009 -0.8601
 2562SOL    HW2 8586   3.587   5.707   3.414 -0.5055 -0.6977  0.2208
 2563SOL     OW 8587   2.846   0.819   1.127 -0.2857  0.2244  0.5574
 2563SOL    HW1 8588   2.796   0.772   1.054  0.7189  0.4152 -0.2757
 2563SOL    HW2 8589   2.909   0.755   1.171 -0.9628  0.0813  1.3587
 2564SOL     OW 8590   2.095   3.868   1.425  0.1233 -0.2588 -0.1858
 2564SOL    HW1 8591   2.190   3.898   1.419  0.3690 -0.2468  2.3854
 2564SOL    HW2 8592   2.042   3.935   1.476 -0.4179 -1.8459  1.4464
 2565SOL     OW 8593   1.651   2.162   0.912 -0.5245  0.2099 -0.5358
 2565SOL    HW1 8594   1.603   2.186   0.996  0.3667  0.4697 -0.0917
 2565SOL    HW2 8595   1.639   2.235   0.845  0.1912  0.8081 -0.0228
 2566SOL     OW 8596   1.843   6.889   1.307 -0.6277  0.1404 -0.1343
 2566SOL    HW1 8597   1.896   6.885   1.392 -0.5524  3.2921  0.1022
 2566SOL    HW2 8598   1.880   6.824   1.241  3.6382  2.0266  0.0480
 2567SOL     OW 8599   0.963   5.981   1.240 -0.0977 -0.5701  0.6248
 2567SOL    HW1 8600   0.982   6.031   1.325  0.2522  0.3676  0.0061
 2567SOL    HW2 8601   0.921   5.893   1.263 -2.2173  0.6240  1.6878
 2568SOL     OW 8602   1.589   6.948   2.338  0.2688  0.0516 -0.6106
 2568SOL    HW1 8603   1.546   6.858   2.331 -0.4361  0.3089  0.2395
 2568SOL    HW2 8604   1.631   6.958   2.428 -1.1698  1.2088 -0.0413
 2569SOL     OW 8605   6.621   1.200   0.513 -0.0286 -0.1276  0.0815
 2569SOL    HW1 8606   6.533   1.168   0.548 -0.5968  0.8718 -0.3625
 2569SOL    HW2 8607   6.676   1.123   0.482 -0.3734 -0.8428  1.1987
 2570SOL     OW 8608   5.799   2.120   6.329  0.3259 -0.3236  0.0456
 2570SOL    HW1 8609   5.782   2.023   6.344 -1.0013  0.2020  2.3954
 2570SOL    HW2 8610   5.714   2.172   6.339  1.0907  1.1558 -0.6745
 2571SOL     OW 8611   3.133   3.988   5.758  0.0226  0.5163  0.1576
 2571SOL    HW1 8612   3.156   3.960   5.664  2.7281  0.6813  0.6810
 2571SOL    HW2 8613   3.125   4.088   5.761 -3.1231  0.3935 -0.4073
 2572SOL     OW 8614   0.385   6.689   3.679 -0.4094  0.1399 -0.1602
 2572SOL    HW1 8615   0.466   6.665   3.626 -0.8099 -0.4115 -0.5320
 2572SOL    HW2 8616   0.408   6.762   3.744  0.2208  0.4463 -0.7104
 2573SOL     OW 8617   0.055   2.330   5.963 -0.2603 -0.6954 -0.7203
 2573SOL    HW1 8618   0.085   2.251   5.911  0.3849 -2.0924  1.6426
 2573SOL    HW2 8619   0.126   2.401   5.961  0.0420 -1.0093 -1.1572
 2574SOL     OW 8620   6.903   4.663   1.962 -0.3769  0.2414  0.3389
 2574SOL    HW1 8621   6.850   4.582   1.984 -1.3146  0.2541 -1.6191
 2574SOL    HW2 8622   6.999   4.638   1.947 -0.5693 -0.4238  0.2029
 2575SOL     OW 8623   4.617   2.365   0.682 -0.5364 -0.0509  0.3613
 2575SOL    HW1 8624   4.701   2.311   0.687 -0.4969  0.1212  2.4901
 2575SOL    HW2 8625   4.565   2.338   0.601 -0.0090 -2.5305  0.7582
 2576SOL     OW 8626   2.867   0.181   3.836  0.3768  0.6989  0.1327
 2576SOL    HW1 8627   2.954   0.139   3.863 -0.0015 -0.5252 -0.4638
 2576SOL    HW2 8628   2.881   0.240   3.756  0.6381  0.4076 -0.0358
 2577SOL     OW 8629   1.259   5.748   3.819 -0.3109  0.1700 -0.3514
 2577SOL    HW1 8630   1.312   5.704   3.891  1.2856  0.2792 -1.4025
 2577SOL    HW2 8631   1.191   5.809   3.860 -1.3975 -1.8936  1.0778
 2578SOL     OW 8632   5.659   3.684   2.561  0.2374 -0.2054  0.2827
 2578SOL    HW1 8633   5.705   3.699   2.648 -0.8614 -1.7712  1.1962
 2578SOL    HW2 8634   5.578   3.742   2.556  0.7044  0.4324 -0.0487
 2579SOL     OW 8635   0.722   2.288   0.920 -0.0713  0.0802 -0.3367
 2579SOL    HW1 8636   0.687   2.233   0.996 -1.1517  4.1038  2.3892
 2579SOL    HW2 8637   0.646   2.317   0.862  0.5018 -1.2272 -1.8185
 2580SOL     OW 8638   1.488   3.378   6.461 -0.2298  0.2396 -0.4035
 2580SOL    HW1 8639   1.509   3.282   6.449  2.3718  0.8853 -1.6475
 2580SOL    HW2 8640   1.504   3.428   6.376 -3.7979  1.4879 -0.5062
 2581SOL     OW 8641   0.321   0.421   3.116 -0.3844  0.3675 -0.0089
 2581SOL    HW1 8642   0.270   0.373   3.045 -0.7571  0.3174  0.2860
 2581SOL    HW2 8643   0.388   0.482   3.074 -0.1338 -0.1639 -0.3927
 2582SOL     OW 8644   6.977   6.331   2.280 -0.1457 -0.1153  0.2927
 2582SOL    HW1 8645   6.881   6.315   2.302 -0.6459  0.4960 -1.2955
 2582SOL    HW2 8646   7.005   6.273   2.204  0.4201  0.4837  0.0260
 2583SOL     OW 8647   0.224   6.198   0.388 -0.0204  0.1024  0.8015
 2583SOL    HW1 8648   0.256   6.103   0.387 -0.4483 -0.0430  0.1538
 2583SOL    HW2 8649   0.152   6.209   0.320 -0.0459  0.8724  0.9482
 2584SOL     OW 8650   2.498   6.089   1.603 -0.2969 -0.2511  0.1886
 2584SOL    HW1 8651   2.492   6.147   1.685 -0.6010 -0.1088  0.0656
 2584SOL    HW2 8652   2.585   6.038   1.605  0.5602  1.1375 -0.3191
 2585SOL     OW 8653   1.671   0.974   1.230 -0.3019 -0.0007  0.1796
 2585SOL    HW1 8654   1.616   0.966   1.313  1.8782 -0.6945  1.6678
 2585SOL    HW2 8655   1.632   1.045   1.171 -1.3778  1.2864  2.2800
 2586SOL     OW 8656   6.297   1.190   2.830 -0.4604  0.1510 -0.0628
 2586SOL    HW1 8657   6.325   1.242   2.750 -1.0695  0.8912  0.1935
 2586SOL    HW2 8658   6.204   1.156   2.818 -0.2465 -0.4501 -0.0210
 2587SOL     OW 8659   6.239   4.898   3.437  0.4289  0.1350 -0.4729
 2587SOL    HW1 8660   6.145   4.917   3.407 -0.8166 -1.3596  2.0855
 2587SOL    HW2 8661   6.262   4.960   3.512  0.5444 -1.0405  0.4916
 2588SOL     OW 8662   5.940   1.400   1.555 -0.7354  0.6184  0.6977
 2588SOL    HW1 8663   5.945   1.500   1.564  0.5759  0.9169 -2.1826
 2588SOL    HW2 8664   6.032   1.363   1.543 -1.3467 -0.6785 -0.1917
 2589SOL     OW 8665   5.938   5.612   6.286  0.2833 -0.4465 -0.0295
 2589SOL    HW1 8666   5.976   5.535   6.336 -1.1185 -1.3135 -0.2447
 2589SOL    HW2 8667   5.897   5.677   6.351  0.0163 -0.7013  0.0576
 2590SOL     OW 8668   5.838   1.108   1.508  0.4946  0.0853 -0.1811
 2590SOL    HW1 8669   5.834   1.011   1.486 -0.5600 -0.0557  0.5607
 2590SOL    HW2 8670   5.931   1.133   1.535  1.5472 -0.0253 -3.2897
 2591SOL     OW 8671   5.545   0.408   1.373 -0.3355 -0.0543 -0.0824
 2591SOL    HW1 8672   5.485   0.463   1.315 -1.1109  0.9362  1.6035
 2591SOL    HW2 8673   5.499   0.322   1.396  0.1895 -0.6937 -1.3189
 2592SOL     OW 8674   4.709   4.880   2.376  0.9855 -0.3380 -0.7079
 2592SOL    HW1 8675   4.623   4.874   2.326  0.9507 -0.0545 -0.6801
 2592SOL    HW2 8676   4.729   4.791   2.417 -0.3916  0.1358  1.1150
 2593SOL     OW 8677   3.125   0.347   3.736 -0.1129 -0.0331 -0.1626
 2593SOL    HW1 8678   3.051   0.364   3.670 -1.0985 -2.5822  0.1964
 2593SOL    HW2 8679   3.095   0.374   3.827  0.4738  1.4850 -0.3766
 2594SOL     OW 8680   3.315   0.058   6.187  0.4388 -0.8222 -0.8948
 2594SOL    HW1 8681   3.413   0.050   6.202  0.4066 -2.0369 -1.2253
 2594SOL    HW2 8682   3.266  -0.003   6.249 -0.1707  0.3177 -0.2112
 2595SOL     OW 8683   6.831   4.373   4.824 -0.1121 -0.0192  0.3767
 2595SOL    HW1 8684   6.776   4.351   4.744  1.4519 -0.0399 -0.7333
 2595SOL    HW2 8685   6.810   4.308   4.898 -0.6238 -0.8471 -0.4741
 2596SOL     OW 8686   3.861   2.220   1.027 -0.1293 -0.3934 -0.5942
 2596SOL    HW1 8687   3.955   2.187   1.038  0.4831  1.0191 -1.2743
 2596SOL    HW2 8688   3.863   2.317   1.005 -1.6546 -0.8256 -2.9498
 2597SOL     OW 8689   2.880   3.882   6.583  0.3419 -0.5630  0.5033
 2597SOL    HW1 8690   2.968   3.851   6.548  1.0687  0.7599  1.0780
 2597SOL    HW2 8691   2.886   3.893   6.682  0.5328  2.4088  0.2669
 2598SOL     OW 8692   1.410   3.586   1.404  0.0561  0.4665  0.1049
 2598SOL    HW1 8693   1.405   3.654   1.332  2.0935  0.4964 -0.0373
 2598SOL    HW2 8694   1.465   3.621   1.480  1.1067 -0.9675  0.0459
 2599SOL     OW 8695   5.166   4.698   6.625 -0.4617 -0.2024 -0.3345
 2599SOL    HW1 8696   5.168   4.784   6.574  0.8157  0.6683  1.0871
 2599SOL    HW2 8697   5.097   4.703   6.697 -1.8825 -1.2232 -1.5636
 2600SOL     OW 8698   6.569   5.006   2.978  0.0646  0.0374 -0.8267
 2600SOL    HW1 8699   6.618   4.980   3.060 -0.5775  1.6221  0.0987
 2600SOL    HW2 8700   6.514   4.928   2.946  0.3649 -0.6146  0.2016
 2601SOL     OW 8701   2.852   4.124   6.433  0.2313  0.5574 -0.4041
 2601SOL    HW1 8702   2.862   4.056   6.505  0.0504 -0.7815 -1.5959
 2601SOL    HW2 8703   2.931   4.186   6.434 -0.6607  1.7823  2.0951
 2602SOL     OW 8704   0.841   4.711   4.467 -0.3106  0.6386 -0.2898
 2602SOL    HW1 8705   0.861   4.751   4.556  0.3620  0.6321 -0.4333
 2602SOL    HW2 8706   0.742   4.711   4.452 -0.3746  1.5495  0.0368
 2603SOL     OW 8707   2.731   2.610   7.019 -0.4905 -0.7223  0.1088
 2603SOL    HW1 8708   2.816   2.623   6.969 -1.0829 -0.9770 -0.9952
 2603SOL    HW2 8709   2.697   2.699   7.050 -0.2111 -0.5473 -0.0867
 2604SOL     OW 8710   4.506   6.357   0.738  0.2221 -0.0573 -0.2950
 2604SOL    HW1 8711   4.502   6.406   0.651  1.6434 -1.0888 -0.9680
 2604SOL    HW2 8712   4.594   6.310   0.746 -0.3909 -1.0108  1.1442
 2605SOL     OW 8713   4.683   6.290   4.400  0.7170 -1.0485  0.0897
 2605SOL    HW1 8714   4.654   6.194   4.407  0.1847 -0.8202  1.3526
 2605SOL    HW2 8715   4.770   6.295   4.352 -0.3907 -1.9352 -2.1732
 2606SOL     OW 8716   0.712   3.786   6.759 -0.2041  0.5725  0.1904
 2606SOL    HW1 8717   0.811   3.787   6.748  0.0934  2.7653  2.3517
 2606SOL    HW2 8718   0.688   3.737   6.843 -1.0541 -0.5599 -0.6784
 2607SOL     OW 8719   0.441   0.127   4.241  0.2206 -0.4132 -0.1616
 2607SOL    HW1 8720   0.511   0.117   4.170  0.2002  0.3361 -0.2957
 2607SOL    HW2 8721   0.466   0.202   4.302 -0.3547 -0.2789 -0.0862
 2608SOL     OW 8722   4.440   1.431   0.229  0.2903 -0.1315  0.3173
 2608SOL    HW1 8723   4.356   1.389   0.260 -0.9506 -0.0699 -2.6317
 2608SOL    HW2 8724   4.475   1.493   0.300 -3.5617  1.8475  0.7398
 2609SOL     OW 8725   1.206   0.364   0.997  0.5451 -0.6959 -0.3102
 2609SOL    HW1 8726   1.204   0.367   0.898  1.7906 -0.7473 -0.3530
 2609SOL    HW2 8727   1.121   0.323   1.032 -0.0949 -0.2522 -1.3179
 2610SOL     OW 8728   6.382   5.154   6.176  0.2458  0.7276 -0.0859
 2610SOL    HW1 8729   6.371   5.132   6.273 -3.0953 -0.2956 -0.5562
 2610SOL    HW2 8730   6.461   5.106   6.140  0.6271 -0.1673  1.7805
 2611SOL     OW 8731   5.772   5.825   1.043  0.5083 -0.2194 -0.1072
 2611SOL    HW1 8732   5.702   5.841   1.113  0.6394 -1.9087  0.4379
 2611SOL    HW2 8733   5.831   5.906   1.037  0.1080  0.2065  1.2749
 2612SOL     OW 8734   6.181   0.412   2.357  0.5017  0.5346 -0.0381
 2612SOL    HW1 8735   6.259   0.394   2.298 -0.5971  0.3804 -1.5283
 2612SOL    HW2 8736   6.102   0.437   2.300 -0.3604  1.3583  1.4417
 2613SOL     OW 8737   4.466   0.871   1.311  0.0179 -0.5597 -0.1664
 2613SOL    HW1 8738   4.509   0.934   1.247 -1.2418 -0.8676 -1.3544
 2613SOL    HW2 8739   4.476   0.777   1.279  2.1042 -1.0835  1.7239
 2614SOL     OW 8740   5.860   1.490   0.275  0.5112 -0.1315 -0.0660
 2614SOL    HW1 8741   5.841   1.396   0.301  0.2541  0.1652  0.8901
 2614SOL    HW2 8742   5.773   1.537   0.257  0.2577  0.8661  3.0070
 2615SOL     OW 8743   4.020   5.944   2.858 -0.0266  0.2628 -0.3996
 2615SOL    HW1 8744   4.032   5.994   2.944  0.7468  0.3108 -0.5340
 2615SOL    HW2 8745   4.100   5.887   2.841 -0.8434 -0.9537 -0.3003
 2616SOL     OW 8746   3.896   3.459   3.874  0.1963  0.2641  0.0772
 2616SOL    HW1 8747   3.988   3.419   3.876  0.9779  1.8644 -1.2872
 2616SOL    HW2 8748   3.856   3.446   3.784  1.1847  3.8412 -1.0320
 2617SOL     OW 8749   1.937   6.927   0.913 -0.0769  0.0600 -0.3742
 2617SOL    HW1 8750   1.866   6.982   0.958 -1.3572 -1.8464  0.0483
 2617SOL    HW2 8751   1.908   6.832   0.909  1.4789 -0.3923 -2.3188
 2618SOL     OW 8752   6.710   0.234   6.141  0.1445 -0.3925 -0.0946
 2618SOL    HW1 8753   6.690   0.332   6.138 -0.8248 -0.5893 -0.3349
 2618SOL    HW2 8754   6.669   0.194   6.223  0.7093 -0.5642  0.1064
 2619SOL     OW 8755   6.113   1.417   1.097  0.2851  0.0953 -1.1912
 2619SOL    HW1 8756   6.104   1.516   1.088 -2.0674  0.0897  0.1990
 2619SOL    HW2 8757   6.170   1.395   1.176 -0.2031  0.3777 -0.7539
 2620SOL     OW 8758   0.246   4.063   2.266  0.5411 -0.1754  0.1296
 2620SOL    HW1 8759   0.324   4.106   2.312  0.3741  0.6372 -0.3308
 2620SOL    HW2 8760   0.176   4.132   2.247  0.5598 -0.4994 -1.2265
 2621SOL     OW 8761   0.009   2.360   5.303  0.1790 -0.6800  0.3230
 2621SOL    HW1 8762   0.083   2.427   5.310  0.2264 -0.5806 -0.9021
 2621SOL    HW2 8763   0.036   2.288   5.239 -1.1627 -0.1090 -0.9396
 2622SOL     OW 8764   1.939   3.454   0.415 -0.0826  0.1927 -0.7506
 2622SOL    HW1 8765   2.019   3.434   0.359  0.4926 -0.5496  0.3016
 2622SOL    HW2 8766   1.880   3.373   0.419  0.7596 -0.3824  1.0983
 2623SOL     OW 8767   3.496   1.489   5.922  0.1361 -0.9098 -0.5981
 2623SOL    HW1 8768   3.412   1.529   5.960  1.5251  0.8120  0.8902
 2623SOL    HW2 8769   3.559   1.468   5.997  0.9874 -2.3341 -1.6732
 2624SOL     OW 8770   6.164   1.087   3.385 -0.7353 -0.2061 -0.3016
 2624SOL    HW1 8771   6.261   1.078   3.406 -0.9218  0.0640  0.7260
 2624SOL    HW2 8772   6.132   1.004   3.340  0.2171  0.1462 -1.7058
 2625SOL     OW 8773   1.509   3.068   4.356 -0.2192 -0.0094  0.2055
 2625SOL    HW1 8774   1.516   3.051   4.257 -0.6728 -0.3927  0.2296
 2625SOL    HW2 8775   1.430   3.127   4.374  0.1184  0.4103  0.3023
 2626SOL     OW 8776   0.093   5.473   2.997  0.2116  0.3212  0.5967
 2626SOL    HW1 8777   0.064   5.567   2.980 -1.3528  0.0854  1.6829
 2626SOL    HW2 8778   0.012   5.414   3.002  1.0728 -0.8435  1.2779
 2627SOL     OW 8779   0.973   0.263   3.097  0.4205 -0.6861 -0.0441
 2627SOL    HW1 8780   1.020   0.197   3.038  1.6715 -1.0714  1.3266
 2627SOL    HW2 8781   0.875   0.245   3.094  0.4130 -0.5467 -2.1529
 2628SOL     OW 8782   5.937   5.869   6.024 -0.1148  0.0407  0.2344
 2628SOL    HW1 8783   5.878   5.866   6.104 -0.1314  0.2067  0.2289
 2628SOL    HW2 8784   5.882   5.887   5.942 -0.2326 -1.1391  0.0467
 2629SOL     OW 8785   3.852   2.738   0.456  0.7095  0.0498  0.0782
 2629SOL    HW1 8786   3.870   2.644   0.485 -1.2215 -0.8606 -1.4641
 2629SOL    HW2 8787   3.913   2.762   0.380 -0.0574 -0.6658 -0.7851
 2630SOL     OW 8788   5.532   2.820   2.552 -0.0090  0.4271  0.9664
 2630SOL    HW1 8789   5.584   2.898   2.517 -0.3579 -0.0888 -0.8438
 2630SOL    HW2 8790   5.441   2.819   2.510 -0.0803 -0.8320  1.0980
 2631SOL     OW 8791   4.783   5.948   5.116  0.5658  0.2668 -0.3438
 2631SOL    HW1 8792   4.798   5.850   5.113 -1.7811 -0.1657 -0.1552
 2631SOL    HW2 8793   4.796   5.987   5.024  1.8352 -0.1376 -0.3499
 2632SOL     OW 8794   3.226   1.446   6.294  0.7048 -0.8514  0.1924
 2632SOL    HW1 8795   3.301   1.471   6.356  0.6832 -0.0309 -0.1100
 2632SOL    HW2 8796   3.256   1.371   6.235  1.6311  0.0933 -0.5721
 2633SOL     OW 8797   6.543   1.076   4.776 -0.4303  0.4913 -0.3570
 2633SOL    HW1 8798   6.528   1.118   4.865  1.6893  2.5960 -0.9033
 2633SOL    HW2 8799   6.457   1.037   4.743 -1.8580  1.9404  1.4415
 2634SOL     OW 8800   2.928   5.650   3.230  0.3528  0.1822  0.0831
 2634SOL    HW1 8801   3.011   5.701   3.204 -0.3087  1.4863  0.4205
 2634SOL    HW2 8802   2.847   5.701   3.201 -0.3673 -1.5636 -1.1541
 2635SOL     OW 8803   6.136   5.140   4.803 -0.0696 -0.0001  0.2082
 2635SOL    HW1 8804   6.058   5.083   4.829  0.1352  0.5223  2.1449
 2635SOL    HW2 8805   6.189   5.163   4.885  0.5925  1.8896 -0.6893
 2636SOL     OW 8806   5.354   6.842   5.774  0.6865  0.0163 -0.1065
 2636SOL    HW1 8807   5.423   6.895   5.824  2.5363 -2.5632  0.2725
 2636SOL    HW2 8808   5.366   6.857   5.676 -1.1358  2.9040 -0.0104
 2637SOL     OW 8809   5.544   6.484   3.950 -0.1307 -0.4056  0.0363
 2637SOL    HW1 8810   5.504   6.504   4.040  0.4436  0.4572  0.1055
 2637SOL    HW2 8811   5.496   6.535   3.880  1.4434  1.4508  0.2324
 2638SOL     OW 8812   5.863   5.722   6.893  0.5218 -0.4232 -0.5254
 2638SOL    HW1 8813   5.891   5.780   6.816 -0.8545  0.0406 -0.6999
 2638SOL    HW2 8814   5.822   5.778   6.965  0.0254 -1.0675 -0.2917
 2639SOL     OW 8815   6.222   6.275   0.811 -0.4904  0.3125 -0.1832
 2639SOL    HW1 8816   6.291   6.290   0.882 -1.6156  2.7577  0.4716
 2639SOL    HW2 8817   6.266   6.279   0.721  0.3204  1.1603  0.2358
 2640SOL     OW 8818   0.443   6.996   0.729 -0.1460 -0.5925 -0.0402
 2640SOL    HW1 8819   0.385   6.952   0.661 -1.6164  1.2700 -0.0492
 2640SOL    HW2 8820   0.389   7.057   0.786  1.8838  2.0645 -0.7100
 2641SOL     OW 8821   4.797   2.454   6.414  0.4094  0.5715  0.0827
 2641SOL    HW1 8822   4.836   2.371   6.454  1.0880  0.8942  0.1065
 2641SOL    HW2 8823   4.832   2.534   6.462  0.2861  0.9068 -0.3732
 2642SOL     OW 8824   5.275   1.463   3.059  0.1247  0.3899 -0.5014
 2642SOL    HW1 8825   5.274   1.385   3.120 -1.2883  0.2641 -0.6522
 2642SOL    HW2 8826   5.181   1.495   3.043  0.6274  1.7623 -0.8870
 2643SOL     OW 8827   0.904   6.632   3.419  0.0261 -0.0733  0.4944
 2643SOL    HW1 8828   0.992   6.654   3.377  0.6733  0.3631  1.9910
 2643SOL    HW2 8829   0.920   6.582   3.505 -1.2097 -0.3829  0.5664
 2644SOL     OW 8830   1.203   5.780   4.891  0.0045 -0.2076 -0.3227
 2644SOL    HW1 8831   1.172   5.874   4.901  1.8636  0.4230 -0.1480
 2644SOL    HW2 8832   1.129   5.725   4.851 -0.1477  2.0119 -3.5213
 2645SOL     OW 8833   6.219   0.336   4.712  0.0415  0.0094 -0.1394
 2645SOL    HW1 8834   6.155   0.280   4.660 -0.9347  0.9611  0.0002
 2645SOL    HW2 8835   6.212   0.431   4.683  2.6286 -0.0734 -1.3216
 2646SOL     OW 8836   6.795   0.839   6.442 -0.1170 -0.2786 -0.1385
 2646SOL    HW1 8837   6.733   0.837   6.520 -0.9121 -0.4021 -0.7597
 2646SOL    HW2 8838   6.817   0.745   6.415  1.4138 -0.2410  0.9025
 2647SOL     OW 8839   3.609   2.247   1.177  0.1812 -0.3334  0.2267
 2647SOL    HW1 8840   3.537   2.211   1.117  0.2738 -0.5951  0.2711
 2647SOL    HW2 8841   3.698   2.214   1.147  0.1678 -1.0404  0.9155
 2648SOL     OW 8842   3.195   5.681   1.918 -0.3901 -0.1095 -0.2071
 2648SOL    HW1 8843   3.152   5.619   1.852  0.3323 -0.8083 -0.0275
 2648SOL    HW2 8844   3.180   5.776   1.888 -1.6195 -0.3474 -0.4071
 2649SOL     OW 8845   3.529   1.833   1.579  1.0919 -0.0107 -0.4418
 2649SOL    HW1 8846   3.462   1.771   1.619 -0.0111  1.5419  0.1998
 2649SOL    HW2 8847   3.501   1.928   1.594  2.6700  0.6739 -1.4839
 2650SOL     OW 8848   5.794   5.261   4.875 -0.1841 -0.1564  0.3112
 2650SOL    HW1 8849   5.855   5.182   4.875  0.6309  0.4542  0.6661
 2650SOL    HW2 8850   5.842   5.341   4.912 -1.0944  0.4291  0.2819
 2651SOL     OW 8851   1.020   1.589   1.779  0.0881  0.5775 -0.4727
 2651SOL    HW1 8852   0.928   1.549   1.776 -1.1840  3.3103 -0.8180
 2651SOL    HW2 8853   1.088   1.516   1.776 -2.0324 -1.4828 -1.7052
 2652SOL     OW 8854   3.525   3.509   4.280 -0.0054 -0.0344  0.4058
 2652SOL    HW1 8855   3.513   3.500   4.379 -0.3630 -0.5743  0.3167
 2652SOL    HW2 8856   3.612   3.555   4.261 -0.3532  0.8826  0.9851
 2653SOL     OW 8857   6.593   0.321   5.360 -0.1297 -0.1185  0.0617
 2653SOL    HW1 8858   6.597   0.222   5.367  0.8937 -0.0751  0.2564
 2653SOL    HW2 8859   6.615   0.362   5.449 -1.0965  0.2868  0.1311
 2654SOL     OW 8860   4.801   2.000   4.312  0.3183  0.6303 -0.3517
 2654SOL    HW1 8861   4.792   2.079   4.372  0.7638  0.7344 -0.4236
 2654SOL    HW2 8862   4.872   1.939   4.347 -0.3055  0.0517 -0.0652
 2655SOL     OW 8863   4.159   5.844   4.475 -0.0411 -0.3496 -0.5662
 2655SOL    HW1 8864   4.194   5.929   4.436  0.0665 -0.0637  0.1416
 2655SOL    HW2 8865   4.181   5.767   4.415  2.1443 -0.2451  0.0453
 2656SOL     OW 8866   6.538   4.520   3.193  0.3388 -0.1393  0.1531
 2656SOL    HW1 8867   6.595   4.517   3.275  1.5027  0.5732 -0.5904
 2656SOL    HW2 8868   6.458   4.578   3.210  0.8363  0.4303  0.6395
 2657SOL     OW 8869   0.893   5.216   6.700  0.4142 -0.4758  0.0805
 2657SOL    HW1 8870   0.834   5.176   6.630 -1.2033 -2.6006  2.4396
 2657SOL    HW2 8871   0.961   5.148   6.729 -0.1348 -0.3463  1.7945
 2658SOL     OW 8872   6.885   4.716   5.622 -0.0602  0.4545  0.2208
 2658SOL    HW1 8873   6.823   4.714   5.544 -1.0566  1.2466  0.9592
 2658SOL    HW2 8874   6.940   4.632   5.624  0.8513  0.9310 -1.9832
 2659SOL     OW 8875   4.713   2.045   4.715 -0.3044 -0.1732 -0.7014
 2659SOL    HW1 8876   4.725   2.109   4.639 -0.6649  0.0049 -0.6123
 2659SOL    HW2 8877   4.786   2.060   4.783 -0.2379 -0.0347 -0.8027
 2660SOL     OW 8878   4.836   3.882   2.048  0.2592  0.7455 -0.6077
 2660SOL    HW1 8879   4.821   3.790   2.013  0.1486  0.3047  0.5408
 2660SOL    HW2 8880   4.858   3.877   2.146 -0.2492  1.9767 -0.4136
 2661SOL     OW 8881   1.919   0.866   1.128 -0.0126  0.6762 -0.3429
 2661SOL    HW1 8882   1.986   0.931   1.164 -1.0051  1.4332  0.2243
 2661SOL    HW2 8883   1.827   0.897   1.154 -0.6242  0.0653 -1.7165
 2662SOL     OW 8884   6.002   5.246   4.583 -0.1924  0.5203 -0.3964
 2662SOL    HW1 8885   6.040   5.208   4.667 -0.2394  0.8052 -0.2455
 2662SOL    HW2 8886   6.018   5.182   4.507 -0.6614 -0.0031 -0.0648
 2663SOL     OW 8887   1.772   6.038   2.563  0.1478 -0.2971 -0.4688
 2663SOL    HW1 8888   1.730   6.126   2.538  0.8706  0.0007 -0.6753
 2663SOL    HW2 8889   1.769   5.976   2.485 -1.6968 -1.0152  0.1054
 2664SOL     OW 8890   3.429   4.162   4.241  0.2041 -0.1127 -0.5283
 2664SOL    HW1 8891   3.482   4.246   4.248 -0.7370  0.4251  0.3181
 2664SOL    HW2 8892   3.445   4.120   4.151  0.6025  1.0211 -1.0078
 2665SOL     OW 8893   3.644   1.422   5.413  0.1958  0.2847 -0.3865
 2665SOL    HW1 8894   3.605   1.423   5.505  0.1323  1.5305 -0.4086
 2665SOL    HW2 8895   3.597   1.489   5.356 -0.4804 -1.2224 -1.6571
 2666SOL     OW 8896   6.321   4.619   0.986  0.0027 -0.4872  0.3193
 2666SOL    HW1 8897   6.332   4.604   0.888  0.9176 -5.0044  0.8487
 2666SOL    HW2 8898   6.407   4.652   1.025  0.8738 -2.2161 -0.0300
 2667SOL     OW 8899   2.476   1.500   5.698 -0.0884  0.0711 -0.3610
 2667SOL    HW1 8900   2.514   1.555   5.772  0.5945 -0.5269 -0.2529
 2667SOL    HW2 8901   2.380   1.524   5.683 -0.1910  0.2864  0.6246
 2668SOL     OW 8902   0.700   2.181   3.517  0.2712 -0.0172  0.4357
 2668SOL    HW1 8903   0.790   2.172   3.559  0.6802 -1.2641 -0.6165
 2668SOL    HW2 8904   0.658   2.268   3.544  2.6193  1.5261 -0.6124
 2669SOL     OW 8905   3.463   5.377   5.324  0.0263 -0.4605 -0.5019
 2669SOL    HW1 8906   3.387   5.396   5.262  0.9703  1.1210 -1.2398
 2669SOL    HW2 8907   3.502   5.288   5.302 -1.6184 -1.3360 -0.0605
 2670SOL     OW 8908   6.120   2.144   0.679 -0.1544  0.1319 -0.0730
 2670SOL    HW1 8909   6.027   2.180   0.677  0.0153  0.5777  0.1138
 2670SOL    HW2 8910   6.117   2.044   0.668 -0.6803  0.0984  0.3305
 2671SOL     OW 8911   6.950   5.655   6.326 -0.3950 -0.1900 -0.0149
 2671SOL    HW1 8912   7.007   5.621   6.401 -0.9937  0.0044  0.5325
 2671SOL    HW2 8913   6.941   5.584   6.256 -0.3273 -0.5825  0.3756
 2672SOL     OW 8914   1.005   5.874   0.201  0.4191  0.3181 -0.3262
 2672SOL    HW1 8915   1.071   5.835   0.138  0.5670 -0.1515  0.1127
 2672SOL    HW2 8916   1.048   5.887   0.291  0.4034  1.5818 -0.4804
 2673SOL     OW 8917   4.827   3.014   2.919  0.2053 -0.0325  0.4654
 2673SOL    HW1 8918   4.897   2.945   2.903  1.9033  1.5112  0.8282
 2673SOL    HW2 8919   4.833   3.085   2.849 -1.0340  0.1247  0.4918
 2674SOL     OW 8920   1.109   6.989   4.584  0.6650  0.3095 -0.0074
 2674SOL    HW1 8921   1.082   7.084   4.600  0.6245  0.4715 -0.9775
 2674SOL    HW2 8922   1.027   6.933   4.572  0.6977  0.2188  0.1900
 2675SOL     OW 8923   0.280   4.609   6.112  0.0428 -0.2309 -0.1838
 2675SOL    HW1 8924   0.351   4.545   6.082 -0.2177 -0.0761 -1.1930
 2675SOL    HW2 8925   0.310   4.657   6.194  0.0096 -2.0400  0.9332
 2676SOL     OW 8926   3.968   1.518   0.945  0.1534 -0.5854  0.5729
 2676SOL    HW1 8927   3.876   1.507   0.981  0.2599  0.2388  1.1341
 2676SOL    HW2 8928   3.995   1.614   0.952  0.6261 -0.6094 -0.6395
 2677SOL     OW 8929   1.238   4.539   3.331  0.1073 -0.5123  0.7617
 2677SOL    HW1 8930   1.175   4.610   3.362  0.3141  0.1356 -0.2662
 2677SOL    HW2 8931   1.197   4.449   3.346 -0.9003 -0.1089  0.4591
 2678SOL     OW 8932   2.124   5.098   5.875  0.3176 -0.1800 -0.2760
 2678SOL    HW1 8933   2.049   5.034   5.890 -0.0247  0.4161  0.5820
 2678SOL    HW2 8934   2.109   5.147   5.789 -0.6094  0.3808  0.1906
 2679SOL     OW 8935   3.249   3.128   0.387 -0.3701 -0.1455 -0.5502
 2679SOL    HW1 8936   3.331   3.125   0.445 -0.9464  0.0047  0.2984
 2679SOL    HW2 8937   3.267   3.185   0.307 -0.2044  1.4572  0.5671
 2680SOL     OW 8938   2.179   1.242   3.666  0.0991  0.3592  0.4268
 2680SOL    HW1 8939   2.142   1.258   3.574  0.9078 -0.2229 -0.0068
 2680SOL    HW2 8940   2.188   1.143   3.682  1.8118  0.4782  0.3706
 2681SOL     OW 8941   1.566   2.919   2.260 -0.3906  0.5098  0.4884
 2681SOL    HW1 8942   1.577   2.898   2.357  0.1100  3.0345  1.0404
 2681SOL    HW2 8943   1.656   2.926   2.217 -0.4941  1.7938  0.4377
 2682SOL     OW 8944   4.535   2.161   3.050  0.2372  0.1696 -0.0908
 2682SOL    HW1 8945   4.587   2.128   2.971 -0.9560  0.2649 -0.9503
 2682SOL    HW2 8946   4.520   2.259   3.041 -0.0293  0.1548  0.1665
 2683SOL     OW 8947   0.248   6.641   0.953  0.6321 -0.0582 -0.3478
 2683SOL    HW1 8948   0.181   6.710   0.926  0.2225 -0.2445  0.1705
 2683SOL    HW2 8949   0.246   6.630   1.053 -0.9460 -2.4464 -0.5645
 2684SOL     OW 8950   1.541   0.019   1.902 -0.2501  0.0654  0.3391
 2684SOL    HW1 8951   1.444   0.016   1.923 -0.3729 -0.3699 -0.2575
 2684SOL    HW2 8952   1.592   0.051   1.982 -0.6882 -1.5466  1.3097
 2685SOL     OW 8953   3.633   5.465   4.863  0.1392 -0.3855 -0.4284
 2685SOL    HW1 8954   3.603   5.372   4.842 -2.1740 -0.2280  1.7495
 2685SOL    HW2 8955   3.731   5.465   4.883  0.0989 -2.4393 -0.0259
 2686SOL     OW 8956   1.586   1.742   3.435 -0.2163  0.2806  0.2414
 2686SOL    HW1 8957   1.644   1.680   3.488  0.0925 -0.4856 -0.9430
 2686SOL    HW2 8958   1.631   1.764   3.348 -0.0596  2.6643  0.8667
 2687SOL     OW 8959   3.054   5.030   2.823 -0.2293 -0.4278  0.0434
 2687SOL    HW1 8960   3.145   5.044   2.784  0.0429  0.2489  0.8878
 2687SOL    HW2 8961   3.060   4.963   2.897 -0.7548 -1.7594 -1.0780
 2688SOL     OW 8962   6.425   4.744   6.995  0.1643 -0.7992  0.9372
 2688SOL    HW1 8963   6.420   4.821   6.932  1.3687 -2.1798 -0.9680
 2688SOL    HW2 8964   6.342   4.688   6.985  0.4568 -1.1415  0.3807
 2689SOL     OW 8965   6.733   1.853   2.783  0.2429 -0.2506 -0.3433
 2689SOL    HW1 8966   6.787   1.864   2.867  0.8139 -0.9837 -0.5990
 2689SOL    HW2 8967   6.789   1.877   2.704  1.1860 -3.5778 -0.8395
 2690SOL     OW 8968   3.301   2.870   5.182 -0.1027 -0.0116 -0.2600
 2690SOL    HW1 8969   3.243   2.929   5.126  1.2480  0.9030 -0.7616
 2690SOL    HW2 8970   3.394   2.872   5.146  0.6081 -0.1307  1.4750
 2691SOL     OW 8971   1.919   6.284   1.533 -0.1022 -0.0718  0.2563
 2691SOL    HW1 8972   1.831   6.288   1.580 -0.5381  1.8527 -0.6244
 2691SOL    HW2 8973   1.964   6.197   1.553 -1.9243 -0.8409  1.1998
 2692SOL     OW 8974   0.172   4.901   2.926  0.2778  0.3631  0.1066
 2692SOL    HW1 8975   0.185   4.994   2.891 -0.1233  0.3183 -0.1562
 2692SOL    HW2 8976   0.129   4.844   2.856 -2.3243  0.7534  1.3014
 2693SOL     OW 8977   0.928   3.899   3.531  0.6510  0.3705  0.1896
 2693SOL    HW1 8978   0.846   3.909   3.474  0.0126 -1.2812  0.7658
 2693SOL    HW2 8979   0.902   3.904   3.627  1.3380  0.4944  0.3732
 2694SOL     OW 8980   2.181   5.215   3.496 -0.2203  0.3507  0.1806
 2694SOL    HW1 8981   2.166   5.227   3.398 -1.7577 -3.9363 -0.3223
 2694SOL    HW2 8982   2.274   5.243   3.519 -0.4793  3.4801 -1.9526
 2695SOL     OW 8983   4.847   0.607   2.457  0.2018  0.3240  0.3218
 2695SOL    HW1 8984   4.890   0.530   2.409  1.8791  1.6930 -0.5192
 2695SOL    HW2 8985   4.750   0.588   2.471  0.6587 -2.1340  0.6120
 2696SOL     OW 8986   3.914   3.322   5.026  0.1562 -0.2441  0.2567
 2696SOL    HW1 8987   3.898   3.421   5.020 -2.2572 -0.5429  0.6570
 2696SOL    HW2 8988   3.897   3.280   4.937 -0.8173 -0.5155  0.5611
 2697SOL     OW 8989   3.931   1.330   4.043  0.0093 -0.5495  0.1288
 2697SOL    HW1 8990   3.912   1.240   4.004  2.4856 -0.7923 -0.7006
 2697SOL    HW2 8991   4.027   1.335   4.069 -0.3543  1.4706  1.3010
 2698SOL     OW 8992   0.627   5.055   2.087 -0.0413 -0.3020 -0.0048
 2698SOL    HW1 8993   0.554   5.115   2.055 -0.5000 -1.2229 -0.7579
 2698SOL    HW2 8994   0.590   4.991   2.155  0.3293 -0.0563  0.4336
 2699SOL     OW 8995   4.039   5.416   2.057 -0.2679 -0.2757  0.2718
 2699SOL    HW1 8996   4.126   5.395   2.011 -1.0272 -0.1081 -1.3319
 2699SOL    HW2 8997   3.970   5.349   2.029 -0.8216 -0.0392  1.0316
 2700SOL     OW 8998   1.660   2.762   3.786 -0.4311  0.5695  0.0924
 2700SOL    HW1 8999   1.726   2.750   3.861 -0.2259  0.1334 -0.1553
 2700SOL    HW2 9000   1.682   2.846   3.736  1.9649 -1.1410 -1.9813
 2701SOL     OW 9001   4.199   6.289   0.943 -0.1628  0.1450  0.5238
 2701SOL    HW1 9002   4.217   6.379   0.983  1.2086 -0.0476  0.3878
 2701SOL    HW2 9003   4.117   6.250   0.984  0.0940  0.7947  1.7001
 2702SOL     OW 9004   0.147   0.700   2.958 -0.1788  0.0530  0.3596
 2702SOL    HW1 9005   0.167   0.675   3.052 -0.0947  0.0809  0.3494
 2702SOL    HW2 9006   0.056   0.667   2.933 -1.3531  2.3046  1.2984
 2703SOL     OW 9007   2.206   0.574   3.015 -0.3049 -0.3664  0.3177
 2703SOL    HW1 9008   2.253   0.563   2.927 -0.1465 -0.6671  0.4377
 2703SOL    HW2 9009   2.248   0.514   3.083 -1.1609 -1.0015  0.3064
 2704SOL     OW 9010   2.402   6.580   1.543 -0.0274  0.1543 -0.1433
 2704SOL    HW1 9011   2.315   6.536   1.563 -0.4509  1.0856  0.1441
 2704SOL    HW2 9012   2.387   6.679   1.534  0.8396  0.2124 -1.0379
 2705SOL     OW 9013   6.329   6.194   3.702  0.3561 -0.1063 -0.2011
 2705SOL    HW1 9014   6.262   6.254   3.746  3.1778  2.4433  0.9357
 2705SOL    HW2 9015   6.326   6.208   3.603  1.4523  2.6326  0.0781
 2706SOL     OW 9016   4.902   3.324   1.249 -0.0179 -0.7512 -0.5208
 2706SOL    HW1 9017   4.898   3.402   1.311  0.5129 -1.3118  0.2326
 2706SOL    HW2 9018   4.841   3.341   1.171  0.8054  0.8190 -0.8670
 2707SOL     OW 9019   0.925   1.635   0.878 -0.0583  0.2820 -0.1272
 2707SOL    HW1 9020   0.989   1.606   0.950 -1.3560 -1.9926  0.1942
 2707SOL    HW2 9021   0.881   1.720   0.906  2.7867  1.9969 -0.4065
 2708SOL     OW 9022   2.968   2.150   2.897 -0.1986  0.0295 -0.2180
 2708SOL    HW1 9023   2.964   2.170   2.995  0.6950 -0.3146 -0.0985
 2708SOL    HW2 9024   2.905   2.210   2.848  1.0612  1.9022  0.3352
 2709SOL     OW 9025   5.937   6.372   0.402 -0.3240 -0.7293  0.0956
 2709SOL    HW1 9026   5.904   6.278   0.403 -2.4679 -0.0137  0.3885
 2709SOL    HW2 9027   5.913   6.416   0.315 -1.5895  0.2642  0.9063
 2710SOL     OW 9028   6.539   2.295   3.585  0.4019  0.0202 -0.1939
 2710SOL    HW1 9029   6.461   2.262   3.533  0.1332 -0.4457  0.4816
 2710SOL    HW2 9030   6.552   2.393   3.569  0.2883 -0.1067 -1.0723
 2711SOL     OW 9031   3.059   1.331   3.348  0.0817 -0.8694 -0.0279
 2711SOL    HW1 9032   3.138   1.309   3.291  0.3134  1.1142 -0.5335
 2711SOL    HW2 9033   3.067   1.284   3.436  1.8493 -0.6606 -0.0519
 2712SOL     OW 9034   3.027   3.062   1.554 -0.2636 -0.1230 -0.3138
 2712SOL    HW1 9035   2.937   3.079   1.596 -1.5371 -0.4523 -2.7310
 2712SOL    HW2 9036   3.093   3.040   1.625 -1.5068  2.3813  1.8121
 2713SOL     OW 9037   2.636   4.866   4.231  0.2262  0.4473  0.3100
 2713SOL    HW1 9038   2.624   4.958   4.267  0.2139  0.6672 -0.2470
 2713SOL    HW2 9039   2.684   4.810   4.298  1.0523  1.1122  0.2925
 2714SOL     OW 9040   1.030   1.704   5.624  0.7627 -0.3746  0.2735
 2714SOL    HW1 9041   1.118   1.716   5.670  0.7409 -2.9067  1.1255
 2714SOL    HW2 9042   1.018   1.608   5.599 -0.8467  0.2929 -1.8089
 2715SOL     OW 9043   5.698   0.894   5.636  0.2600 -0.0468  0.0544
 2715SOL    HW1 9044   5.679   0.798   5.658 -1.1142  0.1757 -0.0903
 2715SOL    HW2 9045   5.646   0.921   5.556  0.6887  0.8088  0.0526
 2716SOL     OW 9046   0.286   5.142   1.629  0.2327  0.4151  0.2862
 2716SOL    HW1 9047   0.363   5.082   1.652  0.4661 -0.3355 -2.1006
 2716SOL    HW2 9048   0.201   5.090   1.633  0.3528  0.0638 -1.0421
 2717SOL     OW 9049   1.551   6.876   3.273 -0.2580  0.1187 -0.3737
 2717SOL    HW1 9050   1.536   6.974   3.260 -0.4368  0.1064 -0.2644
 2717SOL    HW2 9051   1.524   6.850   3.366 -0.1518 -0.0215 -0.3823
 2718SOL     OW 9052   1.952   3.516   4.554  0.2417 -0.3882 -0.3369
 2718SOL    HW1 9053   1.952   3.586   4.626  0.7366 -0.3502 -0.3703
 2718SOL    HW2 9054   1.858   3.500   4.524  0.1377  0.4140 -0.4706
 2719SOL     OW 9055   4.461   4.709   1.862 -0.4682  0.2762 -0.4624
 2719SOL    HW1 9056   4.545   4.655   1.859 -0.4864  0.2914 -1.8887
 2719SOL    HW2 9057   4.484   4.806   1.874 -0.3207  0.2084 -0.1969
 2720SOL     OW 9058   3.650   0.094   4.622  0.1526  0.2927 -0.0369
 2720SOL    HW1 9059   3.579   0.033   4.588 -0.2293 -0.0122  1.2894
 2720SOL    HW2 9060   3.690   0.145   4.544  1.0924 -2.2240 -1.3120
 2721SOL     OW 9061   3.186   5.503   3.543  0.0037 -0.0844  0.1276
 2721SOL    HW1 9062   3.117   5.430   3.540 -0.7395  0.6132 -0.1296
 2721SOL    HW2 9063   3.219   5.521   3.450  0.2773 -0.1698  0.2062
 2722SOL     OW 9064   1.434   6.897   5.481 -0.2752  0.7479  0.4626
 2722SOL    HW1 9065   1.503   6.824   5.480 -1.8570 -0.8148  0.6281
 2722SOL    HW2 9066   1.417   6.928   5.388 -0.6916 -0.2041  0.2099
 2723SOL     OW 9067   1.701   2.873   5.182  0.2520 -0.0683 -0.0437
 2723SOL    HW1 9068   1.783   2.816   5.192  1.2856  1.4262  0.3012
 2723SOL    HW2 9069   1.718   2.944   5.114 -0.0766  1.3862  1.3346
 2724SOL     OW 9070   6.361   6.052   0.004 -0.2533 -0.1609 -0.6657
 2724SOL    HW1 9071   6.379   6.072   0.101  1.4047 -0.9552 -0.7852
 2724SOL    HW2 9072   6.370   6.137  -0.049  1.1405 -0.1195 -0.4106
 2725SOL     OW 9073   4.135   4.778   5.085  0.1659  0.0139  0.6274
 2725SOL    HW1 9074   4.213   4.830   5.119  0.3227 -0.1483  0.5137
 2725SOL    HW2 9075   4.165   4.687   5.055  0.1318  0.3434 -0.4519
 2726SOL     OW 9076   6.070   5.804   0.687  0.3965 -0.1355 -0.2274
 2726SOL    HW1 9077   6.169   5.800   0.706  0.5558 -1.8237 -1.1819
 2726SOL    HW2 9078   6.026   5.863   0.754  1.7328 -1.2159  1.7063
 2727SOL     OW 9079   2.514   5.766   2.103 -0.2465 -0.1831  0.1940
 2727SOL    HW1 9080   2.454   5.700   2.058 -0.4455  1.0152 -1.3990
 2727SOL    HW2 9081   2.608   5.734   2.099 -0.2467 -0.0591 -1.2131
 2728SOL     OW 9082   1.637   4.847   4.817 -0.2833  0.7050 -0.5108
 2728SOL    HW1 9083   1.584   4.931   4.832 -0.0239  0.9093 -0.7186
 2728SOL    HW2 9084   1.726   4.857   4.861 -0.7990 -0.0553  0.7727
 2729SOL     OW 9085   6.289   3.146   3.936  0.2427 -0.6314 -0.1763
 2729SOL    HW1 9086   6.202   3.101   3.955  0.8213 -1.2620  1.0486
 2729SOL    HW2 9087   6.354   3.128   4.010  1.1976  0.4208 -0.7181
 2730SOL     OW 9088   2.223   1.911   1.468 -0.3172  0.2411  0.0153
 2730SOL    HW1 9089   2.314   1.948   1.450  0.5641 -1.5391  0.6020
 2730SOL    HW2 9090   2.203   1.918   1.566 -0.0493 -0.9787  0.1689
 2731SOL     OW 9091   2.947   3.788   1.832  0.0790 -0.3695 -0.2167
 2731SOL    HW1 9092   3.017   3.857   1.812 -0.5121 -0.4313 -2.9829
 2731SOL    HW2 9093   2.991   3.704   1.863  1.2630 -0.2715 -1.5003
 2732SOL     OW 9094   6.836   2.150   1.792  0.0906 -0.4947 -0.3166
 2732SOL    HW1 9095   6.829   2.249   1.801 -1.0734 -0.3941 -1.8166
 2732SOL    HW2 9096   6.800   2.105   1.874  0.2716  0.3083  0.2064
 2733SOL     OW 9097   0.551   0.443   4.174  0.5601 -0.2171  0.3695
 2733SOL    HW1 9098   0.583   0.379   4.244  0.0858  0.7114  1.4775
 2733SOL    HW2 9099   0.548   0.398   4.086  1.0796 -1.4591  0.9654
 2734SOL     OW 9100   2.891   0.767   3.605  0.1417 -0.1771  0.2871
 2734SOL    HW1 9101   2.869   0.861   3.579 -0.8674 -0.5739 -0.3398
 2734SOL    HW2 9102   2.837   0.741   3.685 -0.9894 -0.8157 -0.6469
 2735SOL     OW 9103   1.859   5.094   3.578  0.4312 -0.1025 -0.5441
 2735SOL    HW1 9104   1.942   5.097   3.633 -0.0002 -1.5886  0.2372
 2735SOL    HW2 9105   1.882   5.076   3.483  0.9819 -1.2888 -0.2047
 2736SOL     OW 9106   4.000   0.292   4.548 -0.5136 -0.3710  0.4432
 2736SOL    HW1 9107   3.967   0.261   4.637  0.4993  1.1532  1.4020
 2736SOL    HW2 9108   4.098   0.271   4.540 -0.4306  0.1505  0.0090
 2737SOL     OW 9109   3.155   4.498   6.096 -0.2099 -0.1859 -0.0275
 2737SOL    HW1 9110   3.242   4.475   6.140  0.2110  0.3172 -0.5854
 2737SOL    HW2 9111   3.080   4.462   6.151  0.3293 -0.1585  0.7470
 2738SOL     OW 9112   0.081   6.005   3.021  0.1170  0.4170  0.2230
 2738SOL    HW1 9113   0.072   6.102   3.045  0.5007  0.2789  0.9578
 2738SOL    HW2 9114   0.150   5.995   2.950  0.9336  0.5825  0.9670
 2739SOL     OW 9115   5.395   2.806   7.022  0.4526 -0.6447 -0.1038
 2739SOL    HW1 9116   5.303   2.766   7.030  0.3564 -0.3784  0.1465
 2739SOL    HW2 9117   5.409   2.872   7.096  1.0505 -1.0900  0.1931
 2740SOL     OW 9118   5.288   6.642   1.669 -0.5355 -0.3555 -0.4652
 2740SOL    HW1 9119   5.345   6.724   1.660 -2.3652  1.0717  0.1603
 2740SOL    HW2 9120   5.246   6.640   1.760 -1.0461 -1.6362 -0.7023
 2741SOL     OW 9121   6.835   1.387   4.649  0.3676  1.1737  0.0698
 2741SOL    HW1 9122   6.798   1.397   4.557  1.1010  0.4001 -0.3231
 2741SOL    HW2 9123   6.795   1.456   4.709 -1.5725  0.4916 -0.3666
 2742SOL     OW 9124   3.355   6.498   5.661 -0.1518 -0.5770 -0.1257
 2742SOL    HW1 9125   3.332   6.411   5.703 -2.8645  0.7006  1.3517
 2742SOL    HW2 9126   3.339   6.493   5.562  0.6955 -2.0027 -0.2054
 2743SOL     OW 9127   5.300   3.865   0.980  0.2274  0.7880 -0.5947
 2743SOL    HW1 9128   5.223   3.863   0.917 -0.4256 -2.1389  0.1183
 2743SOL    HW2 9129   5.326   3.771   1.003  1.3698  1.7143  2.3543
 2744SOL     OW 9130   3.677   1.478   4.066 -0.2092  0.5650  0.5690
 2744SOL    HW1 9131   3.603   1.439   4.011 -0.6095  0.4480  1.1772
 2744SOL    HW2 9132   3.703   1.413   4.138 -0.1518  0.9869  0.9317
 2745SOL     OW 9133   2.125   6.495   0.697  0.7501  0.8561  0.2482
 2745SOL    HW1 9134   2.130   6.414   0.639 -0.2266  1.6378 -0.9757
 2745SOL    HW2 9135   2.184   6.567   0.660 -0.7525  1.7601 -0.4847
 2746SOL     OW 9136   2.694   1.955   4.320 -0.2011  0.2652 -0.4371
 2746SOL    HW1 9137   2.695   2.055   4.322  1.2813  0.3700 -2.9195
 2746SOL    HW2 9138   2.739   1.920   4.403  0.0432  1.6589  0.0460
 2747SOL     OW 9139   5.017   0.215   2.011  0.8328 -0.0928  0.8208
 2747SOL    HW1 9140   4.938   0.269   2.039 -1.0713 -1.9305 -0.6925
 2747SOL    HW2 9141   5.079   0.272   1.957  0.7404  1.4604  2.2814
 2748SOL     OW 9142   3.674   2.038   1.337  0.0727  0.6265  0.1211
 2748SOL    HW1 9143   3.624   2.116   1.300  0.8267  0.5057 -1.2215
 2748SOL    HW2 9144   3.631   1.953   1.307  0.3460  0.5213  0.0298
 2749SOL     OW 9145   2.062   4.969   4.131 -0.0386  0.4924 -0.2816
 2749SOL    HW1 9146   2.123   5.043   4.103 -0.1824  0.7771  0.1439
 2749SOL    HW2 9147   2.104   4.881   4.109  1.2983  0.6293  1.5072
 2750SOL     OW 9148   6.982   4.736   3.114  0.0393  0.2000 -0.7291
 2750SOL    HW1 9149   7.029   4.660   3.160 -0.4673 -1.1549 -2.3480
 2750SOL    HW2 9150   7.050   4.798   3.074  0.4709 -0.5237 -1.1386
 2751SOL     OW 9151   3.195   6.996   5.924 -0.2980  0.4998 -0.9860
 2751SOL    HW1 9152   3.235   7.002   6.016 -0.3338  0.9501 -0.9984
 2751SOL    HW2 9153   3.097   6.974   5.933  0.0337 -1.0455 -0.9717
 2752SOL     OW 9154   5.627   6.539   2.461  0.3546 -0.1267 -0.0551
 2752SOL    HW1 9155   5.657   6.622   2.413  0.9160 -0.7416 -0.7819
 2752SOL    HW2 9156   5.687   6.521   2.538 -0.8541  1.1549  1.2533
 2753SOL     OW 9157   5.007   0.229   5.657 -0.4356  0.1379  0.4159
 2753SOL    HW1 9158   5.078   0.296   5.634 -0.5231  0.5727  1.3529
 2753SOL    HW2 9159   4.941   0.272   5.718 -1.6533 -0.1877 -0.6334
 2754SOL     OW 9160   6.126   0.257   4.194  0.3659  0.0811 -0.0334
 2754SOL    HW1 9161   6.101   0.309   4.112  2.2450 -2.0607 -2.1679
 2754SOL    HW2 9162   6.053   0.192   4.215  1.5760 -2.5586 -3.0310
 2755SOL     OW 9163   3.335   4.925   4.249  0.1619  0.5327  0.0583
 2755SOL    HW1 9164   3.279   4.934   4.332 -0.3361 -0.2462 -0.1746
 2755SOL    HW2 9165   3.276   4.904   4.171  0.9230 -3.4776  0.3354
 2756SOL     OW 9166   4.870   3.286   3.995 -0.2086  0.1116  0.2672
 2756SOL    HW1 9167   4.870   3.318   3.900 -0.1235  2.2813  0.9466
 2756SOL    HW2 9168   4.847   3.362   4.055 -1.2341 -1.4554  1.9390
 2757SOL     OW 9169   3.679   2.627   6.574 -0.1172 -0.1481 -0.7853
 2757SOL    HW1 9170   3.684   2.713   6.524  0.8177  0.3557  0.1166
 2757SOL    HW2 9171   3.732   2.557   6.526  0.0435  0.0876 -0.9517
 2758SOL     OW 9172   5.132   3.893   3.460  0.6720 -0.5558 -0.2709
 2758SOL    HW1 9173   5.066   3.822   3.485  0.4884 -1.5784 -3.2472
 2758SOL    HW2 9174   5.222   3.852   3.448  0.6819 -0.2001 -1.4806
 2759SOL     OW 9175   3.620   3.167   5.418 -0.4270  0.5401 -0.4179
 2759SOL    HW1 9176   3.661   3.244   5.369 -0.0051  1.2029  0.9255
 2759SOL    HW2 9177   3.520   3.174   5.413 -0.4010  0.3632 -1.5065
 2760SOL     OW 9178   4.738   4.833   4.490  0.5021  0.5231 -0.0512
 2760SOL    HW1 9179   4.832   4.860   4.508  0.4559  0.7197 -0.1027
 2760SOL    HW2 9180   4.710   4.866   4.400  0.3730  0.4967 -0.0218
 2761SOL     OW 9181   2.252   4.546   3.285 -0.1913 -0.1538 -0.1075
 2761SOL    HW1 9182   2.279   4.566   3.379 -0.0106  0.6225 -0.3147
 2761SOL    HW2 9183   2.153   4.532   3.282 -0.3738  0.9765  0.0284
 2762SOL     OW 9184   3.404   1.636   2.314 -0.1103  0.2923  0.5557
 2762SOL    HW1 9185   3.421   1.672   2.222 -2.3081 -2.3217 -1.0218
 2762SOL    HW2 9186   3.488   1.643   2.369  1.1895  2.1776 -1.5313
 2763SOL     OW 9187   5.682   5.780   4.268  0.0289 -0.1727 -0.1227
 2763SOL    HW1 9188   5.727   5.705   4.219 -1.8255 -1.0389 -0.5916
 2763SOL    HW2 9189   5.641   5.843   4.203  0.5838  0.6453  0.2969
 2764SOL     OW 9190   1.525   3.277   1.907  0.2700  0.1140  0.1480
 2764SOL    HW1 9191   1.584   3.291   1.828  2.2204  2.5045  1.8673
 2764SOL    HW2 9192   1.581   3.268   1.990 -1.6933 -2.1661  1.3604
 2765SOL     OW 9193   5.793   6.429   0.778 -0.1083 -0.3211  0.2185
 2765SOL    HW1 9194   5.736   6.494   0.829 -0.1089  1.6410 -2.0771
 2765SOL    HW2 9195   5.734   6.369   0.724 -0.1105 -2.4137  2.4049
 2766SOL     OW 9196   5.067   1.588   2.168  0.1828  0.0275 -0.3430
 2766SOL    HW1 9197   5.095   1.561   2.076  2.3249 -0.5632  0.4217
 2766SOL    HW2 9198   5.126   1.662   2.201 -0.2707 -0.0481  0.6952
 2767SOL     OW 9199   6.732   6.549   0.213 -0.5276 -0.1480 -0.0962
 2767SOL    HW1 9200   6.808   6.506   0.164 -1.3252 -0.6916 -0.8986
 2767SOL    HW2 9201   6.748   6.648   0.218  1.1402 -0.4492  1.4370
 2768SOL     OW 9202   4.520   6.478   0.990 -0.1460 -0.0304  0.2727
 2768SOL    HW1 9203   4.435   6.500   1.038  0.0333  3.6207 -0.8058
 2768SOL    HW2 9204   4.501   6.460   0.894  0.0836 -2.0447  0.5562
 2769SOL     OW 9205   1.326   3.727   0.256 -0.0889 -0.2058 -0.0051
 2769SOL    HW1 9206   1.366   3.736   0.348  0.2189  0.0964 -0.1665
 2769SOL    HW2 9207   1.297   3.816   0.223 -0.3644 -0.3412 -0.1319
 2770SOL     OW 9208   0.400   0.929   5.979  0.6625  0.4853  0.0235
 2770SOL    HW1 9209   0.385   0.933   5.880  2.5925  0.4432 -0.3096
 2770SOL    HW2 9210   0.445   1.013   6.010  0.0892  0.4928  0.8807
 2771SOL     OW 9211   4.628   0.510   4.098  0.7082 -0.5636 -0.3568
 2771SOL    HW1 9212   4.694   0.475   4.164  0.5342 -1.1251 -0.4762
 2771SOL    HW2 9213   4.551   0.446   4.090 -0.0692  0.2927  0.1139
 2772SOL     OW 9214   4.580   6.195   1.933 -0.0921  0.0400 -0.0987
 2772SOL    HW1 9215   4.680   6.195   1.940 -0.1477 -1.9860  1.2255
 2772SOL    HW2 9216   4.554   6.181   1.837  0.8968 -0.2768 -0.3378
 2773SOL     OW 9217   5.364   3.240   4.057  0.8823  0.1115 -0.1702
 2773SOL    HW1 9218   5.312   3.158   4.078  0.1742  0.9370  1.4262
 2773SOL    HW2 9219   5.318   3.291   3.984 -1.5861  1.6396  2.2497
 2774SOL     OW 9220   3.866   2.172   2.771 -0.0385  0.2746  0.2278
 2774SOL    HW1 9221   3.959   2.196   2.745 -0.5562  1.7237 -0.4111
 2774SOL    HW2 9222   3.811   2.159   2.689 -0.0937 -2.0386  0.5677
 2775SOL     OW 9223   0.613   3.699   5.609  0.0570  0.5089  0.1549
 2775SOL    HW1 9224   0.531   3.711   5.665 -0.9016  1.3946 -1.3654
 2775SOL    HW2 9225   0.689   3.670   5.667 -1.2723 -0.1488  1.6364
 2776SOL     OW 9226   6.102   4.940   6.020  0.6485  0.3550  0.2201
 2776SOL    HW1 9227   6.161   4.899   6.089 -0.8363 -0.7752  0.8785
 2776SOL    HW2 9228   6.117   4.895   5.932  0.4292 -0.2782  0.5001
 2777SOL     OW 9229   3.197   2.004   6.101  0.0079 -0.9454  0.5068
 2777SOL    HW1 9230   3.257   2.080   6.125  0.6771 -1.9593  2.1504
 2777SOL    HW2 9231   3.160   2.019   6.009  0.6812  0.9925  0.5082
 2778SOL     OW 9232   2.149   5.049   7.008 -0.0260  0.2729 -0.3659
 2778SOL    HW1 9233   2.216   4.977   7.027  0.3645  0.8130  0.3452
 2778SOL    HW2 9234   2.150   5.070   6.910  1.9923  1.3505 -0.1785
 2779SOL     OW 9235   6.671   0.568   1.473  0.6443  0.3940  0.0631
 2779SOL    HW1 9236   6.632   0.653   1.510  1.3748  1.5210 -1.6342
 2779SOL    HW2 9237   6.762   0.587   1.436  0.9520 -1.2161 -0.0665
 2780SOL     OW 9238   0.545   0.716   4.624 -0.8622  0.2388 -0.1601
 2780SOL    HW1 9239   0.458   0.720   4.672 -1.8460  0.7869 -1.8881
 2780SOL    HW2 9240   0.534   0.752   4.531  0.6344 -1.8478 -1.2476
 2781SOL     OW 9241   0.261   6.963   3.304  0.0227  0.4142 -0.2276
 2781SOL    HW1 9242   0.251   7.061   3.320  0.9469  0.2263  1.8603
 2781SOL    HW2 9243   0.207   6.912   3.371  1.4700 -0.4779  0.3178
 2782SOL     OW 9244   4.383   1.043   4.801 -0.6348 -0.5859 -0.0931
 2782SOL    HW1 9245   4.323   1.105   4.852  0.2680  0.5316 -0.3415
 2782SOL    HW2 9246   4.328   0.972   4.757 -1.8000  0.4683 -0.4073
 2783SOL     OW 9247   6.417   4.508   2.032 -0.6432  0.1070  0.1653
 2783SOL    HW1 9248   6.324   4.492   2.000 -0.9991  1.3784  0.4932
 2783SOL    HW2 9249   6.419   4.591   2.088  0.4632 -0.5659  1.1712
 2784SOL     OW 9250   1.246   2.875   1.245  0.2466 -0.2367  0.1460
 2784SOL    HW1 9251   1.221   2.799   1.305 -0.9306  0.9886  1.2833
 2784SOL    HW2 9252   1.335   2.910   1.272 -0.2964  0.3447  1.2790
 2785SOL     OW 9253   4.654   3.472   1.127 -0.1223 -0.3496 -0.2670
 2785SOL    HW1 9254   4.662   3.395   1.064  0.3927  0.4710 -1.2352
 2785SOL    HW2 9255   4.652   3.438   1.221 -1.0362 -1.6014 -0.7204
 2786SOL     OW 9256   0.587   6.264   6.950 -0.0509 -0.3514 -0.2696
 2786SOL    HW1 9257   0.537   6.348   6.971 -0.3057 -0.1743 -1.5207
 2786SOL    HW2 9258   0.594   6.208   7.032 -0.5783  0.5278  0.3874
 2787SOL     OW 9259   5.738   5.284   3.557 -0.4730  0.3076  0.0154
 2787SOL    HW1 9260   5.724   5.243   3.647  0.4152 -0.8540 -0.3361
 2787SOL    HW2 9261   5.666   5.253   3.495 -0.8877  0.8281  0.2332
 2788SOL     OW 9262   1.150   5.053   6.710  0.2729  0.0112  0.3899
 2788SOL    HW1 9263   1.160   5.090   6.618  1.0997 -2.2500 -0.5059
 2788SOL    HW2 9264   1.224   5.086   6.768  1.0468 -0.2891 -0.4046
 2789SOL     OW 9265   0.862   2.252   5.202 -0.6275  0.0840  0.1582
 2789SOL    HW1 9266   0.930   2.269   5.273 -0.6862 -1.6705  0.6723
 2789SOL    HW2 9267   0.802   2.332   5.193  1.2918  1.5468 -0.1258
 2790SOL     OW 9268   2.115   0.687   1.321 -0.7373  0.1605  0.1782
 2790SOL    HW1 9269   2.050   0.705   1.248 -1.6611  0.6459  1.0944
 2790SOL    HW2 9270   2.165   0.603   1.301 -1.5855 -0.1815 -0.5873
 2791SOL     OW 9271   6.050   2.113   4.464  0.0725  0.4971  0.2116
 2791SOL    HW1 9272   6.112   2.185   4.496  2.4621 -1.3511  0.0448
 2791SOL    HW2 9273   5.994   2.082   4.541 -1.0592  2.5032  0.2707
 2792SOL     OW 9274   3.559   0.712   5.506 -0.5686  0.0817  0.2543
 2792SOL    HW1 9275   3.483   0.753   5.456 -0.6353 -1.1654 -0.7205
 2792SOL    HW2 9276   3.643   0.761   5.485 -0.8670  0.5809  0.2119
 2793SOL     OW 9277   3.714   4.458   6.400 -0.6163 -0.1060 -0.2414
 2793SOL    HW1 9278   3.689   4.365   6.426 -2.9807  0.1209 -1.4171
 2793SOL    HW2 9279   3.703   4.469   6.301  0.9612  1.0800 -0.3245
 2794SOL     OW 9280   5.459   4.865   6.692  0.4198  0.5547 -0.1079
 2794SOL    HW1 9281   5.387   4.818   6.744 -0.2427 -0.7247 -2.0538
 2794SOL    HW2 9282   5.537   4.804   6.681  0.8601  1.0914  0.0211
 2795SOL     OW 9283   1.172   4.744   1.328  0.6748 -0.4758 -0.1373
 2795SOL    HW1 9284   1.252   4.734   1.268  0.4761  0.9142 -0.6602
 2795SOL    HW2 9285   1.140   4.653   1.356  1.9309 -1.0795 -0.5844
 2796SOL     OW 9286   1.126   3.897   4.376 -0.1940  0.2851 -0.8508
 2796SOL    HW1 9287   1.107   3.875   4.280  0.2057  1.0501 -1.1083
 2796SOL    HW2 9288   1.119   3.995   4.390 -0.8931  0.1188  0.0569
 2797SOL     OW 9289   6.393   6.677   4.203  0.4591  1.0500  0.1895
 2797SOL    HW1 9290   6.315   6.714   4.252  0.9838  1.6508  0.5801
 2797SOL    HW2 9291   6.385   6.577   4.198 -0.3162  1.1041  0.2378
 2798SOL     OW 9292   1.373   1.670   1.884  0.0036 -0.4316  0.2459
 2798SOL    HW1 9293   1.441   1.652   1.955 -0.1256  0.6375  0.6503
 2798SOL    HW2 9294   1.333   1.583   1.854  1.5764 -1.0851 -0.0512
 2799SOL     OW 9295   4.956   6.430   5.328  0.0294  0.0305  0.1713
 2799SOL    HW1 9296   4.865   6.390   5.311  0.7354 -1.6633  0.1907
 2799SOL    HW2 9297   4.965   6.515   5.275 -1.2376 -0.2520 -0.5473
 2800SOL     OW 9298   6.392   0.266   5.652 -0.0120 -0.8316  0.2685
 2800SOL    HW1 9299   6.355   0.347   5.607 -0.5201 -0.3910  1.4212
 2800SOL    HW2 9300   6.434   0.206   5.584 -1.5885 -0.6704 -0.9101
 2801SOL     OW 9301   0.840   3.276   6.210 -0.0938  0.6093  0.4351
 2801SOL    HW1 9302   0.902   3.353   6.198  0.9440 -0.0854  1.0727
 2801SOL    HW2 9303   0.804   3.247   6.121  1.5477  0.2200 -0.1415
 2802SOL     OW 9304   6.353   5.137   5.413 -0.9342 -0.0215  0.1020
 2802SOL    HW1 9305   6.367   5.228   5.450 -2.4687  0.7940 -1.1939
 2802SOL    HW2 9306   6.289   5.086   5.470 -1.7826  0.5269 -0.3426
 2803SOL     OW 9307   4.791   2.912   6.852 -0.2143 -0.0977  0.3314
 2803SOL    HW1 9308   4.754   2.819   6.857  0.2741 -0.2497  1.4173
 2803SOL    HW2 9309   4.813   2.944   6.944  3.1518 -0.3541 -0.2446
 2804SOL     OW 9310   1.398   0.475   4.729 -0.3231  0.0030 -0.2562
 2804SOL    HW1 9311   1.342   0.554   4.755 -0.2305 -0.3263  0.9639
 2804SOL    HW2 9312   1.482   0.508   4.686 -1.7926  0.4992 -3.0095
 2805SOL     OW 9313   4.596   2.807   1.478 -1.0162 -0.3911  0.0028
 2805SOL    HW1 9314   4.531   2.790   1.403  0.3390 -1.2908 -1.0232
 2805SOL    HW2 9315   4.627   2.902   1.474  0.4328 -0.8786 -1.8000
 2806SOL     OW 9316   6.692   2.806   6.401 -0.8045  0.1427  0.0680
 2806SOL    HW1 9317   6.694   2.824   6.303  0.5259  2.9965  0.5288
 2806SOL    HW2 9318   6.600   2.823   6.436 -1.4274 -1.4302 -0.7274
 2807SOL     OW 9319   3.292   1.443   3.969 -1.0103  0.2685 -0.1045
 2807SOL    HW1 9320   3.258   1.400   3.885  1.8856  1.6755 -2.1803
 2807SOL    HW2 9321   3.251   1.534   3.979 -1.4542  0.0493  0.0985
 2808SOL     OW 9322   5.977   4.591   1.485 -0.3759 -0.9480 -0.1947
 2808SOL    HW1 9323   6.057   4.641   1.451 -1.8522  0.9091 -1.1072
 2808SOL    HW2 9324   6.002   4.540   1.567  0.9836  2.2846  1.5723
 2809SOL     OW 9325   0.649   5.061   1.375  0.4046 -0.0213  0.1989
 2809SOL    HW1 9326   0.604   4.972   1.383  0.0210  0.0842 -0.6746
 2809SOL    HW2 9327   0.728   5.064   1.437  0.9595 -1.3145 -0.4006
 2810SOL     OW 9328   3.708   5.402   2.819  0.5739 -0.2245  0.5652
 2810SOL    HW1 9329   3.647   5.323   2.812 -1.7167  1.1966  2.9969
 2810SOL    HW2 9330   3.797   5.371   2.852  0.3180 -1.9873 -0.2412
 2811SOL     OW 9331   3.476   0.212   3.191  0.0669 -0.5696  0.3754
 2811SOL    HW1 9332   3.517   0.123   3.173  1.4296 -0.0354  0.6291
 2811SOL    HW2 9333   3.549   0.277   3.215 -1.2000 -0.3296  4.1245
 2812SOL     OW 9334   0.764   3.898   0.507 -0.4944  1.0896  0.2969
 2812SOL    HW1 9335   0.822   3.823   0.478 -2.7961 -1.2612  1.3908
 2812SOL    HW2 9336   0.750   3.961   0.431 -0.4927 -0.9435 -1.4643
 2813SOL     OW 9337   1.928   4.445   0.597  0.0739 -0.0165 -0.2008
 2813SOL    HW1 9338   1.937   4.346   0.588 -0.6075 -0.0404 -0.7590
 2813SOL    HW2 9339   1.860   4.478   0.531 -0.1358  0.7450  0.3789
 2814SOL     OW 9340   1.456   4.862   6.423  0.3361 -0.4272  0.0195
 2814SOL    HW1 9341   1.471   4.858   6.522 -1.6469  0.1708  0.3910
 2814SOL    HW2 9342   1.483   4.776   6.382  0.0950 -1.1219  1.2667
 2815SOL     OW 9343   6.914   6.090   5.915 -0.2635 -0.5434 -0.2263
 2815SOL    HW1 9344   6.919   6.012   5.853  0.1780  0.2306 -1.1919
 2815SOL    HW2 9345   6.969   6.073   5.996 -0.4400 -1.3630 -0.2763
 2816SOL     OW 9346   1.377   6.827   6.034 -0.0161  0.5726 -0.0459
 2816SOL    HW1 9347   1.373   6.804   5.937 -1.6742  0.6547 -0.0224
 2816SOL    HW2 9348   1.287   6.813   6.076  0.4494  1.3600  1.2940
 2817SOL     OW 9349   4.699   0.603   2.173 -0.4042 -0.3288  0.3639
 2817SOL    HW1 9350   4.785   0.591   2.124 -0.9025  1.6964 -1.1478
 2817SOL    HW2 9351   4.697   0.694   2.216 -2.4211  0.4052 -1.1122
 2818SOL     OW 9352   2.362   0.620   1.854 -0.7134 -0.0680 -0.5582
 2818SOL    HW1 9353   2.330   0.577   1.938 -1.1327  1.4223  0.0894
 2818SOL    HW2 9354   2.300   0.596   1.779 -1.0490 -0.4249 -0.1737
 2819SOL     OW 9355   2.511   0.660   1.423 -0.1021 -0.3640  0.1620
 2819SOL    HW1 9356   2.456   0.592   1.376  0.6904 -0.6449 -0.3913
 2819SOL    HW2 9357   2.459   0.745   1.433 -0.8535 -0.8349  0.2456
 2820SOL     OW 9358   1.654   4.724   1.474 -0.5679 -0.1140  0.0373
 2820SOL    HW1 9359   1.595   4.657   1.519 -0.7745  0.5220  0.7439
 2820SOL    HW2 9360   1.674   4.798   1.538  0.3117  0.0976 -0.4710
 2821SOL     OW 9361   4.515   2.897   0.033  0.1013 -0.1983  0.0632
 2821SOL    HW1 9362   4.553   2.955   0.104 -1.0591  0.6851 -0.0158
 2821SOL    HW2 9363   4.515   2.945  -0.054 -0.6693 -0.3772 -0.0490
 2822SOL     OW 9364   4.796   3.508   1.395  0.2413 -0.0162  0.4777
 2822SOL    HW1 9365   4.753   3.594   1.368  0.2931 -0.2435 -0.3535
 2822SOL    HW2 9366   4.749   3.471   1.476  0.8628  1.2900  1.4749
 2823SOL     OW 9367   5.739   3.323   0.809  0.1722  0.5954  0.0129
 2823SOL    HW1 9368   5.775   3.399   0.755  1.3228  0.4804  0.5862
 2823SOL    HW2 9369   5.742   3.239   0.755  2.1281  0.3140  0.5050
 2824SOL     OW 9370   6.457   2.073   4.313 -0.6537 -0.2557  0.5287
 2824SOL    HW1 9371   6.451   2.159   4.364  0.5725 -0.5609  1.2508
 2824SOL    HW2 9372   6.366   2.035   4.299 -1.1832  1.0078  0.4570
 2825SOL     OW 9373   4.299   1.469   0.513  0.0610  0.4360 -0.5430
 2825SOL    HW1 9374   4.281   1.490   0.610 -0.4277 -1.0049 -0.2998
 2825SOL    HW2 9375   4.347   1.546   0.471  1.6350  0.5170  1.2291
 2826SOL     OW 9376   3.463   2.829   1.246 -0.6965 -0.5188  0.1943
 2826SOL    HW1 9377   3.491   2.782   1.329 -1.2793 -0.3521  0.4902
 2826SOL    HW2 9378   3.405   2.907   1.269  1.2339  1.1226 -0.1996
 2827SOL     OW 9379   5.832   2.798   6.316 -1.0715  1.0031 -0.1407
 2827SOL    HW1 9380   5.843   2.895   6.338 -0.6300  1.0759 -0.6680
 2827SOL    HW2 9381   5.853   2.743   6.397 -1.5219  1.3518  0.2186
 2828SOL     OW 9382   2.559   3.786   0.959  0.2430 -0.1924  0.0626
 2828SOL    HW1 9383   2.609   3.720   1.015  0.5529 -0.6532 -0.7371
 2828SOL    HW2 9384   2.531   3.864   1.016  2.4860  0.4274  0.4301
 2829SOL     OW 9385   2.845   3.568   2.214  0.4447 -1.0296  0.1960
 2829SOL    HW1 9386   2.827   3.534   2.121 -3.8971 -0.1073  0.4661
 2829SOL    HW2 9387   2.880   3.661   2.210  1.7754 -1.5326 -0.4615
 2830SOL     OW 9388   2.787   4.104   5.919 -0.1805 -0.4234 -0.3822
 2830SOL    HW1 9389   2.820   4.091   6.012 -0.7071  1.5319  0.1271
 2830SOL    HW2 9390   2.764   4.015   5.879 -0.2626 -1.2852  1.4601
 2831SOL     OW 9391   6.435   2.461   1.782  0.3361  0.1738  0.0209
 2831SOL    HW1 9392   6.505   2.524   1.748  0.1345  0.4605  0.1375
 2831SOL    HW2 9393   6.461   2.367   1.759  0.8586  0.2627  0.2385
 2832SOL     OW 9394   1.806   2.046   1.617 -0.1940  0.4741  0.2355
 2832SOL    HW1 9395   1.824   1.955   1.581 -0.3046  0.4615  0.2130
 2832SOL    HW2 9396   1.797   2.111   1.542 -2.6083  0.0749  0.0951
 2833SOL     OW 9397   5.927   2.480   1.050 -0.3092  0.2589 -0.2117
 2833SOL    HW1 9398   5.978   2.406   1.004 -0.9093  0.9208 -2.0230
 2833SOL    HW2 9399   5.843   2.443   1.089 -0.1582 -0.1715 -0.2841
 2834SOL     OW 9400   3.204   5.184   5.846 -0.4027 -0.3715  0.3361
 2834SOL    HW1 9401   3.178   5.275   5.815 -0.6322 -0.2565  0.8542
 2834SOL    HW2 9402   3.139   5.116   5.811 -0.4250 -0.2960  0.2311
 2835SOL     OW 9403   5.106   6.209   1.635 -0.5005 -0.0023 -0.2770
 2835SOL    HW1 9404   5.064   6.299   1.642 -1.0184 -0.3615  2.5572
 2835SOL    HW2 9405   5.035   6.140   1.617 -0.1884  0.0594 -1.8415
 2836SOL     OW 9406   3.371   6.884   3.738 -0.5357 -0.2886  0.4126
 2836SOL    HW1 9407   3.425   6.816   3.789 -1.3287 -0.3202  1.2397
 2836SOL    HW2 9408   3.317   6.838   3.668  0.2400 -0.2932 -0.2049
 2837SOL     OW 9409   6.371   4.351   4.395  0.7497  0.5405  0.4064
 2837SOL    HW1 9410   6.445   4.378   4.457  0.7742  2.2556 -0.3101
 2837SOL    HW2 9411   6.406   4.343   4.302  0.3592 -0.2776  0.3208
 2838SOL     OW 9412   5.096   4.955   5.618 -0.2410 -0.4512  0.7602
 2838SOL    HW1 9413   5.077   4.865   5.579 -1.7697 -0.0561  0.5196
 2838SOL    HW2 9414   5.018   5.015   5.603  0.3469  0.6241  1.8035
 2839SOL     OW 9415   5.807   3.114   4.196  0.1262  0.3324  0.3836
 2839SOL    HW1 9416   5.764   3.077   4.278  0.9506 -1.2018  0.1533
 2839SOL    HW2 9417   5.735   3.137   4.129 -0.4280 -0.9773  0.4940
 2840SOL     OW 9418   0.841   6.796   4.068 -0.3494 -0.0060 -0.2899
 2840SOL    HW1 9419   0.941   6.792   4.077 -0.3602 -0.1862 -0.2401
 2840SOL    HW2 9420   0.816   6.806   3.972 -0.3060 -0.8205 -0.3948
 2841SOL     OW 9421   0.486   3.534   3.051  0.0180 -0.6814  0.1708
 2841SOL    HW1 9422   0.525   3.443   3.058 -1.2314 -1.3296 -0.8920
 2841SOL    HW2 9423   0.530   3.595   3.118  1.2140 -1.9136  0.5469
 2842SOL     OW 9424   1.634   6.432   4.344 -0.4834  0.0474 -0.0809
 2842SOL    HW1 9425   1.725   6.472   4.347 -0.0897 -0.7739 -0.5502
 2842SOL    HW2 9426   1.595   6.429   4.436  0.0557  0.2066  0.1549
 2843SOL     OW 9427   2.484   2.498   3.946 -0.1125  0.0980  0.2722
 2843SOL    HW1 9428   2.401   2.488   4.001  0.2899  0.4583  0.9712
 2843SOL    HW2 9429   2.460   2.530   3.854 -0.8322 -0.9314  0.0921
 2844SOL     OW 9430   4.469   4.800   6.915 -0.3609 -0.4366  0.2268
 2844SOL    HW1 9431   4.400   4.863   6.879  0.7300 -0.1880 -1.5570
 2844SOL    HW2 9432   4.479   4.814   7.013  0.4109  2.7794 -0.1978
 2845SOL     OW 9433   3.211   1.835   2.684  0.2843  0.3742  0.5046
 2845SOL    HW1 9434   3.243   1.839   2.589 -0.7339 -0.8835  0.0630
 2845SOL    HW2 9435   3.166   1.747   2.699  0.4327  0.5602  2.1721
 2846SOL     OW 9436   3.772   0.303   0.347 -0.2336  0.4005  0.0000
 2846SOL    HW1 9437   3.695   0.240   0.352 -1.3626  1.8600  2.6441
 2846SOL    HW2 9438   3.831   0.276   0.271 -1.7541 -2.5233 -0.2991
 2847SOL     OW 9439   2.380   5.446   1.341  0.2116  0.7580 -0.4238
 2847SOL    HW1 9440   2.457   5.452   1.277 -0.9106 -0.6875 -2.0129
 2847SOL    HW2 9441   2.295   5.467   1.292 -0.8917 -2.1289  0.0226
 2848SOL     OW 9442   0.357   3.701   5.735 -0.1123  0.3298 -0.6239
 2848SOL    HW1 9443   0.358   3.653   5.823  0.7098  1.4623  0.0064
 2848SOL    HW2 9444   0.350   3.634   5.661  2.6434 -0.9722  0.1353
 2849SOL     OW 9445   5.823   0.373   3.401 -0.4229  0.1947 -0.4363
 2849SOL    HW1 9446   5.840   0.303   3.331 -0.1659 -1.5072  1.2423
 2849SOL    HW2 9447   5.810   0.329   3.489  0.6906  2.3270  0.8824
 2850SOL     OW 9448   4.844   0.246   3.948 -0.2227  0.4583 -0.1855
 2850SOL    HW1 9449   4.817   0.183   4.022  0.2592  1.5106  0.9144
 2850SOL    HW2 9450   4.765   0.303   3.924 -0.6186 -0.4419 -1.0831
 2851SOL     OW 9451   4.121   3.839   0.780 -0.0051  0.4249 -0.1164
 2851SOL    HW1 9452   4.218   3.843   0.756  0.7232  0.7486  2.5438
 2851SOL    HW2 9453   4.084   3.749   0.755  1.2661 -0.0981 -0.1989
 2852SOL     OW 9454   4.516   4.174   6.606 -0.8967 -0.6337 -0.6039
 2852SOL    HW1 9455   4.425   4.205   6.633 -1.3065 -1.6307 -0.7750
 2852SOL    HW2 9456   4.523   4.076   6.624  0.4856 -0.3912  0.3197
 2853SOL     OW 9457   6.160   4.225   6.155  0.0086  0.0843 -0.3947
 2853SOL    HW1 9458   6.118   4.255   6.070 -0.4838  3.1917  0.7968
 2853SOL    HW2 9459   6.091   4.221   6.227  0.7459 -0.6269  0.3054
 2854SOL     OW 9460   3.500   1.840   6.316  0.0256 -0.3528  0.1115
 2854SOL    HW1 9461   3.421   1.779   6.303  0.8018 -0.9087 -2.8460
 2854SOL    HW2 9462   3.480   1.929   6.276  0.9918 -0.6337 -1.0606
 2855SOL     OW 9463   1.558   1.695   5.729  0.1522  0.0254 -0.4766
 2855SOL    HW1 9464   1.592   1.625   5.792  2.6651  1.6175  0.0367
 2855SOL    HW2 9465   1.502   1.651   5.658  1.1826 -2.4073  0.1210
 2856SOL     OW 9466   6.711   3.535   4.585 -0.5865  0.5564 -0.1255
 2856SOL    HW1 9467   6.761   3.537   4.499 -0.1447  0.4702  0.1243
 2856SOL    HW2 9468   6.643   3.462   4.583 -1.9531  1.8004 -1.1455
 2857SOL     OW 9469   0.322   2.650   0.298 -0.2857 -0.0319 -0.1342
 2857SOL    HW1 9470   0.297   2.742   0.330  1.2201  1.0967 -2.0190
 2857SOL    HW2 9471   0.239   2.600   0.275 -1.1115  1.0640  0.3403
 2858SOL     OW 9472   3.875   6.279   2.848  0.2353  0.5329 -0.1440
 2858SOL    HW1 9473   3.780   6.262   2.872  0.5702 -2.4985 -0.5998
 2858SOL    HW2 9474   3.895   6.238   2.759  1.8243  1.7439 -0.4087
 2859SOL     OW 9475   4.980   3.145   1.908  0.0867  0.7414  0.4814
 2859SOL    HW1 9476   5.061   3.141   1.967  0.2897  0.3294  0.1787
 2859SOL    HW2 9477   4.913   3.077   1.940  1.4336 -1.7381 -1.5596
 2860SOL     OW 9478   6.958   5.201   2.790 -0.4232  0.4244  0.3854
 2860SOL    HW1 9479   7.055   5.189   2.810 -0.3380 -0.0296 -0.2682
 2860SOL    HW2 9480   6.913   5.112   2.789 -1.2643  0.7667  2.6198
 2861SOL     OW 9481   5.295   4.887   0.888  0.3146 -0.1704 -0.3673
 2861SOL    HW1 9482   5.200   4.856   0.887  0.3408 -0.4661  1.5521
 2861SOL    HW2 9483   5.299   4.985   0.905  0.3558 -0.1626 -0.4202
 2862SOL     OW 9484   3.666   3.105   5.997  0.4832  0.2518 -0.1489
 2862SOL    HW1 9485   3.727   3.171   5.954  0.2773  0.2492 -0.4481
 2862SOL    HW2 9486   3.646   3.031   5.933  0.1283  0.2777 -0.0710
 2863SOL     OW 9487   6.444   5.909   3.737  0.3790 -0.0217  0.3231
 2863SOL    HW1 9488   6.448   6.000   3.696  2.2462 -0.1861  0.0226
 2863SOL    HW2 9489   6.403   5.914   3.827 -1.0802  0.8324 -0.3532
 2864SOL     OW 9490   4.231   2.869   6.880 -0.0874  0.3140  0.4011
 2864SOL    HW1 9491   4.314   2.917   6.910 -1.1849  0.9073  2.7554
 2864SOL    HW2 9492   4.226   2.871   6.781  2.0082  1.4785  0.2493
 2865SOL     OW 9493   5.134   5.562   5.348 -0.4503 -0.1716  0.2417
 2865SOL    HW1 9494   5.191   5.615   5.285 -0.2982  0.2189  0.6965
 2865SOL    HW2 9495   5.179   5.476   5.370 -0.5580 -0.3590 -0.2728
 2866SOL     OW 9496   5.071   5.268   6.330 -0.5351  0.2018  0.1745
 2866SOL    HW1 9497   4.984   5.219   6.334 -0.9682  0.9965  0.6769
 2866SOL    HW2 9498   5.109   5.259   6.238  1.2616 -4.1893  1.0935
 2867SOL     OW 9499   5.743   6.265   1.012  0.4620 -0.0289  0.0992
 2867SOL    HW1 9500   5.660   6.209   1.007 -0.7899  1.7580 -0.1824
 2867SOL    HW2 9501   5.747   6.326   0.933  0.9963  1.2986  1.1017
 2868SOL     OW 9502   2.807   0.048   0.049  0.1640 -0.2904 -0.5864
 2868SOL    HW1 9503   2.781  -0.012   0.124 -1.7060 -0.4283 -1.3022
 2868SOL    HW2 9504   2.839   0.136   0.086 -0.3012 -0.5152  0.3669
 2869SOL     OW 9505   5.150   5.274   5.622  0.0584  0.0537  0.6136
 2869SOL    HW1 9506   5.133   5.271   5.720 -0.3754  0.1387  0.5425
 2869SOL    HW2 9507   5.090   5.209   5.575 -0.1682  0.4503  0.3483
 2870SOL     OW 9508   5.713   2.060   1.869 -0.0403  0.6133 -0.7625
 2870SOL    HW1 9509   5.672   2.143   1.905 -0.7988  0.3280 -0.9472
 2870SOL    HW2 9510   5.767   2.016   1.940  1.3674  1.8783 -1.0039
 2871SOL     OW 9511   4.292   2.378   1.746 -0.5509 -0.1105 -0.0335
 2871SOL    HW1 9512   4.285   2.476   1.730 -1.6636 -0.0565  0.6604
 2871SOL    HW2 9513   4.201   2.337   1.746 -0.1031 -1.1498 -0.3015
 2872SOL     OW 9514   3.102   1.615   3.002  0.0431 -0.3983  0.0803
 2872SOL    HW1 9515   3.063   1.533   3.042  0.8641 -0.3446  1.0503
 2872SOL    HW2 9516   3.107   1.605   2.903  0.0276 -1.4689  0.1749
 2873SOL     OW 9517   6.443   6.333   0.982 -0.4698 -0.0575 -0.0667
 2873SOL    HW1 9518   6.467   6.416   0.932  2.0507 -0.5713  0.1398
 2873SOL    HW2 9519   6.390   6.357   1.064 -0.5964  1.2279 -0.5009
 2874SOL     OW 9520   2.705   0.323   2.702 -0.1912  0.1364 -0.2955
 2874SOL    HW1 9521   2.747   0.352   2.788 -1.3476  1.2176 -0.0620
 2874SOL    HW2 9522   2.750   0.369   2.625  0.6775 -0.6414 -0.2782
 2875SOL     OW 9523   3.992   0.522   2.450  0.2425 -0.8333  0.0038
 2875SOL    HW1 9524   4.070   0.476   2.409  1.1548 -0.0002  0.7594
 2875SOL    HW2 9525   3.909   0.469   2.433  1.0511 -2.0197 -0.3230
 2876SOL     OW 9526   7.021   5.389   2.073  0.7654  0.2280 -0.2602
 2876SOL    HW1 9527   7.032   5.484   2.042  2.2113 -0.0309 -0.6350
 2876SOL    HW2 9528   7.009   5.387   2.172 -0.6670  0.8761 -0.4057
 2877SOL     OW 9529   0.849   2.608   6.843 -0.2029  1.0655 -0.5172
 2877SOL    HW1 9530   0.772   2.548   6.821 -3.5099  5.0144 -0.9033
 2877SOL    HW2 9531   0.867   2.603   6.942 -2.6719  1.7603  0.0324
 2878SOL     OW 9532   3.819   3.794   4.081 -0.3721  0.0174  0.1905
 2878SOL    HW1 9533   3.734   3.837   4.112  0.2132  0.6709  0.9351
 2878SOL    HW2 9534   3.818   3.697   4.106 -0.4003  0.2826  1.2904
 2879SOL     OW 9535   3.359   3.287   0.180 -0.4717  0.3515  0.4900
 2879SOL    HW1 9536   3.427   3.235   0.130  0.4533  2.3393 -0.4237
 2879SOL    HW2 9537   3.404   3.345   0.248 -1.1416  2.1778 -0.5594
 2880SOL     OW 9538   0.730   0.911   5.438 -0.5258  0.6023 -0.1697
 2880SOL    HW1 9539   0.828   0.890   5.442 -1.1554 -2.5177  1.1656
 2880SOL    HW2 9540   0.682   0.838   5.390 -2.2729  2.0035 -0.6602
 2881SOL     OW 9541   3.129   6.720   6.781  0.0564 -0.6163  0.1046
 2881SOL    HW1 9542   3.149   6.631   6.741  1.3588  0.1705 -1.1070
 2881SOL    HW2 9543   3.154   6.718   6.878  2.6905 -0.8490 -0.4826
 2882SOL     OW 9544   5.617   0.428   1.004  0.0514 -0.4047  0.1319
 2882SOL    HW1 9545   5.593   0.414   1.100 -0.4722 -0.8252 -0.0500
 2882SOL    HW2 9546   5.550   0.491   0.962  0.8143  0.5113  0.2696
 2883SOL     OW 9547   6.612   0.161   3.032 -0.3315 -0.4199  0.2863
 2883SOL    HW1 9548   6.693   0.105   3.048  0.9964  1.3007 -0.1604
 2883SOL    HW2 9549   6.572   0.137   2.944  0.2497 -0.6211  0.0749
 2884SOL     OW 9550   6.791   3.650   1.881 -0.1032  0.6126 -0.6749
 2884SOL    HW1 9551   6.861   3.625   1.948 -1.1052 -0.6099 -0.0506
 2884SOL    HW2 9552   6.703   3.610   1.907 -0.3894 -0.4583 -3.0594
 2885SOL     OW 9553   0.377   3.313   3.672  0.1520  0.1294 -0.6815
 2885SOL    HW1 9554   0.397   3.330   3.768  0.3888  0.0704 -0.7196
 2885SOL    HW2 9555   0.318   3.385   3.636 -0.3241 -0.0968 -0.3685
 2886SOL     OW 9556   1.592   3.587   5.597  0.2707 -0.2513 -0.0617
 2886SOL    HW1 9557   1.569   3.504   5.649 -0.3403 -0.5186 -0.7454
 2886SOL    HW2 9558   1.689   3.584   5.572  1.1404  0.8425  2.7736
 2887SOL     OW 9559   0.898   4.063   5.094  0.0985  0.4580 -0.6919
 2887SOL    HW1 9560   0.909   4.144   5.153  0.3869  0.7610 -1.1618
 2887SOL    HW2 9561   0.872   3.985   5.151  2.4630  0.2157  0.1828
 2888SOL     OW 9562   5.656   6.626   5.226 -0.0014 -0.0369  0.2365
 2888SOL    HW1 9563   5.607   6.579   5.299  0.0385 -0.9036 -0.2779
 2888SOL    HW2 9564   5.681   6.560   5.155 -0.9215  0.9440 -1.0488
 2889SOL     OW 9565   2.939   6.005   2.370 -0.0622 -0.9653  0.1421
 2889SOL    HW1 9566   2.866   6.022   2.305 -0.0725 -1.8452 -0.0840
 2889SOL    HW2 9567   3.023   5.979   2.321  0.0563 -1.1851  0.4558
 2890SOL     OW 9568   3.953   6.991   2.017  0.2976 -0.2609 -0.4907
 2890SOL    HW1 9569   3.899   6.975   2.100  0.4029 -0.2759 -0.4242
 2890SOL    HW2 9570   3.969   7.089   2.007  3.5599 -0.4263  1.6411
 2891SOL     OW 9571   0.965   0.756   4.521  0.4312 -0.0948  0.7173
 2891SOL    HW1 9572   0.925   0.769   4.611 -0.4190  1.7362  0.1183
 2891SOL    HW2 9573   1.063   0.777   4.525 -0.0343  2.4184  0.7756
 2892SOL     OW 9574   6.336   2.533   3.915 -0.6889  0.2705 -0.7655
 2892SOL    HW1 9575   6.251   2.522   3.967 -0.5191  0.2044 -0.4983
 2892SOL    HW2 9576   6.390   2.449   3.923 -1.0510 -0.0715 -1.7649
 2893SOL     OW 9577   6.076   4.891   5.100  0.3402  0.2774 -0.3470
 2893SOL    HW1 9578   6.055   4.989   5.097 -0.1609  0.1715 -0.3581
 2893SOL    HW2 9579   5.991   4.839   5.098  0.5149 -0.1255  1.1965
 2894SOL     OW 9580   0.859   5.904   3.773  0.3591 -0.7967  0.1899
 2894SOL    HW1 9581   0.782   5.935   3.828  0.4556 -1.2089  0.5687
 2894SOL    HW2 9582   0.944   5.922   3.822  0.6585  1.2947 -0.9920
 2895SOL     OW 9583   3.910   5.467   5.223 -0.3152 -0.2533 -0.2661
 2895SOL    HW1 9584   3.898   5.552   5.172  0.9141  1.0467  1.5030
 2895SOL    HW2 9585   3.846   5.465   5.300 -0.5031 -1.0609 -0.4301
 2896SOL     OW 9586   4.286   5.889   6.667 -1.0156 -0.2777 -0.1034
 2896SOL    HW1 9587   4.286   5.972   6.723  0.0383 -0.6059  0.4102
 2896SOL    HW2 9588   4.306   5.914   6.572  0.9284 -0.0723  0.3224
 2897SOL     OW 9589   4.252   5.330   2.644 -0.1401 -0.3314 -0.3062
 2897SOL    HW1 9590   4.211   5.282   2.722 -1.4146  0.1705 -0.6386
 2897SOL    HW2 9591   4.184   5.390   2.603  0.4188 -0.7996 -2.0016
 2898SOL     OW 9592   6.275   5.536   1.964  0.6489  0.2284 -0.2366
 2898SOL    HW1 9593   6.176   5.534   1.947  0.6921  0.8133 -0.5683
 2898SOL    HW2 9594   6.295   5.484   2.048  0.2402 -1.1411 -0.9554
 2899SOL     OW 9595   1.835   2.909   2.143 -0.4098 -0.0003  0.1457
 2899SOL    HW1 9596   1.886   2.827   2.172 -1.5050 -1.6593 -2.2303
 2899SOL    HW2 9597   1.867   2.936   2.052 -0.5525  1.8444  0.6178
 2900SOL     OW 9598   2.300   3.291   5.276 -0.0441  0.1090 -0.0491
 2900SOL    HW1 9599   2.390   3.260   5.244 -1.0186 -1.1047 -1.7105
 2900SOL    HW2 9600   2.311   3.381   5.320  1.8056  0.5817 -1.3107
 2901SOL     OW 9601   0.754   3.458   3.183 -0.5069 -0.5568 -0.5031
 2901SOL    HW1 9602   0.768   3.384   3.117 -1.2353 -1.1196 -0.0559
 2901SOL    HW2 9603   0.794   3.432   3.271  0.3944  0.1575 -0.6881
 2902SOL     OW 9604   1.098   6.362   2.479 -0.3729  0.1338 -0.0086
 2902SOL    HW1 9605   1.082   6.355   2.380 -0.3867 -0.7931  0.0552
 2902SOL    HW2 9606   1.073   6.454   2.510 -2.3978 -0.2094 -0.4933
 2903SOL     OW 9607   5.434   6.349   6.993  0.3492  0.3141 -0.0935
 2903SOL    HW1 9608   5.486   6.361   6.908 -0.0027  1.4335 -0.1655
 2903SOL    HW2 9609   5.375   6.269   6.984  2.0883 -1.0620  0.0289
 2904SOL     OW 9610   1.241   4.847   3.756  0.5546  0.3383  0.1081
 2904SOL    HW1 9611   1.207   4.755   3.774  0.5167  0.4205  0.4640
 2904SOL    HW2 9612   1.307   4.844   3.681  0.4260  0.0482  0.0030
 2905SOL     OW 9613   1.874   3.820   2.260  0.0697  0.0962 -0.0374
 2905SOL    HW1 9614   1.872   3.918   2.242  0.0418  0.0592 -0.2412
 2905SOL    HW2 9615   1.948   3.799   2.324 -1.0696  0.4871  1.4810
 2906SOL     OW 9616   5.806   3.696   3.128  0.2498  0.0468  0.3432
 2906SOL    HW1 9617   5.782   3.671   3.222 -0.2071  2.0754  0.8085
 2906SOL    HW2 9618   5.874   3.631   3.093 -0.5745 -1.5415  1.5693
 2907SOL     OW 9619   5.586   1.148   3.267  0.1012 -0.1546 -0.5194
 2907SOL    HW1 9620   5.650   1.147   3.190  0.4989  1.7845 -0.2854
 2907SOL    HW2 9621   5.626   1.201   3.342 -1.3977  0.3201 -0.0204
 2908SOL     OW 9622   4.145   6.862   2.601  0.2501 -0.6193  0.1006
 2908SOL    HW1 9623   4.093   6.919   2.538  1.6713 -0.5032 -1.0286
 2908SOL    HW2 9624   4.132   6.766   2.577  0.2724 -0.6085  0.0448
 2909SOL     OW 9625   6.494   5.673   2.270 -0.1089 -0.5301  0.2970
 2909SOL    HW1 9626   6.403   5.632   2.271 -0.2048 -0.4829  2.9492
 2909SOL    HW2 9627   6.560   5.609   2.309  1.1567 -0.7698 -2.0835
 2910SOL     OW 9628   6.964   1.549   2.834 -0.3694  0.6143  0.1000
 2910SOL    HW1 9629   6.876   1.589   2.858 -0.3798  0.8541 -0.3284
 2910SOL    HW2 9630   6.993   1.487   2.907 -2.7789 -2.5814 -1.3463
 2911SOL     OW 9631   1.567   2.972   4.894 -0.7604  0.2970 -0.2930
 2911SOL    HW1 9632   1.575   3.054   4.838 -1.0589  0.9190  0.5594
 2911SOL    HW2 9633   1.470   2.955   4.914 -0.6063  0.5929  0.7619
 2912SOL     OW 9634   1.593   4.888   2.550 -0.0679 -0.4055  0.7126
 2912SOL    HW1 9635   1.545   4.804   2.578 -0.5145 -0.2359  0.4680
 2912SOL    HW2 9636   1.591   4.895   2.450  0.0836 -0.1700  0.7256
 2913SOL     OW 9637   1.983   5.873   1.567  0.5705 -0.0280  0.2247
 2913SOL    HW1 9638   2.009   5.913   1.479 -0.7890 -0.7240 -0.5117
 2913SOL    HW2 9639   2.018   5.931   1.641  1.6446  0.6195 -0.7519
 2914SOL     OW 9640   4.488   5.076   0.409 -0.4996 -0.0932  0.4176
 2914SOL    HW1 9641   4.549   5.152   0.429  1.1104 -1.1795 -0.1453
 2914SOL    HW2 9642   4.394   5.101   0.434 -0.1124  2.2264 -0.2229
 2915SOL     OW 9643   4.505   6.195   1.036 -0.4607 -0.7756  0.0084
 2915SOL    HW1 9644   4.531   6.289   1.016  0.5700 -1.1495 -0.4890
 2915SOL    HW2 9645   4.420   6.173   0.988  0.3937 -0.7280 -1.6011
 2916SOL     OW 9646   0.649   4.801   6.391 -0.4420 -0.0380 -0.9324
 2916SOL    HW1 9647   0.717   4.738   6.427 -0.1300 -0.0622 -1.5432
 2916SOL    HW2 9648   0.596   4.841   6.466  0.2850  0.0304 -0.4532
 2917SOL     OW 9649   3.888   5.451   5.717 -0.5409  0.2349 -0.1896
 2917SOL    HW1 9650   3.879   5.384   5.644 -0.2547  1.0727 -1.0153
 2917SOL    HW2 9651   3.807   5.510   5.718 -0.4544  0.3490  0.0427
 2918SOL     OW 9652   6.306   3.210   1.289  0.4796 -0.1715 -0.3267
 2918SOL    HW1 9653   6.220   3.254   1.263  1.2744  0.3418 -2.3192
 2918SOL    HW2 9654   6.360   3.272   1.345 -0.4574 -0.5281  1.0066
 2919SOL     OW 9655   0.176   5.559   6.027 -0.3761  0.3195 -0.6708
 2919SOL    HW1 9656   0.209   5.490   6.092 -1.9835  0.5605  0.4548
 2919SOL    HW2 9657   0.190   5.526   5.934  1.8027 -0.1196 -0.2450
 2920SOL     OW 9658   2.588   1.608   3.236 -0.3397  0.1464  0.0514
 2920SOL    HW1 9659   2.633   1.671   3.299  0.4451 -1.2706  0.9563
 2920SOL    HW2 9660   2.492   1.633   3.226 -0.4131  0.5526  1.6315
 2921SOL     OW 9661   0.939   1.824   5.394  0.3851  0.1574 -0.3467
 2921SOL    HW1 9662   0.846   1.795   5.374  1.3905 -1.5310 -3.1713
 2921SOL    HW2 9663   0.978   1.765   5.465 -0.8624  1.3627  1.4116
 2922SOL     OW 9664   3.569   0.127   1.355  0.2309 -0.2712  0.0591
 2922SOL    HW1 9665   3.589   0.030   1.359 -1.7013 -0.6966  0.5180
 2922SOL    HW2 9666   3.470   0.141   1.352  0.3942  1.7111  1.5239
 2923SOL     OW 9667   6.108   6.196   4.281  0.3209 -0.0838  0.1351
 2923SOL    HW1 9668   6.113   6.190   4.181  2.0089  0.7630  0.1445
 2923SOL    HW2 9669   6.144   6.112   4.321 -0.6064 -0.5378  0.0641
 2924SOL     OW 9670   4.337   2.291   3.902 -0.3074  0.6220  0.3954
 2924SOL    HW1 9671   4.368   2.385   3.913 -0.7602  0.8272 -0.0282
 2924SOL    HW2 9672   4.274   2.285   3.824 -0.8077  0.0933  0.8265
 2925SOL     OW 9673   4.378   6.695   5.692  0.2986 -0.0526 -0.0462
 2925SOL    HW1 9674   4.369   6.785   5.735  0.2380 -0.7450  1.4522
 2925SOL    HW2 9675   4.305   6.682   5.626 -1.1354  0.0871  1.4581
 2926SOL     OW 9676   5.680   3.175   5.054 -0.4466  0.0061 -0.1843
 2926SOL    HW1 9677   5.642   3.084   5.069 -1.9211  0.4579 -0.9454
 2926SOL    HW2 9678   5.623   3.224   4.988  0.0169  1.6710  0.5975
 2927SOL     OW 9679   1.665   1.037   2.822  0.4905  0.3432 -0.2846
 2927SOL    HW1 9680   1.746   1.090   2.848  0.4224 -1.0652  3.5029
 2927SOL    HW2 9681   1.583   1.091   2.838  0.5487  0.8025 -1.4380
 2928SOL     OW 9682   1.034   3.340   2.292 -0.3094 -0.5339  0.3909
 2928SOL    HW1 9683   1.110   3.401   2.273 -0.2213 -0.9881 -0.8619
 2928SOL    HW2 9684   0.948   3.391   2.289 -0.0818 -0.0848  1.4662
 2929SOL     OW 9685   1.987   2.724   5.273 -0.5405 -0.1535  0.0022
 2929SOL    HW1 9686   2.038   2.796   5.227 -1.7567  0.1012 -1.0190
 2929SOL    HW2 9687   1.997   2.733   5.372 -0.8204  1.5509 -0.0967
 2930SOL     OW 9688   5.563   6.092   4.842  0.0500 -0.2301 -0.4213
 2930SOL    HW1 9689   5.480   6.148   4.835 -1.0650 -1.7116  0.3588
 2930SOL    HW2 9690   5.603   6.104   4.933 -0.1791 -0.6400 -0.2600
 2931SOL     OW 9691   5.394   5.155   0.566  0.2113 -0.5515 -0.2116
 2931SOL    HW1 9692   5.348   5.069   0.542  1.0867 -0.6731 -1.5979
 2931SOL    HW2 9693   5.478   5.163   0.512  0.0405  1.2694 -0.2576
 2932SOL     OW 9694   1.677   4.764   1.217 -0.7578 -0.4143  0.0812
 2932SOL    HW1 9695   1.676   4.743   1.315  1.2943  2.5571  0.8846
 2932SOL    HW2 9696   1.597   4.819   1.194  0.1889  1.4321  0.8902
 2933SOL     OW 9697   1.678   1.484   0.090  0.1434  0.1646 -0.0252
 2933SOL    HW1 9698   1.773   1.466   0.114  0.2246  0.8235  0.1529
 2933SOL    HW2 9699   1.674   1.559   0.024 -0.0274 -1.8682 -2.4833
 2934SOL     OW 9700   4.021   4.441   6.392  0.0615  0.1968  0.0317
 2934SOL    HW1 9701   3.929   4.481   6.389 -0.0569  0.2099  2.1879
 2934SOL    HW2 9702   4.015   4.344   6.414  0.5413  0.2931  0.6457
 2935SOL     OW 9703   0.962   2.433   6.045  0.3102 -0.0424 -0.7610
 2935SOL    HW1 9704   0.969   2.489   6.127  2.1434  0.9172 -1.5180
 2935SOL    HW2 9705   0.926   2.343   6.069 -1.9777  1.1364  0.5997
 2936SOL     OW 9706   3.230   6.637   0.423 -0.1870  0.6386  0.0937
 2936SOL    HW1 9707   3.249   6.639   0.521  0.4610  1.6985 -0.0401
 2936SOL    HW2 9708   3.252   6.726   0.383 -3.4238  1.2892 -0.4860
 2937SOL     OW 9709   6.797   6.848   1.151 -0.2825 -0.0420 -0.2927
 2937SOL    HW1 9710   6.727   6.908   1.112  2.0529  2.7825 -0.4846
 2937SOL    HW2 9711   6.823   6.779   1.083 -0.7563  0.7983 -1.3595
 2938SOL     OW 9712   6.063   6.236   6.998 -0.1342  0.1756  0.2204
 2938SOL    HW1 9713   6.159   6.250   6.977 -0.2188 -0.6456 -0.8255
 2938SOL    HW2 9714   6.008   6.306   6.953 -0.0805  0.1802  0.1622
 2939SOL     OW 9715   4.384   6.557   2.733  0.6359 -0.2985 -0.2894
 2939SOL    HW1 9716   4.408   6.462   2.712 -0.3277 -0.3560 -1.2345
 2939SOL    HW2 9717   4.435   6.618   2.672  0.3986 -0.2764 -0.4676
 2940SOL     OW 9718   5.575   5.186   4.006  0.1049 -0.6796 -0.0466
 2940SOL    HW1 9719   5.546   5.252   3.936  0.1464  2.4343  2.6496
 2940SOL    HW2 9720   5.670   5.202   4.030 -0.3359 -0.6038  1.7843
 2941SOL     OW 9721   1.865   3.280   3.379 -0.5351 -0.3763  0.2691
 2941SOL    HW1 9722   1.785   3.238   3.336 -0.8061 -1.3340  1.6341
 2941SOL    HW2 9723   1.865   3.258   3.476  1.2565 -0.1723  0.3410
 2942SOL     OW 9724   3.312   1.669   1.378  0.0204  0.1110 -0.1251
 2942SOL    HW1 9725   3.291   1.765   1.358 -0.3863  0.4198  1.6218
 2942SOL    HW2 9726   3.304   1.653   1.476 -0.9270 -1.9744 -0.4824
 2943SOL     OW 9727   5.662   4.913   3.402 -0.0786 -0.2213  0.8471
 2943SOL    HW1 9728   5.743   4.857   3.420 -0.4519 -1.8060 -1.8327
 2943SOL    HW2 9729   5.687   4.992   3.347 -0.2913 -0.5881  0.2120
 2944SOL     OW 9730   1.864   5.928   3.653 -0.2693 -0.2993 -0.0310
 2944SOL    HW1 9731   1.917   5.957   3.573  1.4775  0.1122  1.2190
 2944SOL    HW2 9732   1.791   5.866   3.624  0.4126 -0.2841 -1.9216
 2945SOL     OW 9733   5.529   5.013   1.118 -0.0588  0.4083  0.7658
 2945SOL    HW1 9734   5.452   5.059   1.164 -0.4643  0.5272 -0.0071
 2945SOL    HW2 9735   5.535   5.046   1.024  0.9512  0.3958  0.8229
 2946SOL     OW 9736   2.668   3.106   6.960 -0.1289  0.2228  0.0163
 2946SOL    HW1 9737   2.613   3.148   6.888  0.9759  0.7524 -0.5549
 2946SOL    HW2 9738   2.764   3.132   6.947  0.2736 -0.7551  0.9154
 2947SOL     OW 9739   6.541   0.211   0.066 -0.6097  0.1979  0.5372
 2947SOL    HW1 9740   6.468   0.234   0.132 -0.4891  0.7308  0.4841
 2947SOL    HW2 9741   6.511   0.234  -0.026 -0.0402  1.2501  0.6004
 2948SOL     OW 9742   6.748   4.484   2.525  0.2579  0.4055  0.5011
 2948SOL    HW1 9743   6.655   4.506   2.495  0.5540  1.9700  0.6969
 2948SOL    HW2 9744   6.795   4.433   2.452 -0.4825  0.3090  0.0859
 2949SOL     OW 9745   1.543   1.155   0.732  0.0207 -0.0074  0.2894
 2949SOL    HW1 9746   1.542   1.250   0.704  0.1306 -0.3252 -0.8202
 2949SOL    HW2 9747   1.496   1.099   0.664 -1.5832 -0.5434  1.7559
 2950SOL     OW 9748   5.496   5.848   3.439 -0.3118  0.2559 -0.0405
 2950SOL    HW1 9749   5.450   5.760   3.447  1.9518 -0.9467  0.5606
 2950SOL    HW2 9750   5.496   5.893   3.529  0.1912 -0.0466  0.1196
 2951SOL     OW 9751   4.893   2.122   1.710  0.1088 -0.3002 -0.3696
 2951SOL    HW1 9752   4.892   2.092   1.805  1.1784  0.0320 -0.2366
 2951SOL    HW2 9753   4.892   2.222   1.706 -0.4268 -0.3149 -0.7262
 2952SOL     OW 9754   5.771   0.697   2.920 -0.2269  0.3714  0.4612
 2952SOL    HW1 9755   5.749   0.602   2.898  1.1804  0.3849 -1.1788
 2952SOL    HW2 9756   5.820   0.739   2.844  0.3638  2.0224  1.6808
 2953SOL     OW 9757   0.140   4.680   4.261  0.3826  0.3475 -0.4764
 2953SOL    HW1 9758   0.144   4.580   4.268 -2.3039  0.1397 -0.8445
 2953SOL    HW2 9759   0.179   4.710   4.174 -0.5407 -0.5804 -1.2278
 2954SOL     OW 9760   0.432   5.148   5.260  0.2257  0.0488 -0.7222
 2954SOL    HW1 9761   0.349   5.095   5.277  1.3262 -1.8935 -1.0830
 2954SOL    HW2 9762   0.503   5.121   5.326  0.8395  1.0645 -0.9446
 2955SOL     OW 9763   1.976   5.631   0.190 -0.2348 -0.5926 -0.2224
 2955SOL    HW1 9764   2.029   5.568   0.134 -0.7768  0.4916 -2.0286
 2955SOL    HW2 9765   1.889   5.590   0.214 -0.0683 -1.0041 -0.3195
 2956SOL     OW 9766   5.394   5.576   3.596 -0.5978  0.4062 -0.5927
 2956SOL    HW1 9767   5.493   5.567   3.604 -0.4846  0.9559 -1.2252
 2956SOL    HW2 9768   5.360   5.511   3.529 -0.9372 -1.0985  0.9758
 2957SOL     OW 9769   1.545   5.656   6.154  0.2829 -0.1526  0.2921
 2957SOL    HW1 9770   1.553   5.735   6.093 -1.6850 -0.4669 -0.4272
 2957SOL    HW2 9771   1.636   5.624   6.178  1.2885  3.5626  2.2505
 2958SOL     OW 9772   2.132   5.847   3.233 -0.2674  0.0705 -0.6958
 2958SOL    HW1 9773   2.176   5.761   3.258  1.8866  1.2184 -0.2418
 2958SOL    HW2 9774   2.141   5.862   3.135  0.5293  0.3505 -0.5918
 2959SOL     OW 9775   2.400   2.459   1.748  0.8019  0.4366 -0.3017
 2959SOL    HW1 9776   2.341   2.413   1.814  1.5341 -0.3509 -0.1749
 2959SOL    HW2 9777   2.468   2.394   1.713  1.9715  1.4485  0.0010
 2960SOL     OW 9778   4.514   1.240   0.621 -0.0220  0.4395 -0.1104
 2960SOL    HW1 9779   4.477   1.305   0.554  1.1627 -0.0607 -1.2886
 2960SOL    HW2 9780   4.493   1.147   0.592  0.5883  0.2115  0.1741
 2961SOL     OW 9781   4.443   3.353   1.410 -0.0897  0.4421 -0.6396
 2961SOL    HW1 9782   4.432   3.379   1.506 -0.2452 -0.6641 -0.3375
 2961SOL    HW2 9783   4.399   3.421   1.352  0.5704  1.4637  0.0315
 2962SOL     OW 9784   0.694   0.645   1.960  0.2339  0.2764 -0.6357
 2962SOL    HW1 9785   0.608   0.621   2.006  0.8931  0.2782  0.6359
 2962SOL    HW2 9786   0.745   0.710   2.017  1.6164 -0.6097 -0.8131
 2963SOL     OW 9787   2.357   0.055   4.176 -0.2689 -0.8050  0.5139
 2963SOL    HW1 9788   2.292   0.014   4.112 -1.1130 -0.4428  1.1303
 2963SOL    HW2 9789   2.433  -0.008   4.191 -0.3627 -1.1394 -0.3820
 2964SOL     OW 9790   0.699   2.110   0.637  0.0380  0.1310 -0.7336
 2964SOL    HW1 9791   0.700   2.159   0.723  2.2351 -0.1563 -0.5259
 2964SOL    HW2 9792   0.684   2.012   0.654 -1.2406  0.3029 -0.8496
 2965SOL     OW 9793   1.884   1.391   5.271 -0.2407 -0.2449  0.0477
 2965SOL    HW1 9794   1.957   1.349   5.217 -1.3111 -1.0589 -0.8017
 2965SOL    HW2 9795   1.835   1.321   5.323 -0.1515  0.3506  0.9649
 2966SOL     OW 9796   4.482   4.496   3.939 -0.1807 -0.1583  0.1410
 2966SOL    HW1 9797   4.424   4.576   3.953  0.4069  0.7132 -1.9566
 2966SOL    HW2 9798   4.515   4.462   4.027 -0.6977  1.7086  1.1000
 2967SOL     OW 9799   6.476   6.396   6.386 -0.7587 -0.0903  0.0194
 2967SOL    HW1 9800   6.412   6.408   6.462  0.3090  0.3768  0.8760
 2967SOL    HW2 9801   6.567   6.373   6.422  0.1945  1.8669 -0.9781
 2968SOL     OW 9802   2.013   3.372   6.515 -0.5371 -0.6919 -0.1465
 2968SOL    HW1 9803   2.046   3.460   6.551 -2.5691  0.4227 -0.8519
 2968SOL    HW2 9804   1.924   3.352   6.555 -1.2465 -1.1706 -1.8992
 2969SOL     OW 9805   6.419   0.060   4.745 -0.7068 -0.1439  0.0449
 2969SOL    HW1 9806   6.347   0.109   4.795 -0.0027  2.2664 -1.1375
 2969SOL    HW2 9807   6.457   0.121   4.675  2.2979 -1.4208  0.4459
 2970SOL     OW 9808   1.894   3.070   3.903  0.5307 -0.0527  0.3959
 2970SOL    HW1 9809   1.976   3.077   3.959 -0.6506 -1.1100  2.4002
 2970SOL    HW2 9810   1.865   3.161   3.874  1.0820  0.5754  1.7379
 2971SOL     OW 9811   6.573   3.303   6.349  0.1527  0.4566 -0.0184
 2971SOL    HW1 9812   6.536   3.270   6.262  0.5116  0.5925 -0.2244
 2971SOL    HW2 9813   6.667   3.333   6.336  0.3740  0.0086  0.5284
 2972SOL     OW 9814   6.245   4.176   0.932 -0.4848  0.0786  0.3261
 2972SOL    HW1 9815   6.269   4.231   0.851  0.4522 -0.0902  0.4740
 2972SOL    HW2 9816   6.226   4.237   1.009 -4.7573  0.4566 -0.7655
 2973SOL     OW 9817   4.236   6.208   3.474 -0.1536 -0.2467 -0.2718
 2973SOL    HW1 9818   4.165   6.271   3.505 -0.6045  0.1923 -2.0828
 2973SOL    HW2 9819   4.217   6.117   3.509 -0.8960  0.1170  0.3082
 2974SOL     OW 9820   5.018   5.268   3.382 -0.1369  0.2307 -0.3891
 2974SOL    HW1 9821   5.111   5.232   3.381  0.2689  1.0633 -3.6824
 2974SOL    HW2 9822   5.006   5.328   3.461  1.4279 -1.3716  1.1647
 2975SOL     OW 9823   5.477   4.135   5.171 -0.0847 -0.1901  0.2879
 2975SOL    HW1 9824   5.445   4.086   5.252  0.8884  0.1670  0.9134
 2975SOL    HW2 9825   5.413   4.207   5.148 -0.4236 -0.3635  0.6807
 2976SOL     OW 9826   6.199   1.154   6.724  1.0152 -0.3300 -0.1463
 2976SOL    HW1 9827   6.208   1.177   6.820 -0.3829  0.7058 -0.2430
 2976SOL    HW2 9828   6.290   1.150   6.682  1.5213  2.1087  0.5603
 2977SOL     OW 9829   2.491   5.649   1.524 -0.2131 -0.4117  0.1091
 2977SOL    HW1 9830   2.436   5.574   1.487 -1.2291  0.4154 -0.0823
 2977SOL    HW2 9831   2.508   5.716   1.452  1.0959 -0.6630  0.1570
 2978SOL     OW 9832   3.862   4.775   5.281  0.1261  0.1014  0.5621
 2978SOL    HW1 9833   3.890   4.855   5.228  0.5489 -0.3214  0.1413
 2978SOL    HW2 9834   3.926   4.699   5.265 -0.4656 -0.4337  0.6800
 2979SOL     OW 9835   3.256   0.963   5.616 -0.4852 -0.3310 -0.2957
 2979SOL    HW1 9836   3.317   0.957   5.537 -0.6058 -0.5090 -0.3742
 2979SOL    HW2 9837   3.257   1.057   5.651 -1.2586  0.0117 -1.1548
 2980SOL     OW 9838   5.314   4.345   6.123 -0.1119  0.1269  0.3317
 2980SOL    HW1 9839   5.291   4.439   6.098  1.8857  0.3398 -0.9545
 2980SOL    HW2 9840   5.262   4.282   6.065 -1.4251  0.4021  1.1666
 2981SOL     OW 9841   0.914   0.453   1.208  0.1059  0.0310  0.0781
 2981SOL    HW1 9842   0.984   0.410   1.266  2.9858  0.4926 -2.7499
 2981SOL    HW2 9843   0.896   0.393   1.130 -1.0030  0.9603 -0.3891
 2982SOL     OW 9844   0.419   0.532   1.510 -0.0748  0.6189 -0.1930
 2982SOL    HW1 9845   0.381   0.440   1.512  1.6015 -0.1382 -0.8448
 2982SOL    HW2 9846   0.396   0.580   1.594 -0.8374 -0.4506  0.2242
 2983SOL     OW 9847   4.836   3.018   3.954  0.2975  0.2815  0.1453
 2983SOL    HW1 9848   4.846   2.965   4.038 -0.3045  0.5371  0.3832
 2983SOL    HW2 9849   4.804   3.110   3.976 -2.1590 -0.3451 -0.4912
 2984SOL     OW 9850   6.492   5.856   0.343 -0.7215 -0.1524 -0.5040
 2984SOL    HW1 9851   6.550   5.794   0.291 -0.2799 -0.6572  0.5574
 2984SOL    HW2 9852   6.520   5.950   0.326  2.1868 -0.4214  1.8847
 2985SOL     OW 9853   0.797   5.196   4.187 -0.0350 -0.3032 -0.7327
 2985SOL    HW1 9854   0.764   5.244   4.269 -0.3698 -1.7516  0.0166
 2985SOL    HW2 9855   0.884   5.151   4.207 -1.1440 -2.4691 -0.4366
 2986SOL     OW 9856   3.418   3.529   2.227  0.4753 -0.3411  0.9089
 2986SOL    HW1 9857   3.347   3.595   2.202  0.8992 -0.5132 -0.9156
 2986SOL    HW2 9858   3.379   3.437   2.231  0.4143 -0.3245  0.7272
 2987SOL     OW 9859   1.658   0.952   6.040 -0.4395  0.2416  1.0638
 2987SOL    HW1 9860   1.663   0.963   5.941  0.0391 -5.6026  0.0604
 2987SOL    HW2 9861   1.565   0.971   6.072 -0.7758  1.5428 -0.5514
 2988SOL     OW 9862   4.617   3.485   5.644  0.8699 -0.2559 -0.1630
 2988SOL    HW1 9863   4.673   3.409   5.678  0.9713 -0.2999 -0.4288
 2988SOL    HW2 9864   4.601   3.473   5.546  0.2745 -0.3232 -0.0622
 2989SOL     OW 9865   5.792   3.279   5.778 -0.3800 -0.0838  0.4061
 2989SOL    HW1 9866   5.799   3.362   5.724  0.0564 -0.1360  0.3813
 2989SOL    HW2 9867   5.703   3.235   5.761  0.2113 -0.7413 -1.1826
 2990SOL     OW 9868   5.102   2.429   3.602  0.3107 -0.2772  0.0820
 2990SOL    HW1 9869   5.075   2.522   3.577  1.7332 -0.2158 -1.4328
 2990SOL    HW2 9870   5.101   2.419   3.701  0.4980  1.4722  0.2848
 2991SOL     OW 9871   1.354   4.456   6.038 -0.0409  0.2710 -0.8359
 2991SOL    HW1 9872   1.406   4.425   5.958  0.1810  0.3205 -0.7113
 2991SOL    HW2 9873   1.297   4.534   6.012 -0.2541  0.0471 -1.0378
 2992SOL     OW 9874   6.922   4.097   4.453 -0.4804  0.1259  0.7104
 2992SOL    HW1 9875   6.892   4.027   4.388 -1.6928 -1.3284  2.7591
 2992SOL    HW2 9876   6.912   4.187   4.411 -1.0410 -0.7618 -1.1806
 2993SOL     OW 9877   1.003   4.464   5.938  0.3368  0.1105 -0.1296
 2993SOL    HW1 9878   0.920   4.417   5.907 -0.5420  1.5309 -0.0181
 2993SOL    HW2 9879   1.076   4.398   5.949 -0.9979 -1.3308  0.5469
 2994SOL     OW 9880   5.440   1.781   6.846  0.7040 -0.1528 -0.0156
 2994SOL    HW1 9881   5.481   1.694   6.872 -1.0854 -0.7354  0.9994
 2994SOL    HW2 9882   5.348   1.766   6.810  0.5380  1.2857 -0.2676
 2995SOL     OW 9883   5.500   2.518   2.512  0.0545 -0.2930 -0.2867
 2995SOL    HW1 9884   5.558   2.580   2.564 -0.9456  0.4389 -0.0117
 2995SOL    HW2 9885   5.464   2.447   2.572 -1.4034  0.7702  0.1481
 2996SOL     OW 9886   6.979   0.041   4.134  0.1030  0.0381  0.4676
 2996SOL    HW1 9887   7.059   0.100   4.145 -0.1573  0.7070 -0.9640
 2996SOL    HW2 9888   6.896   0.097   4.129 -0.3054 -0.5516  0.4431
 2997SOL     OW 9889   6.245   1.380   3.408 -0.3221 -0.0053 -0.2736
 2997SOL    HW1 9890   6.330   1.379   3.354 -0.0034 -1.7969  0.2099
 2997SOL    HW2 9891   6.201   1.290   3.403 -2.0973  0.8237 -0.3213
 2998SOL     OW 9892   0.921   2.462   2.879  0.2370 -0.8243 -0.0016
 2998SOL    HW1 9893   0.969   2.392   2.827  1.9029  0.0942  0.2137
 2998SOL    HW2 9894   0.981   2.497   2.951 -1.3521 -0.7550  1.3622
 2999SOL     OW 9895   2.629   4.409   0.878  0.5091  0.0496  0.4095
 2999SOL    HW1 9896   2.595   4.387   0.787 -0.0017 -1.0677  0.8489
 2999SOL    HW2 9897   2.564   4.377   0.947  1.4325 -0.1900  1.2008
 3000SOL     OW 9898   3.375   2.960   3.603 -0.2093 -0.1152  0.1817
 3000SOL    HW1 9899   3.277   2.968   3.586  0.2713  2.2626 -2.0613
 3000SOL    HW2 9900   3.423   2.949   3.517  1.6213  0.4258  1.0781
 3001SOL     OW 9901   0.705   2.338   6.673  0.0449 -0.1337 -0.9522
 3001SOL    HW1 9902   0.637   2.266   6.683  0.2964 -0.0611  2.6581
 3001SOL    HW2 9903   0.676   2.418   6.727  2.1371  0.5557 -0.7828
 3002SOL     OW 9904   2.654   1.756   3.449 -0.1999 -1.0271 -0.0354
 3002SOL    HW1 9905   2.703   1.842   3.432  0.0278 -0.9015  1.1906
 3002SOL    HW2 9906   2.587   1.769   3.521 -1.0371 -1.5796 -0.6932
 3003SOL     OW 9907   0.927   0.927   6.258  0.0181 -0.1993  0.2474
 3003SOL    HW1 9908   0.982   0.908   6.340 -0.1974  0.8699  0.6591
 3003SOL    HW2 9909   0.939   0.853   6.193  0.6507 -0.7973  1.0094
 3004SOL     OW 9910   1.426   0.662   4.045 -0.5329 -0.3300 -0.5503
 3004SOL    HW1 9911   1.516   0.667   4.001 -0.6955 -0.1736 -0.8654
 3004SOL    HW2 9912   1.419   0.733   4.114 -0.3253 -0.4935 -0.3601
 3005SOL     OW 9913   1.252   2.880   4.102 -0.0557 -0.0442  0.5555
 3005SOL    HW1 9914   1.226   2.884   4.006 -1.9958 -2.4374  0.8721
 3005SOL    HW2 9915   1.236   2.969   4.145 -0.1230  0.7673 -1.0795
 3006SOL     OW 9916   5.318   2.290   5.369  0.0166  0.0705 -0.1117
 3006SOL    HW1 9917   5.301   2.242   5.283  1.7554 -1.7051  0.4646
 3006SOL    HW2 9918   5.233   2.333   5.400 -0.9937 -0.4841 -1.9489
 3007SOL     OW 9919   5.752   2.172   6.609 -0.1317 -0.3464 -0.2807
 3007SOL    HW1 9920   5.707   2.262   6.604  3.0953  1.4433  0.4654
 3007SOL    HW2 9921   5.777   2.143   6.516  0.3300  0.3684 -0.3873
 3008SOL     OW 9922   4.518   1.447   5.088 -0.4893 -0.1791  0.9963
 3008SOL    HW1 9923   4.611   1.451   5.050 -0.5065 -3.3118  0.3343
 3008SOL    HW2 9924   4.459   1.509   5.037  1.1201  1.6482  1.2198
 3009SOL     OW 9925   1.814   3.189   1.026 -0.2899  0.3690  0.1158
 3009SOL    HW1 9926   1.824   3.166   1.122 -1.6010  1.4774  0.5576
 3009SOL    HW2 9927   1.844   3.284   1.011  1.2357 -0.2378 -0.8582
 3010SOL     OW 9928   4.221   6.576   0.415  0.2479  0.0008 -0.0295
 3010SOL    HW1 9929   4.165   6.494   0.402  2.4568 -1.4943 -0.7792
 3010SOL    HW2 9930   4.177   6.637   0.481 -0.5952 -2.6816  2.0426
 3011SOL     OW 9931   6.374   5.777   6.060  0.0824 -0.8275  0.1677
 3011SOL    HW1 9932   6.302   5.712   6.033  0.5057 -1.2248 -0.0143
 3011SOL    HW2 9933   6.332   5.862   6.091 -0.4371 -0.5126 -1.3415
 3012SOL     OW 9934   2.596   2.465   5.791  0.3222  0.2143 -0.6046
 3012SOL    HW1 9935   2.531   2.398   5.756 -0.2980  0.4136  0.1425
 3012SOL    HW2 9936   2.667   2.482   5.723 -0.3016 -0.1490 -1.3484
 3013SOL     OW 9937   0.109   6.759   5.503  0.0113 -0.0139  0.0523
 3013SOL    HW1 9938   0.129   6.856   5.488  0.3303 -0.2299 -0.9391
 3013SOL    HW2 9939   0.026   6.751   5.558 -1.5154  0.8145 -1.9906
 3014SOL     OW 9940   5.178   0.271   4.092  0.5673 -0.0657  0.3041
 3014SOL    HW1 9941   5.119   0.322   4.030 -1.6819 -0.7660  1.7493
 3014SOL    HW2 9942   5.210   0.331   4.165 -0.9231 -0.3237  1.2145
 3015SOL     OW 9943   0.993   1.306   2.490  0.0232 -0.1598 -0.1903
 3015SOL    HW1 9944   0.983   1.393   2.442  1.3643  0.9987  1.5008
 3015SOL    HW2 9945   0.951   1.313   2.580 -1.0970 -1.7752 -0.5468
 3016SOL     OW 9946   2.158   0.181   5.998  0.6091 -0.0591 -0.1039
 3016SOL    HW1 9947   2.248   0.181   6.040  0.6880  0.3345 -0.2725
 3016SOL    HW2 9948   2.125   0.275   5.988 -0.2230 -0.2270  0.8141
 3017SOL     OW 9949   6.642   5.462   6.437 -0.5886 -0.0860  0.4741
 3017SOL    HW1 9950   6.659   5.364   6.430 -0.0521  0.0010  0.4915
 3017SOL    HW2 9951   6.715   5.505   6.489 -1.7768  0.0635  2.0982
 3018SOL     OW 9952   3.421   2.749   6.638  0.7135  0.0233  0.4138
 3018SOL    HW1 9953   3.500   2.706   6.594  1.2471  1.0402  0.3490
 3018SOL    HW2 9954   3.337   2.724   6.589  0.6707 -2.7905  1.7076
 3019SOL     OW 9955   2.083   6.944   4.889 -0.1906 -0.6994  0.5172
 3019SOL    HW1 9956   2.173   6.917   4.854  0.2999  0.6506  0.6772
 3019SOL    HW2 9957   2.013   6.886   4.847  0.6919 -1.4147 -0.0290
 3020SOL     OW 9958   4.756   3.886   0.413  0.0274 -0.3263  0.1755
 3020SOL    HW1 9959   4.808   3.953   0.466  0.3362  0.9669 -1.6593
 3020SOL    HW2 9960   4.687   3.933   0.359 -0.9612 -1.7140  0.1936
 3021SOL     OW 9961   2.815   5.257   5.306  0.3096 -0.2801  0.1656
 3021SOL    HW1 9962   2.758   5.333   5.339  0.9508 -0.4260  1.6358
 3021SOL    HW2 9963   2.799   5.176   5.362  1.3553 -0.5627  0.0678
 3022SOL     OW 9964   6.165   5.281   4.035  0.0090 -1.1572 -0.0576
 3022SOL    HW1 9965   6.130   5.375   4.034 -3.3183 -2.2682 -0.7515
 3022SOL    HW2 9966   6.236   5.271   3.965 -2.1543  0.0423 -2.5916
 3023SOL     OW 9967   6.694   0.768   2.957 -0.4288 -0.1116 -0.0528
 3023SOL    HW1 9968   6.662   0.678   2.927  0.8924 -0.3968 -0.6873
 3023SOL    HW2 9969   6.758   0.805   2.890  0.2142  0.6239  0.9295
 3024SOL     OW 9970   0.444   5.080   6.168 -0.5711 -0.4279  0.1075
 3024SOL    HW1 9971   0.487   5.017   6.104  0.3126  0.5923 -0.3419
 3024SOL    HW2 9972   0.370   5.034   6.216  1.5774 -2.5748  1.5947
 3025SOL     OW 9973   4.007   5.279   0.390  0.1557  0.0010  0.5251
 3025SOL    HW1 9974   4.002   5.356   0.326 -2.7397 -0.4833  0.0071
 3025SOL    HW2 9975   3.939   5.293   0.463  0.5771 -1.4045  1.2129
 3026SOL     OW 9976   5.401   5.875   0.687 -0.6226 -0.0175  0.8641
 3026SOL    HW1 9977   5.484   5.891   0.635 -0.3257 -0.2212  1.2744
 3026SOL    HW2 9978   5.323   5.869   0.624 -0.2490 -0.4138  0.4340
 3027SOL     OW 9979   5.190   3.393   1.565  0.2333  0.3961  0.1393
 3027SOL    HW1 9980   5.189   3.392   1.465  2.3229  0.1653  0.0771
 3027SOL    HW2 9981   5.173   3.300   1.599 -1.0393  0.5762  0.0393
 3028SOL     OW 9982   2.627   4.008   0.208  0.0911  0.1729  0.5864
 3028SOL    HW1 9983   2.660   4.061   0.287 -0.2007 -1.3998  1.8062
 3028SOL    HW2 9984   2.702   3.955   0.170 -0.1202 -0.3134  0.8380
 3029SOL     OW 9985   7.000   2.299   4.594 -0.3514 -0.5189  0.1689
 3029SOL    HW1 9986   7.084   2.311   4.541 -0.3129  1.2442  0.5749
 3029SOL    HW2 9987   7.023   2.258   4.683 -0.1521 -1.5066 -0.3204
 3030SOL     OW 9988   2.670   5.490   0.655  0.2086  0.2318  0.5035
 3030SOL    HW1 9989   2.688   5.584   0.687 -0.7543  0.6754 -0.2127
 3030SOL    HW2 9990   2.748   5.458   0.602  0.4230  0.7510  0.4905
 3031SOL     OW 9991   0.329   6.255   2.200 -0.4678 -0.5674  0.1329
 3031SOL    HW1 9992   0.291   6.248   2.107 -1.0948 -0.9551  0.4106
 3031SOL    HW2 9993   0.255   6.248   2.267  0.1396 -1.8425  0.7023
 3032SOL     OW 9994   1.504   6.832   0.705  0.2211 -0.1421 -0.0757
 3032SOL    HW1 9995   1.423   6.775   0.689  1.4822 -2.2717  0.6948
 3032SOL    HW2 9996   1.477   6.928   0.709 -2.3044 -0.8004  0.4710
 3033SOL     OW 9997   5.605   2.460   4.762  0.3290 -0.3438 -0.0173
 3033SOL    HW1 9998   5.655   2.390   4.711  1.7155  0.4376  0.2267
 3033SOL    HW2 9999   5.523   2.419   4.804  0.6725 -1.6147 -0.5472
 3034SOL     OW10000   0.781   3.374   4.607  0.0582  0.3395 -0.5190
 3034SOL    HW110001   0.876   3.384   4.637 -0.1687  1.4305 -0.1261
 3034SOL    HW210002   0.720   3.406   4.680 -0.5037  3.0352 -2.0225
 3035SOL     OW10003   1.521   3.116   0.976 -0.3410 -0.0977 -0.2329
 3035SOL    HW110004   1.614   3.084   0.994  0.0302 -1.6745 -3.8466
 3035SOL    HW210005   1.523   3.213   0.952 -0.1151  0.5740  2.2566
 3036SOL     OW10006   4.022   2.621   5.811 -0.4572 -1.5651 -0.0864
 3036SOL    HW110007   4.085   2.555   5.769  0.5808 -0.7607  0.1398
 3036SOL    HW210008   4.007   2.697   5.748  1.7536  0.0537  1.1964
 3037SOL     OW10009   6.943   5.284   1.374  0.1747  0.0706 -0.1409
 3037SOL    HW110010   6.920   5.217   1.304  0.8763 -1.7036  1.2530
 3037SOL    HW210011   6.953   5.374   1.332 -0.8183 -0.6662 -2.0690
 3038SOL     OW10012   5.361   4.380   6.420 -1.1631  0.2963 -0.1322
 3038SOL    HW110013   5.357   4.414   6.325  1.8870 -1.5916 -1.0867
 3038SOL    HW210014   5.275   4.335   6.443 -1.8032  0.3289 -2.2330
 3039SOL     OW10015   0.151   0.667   5.839 -0.4537 -0.4817 -0.2407
 3039SOL    HW110016   0.232   0.609   5.839 -1.3805 -1.8266 -0.5263
 3039SOL    HW210017   0.132   0.697   5.745  0.5674  1.1361  0.0239
 3040SOL     OW10018   5.189   3.855   0.088 -0.3417 -0.0087  0.4938
 3040SOL    HW110019   5.289   3.857   0.077 -0.2387  1.4538  1.4627
 3040SOL    HW210020   5.146   3.877  -0.000  0.1221 -2.2337 -0.3378
 3041SOL     OW10021   2.124   4.645   4.585  0.3634 -0.2862  0.0527
 3041SOL    HW110022   2.160   4.698   4.662 -1.2652 -0.4056  0.9370
 3041SOL    HW210023   2.053   4.583   4.618  0.4920 -1.2214 -1.3714
 3042SOL     OW10024   0.631   4.797   4.824 -0.0174 -0.0027 -0.3663
 3042SOL    HW110025   0.722   4.784   4.865 -0.7512 -1.0032  1.0715
 3042SOL    HW210026   0.563   4.749   4.880 -1.6433  1.9261 -0.5721
 3043SOL     OW10027   2.038   4.968   1.664  0.0741  0.1379 -0.3979
 3043SOL    HW110028   2.056   5.050   1.609 -0.8116  0.0190 -0.8695
 3043SOL    HW210029   2.037   4.888   1.605 -0.5051 -0.0399 -0.1459
 3044SOL     OW10030   3.863   3.606   4.994 -0.1496  0.2451 -0.0969
 3044SOL    HW110031   3.865   3.621   4.895 -1.1287 -0.2264 -0.1964
 3044SOL    HW210032   3.788   3.657   5.035  0.0626  0.1957  0.3694
 3045SOL     OW10033   4.016   2.868   1.047  0.1218  0.3191  0.4608
 3045SOL    HW110034   4.058   2.778   1.058  0.8826  0.5332 -0.5467
 3045SOL    HW210035   3.917   2.861   1.062  0.3599 -0.3848  1.8587
 3046SOL     OW10036   6.449   0.251   0.514  0.4120 -0.0175 -0.3084
 3046SOL    HW110037   6.398   0.303   0.445  0.3702 -0.9464 -0.9855
 3046SOL    HW210038   6.542   0.233   0.480  0.4102 -0.4314 -0.0982
 3047SOL     OW10039   6.994   2.621   4.772 -0.3180 -0.2754 -0.1425
 3047SOL    HW110040   6.927   2.549   4.787 -1.4955  0.7036 -0.5540
 3047SOL    HW210041   7.030   2.615   4.679  1.6910 -1.9984  0.6602
 3048SOL     OW10042   3.256   3.130   6.350 -0.2897 -0.7865 -0.0888
 3048SOL    HW110043   3.307   3.107   6.267 -0.3927 -1.5035  0.0390
 3048SOL    HW210044   3.167   3.084   6.349 -0.6302 -0.1387  0.0367
 3049SOL     OW10045   5.994   1.483   4.058  0.1040  0.0453  0.4097
 3049SOL    HW110046   5.910   1.464   4.108  0.1332  0.0568  0.4631
 3049SOL    HW210047   6.020   1.402   4.005 -0.4557  0.3427 -0.3526
 3050SOL     OW10048   3.524   1.786   0.580  0.3631  0.3640 -0.4861
 3050SOL    HW110049   3.545   1.883   0.586 -0.9708  0.6775 -0.5055
 3050SOL    HW210050   3.441   1.773   0.525  0.6982 -0.8140 -0.7511
 3051SOL     OW10051   1.921   5.332   5.819 -0.0638  0.1622  0.3396
 3051SOL    HW110052   1.911   5.272   5.740 -0.2172 -1.2624  1.4132
 3051SOL    HW210053   1.842   5.392   5.826 -0.4950 -0.3570 -0.0429
 3052SOL     OW10054   6.384   6.797   1.775 -0.3270 -0.7425 -0.3353
 3052SOL    HW110055   6.291   6.803   1.812 -0.2488  1.5636 -0.3705
 3052SOL    HW210056   6.443   6.862   1.824  1.2385 -2.0253 -0.4475
 3053SOL     OW10057   2.120   3.681   2.332 -0.3830 -0.1282  0.1393
 3053SOL    HW110058   2.108   3.592   2.286 -2.0079  0.8800 -1.5450
 3053SOL    HW210059   2.156   3.747   2.266  0.1447  0.6415  1.1871
 3054SOL     OW10060   5.607   0.883   3.039  0.1398 -0.1995  0.4459
 3054SOL    HW110061   5.662   0.824   2.981 -1.6915 -1.2244 -0.3345
 3054SOL    HW210062   5.517   0.840   3.055 -1.2479  2.3263 -0.0932
 3055SOL     OW10063   6.635   3.633   0.258 -0.3619  0.1588  0.1220
 3055SOL    HW110064   6.677   3.622   0.167 -0.4133 -0.5167  0.1720
 3055SOL    HW210065   6.548   3.583   0.260 -0.1275 -0.2298  0.6950
 3056SOL     OW10066   5.315   1.765   0.679 -0.4057  0.5515 -0.2116
 3056SOL    HW110067   5.337   1.671   0.702  0.6845  0.9787  0.5713
 3056SOL    HW210068   5.220   1.784   0.706 -0.4420 -0.1440  0.1818
 3057SOL     OW10069   4.318   4.675   2.127  0.2770  0.4299 -0.3172
 3057SOL    HW110070   4.382   4.668   2.050 -0.6969 -0.4342 -1.0712
 3057SOL    HW210071   4.227   4.699   2.093  0.4358  3.0703  0.8707
 3058SOL     OW10072   6.325   6.354   5.897 -0.2514 -0.3616  0.0818
 3058SOL    HW110073   6.280   6.303   5.823 -0.9686  0.7012 -0.2304
 3058SOL    HW210074   6.285   6.329   5.985  2.0307 -3.2677  0.4617
 3059SOL     OW10075   2.819   2.545   5.606 -0.1562 -0.2271 -0.6361
 3059SOL    HW110076   2.798   2.453   5.574  0.4201  0.3167 -2.7789
 3059SOL    HW210077   2.751   2.609   5.569  0.3435  0.3979 -0.4851
 3060SOL     OW10078   4.574   5.281   4.459 -0.6756 -0.1163  0.0711
 3060SOL    HW110079   4.597   5.207   4.522  0.3251  1.2518  1.4004
 3060SOL    HW210080   4.522   5.351   4.507 -0.8534  0.4531 -0.9194
 3061SOL     OW10081   7.004   5.786   6.049  0.0074 -0.3334 -0.2435
 3061SOL    HW110082   7.051   5.873   6.064 -0.6597  0.0488 -0.2751
 3061SOL    HW210083   7.067   5.710   6.063  0.2897  0.1106  1.0959
 3062SOL     OW10084   0.782   3.138   1.059  0.4650 -0.0768  0.5425
 3062SOL    HW110085   0.797   3.136   0.960  1.3273  1.8498  0.5912
 3062SOL    HW210086   0.862   3.101   1.105 -0.3819 -2.0489  0.5553
 3063SOL     OW10087   1.782   5.930   0.345 -0.4840  0.0949  0.2296
 3063SOL    HW110088   1.844   6.006   0.366 -0.8349  0.9579 -1.6717
 3063SOL    HW210089   1.740   5.897   0.430  0.6467  1.1730  1.2438
 3064SOL     OW10090   3.891   0.498   6.890  0.2324  0.6257  0.0076
 3064SOL    HW110091   3.884   0.585   6.939 -3.2620  1.5614 -1.8130
 3064SOL    HW210092   3.907   0.424   6.956 -2.0295  2.0421  2.3734
 3065SOL     OW10093   6.621   2.305   0.564 -0.2298  0.4211 -0.4390
 3065SOL    HW110094   6.609   2.363   0.483  2.0169  1.5100 -0.0571
 3065SOL    HW210095   6.570   2.344   0.641 -0.5952  0.5837 -0.7580
 3066SOL     OW10096   4.743   6.127   0.587  0.2922  0.5034  0.0198
 3066SOL    HW110097   4.703   6.132   0.679 -3.0750 -0.4590 -1.2201
 3066SOL    HW210098   4.772   6.033   0.569 -1.6115  0.0076 -0.7477
 3067SOL     OW10099   2.326   1.790   6.574  0.0376 -0.3661 -0.0309
 3067SOL    HW110100   2.302   1.887   6.571  1.5011  0.0187 -0.4668
 3067SOL    HW210101   2.299   1.746   6.489  2.2162  0.4340 -1.2120
 3068SOL     OW10102   6.759   6.812   0.614  0.3576 -0.1185  0.3558
 3068SOL    HW110103   6.719   6.857   0.694  0.4054 -0.1910  0.4190
 3068SOL    HW210104   6.838   6.865   0.582 -1.3809  1.6250 -1.4337
 3069SOL     OW10105   4.776   6.431   2.660  0.3718  0.2081 -0.2527
 3069SOL    HW110106   4.802   6.371   2.584 -0.9429  0.4607 -0.9386
 3069SOL    HW210107   4.688   6.402   2.696 -0.0458  1.4025 -0.2641
 3070SOL     OW10108   2.714   6.723   2.151  0.2380 -0.4715 -0.3003
 3070SOL    HW110109   2.649   6.755   2.082 -3.1960 -1.7539  2.0733
 3070SOL    HW210110   2.698   6.772   2.237  1.9569 -1.3692  0.5816
 3071SOL     OW10111   0.349   2.702   4.863  0.0379 -0.3192  0.3348
 3071SOL    HW110112   0.296   2.648   4.928 -1.4184 -0.1108 -0.6257
 3071SOL    HW210113   0.304   2.790   4.848  1.1201  0.2122  0.1217
 3072SOL     OW10114   3.107   6.642   5.845 -0.6259 -0.2362 -0.4062
 3072SOL    HW110115   3.036   6.586   5.887  1.1259 -0.1947  2.9991
 3072SOL    HW210116   3.188   6.586   5.828 -0.2232  0.4526 -0.8064
 3073SOL     OW10117   5.331   4.729   1.531 -0.0873  0.2372  0.4023
 3073SOL    HW110118   5.260   4.752   1.465  1.7903 -1.3063 -2.3481
 3073SOL    HW210119   5.366   4.637   1.511  1.0803 -0.0187  3.1699
 3074SOL     OW10120   1.780   4.704   0.675  0.2082 -0.0995  1.0211
 3074SOL    HW110121   1.757   4.688   0.771 -0.0257  0.7920  1.1227
 3074SOL    HW210122   1.875   4.733   0.668  0.1440  0.1132  1.0167
 3075SOL     OW10123   1.296   5.739   0.899  0.1559  0.1454 -0.1711
 3075SOL    HW110124   1.276   5.642   0.884  1.8054 -0.1148 -0.8222
 3075SOL    HW210125   1.330   5.752   0.992  1.2740 -0.1347 -0.5333
 3076SOL     OW10126   5.943   1.382   5.077 -0.3130  0.5735 -0.4113
 3076SOL    HW110127   6.017   1.350   5.137  0.2486  0.0284 -1.3702
 3076SOL    HW210128   5.967   1.364   4.982 -1.8367  0.0883 -0.7295
 3077SOL     OW10129   0.542   3.748   2.872  0.5397 -0.3978  0.3161
 3077SOL    HW110130   0.569   3.675   2.934  0.3485 -0.1788  0.6607
 3077SOL    HW210131   0.455   3.725   2.828  0.8492 -0.7113 -0.1395
 3078SOL     OW10132   0.891   2.938   2.551 -0.3601  0.4952 -0.0829
 3078SOL    HW110133   0.805   2.921   2.502 -0.9744  0.9906  0.8035
 3078SOL    HW210134   0.909   2.861   2.612  0.2816 -0.0073 -0.8780
 3079SOL     OW10135   1.207   3.041   6.149 -0.1083 -0.3908  0.4647
 3079SOL    HW110136   1.111   3.017   6.161  0.0916 -0.1953  3.1281
 3079SOL    HW210137   1.264   2.964   6.179  0.5709 -0.0245  0.1445
 3080SOL     OW10138   4.198   5.094   0.416  0.1237 -0.3931 -0.1002
 3080SOL    HW110139   4.208   5.066   0.512  1.7345  0.8490  0.1470
 3080SOL    HW210140   4.127   5.163   0.409 -0.6501 -1.1652  0.0360
 3081SOL     OW10141   2.082   5.511   1.278  0.0824 -0.1925  0.0884
 3081SOL    HW110142   2.110   5.537   1.371  0.7035  2.2897 -0.7019
 3081SOL    HW210143   1.994   5.463   1.282  0.1548 -0.2533  1.9628
 3082SOL     OW10144   3.929   5.394   4.780  0.2763  0.1349 -0.0387
 3082SOL    HW110145   3.911   5.325   4.710 -0.0502  0.3222 -0.1441
 3082SOL    HW210146   4.000   5.361   4.842  0.6823  0.0339 -0.5514
 3083SOL     OW10147   3.746   5.788   2.187  0.2215  0.6707 -0.4580
 3083SOL    HW110148   3.758   5.887   2.179 -0.6981  0.8865  0.5753
 3083SOL    HW210149   3.828   5.742   2.152 -0.6165  1.6215 -4.1472
 3084SOL     OW10150   0.938   0.557   5.131  0.0725 -1.0975 -0.0094
 3084SOL    HW110151   0.945   0.565   5.230  0.4864 -0.9720 -0.0472
 3084SOL    HW210152   0.970   0.467   5.103  0.7896 -0.8136 -0.1096
 3085SOL     OW10153   0.199   3.241   6.544  0.2312  0.0152 -0.7736
 3085SOL    HW110154   0.141   3.321   6.554  2.1125  1.2080  1.5595
 3085SOL    HW210155   0.295   3.267   6.554  1.0399 -2.3044 -1.6304
 3086SOL     OW10156   5.309   1.086   0.183  0.1658 -0.1843  0.0600
 3086SOL    HW110157   5.393   1.107   0.132  0.3523 -2.8916 -0.8967
 3086SOL    HW210158   5.236   1.147   0.153  1.2550  0.8447 -0.6090
 3087SOL     OW10159   3.925   0.575   2.094  0.5251 -0.0620 -0.1478
 3087SOL    HW110160   4.025   0.564   2.094  0.4437 -0.8929  0.5991
 3087SOL    HW210161   3.882   0.486   2.109 -0.2496  0.7341  3.0361
 3088SOL     OW10162   1.941   2.197   4.145  0.0787 -0.1888 -0.4388
 3088SOL    HW110163   1.914   2.228   4.054  0.4547 -0.1159 -0.5274
 3088SOL    HW210164   1.917   2.101   4.156 -1.2320  0.1685 -0.1086
 3089SOL     OW10165   6.113   0.684   6.516 -0.0552 -0.3656 -0.3524
 3089SOL    HW110166   6.110   0.784   6.528 -0.0853 -0.2566 -1.2128
 3089SOL    HW210167   6.112   0.662   6.419  1.8820 -1.1554 -0.2330
 3090SOL     OW10168   2.284   0.389   4.153 -0.3476 -0.1989 -0.3294
 3090SOL    HW110169   2.191   0.366   4.181 -0.3292  0.6765  0.4745
 3090SOL    HW210170   2.327   0.446   4.222  0.5634 -0.0349 -1.0114
 3091SOL     OW10171   1.299   3.598   2.548  0.1665 -0.1461 -0.0962
 3091SOL    HW110172   1.254   3.636   2.467  0.6369 -1.8207 -1.1976
 3091SOL    HW210173   1.248   3.517   2.579  1.9656 -1.6937 -0.9736
 3092SOL     OW10174   0.070   2.354   1.507 -0.0278 -0.1069  0.0962
 3092SOL    HW110175   0.099   2.259   1.497 -0.8481 -0.3228 -0.2538
 3092SOL    HW210176   0.151   2.413   1.512  0.4781 -0.7691 -0.1694
 3093SOL     OW10177   4.221   4.679   6.127 -0.0870  0.4783 -0.2290
 3093SOL    HW110178   4.143   4.740   6.135  0.2374  0.7864  0.6391
 3093SOL    HW210179   4.219   4.612   6.201  1.6745  1.8930  1.1868
 3094SOL     OW10180   3.570   0.413   6.262  0.0914  0.1378 -0.0560
 3094SOL    HW110181   3.658   0.457   6.281  0.4552 -1.4479  2.5095
 3094SOL    HW210182   3.497   0.481   6.266  1.0477  1.2628 -0.9683
 3095SOL     OW10183   2.419   1.773   0.763 -0.2184 -0.7509  0.6118
 3095SOL    HW110184   2.433   1.855   0.708  0.2077 -0.5801  0.9684
 3095SOL    HW210185   2.447   1.791   0.857 -0.1347 -1.3065  0.6974
 3096SOL     OW10186   4.967   3.462   3.209  0.0017 -0.1762 -0.5650
 3096SOL    HW110187   4.940   3.528   3.140 -1.1082 -0.8966 -0.8376
 3096SOL    HW210188   4.952   3.369   3.175  0.6423 -0.5610  0.1652
 3097SOL     OW10189   3.850   2.097   6.386  0.1957 -0.4889 -0.1134
 3097SOL    HW110190   3.763   2.107   6.435  0.8215 -0.8544  1.0979
 3097SOL    HW210191   3.911   2.036   6.437  0.5946 -1.5201 -1.7329
 3098SOL     OW10192   0.745   1.885   1.464 -0.3446 -0.0672  0.2280
 3098SOL    HW110193   0.772   1.828   1.542 -0.4721 -0.4034  0.0270
 3098SOL    HW210194   0.698   1.967   1.498 -1.6746 -0.8916  0.4684
 3099SOL     OW10195   0.062   0.076   5.006  0.3410 -0.1489 -0.1898
 3099SOL    HW110196   0.048   0.017   5.086  0.6590 -0.9244 -0.6939
 3099SOL    HW210197   0.069   0.019   4.924  0.2161  0.6272 -0.7483
 3100SOL     OW10198   1.050   6.859   2.790  0.4595  0.5170 -0.6607
 3100SOL    HW110199   1.001   6.839   2.875  3.0705 -0.4403  0.7289
 3100SOL    HW210200   0.985   6.886   2.720 -2.1591 -1.8090  0.6972
 3101SOL     OW10201   3.386   6.303   6.880  0.0148 -1.0496 -0.1091
 3101SOL    HW110202   3.445   6.291   6.801 -0.6229 -1.7786 -0.4876
 3101SOL    HW210203   3.430   6.365   6.945  1.5590 -2.1640 -0.0242
 3102SOL     OW10204   1.148   5.421   2.028  0.0013 -0.1201 -0.1695
 3102SOL    HW110205   1.217   5.352   2.009  1.1866  1.0859 -0.3536
 3102SOL    HW210206   1.180   5.482   2.101 -0.9703  0.3336 -0.0946
 3103SOL     OW10207   1.685   5.819   1.544 -0.2655 -0.5048  0.0942
 3103SOL    HW110208   1.647   5.782   1.459  2.4224 -2.7085 -0.2867
 3103SOL    HW210209   1.771   5.867   1.524 -0.4851  0.4969  1.4139
 3104SOL     OW10210   5.375   1.656   4.658 -0.4717  0.1769  0.4239
 3104SOL    HW110211   5.369   1.579   4.721 -1.4914 -0.1671 -0.0713
 3104SOL    HW210212   5.339   1.629   4.569  0.6121  0.7694 -0.2117
 3105SOL     OW10213   6.313   3.218   0.918 -0.2463 -0.1145 -0.4444
 3105SOL    HW110214   6.368   3.157   0.861  1.5152  0.3799  0.6678
 3105SOL    HW210215   6.327   3.312   0.889  0.7050  0.1474  0.7980
 3106SOL     OW10216   5.981   0.685   5.456  0.1323 -0.1117  0.1199
 3106SOL    HW110217   6.045   0.744   5.505 -0.9662  0.3634  1.0175
 3106SOL    HW210218   6.005   0.684   5.359  1.6881 -0.2193  0.4707
 3107SOL     OW10219   3.960   1.560   5.072  0.5422 -0.3503  0.3842
 3107SOL    HW110220   3.896   1.632   5.046 -1.1416 -1.0986  2.1838
 3107SOL    HW210221   3.912   1.490   5.124  2.7238 -1.2937  1.2620
 3108SOL     OW10222   1.887   3.558   3.448  0.0064 -0.8904 -0.0415
 3108SOL    HW110223   1.896   3.459   3.450  0.6893 -0.8320 -0.0901
 3108SOL    HW210224   1.877   3.589   3.354 -1.5823 -1.0174  0.0521
 3109SOL     OW10225   0.076   6.739   3.055 -0.3824  0.4976  0.4963
 3109SOL    HW110226  -0.009   6.786   3.077 -0.4018 -0.2240  2.1144
 3109SOL    HW210227   0.154   6.798   3.076 -0.4548  0.5646  0.5745
 3110SOL     OW10228   0.667   3.599   2.046 -0.7064  0.7654 -0.0620
 3110SOL    HW110229   0.732   3.545   1.993  0.3056  0.0908  1.7558
 3110SOL    HW210230   0.682   3.696   2.030  3.3061  0.8711  2.8681
 3111SOL     OW10231   6.361   3.453   5.570  0.1879 -0.0831 -0.4828
 3111SOL    HW110232   6.455   3.473   5.597 -0.6258  2.2211  0.9127
 3111SOL    HW210233   6.324   3.530   5.518 -1.0535 -0.8353 -0.7681
 3112SOL     OW10234   2.181   3.144   5.085 -0.5643  0.0666 -0.6695
 3112SOL    HW110235   2.232   3.198   5.152 -1.3167 -0.6925  0.5552
 3112SOL    HW210236   2.230   3.058   5.067 -1.7173 -1.0430  1.1322
 3113SOL     OW10237   1.794   4.948   2.720  0.2837 -0.0792  0.1117
 3113SOL    HW110238   1.811   5.046   2.728  0.5681 -0.0382 -0.8841
 3113SOL    HW210239   1.728   4.931   2.647  1.2135 -0.7114 -0.6011
 3114SOL     OW10240   3.866   1.871   6.565 -0.5239  0.0456  0.1464
 3114SOL    HW110241   3.914   1.790   6.598 -1.5537  0.0655  1.8088
 3114SOL    HW210242   3.847   1.862   6.468  0.9368 -0.8925 -0.0859
 3115SOL     OW10243   5.141   4.180   5.520  0.2280 -0.5105  0.2277
 3115SOL    HW110244   5.142   4.080   5.523  1.0589 -0.4897  1.4867
 3115SOL    HW210245   5.064   4.215   5.573 -0.5744 -0.4683 -0.9193
 3116SOL     OW10246   5.946   2.182   1.507 -0.0199 -0.4509 -0.5116
 3116SOL    HW110247   5.869   2.157   1.566  0.0178 -1.1748 -0.7648
 3116SOL    HW210248   5.940   2.279   1.484  0.4698  0.0899  1.4473
 3117SOL     OW10249   4.646   1.153   6.626  0.5747 -0.5398 -0.4437
 3117SOL    HW110250   4.692   1.147   6.714  0.8473 -1.6989 -0.6582
 3117SOL    HW210251   4.565   1.094   6.626  0.0380  0.1692 -0.6623
 3118SOL     OW10252   1.533   0.645   2.777 -0.3491  0.7453  0.0673
 3118SOL    HW110253   1.597   0.669   2.704 -0.2890  0.9522  0.1855
 3118SOL    HW210254   1.442   0.682   2.756 -0.2737  1.0216  0.2140
 3119SOL     OW10255   4.740   1.979   4.015 -0.3199  0.4520  0.3681
 3119SOL    HW110256   4.757   1.967   4.113 -1.6237  0.7497  0.6490
 3119SOL    HW210257   4.641   1.988   3.999 -0.0215  2.5133 -0.7088
 3120SOL     OW10258   2.326   0.392   5.715  0.2285  0.1978 -0.2936
 3120SOL    HW110259   2.372   0.305   5.702 -0.6270 -0.0435 -1.9807
 3120SOL    HW210260   2.227   0.378   5.715  0.0378  1.2894 -1.8748
 3121SOL     OW10261   5.018   2.607   4.390 -0.0130 -0.2986 -0.2710
 3121SOL    HW110262   5.108   2.564   4.380  0.1378  0.4162 -2.5751
 3121SOL    HW210263   5.005   2.674   4.317 -2.8452 -1.1011 -0.6049
 3122SOL     OW10264   2.921   5.301   4.709  0.3423 -0.0194  0.4405
 3122SOL    HW110265   2.851   5.313   4.638 -1.2035  2.0514  2.1522
 3122SOL    HW210266   2.947   5.205   4.715 -1.8969 -0.7673 -0.7086
 3123SOL     OW10267   2.437   1.773   4.868 -0.3147 -0.3302  0.4825
 3123SOL    HW110268   2.501   1.802   4.939 -0.6623 -1.3262  1.2238
 3123SOL    HW210269   2.404   1.681   4.888 -1.0169 -0.3270 -0.5656
 3124SOL     OW10270   5.332   2.748   3.590 -0.1824 -0.1177  0.2376
 3124SOL    HW110271   5.302   2.700   3.673  0.7572 -1.9739 -0.4459
 3124SOL    HW210272   5.252   2.790   3.546 -0.7243  0.7483  1.9381
 3125SOL     OW10273   1.488   2.251   5.720  0.1242  0.5313 -0.5720
 3125SOL    HW110274   1.430   2.309   5.663 -0.4018  0.9661  0.3669
 3125SOL    HW210275   1.564   2.216   5.666 -1.4072 -0.6727 -2.0536
 3126SOL     OW10276   0.392   4.079   4.846 -0.4018 -0.1362 -0.4488
 3126SOL    HW110277   0.459   4.134   4.796  0.6641 -0.4992  0.5236
 3126SOL    HW210278   0.364   4.127   4.929 -0.2678 -0.5913 -0.1351
 3127SOL     OW10279   6.060   3.095   4.075 -0.1620  0.0295 -0.2931
 3127SOL    HW110280   6.121   3.106   4.153  1.5167 -1.7127 -1.2879
 3127SOL    HW210281   5.965   3.106   4.106  0.4882  0.1451  1.8352
 3128SOL     OW10282   4.044   1.386   6.547  0.1570  0.5349 -0.2003
 3128SOL    HW110283   3.947   1.367   6.562  0.3616 -0.0777  0.3783
 3128SOL    HW210284   4.095   1.370   6.632  1.2562 -2.3598 -1.2680
 3129SOL     OW10285   3.705   4.062   1.182  1.0558 -0.3248 -0.0959
 3129SOL    HW110286   3.669   4.093   1.269  1.2553  3.3559 -1.1688
 3129SOL    HW210287   3.805   4.068   1.182  1.1805 -1.9059 -0.0870
 3130SOL     OW10288   2.583   0.493   3.143 -0.1329 -1.0865  0.3982
 3130SOL    HW110289   2.679   0.494   3.171  0.5044 -1.3545 -1.6297
 3130SOL    HW210290   2.552   0.399   3.133 -1.3768 -1.0801  3.3008
 3131SOL     OW10291   0.053   4.653   1.677  0.2175  0.0951 -0.2873
 3131SOL    HW110292   0.117   4.644   1.754 -0.6092 -2.0600  0.2117
 3131SOL    HW210293  -0.017   4.583   1.684 -3.9346  3.8983  0.7796
 3132SOL     OW10294   4.552   3.925   6.735 -0.2288  0.1624 -0.2473
 3132SOL    HW110295   4.460   3.917   6.772 -1.5066  1.4678 -2.8873
 3132SOL    HW210296   4.575   3.842   6.684 -0.6715  0.5352 -1.0628
 3133SOL     OW10297   3.319   5.361   6.051  0.0420  0.3713 -0.0758
 3133SOL    HW110298   3.290   5.294   5.983 -2.3383  1.3064 -0.0864
 3133SOL    HW210299   3.407   5.334   6.089 -0.0427 -1.8389 -1.2744
 3134SOL     OW10300   4.093   5.206   2.832  0.5442  0.0754  0.0093
 3134SOL    HW110301   4.042   5.129   2.870  0.1395  0.2007 -0.2716
 3134SOL    HW210302   4.044   5.291   2.850  0.2655  0.1240 -0.8981
 3135SOL     OW10303   4.138   1.680   5.990  0.0483 -0.8183  0.1650
 3135SOL    HW110304   4.187   1.715   5.911  0.4967  1.1801  1.2604
 3135SOL    HW210305   4.185   1.600   6.027 -0.4508 -2.1118 -1.8215
 3136SOL     OW10306   6.897   2.425   1.181 -0.0053 -0.3857 -0.0974
 3136SOL    HW110307   6.947   2.510   1.163  1.1762 -0.7869  1.1057
 3136SOL    HW210308   6.834   2.440   1.258 -1.0515 -0.1544 -0.9771
 3137SOL     OW10309   6.492   0.197   6.331 -0.1515 -0.1613  0.2219
 3137SOL    HW110310   6.420   0.210   6.400  1.0076  1.5804  1.1667
 3137SOL    HW210311   6.451   0.202   6.240 -1.6919 -2.3476  0.6953
 3138SOL     OW10312   3.897   6.559   5.443 -0.7459  0.0849  0.4883
 3138SOL    HW110313   3.883   6.480   5.502 -1.7375  1.1921  1.8119
 3138SOL    HW210314   3.823   6.564   5.376  0.5949 -1.4023 -1.2255
 3139SOL     OW10315   1.429   5.058   1.042 -0.0964 -0.4767  0.0992
 3139SOL    HW110316   1.510   5.115   1.055 -0.4920 -0.1650  1.2877
 3139SOL    HW210317   1.360   5.109   0.990 -0.3449  0.0385  0.9275
 3140SOL     OW10318   6.524   0.712   1.075  0.2406 -0.6944  0.5152
 3140SOL    HW110319   6.476   0.698   0.989  0.5823 -2.1164  0.5300
 3140SOL    HW210320   6.469   0.677   1.150  0.2651 -0.1342  0.7978
 3141SOL     OW10321   4.719   3.765   6.572 -0.0168  0.2093  0.2246
 3141SOL    HW110322   4.711   3.767   6.472 -0.7649 -2.2866  0.1665
 3141SOL    HW210323   4.815   3.753   6.597  0.1706  0.8120 -0.1662
 3142SOL     OW10324   4.396   5.472   1.827 -0.0468 -0.0819 -0.3437
 3142SOL    HW110325   4.342   5.390   1.844 -1.9947  0.7309 -2.1580
 3142SOL    HW210326   4.334   5.549   1.809  1.7415  1.3788 -0.5302
 3143SOL     OW10327   0.095   1.065   6.198  0.3042 -0.3213  0.6985
 3143SOL    HW110328   0.135   1.053   6.289  1.7811  2.3917  0.4931
 3143SOL    HW210329   0.153   1.126   6.143 -1.0240 -1.1330 -1.7790
 3144SOL     OW10330   2.659   3.574   1.140  0.2630  0.1605  0.2242
 3144SOL    HW110331   2.745   3.626   1.137  0.4276 -0.1493 -1.1852
 3144SOL    HW210332   2.627   3.568   1.234  0.9366  1.6781  0.5781
 3145SOL     OW10333   0.278   6.667   1.212  0.0032 -0.0665 -0.2213
 3145SOL    HW110334   0.254   6.584   1.262 -1.3834 -0.0510 -0.8102
 3145SOL    HW210335   0.377   6.675   1.206  0.2170 -0.2691  2.1524
 3146SOL     OW10336   0.307   0.735   4.858 -0.1484  0.3643  0.3120
 3146SOL    HW110337   0.228   0.793   4.841 -0.1380  0.7313  1.3976
 3146SOL    HW210338   0.279   0.639   4.859 -0.8163  0.5503  1.7878
 3147SOL     OW10339   4.294   5.635   1.585  0.2569 -0.4989 -0.3730
 3147SOL    HW110340   4.261   5.711   1.530 -1.0151 -0.0746  0.9249
 3147SOL    HW210341   4.217   5.576   1.610  0.9297 -1.1043  0.3168
 3148SOL     OW10342   4.799   5.151   3.024 -0.0341 -0.4483  0.1649
 3148SOL    HW110343   4.813   5.165   2.926  1.7823  1.1261  0.5973
 3148SOL    HW210344   4.790   5.054   3.043 -0.6952 -0.7663 -1.5720
 3149SOL     OW10345   3.124   2.860   0.987  0.0923  0.7458 -0.6610
 3149SOL    HW110346   3.205   2.919   0.976  0.3871  0.8417  1.5282
 3149SOL    HW210347   3.144   2.788   1.053 -1.3744  0.3105 -0.6556
 3150SOL     OW10348   5.573   6.727   4.708 -0.0367 -0.3666 -0.0398
 3150SOL    HW110349   5.568   6.632   4.739 -1.2470 -0.4596 -0.4738
 3150SOL    HW210350   5.669   6.751   4.688  0.6248 -0.7117  2.3913
 3151SOL     OW10351   6.189   2.222   5.364 -0.3700  0.0562 -0.2091
 3151SOL    HW110352   6.148   2.180   5.445  1.8810 -1.4392  0.2471
 3151SOL    HW210353   6.270   2.275   5.391  0.3961 -0.4379 -1.4337
 3152SOL     OW10354   0.581   4.202   6.253  0.1091 -0.1130 -0.1305
 3152SOL    HW110355   0.630   4.114   6.258  2.3512  1.0422 -0.3033
 3152SOL    HW210356   0.553   4.230   6.345 -2.0799 -1.7073 -0.2366
 3153SOL     OW10357   5.003   4.310   2.378  0.3939  0.6741 -0.0529
 3153SOL    HW110358   5.050   4.286   2.293 -0.0166 -1.2332  0.2159
 3153SOL    HW210359   4.904   4.309   2.363  0.1656 -2.1501  0.9270
 3154SOL     OW10360   4.681   1.940   1.693 -0.4259 -0.6816  0.4192
 3154SOL    HW110361   4.614   1.965   1.623  0.0836  0.8739  0.4470
 3154SOL    HW210362   4.740   2.018   1.712  0.6596 -1.6631  1.2371
 3155SOL     OW10363   2.054   5.157   1.411  0.0511  0.3956 -0.5239
 3155SOL    HW110364   1.983   5.213   1.454 -0.5254 -0.7651  0.1142
 3155SOL    HW210365   2.013   5.102   1.338  0.5892  0.7477 -1.0996
 3156SOL     OW10366   3.634   4.209   1.935 -0.2282 -0.1015 -0.2890
 3156SOL    HW110367   3.670   4.293   1.895 -0.3109 -1.5848 -3.8435
 3156SOL    HW210368   3.701   4.171   1.999  2.0910  0.1790 -2.3801
 3157SOL     OW10369   1.462   4.886   3.546  0.0868 -0.3558  0.0917
 3157SOL    HW110370   1.465   4.802   3.490 -0.8752  0.4130 -1.1786
 3157SOL    HW210371   1.506   4.960   3.496  0.9516 -0.0848  1.2215
 3158SOL     OW10372   3.794   0.806   4.407 -0.1687 -0.2364 -0.5016
 3158SOL    HW110373   3.852   0.840   4.333 -0.0064  0.5722 -0.0186
 3158SOL    HW210374   3.850   0.752   4.470  0.6120  2.2901  1.1231
 3159SOL     OW10375   6.108   5.976   0.446 -0.7608  0.0048  0.4033
 3159SOL    HW110376   6.096   5.942   0.540  0.3201 -0.6438  0.3296
 3159SOL    HW210377   6.172   6.053   0.447  2.7861 -2.6388 -0.1563
 3160SOL     OW10378   2.524   6.413   6.375 -0.9266  0.4483  0.0355
 3160SOL    HW110379   2.594   6.483   6.394 -1.3665  0.4038  2.1350
 3160SOL    HW210380   2.541   6.333   6.433 -1.2521 -0.6187 -1.3113
 3161SOL     OW10381   1.960   2.560   3.978  0.2173  0.5377 -0.5133
 3161SOL    HW110382   1.930   2.465   3.967  1.5436  0.1196 -0.6447
 3161SOL    HW210383   1.880   2.619   3.987 -0.6372 -0.8475  1.8105
 3162SOL     OW10384   2.679   6.479   0.665  0.5003  0.1758  0.8704
 3162SOL    HW110385   2.596   6.453   0.715 -0.5259  1.2016 -0.2509
 3162SOL    HW210386   2.698   6.576   0.681 -0.1285  0.6519 -1.0791
 3163SOL     OW10387   2.914   4.555   6.289  0.1552  0.2426  0.1018
 3163SOL    HW110388   2.863   4.473   6.261  0.0051  0.7875 -1.2989
 3163SOL    HW210389   2.964   4.536   6.373  0.8085 -1.5705 -0.6437
 3164SOL     OW10390   4.818   0.473   3.391  0.0075 -0.4661 -0.5747
 3164SOL    HW110391   4.843   0.379   3.415 -0.3921 -0.2128  0.9468
 3164SOL    HW210392   4.805   0.480   3.292 -1.0929 -2.2916 -0.5979
 3165SOL     OW10393   0.372   0.143   2.554 -0.1609 -0.2241 -0.8134
 3165SOL    HW110394   0.285   0.170   2.514 -1.6678 -2.8878  0.4063
 3165SOL    HW210395   0.357   0.075   2.626  3.0368 -3.1363 -2.5326
 3166SOL     OW10396   4.948   1.445   6.754 -0.3187  0.3115 -0.1694
 3166SOL    HW110397   4.925   1.412   6.845  1.3321 -0.3516  0.0377
 3166SOL    HW210398   5.043   1.420   6.732 -0.1967  1.7551 -1.4654
 3167SOL     OW10399   5.256   4.953   6.240 -0.3129 -0.6263 -0.5165
 3167SOL    HW110400   5.332   4.945   6.305 -0.2975 -0.6276 -0.5344
 3167SOL    HW210401   5.269   5.034   6.183 -1.9948  1.3004  1.6593
 3168SOL     OW10402   5.751   2.251   3.308 -0.5595 -0.4582  0.1946
 3168SOL    HW110403   5.821   2.290   3.248 -0.8251  1.4152  1.0034
 3168SOL    HW210404   5.793   2.189   3.373  0.5929  1.4156  1.3383
 3169SOL     OW10405   2.206   5.587   3.770  0.2030 -0.2947 -0.6865
 3169SOL    HW110406   2.292   5.597   3.721  0.5583  0.9320  0.1448
 3169SOL    HW210407   2.130   5.601   3.708  0.5804 -1.4718 -1.4506
 3170SOL     OW10408   3.631   4.952   3.609  0.0733  0.6396  0.4776
 3170SOL    HW110409   3.727   4.965   3.582 -0.2079 -0.1096 -0.9841
 3170SOL    HW210410   3.574   4.951   3.527 -1.4914  3.1480  1.4275
 3171SOL     OW10411   6.494   3.322   5.277 -0.3400  0.1780  0.3401
 3171SOL    HW110412   6.509   3.363   5.367 -0.6480  0.9275  0.0617
 3171SOL    HW210413   6.560   3.358   5.212  0.7002 -1.3159  0.5313
 3172SOL     OW10414   6.088   4.559   2.287 -0.2159  0.1827  0.0327
 3172SOL    HW110415   6.025   4.577   2.211  0.7257  0.5776 -0.6907
 3172SOL    HW210416   6.128   4.645   2.318  0.6398 -0.1425 -0.1359
 3173SOL     OW10417   2.326   3.376   6.063 -0.3037  0.5274  0.3704
 3173SOL    HW110418   2.286   3.446   6.004  0.9181  1.0122  0.0878
 3173SOL    HW210419   2.318   3.286   6.019  2.5187  1.1138 -1.6925
 3174SOL     OW10420   3.873   3.562   6.247 -0.3502 -0.0337  0.2432
 3174SOL    HW110421   3.832   3.501   6.314  1.3733 -1.1766  0.3165
 3174SOL    HW210422   3.836   3.654   6.258 -2.4058 -0.8591  0.6649
 3175SOL     OW10423   0.307   1.412   3.890  0.6779 -0.1661 -0.3034
 3175SOL    HW110424   0.228   1.452   3.843  1.1030  0.0970 -0.8005
 3175SOL    HW210425   0.384   1.476   3.886  1.2935 -0.9179 -0.8925
 3176SOL     OW10426   2.126   4.724   6.542 -0.6553  0.6489 -0.1243
 3176SOL    HW110427   2.188   4.702   6.467 -2.3735 -0.0799 -1.4048
 3176SOL    HW210428   2.177   4.770   6.615  1.7771 -1.5447 -0.2671
 3177SOL     OW10429   4.368   1.993   3.139  1.1290  0.0750  0.5247
 3177SOL    HW110430   4.407   1.905   3.167  0.4813 -0.4988 -0.3130
 3177SOL    HW210431   4.441   2.057   3.118  1.6070 -0.3824  0.7729
 3178SOL     OW10432   0.308   2.479   1.084 -0.6882 -0.1222  0.1184
 3178SOL    HW110433   0.233   2.415   1.100 -1.1944  0.4548  0.1077
 3178SOL    HW210434   0.293   2.562   1.139  0.5555 -0.4722  1.0304
 3179SOL     OW10435   6.713   2.603   0.220 -0.0218 -0.3612  0.3872
 3179SOL    HW110436   6.715   2.504   0.237 -1.5564 -0.1430  2.2722
 3179SOL    HW210437   6.742   2.651   0.303  0.0493  0.7806 -0.2839
 3180SOL     OW10438   0.673   5.532   1.225 -0.0724 -0.1462  0.1911
 3180SOL    HW110439   0.703   5.557   1.133  0.0485 -3.3150 -0.7569
 3180SOL    HW210440   0.579   5.497   1.221 -0.0352 -0.4054  1.2362
 3181SOL     OW10441   1.373   2.599   4.392 -0.3715 -0.2732 -0.4798
 3181SOL    HW110442   1.301   2.597   4.323 -0.7905 -0.4380 -0.0482
 3181SOL    HW210443   1.333   2.624   4.481  0.4097  1.5433 -0.5910
 3182SOL     OW10444   3.204   6.575   1.670 -0.2434  0.5719  0.3676
 3182SOL    HW110445   3.297   6.558   1.703 -0.7664 -0.1044  1.5564
 3182SOL    HW210446   3.197   6.551   1.574  0.8691  0.8467  0.2132
 3183SOL     OW10447   3.443   3.486   0.391  0.5599 -0.5888  0.3870
 3183SOL    HW110448   3.516   3.538   0.435 -0.2162  0.3889  0.5436
 3183SOL    HW210449   3.397   3.429   0.459  2.7602 -3.1937 -0.1357
 3184SOL     OW10450   0.168   1.450   1.329  0.1770  0.2154 -0.1009
 3184SOL    HW110451   0.118   1.367   1.303 -0.8735  0.5323  0.8205
 3184SOL    HW210452   0.191   1.502   1.247 -1.7036  0.4345 -0.5339
 3185SOL     OW10453   5.284   0.151   6.464 -0.1277 -0.0431 -0.0772
 3185SOL    HW110454   5.211   0.092   6.430  0.6557 -0.9163 -0.2662
 3185SOL    HW210455   5.336   0.188   6.387 -1.2931  1.8404 -0.0401
 3186SOL     OW10456   0.354   2.724   0.012 -0.1273 -0.4925 -0.0780
 3186SOL    HW110457   0.404   2.807   0.039 -1.1208  0.0598  0.1135
 3186SOL    HW210458   0.352   2.660   0.089 -1.2067  0.2267  0.5162
 3187SOL     OW10459   4.464   5.714   3.214 -0.7818 -0.1805 -0.4819
 3187SOL    HW110460   4.557   5.682   3.199 -0.5205  1.3112 -2.4748
 3187SOL    HW210461   4.464   5.783   3.286 -0.3573 -0.2983 -0.3680
 3188SOL     OW10462   1.048   3.686   0.023 -0.5281  0.2353 -0.0708
 3188SOL    HW110463   0.970   3.639  -0.018 -1.2525  2.3303 -1.2607
 3188SOL    HW210464   1.129   3.629   0.014 -1.4501 -0.9969 -0.9904
 3189SOL     OW10465   1.699   3.716   0.846  0.3394  0.4020  0.5191
 3189SOL    HW110466   1.759   3.700   0.768 -1.6331 -1.2222 -0.8010
 3189SOL    HW210467   1.709   3.642   0.912 -0.8817 -0.4643 -0.2190
 3190SOL     OW10468   6.406   4.080   4.445  0.0419 -0.2961  0.3714
 3190SOL    HW110469   6.361   4.041   4.365 -0.5144 -0.8992  0.9633
 3190SOL    HW210470   6.375   4.175   4.457 -0.3930 -0.4220  0.2637
 3191SOL     OW10471   4.884   4.063   0.572  0.2609  0.2663 -0.1403
 3191SOL    HW110472   4.834   4.117   0.640 -1.4290  0.1562 -1.2269
 3191SOL    HW210473   4.956   4.119   0.532  0.5457  0.6910  0.9119
 3192SOL     OW10474   6.468   1.738   3.003  0.2551 -0.1217  0.2121
 3192SOL    HW110475   6.457   1.744   2.904 -1.1844 -2.4530  0.1401
 3192SOL    HW210476   6.498   1.826   3.039 -0.0194  1.0297 -2.1701
 3193SOL     OW10477   4.190   6.044   5.811 -0.3869  0.5737  0.8999
 3193SOL    HW110478   4.197   5.965   5.871  0.5943 -0.1466 -0.1244
 3193SOL    HW210479   4.095   6.058   5.785 -0.9011  1.1669  2.9227
 3194SOL     OW10480   1.278   3.056   5.361 -0.0620  0.0158 -0.2053
 3194SOL    HW110481   1.217   2.984   5.394  1.3647 -0.9332  0.5072
 3194SOL    HW210482   1.262   3.072   5.264 -1.3706 -0.2580 -0.0471
 3195SOL     OW10483   6.908   2.197   2.385  0.3873 -0.0657 -0.2727
 3195SOL    HW110484   6.818   2.214   2.344  0.4320 -0.4049 -0.5249
 3195SOL    HW210485   6.899   2.129   2.457  0.2028  1.0185  0.7443
 3196SOL     OW10486   5.139   1.192   5.609  0.2234  0.3850  0.7767
 3196SOL    HW110487   5.218   1.244   5.578  1.2202 -0.2409  2.1976
 3196SOL    HW210488   5.140   1.101   5.567 -0.2300  0.6615  0.1405
 3197SOL     OW10489   4.094   1.896   0.373  0.1523 -0.0139  0.2609
 3197SOL    HW110490   4.017   1.937   0.324 -0.4717 -0.2563  1.0258
 3197SOL    HW210491   4.078   1.798   0.385 -0.3427  0.2549  2.0780
 3198SOL     OW10492   0.754   3.456   3.488  0.3879  0.6045  0.1059
 3198SOL    HW110493   0.732   3.538   3.541  1.5882  0.2650  1.1934
 3198SOL    HW210494   0.734   3.375   3.544 -1.7246  0.0903 -1.3125
 3199SOL     OW10495   6.529   3.330   4.552  0.2183 -0.0327 -0.3292
 3199SOL    HW110496   6.438   3.303   4.585  0.0924  0.4589 -0.2632
 3199SOL    HW210497   6.543   3.293   4.460 -0.4254  0.6638 -0.7199
 3200SOL     OW10498   6.426   2.841   4.933 -0.4224  0.1500 -0.6210
 3200SOL    HW110499   6.525   2.832   4.919 -0.2117 -0.3616  0.9199
 3200SOL    HW210500   6.399   2.937   4.921  0.2256  0.2586 -1.2570
 3201SOL     OW10501   4.943   0.364   1.678 -0.5201  0.0481  0.7323
 3201SOL    HW110502   4.907   0.322   1.762  0.3363  0.4454  1.3244
 3201SOL    HW210503   4.880   0.435   1.646 -0.5611  0.3291  1.4100
 3202SOL     OW10504   0.921   5.228   6.320 -0.3716 -0.1349 -0.3127
 3202SOL    HW110505   0.855   5.162   6.357 -0.1126  0.2098  0.8125
 3202SOL    HW210506   0.873   5.307   6.284 -0.5841  0.9305  2.0923
 3203SOL     OW10507   3.935   5.792   0.932  1.0015 -0.1713 -0.0394
 3203SOL    HW110508   4.025   5.826   0.960  1.2805 -1.9648  1.4654
 3203SOL    HW210509   3.935   5.692   0.934 -0.8441 -0.2260 -0.6868
 3204SOL     OW10510   3.829   2.094   3.295  0.9932  0.1311 -0.2636
 3204SOL    HW110511   3.761   2.155   3.253 -0.8309 -1.1925  0.6560
 3204SOL    HW210512   3.817   2.001   3.261  1.2292 -0.4477  1.1583
 3205SOL     OW10513   6.052   5.034   4.383 -0.4467 -0.9492 -0.0951
 3205SOL    HW110514   6.077   4.953   4.437  0.5967 -0.8022 -0.3329
 3205SOL    HW210515   5.967   5.016   4.333 -0.3865 -1.7889  0.0856
 3206SOL     OW10516   3.009   3.391   0.353 -0.3068 -0.2797  0.0033
 3206SOL    HW110517   2.920   3.426   0.384 -0.6374 -1.1756  0.1008
 3206SOL    HW210518   2.994   3.313   0.292  0.4088 -0.1144 -0.3900
 3207SOL     OW10519   1.282   0.696   6.906 -0.6767 -0.0917  0.8192
 3207SOL    HW110520   1.240   0.752   6.978 -0.5328 -0.9113  1.5692
 3207SOL    HW210521   1.233   0.608   6.901 -1.8272  0.6140 -1.3137
 3208SOL     OW10522   5.584   5.870   4.676  0.0131  0.6273 -0.4477
 3208SOL    HW110523   5.496   5.826   4.696  1.8236 -2.3923  1.6111
 3208SOL    HW210524   5.591   5.955   4.728 -0.8279 -0.2606  1.2177
 3209SOL     OW10525   5.100   0.431   4.694  0.1907  0.6189 -0.3196
 3209SOL    HW110526   5.014   0.380   4.700  0.4096  0.2673 -0.1803
 3209SOL    HW210527   5.119   0.453   4.598 -0.1058  0.7899 -0.3420
 3210SOL     OW10528   6.373   6.354   1.627 -0.3023  0.6679  0.2071
 3210SOL    HW110529   6.440   6.407   1.574  1.2978 -0.8966  0.5661
 3210SOL    HW210530   6.391   6.257   1.614  0.5400  0.1819  3.9905
 3211SOL     OW10531   2.950   5.459   5.127  0.3426  0.3066  0.1053
 3211SOL    HW110532   2.907   5.381   5.173  1.6929  0.7183  2.2190
 3211SOL    HW210533   3.031   5.427   5.077 -2.1542 -0.4666 -3.8615
 3212SOL     OW10534   2.077   0.100   3.371  0.5089  0.1669 -0.5802
 3212SOL    HW110535   2.052   0.192   3.402 -0.8954  0.5830 -2.7299
 3212SOL    HW210536   2.021   0.032   3.418 -0.5501  0.6708 -1.0695
 3213SOL     OW10537   1.162   1.555   6.315 -0.2683  0.2332  0.2341
 3213SOL    HW110538   1.065   1.537   6.304 -0.7665  2.9722 -0.4326
 3213SOL    HW210539   1.179   1.653   6.313  2.5033 -0.1470  0.5950
 3214SOL     OW10540   4.279   1.868   1.975  0.1393 -0.3253 -0.1557
 3214SOL    HW110541   4.199   1.885   1.918 -1.8302 -1.4171  2.1369
 3214SOL    HW210542   4.362   1.886   1.922 -1.5734  0.5540 -2.7068
 3215SOL     OW10543   1.829   1.732   1.851 -0.0055  0.3766 -0.3989
 3215SOL    HW110544   1.909   1.697   1.900  0.3870  1.2315 -0.4237
 3215SOL    HW210545   1.804   1.668   1.779  0.2378 -0.2280  0.0408
 3216SOL     OW10546   6.499   1.622   6.329 -0.2498  0.5514 -0.2651
 3216SOL    HW110547   6.464   1.683   6.258 -1.6252 -1.1024 -1.0912
 3216SOL    HW210548   6.599   1.630   6.334 -0.2759  1.8220 -1.2990
 3217SOL     OW10549   6.457   3.949   3.002 -0.4215 -0.0233 -0.0715
 3217SOL    HW110550   6.390   3.927   3.073 -0.0628  0.7242  0.5123
 3217SOL    HW210551   6.417   4.014   2.938  0.0789  1.2545  0.8813
 3218SOL     OW10552   6.303   2.214   3.858 -0.2189  0.2718 -0.1257
 3218SOL    HW110553   6.267   2.284   3.797  0.1854  1.1440  0.6178
 3218SOL    HW210554   6.390   2.244   3.897 -0.4772 -0.2332  0.9042
 3219SOL     OW10555   5.874   2.402   5.139  0.2755 -0.2361 -0.1695
 3219SOL    HW110556   5.830   2.314   5.158  1.0467 -0.3586  1.1660
 3219SOL    HW210557   5.866   2.461   5.219 -0.3207  0.9743 -1.0785
 3220SOL     OW10558   0.490   4.077   1.198 -0.6788 -0.2712  0.1856
 3220SOL    HW110559   0.493   4.033   1.109 -0.7057  0.9991 -0.4696
 3220SOL    HW210560   0.566   4.043   1.255 -0.2649 -0.6096 -0.5576
 3221SOL     OW10561   4.891   0.245   2.963  0.4136  0.4770 -0.0920
 3221SOL    HW110562   4.894   0.145   2.955  2.1832  0.4048  0.9097
 3221SOL    HW210563   4.919   0.286   2.876  2.0985  0.0130  0.1768
 3222SOL     OW10564   1.393   1.279   3.494  0.2753  0.2595 -0.2534
 3222SOL    HW110565   1.335   1.341   3.547 -0.6128 -1.1225  0.4418
 3222SOL    HW210566   1.434   1.212   3.555  0.1523 -0.6588 -1.1563
 3223SOL     OW10567   1.818   0.058   1.718 -0.0112 -0.3090  0.3257
 3223SOL    HW110568   1.770   0.088   1.635 -1.0354 -1.0657  0.6170
 3223SOL    HW210569   1.783   0.108   1.797 -0.4966 -1.0138  0.5703
 3224SOL     OW10570   4.052   2.172   4.461 -0.4858  0.6149  0.1560
 3224SOL    HW110571   4.124   2.102   4.459 -0.6858  0.4258 -0.8156
 3224SOL    HW210572   4.012   2.181   4.370 -1.9218  0.4848  0.7458
 3225SOL     OW10573   5.113   0.881   3.765  0.0405 -0.3569  0.0084
 3225SOL    HW110574   5.169   0.891   3.847 -0.2684  0.8917  0.0816
 3225SOL    HW210575   5.050   0.959   3.757  2.1475  1.2261 -3.0111
 3226SOL     OW10576   2.168   6.178   1.573  0.0979 -0.5722  0.1950
 3226SOL    HW110577   2.118   6.265   1.574  0.4860 -0.2744  3.0267
 3226SOL    HW210578   2.254   6.189   1.525 -2.0588 -0.9222 -4.2354
 3227SOL     OW10579   3.816   0.843   5.409 -0.3639 -0.2249  0.0182
 3227SOL    HW110580   3.844   0.815   5.317 -1.7417 -0.3169 -0.4093
 3227SOL    HW210581   3.886   0.817   5.475 -0.8456 -3.4357 -0.5375
 3228SOL     OW10582   0.271   3.346   6.159  0.5369  0.3991 -0.3044
 3228SOL    HW110583   0.266   3.428   6.216 -0.7464  0.3249 -0.2681
 3228SOL    HW210584   0.250   3.266   6.215  0.7501  0.1632 -0.5624
 3229SOL     OW10585   3.199   6.733   0.045 -0.6078 -0.3217 -0.3312
 3229SOL    HW110586   3.142   6.657   0.076 -0.0502 -0.2800  0.8450
 3229SOL    HW210587   3.181   6.813   0.102 -0.0784 -0.0199 -0.5858
 3230SOL     OW10588   2.508   4.661   3.466  0.2532 -0.0265  0.8534
 3230SOL    HW110589   2.410   4.670   3.487 -0.7050 -3.0493 -1.6044
 3230SOL    HW210590   2.558   4.646   3.551 -1.2835  1.9185  2.2150
 3231SOL     OW10591   2.756   0.268   1.162 -0.0092  0.4029 -0.1617
 3231SOL    HW110592   2.765   0.298   1.067  1.0059 -1.4210 -0.6969
 3231SOL    HW210593   2.752   0.348   1.222  0.7390  1.5919 -1.6247
 3232SOL     OW10594   4.182   6.485   4.074 -0.6180 -0.2255  0.3051
 3232SOL    HW110595   4.266   6.540   4.085 -0.3673 -0.8157  1.4545
 3232SOL    HW210596   4.194   6.397   4.119 -2.2180  0.0608  1.3831
 3233SOL     OW10597   2.845   5.671   0.972  0.0083 -0.8605  0.2382
 3233SOL    HW110598   2.871   5.704   1.062 -1.7220 -1.4452  0.9960
 3233SOL    HW210599   2.904   5.595   0.945  1.1202 -0.0873  0.4536
 3234SOL     OW10600   0.805   2.772   1.031  0.0960  0.7159 -0.4361
 3234SOL    HW110601   0.743   2.848   1.052 -0.3083  1.0248 -2.5082
 3234SOL    HW210602   0.882   2.807   0.977 -0.2879 -0.3880 -1.7378
 3235SOL     OW10603   5.462   5.462   1.988  0.3580  0.1324  0.7878
 3235SOL    HW110604   5.503   5.499   1.905  4.1000 -0.6032  2.0752
 3235SOL    HW210605   5.459   5.362   1.982 -1.8662  0.1768  0.5575
 3236SOL     OW10606   4.154   2.575   1.457  0.1744 -0.4980 -0.0878
 3236SOL    HW110607   4.088   2.570   1.531  0.4979  0.6108  0.2982
 3236SOL    HW210608   4.119   2.525   1.378 -1.3368  0.4010 -0.0436
 3237SOL     OW10609   6.064   6.784   2.827  0.6709 -0.4172 -0.0387
 3237SOL    HW110610   6.015   6.740   2.751 -0.6032 -1.0828  1.1183
 3237SOL    HW210611   6.085   6.878   2.804  1.0386 -0.8392 -1.5256
 3238SOL     OW10612   5.634   6.345   0.164  0.4826  0.1290 -0.1623
 3238SOL    HW110613   5.672   6.253   0.152 -2.5645 -1.3504  0.5373
 3238SOL    HW210614   5.566   6.362   0.093  0.9922  1.8806 -0.2667
 3239SOL     OW10615   0.570   6.882   2.869 -0.2194 -0.1045  0.1463
 3239SOL    HW110616   0.554   6.812   2.800 -1.9884  1.6679 -1.3630
 3239SOL    HW210617   0.570   6.840   2.960  1.3665 -2.3710 -0.8092
 3240SOL     OW10618   0.521   1.069   5.430  0.0446 -0.1173  0.1578
 3240SOL    HW110619   0.592   1.000   5.442 -0.0430 -0.3490 -0.5640
 3240SOL    HW210620   0.459   1.040   5.357  1.0895  1.5854 -1.5044
 3241SOL     OW10621   6.102   0.650   5.192  0.8557  0.5934  0.2345
 3241SOL    HW110622   6.145   0.729   5.150  1.1993 -0.0994 -0.7596
 3241SOL    HW210623   6.011   0.636   5.151  0.2482  1.2215  1.3255
 3242SOL     OW10624   4.841   4.163   4.587 -0.0787 -0.3398 -0.5371
 3242SOL    HW110625   4.787   4.158   4.671  0.0690  1.3392 -0.3168
 3242SOL    HW210626   4.806   4.236   4.529  0.7003 -0.5707 -1.3228
 3243SOL     OW10627   4.587   4.820   4.885 -0.2539 -0.2434 -0.1900
 3243SOL    HW110628   4.534   4.895   4.846 -0.8506 -0.5076  0.1016
 3243SOL    HW210629   4.677   4.854   4.913 -0.3486  0.2566 -0.4848
 3244SOL     OW10630   6.365   6.454   1.207 -0.6065  0.6519  0.7442
 3244SOL    HW110631   6.351   6.413   1.297 -2.4662 -0.2106  0.1058
 3244SOL    HW210632   6.407   6.545   1.218 -1.2416  0.7628  2.4965
 3245SOL     OW10633   3.988   1.186   6.823  0.1645  0.0617  0.0839
 3245SOL    HW110634   4.019   1.281   6.825 -0.3966  0.2363  1.7812
 3245SOL    HW210635   3.888   1.183   6.827  0.1369 -0.5941 -0.7480
 3246SOL     OW10636   0.354   1.017   2.127  0.1972  0.3420 -0.5346
 3246SOL    HW110637   0.297   1.085   2.174  0.8606 -1.0490  2.5113
 3246SOL    HW210638   0.440   1.060   2.099  0.7472  0.7943  1.6268
 3247SOL     OW10639   2.172   3.986   2.762  0.0628 -0.1949  0.3529
 3247SOL    HW110640   2.234   4.025   2.830  0.5499  0.2937 -0.3542
 3247SOL    HW210641   2.085   3.964   2.805  0.8113 -1.1654  1.4252
 3248SOL     OW10642   6.262   1.763   3.739  0.1168  0.2182  0.3827
 3248SOL    HW110643   6.299   1.690   3.795  1.0629  0.9390  0.7324
 3248SOL    HW210644   6.228   1.726   3.653  1.9972 -0.4611 -0.1114
 3249SOL     OW10645   3.748   2.882   3.086 -0.3478  0.2443 -0.0685
 3249SOL    HW110646   3.696   2.848   3.007 -0.7537 -0.2712  0.4114
 3249SOL    HW210647   3.846   2.884   3.063 -0.5486  0.9545 -0.8794
 3250SOL     OW10648   3.902   6.228   1.615 -0.2767  0.6567 -0.2801
 3250SOL    HW110649   3.863   6.146   1.574  1.5466  0.8649 -2.6521
 3250SOL    HW210650   3.889   6.305   1.553 -0.0274  1.6812  0.9089
 3251SOL     OW10651   3.315   2.164   3.827  0.0496  0.0598 -0.5741
 3251SOL    HW110652   3.336   2.193   3.920 -0.3621  2.4860 -1.1562
 3251SOL    HW210653   3.224   2.199   3.801  0.0684 -0.7387 -1.8289
 3252SOL     OW10654   2.654   2.085   5.064  0.0054  0.5018 -0.1292
 3252SOL    HW110655   2.560   2.096   5.033 -0.2380  0.6117  0.6214
 3252SOL    HW210656   2.669   2.141   5.146 -0.9834 -3.7204  3.2756
 3253SOL     OW10657   4.875   3.103   0.459 -0.4067 -0.3011 -0.0118
 3253SOL    HW110658   4.874   3.010   0.424 -1.1308 -0.4343  0.3265
 3253SOL    HW210659   4.969   3.131   0.480 -0.1574 -0.8334 -0.4240
 3254SOL     OW10660   4.121   0.029   0.082 -0.1644 -0.2449 -0.6175
 3254SOL    HW110661   4.210   0.075   0.076 -0.5607  0.7491  0.7322
 3254SOL    HW210662   4.122  -0.036   0.158 -0.7335  0.0936 -0.3151
 3255SOL     OW10663   6.013   4.733   1.116  0.5393  0.3289  0.5347
 3255SOL    HW110664   6.042   4.661   1.054  0.3115  0.0708  0.7263
 3255SOL    HW210665   5.913   4.732   1.124  0.4106  1.5725 -0.5609
 3256SOL     OW10666   3.534   0.600   0.421  0.6100 -0.0555  0.6792
 3256SOL    HW110667   3.613   0.572   0.368  1.2343  0.9204  1.0582
 3256SOL    HW210668   3.502   0.689   0.389 -1.1237 -0.9707 -0.2929
 3257SOL     OW10669   2.674   2.063   3.181  0.4142 -0.4091 -0.5505
 3257SOL    HW110670   2.733   2.128   3.133  0.9036 -1.1815 -1.0152
 3257SOL    HW210671   2.687   1.972   3.143 -1.0874 -0.6003 -0.6705
 3258SOL     OW10672   1.402   5.303   2.014  0.2406 -0.8325 -0.4906
 3258SOL    HW110673   1.484   5.358   2.004  0.6963 -1.3996  0.0560
 3258SOL    HW210674   1.407   5.250   2.098  0.7750 -3.2917 -1.9662
 3259SOL     OW10675   4.040   5.186   3.965  0.1145  0.1789 -0.3523
 3259SOL    HW110676   3.947   5.164   3.937  0.4181  0.7664 -1.9081
 3259SOL    HW210677   4.076   5.260   3.907  2.1774 -1.2379 -0.9832
 3260SOL     OW10678   3.704   5.051   6.951  0.1683  1.1089  0.5820
 3260SOL    HW110679   3.660   5.073   7.038  0.7258  4.3886  0.1905
 3260SOL    HW210680   3.803   5.048   6.963  0.1609 -2.5947  0.7470
 3261SOL     OW10681   5.873   2.436   2.058 -0.3248  0.2987 -0.0555
 3261SOL    HW110682   5.932   2.483   2.123  0.7535 -2.2713  0.9134
 3261SOL    HW210683   5.782   2.423   2.099 -0.4056  0.8240 -0.0529
 3262SOL     OW10684   3.006   3.207   0.819  0.7167  0.4876  0.0833
 3262SOL    HW110685   3.021   3.304   0.838  2.5242  0.0878  0.9093
 3262SOL    HW210686   2.987   3.159   0.904 -3.4051  0.5334 -0.6205
 3263SOL     OW10687   4.354   0.423   5.047 -0.2929 -0.1967 -0.4600
 3263SOL    HW110688   4.421   0.462   5.110 -2.4814 -0.4794  2.2919
 3263SOL    HW210689   4.336   0.328   5.074 -1.1752 -0.3772 -1.6359
 3264SOL     OW10690   0.169   6.014   6.852 -0.6713  0.2051 -0.1514
 3264SOL    HW110691   0.188   6.093   6.795 -0.4072 -0.1155 -0.5067
 3264SOL    HW210692   0.248   5.994   6.910 -0.3644 -0.4101 -0.7835
 3265SOL     OW10693   5.368   5.443   0.195  0.3020  0.2421  0.0258
 3265SOL    HW110694   5.332   5.378   0.128 -0.6996  1.1931 -0.3811
 3265SOL    HW210695   5.361   5.536   0.159 -5.0104  1.4872  3.1115
 3266SOL     OW10696   2.358   4.953   0.884  0.4406 -0.6742  0.3070
 3266SOL    HW110697   2.344   4.883   0.954  0.5837 -2.0531 -1.0019
 3266SOL    HW210698   2.456   4.972   0.875  0.3051  1.2174  2.0476
 3267SOL     OW10699   2.374   6.676   1.109 -0.2244  0.0383  0.7376
 3267SOL    HW110700   2.332   6.673   1.018 -1.2919 -0.8791  1.2275
 3267SOL    HW210701   2.419   6.588   1.127  0.2055  0.3092  0.9949
 3268SOL     OW10702   6.718   6.058   1.310 -0.1248  0.2611 -0.5005
 3268SOL    HW110703   6.762   6.018   1.230 -0.9207 -1.6015 -0.0567
 3268SOL    HW210704   6.641   6.001   1.338 -0.7953  1.6871  0.6966
 3269SOL     OW10705   6.860   4.715   2.370 -0.1443 -0.2938 -0.2234
 3269SOL    HW110706   6.807   4.734   2.288  0.1133  0.0049 -0.3213
 3269SOL    HW210707   6.800   4.721   2.450 -0.4009 -0.6115 -0.3870
 3270SOL     OW10708   0.094   3.235   4.222  0.3380 -0.2702 -0.2815
 3270SOL    HW110709   0.166   3.271   4.163  1.1299  0.0901  0.8729
 3270SOL    HW210710   0.104   3.274   4.314 -0.4124 -1.3900  0.2900
 3271SOL     OW10711   0.021   3.963   2.432  0.3214 -0.6371  0.2152
 3271SOL    HW110712  -0.063   3.986   2.384  0.1107  0.4996  1.0944
 3271SOL    HW210713   0.100   3.988   2.376  0.0873 -1.2427 -0.3969
 3272SOL     OW10714   4.065   4.746   6.918  0.4673 -0.1210  0.0896
 3272SOL    HW110715   4.031   4.740   6.824  1.9183 -1.3311 -0.4007
 3272SOL    HW210716   4.163   4.766   6.916  0.6774 -0.9618  1.3199
 3273SOL     OW10717   2.689   3.999   0.704 -0.1453 -0.4998 -0.3151
 3273SOL    HW110718   2.780   3.998   0.745 -0.1314 -2.0605 -0.3260
 3273SOL    HW210719   2.620   4.003   0.776 -0.0837 -0.0167 -0.2801
 3274SOL     OW10720   0.144   3.018   1.885 -0.7501 -0.5307  0.3131
 3274SOL    HW110721   0.054   2.976   1.884 -0.6291 -0.7863 -0.6439
 3274SOL    HW210722   0.140   3.105   1.934 -1.0382 -1.5529  2.1861
 3275SOL     OW10723   2.849   0.012   1.188 -0.4931 -0.0245  0.7878
 3275SOL    HW110724   2.840   0.111   1.177 -1.5813 -0.1918 -0.0196
 3275SOL    HW210725   2.926  -0.022   1.134 -1.5072  0.1079 -0.8188
 3276SOL     OW10726   4.898   6.851   6.836 -0.2665 -0.7459 -0.8144
 3276SOL    HW110727   4.803   6.880   6.823 -0.4599 -1.2894 -0.6429
 3276SOL    HW210728   4.938   6.900   6.913 -0.8958 -1.6314  0.0942
 3277SOL     OW10729   3.580   0.891   3.401 -0.6355  0.0909 -0.5376
 3277SOL    HW110730   3.556   0.988   3.391  1.9792  0.6890 -1.8761
 3277SOL    HW210731   3.526   0.837   3.337 -1.4984  0.7459 -0.3901
 3278SOL     OW10732   1.397   0.748   6.439  0.4645  0.0315 -0.8290
 3278SOL    HW110733   1.476   0.752   6.378  0.0039 -1.3094 -1.5337
 3278SOL    HW210734   1.426   0.770   6.532  1.3258  1.2900 -1.3627
 3279SOL     OW10735   4.651   5.319   0.512 -0.1094  0.3960 -0.0423
 3279SOL    HW110736   4.649   5.362   0.602  0.3180  0.5967 -0.1269
 3279SOL    HW210737   4.650   5.390   0.441  1.1294  0.3045 -0.1778
 3280SOL     OW10738   5.883   3.168   3.519 -0.5314 -0.5688  0.2161
 3280SOL    HW110739   5.806   3.169   3.583 -1.0222  0.3295 -0.3663
 3280SOL    HW210740   5.944   3.244   3.539 -0.3676 -0.6429 -0.0027
 3281SOL     OW10741   6.593   5.247   2.130 -0.4818  0.1147  0.4720
 3281SOL    HW110742   6.519   5.180   2.118  0.2972 -0.6929  0.0861
 3281SOL    HW210743   6.596   5.308   2.051 -0.0927 -0.4966  0.0070
 3282SOL     OW10744   6.594   2.077   5.477 -0.1713 -0.4542 -0.4012
 3282SOL    HW110745   6.566   2.003   5.537 -0.4902 -0.4968 -0.6016
 3282SOL    HW210746   6.518   2.140   5.464  0.4987  0.6629  0.8654
 3283SOL     OW10747   3.055   2.210   0.567  0.3062 -0.6105 -0.0070
 3283SOL    HW110748   3.150   2.226   0.541 -0.0815  1.2792 -0.4117
 3283SOL    HW210749   3.052   2.178   0.662  1.3420 -0.7053  0.0119
 3284SOL     OW10750   1.210   5.131   5.124  0.1484 -0.4067  0.0414
 3284SOL    HW110751   1.137   5.182   5.170  0.7996  0.1439  0.5039
 3284SOL    HW210752   1.214   5.158   5.028  0.0813 -0.0331  0.1388
 3285SOL     OW10753   0.209   2.069   4.401 -0.5725 -0.7013 -0.4655
 3285SOL    HW110754   0.278   2.052   4.331  0.0264 -0.6344  0.0900
 3285SOL    HW210755   0.171   1.983   4.433  0.5843 -0.8834  0.5112
 3286SOL     OW10756   2.183   2.088   2.514  0.0901  0.5502  0.5430
 3286SOL    HW110757   2.152   2.110   2.422 -0.6744 -3.2375 -0.2590
 3286SOL    HW210758   2.257   2.151   2.540 -0.9988  2.9917 -1.7562
 3287SOL     OW10759   3.622   6.789   6.174 -0.2558 -0.0749  0.5202
 3287SOL    HW110760   3.676   6.851   6.118 -0.1411 -1.1727 -0.6018
 3287SOL    HW210761   3.526   6.794   6.147  0.0818 -2.1884 -1.3517
 3288SOL     OW10762   1.338   7.016   1.087  0.4988 -0.2776 -0.5256
 3288SOL    HW110763   1.304   6.962   1.011  1.2830 -1.7854  0.1469
 3288SOL    HW210764   1.270   7.085   1.113 -0.1067 -0.2761 -2.0420
 3289SOL     OW10765   3.881   1.807   6.083 -0.2727  0.2589  0.6730
 3289SOL    HW110766   3.966   1.761   6.057 -0.4073  0.4481 -0.1366
 3289SOL    HW210767   3.883   1.901   6.050  0.8894  1.5753  4.0966
 3290SOL     OW10768   5.636   4.952   1.930  0.4914 -0.1993  0.5060
 3290SOL    HW110769   5.689   4.904   1.860  1.6180  1.3435  0.2308
 3290SOL    HW210770   5.694   5.021   1.974 -1.0513  0.9700  0.7963
 3291SOL     OW10771   4.590   4.588   5.407  0.1253  0.8601  0.1970
 3291SOL    HW110772   4.663   4.570   5.472  1.1999  1.2948 -0.8562
 3291SOL    HW210773   4.580   4.687   5.394 -0.2174  0.7837 -0.1462
 3292SOL     OW10774   1.223   1.931   1.733  0.2205 -0.3586 -0.1906
 3292SOL    HW110775   1.249   1.841   1.767 -0.0980 -0.3990 -0.0458
 3292SOL    HW210776   1.144   1.965   1.784  1.9327  1.1826  1.5883
 3293SOL     OW10777   4.613   6.031   4.417 -0.1599  0.2113  0.4534
 3293SOL    HW110778   4.623   6.023   4.517  1.8477 -0.7209  0.2360
 3293SOL    HW210779   4.561   5.953   4.383 -2.7578  1.6255  0.9318
 3294SOL     OW10780   5.338   3.964   6.174  0.8342 -0.6992 -0.0139
 3294SOL    HW110781   5.347   3.977   6.075 -0.2261 -1.6054 -0.2538
 3294SOL    HW210782   5.387   3.881   6.201 -1.5003 -2.2878 -0.3545
 3295SOL     OW10783   1.996   4.270   1.312 -0.2723  0.0614  0.0937
 3295SOL    HW110784   2.062   4.311   1.249 -0.2358  0.5846  0.4621
 3295SOL    HW210785   2.028   4.180   1.341 -0.4720 -0.3513 -0.9179
 3296SOL     OW10786   6.283   1.449   0.374  0.2994 -0.0901  0.2683
 3296SOL    HW110787   6.202   1.414   0.422  0.0722 -0.0814 -0.1091
 3296SOL    HW210788   6.265   1.541   0.341 -0.1176 -0.6871 -1.2256
 3297SOL     OW10789   5.041   6.790   5.590 -0.1721  0.1597 -0.1028
 3297SOL    HW110790   4.985   6.708   5.577 -1.0387  0.8827 -1.0626
 3297SOL    HW210791   5.108   6.797   5.516 -2.5522  2.2202 -2.2751
 3298SOL     OW10792   6.325   5.650   3.682  0.1556 -0.5798  0.4087
 3298SOL    HW110793   6.401   5.586   3.684  0.0273 -0.8635 -1.6705
 3298SOL    HW210794   6.357   5.741   3.707  1.1718 -0.7232 -0.3201
 3299SOL     OW10795   2.966   5.304   3.570  0.5931 -0.3310  0.1249
 3299SOL    HW110796   2.988   5.249   3.490  1.0828 -0.5128  0.3849
 3299SOL    HW210797   2.908   5.381   3.542  0.2141 -0.7584 -0.2984
 3300SOL     OW10798   2.498   0.034   6.331 -0.4696  0.1162  0.1843
 3300SOL    HW110799   2.436  -0.038   6.363  1.4761 -1.2258  1.1496
 3300SOL    HW210800   2.519   0.095   6.407 -0.7215  0.6744 -0.1886
 3301SOL     OW10801   0.916   2.040   3.326 -0.0887 -0.4851  0.4112
 3301SOL    HW110802   0.988   2.012   3.389  0.8060 -0.4167 -0.5615
 3301SOL    HW210803   0.851   2.099   3.374 -0.1285 -1.4372  1.5912
 3302SOL     OW10804   1.939   5.063   4.754  0.1977  0.1162  0.2523
 3302SOL    HW110805   1.998   5.086   4.677 -0.9325 -1.3454 -1.1249
 3302SOL    HW210806   1.944   4.965   4.771 -0.2103  0.3039  1.4998
 3303SOL     OW10807   3.632   3.097   1.514 -0.1137  0.4946  0.1521
 3303SOL    HW110808   3.619   3.102   1.415  0.3801  0.9472  0.1118
 3303SOL    HW210809   3.680   3.178   1.547  0.1846  0.1090  0.6948
 3304SOL     OW10810   1.348   3.798   6.805 -0.1265 -0.0594 -0.1528
 3304SOL    HW110811   1.281   3.856   6.852 -0.7364 -0.4743 -0.4868
 3304SOL    HW210812   1.301   3.743   6.736  0.6794  0.2242 -0.9523
 3305SOL     OW10813   1.825   0.343   2.734  0.0987  0.3222  0.1690
 3305SOL    HW110814   1.869   0.254   2.717 -0.3472  0.1391 -0.0474
 3305SOL    HW210815   1.888   0.416   2.707  0.4670  0.0739  0.3368
 3306SOL     OW10816   0.987   1.069   6.979  0.0308 -0.1490  0.4245
 3306SOL    HW110817   1.060   1.103   7.038  0.1518 -1.8451  1.3335
 3306SOL    HW210818   0.898   1.090   7.019  0.0835 -0.2087  0.5734
 3307SOL     OW10819   2.388   6.974   4.997  0.0698  0.8567  0.5370
 3307SOL    HW110820   2.365   7.067   4.970 -1.0181  0.3591 -0.3339
 3307SOL    HW210821   2.310   6.933   5.046  0.0495 -0.0138 -0.1973
 3308SOL     OW10822   2.834   6.000   0.594  0.0564 -0.1984  0.0335
 3308SOL    HW110823   2.755   6.059   0.615  0.0322 -0.6043  1.1895
 3308SOL    HW210824   2.816   5.908   0.629  0.5827 -0.5837 -0.7071
 3309SOL     OW10825   4.873   4.861   3.166 -0.1236  0.3983 -0.4745
 3309SOL    HW110826   4.807   4.884   3.238 -0.1510  0.4142 -0.5048
 3309SOL    HW210827   4.847   4.774   3.124 -0.2144  0.4834 -0.5937
 3310SOL     OW10828   0.206   0.129   4.119 -0.3244 -0.1384  0.2326
 3310SOL    HW110829   0.164   0.218   4.137 -1.0447  0.0685 -2.0480
 3310SOL    HW210830   0.280   0.113   4.184 -0.5022  1.8977  1.0236
 3311SOL     OW10831   1.787   5.130   5.660 -0.1348  0.2495  0.0608
 3311SOL    HW110832   1.852   5.072   5.610 -0.5520 -0.0371 -0.1497
 3311SOL    HW210833   1.713   5.158   5.599  0.1303  1.1245  0.1212
 3312SOL     OW10834   5.409   2.324   4.898  0.3974 -0.8234  0.3399
 3312SOL    HW110835   5.346   2.340   4.974  1.9045  1.5452  1.2035
 3312SOL    HW210836   5.469   2.247   4.921  0.1936 -0.7585  1.1236
 3313SOL     OW10837   0.486   1.622   2.771 -0.3108  0.5730  0.2462
 3313SOL    HW110838   0.502   1.626   2.870 -1.0617  0.8043  0.3666
 3313SOL    HW210839   0.389   1.601   2.754 -0.0803  0.0479 -0.4430
 3314SOL     OW10840   0.456   1.350   5.375  0.5070  1.3272  0.0589
 3314SOL    HW110841   0.394   1.350   5.296  0.7810  1.3771 -0.1562
 3314SOL    HW210842   0.467   1.256   5.408 -0.3727  1.4087  0.6479
 3315SOL     OW10843   1.551   6.081   6.105 -0.9534 -0.1531 -0.4792
 3315SOL    HW110844   1.454   6.093   6.084 -0.7730  1.8167 -0.3277
 3315SOL    HW210845   1.566   6.096   6.203 -0.2389  1.5639 -0.8184
 3316SOL     OW10846   3.327   1.812   5.293  0.3307 -0.4692 -0.1134
 3316SOL    HW110847   3.302   1.866   5.213 -0.0970 -0.9135 -0.2861
 3316SOL    HW210848   3.324   1.869   5.375  1.0820  0.0711 -0.4477
 3317SOL     OW10849   4.463   3.079   6.831  0.0903  0.2779 -0.2241
 3317SOL    HW110850   4.447   3.096   6.734 -0.4515 -0.0968 -0.2009
 3317SOL    HW210851   4.428   3.156   6.885  1.1949  0.9078 -0.3756
 3318SOL     OW10852   3.838   3.224   6.487  0.1180  0.0245  0.3976
 3318SOL    HW110853   3.842   3.216   6.387 -0.6846 -0.0934  0.3736
 3318SOL    HW210854   3.744   3.241   6.516  0.5230  1.2563  1.0586
 3319SOL     OW10855   6.052   1.102   2.733 -0.1280 -0.2307  0.3274
 3319SOL    HW110856   6.007   1.038   2.671 -0.7364  0.2713  0.2414
 3319SOL    HW210857   6.024   1.195   2.711  2.1562  0.2641 -0.7517
 3320SOL     OW10858   6.683   5.773   1.143  0.1850  0.3764 -0.3441
 3320SOL    HW110859   6.689   5.674   1.134 -1.0707  0.2232  0.3711
 3320SOL    HW210860   6.667   5.814   1.053 -1.5032 -0.2574 -0.3517
 3321SOL     OW10861   6.028   2.742   6.567 -0.2375 -0.1990 -0.9993
 3321SOL    HW110862   6.087   2.789   6.631 -1.5287 -0.0424  0.1277
 3321SOL    HW210863   6.062   2.754   6.474  1.8244 -0.6596 -0.3502
 3322SOL     OW10864   5.265   4.041   2.083 -0.0425  0.6416  0.0588
 3322SOL    HW110865   5.358   4.077   2.082  0.1052  0.2960  0.5573
 3322SOL    HW210866   5.262   3.956   2.031  0.3731 -0.3695  1.6088
 3323SOL     OW10867   3.531   0.638   3.292 -0.3407 -0.2511 -0.4174
 3323SOL    HW110868   3.514   0.569   3.363  2.9881 -0.1304  0.6909
 3323SOL    HW210869   3.461   0.632   3.222 -1.8359 -2.7468  1.1482
 3324SOL     OW10870   5.803   5.423   4.586  0.2307  0.4944  0.0424
 3324SOL    HW110871   5.894   5.381   4.576  0.9335  1.6045  1.3797
 3324SOL    HW210872   5.740   5.355   4.624  1.5975  0.7872  3.1246
 3325SOL     OW10873   6.635   4.857   5.339  0.4497 -0.1701 -0.5553
 3325SOL    HW110874   6.711   4.843   5.275  1.5991  0.0551  0.7219
 3325SOL    HW210875   6.560   4.903   5.292  0.9110 -0.7904 -1.9601
 3326SOL     OW10876   0.032   1.783   2.027 -0.0500 -0.2504  0.1227
 3326SOL    HW110877  -0.029   1.861   2.033  0.0121 -0.1268 -0.7108
 3326SOL    HW210878  -0.003   1.719   1.958  0.5580 -0.3558 -0.0932
 3327SOL     OW10879   0.084   5.349   0.237  0.7964 -0.0276  0.2134
 3327SOL    HW110880   0.050   5.350   0.142  1.0646 -3.9911 -0.0759
 3327SOL    HW210881   0.183   5.358   0.237  0.6655  2.0062  0.3733
 3328SOL     OW10882   3.503   1.244   1.340 -0.0581 -1.0831 -0.0714
 3328SOL    HW110883   3.433   1.296   1.292  1.1005 -1.3691 -2.2149
 3328SOL    HW210884   3.589   1.295   1.339  1.1488 -2.9320 -2.3442
 3329SOL     OW10885   6.422   6.165   5.012  0.3437  0.4746  0.6076
 3329SOL    HW110886   6.437   6.081   4.961  0.0395  1.1256 -0.5803
 3329SOL    HW210887   6.334   6.159   5.060 -0.4470  0.7042 -0.7490
 3330SOL     OW10888   6.564   3.133   2.237  0.3911 -0.6099  0.7355
 3330SOL    HW110889   6.563   3.222   2.193 -1.9571 -1.1916 -0.5488
 3330SOL    HW210890   6.488   3.127   2.303 -0.3510 -2.0895 -0.2038
 3331SOL     OW10891   1.658   2.873   6.804 -0.6316  0.0080  0.4252
 3331SOL    HW110892   1.659   2.791   6.861 -0.6452 -1.4385 -1.5417
 3331SOL    HW210893   1.564   2.899   6.786 -0.6292  0.9831  1.7204
 3332SOL     OW10894   0.005   3.917   6.172 -0.3021  0.0065 -0.6801
 3332SOL    HW110895  -0.029   3.848   6.237 -0.6855  1.0410  0.2628
 3332SOL    HW210896  -0.056   3.997   6.175  0.4550  0.6164 -1.3228
 3333SOL     OW10897   3.963   4.772   6.196  0.2738  0.1377 -0.1893
 3333SOL    HW110898   3.916   4.815   6.274 -0.6788 -1.0125 -0.1109
 3333SOL    HW210899   3.907   4.781   6.114 -0.4989 -1.8965  0.0578
 3334SOL     OW10900   2.588   3.833   0.475  0.1875 -0.3500 -0.3649
 3334SOL    HW110901   2.620   3.744   0.444 -0.3236  0.1047 -2.3455
 3334SOL    HW210902   2.663   3.883   0.518  1.1272 -0.7919 -1.4512
 3335SOL     OW10903   5.615   5.245   4.671  0.4390 -0.8921 -0.3344
 3335SOL    HW110904   5.680   5.257   4.746 -0.3085 -1.0627  0.3519
 3335SOL    HW210905   5.523   5.269   4.703  0.2999  0.4145 -1.5948
 3336SOL     OW10906   4.203   4.663   5.438  1.0077 -0.1088  0.9768
 3336SOL    HW110907   4.178   4.671   5.534 -0.6618 -0.4253  0.6022
 3336SOL    HW210908   4.123   4.634   5.385  1.5031  1.4248 -0.7251
 3337SOL     OW10909   3.879   0.637   1.836 -0.5351 -0.2032  0.0999
 3337SOL    HW110910   3.786   0.672   1.825 -1.3961 -2.2009  0.5659
 3337SOL    HW210911   3.902   0.636   1.934  0.1317  0.6061 -0.0374
 3338SOL     OW10912   0.408   4.632   0.876 -0.0837 -0.1818  0.2597
 3338SOL    HW110913   0.356   4.569   0.934  0.7649  0.5205  1.8461
 3338SOL    HW210914   0.384   4.726   0.899  1.7239  0.1482  0.8909
 3339SOL     OW10915   6.012   6.515   0.617  0.5758 -0.8131 -0.3108
 3339SOL    HW110916   5.994   6.470   0.529  0.9979  0.7726 -1.2582
 3339SOL    HW210917   5.952   6.477   0.687  0.2918 -2.1788 -1.2637
 3340SOL     OW10918   3.412   6.833   1.220 -0.0322  0.0582  0.1426
 3340SOL    HW110919   3.464   6.854   1.302  0.3134 -0.9874  0.2137
 3340SOL    HW210920   3.326   6.789   1.245 -0.8030  1.4382  0.0087
 3341SOL     OW10921   0.612   1.402   2.954 -0.2287  0.2681  0.6560
 3341SOL    HW110922   0.689   1.440   3.006  1.3694  0.6000 -1.7728
 3341SOL    HW210923   0.643   1.323   2.901 -0.1087  2.9939 -3.9082
 3342SOL     OW10924   1.907   0.844   4.698 -0.2418  0.0574  0.1069
 3342SOL    HW110925   1.982   0.834   4.632 -0.4343 -0.0469 -0.0972
 3342SOL    HW210926   1.829   0.888   4.654  0.1876  1.4631  0.6995
 3343SOL     OW10927   5.116   2.649   1.846 -0.3148  0.3742  0.1603
 3343SOL    HW110928   5.065   2.717   1.898 -0.3362  0.7344 -0.3199
 3343SOL    HW210929   5.115   2.674   1.749  1.0105  0.5464  0.1778
 3344SOL     OW10930   5.203   4.046   6.569 -0.4982 -0.3142  0.3920
 3344SOL    HW110931   5.258   4.084   6.643 -0.8992  0.0700  0.5007
 3344SOL    HW210932   5.171   4.121   6.510 -0.9622 -0.5237  0.3742
 3345SOL     OW10933   4.068   3.807   4.813 -0.3763  0.1057  0.3516
 3345SOL    HW110934   4.168   3.808   4.814 -0.3366 -0.9231  2.4997
 3345SOL    HW210935   4.034   3.899   4.835  0.2729 -0.4592  4.5935
 3346SOL     OW10936   3.936   6.914   4.117 -0.1973  0.1108 -0.9284
 3346SOL    HW110937   3.959   6.990   4.057  0.2798  0.6511 -0.0677
 3346SOL    HW210938   3.959   6.937   4.211  0.7241 -1.4107 -0.7478
 3347SOL     OW10939   6.213   5.204   5.079  0.7637 -0.3850  0.5866
 3347SOL    HW110940   6.131   5.149   5.096 -0.1027  0.2966 -1.1524
 3347SOL    HW210941   6.275   5.197   5.158 -1.5075  0.0877  2.5226
 3348SOL     OW10942   3.392   2.853   2.608  0.2781 -0.0836  0.0427
 3348SOL    HW110943   3.368   2.893   2.520  1.6302 -0.5563 -0.5635
 3348SOL    HW210944   3.447   2.771   2.594  0.7478 -0.0161  1.3312
 3349SOL     OW10945   0.624   3.659   5.315 -0.0038 -0.2172  0.2132
 3349SOL    HW110946   0.531   3.635   5.286 -0.0562 -0.2845  0.4365
 3349SOL    HW210947   0.635   3.637   5.412  1.2536 -3.3052 -0.5000
 3350SOL     OW10948   2.010   1.990   6.822  0.4634 -0.2737  0.2373
 3350SOL    HW110949   2.062   2.009   6.739  0.2441  0.8292  0.3462
 3350SOL    HW210950   2.068   1.943   6.888  1.5731  1.5672  0.6354
 3351SOL     OW10951   4.684   1.710   2.057 -0.8030 -0.1210 -0.2445
 3351SOL    HW110952   4.675   1.613   2.037 -0.5552 -0.4129  1.0039
 3351SOL    HW210953   4.778   1.740   2.038 -0.4804 -0.4708  0.7617
 3352SOL     OW10954   2.203   2.895   2.375  0.0913  0.3811 -0.5265
 3352SOL    HW110955   2.278   2.830   2.364  0.8309  1.5531 -3.3542
 3352SOL    HW210956   2.151   2.873   2.458  2.3371 -1.6571  0.4494
 3353SOL     OW10957   0.772   6.455   4.408  0.0208  0.2348 -0.5623
 3353SOL    HW110958   0.718   6.520   4.356  0.2988  0.4447 -0.5901
 3353SOL    HW210959   0.785   6.371   4.354 -2.1112 -0.7074  0.2611
 3354SOL     OW10960   0.804   0.036   2.881 -0.5089  0.4362 -0.1428
 3354SOL    HW110961   0.723  -0.014   2.852 -0.8145  1.6935 -1.5766
 3354SOL    HW210962   0.788   0.135   2.869  1.3319  0.6936 -0.7557
 3355SOL     OW10963   6.648   1.616   2.148 -0.4433 -0.7546 -0.6343
 3355SOL    HW110964   6.599   1.611   2.060 -2.1637 -0.0616  0.2324
 3355SOL    HW210965   6.583   1.637   2.221  1.3163  1.2173  0.4585
 3356SOL     OW10966   3.857   4.329   7.010 -0.8845  0.3967  0.9044
 3356SOL    HW110967   3.801   4.354   7.089  0.0195  0.1498  1.6472
 3356SOL    HW210968   3.940   4.282   7.041 -0.4606  0.3770 -0.1903
 3357SOL     OW10969   2.402   2.754   0.762 -0.3062  0.6061  0.1337
 3357SOL    HW110970   2.388   2.796   0.852  0.8338  1.7701 -0.1926
 3357SOL    HW210971   2.499   2.738   0.748 -0.6887 -2.2065  0.2100
 3358SOL     OW10972   4.076   5.168   4.261  0.2469 -0.3821  0.3849
 3358SOL    HW110973   4.018   5.087   4.269 -1.4812  0.9300  2.1396
 3358SOL    HW210974   4.092   5.189   4.164  1.7512 -3.4164 -0.1395
 3359SOL     OW10975   1.853   6.591   2.905 -0.8056  0.2491 -0.1390
 3359SOL    HW110976   1.905   6.641   2.974 -1.3263  0.8175 -0.1473
 3359SOL    HW210977   1.895   6.605   2.815 -1.4921  1.4716 -0.2855
 3360SOL     OW10978   2.335   6.982   0.089  0.4062  0.2369  0.7046
 3360SOL    HW110979   2.425   6.939   0.088 -0.2229 -1.1609  1.6254
 3360SOL    HW210980   2.273   6.929   0.146 -0.8289  1.5640  0.6605
 3361SOL     OW10981   5.507   5.536   3.110  0.1840  0.1273  0.4402
 3361SOL    HW110982   5.562   5.552   3.192  0.3675 -0.0018  0.3433
 3361SOL    HW210983   5.544   5.457   3.061  2.5720  2.5242 -1.9117
 3362SOL     OW10984   5.322   2.246   3.081  0.2617  0.0703 -0.7320
 3362SOL    HW110985   5.332   2.196   3.167 -1.1932 -0.8496 -1.0568
 3362SOL    HW210986   5.364   2.194   3.007  0.9082  0.5311 -0.6959
 3363SOL     OW10987   0.004   1.769   1.139 -0.2153 -0.4249 -0.0193
 3363SOL    HW110988   0.060   1.693   1.105  2.4134 -0.2710  3.4235
 3363SOL    HW210989  -0.057   1.736   1.211  0.5229  0.5892  1.1015
 3364SOL     OW10990   2.963   4.283   5.307 -0.2115  0.3926  0.1245
 3364SOL    HW110991   2.920   4.197   5.337  0.2176 -0.0620 -0.5475
 3364SOL    HW210992   2.920   4.314   5.223  1.8037 -0.9241 -1.4687
 3365SOL     OW10993   0.934   1.583   5.922 -0.5025  0.2928 -0.4508
 3365SOL    HW110994   0.897   1.660   5.870 -2.6711 -0.3365  0.0268
 3365SOL    HW210995   1.021   1.609   5.964 -0.9013  2.2818 -0.7714
 3366SOL     OW10996   6.878   0.840   5.113  0.6715 -0.1608  0.6061
 3366SOL    HW110997   6.897   0.780   5.035  2.8448 -1.5764  2.1391
 3366SOL    HW210998   6.890   0.790   5.198  0.9132  2.0105  1.9274
 3367SOL     OW10999   1.758   3.691   1.369 -0.1967 -0.1113 -0.0202
 3367SOL    HW111000   1.664   3.705   1.338 -0.3872 -1.4985 -0.0958
 3367SOL    HW211001   1.777   3.594   1.377  1.4128  0.1240 -0.5461
 3368SOL     OW11002   6.496   6.481   0.112  0.6234 -0.1029  0.0344
 3368SOL    HW111003   6.586   6.485   0.155  0.4518  0.8611  0.3153
 3368SOL    HW211004   6.452   6.571   0.117 -0.0012 -0.3443 -0.8598
 3369SOL     OW11005   5.775   0.822   6.064  0.0337  0.1425  0.6462
 3369SOL    HW111006   5.866   0.864   6.073 -0.2187  1.3710 -1.7134
 3369SOL    HW211007   5.785   0.724   6.052  1.1415  0.3439 -0.2961
 3370SOL     OW11008   0.102   6.404   3.442  0.1414 -0.6350 -0.4176
 3370SOL    HW111009   0.148   6.352   3.515 -0.4112  0.3811  0.6898
 3370SOL    HW211010   0.008   6.372   3.432  0.3437 -1.0658 -1.0016
 3371SOL     OW11011   2.494   0.147   2.692 -0.7978  0.1153 -0.5412
 3371SOL    HW111012   2.559   0.223   2.689 -0.6221  0.0132  0.4077
 3371SOL    HW211013   2.426   0.164   2.763 -0.8362 -0.5508 -0.4133
 3372SOL     OW11014   1.531   0.883   2.324  0.0450 -0.0129 -0.0863
 3372SOL    HW111015   1.540   0.974   2.284  2.5432 -0.4269 -0.6384
 3372SOL    HW211016   1.449   0.838   2.288  0.8792  0.5473 -2.8996
 3373SOL     OW11017   6.249   3.508   3.715 -0.2937  0.1289  0.0906
 3373SOL    HW111018   6.271   3.482   3.809 -0.5026 -1.9365 -0.3881
 3373SOL    HW211019   6.240   3.608   3.710  2.5764  0.5852  1.6289
 3374SOL     OW11020   3.627   4.372   5.879 -0.2789 -0.1395  0.3931
 3374SOL    HW111021   3.614   4.461   5.835  0.2373  1.0981  2.6245
 3374SOL    HW211022   3.540   4.340   5.916 -0.4290 -0.5084 -0.2582
 3375SOL     OW11023   4.683   4.372   4.501  0.2375  0.9093  0.0405
 3375SOL    HW111024   4.604   4.311   4.489  0.5662  0.1365  1.5932
 3375SOL    HW211025   4.651   4.463   4.525 -0.1917  0.6881  0.3257
 3376SOL     OW11026   2.946   3.383   2.368 -0.6116  0.2668  0.0054
 3376SOL    HW111027   2.890   3.370   2.450 -0.2906 -1.3680 -0.0014
 3376SOL    HW211028   2.908   3.456   2.312  0.1172  2.6563  2.4175
 3377SOL     OW11029   3.018   5.932   3.926  0.5022  0.0349 -0.8304
 3377SOL    HW111030   3.115   5.940   3.949  0.7316 -1.2502 -1.2745
 3377SOL    HW211031   2.995   5.835   3.912 -0.6816  0.3856 -1.4135
 3378SOL     OW11032   5.491   1.877   0.487 -0.3023 -0.0358 -0.2379
 3378SOL    HW111033   5.404   1.875   0.536 -0.0955  0.3086  0.1384
 3378SOL    HW211034   5.508   1.969   0.451  1.1881  0.6495  2.0082
 3379SOL     OW11035   0.015   5.567   4.946  0.4623  0.4583 -0.5824
 3379SOL    HW111036   0.002   5.538   5.041  1.3406 -1.7841 -1.0769
 3379SOL    HW211037   0.083   5.508   4.903 -1.4751 -0.0415 -3.2340
 3380SOL     OW11038   0.705   4.550   0.055  0.6611  0.2983  0.7189
 3380SOL    HW111039   0.631   4.574  -0.008 -0.3252 -1.2135  1.2454
 3380SOL    HW211040   0.679   4.578   0.148  0.3514 -0.9726  1.0361
 3381SOL     OW11041   0.959   2.134   1.630 -0.7917 -0.2464  0.1546
 3381SOL    HW111042   0.960   2.053   1.690  0.0260 -1.4029 -1.3515
 3381SOL    HW211043   1.048   2.179   1.634 -1.0469  0.2252  0.5256
 3382SOL     OW11044   0.556   1.679   1.740  0.5567  0.4922  0.0534
 3382SOL    HW111045   0.485   1.649   1.803  1.5674 -3.7729 -0.5045
 3382SOL    HW211046   0.516   1.735   1.668 -1.5780  0.9093  1.4844
 3383SOL     OW11047   5.175   5.277   0.735  0.3610 -0.2463  0.0523
 3383SOL    HW111048   5.185   5.192   0.683  1.0838 -1.0567  1.4549
 3383SOL    HW211049   5.078   5.299   0.743  0.1925 -0.5372 -0.9233
 3384SOL     OW11050   3.952   2.800   6.736 -0.0864 -0.2216 -0.6529
 3384SOL    HW111051   3.944   2.898   6.718 -2.1874 -0.4539 -1.2466
 3384SOL    HW211052   3.870   2.767   6.784  1.9773 -1.1199  2.6614
 3385SOL     OW11053   1.300   2.940   4.955  0.0312 -0.5623 -0.2551
 3385SOL    HW111054   1.284   2.842   4.967  0.3339 -0.6393 -0.4691
 3385SOL    HW211055   1.236   2.991   5.012  0.2817 -0.8939  0.3412
 3386SOL     OW11056   6.332   3.992   4.890 -0.2336  0.4214 -0.0645
 3386SOL    HW111057   6.285   3.958   4.809 -3.1689  1.3334  1.0963
 3386SOL    HW211058   6.418   4.035   4.864 -0.5141 -0.3687 -2.5043
 3387SOL     OW11059   2.743   0.923   2.962  0.7017 -0.0848 -0.9158
 3387SOL    HW111060   2.826   0.873   2.984  0.4024 -0.0697  0.2976
 3387SOL    HW211061   2.680   0.921   3.040 -0.3830  0.0207 -1.7581
 3388SOL     OW11062   5.915   3.629   0.151 -0.0639  0.2740  0.7586
 3388SOL    HW111063   5.988   3.642   0.218  0.4656 -2.1710  0.7591
 3388SOL    HW211064   5.828   3.657   0.192  0.7679  3.0353  0.8247
 3389SOL     OW11065   5.936   5.474   4.936  0.6427  0.0921 -0.2672
 3389SOL    HW111066   5.998   5.485   4.859  1.0621 -1.5176 -0.1981
 3389SOL    HW211067   5.988   5.478   5.022  0.2645  1.2708 -0.0711
 3390SOL     OW11068   5.672   2.769   5.324 -0.4777 -0.4134  0.3388
 3390SOL    HW111069   5.661   2.673   5.348 -0.4058 -1.3979 -3.0513
 3390SOL    HW211070   5.759   2.782   5.276 -0.5156  1.3440  0.6705
 3391SOL     OW11071   2.940   1.520   4.330  0.0422  0.3223 -0.2212
 3391SOL    HW111072   2.879   1.505   4.408  2.7919  0.0522  2.0417
 3391SOL    HW211073   2.964   1.617   4.326  0.6204  0.1824 -0.1562
 3392SOL     OW11074   3.404   1.938   1.909 -0.0310 -0.4508  0.0972
 3392SOL    HW111075   3.336   2.009   1.923  1.2098  0.6497  0.8159
 3392SOL    HW211076   3.484   1.977   1.863  0.3742 -1.5599 -0.1769
 3393SOL     OW11077   6.608   5.218   1.165 -0.2491  0.2799  0.0959
 3393SOL    HW111078   6.604   5.174   1.075  1.0070 -0.8797  0.5792
 3393SOL    HW211079   6.546   5.171   1.228  1.9953 -1.7118  0.9482
 3394SOL     OW11080   6.558   1.383   0.921 -0.3990  0.3070 -0.1549
 3394SOL    HW111081   6.574   1.443   0.842 -0.8251 -0.6053 -0.9528
 3394SOL    HW211082   6.505   1.303   0.892  1.2715 -1.1452  0.5771
 3395SOL     OW11083   1.261   1.712   4.001  0.0352 -0.5520  0.4617
 3395SOL    HW111084   1.281   1.614   4.001  0.3494 -0.6217 -2.9528
 3395SOL    HW211085   1.162   1.726   4.001 -0.0261 -0.9418 -0.2645
 3396SOL     OW11086   1.637   3.156   3.283  0.7214  0.2926 -0.4357
 3396SOL    HW111087   1.702   3.126   3.213 -0.5389 -0.3964 -1.3494
 3396SOL    HW211088   1.622   3.082   3.349 -1.1832 -0.6062 -1.7926
 3397SOL     OW11089   4.591   0.864   5.516 -0.4599  0.3176  0.0966
 3397SOL    HW111090   4.556   0.875   5.424  0.8156  1.5214 -0.2880
 3397SOL    HW211091   4.599   0.954   5.560 -0.9192 -0.2183  1.3393
 3398SOL     OW11092   0.170   6.944   2.742  1.0484  0.1754 -0.2363
 3398SOL    HW111093   0.074   6.972   2.748  1.2614  1.1487 -1.2245
 3398SOL    HW211094   0.212   6.949   2.832  0.6848  1.6325 -0.1354
 3399SOL     OW11095   6.699   5.329   5.406 -0.1654  0.9564 -0.2082
 3399SOL    HW111096   6.721   5.407   5.464  0.1092 -0.3743  1.5532
 3399SOL    HW211097   6.617   5.349   5.353 -0.3848  2.2474  0.5789
 3400SOL     OW11098   4.700   3.733   0.800 -0.3001 -0.0162 -0.0727
 3400SOL    HW111099   4.768   3.804   0.823 -0.0947 -0.0504 -0.5796
 3400SOL    HW211100   4.717   3.699   0.708 -1.0986  0.0761 -0.2545
 3401SOL     OW11101   5.733   3.742   6.878  0.1482 -0.2447  0.6906
 3401SOL    HW111102   5.633   3.752   6.875  0.0736 -0.9969  0.3902
 3401SOL    HW211103   5.756   3.652   6.912  0.7428  0.0838  1.1674
 3402SOL     OW11104   6.634   6.134   6.835  0.2661 -0.0998  0.0782
 3402SOL    HW111105   6.564   6.080   6.790 -1.1264  1.7251 -0.0598
 3402SOL    HW211106   6.650   6.097   6.927 -0.2801 -1.0249 -0.1844
 3403SOL     OW11107   3.103   6.638   5.116 -0.0445 -0.2350  0.2277
 3403SOL    HW111108   3.015   6.606   5.082 -0.3533  1.4169 -0.6595
 3403SOL    HW211109   3.175   6.575   5.087 -0.6348 -0.2670 -1.2796
 3404SOL     OW11110   3.631   0.546   1.270 -0.3907  0.1969 -0.4123
 3404SOL    HW111111   3.548   0.518   1.221 -0.1753  0.5539 -0.9798
 3404SOL    HW211112   3.691   0.597   1.209  0.1111  0.2109  0.0843
 3405SOL     OW11113   5.474   3.663   6.763  0.0898 -0.1930  0.0844
 3405SOL    HW111114   5.421   3.593   6.812 -1.4872  0.3537 -0.7774
 3405SOL    HW211115   5.412   3.720   6.708  1.5321  0.7985 -0.5791
 3406SOL     OW11116   2.670   5.922   1.861  0.5184  0.9249  0.7056
 3406SOL    HW111117   2.592   5.874   1.820  1.3000  0.5076 -0.3529
 3406SOL    HW211118   2.729   5.856   1.908  0.6852  1.1047  0.7502
 3407SOL     OW11119   1.846   4.245   3.921  0.4483 -0.0332 -0.6699
 3407SOL    HW111120   1.844   4.175   3.993  0.1067  1.2500  0.6335
 3407SOL    HW211121   1.941   4.274   3.907  0.7879 -1.7835 -2.3068
 3408SOL     OW11122   5.691   4.376   3.019 -0.4335  0.3113  0.0112
 3408SOL    HW111123   5.789   4.368   3.038 -0.3652  2.0507  0.5332
 3408SOL    HW211124   5.639   4.365   3.104 -0.5624  1.2201  0.0589
 3409SOL     OW11125   3.866   5.421   4.329  0.8306 -0.0344 -0.2162
 3409SOL    HW111126   3.932   5.360   4.374  0.6686  0.8308  1.2484
 3409SOL    HW211127   3.841   5.495   4.391 -0.5500  0.3839 -1.2225
 3410SOL     OW11128   6.846   5.232   0.651  0.6222 -0.6960 -0.3350
 3410SOL    HW111129   6.895   5.248   0.565 -1.6148 -0.1859 -1.5752
 3410SOL    HW211130   6.800   5.316   0.679 -1.2339 -1.6627 -0.3508
 3411SOL     OW11131   6.280   1.767   2.521  0.2069  0.0219  0.1979
 3411SOL    HW111132   6.317   1.764   2.614 -0.9959 -0.2546  0.6845
 3411SOL    HW211133   6.221   1.846   2.511  0.4796  0.1551 -0.3973
 3412SOL     OW11134   1.663   2.319   6.904 -0.1753 -0.2643  0.1666
 3412SOL    HW111135   1.616   2.287   6.823  2.3660 -0.5736 -1.2783
 3412SOL    HW211136   1.598   2.326   6.980 -2.1143 -2.3996 -1.1875
 3413SOL     OW11137   2.892   1.639   1.626  0.4151  0.3929 -0.3718
 3413SOL    HW111138   2.874   1.571   1.697  1.4963  1.1380  0.6537
 3413SOL    HW211139   2.823   1.711   1.631 -0.2781 -0.2031 -0.9614
 3414SOL     OW11140   2.115   2.135   5.017  0.3346 -0.6559  0.5985
 3414SOL    HW111141   2.189   2.173   4.962 -0.1505  0.7407  0.8691
 3414SOL    HW211142   2.035   2.120   4.959  0.8347 -2.2951  0.2774
 3415SOL     OW11143   0.879   5.844   2.640  0.0662 -0.2957  0.0850
 3415SOL    HW111144   0.861   5.925   2.586  0.9791 -0.1433  0.0039
 3415SOL    HW211145   0.923   5.774   2.584 -1.0171 -0.9947  0.0607
 3416SOL     OW11146   0.400   5.328   6.078 -0.2017 -0.0443  0.3384
 3416SOL    HW111147   0.434   5.321   5.984  0.4542 -0.4333  0.6024
 3416SOL    HW211148   0.415   5.241   6.126 -0.2488  0.2520  0.8997
 3417SOL     OW11149   0.085   5.414   2.325  0.0922 -0.7345  0.0532
 3417SOL    HW111150   0.168   5.414   2.381  0.3103  0.3231 -0.2566
 3417SOL    HW211151   0.037   5.501   2.337 -0.8491 -1.2432  0.0376
 3418SOL     OW11152   4.460   1.760   5.370 -0.1873  0.0655 -0.2900
 3418SOL    HW111153   4.402   1.680   5.357 -0.2592  0.2722 -1.3301
 3418SOL    HW211154   4.555   1.736   5.350  0.4687 -0.7665  3.1867
 3419SOL     OW11155   5.656   5.637   1.266  0.0151  0.0205  0.6981
 3419SOL    HW111156   5.725   5.586   1.215 -1.0022  0.8169 -1.6148
 3419SOL    HW211157   5.595   5.684   1.202 -0.9630  1.6365  2.6929
 3420SOL     OW11158   6.631   2.325   4.438 -0.0124  0.4335 -0.3326
 3420SOL    HW111159   6.645   2.320   4.537 -2.7092 -0.2048  0.0939
 3420SOL    HW211160   6.719   2.335   4.393  1.3912 -0.2831  2.0536
 3421SOL     OW11161   5.986   0.924   4.902  0.2766 -0.5011  0.2937
 3421SOL    HW111162   5.947   0.980   4.976  2.0944  2.0359 -0.5112
 3421SOL    HW211163   6.078   0.895   4.927  0.3853 -0.7943 -0.4266
 3422SOL     OW11164   3.733   6.421   0.869 -0.8562  0.9676 -0.6813
 3422SOL    HW111165   3.638   6.434   0.843 -0.2957  0.8793 -3.0174
 3422SOL    HW211166   3.754   6.323   0.872 -0.5477  1.0079 -1.3973
 3423SOL     OW11167   0.148   0.023   6.759 -0.3086  0.3081 -0.2389
 3423SOL    HW111168   0.140   0.100   6.695 -1.8119 -0.9627 -1.6607
 3423SOL    HW211169   0.066  -0.034   6.753  1.3132 -2.1895 -0.2846
 3424SOL     OW11170   3.219   1.466   2.478 -0.3535 -0.2749 -0.5517
 3424SOL    HW111171   3.245   1.375   2.512 -0.1889  0.3828  1.1742
 3424SOL    HW211172   3.301   1.516   2.452 -0.3089 -0.0323  0.0542
 3425SOL     OW11173   5.459   2.979   1.360  0.0717  0.0937 -0.5225
 3425SOL    HW111174   5.435   2.881   1.362  0.4431  0.0173  0.8130
 3425SOL    HW211175   5.514   2.998   1.279 -0.5862 -0.6557 -1.1687
 3426SOL     OW11176   3.980   3.075   0.415  0.2634  0.3266  0.0508
 3426SOL    HW111177   4.013   3.004   0.352 -1.2332 -2.0629  1.8061
 3426SOL    HW211178   4.046   3.086   0.489  0.6689  1.0696 -0.4122
 3427SOL     OW11179   5.521   0.138   6.656 -0.1371  0.2033 -0.1526
 3427SOL    HW111180   5.489   0.083   6.734  0.4458  1.6467  1.1484
 3427SOL    HW211181   5.457   0.127   6.580 -0.8176 -1.1149  0.5617
 3428SOL     OW11182   3.709   5.561   0.966  0.0521 -0.2784 -0.1398
 3428SOL    HW111183   3.628   5.560   1.024 -1.1801  0.6482 -1.7665
 3428SOL    HW211184   3.705   5.640   0.904  2.5054  0.1527  0.1268
 3429SOL     OW11185   1.415   2.555   0.045  0.1350  0.1336  0.3958
 3429SOL    HW111186   1.387   2.486  -0.022 -0.6228  0.1858  0.6613
 3429SOL    HW211187   1.357   2.636   0.038 -0.1789  0.0022  1.3555
 3430SOL     OW11188   1.670   0.568   5.632  0.3782 -0.1202 -0.5481
 3430SOL    HW111189   1.753   0.615   5.604  0.4271  0.9284  1.2440
 3430SOL    HW211190   1.692   0.473   5.657  0.7166 -0.3564 -1.6870
 3431SOL     OW11191   1.044   5.051   5.530 -0.2034  0.1207  0.0344
 3431SOL    HW111192   1.054   5.150   5.526  0.3107  0.1130  1.0073
 3431SOL    HW211193   1.130   5.009   5.560 -1.0317 -0.4513  1.7222
 3432SOL     OW11194   3.755   1.367   6.577  0.0997 -0.1595 -0.0212
 3432SOL    HW111195   3.811   1.382   6.659  1.3033 -2.6778 -0.2971
 3432SOL    HW211196   3.665   1.333   6.603  0.2526 -0.3331  0.2804
 3433SOL     OW11197   4.617   6.745   6.148  0.0108 -0.3930  0.1461
 3433SOL    HW111198   4.671   6.812   6.096  0.0738 -0.3483  0.2695
 3433SOL    HW211199   4.612   6.773   6.244  1.1208 -1.2211  0.4659
 3434SOL     OW11200   4.272   2.873   0.842 -0.2038 -0.5200  0.0167
 3434SOL    HW111201   4.306   2.780   0.855  0.3246 -0.0360  2.7336
 3434SOL    HW211202   4.182   2.870   0.799 -1.7567 -2.5932  3.0407
 3435SOL     OW11203   6.317   4.107   2.130 -0.0120  0.3435  0.4377
 3435SOL    HW111204   6.283   4.134   2.040  0.5583 -0.1976  0.0517
 3435SOL    HW211205   6.290   4.176   2.197 -0.7063  0.5996 -0.0887
 3436SOL     OW11206   6.304   5.947   3.949  0.3659  0.1733 -1.0514
 3436SOL    HW111207   6.243   6.020   3.982  0.9064  0.2362 -0.1690
 3436SOL    HW211208   6.277   5.860   3.990  1.6957  0.4267  0.4518
 3437SOL     OW11209   3.685   5.813   5.895 -0.6616  0.1190 -0.2110
 3437SOL    HW111210   3.759   5.857   5.944 -0.9871 -0.9761  1.3160
 3437SOL    HW211211   3.629   5.759   5.958 -2.5987  0.6674 -1.3497
 3438SOL     OW11212   1.411   2.963   6.813 -0.6871 -0.3456 -0.3144
 3438SOL    HW111213   1.441   3.051   6.848 -4.7701  1.8070 -1.6036
 3438SOL    HW211214   1.369   2.910   6.886 -2.1024  0.7241 -0.3140
 3439SOL     OW11215   0.746   5.233   6.961 -0.0668  0.2755  0.1330
 3439SOL    HW111216   0.748   5.325   6.999  1.5282 -0.3455  1.6909
 3439SOL    HW211217   0.829   5.217   6.907 -0.8618  0.1033 -1.0739
 3440SOL     OW11218   4.246   3.155   1.385 -0.7304  0.0369  0.1462
 3440SOL    HW111219   4.236   3.117   1.294 -1.1712  1.0230 -0.2313
 3440SOL    HW211220   4.309   3.233   1.383 -0.3977 -0.2009  0.7695
 3441SOL     OW11221   4.238   6.930   2.844 -0.1613  0.7034 -0.2044
 3441SOL    HW111222   4.218   6.849   2.899 -1.9271  1.6215  0.5835
 3441SOL    HW211223   4.193   6.921   2.755  2.6824 -0.7753 -1.6260
 3442SOL     OW11224   2.422   6.812   3.961 -0.7486 -0.3768 -0.5292
 3442SOL    HW111225   2.454   6.781   4.050 -1.4679  0.6199  0.1006
 3442SOL    HW211226   2.353   6.884   3.973  1.5832  2.2879 -1.8586
 3443SOL     OW11227   5.009   3.457   2.779 -0.5217 -0.2641  0.2075
 3443SOL    HW111228   4.983   3.508   2.862 -0.8325 -0.5707  0.3002
 3443SOL    HW211229   5.041   3.366   2.806 -1.6994 -0.7759 -0.0924
 3444SOL     OW11230   2.968   4.992   4.215 -0.5335  0.4543  0.0450
 3444SOL    HW111231   2.970   4.929   4.292 -2.3509  1.8878  1.3779
 3444SOL    HW211232   3.007   4.948   4.134  1.2028 -1.1959  1.6740
 3445SOL     OW11233   5.389   4.386   5.584  0.2291  0.5256 -0.3108
 3445SOL    HW111234   5.302   4.408   5.630 -0.0361 -1.0342 -0.0279
 3445SOL    HW211235   5.445   4.330   5.644 -0.3382 -2.0059 -1.9825
 3446SOL     OW11236   5.401   2.127   3.317  0.6488 -0.3110  0.4983
 3446SOL    HW111237   5.315   2.131   3.367  0.1259 -3.1493 -0.0009
 3446SOL    HW211238   5.473   2.092   3.377  0.1846 -3.0177 -0.3832
 3447SOL     OW11239   6.755   6.952   6.984  0.5240 -0.7494 -0.1524
 3447SOL    HW111240   6.770   7.049   7.004 -1.9428  0.4870 -3.3649
 3447SOL    HW211241   6.757   6.900   7.069 -2.0530  2.7345  2.3508
 3448SOL     OW11242   2.238   5.370   5.859  0.0812  0.0399  0.0131
 3448SOL    HW111243   2.240   5.456   5.909 -0.6044  0.2384 -0.2927
 3448SOL    HW211244   2.202   5.298   5.918  0.6633 -0.0486  0.2716
 3449SOL     OW11245   5.425   1.211   0.837  0.3540 -0.0909  0.3714
 3449SOL    HW111246   5.439   1.206   0.738  1.4740 -1.5084  0.5665
 3449SOL    HW211247   5.343   1.159   0.862 -0.3760  0.9099  0.1350
 3450SOL     OW11248   0.474   1.574   0.907 -0.1694 -0.0489  0.7440
 3450SOL    HW111249   0.519   1.502   0.854  0.2547  0.4079  0.4816
 3450SOL    HW211250   0.538   1.649   0.923 -0.9625  0.8179 -0.0277
 3451SOL     OW11251   0.132   5.869   3.818 -0.5694  0.2314 -0.1268
 3451SOL    HW111252   0.114   5.773   3.797 -1.1246  0.0354  1.1636
 3451SOL    HW211253   0.227   5.891   3.798 -0.6686 -0.3338 -1.3066
 3452SOL     OW11254   1.213   2.164   6.027  0.0569  0.2644  0.4907
 3452SOL    HW111255   1.131   2.118   5.994  1.1268 -2.2101  0.9975
 3452SOL    HW211256   1.241   2.234   5.962 -2.5018  1.3134  0.4115
 3453SOL     OW11257   5.193   6.076   4.297 -0.4805 -0.0706  0.1343
 3453SOL    HW111258   5.214   6.093   4.393  0.3702 -0.1245 -0.0365
 3453SOL    HW211259   5.212   6.159   4.243  1.1101 -0.6736 -0.2970
 3454SOL     OW11260   0.721   0.744   0.929  0.0965  0.0423  0.1955
 3454SOL    HW111261   0.660   0.762   0.851 -0.5183 -2.0247  0.1405
 3454SOL    HW211262   0.786   0.820   0.938 -1.1240  1.3145 -1.0455
 3455SOL     OW11263   0.738   3.232   3.631 -0.3848  0.2624  0.2253
 3455SOL    HW111264   0.658   3.204   3.684 -0.6481 -2.0486 -1.2916
 3455SOL    HW211265   0.814   3.169   3.649  1.5689  2.9830  2.4400
 3456SOL     OW11266   6.336   0.298   2.972  0.1340 -0.1587 -0.1659
 3456SOL    HW111267   6.411   0.352   3.010  0.9252 -1.4436  0.1331
 3456SOL    HW211268   6.329   0.315   2.874  0.9915 -0.2337 -0.2436
 3457SOL     OW11269   0.872   3.955   4.556  0.1326  0.6453 -0.0086
 3457SOL    HW111270   0.925   4.035   4.527  0.9497 -0.1431 -0.7170
 3457SOL    HW211271   0.924   3.904   4.624 -1.0632  1.5600  1.6530
 3458SOL     OW11272   5.183   6.032   0.286  0.4293 -0.1795  0.5775
 3458SOL    HW111273   5.276   6.036   0.251 -0.0522 -2.2567 -1.0885
 3458SOL    HW211274   5.163   5.940   0.320 -0.9956  0.2522  0.9834
 3459SOL     OW11275   0.258   4.894   2.412  0.8636  0.3636  0.6120
 3459SOL    HW111276   0.173   4.873   2.459  0.6929 -1.9850 -0.5609
 3459SOL    HW211277   0.260   4.991   2.387 -1.4633  0.4710  0.6386
 3460SOL     OW11278   3.982   3.793   0.505  0.2636  0.2493 -0.4414
 3460SOL    HW111279   4.040   3.874   0.492  1.2076 -0.5643 -1.4129
 3460SOL    HW211280   3.954   3.758   0.416 -0.5297 -0.2333 -0.0092
 3461SOL     OW11281   3.818   5.772   4.410 -0.7398  0.2616  0.0675
 3461SOL    HW111282   3.872   5.855   4.397  0.8580 -0.6522  0.6023
 3461SOL    HW211283   3.860   5.716   4.482 -2.0592 -0.7951  0.0576
 3462SOL     OW11284   0.318   2.549   2.723  0.3115 -0.1360 -0.4329
 3462SOL    HW111285   0.273   2.594   2.801  2.1425 -1.1098  1.3042
 3462SOL    HW211286   0.256   2.482   2.683 -0.1683 -0.7177  1.2101
 3463SOL     OW11287   0.880   4.922   2.790 -0.1860  0.2402 -0.0276
 3463SOL    HW111288   0.977   4.945   2.786  0.1508 -1.0284  0.2424
 3463SOL    HW211289   0.870   4.824   2.808 -1.4965  0.7447  2.4869
 3464SOL     OW11290   5.889   2.572   5.362  0.2077  0.0910 -0.3635
 3464SOL    HW111291   5.952   2.534   5.430 -1.4946  0.1399  1.3367
 3464SOL    HW211292   5.915   2.667   5.343 -0.1142  0.5800  1.4033
 3465SOL     OW11293   1.970   5.052   2.394  0.3183 -0.6701 -0.3797
 3465SOL    HW111294   1.999   5.140   2.433 -3.3361  0.4352  0.1781
 3465SOL    HW211295   2.026   4.979   2.432  0.2337  0.9041  3.0953
 3466SOL     OW11296   5.260   3.015   6.484 -0.4753 -0.4826 -0.1749
 3466SOL    HW111297   5.339   3.023   6.545  0.5713 -2.6927 -1.1378
 3466SOL    HW211298   5.186   2.967   6.531 -0.9052  0.6727  0.3771
 3467SOL     OW11299   3.640   1.350   0.021  0.2080  0.0608 -0.2218
 3467SOL    HW111300   3.645   1.425   0.086 -1.2141  1.0840 -1.2269
 3467SOL    HW211301   3.560   1.293   0.041 -0.1886  0.3304 -0.9895
 3468SOL     OW11302   2.639   6.473   2.179  0.4753 -0.5147  0.3806
 3468SOL    HW111303   2.653   6.571   2.168 -0.4994 -0.5098 -1.2241
 3468SOL    HW211304   2.662   6.446   2.272 -2.7094  1.8973  2.0792
 3469SOL     OW11305   4.252   1.487   4.761 -0.5176  0.1327  0.1249
 3469SOL    HW111306   4.298   1.523   4.842 -0.4636  0.0460  0.1328
 3469SOL    HW211307   4.304   1.514   4.679 -0.5204  0.1389  0.1254
 3470SOL     OW11308   1.140   6.506   1.872 -0.1045 -0.2489  0.3590
 3470SOL    HW111309   1.183   6.428   1.917 -2.5440 -1.9767 -0.1153
 3470SOL    HW211310   1.208   6.579   1.859  1.8687 -1.6303  2.2442
 3471SOL     OW11311   3.681   4.939   2.568  0.1043 -0.5249  0.0101
 3471SOL    HW111312   3.730   4.987   2.495  1.7129 -2.0831 -0.0101
 3471SOL    HW211313   3.598   4.897   2.531  0.5204 -0.6904 -0.7472
 3472SOL     OW11314   3.602   1.515   3.324 -0.9299  0.1065  0.3702
 3472SOL    HW111315   3.619   1.610   3.351 -1.4458  0.3884 -0.2708
 3472SOL    HW211316   3.578   1.511   3.227 -0.8643 -0.6868  0.3770
 3473SOL     OW11317   5.633   3.166   3.993  0.2938  0.0301  0.3411
 3473SOL    HW111318   5.572   3.106   3.942  0.3741  0.6343 -0.4897
 3473SOL    HW211319   5.582   3.245   4.027  0.5550  0.4065 -0.1352
 3474SOL     OW11320   6.779   3.300   4.788 -0.1667 -0.0974  0.1412
 3474SOL    HW111321   6.759   3.393   4.758  1.0096 -0.1444 -0.8656
 3474SOL    HW211322   6.835   3.305   4.872  0.2261  0.1197 -0.1272
 3475SOL     OW11323   0.729   3.975   5.556  0.1932 -0.1212  0.1183
 3475SOL    HW111324   0.760   3.958   5.462 -1.4273 -1.1035 -0.2811
 3475SOL    HW211325   0.686   3.892   5.591  1.7534 -0.1404  2.1695
 3476SOL     OW11326   1.911   0.476   4.567 -0.1131 -0.1311  0.5762
 3476SOL    HW111327   1.902   0.377   4.550 -0.4851  0.1352 -0.9710
 3476SOL    HW211328   2.006   0.498   4.587  0.0258 -0.7683  0.6491
 3477SOL     OW11329   0.252   4.106   1.374  0.4483  0.7616 -0.4855
 3477SOL    HW111330   0.189   4.028   1.366  1.3570 -0.2697  1.6422
 3477SOL    HW211331   0.327   4.095   1.310  0.6780 -0.2459 -0.0611
 3478SOL     OW11332   2.764   0.745   2.253 -0.8879 -0.1705  0.5494
 3478SOL    HW111333   2.682   0.738   2.196  0.3120  1.5952 -1.5254
 3478SOL    HW211334   2.830   0.806   2.210  3.1898 -4.3669  0.0573
 3479SOL     OW11335   0.461   1.633   3.891  0.2123 -0.8942 -0.5116
 3479SOL    HW111336   0.478   1.639   3.990  2.0826  0.2448 -0.8334
 3479SOL    HW211337   0.402   1.709   3.863 -0.1211 -1.0772 -0.3059
 3480SOL     OW11338   1.694   0.507   4.185  0.2007 -0.3934  0.5300
 3480SOL    HW111339   1.620   0.449   4.218  1.4250 -1.2219  1.9702
 3480SOL    HW211340   1.671   0.543   4.094 -2.1330 -0.2252  1.1222
 3481SOL     OW11341   3.739   0.299   0.606 -0.1525  0.3870  0.3153
 3481SOL    HW111342   3.735   0.395   0.635  1.0860 -0.0323  2.0797
 3481SOL    HW211343   3.745   0.294   0.507 -0.0434  2.1503  0.2006
 3482SOL     OW11344   5.967   0.719   3.154 -0.0762 -0.4167  0.5375
 3482SOL    HW111345   5.955   0.659   3.233  0.9739 -1.1933  0.1297
 3482SOL    HW211346   5.937   0.672   3.071  2.4618 -1.1537 -0.0437
 3483SOL     OW11347   5.109   5.005   3.204 -0.3831 -0.0584  0.3532
 3483SOL    HW111348   5.135   4.990   3.299  0.7713 -0.3287  0.0123
 3483SOL    HW211349   5.022   4.959   3.184 -0.6685  0.0673  1.2816
 3484SOL     OW11350   1.745   4.258   6.483 -0.1025  0.5853  0.1036
 3484SOL    HW111351   1.665   4.199   6.476  0.3365  0.0912 -0.9893
 3484SOL    HW211352   1.822   4.217   6.434  0.8745  0.9829  1.2524
 3485SOL     OW11353   0.287   1.479   4.726 -0.6072 -0.0744  0.1537
 3485SOL    HW111354   0.382   1.451   4.720  0.0458  1.9463  0.3261
 3485SOL    HW211355   0.230   1.415   4.674  0.6870 -1.8319  0.7805
 3486SOL     OW11356   2.717   0.256   4.550  0.6544  0.5978  0.1605
 3486SOL    HW111357   2.647   0.231   4.483 -0.0313  0.1679  1.0232
 3486SOL    HW211358   2.774   0.329   4.512  0.2114  0.4462 -0.8455
 3487SOL     OW11359   6.737   3.288   0.421  0.2721  0.1171  0.3398
 3487SOL    HW111360   6.794   3.213   0.455  0.1036 -0.0775  0.1851
 3487SOL    HW211361   6.748   3.296   0.322  0.4535  0.4328  0.3817
 3488SOL     OW11362   5.318   0.422   4.835  0.0003  0.5375 -0.2326
 3488SOL    HW111363   5.231   0.442   4.788  0.1894  0.5808 -0.5685
 3488SOL    HW211364   5.300   0.363   4.913 -0.3439  0.6056 -0.2551
 3489SOL     OW11365   3.123   6.034   1.474  0.4663  0.6898  0.6043
 3489SOL    HW111366   3.055   6.001   1.409 -0.9801  2.6799  1.0056
 3489SOL    HW211367   3.192   5.963   1.490 -0.6863 -0.8475 -0.9452
 3490SOL     OW11368   4.116   5.244   1.592  0.5510 -0.3259  0.7058
 3490SOL    HW111369   4.048   5.194   1.539  3.2062 -0.4336 -3.0253
 3490SOL    HW211370   4.199   5.189   1.600  1.6585  1.3533  1.3256
 3491SOL     OW11371   3.534   5.461   0.002 -0.1337 -0.4235 -0.3957
 3491SOL    HW111372   3.595   5.506   0.067 -0.9916 -2.2081  1.7723
 3491SOL    HW211373   3.566   5.478  -0.091  1.5965  1.5844  0.4833
 3492SOL     OW11374   0.807   2.638   0.588 -0.2697 -0.8671  0.2583
 3492SOL    HW111375   0.782   2.734   0.581  2.1405 -0.2091 -0.0215
 3492SOL    HW211376   0.787   2.604   0.680 -2.1403 -0.4474  0.0405
 3493SOL     OW11377   6.865   5.393   4.199 -0.3130 -0.0779  0.2602
 3493SOL    HW111378   6.843   5.486   4.226  0.3773  0.4413 -0.8818
 3493SOL    HW211379   6.964   5.381   4.198 -0.2963 -0.1418 -1.6724
 3494SOL     OW11380   3.615   0.792   1.592 -0.7431 -0.2960  0.2949
 3494SOL    HW111381   3.711   0.781   1.568 -0.6324  1.9870 -0.4947
 3494SOL    HW211382   3.608   0.844   1.677 -1.2756  0.6744 -0.3304
 3495SOL     OW11383   2.352   5.026   2.879  0.0196  0.4965 -0.0340
 3495SOL    HW111384   2.384   5.112   2.840  0.4157 -0.6072 -2.2909
 3495SOL    HW211385   2.386   4.950   2.824 -3.3451 -0.9258 -0.3784
 3496SOL     OW11386   5.953   5.474   1.432  0.0983  0.0053  0.3198
 3496SOL    HW111387   5.919   5.387   1.466 -1.8096  0.6900  0.3044
 3496SOL    HW211388   5.917   5.490   1.340  0.2705  0.8772  0.3909
 3497SOL     OW11389   2.690   2.448   3.704  0.6688  0.2379 -0.3088
 3497SOL    HW111390   2.712   2.514   3.776  0.2983  0.7390 -0.6535
 3497SOL    HW211391   2.774   2.421   3.658  0.8126  0.5481 -0.2336
 3498SOL     OW11392   2.986   0.451   6.931  0.2185  0.4041 -0.6325
 3498SOL    HW111393   2.887   0.438   6.923  0.1878 -0.0881  0.4188
 3498SOL    HW211394   3.029   0.434   6.843 -0.6369  0.6705 -1.1102
 3499SOL     OW11395   5.414   6.906   6.181  0.1323  0.4210 -0.5994
 3499SOL    HW111396   5.491   6.902   6.245 -0.3679  2.8322  0.2651
 3499SOL    HW211397   5.330   6.929   6.231 -1.1383 -1.7170 -1.5808
 3500SOL     OW11398   1.012   3.348   3.510 -0.0913  0.2606  0.0438
 3500SOL    HW111399   1.075   3.416   3.547 -1.4724  0.1909  2.7540
 3500SOL    HW211400   0.919   3.384   3.512 -0.5547 -0.8438 -0.7404
 3501SOL     OW11401   2.344   6.652   0.067 -0.4649  0.1508  0.4286
 3501SOL    HW111402   2.422   6.713   0.075 -0.8073  0.8209 -1.0984
 3501SOL    HW211403   2.275   6.676   0.136  0.6193 -0.4424  1.7775
 3502SOL     OW11404   1.469   4.522   1.628 -0.7110  0.0823 -0.1777
 3502SOL    HW111405   1.391   4.528   1.691 -0.1865  1.0787  0.3945
 3502SOL    HW211406   1.496   4.426   1.617 -1.0197 -0.1306  0.8425
 3503SOL     OW11407   0.689   0.405   6.750 -0.4486  0.7133  0.4552
 3503SOL    HW111408   0.725   0.496   6.770  0.9305  0.4943 -0.8080
 3503SOL    HW211409   0.728   0.338   6.813 -0.2704  0.7895  0.4261
 3504SOL     OW11410   2.334   0.674   1.064  0.3934 -0.6989  0.3771
 3504SOL    HW111411   2.299   0.754   1.016  1.0162 -0.5330  0.1923
 3504SOL    HW211412   2.354   0.601   0.998 -2.0018 -1.7483  0.7011
 3505SOL     OW11413   4.594   0.861   3.538  0.2373 -0.2321  0.1048
 3505SOL    HW111414   4.544   0.895   3.458 -0.0290  0.0595  0.3889
 3505SOL    HW211415   4.542   0.883   3.621 -0.1227 -1.6519  0.2813
 3506SOL     OW11416   6.850   6.806   3.176  0.4893  0.2763 -0.0077
 3506SOL    HW111417   6.877   6.770   3.266 -1.4366 -0.1108  0.4713
 3506SOL    HW211418   6.773   6.752   3.141  0.9465  0.6943 -1.7089
 3507SOL     OW11419   0.315   6.416   0.715 -0.5010 -0.3028  0.0203
 3507SOL    HW111420   0.314   6.491   0.781  0.3251 -0.2338 -0.0343
 3507SOL    HW211421   0.227   6.369   0.716 -0.4535 -0.3994  1.2761
 3508SOL     OW11422   2.562   2.112   6.372  0.1724 -0.0816 -0.0183
 3508SOL    HW111423   2.508   2.176   6.426 -0.8268 -1.5671  0.8024
 3508SOL    HW211424   2.517   2.023   6.371  1.6393 -0.8476 -0.9418
 3509SOL     OW11425   5.691   0.310   5.918 -0.6038 -0.0638  0.3069
 3509SOL    HW111426   5.593   0.291   5.919 -0.7617  0.5565 -0.8907
 3509SOL    HW211427   5.729   0.281   5.830  0.4271 -0.8865  0.9939
 3510SOL     OW11428   1.101   1.379   1.460  0.0981  0.2696  0.4070
 3510SOL    HW111429   1.067   1.462   1.414 -0.0975  0.3208  0.6437
 3510SOL    HW211430   1.095   1.302   1.396  1.1962  0.6228 -0.1475
 3511SOL     OW11431   1.166   5.636   2.176  0.5196  0.4260  0.0313
 3511SOL    HW111432   1.117   5.718   2.207  1.4135  0.9121  0.1992
 3511SOL    HW211433   1.242   5.618   2.238 -0.2776 -1.1424  0.5890
 3512SOL     OW11434   1.834   5.394   1.168  0.0162  0.0382  0.5100
 3512SOL    HW111435   1.772   5.445   1.227  0.4584 -0.8865  1.8232
 3512SOL    HW211436   1.783   5.324   1.119 -0.0559 -0.5177  1.3545
 3513SOL     OW11437   5.816   2.321   0.183  0.3760  0.8851  0.0622
 3513SOL    HW111438   5.861   2.244   0.228  3.0085  1.4551 -1.4216
 3513SOL    HW211439   5.798   2.298   0.088 -1.8761  0.9756  0.4120
 3514SOL     OW11440   5.005   1.590   0.347 -0.1103  0.0805  0.4357
 3514SOL    HW111441   4.936   1.535   0.395 -2.0832  1.5686 -0.5474
 3514SOL    HW211442   5.007   1.682   0.385  0.4248  0.4297 -0.4138
 3515SOL     OW11443   5.825   6.678   2.637 -0.6368 -0.2729  0.2385
 3515SOL    HW111444   5.830   6.717   2.545 -3.2029 -1.0153 -0.2955
 3515SOL    HW211445   5.764   6.735   2.693  0.2994 -0.2552  1.2602
 3516SOL     OW11446   5.392   6.061   6.200  0.3167 -0.4695  0.0935
 3516SOL    HW111447   5.394   6.158   6.178  1.9646 -0.5542 -0.3059
 3516SOL    HW211448   5.483   6.032   6.231 -0.0121 -1.9759 -0.2597
 3517SOL     OW11449   0.398   1.492   1.456  0.0480 -0.4900 -0.2939
 3517SOL    HW111450   0.315   1.446   1.423 -0.0924 -1.4172  1.2686
 3517SOL    HW211451   0.396   1.588   1.427 -0.7474 -0.9026 -1.6966
 3518SOL     OW11452   3.295   1.886   4.067  0.0432  0.1980  0.3060
 3518SOL    HW111453   3.253   1.896   3.977 -0.6177  0.2211  0.6094
 3518SOL    HW211454   3.378   1.830   4.060  0.0839  0.3326 -0.3361
 3519SOL     OW11455   3.207   1.017   1.342  0.1396 -0.1437  0.6748
 3519SOL    HW111456   3.238   1.098   1.392  2.1488 -1.2141  1.2956
 3519SOL    HW211457   3.268   0.940   1.363 -0.8792 -1.4701 -0.9702
 3520SOL     OW11458   4.341   0.533   6.703  0.4133 -0.6531 -0.1045
 3520SOL    HW111459   4.334   0.509   6.606 -0.1299 -0.7108 -0.0570
 3520SOL    HW211460   4.345   0.633   6.712  0.1541 -0.6355 -0.1711
 3521SOL     OW11461   4.921   4.235   6.672 -0.2588  0.3187 -0.2374
 3521SOL    HW111462   4.936   4.139   6.696  0.9769  0.0770 -1.7936
 3521SOL    HW211463   4.830   4.262   6.702  0.7391 -0.1260  3.7817
 3522SOL     OW11464   0.034   4.584   6.288 -0.8190 -0.3209 -0.3094
 3522SOL    HW111465   0.113   4.573   6.227 -0.8443  1.8385 -0.7945
 3522SOL    HW211466   0.066   4.593   6.382 -0.5015  0.1302 -0.4550
 3523SOL     OW11467   0.377   3.103   5.090  0.0470  0.3525 -0.3091
 3523SOL    HW111468   0.401   3.165   5.015 -1.0491  0.6606 -0.4193
 3523SOL    HW211469   0.419   3.014   5.073  0.9371  0.8035 -0.5831
 3524SOL     OW11470   5.619   2.330   1.929  0.3611  0.6506  0.2661
 3524SOL    HW111471   5.665   2.341   1.841 -0.0183 -0.3631 -0.0757
 3524SOL    HW211472   5.555   2.405   1.943  0.4431  0.8321 -0.3179
 3525SOL     OW11473   1.355   3.700   4.077  0.0503  0.6230 -0.3201
 3525SOL    HW111474   1.357   3.601   4.092 -2.3557  0.8328  2.2558
 3525SOL    HW211475   1.265   3.727   4.045  0.4951  2.0755 -0.4154
 3526SOL     OW11476   4.264   0.674   4.437  0.3896  0.3008 -0.3134
 3526SOL    HW111477   4.296   0.585   4.404  0.3480 -0.4052  1.4239
 3526SOL    HW211478   4.169   0.666   4.466 -0.3436  1.5177 -2.2168
 3527SOL     OW11479   4.851   2.804   5.562 -0.2284 -0.0465 -0.0849
 3527SOL    HW111480   4.764   2.816   5.514 -0.7237  1.0803  1.0386
 3527SOL    HW211481   4.875   2.889   5.608  1.8261 -0.1292 -0.9044
 3528SOL     OW11482   2.116   6.445   5.573 -0.0273 -0.1501 -0.2521
 3528SOL    HW111483   2.081   6.406   5.658 -2.1656 -0.0787 -1.0579
 3528SOL    HW211484   2.165   6.374   5.522 -0.3784 -0.6988  0.1605
 3529SOL     OW11485   2.467   5.699   0.049 -0.1658  0.2631  0.0808
 3529SOL    HW111486   2.450   5.608   0.012  1.7894  0.6918 -2.1052
 3529SOL    HW211487   2.396   5.762   0.018 -0.2434 -0.0455 -0.3684
 3530SOL     OW11488   6.817   0.010   1.367 -0.5658 -0.2446 -0.2695
 3530SOL    HW111489   6.809  -0.062   1.298 -0.7986 -1.1692  0.6991
 3530SOL    HW211490   6.725   0.046   1.387 -0.5414 -0.2534 -0.1460
 3531SOL     OW11491   1.310   2.595   1.759  0.2472  0.0203 -0.5813
 3531SOL    HW111492   1.225   2.617   1.808  0.1634 -0.2961 -0.5782
 3531SOL    HW211493   1.360   2.525   1.810 -0.0958 -0.7011 -1.2022
 3532SOL     OW11494   3.084   0.844   2.804  0.1599 -0.1871 -0.1109
 3532SOL    HW111495   3.152   0.895   2.751  1.2564 -1.5250 -0.0685
 3532SOL    HW211496   2.992   0.867   2.772  0.6534  1.2065 -0.5919
 3533SOL     OW11497   0.893   1.928   3.981  0.4742  0.4383  0.1251
 3533SOL    HW111498   0.972   1.988   3.965  0.5578  0.2756 -0.0792
 3533SOL    HW211499   0.920   1.833   3.963  0.6590  0.2053  1.4852
 3534SOL     OW11500   0.892   1.777   0.626 -0.3549  0.3280 -0.5545
 3534SOL    HW111501   0.812   1.726   0.593 -0.7195  1.1945 -1.0285
 3534SOL    HW211502   0.952   1.714   0.676 -1.5267 -0.2483  0.1841
 3535SOL     OW11503   1.657   5.198   4.755 -0.3208  0.7788 -0.5553
 3535SOL    HW111504   1.677   5.264   4.828  1.5247 -0.4920  0.1511
 3535SOL    HW211505   1.729   5.129   4.751 -2.3919 -1.4886 -0.9888
 3536SOL     OW11506   4.655   2.174   2.593 -0.4286 -0.7749  0.3446
 3536SOL    HW111507   4.707   2.241   2.646  1.0647 -0.3573 -1.5447
 3536SOL    HW211508   4.697   2.084   2.603 -0.0417 -0.6622 -0.2640
 3537SOL     OW11509   0.145   6.104   1.789  0.0191  0.1685 -0.0510
 3537SOL    HW111510   0.222   6.042   1.806 -0.0181  0.4859  1.4146
 3537SOL    HW211511   0.092   6.070   1.711 -0.2571 -1.9472  0.9665
 3538SOL     OW11512   2.805   6.509   6.422 -0.2498 -0.1077 -0.0372
 3538SOL    HW111513   2.799   6.539   6.517 -0.7993 -0.1980 -0.0378
 3538SOL    HW211514   2.901   6.502   6.395 -0.0874 -0.1304  0.5251
 3539SOL     OW11515   3.937   3.133   3.766 -0.2271 -0.2853  0.2145
 3539SOL    HW111516   3.861   3.128   3.701 -2.0539  0.0168  2.2118
 3539SOL    HW211517   3.948   3.044   3.810  2.9151 -1.3817 -2.3965
 3540SOL     OW11518   1.413   2.714   3.514  0.1989  0.2253  0.6725
 3540SOL    HW111519   1.329   2.764   3.535 -0.4430 -0.3975 -0.3343
 3540SOL    HW211520   1.443   2.663   3.594 -0.2824  0.5949  1.0920
 3541SOL     OW11521   3.832   3.159   4.812 -0.0124 -0.2520 -0.4217
 3541SOL    HW111522   3.816   3.060   4.804 -0.8012 -0.3132  1.4332
 3541SOL    HW211523   3.777   3.207   4.744 -0.1571 -1.0528 -0.8881
 3542SOL     OW11524   2.209   4.651   3.826 -0.1787 -0.3351  0.1264
 3542SOL    HW111525   2.276   4.578   3.817  0.2933  0.1463 -0.3435
 3542SOL    HW211526   2.164   4.645   3.916  1.9584  0.5559  1.3289
 3543SOL     OW11527   5.542   3.189   2.987  0.0883 -0.0181  0.1658
 3543SOL    HW111528   5.631   3.235   2.985  0.2856 -0.3999 -2.1965
 3543SOL    HW211529   5.487   3.219   2.910 -2.1582  0.7166  1.9416
 3544SOL     OW11530   1.439   3.526   4.405  0.2151 -0.1004 -0.3169
 3544SOL    HW111531   1.403   3.542   4.313 -1.9350 -2.3131  0.0427
 3544SOL    HW211532   1.402   3.594   4.467  0.2164  0.3028 -0.7497
 3545SOL     OW11533   3.341   6.379   0.371  0.6112 -1.0064 -0.6484
 3545SOL    HW111534   3.295   6.468   0.379  1.3804 -0.6270 -0.2864
 3545SOL    HW211535   3.274   6.309   0.348  0.2867  0.0222 -3.2321
 3546SOL     OW11536   6.884   5.230   4.835  0.2616 -0.0546  0.3648
 3546SOL    HW111537   6.817   5.288   4.788  1.0381 -0.7650 -1.7544
 3546SOL    HW211538   6.848   5.138   4.844  1.0555 -0.5484 -1.1713
 3547SOL     OW11539   6.588   4.028   4.107 -0.0980  0.3003 -0.2285
 3547SOL    HW111540   6.657   4.087   4.066  0.6804 -0.5836 -0.2129
 3547SOL    HW211541   6.630   3.971   4.177 -1.1745  0.9009  0.9434
 3548SOL     OW11542   4.912   1.421   0.004  0.5225 -0.3077 -0.1297
 3548SOL    HW111543   4.817   1.451   0.006  0.7196  0.3030  0.5040
 3548SOL    HW211544   4.957   1.447   0.090  1.2194 -0.7248 -0.3575
 3549SOL     OW11545   5.858   6.542   6.392  0.1826  0.0200  0.2824
 3549SOL    HW111546   5.840   6.484   6.313  0.3272  0.5760 -0.1599
 3549SOL    HW211547   5.805   6.509   6.471 -1.8193  0.8787 -0.6463
 3550SOL     OW11548   5.164   2.987   4.075 -0.4299 -0.4198 -0.0500
 3550SOL    HW111549   5.071   3.017   4.095 -0.6190 -1.0801  0.0760
 3550SOL    HW211550   5.177   2.981   3.976 -0.5418 -0.3871 -0.0663
 3551SOL     OW11551   5.042   0.566   4.920 -0.5944 -0.3113  0.2066
 3551SOL    HW111552   5.062   0.521   5.007  0.4903  0.3280  0.3051
 3551SOL    HW211553   5.056   0.502   4.845  1.0810 -0.1421  0.3340
 3552SOL     OW11554   5.913   6.077   1.074  0.2954 -0.2289 -1.1155
 3552SOL    HW111555   5.944   6.069   1.169  0.8359 -2.3352 -1.4083
 3552SOL    HW211556   5.850   6.154   1.066  2.2465  1.6680  0.3808
 3553SOL     OW11557   5.411   3.950   3.162 -0.0591  0.2442  0.6178
 3553SOL    HW111558   5.370   3.858   3.163 -0.8342  0.5732  0.0199
 3553SOL    HW211559   5.364   4.006   3.094  1.6892  0.5114 -0.4012
 3554SOL     OW11560   5.337   3.597   1.011 -0.0080 -0.3576 -0.5143
 3554SOL    HW111561   5.291   3.593   1.100  1.0159 -0.0790  0.0448
 3554SOL    HW211562   5.330   3.508   0.966 -0.3720 -0.5585 -0.0725
 3555SOL     OW11563   1.398   4.073   1.821  0.6979  0.8514 -0.1878
 3555SOL    HW111564   1.310   4.104   1.855  0.6512  2.1121 -1.3428
 3555SOL    HW211565   1.385   3.996   1.758  0.6138 -0.1723  1.0475
 3556SOL     OW11566   3.680   4.435   6.771 -0.1810  0.0255 -0.0848
 3556SOL    HW111567   3.728   4.438   6.858 -0.9241 -4.9600  0.8116
 3556SOL    HW211568   3.746   4.432   6.696  0.7929 -1.7064  0.7860
 3557SOL     OW11569   0.710   0.832   3.488 -0.2983 -0.1495  0.3431
 3557SOL    HW111570   0.698   0.904   3.557  1.2436 -0.2150  0.7104
 3557SOL    HW211571   0.807   0.809   3.480 -0.4799 -0.4104 -1.6005
 3558SOL     OW11572   0.334   4.508   1.131 -0.0072 -0.4559 -0.2282
 3558SOL    HW111573   0.430   4.481   1.144 -0.3621 -1.8085 -0.3237
 3558SOL    HW211574   0.311   4.580   1.197  0.6892 -1.0756  0.7235
 3559SOL     OW11575   6.393   1.269   5.644 -0.3364  0.5991 -1.2343
 3559SOL    HW111576   6.423   1.364   5.649  1.6976 -0.0128 -0.5680
 3559SOL    HW211577   6.331   1.250   5.720  1.2130  0.8087  0.1529
 3560SOL     OW11578   1.834   0.751   6.953  0.3885  0.4883  0.0880
 3560SOL    HW111579   1.842   0.728   6.855  2.0792  2.2875 -0.2596
 3560SOL    HW211580   1.775   0.830   6.964 -0.9199 -0.5353  0.7098
 3561SOL     OW11581   5.852   5.749   0.485  0.0543 -0.1400  0.4438
 3561SOL    HW111582   5.925   5.804   0.525  0.0343  1.0937 -1.1207
 3561SOL    HW211583   5.827   5.676   0.549  1.0903  0.7631  1.9569
 3562SOL     OW11584   3.144   0.775   5.001  0.0342 -0.0384 -0.8301
 3562SOL    HW111585   3.125   0.680   5.028 -0.1295  0.0055 -0.7909
 3562SOL    HW211586   3.190   0.822   5.076  3.0221 -0.9733 -1.9417
 3563SOL     OW11587   6.452   1.687   1.336  0.0328 -0.0261  0.1165
 3563SOL    HW111588   6.411   1.688   1.244  0.8367  0.2367 -0.2506
 3563SOL    HW211589   6.441   1.776   1.378  1.5447  0.5276 -0.5979
 3564SOL     OW11590   0.937   2.912   3.412  0.4341 -0.5777 -0.3756
 3564SOL    HW111591   0.862   2.871   3.360  0.6821  0.4646 -1.6027
 3564SOL    HW211592   0.980   2.984   3.358  2.1161 -0.9183  0.4462
 3565SOL     OW11593   2.940   5.566   5.849 -0.2108 -0.2286  0.1389
 3565SOL    HW111594   3.016   5.512   5.811 -1.7827 -1.7880 -1.0012
 3565SOL    HW211595   2.949   5.661   5.820  1.3693 -0.3507  0.1527
 3566SOL     OW11596   6.463   2.990   6.170 -0.0552 -0.1591 -0.4273
 3566SOL    HW111597   6.477   3.085   6.140 -0.7240  1.0596  2.6803
 3566SOL    HW211598   6.382   2.953   6.125  0.1038  0.7952 -1.5639
 3567SOL     OW11599   2.274   2.496   2.966 -0.5675 -0.2745 -0.7925
 3567SOL    HW111600   2.195   2.452   2.921  0.6000 -1.0803 -2.1371
 3567SOL    HW211601   2.251   2.515   3.061 -2.6149  0.1090 -1.3148
 3568SOL     OW11602   5.652   5.323   3.000 -0.4263 -0.1130  0.2071
 3568SOL    HW111603   5.736   5.305   3.051 -0.8909  0.3114  1.1431
 3568SOL    HW211604   5.675   5.347   2.905  0.4814 -0.3439  0.3646
 3569SOL     OW11605   3.616   2.883   4.439 -0.1122  0.2859  0.5058
 3569SOL    HW111606   3.522   2.905   4.415  0.0794  0.7394  0.1606
 3569SOL    HW211607   3.652   2.953   4.501 -0.4288 -0.5930  1.7127
 3570SOL     OW11608   6.283   1.435   6.104 -0.2669 -0.4997 -0.0606
 3570SOL    HW111609   6.358   1.479   6.154 -0.1707  0.5568 -1.1099
 3570SOL    HW211610   6.207   1.418   6.167  0.1628  0.0403  0.6198
 3571SOL     OW11611   2.503   0.388   5.253  0.3074  0.3731  0.1820
 3571SOL    HW111612   2.572   0.380   5.181 -0.3774 -0.4822 -0.4050
 3571SOL    HW211613   2.548   0.408   5.340  1.1825  1.0454 -0.4006
 3572SOL     OW11614   5.874   4.176   3.724  0.5378  0.2488 -0.4811
 3572SOL    HW111615   5.881   4.081   3.756  1.2301  0.5906  0.4341
 3572SOL    HW211616   5.820   4.228   3.790  0.1230  0.4890 -1.0046
 3573SOL     OW11617   6.643   3.333   1.695 -0.0126  0.3566 -0.0824
 3573SOL    HW111618   6.574   3.371   1.757 -1.1848 -0.0865 -1.0632
 3573SOL    HW211619   6.730   3.325   1.743 -0.1775  2.5219  0.7128
 3574SOL     OW11620   1.474   3.219   6.924 -0.1134  0.5386 -0.3775
 3574SOL    HW111621   1.433   3.297   6.877  0.7865  0.9153 -0.5696
 3574SOL    HW211622   1.561   3.247   6.964  1.9796 -1.1609 -3.3452
 3575SOL     OW11623   6.036   5.214   0.555  0.3323 -0.2303 -0.1590
 3575SOL    HW111624   6.126   5.179   0.581  1.2765  0.0530 -2.7894
 3575SOL    HW211625   6.046   5.302   0.508 -1.5651  0.9948  1.5294
 3576SOL     OW11626   6.947   2.929   6.250 -0.0792 -0.3066 -0.6100
 3576SOL    HW111627   6.862   2.885   6.222  0.4146 -1.2527 -0.6748
 3576SOL    HW211628   6.994   2.871   6.317 -0.2466  0.9605  0.6457
 3577SOL     OW11629   0.977   2.595   5.544  0.5944 -0.0453  0.3853
 3577SOL    HW111630   1.033   2.513   5.550  0.1981 -0.4069 -0.6192
 3577SOL    HW211631   1.022   2.662   5.484 -0.1985 -0.4952 -0.7545
 3578SOL     OW11632   3.357   4.610   1.737 -0.4522 -0.3731 -0.0524
 3578SOL    HW111633   3.457   4.609   1.738 -0.4199 -1.5828  2.8154
 3578SOL    HW211634   3.323   4.516   1.733 -1.5403  0.0494 -1.7210
 3579SOL     OW11635   1.762   3.894   0.081 -0.2244  0.9815 -0.1364
 3579SOL    HW111636   1.809   3.980   0.062 -0.1030  0.5648 -1.9803
 3579SOL    HW211637   1.822   3.817   0.061 -1.2153  0.4602 -1.3225
 3580SOL     OW11638   0.235   2.898   0.919  0.1084 -0.1912 -0.7905
 3580SOL    HW111639   0.168   2.829   0.892  0.1789 -0.7673  0.4214
 3580SOL    HW211640   0.215   2.928   1.013  0.9679  0.3287 -0.7676
 3581SOL     OW11641   1.145   6.715   3.229  0.4752  0.4391 -0.1890
 3581SOL    HW111642   1.144   6.771   3.312  0.4672  0.7662 -0.4042
 3581SOL    HW211643   1.208   6.756   3.162  0.6381  0.0656 -0.2675
 3582SOL     OW11644   2.520   4.823   6.719 -0.8797  0.3728  0.2292
 3582SOL    HW111645   2.508   4.918   6.689  0.0877  1.0673  1.9232
 3582SOL    HW211646   2.610   4.790   6.691 -1.0302  0.1047  0.0525
 3583SOL     OW11647   0.887   4.150   2.078 -0.1676  0.1800 -1.1430
 3583SOL    HW111648   0.914   4.094   2.156 -0.7001  1.6551  0.1582
 3583SOL    HW211649   0.830   4.226   2.110 -0.7991  0.5501 -3.0449
 3584SOL     OW11650   6.403   4.293   6.865  0.3696  0.6997  0.4288
 3584SOL    HW111651   6.306   4.306   6.842 -0.0251 -0.2674  1.4612
 3584SOL    HW211652   6.444   4.227   6.802  0.6550  1.8565 -0.6521
 3585SOL     OW11653   1.624   2.870   3.393 -0.0280 -0.1025 -0.0617
 3585SOL    HW111654   1.717   2.837   3.376  0.1165 -0.4255  1.2206
 3585SOL    HW211655   1.585   2.821   3.472 -1.6122 -0.5824 -1.0894
 3586SOL     OW11656   5.795   2.675   4.665  0.0116 -0.0603  0.6187
 3586SOL    HW111657   5.835   2.619   4.737  0.2150 -0.6465  0.0636
 3586SOL    HW211658   5.857   2.677   4.586 -0.7403 -0.3999  0.0135
 3587SOL     OW11659   3.688   6.582   5.259  0.3189  0.1081 -0.3202
 3587SOL    HW111660   3.737   6.587   5.172  0.0826 -1.4223 -0.5729
 3587SOL    HW211661   3.605   6.528   5.247  0.3579 -0.2568  0.8856
 3588SOL     OW11662   5.783   3.728   2.791 -0.4900 -0.0492 -0.2935
 3588SOL    HW111663   5.858   3.792   2.805 -0.7342 -0.0542  1.1456
 3588SOL    HW211664   5.722   3.729   2.870 -1.1825 -1.1523 -0.7821
 3589SOL     OW11665   0.415   5.981   5.923 -0.4012 -0.4005  0.2714
 3589SOL    HW111666   0.405   5.886   5.953  1.0963 -1.3365 -1.9278
 3589SOL    HW211667   0.404   5.986   5.824  1.7174  1.3379  0.0470
 3590SOL     OW11668   2.130   4.658   2.331 -0.0865 -0.3648  0.6887
 3590SOL    HW111669   2.062   4.715   2.377  1.2931 -0.6007  3.2078
 3590SOL    HW211670   2.213   4.711   2.316 -0.4223 -0.3772 -1.3791
 3591SOL     OW11671   6.994   1.499   5.595  0.0100  0.0901  0.3117
 3591SOL    HW111672   6.932   1.560   5.643  1.1989  0.3159  1.6283
 3591SOL    HW211673   7.050   1.449   5.662  3.0723  1.8060 -0.7436
 3592SOL     OW11674   2.023   0.188   6.862 -0.1721 -0.2434 -0.2487
 3592SOL    HW111675   2.112   0.145   6.849 -0.3091 -0.5145 -0.2900
 3592SOL    HW211676   1.951   0.119   6.855 -0.3191 -0.2152  0.8472
 3593SOL     OW11677   0.310   3.985   6.005  0.1263  0.6051 -0.0260
 3593SOL    HW111678   0.287   4.072   6.050 -2.1897 -0.7331  1.6015
 3593SOL    HW211679   0.251   3.973   5.925 -2.2437 -0.9775  1.8093
 3594SOL     OW11680   5.027   6.180   6.367  0.1327 -0.3852 -0.0131
 3594SOL    HW111681   5.101   6.133   6.415  2.6110  2.3459 -0.8919
 3594SOL    HW211682   5.026   6.151   6.272  1.0775  0.5967 -0.3422
 3595SOL     OW11683   6.324   4.784   6.123  0.0085  0.1429  0.2125
 3595SOL    HW111684   6.410   4.810   6.079 -1.3774 -0.3147 -3.0449
 3595SOL    HW211685   6.302   4.689   6.101 -2.3703  0.8955 -1.0084
 3596SOL     OW11686   5.078   4.700   4.686 -0.0769  0.1901  0.6184
 3596SOL    HW111687   4.996   4.645   4.702  0.5293 -0.8016  0.4159
 3596SOL    HW211688   5.055   4.777   4.626 -0.7794 -0.3043  0.2260
 3597SOL     OW11689   1.429   4.406   6.296  0.3665  0.6428 -0.0198
 3597SOL    HW111690   1.395   4.434   6.206  2.3188  0.0093 -1.0212
 3597SOL    HW211691   1.352   4.388   6.357 -1.0199  0.7429 -1.6641
 3598SOL     OW11692   2.153   6.690   5.867 -0.5755  0.2415  0.2111
 3598SOL    HW111693   2.228   6.625   5.878 -0.9506 -0.1309  0.6234
 3598SOL    HW211694   2.189   6.783   5.872  0.3087  0.1327 -2.6641
 3599SOL     OW11695   2.512   0.500   6.636  0.2608 -0.0544 -0.1906
 3599SOL    HW111696   2.566   0.571   6.681  0.2691 -0.6161  0.7089
 3599SOL    HW211697   2.431   0.481   6.691  0.3863 -0.9106 -0.2943
 3600SOL     OW11698   2.274   4.237   1.459 -0.1840  0.0324 -0.4764
 3600SOL    HW111699   2.304   4.331   1.444  0.6932  0.1965  1.8792
 3600SOL    HW211700   2.332   4.194   1.528 -1.9069 -1.5299  0.0875
 3601SOL     OW11701   5.548   6.581   5.504 -0.0781  1.1529 -0.3500
 3601SOL    HW111702   5.549   6.681   5.513 -0.2009  1.0434  1.2900
 3601SOL    HW211703   5.455   6.548   5.521  0.1826  0.6940  0.2191
 3602SOL     OW11704   2.206   1.627   1.402 -0.1570 -0.5529  0.3772
 3602SOL    HW111705   2.169   1.636   1.309  0.8926 -1.5422 -0.1710
 3602SOL    HW211706   2.200   1.715   1.449 -2.4888 -0.4996  0.0799
 3603SOL     OW11707   4.528   1.954   5.769  0.6079  0.0678  0.0449
 3603SOL    HW111708   4.464   1.898   5.716  2.2163 -1.5462 -0.2761
 3603SOL    HW211709   4.486   2.043   5.789 -1.2847 -0.5197 -1.0921
 3604SOL     OW11710   0.282   0.845   4.467 -0.2418 -0.4823 -0.1155
 3604SOL    HW111711   0.272   0.746   4.466 -0.6477 -0.4924  1.7186
 3604SOL    HW211712   0.199   0.887   4.503  1.0712  0.2987  2.2298
 3605SOL     OW11713   1.450   5.817   3.443  0.4465  0.0628 -0.1899
 3605SOL    HW111714   1.480   5.840   3.350  0.6483  1.4098  0.1832
 3605SOL    HW211715   1.354   5.842   3.454 -0.0473 -1.5745 -0.4989
 3606SOL     OW11716   1.600   5.977   0.148  0.3547  0.3213 -0.3979
 3606SOL    HW111717   1.631   6.064   0.112 -1.1545  1.7050  1.4029
 3606SOL    HW211718   1.638   5.962   0.239 -2.1455  0.9222  0.8492
 3607SOL     OW11719   6.714   3.457   2.549  0.4384  0.3863  0.5834
 3607SOL    HW111720   6.740   3.360   2.544 -1.7549 -0.3935  2.2378
 3607SOL    HW211721   6.776   3.505   2.611  1.1432 -0.0961  0.2710
 3608SOL     OW11722   4.450   1.903   3.567 -0.2767  0.5935  0.2085
 3608SOL    HW111723   4.465   1.857   3.655 -0.5244  0.2914  0.0933
 3608SOL    HW211724   4.356   1.887   3.537  0.0446  0.0299 -0.5111
 3609SOL     OW11725   2.511   0.229   4.338  0.1026  0.1158  0.2734
 3609SOL    HW111726   2.543   0.317   4.303  0.3065 -0.3641 -0.7867
 3609SOL    HW211727   2.455   0.184   4.269  2.2330 -1.8041 -0.3022
 3610SOL     OW11728   1.903   1.213   6.334 -0.5911 -0.1554 -0.3315
 3610SOL    HW111729   1.956   1.189   6.415 -0.0216  0.7611 -0.4308
 3610SOL    HW211730   1.892   1.312   6.329 -1.7639 -0.2882 -0.6614
 3611SOL     OW11731   5.338   4.132   4.128  0.2028 -0.3160 -0.6976
 3611SOL    HW111732   5.424   4.130   4.077 -0.1101 -1.5017 -1.2024
 3611SOL    HW211733   5.315   4.227   4.150  3.9425 -0.0275  3.4765
 3612SOL     OW11734   0.661   1.370   5.851  0.6909  0.1415 -0.1200
 3612SOL    HW111735   0.601   1.297   5.883  1.2315 -0.6287 -0.8030
 3612SOL    HW211736   0.735   1.384   5.917  0.4687  0.2093  0.1126
 3613SOL     OW11737   2.862   5.353   0.232  0.2779  0.1026 -0.0851
 3613SOL    HW111738   2.863   5.269   0.178 -1.6675 -0.1257  0.1804
 3613SOL    HW211739   2.790   5.414   0.198 -0.5209  0.2610  1.7754
 3614SOL     OW11740   4.865   4.384   4.799  0.3147 -0.1793 -0.6183
 3614SOL    HW111741   4.840   4.289   4.817 -0.5562  0.0776 -0.4358
 3614SOL    HW211742   4.878   4.432   4.886  2.5395 -0.5678 -0.6909
 3615SOL     OW11743   3.945   3.910   3.519 -0.8696  0.2126 -0.4167
 3615SOL    HW111744   3.860   3.948   3.481 -0.1327  2.1846 -0.2264
 3615SOL    HW211745   3.961   3.948   3.610  0.9234  1.0374 -1.0317
 3616SOL     OW11746   1.258   5.436   6.484  0.2821  0.0970 -0.3863
 3616SOL    HW111747   1.252   5.342   6.451 -0.2865  0.0289 -0.0959
 3616SOL    HW211748   1.250   5.437   6.583 -0.7156  0.5289 -0.4585
 3617SOL     OW11749   4.291   5.576   4.999  0.2730 -0.4262 -0.1724
 3617SOL    HW111750   4.314   5.531   5.085  1.2834 -0.0257 -0.2163
 3617SOL    HW211751   4.257   5.668   5.018 -1.8266 -1.1654 -0.0800
 3618SOL     OW11752   1.477   4.803   5.090  0.6608 -0.2692 -0.1028
 3618SOL    HW111753   1.566   4.758   5.102  0.4889 -1.5046 -2.7126
 3618SOL    HW211754   1.485   4.874   5.020 -0.7004 -1.6380 -1.7613
 3619SOL     OW11755   4.483   3.333   0.742  0.0166  0.0624  0.3258
 3619SOL    HW111756   4.561   3.320   0.804  0.1589  0.2426  0.1876
 3619SOL    HW211757   4.446   3.244   0.716 -0.2679 -0.0020  0.9482
 3620SOL     OW11758   5.244   6.521   6.175 -0.2176 -0.9991 -0.1210
 3620SOL    HW111759   5.290   6.590   6.119 -0.9677 -0.0484  0.4062
 3620SOL    HW211760   5.151   6.551   6.197  0.1917 -1.1105  1.9940
 3621SOL     OW11761   2.970   3.501   3.855  0.1987 -0.1783  0.4141
 3621SOL    HW111762   3.009   3.434   3.791  0.3316  0.0132  0.2948
 3621SOL    HW211763   2.929   3.452   3.932 -1.0151 -0.4768 -0.3953
 3622SOL     OW11764   2.268   0.999   2.874 -0.2598 -0.8236 -0.3354
 3622SOL    HW111765   2.305   1.092   2.867 -1.3980 -0.3539 -0.2894
 3622SOL    HW211766   2.310   0.952   2.951 -0.8463  0.2287  0.6609
 3623SOL     OW11767   1.834   6.506   6.770  0.3289 -0.6462  1.2473
 3623SOL    HW111768   1.860   6.411   6.786  3.8141 -0.4983 -2.0884
 3623SOL    HW211769   1.911   6.566   6.790 -0.6432  1.0929  0.0799
 3624SOL     OW11770   1.671   6.264   2.018 -0.5550  0.6969 -0.2233
 3624SOL    HW111771   1.623   6.351   2.024 -0.9371  0.3752  2.6925
 3624SOL    HW211772   1.610   6.190   2.045  0.5986 -0.1104  0.2514
 3625SOL     OW11773   7.007   2.011   6.755 -0.6453  0.1002 -0.3651
 3625SOL    HW111774   7.082   1.956   6.791 -0.2596 -0.6176 -2.1781
 3625SOL    HW211775   7.039   2.106   6.742  0.1289 -0.2996 -1.5623
 3626SOL     OW11776   0.175   0.939   4.210 -0.2810  0.3446 -0.3274
 3626SOL    HW111777   0.236   0.884   4.151 -0.5840  1.3069 -1.5813
 3626SOL    HW211778   0.219   0.954   4.298  0.0183 -1.4897 -0.1273
 3627SOL     OW11779   3.529   2.848   2.201  0.0254  0.2206  0.2293
 3627SOL    HW111780   3.605   2.891   2.250  0.9245  1.3379 -1.9970
 3627SOL    HW211781   3.563   2.772   2.146 -0.8873 -0.7790  1.0213
 3628SOL     OW11782   1.665   0.303   3.335 -0.0121 -0.8583  0.0607
 3628SOL    HW111783   1.717   0.255   3.405  0.2072  0.0636  0.5525
 3628SOL    HW211784   1.626   0.237   3.271 -0.7920 -1.7667  1.4349
 3629SOL     OW11785   2.227   0.907   3.993 -0.2089  0.0686 -0.3194
 3629SOL    HW111786   2.255   0.988   4.044 -0.6117 -0.7968  1.3394
 3629SOL    HW211787   2.177   0.844   4.054  0.4186 -1.5946 -1.4503
 3630SOL     OW11788   6.462   1.659   2.349  0.1475 -0.3091  0.0265
 3630SOL    HW111789   6.383   1.702   2.391  0.5398  1.0636 -0.5699
 3630SOL    HW211790   6.545   1.686   2.398  0.4039 -0.3805 -0.3615
 3631SOL     OW11791   2.801   6.843   3.518  0.3526  0.0440 -0.4018
 3631SOL    HW111792   2.897   6.872   3.510  0.2564  0.2892 -0.6722
 3631SOL    HW211793   2.796   6.744   3.510  0.4145  0.1550 -2.0889
 3632SOL     OW11794   3.793   3.798   1.166 -0.4776 -0.0197 -0.3092
 3632SOL    HW111795   3.826   3.819   1.074 -2.4510 -0.9085 -1.2649
 3632SOL    HW211796   3.775   3.883   1.215 -0.0450  0.4634 -0.9686
 3633SOL     OW11797   3.267   3.839   5.260  0.4211  0.1587 -0.1697
 3633SOL    HW111798   3.184   3.849   5.205  0.5681 -0.7528 -0.5818
 3633SOL    HW211799   3.257   3.890   5.345 -0.3255  0.5380 -0.4753
 3634SOL     OW11800   2.236   1.440   0.126 -0.5792 -0.0712  0.3809
 3634SOL    HW111801   2.187   1.461   0.211  0.2535  0.3293  0.7735
 3634SOL    HW211802   2.205   1.501   0.053 -0.6317  0.2007  0.6314
 3635SOL     OW11803   3.136   1.251   4.171  0.2300 -0.0160  0.0061
 3635SOL    HW111804   3.060   1.187   4.168  0.3360 -0.1274 -1.4717
 3635SOL    HW211805   3.132   1.310   4.090  0.8225  1.0274  0.7190
 3636SOL     OW11806   5.789   5.277   5.861 -0.8345 -0.0215 -0.5989
 3636SOL    HW111807   5.826   5.207   5.923 -1.1797  0.1936 -0.1437
 3636SOL    HW211808   5.851   5.356   5.860  0.3533 -0.9147 -2.2822
 3637SOL     OW11809   6.756   2.650   2.489 -0.4133 -0.4816  0.6950
 3637SOL    HW111810   6.740   2.746   2.469 -1.0674 -0.7598 -0.1327
 3637SOL    HW211811   6.839   2.619   2.442 -1.2190 -0.7893 -0.5700
 3638SOL     OW11812   6.756   5.086   2.547  0.1591 -0.4491  0.0511
 3638SOL    HW111813   6.783   5.103   2.642  1.9109 -0.9486 -0.3071
 3638SOL    HW211814   6.817   5.137   2.486 -1.5738  0.6600 -0.8070
 3639SOL     OW11815   3.402   3.872   4.573 -0.6344 -0.1163 -0.2563
 3639SOL    HW111816   3.335   3.848   4.643 -0.5061 -0.6602 -0.3150
 3639SOL    HW211817   3.401   3.971   4.559 -0.4735  0.0282  0.6956
 3640SOL     OW11818   5.577   3.554   0.628  0.3900  0.3670  0.2004
 3640SOL    HW111819   5.605   3.647   0.651 -2.5155  1.4835 -0.3597
 3640SOL    HW211820   5.578   3.497   0.710  0.4335  1.3974  0.9282
 3641SOL     OW11821   6.677   2.565   1.701 -0.2654 -0.2147  0.1115
 3641SOL    HW111822   6.680   2.576   1.602  0.2894  0.1250  0.1604
 3641SOL    HW211823   6.741   2.494   1.729  0.3107  0.3684  0.3092
 3642SOL     OW11824   3.979   4.273   0.436 -0.4429  0.1379  0.3107
 3642SOL    HW111825   3.940   4.189   0.474 -2.3126  0.4490 -0.7664
 3642SOL    HW211826   4.078   4.274   0.450 -0.3171 -2.4244  0.0065
 3643SOL     OW11827   3.209   4.807   6.255  0.0579  0.6820 -0.0221
 3643SOL    HW111828   3.198   4.887   6.195 -0.2928  0.3736 -0.3725
 3643SOL    HW211829   3.192   4.724   6.202  2.5102  0.2301 -0.2265
 3644SOL     OW11830   2.190   6.814   0.251 -0.1931 -0.3591  0.5304
 3644SOL    HW111831   2.136   6.745   0.203 -0.9609  0.0951  0.7183
 3644SOL    HW211832   2.141   6.843   0.333  0.4028 -0.0313  0.7762
 3645SOL     OW11833   0.550   2.610   4.182  0.2574  0.4234  0.0353
 3645SOL    HW111834   0.626   2.552   4.212 -1.5741 -1.8552  0.5687
 3645SOL    HW211835   0.579   2.706   4.183  3.0612 -0.3244  0.2895
 3646SOL     OW11836   1.745   5.382   3.599  0.1389 -0.0487 -0.0876
 3646SOL    HW111837   1.806   5.316   3.643 -2.4736 -0.9771  2.4372
 3646SOL    HW211838   1.777   5.399   3.506  4.1728 -0.4313  1.0268
 3647SOL     OW11839   2.537   1.473   0.770  0.0170  0.3032 -0.4507
 3647SOL    HW111840   2.462   1.437   0.713 -1.0052  0.5212  0.7111
 3647SOL    HW211841   2.534   1.573   0.769 -1.6770  0.3539  2.0100
 3648SOL     OW11842   4.904   5.633   2.657 -0.2165  0.6981 -0.3258
 3648SOL    HW111843   4.917   5.590   2.567 -0.9418 -1.7759  0.6449
 3648SOL    HW211844   4.992   5.645   2.701 -0.0232 -1.1772 -0.1002
 3649SOL     OW11845   4.269   2.490   0.366  0.1121 -0.3351  0.0324
 3649SOL    HW111846   4.272   2.543   0.451  0.4369 -0.8478  0.3461
 3649SOL    HW211847   4.315   2.542   0.294 -1.0161  0.5359 -0.0954
 3650SOL     OW11848   5.639   4.794   0.016  0.6018 -0.3715 -0.6609
 3650SOL    HW111849   5.698   4.757  -0.056 -1.2392  0.4480 -2.7092
 3650SOL    HW211850   5.576   4.723   0.047  0.6958 -0.4341 -0.6114
 3651SOL     OW11851   6.865   2.792   6.739  0.0052  0.2802  0.0168
 3651SOL    HW111852   6.847   2.745   6.826  1.6247  0.2596  0.3575
 3651SOL    HW211853   6.932   2.740   6.686 -1.1052  0.1764 -1.3819
 3652SOL     OW11854   4.918   0.009   0.036 -0.3111 -0.4771 -0.7033
 3652SOL    HW111855   4.843   0.074   0.046  0.3801  0.5813 -1.9637
 3652SOL    HW211856   5.002   0.059   0.014  0.9729 -1.5540  1.4719
 3653SOL     OW11857   2.035   6.513   4.031  0.4828 -0.5515  0.6121
 3653SOL    HW111858   2.001   6.443   3.969 -0.4282  0.8248 -0.4992
 3653SOL    HW211859   2.132   6.497   4.049  0.7760 -0.9917 -1.1965
 3654SOL     OW11860   4.717   6.164   0.851  0.3430  0.7140  0.2674
 3654SOL    HW111861   4.804   6.204   0.881  1.0133  0.1044 -0.7822
 3654SOL    HW211862   4.663   6.138   0.930  1.2420  0.8411  0.9395
 3655SOL     OW11863   1.229   1.630   4.793 -0.2589  0.1188  0.0567
 3655SOL    HW111864   1.163   1.696   4.758 -0.4196 -0.3264 -0.5027
 3655SOL    HW211865   1.321   1.654   4.762 -0.5165 -0.8141 -1.5460
 3656SOL     OW11866   6.260   6.951   2.054  0.3371 -0.4261 -0.0919
 3656SOL    HW111867   6.218   6.892   1.986 -1.0129 -0.4200  0.7010
 3656SOL    HW211868   6.197   7.025   2.078  1.6907  0.9182 -0.5068
 3657SOL     OW11869   6.014   6.647   3.736  0.4551 -0.0622  0.2506
 3657SOL    HW111870   6.074   6.719   3.772 -1.1666  1.4155  0.1528
 3657SOL    HW211871   5.937   6.634   3.799 -0.4806 -0.0642 -0.8618
 3658SOL     OW11872   6.087   4.562   6.191  0.0888 -0.3296 -0.2091
 3658SOL    HW111873   6.106   4.605   6.102  0.9982  0.3788  0.3165
 3658SOL    HW211874   6.155   4.491   6.209 -0.9052 -1.4334 -0.6820
 3659SOL     OW11875   5.861   3.912   6.702 -0.0814  0.2045 -0.2511
 3659SOL    HW111876   5.941   3.953   6.744  0.9033 -2.4196  0.6302
 3659SOL    HW211877   5.811   3.858   6.770 -1.1035 -0.3596 -1.3982
 3660SOL     OW11878   6.135   6.450   5.561 -0.0434  0.1917  0.1845
 3660SOL    HW111879   6.204   6.517   5.588  0.6026 -0.3684 -0.0706
 3660SOL    HW211880   6.167   6.358   5.581 -0.8976 -0.0559  0.4569
 3661SOL     OW11881   5.444   6.397   5.117  0.1516 -1.3443  0.3560
 3661SOL    HW111882   5.397   6.375   5.032  0.3798 -0.3984 -0.0218
 3661SOL    HW211883   5.399   6.349   5.193 -1.1928 -0.7648 -0.0388
 3662SOL     OW11884   2.835   1.005   5.656 -0.3061  0.1738 -0.0870
 3662SOL    HW111885   2.930   0.974   5.658 -0.6453 -0.8816  1.5844
 3662SOL    HW211886   2.777   0.931   5.621 -0.5791  0.6449 -0.6399
 3663SOL     OW11887   1.195   3.735   0.703  0.0194  0.1272  0.2692
 3663SOL    HW111888   1.201   3.637   0.686 -1.6990 -0.2152  1.3516
 3663SOL    HW211889   1.285   3.771   0.725  0.3257 -1.8148  2.6700
 3664SOL     OW11890   4.695   1.083   0.302  0.4370 -0.3866 -0.0080
 3664SOL    HW111891   4.696   1.021   0.381 -2.7823  0.1796  0.6210
 3664SOL    HW211892   4.640   1.043   0.229  1.2643  0.2325 -1.0007
 3665SOL     OW11893   1.334   0.889   5.107  0.9602 -0.0790 -0.2859
 3665SOL    HW111894   1.241   0.921   5.088  0.5127 -1.6501 -0.9351
 3665SOL    HW211895   1.362   0.826   5.035  1.5307 -1.6316  1.2239
 3666SOL     OW11896   1.332   0.944   3.231  0.0429  0.4587 -0.4516
 3666SOL    HW111897   1.313   1.040   3.250  1.5401  0.5307  0.8017
 3666SOL    HW211898   1.430   0.931   3.217  0.0298 -1.0774  0.6342
 3667SOL     OW11899   1.532   0.389   2.035  0.6251 -1.2195  0.5189
 3667SOL    HW111900   1.563   0.453   2.105  0.4308 -1.2276  0.6125
 3667SOL    HW211901   1.452   0.339   2.068 -0.3065 -0.2592 -0.2009
 3668SOL     OW11902   0.822   6.888   3.325 -0.2404  0.1567 -0.2122
 3668SOL    HW111903   0.862   6.969   3.368  0.4162 -0.3339  0.1222
 3668SOL    HW211904   0.807   6.817   3.394  0.1708 -0.3867 -0.6715
 3669SOL     OW11905   0.524   1.716   4.644  0.4908 -0.2166 -0.3012
 3669SOL    HW111906   0.453   1.660   4.600 -0.2375 -0.0253  0.6024
 3669SOL    HW211907   0.599   1.657   4.674  1.2037 -0.3127 -2.1168
 3670SOL     OW11908   3.055   5.205   2.517  0.1147 -0.0006  0.2134
 3670SOL    HW111909   3.083   5.282   2.459 -0.4880  0.9954  1.2021
 3670SOL    HW211910   2.964   5.223   2.554 -0.2158 -1.4066  0.1187
 3671SOL     OW11911   0.206   2.001   1.623  0.0739 -0.7357 -0.0998
 3671SOL    HW111912   0.295   2.020   1.583  0.8282 -1.4028  1.1908
 3671SOL    HW211913   0.199   1.903   1.642 -0.3809 -0.4812  1.0876
 3672SOL     OW11914   6.034   6.055   0.836  0.9276  0.2576 -0.1698
 3672SOL    HW111915   5.993   6.068   0.926  2.9991 -0.3709  0.9377
 3672SOL    HW211916   6.097   6.131   0.817  1.7955 -0.4803 -0.3106
 3673SOL     OW11917   4.233   6.944   0.708 -0.1681  0.5682  0.1592
 3673SOL    HW111918   4.317   6.892   0.724 -0.8833 -0.1507  1.8661
 3673SOL    HW211919   4.243   7.036   0.748  0.0563  0.7287 -0.2657
 3674SOL     OW11920   0.716   5.992   6.000 -0.1442 -0.0742  0.1353
 3674SOL    HW111921   0.640   5.928   5.989 -0.7452  0.7581 -0.7246
 3674SOL    HW211922   0.683   6.086   5.988  1.1274  0.2705 -0.9462
 3675SOL     OW11923   6.027   1.699   5.311  0.0436  0.2995 -0.3017
 3675SOL    HW111924   6.024   1.758   5.231  0.9735  1.2863  0.3595
 3675SOL    HW211925   5.964   1.732   5.381  0.0544  0.1048 -0.1975
 3676SOL     OW11926   5.406   4.425   2.500  0.2354  0.1607  0.1730
 3676SOL    HW111927   5.482   4.429   2.565 -0.5779 -0.8299  1.2515
 3676SOL    HW211928   5.337   4.493   2.525  0.8582  1.2495 -0.9690
 3677SOL     OW11929   4.205   0.073   4.059  0.0159  0.2093  0.6395
 3677SOL    HW111930   4.186   0.149   3.997  0.7787  1.6399  2.0797
 3677SOL    HW211931   4.262   0.005   4.012 -0.7243  0.4792 -0.6933
 3678SOL     OW11932   1.978   1.232   3.425 -0.0008  0.1276  0.3488
 3678SOL    HW111933   1.988   1.157   3.360 -3.5401  0.9341 -1.3617
 3678SOL    HW211934   1.994   1.319   3.378  0.1016  0.6312  1.2820
 3679SOL     OW11935   3.754   6.521   1.814  0.1041 -0.1586  0.0264
 3679SOL    HW111936   3.748   6.488   1.909  1.3068 -2.0758 -0.5131
 3679SOL    HW211937   3.850   6.520   1.785 -0.2980  0.0105 -1.3528
 3680SOL     OW11938   4.979   6.190   4.920 -0.1180 -0.3157  0.0190
 3680SOL    HW111939   5.051   6.136   4.875 -0.6121 -1.3925  0.4760
 3680SOL    HW211940   5.022   6.255   4.983  0.4827 -0.5859 -0.0955
 3681SOL     OW11941   2.053   0.467   5.683 -0.2234  0.1473  0.2995
 3681SOL    HW111942   2.041   0.484   5.781  0.6003  1.0950  0.2474
 3681SOL    HW211943   2.008   0.539   5.631 -0.1192 -0.0108 -0.0108
 3682SOL     OW11944   6.670   2.056   6.422  0.0942  0.1175  0.0762
 3682SOL    HW111945   6.743   2.022   6.481  0.6630 -1.0163 -1.2215
 3682SOL    HW211946   6.592   2.085   6.478  0.3293 -1.5780  1.3467
 3683SOL     OW11947   5.353   0.416   3.877 -0.7713 -0.4061  0.2203
 3683SOL    HW111948   5.286   0.417   3.803  0.6141 -0.2153 -1.0688
 3683SOL    HW211949   5.316   0.468   3.955 -0.1658  4.4494 -2.3140
 3684SOL     OW11950   1.982   6.839   5.510 -0.8215  0.4711  0.4703
 3684SOL    HW111951   1.952   6.796   5.595  2.2917  1.2951  2.1495
 3684SOL    HW211952   1.920   6.913   5.486 -1.8807  0.0743  1.8960
 3685SOL     OW11953   2.098   5.350   4.224 -0.0371 -0.1016 -0.1580
 3685SOL    HW111954   2.146   5.291   4.159 -0.6801  0.4357 -1.1562
 3685SOL    HW211955   2.025   5.299   4.269 -0.4061 -0.1591 -0.8032
 3686SOL     OW11956   0.550   2.269   2.078 -0.1882 -0.0450  0.5898
 3686SOL    HW111957   0.469   2.248   2.024  0.3669 -1.2735  0.1771
 3686SOL    HW211958   0.577   2.364   2.064 -0.8177  0.0164 -0.2598
 3687SOL     OW11959   6.076   6.184   3.442  0.2481 -0.2897 -0.2798
 3687SOL    HW111960   6.062   6.271   3.393 -1.8549  0.1288  0.9391
 3687SOL    HW211961   6.163   6.144   3.414 -0.0922  0.6971 -3.1613
 3688SOL     OW11962   3.061   1.835   3.143 -0.0707 -0.4786  0.4983
 3688SOL    HW111963   3.116   1.912   3.110 -0.6125 -0.3964 -0.2120
 3688SOL    HW211964   3.104   1.749   3.114  1.8219 -0.5876  3.2025
 3689SOL     OW11965   6.923   0.183   3.820 -0.2086  0.0900  0.0252
 3689SOL    HW111966   6.868   0.103   3.795 -0.9485  0.9891 -1.4179
 3689SOL    HW211967   6.899   0.212   3.913 -1.8667  0.1519 -0.3789
 3690SOL     OW11968   3.978   3.727   0.250  0.0697 -0.0135  0.4618
 3690SOL    HW111969   4.050   3.707   0.184 -0.6699  1.8495 -1.0085
 3690SOL    HW211970   3.894   3.679   0.223 -0.4115  1.2391 -0.4103
 3691SOL     OW11971   3.098   1.902   0.598 -0.4309 -0.0468  0.4181
 3691SOL    HW111972   3.063   1.980   0.547 -0.6451 -1.3571 -1.5708
 3691SOL    HW211973   3.027   1.867   0.659 -0.2212  1.4556  1.5896
 3692SOL     OW11974   1.155   2.667   0.280  0.0720 -0.2477 -0.2845
 3692SOL    HW111975   1.134   2.763   0.294 -2.1298 -0.7679  0.4990
 3692SOL    HW211976   1.097   2.611   0.341 -0.1289 -2.1236 -2.0792
 3693SOL     OW11977   6.925   3.607   2.685  0.3015 -0.0188  0.2512
 3693SOL    HW111978   7.003   3.583   2.627  1.1310  0.0053  1.3318
 3693SOL    HW211979   6.917   3.706   2.691  0.6739 -0.0197  0.7765
 3694SOL     OW11980   1.656   5.781   3.206  0.4803 -0.6151 -0.2296
 3694SOL    HW111981   1.614   5.812   3.121 -0.8893 -1.5566  0.0683
 3694SOL    HW211982   1.745   5.738   3.186  1.0470  0.8247 -0.9444
 3695SOL     OW11983   6.317   1.402   3.008  0.2428 -0.0902 -0.5250
 3695SOL    HW111984   6.357   1.326   2.956  1.6979  0.6622 -0.5223
 3695SOL    HW211985   6.365   1.413   3.095 -1.4796 -0.6330  0.5482
 3696SOL     OW11986   2.744   2.086   3.675 -0.1368 -0.3824 -0.1092
 3696SOL    HW111987   2.753   2.169   3.730 -1.7270 -0.5856  0.4952
 3696SOL    HW211988   2.712   2.110   3.584 -1.2096 -0.3592  0.2580
 3697SOL     OW11989   5.330   0.081   4.413  0.5817  0.1208  0.0779
 3697SOL    HW111990   5.357   0.177   4.413  0.8084  0.0706 -0.9874
 3697SOL    HW211991   5.384   0.031   4.480 -0.3467  0.9329  1.4848
 3698SOL     OW11992   2.768   0.955   4.838  0.2247  0.7384 -0.1611
 3698SOL    HW111993   2.776   1.008   4.922  0.4521 -0.1758  0.4044
 3698SOL    HW211994   2.685   0.899   4.841 -0.7788  2.0845 -1.3654
 3699SOL     OW11995   0.423   2.284   3.597 -0.2423  0.6259 -0.4026
 3699SOL    HW111996   0.368   2.303   3.678  1.8377 -0.6255  1.4515
 3699SOL    HW211997   0.483   2.361   3.579 -0.7718  0.9430 -0.8159
 3700SOL     OW11998   1.204   2.782   6.417 -0.6056 -0.2341 -0.4543
 3700SOL    HW111999   1.130   2.849   6.409 -0.3063  0.0839 -0.5935
 3700SOL    HW212000   1.280   2.810   6.359  1.8233  2.3301  3.5414
 3701SOL     OW12001   3.390   6.080   3.295 -0.3684  0.3775 -0.0061
 3701SOL    HW112002   3.417   6.000   3.350  0.2927 -0.0973 -0.9724
 3701SOL    HW212003   3.472   6.118   3.251 -1.1865 -1.1326 -3.0959
 3702SOL     OW12004   5.638   3.876   3.910  0.2324 -0.2536 -0.2243
 3702SOL    HW112005   5.565   3.833   3.858 -0.0392  0.0232 -0.0757
 3702SOL    HW212006   5.659   3.821   3.990 -0.0298 -0.1734 -0.0994
 3703SOL     OW12007   1.085   1.010   5.006 -0.1636  0.7756 -0.5341
 3703SOL    HW112008   1.069   0.921   4.965 -1.3252  0.8857 -0.3653
 3703SOL    HW212009   1.093   1.079   4.934  0.8481  0.5397 -0.6691
 3704SOL     OW12010   5.426   1.966   6.366 -0.1536  0.0223 -0.2749
 3704SOL    HW112011   5.449   1.873   6.339  0.3961  0.0266  0.1609
 3704SOL    HW212012   5.339   1.967   6.414 -0.9207 -0.0506 -1.6089
 3705SOL     OW12013   2.213   5.279   5.615 -0.2455  0.1503 -0.0817
 3705SOL    HW112014   2.262   5.323   5.541 -0.4308 -0.4134 -0.5473
 3705SOL    HW212015   2.214   5.338   5.696  1.6189 -0.0573  0.0779
 3706SOL     OW12016   6.260   3.411   6.632 -0.0772 -0.1852  0.3662
 3706SOL    HW112017   6.226   3.396   6.725  0.1441  1.2874  0.7148
 3706SOL    HW212018   6.267   3.510   6.615  0.0647 -0.4378 -1.1536
 3707SOL     OW12019   1.861   6.044   2.832 -0.3706 -0.4631 -0.5406
 3707SOL    HW112020   1.812   6.038   2.746 -1.1127  0.8382 -0.2315
 3707SOL    HW212021   1.796   6.054   2.907  0.3314  0.2978 -0.0179
 3708SOL     OW12022   1.922   6.158   0.488 -0.7316 -0.5644 -0.0142
 3708SOL    HW112023   2.010   6.202   0.472 -0.3093 -2.2130 -2.8252
 3708SOL    HW212024   1.856   6.227   0.519  1.0172  1.0934  0.2022
 3709SOL     OW12025   3.556   6.713   3.863  0.3767 -0.3770 -0.3486
 3709SOL    HW112026   3.513   6.661   3.937  0.7383 -1.0924 -0.6297
 3709SOL    HW212027   3.607   6.651   3.804  0.3089  0.2227 -1.0557
 3710SOL     OW12028   1.471   6.694   4.305  0.3635  0.2533 -0.3845
 3710SOL    HW112029   1.489   6.597   4.320 -1.1891 -0.5030 -2.7564
 3710SOL    HW212030   1.387   6.720   4.352 -0.4878 -0.2154 -1.5741
 3711SOL     OW12031   2.701   5.575   4.472 -0.2609  0.3005 -0.3646
 3711SOL    HW112032   2.709   5.606   4.377 -1.5553 -1.0004 -0.9397
 3711SOL    HW212033   2.691   5.655   4.532  1.7746  1.2146 -1.1381
 3712SOL     OW12034   1.099   4.828   4.323  0.0234  1.0232  0.4788
 3712SOL    HW112035   1.026   4.794   4.383  0.2856  0.3352  0.4180
 3712SOL    HW212036   1.074   4.919   4.289  0.3222  1.8899  2.4268
 3713SOL     OW12037   0.921   6.792   4.600 -0.0210 -0.3235  0.1695
 3713SOL    HW112038   0.929   6.764   4.696  2.0991 -2.3677 -0.5043
 3713SOL    HW212039   0.968   6.726   4.542 -1.4230  0.7419 -2.3478
 3714SOL     OW12040   1.259   4.502   6.974 -0.3535  0.4468  0.2614
 3714SOL    HW112041   1.311   4.438   6.917 -3.4937 -1.1087 -1.0869
 3714SOL    HW212042   1.230   4.580   6.919 -0.6633  0.5737  0.5977
 3715SOL     OW12043   6.796   4.980   2.812 -0.2019 -0.0774  0.1425
 3715SOL    HW112044   6.711   4.988   2.864 -0.1959  0.8239  0.0394
 3715SOL    HW212045   6.825   4.885   2.809 -0.1600 -0.1486  1.8489
 3716SOL     OW12046   5.052   4.122   3.869 -0.9944  0.3880  0.2505
 3716SOL    HW112047   5.109   4.048   3.906 -0.0828  0.0646 -1.6709
 3716SOL    HW212048   5.097   4.209   3.886 -0.8099  0.2835  0.3049
 3717SOL     OW12049   4.940   0.619   0.960  0.5994 -0.5608 -0.1971
 3717SOL    HW112050   4.897   0.607   0.871  0.2609  0.7003 -0.2191
 3717SOL    HW212051   4.916   0.542   1.019  1.1351 -1.6095 -1.2922
 3718SOL     OW12052   0.286   0.639   4.242  0.0550  0.1123  0.1583
 3718SOL    HW112053   0.214   0.588   4.195 -0.2484  0.3132  0.3977
 3718SOL    HW212054   0.342   0.687   4.175 -1.4884  1.9014  0.0453
 3719SOL     OW12055   6.578   2.773   6.819 -0.1551  0.1666 -0.0120
 3719SOL    HW112056   6.550   2.867   6.835 -0.1504  0.0109  1.0113
 3719SOL    HW212057   6.672   2.771   6.785  0.1793  0.4990  0.8686
 3720SOL     OW12058   6.272   3.411   2.848  0.4613  0.2421 -0.2322
 3720SOL    HW112059   6.181   3.401   2.807  0.3817  1.1705 -0.2949
 3720SOL    HW212060   6.342   3.391   2.780  0.3174 -0.8466 -0.0873
 3721SOL     OW12061   5.764   2.891   0.122  0.0702  0.6111  0.3788
 3721SOL    HW112062   5.841   2.849   0.073 -0.4074 -0.1001  0.2259
 3721SOL    HW212063   5.696   2.822   0.143 -0.1258  1.0748  1.3127
 3722SOL     OW12064   3.634   0.642   2.370  0.1472 -0.1821  0.5188
 3722SOL    HW112065   3.656   0.545   2.384 -1.1513 -0.5210  0.3735
 3722SOL    HW212066   3.668   0.671   2.280 -0.5148 -0.8596  0.0323
 3723SOL     OW12067   5.602   5.075   4.442 -0.1055  0.4183 -0.9144
 3723SOL    HW112068   5.617   4.983   4.478  2.4045 -0.0190 -2.8159
 3723SOL    HW212069   5.596   5.140   4.518  0.9487 -0.9483  0.3999
 3724SOL     OW12070   6.944   3.976   3.426  0.1040  0.5514  0.1506
 3724SOL    HW112071   6.943   3.985   3.326  0.6429 -0.1640  0.0707
 3724SOL    HW212072   6.952   3.880   3.450 -0.1740  0.7110  0.8945
 3725SOL     OW12073   0.755   1.515   1.788  0.2859  0.3118 -0.1776
 3725SOL    HW112074   0.770   1.526   1.886 -0.8520 -0.7300  0.1205
 3725SOL    HW212075   0.682   1.576   1.758 -1.6036 -1.6502  0.2648
 3726SOL     OW12076   5.481   4.770   3.240 -0.3791 -0.0554 -0.4711
 3726SOL    HW112077   5.443   4.843   3.184  0.7802 -0.1579 -1.4448
 3726SOL    HW212078   5.551   4.808   3.301  0.2248 -0.3308 -0.9789
 3727SOL     OW12079   6.258   3.762   0.210  0.5698  0.0809 -0.3287
 3727SOL    HW112080   6.269   3.711   0.125 -1.5873  2.3957 -2.1539
 3727SOL    HW212081   6.294   3.855   0.198 -1.1973  0.9484  0.7089
 3728SOL     OW12082   4.208   3.495   0.586  0.4994 -0.2789  0.1011
 3728SOL    HW112083   4.233   3.401   0.611  0.6829  0.4775  3.1920
 3728SOL    HW212084   4.127   3.523   0.637  1.7825  1.9752  1.0442
 3729SOL     OW12085   0.860   1.348   6.056 -0.0903 -0.3844  0.4400
 3729SOL    HW112086   0.924   1.271   6.052 -0.9039 -1.0606 -3.6719
 3729SOL    HW212087   0.907   1.432   6.028 -0.7533 -0.7647 -1.9600
 3730SOL     OW12088   3.075   5.820   6.219 -0.0511 -0.2694  0.1168
 3730SOL    HW112089   3.093   5.903   6.166  0.9194 -0.5460 -0.0079
 3730SOL    HW212090   3.090   5.740   6.161 -0.7606 -0.5461  0.3017
 3731SOL     OW12091   0.508   1.348   6.436 -0.1712  0.1853  0.0977
 3731SOL    HW112092   0.524   1.251   6.455  0.1024  0.1301 -0.3978
 3731SOL    HW212093   0.454   1.388   6.511 -1.7507 -0.7393 -0.4901
 3732SOL     OW12094   1.469   1.728   0.228  0.4280  0.2339  0.4985
 3732SOL    HW112095   1.421   1.813   0.204  0.0768  0.4411  1.8183
 3732SOL    HW212096   1.449   1.658   0.160 -1.5914  0.3829  0.8739
 3733SOL     OW12097   1.430   1.139   2.924 -0.0861  0.3190 -0.0494
 3733SOL    HW112098   1.438   1.194   3.007 -0.7796  0.6086 -0.1743
 3733SOL    HW212099   1.418   1.199   2.845  2.0921  0.1464 -0.5950
 3734SOL     OW12100   5.911   1.229   0.852 -0.1261  0.1449  0.1269
 3734SOL    HW112101   5.921   1.328   0.861  0.8191 -0.0779  2.3072
 3734SOL    HW212102   5.912   1.204   0.755  0.3695  2.1886 -0.4540
 3735SOL     OW12103   3.369   5.320   2.000 -0.2849  0.2561 -0.4867
 3735SOL    HW112104   3.295   5.282   2.055 -1.6565  2.6003 -0.5548
 3735SOL    HW212105   3.335   5.342   1.908  0.4415  1.4379 -0.5067
 3736SOL     OW12106   6.909   1.092   0.036  0.0682 -0.3514 -0.2855
 3736SOL    HW112107   6.998   1.070   0.077 -0.4049 -1.3943  0.2164
 3736SOL    HW212108   6.919   1.102  -0.063  1.1304  1.6684 -0.0141
 3737SOL     OW12109   2.497   1.626   2.838  0.1718 -0.0254 -0.1510
 3737SOL    HW112110   2.452   1.672   2.914  1.1821  0.7580  0.0019
 3737SOL    HW212111   2.504   1.689   2.760 -0.0065 -0.5031 -0.5585
 3738SOL     OW12112   5.159   5.021   0.432  0.4290 -0.6695  0.0638
 3738SOL    HW112113   5.208   5.050   0.349 -0.3178 -0.3344 -0.2748
 3738SOL    HW212114   5.182   4.926   0.453  1.8167 -0.2922  0.3623
 3739SOL     OW12115   5.287   6.876   0.406 -0.7208  0.0314 -0.1929
 3739SOL    HW112116   5.362   6.942   0.412 -2.2877  1.8909 -0.5916
 3739SOL    HW212117   5.326   6.783   0.409  1.4856  0.9024  0.9234
 3740SOL     OW12118   4.186   0.509   5.900 -0.0225 -0.0735  0.1299
 3740SOL    HW112119   4.089   0.533   5.902 -0.3385 -1.2708 -0.1332
 3740SOL    HW212120   4.239   0.581   5.945 -1.2034 -0.2424  1.8708
 3741SOL     OW12121   4.715   2.131   5.229 -0.3518 -0.2478 -0.4703
 3741SOL    HW112122   4.652   2.071   5.278 -1.9365  0.4382 -1.5493
 3741SOL    HW212123   4.711   2.223   5.268 -2.1592  0.4856 -2.1745
 3742SOL     OW12124   5.186   5.441   6.813  0.7021 -0.1362  0.7234
 3742SOL    HW112125   5.230   5.352   6.804  1.0682 -0.0322  1.3939
 3742SOL    HW212126   5.151   5.470   6.724 -0.1005 -1.2949  0.6379
 3743SOL     OW12127   4.942   4.098   1.633  0.4533  0.1613  0.2158
 3743SOL    HW112128   4.894   4.169   1.582 -1.2178 -1.0003  0.0790
 3743SOL    HW212129   4.882   4.062   1.705  1.6575 -0.3603  1.0038
 3744SOL     OW12130   1.010   5.487   1.802  0.3885  0.0447  0.2684
 3744SOL    HW112131   1.053   5.445   1.883  0.2093  0.3107  0.5028
 3744SOL    HW212132   1.081   5.514   1.737  0.4900 -1.0185 -0.0858
 3745SOL     OW12133   4.712   4.334   2.370  0.4006 -0.1061  0.5233
 3745SOL    HW112134   4.691   4.248   2.322 -1.1514  0.4039  0.2231
 3745SOL    HW212135   4.650   4.405   2.338 -0.1735  0.4583  2.7485
 3746SOL     OW12136   7.006   0.484   3.937  0.0390 -0.3747  0.4668
 3746SOL    HW112137   6.962   0.488   3.847  1.8779  0.4799 -0.4377
 3746SOL    HW212138   7.084   0.546   3.939  0.7499 -1.2577  2.2685
 3747SOL     OW12139   5.985   6.479   5.323 -0.0175 -0.1738 -0.3667
 3747SOL    HW112140   6.030   6.468   5.412 -0.5662 -0.7946 -0.1553
 3747SOL    HW212141   5.944   6.392   5.296  0.2978 -0.0344 -1.3170
 3748SOL     OW12142   5.247   0.477   2.344  0.6630  0.2218  0.4660
 3748SOL    HW112143   5.151   0.460   2.321  1.0741 -1.4397 -0.1394
 3748SOL    HW212144   5.257   0.480   2.444 -0.6418  4.5572  0.6820
 3749SOL     OW12145   0.645   6.785   2.021  0.3004  0.3936  0.3132
 3749SOL    HW112146   0.559   6.794   2.072  0.1162 -0.7878  0.2597
 3749SOL    HW212147   0.705   6.862   2.042  0.7678 -0.6582  3.3933
 3750SOL     OW12148   6.951   3.133   1.416  0.0682 -0.3727 -0.1841
 3750SOL    HW112149   6.946   3.054   1.477  1.1091 -1.0577 -0.9626
 3750SOL    HW212150   6.916   3.108   1.326  1.0792 -0.1735 -0.6439
 3751SOL     OW12151   1.682   4.330   1.352  0.3519 -0.4911  0.2009
 3751SOL    HW112152   1.754   4.400   1.353 -0.1863  0.2459 -2.6313
 3751SOL    HW212153   1.724   4.240   1.341  0.8940 -0.1525 -0.6023
 3752SOL     OW12154   0.891   1.069   4.751 -0.1332 -0.0568 -0.0738
 3752SOL    HW112155   0.935   1.150   4.791 -1.3660  0.3884  0.4175
 3752SOL    HW212156   0.946   1.037   4.673  1.8675 -0.4387  1.4106
 3753SOL     OW12157   1.294   0.512   4.448  0.3572  0.3037 -0.5814
 3753SOL    HW112158   1.196   0.526   4.458  0.6368  1.2653  1.3376
 3753SOL    HW212159   1.333   0.484   4.536  1.8550  0.1717 -1.2419
 3754SOL     OW12160   0.186   5.536   0.527  0.1380 -0.0037  0.5956
 3754SOL    HW112161   0.168   5.523   0.624 -0.8322 -0.8638  0.3268
 3754SOL    HW212162   0.100   5.557   0.480  0.7534  1.4151  0.0640
 3755SOL     OW12163   5.194   4.919   3.444 -0.0524 -0.0500 -0.1129
 3755SOL    HW112164   5.247   4.835   3.459  1.1235  0.2208 -2.2178
 3755SOL    HW212165   5.149   4.946   3.529  0.3227 -2.2577  0.8724
 3756SOL     OW12166   1.487   0.806   6.680  0.5498  0.3695 -0.1279
 3756SOL    HW112167   1.563   0.852   6.725  1.1001 -1.2163  0.6540
 3756SOL    HW212168   1.417   0.783   6.748  0.1801  0.2715 -0.5358
 3757SOL     OW12169   2.539   5.205   0.256  0.1567  0.3017  0.0564
 3757SOL    HW112170   2.578   5.199   0.348  0.4304  0.5310 -0.0414
 3757SOL    HW212171   2.557   5.296   0.219  1.7409 -0.3872 -0.9637
 3758SOL     OW12172   2.724   0.752   4.137  1.0857  0.0104 -0.6695
 3758SOL    HW112173   2.692   0.657   4.130  0.3299  0.2579 -0.7551
 3758SOL    HW212174   2.654   0.813   4.099  2.0270  0.5255 -1.6439
 3759SOL     OW12175   4.511   3.907   5.494  0.1569 -0.5148 -1.0023
 3759SOL    HW112176   4.466   3.884   5.580 -2.3580 -1.1739 -2.3797
 3759SOL    HW212177   4.487   4.000   5.467  1.3764 -0.1140 -0.7660
 3760SOL     OW12178   0.250   4.877   3.777 -0.3911 -0.1053 -0.3591
 3760SOL    HW112179   0.269   4.836   3.688 -0.6803  1.6457 -1.2849
 3760SOL    HW212180   0.159   4.920   3.775  0.1252  1.0900  0.3224
 3761SOL     OW12181   0.475   6.357   4.436  0.2301 -0.2388  0.2975
 3761SOL    HW112182   0.543   6.429   4.453 -0.6789  0.7854 -0.2581
 3761SOL    HW212183   0.407   6.391   4.371  0.5933 -2.1286 -1.1370
 3762SOL     OW12184   0.079   4.621   0.607 -0.1528 -0.0225 -0.1146
 3762SOL    HW112185   0.076   4.529   0.568 -2.1328  0.0357 -0.1578
 3762SOL    HW212186   0.057   4.688   0.536  0.2733  0.4171  0.1586
 3763SOL     OW12187   4.935   2.252   6.512  0.2385 -0.1112 -0.3514
 3763SOL    HW112188   4.996   2.307   6.568  0.2118 -0.4353 -0.0066
 3763SOL    HW212189   4.884   2.189   6.569  1.3478 -1.5547 -0.8835
 3764SOL     OW12190   5.520   0.706   2.518  0.5130 -0.4873 -0.3212
 3764SOL    HW112191   5.581   0.658   2.455  1.3730 -0.4438  0.4552
 3764SOL    HW212192   5.456   0.640   2.559 -1.4183 -0.2116 -2.7009
 3765SOL     OW12193   4.757   2.495   3.031 -0.2463 -0.2360 -0.3312
 3765SOL    HW112194   4.717   2.459   3.115 -1.7429 -0.5564 -1.1477
 3765SOL    HW212195   4.720   2.586   3.012  1.9482  0.9339  0.6128
 3766SOL     OW12196   6.778   1.945   4.665  0.5721 -0.1803  0.1847
 3766SOL    HW112197   6.836   1.877   4.619 -1.4437 -1.3125 -0.8187
 3766SOL    HW212198   6.688   1.905   4.683 -0.7871  2.2709 -0.6367
 3767SOL     OW12199   1.048   4.713   6.294 -0.3628 -0.5717 -0.3706
 3767SOL    HW112200   1.108   4.675   6.224  1.4250  0.2953  0.6292
 3767SOL    HW212201   0.953   4.709   6.262  0.4214  0.3936 -3.1107
 3768SOL     OW12202   4.126   5.686   5.568 -0.8030 -0.1119  0.6666
 3768SOL    HW112203   4.056   5.699   5.638 -0.1918 -1.9543  1.6963
 3768SOL    HW212204   4.152   5.774   5.529 -1.7534  0.8692  2.1636
 3769SOL     OW12205   6.850   5.625   3.861  0.0312 -0.1116 -0.4806
 3769SOL    HW112206   6.927   5.597   3.803  1.5591  0.1479  1.3061
 3769SOL    HW212207   6.814   5.713   3.829  0.0632 -0.5303 -1.7089
 3770SOL     OW12208   2.810   1.467   0.104 -0.1631  0.4634  0.2058
 3770SOL    HW112209   2.753   1.548   0.120  0.4399  0.8423  0.4586
 3770SOL    HW212210   2.814   1.448   0.006 -2.3778 -0.7755  0.2835
 3771SOL     OW12211   3.341   2.653   0.735  0.5642  0.5402 -0.0217
 3771SOL    HW112212   3.364   2.558   0.755  2.2164  0.6976 -1.0622
 3771SOL    HW212213   3.375   2.711   0.809 -0.1246  0.3860  0.4328
 3772SOL     OW12214   5.869   0.940   2.161  0.1256 -0.2542  0.4409
 3772SOL    HW112215   5.840   0.877   2.233 -2.4970 -0.8005 -0.9860
 3772SOL    HW212216   5.912   1.020   2.203 -2.5957  0.1255  2.8091
 3773SOL     OW12217   5.289   3.796   6.593  0.2852  0.0361 -0.4645
 3773SOL    HW112218   5.257   3.889   6.578 -1.2299 -0.1746  1.0922
 3773SOL    HW212219   5.240   3.733   6.532  0.7141  0.1535 -0.9366
 3774SOL     OW12220   1.280   0.380   6.172 -0.0803 -0.4662  0.3128
 3774SOL    HW112221   1.258   0.417   6.262 -2.0164  1.6801 -0.9215
 3774SOL    HW212222   1.369   0.415   6.143 -1.0869  1.9703 -0.0774
 3775SOL     OW12223   5.486   5.303   4.331 -0.0388  0.1966 -0.2106
 3775SOL    HW112224   5.548   5.227   4.352 -0.7172 -0.3552 -0.1537
 3775SOL    HW212225   5.529   5.389   4.359 -0.9884 -0.4537  4.0497
 3776SOL     OW12226   1.560   0.672   3.040 -0.7310  0.6190 -0.1377
 3776SOL    HW112227   1.546   0.640   2.946  0.7126  1.0539 -0.5249
 3776SOL    HW212228   1.545   0.771   3.045  0.5403  0.8314 -0.2295
 3777SOL     OW12229   3.804   5.140   3.808  0.3409  0.1372  0.6484
 3777SOL    HW112230   3.720   5.172   3.852 -0.5027 -0.0162 -0.7704
 3777SOL    HW212231   3.818   5.043   3.829 -0.1379  0.0238  0.4567
 3778SOL     OW12232   0.681   5.669   2.688 -0.2427 -0.5131  0.4936
 3778SOL    HW112233   0.765   5.714   2.658 -1.8108  1.1429 -1.7614
 3778SOL    HW212234   0.680   5.575   2.654 -0.0667  0.0130 -1.0280
 3779SOL     OW12235   3.696   3.588   0.227  0.1400 -0.1038 -0.1873
 3779SOL    HW112236   3.643   3.642   0.161  0.6479  0.1204 -0.4186
 3779SOL    HW212237   3.635   3.553   0.298 -0.2767  0.3655 -0.3063
 3780SOL     OW12238   3.885   4.334   5.652 -0.4283 -0.0862  0.3501
 3780SOL    HW112239   3.884   4.257   5.716 -0.1216 -0.0568  0.3890
 3780SOL    HW212240   3.790   4.358   5.629 -0.5339 -0.2873  0.5603
 3781SOL     OW12241   3.202   5.125   5.398  0.0817 -0.3305  0.0160
 3781SOL    HW112242   3.174   5.114   5.302  0.1209 -0.2816 -0.0012
 3781SOL    HW212243   3.218   5.035   5.439  0.6961 -0.3282 -0.2111
 3782SOL     OW12244   3.777   1.807   5.398 -0.0438 -0.6623 -0.1283
 3782SOL    HW112245   3.747   1.885   5.343  0.6514 -1.1719 -1.2614
 3782SOL    HW212246   3.745   1.818   5.492 -0.0180  0.9520 -0.2881
 3783SOL     OW12247   6.439   5.017   3.769 -0.2873 -0.0423  0.4692
 3783SOL    HW112248   6.533   5.019   3.802 -0.2713  1.5094  0.3670
 3783SOL    HW212249   6.378   5.056   3.838 -0.5106  1.3387 -0.4711
 3784SOL     OW12250   5.567   1.162   1.347 -0.5138  0.0316  0.7545
 3784SOL    HW112251   5.573   1.160   1.247  0.5680 -0.6749  0.8197
 3784SOL    HW212252   5.535   1.073   1.380  1.1100 -0.4511  1.1267
 3785SOL     OW12253   1.819   2.195   1.364  0.3706  0.6646 -0.4342
 3785SOL    HW112254   1.915   2.182   1.341  0.5740  0.5201  0.4587
 3785SOL    HW212255   1.772   2.240   1.288  1.4442  1.9941 -0.3458
 3786SOL     OW12256   2.830   5.340   1.184 -0.0573 -0.0627  0.5787
 3786SOL    HW112257   2.817   5.370   1.279 -0.2499 -0.5653  0.7192
 3786SOL    HW212258   2.749   5.289   1.155 -0.6128  1.3053 -0.3477
 3787SOL     OW12259   3.518   2.015   3.720  0.1247  0.1416 -0.1987
 3787SOL    HW112260   3.477   1.924   3.721 -0.7977  0.5415 -0.5098
 3787SOL    HW212261   3.464   2.076   3.779 -1.8212  1.5464 -3.2090
 3788SOL     OW12262   6.188   1.662   3.482 -0.0148  0.3278 -0.2856
 3788SOL    HW112263   6.261   1.667   3.414  0.2224 -0.0069 -0.0617
 3788SOL    HW212264   6.136   1.577   3.469  1.1323 -0.6228  1.0362
 3789SOL     OW12265   2.226   2.508   4.040 -0.2873 -0.8862  0.3376
 3789SOL    HW112266   2.238   2.477   4.135  1.1001 -0.0729  0.4589
 3789SOL    HW212267   2.129   2.529   4.024 -0.3872  0.1483  1.9717
 3790SOL     OW12268   2.160   3.370   3.563  0.1244  0.0560 -0.1278
 3790SOL    HW112269   2.144   3.304   3.489 -0.3847 -1.0810  0.9525
 3790SOL    HW212270   2.258   3.384   3.576  0.2171  0.2042 -0.9521
 3791SOL     OW12271   5.421   0.540   1.955  0.5049  0.2381  0.3041
 3791SOL    HW112272   5.331   0.578   1.976  0.2670 -0.2022  0.0991
 3791SOL    HW212273   5.491   0.609   1.972  0.0640  0.8548 -0.3028
 3792SOL     OW12274   6.427   0.812   6.569 -1.0329 -0.0363 -0.0535
 3792SOL    HW112275   6.461   0.896   6.527 -0.7994  0.3492  0.8651
 3792SOL    HW212276   6.376   0.835   6.652  2.1774 -0.8676  2.3997
 3793SOL     OW12277   1.335   1.761   2.227 -0.1263  0.1043  0.1365
 3793SOL    HW112278   1.425   1.740   2.265 -0.3653 -2.3672 -0.4871
 3793SOL    HW212279   1.298   1.844   2.270  2.0946  0.7450  0.9309
 3794SOL     OW12280   4.376   6.449   1.380 -0.1422  0.6866  0.1013
 3794SOL    HW112281   4.392   6.432   1.477  0.2024  0.8570  0.0775
 3794SOL    HW212282   4.282   6.425   1.356 -0.2033  0.5716  0.4603
 3795SOL     OW12283   3.852   2.163   0.488 -0.1735  0.7779  0.4793
 3795SOL    HW112284   3.773   2.134   0.541  0.7085 -0.5265  1.1278
 3795SOL    HW212285   3.872   2.095   0.418 -1.8653  2.8889 -2.2414
 3796SOL     OW12286   2.963   0.938   3.308 -0.0124 -0.1671  0.3381
 3796SOL    HW112287   3.030   0.908   3.376 -0.8360 -2.0016  0.4279
 3796SOL    HW212288   2.993   0.909   3.217 -1.0244 -1.7866  0.4730
 3797SOL     OW12289   6.977   6.392   1.109  0.0085 -0.1056 -0.0624
 3797SOL    HW112290   7.068   6.374   1.073  0.5587  2.0305  0.1251
 3797SOL    HW212291   6.910   6.337   1.059  1.3045 -1.2059 -0.6541
 3798SOL     OW12292   1.732   6.164   3.717 -0.3232 -0.0431  0.0674
 3798SOL    HW112293   1.642   6.138   3.751 -0.6758  0.4772 -0.4555
 3798SOL    HW212294   1.785   6.081   3.698 -1.0363 -0.3732 -0.5364
 3799SOL     OW12295   2.508   2.546   4.781 -0.2100 -0.5789 -0.0673
 3799SOL    HW112296   2.542   2.587   4.866 -0.1220 -1.1231  0.1673
 3799SOL    HW212297   2.573   2.564   4.707 -0.1480 -0.3417  0.0437
 3800SOL     OW12298   5.227   2.036   3.801 -0.7740 -0.0474 -0.1641
 3800SOL    HW112299   5.165   2.046   3.879  0.0732  1.4346  0.3459
 3800SOL    HW212300   5.270   2.123   3.780 -0.7212 -0.4748 -2.1102
 3801SOL     OW12301   6.769   0.323   5.854 -0.3287 -0.1973  0.3600
 3801SOL    HW112302   6.807   0.292   5.941  0.0172  1.2529  0.7582
 3801SOL    HW212303   6.672   0.345   5.866 -0.7407 -1.6509 -0.0777
 3802SOL     OW12304   2.593   1.649   4.437  0.2992 -0.6073 -0.6073
 3802SOL    HW112305   2.687   1.679   4.454 -0.1304 -0.5327  2.1870
 3802SOL    HW212306   2.593   1.556   4.402  1.4134 -0.2209 -1.7169
 3803SOL     OW12307   4.577   0.059   0.833 -0.7973 -0.1777  0.0708
 3803SOL    HW112308   4.619   0.053   0.923 -1.9034  1.0098  0.6987
 3803SOL    HW212309   4.611  -0.015   0.775  2.2083  0.7930  0.4679
 3804SOL     OW12310   3.004   0.948   4.450  0.7436 -0.5451 -0.0558
 3804SOL    HW112311   3.101   0.931   4.469  1.5135  0.2828 -2.7709
 3804SOL    HW212312   2.966   1.008   4.520  1.9921 -1.3912  1.4027
 3805SOL     OW12313   1.961   3.586   1.895  0.0830  0.2123  0.0399
 3805SOL    HW112314   2.054   3.550   1.890  0.7781  1.5815  2.0681
 3805SOL    HW212315   1.960   3.680   1.862 -0.1321  0.9043  1.9470
 3806SOL     OW12316   2.121   3.074   0.881  0.0420  0.0020  0.3714
 3806SOL    HW112317   2.147   3.125   0.963  0.6091  2.8084 -1.3917
 3806SOL    HW212318   2.039   3.115   0.841  0.2831 -0.7232 -0.9104
 3807SOL     OW12319   5.945   0.022   3.494 -0.0244  0.1807  0.0375
 3807SOL    HW112320   5.899  -0.021   3.572  1.6241 -0.8739  0.4730
 3807SOL    HW212321   5.975   0.113   3.519 -0.4590  0.2651  0.2627
 3808SOL     OW12322   3.726   5.957   3.274  0.4197 -0.3394 -0.0617
 3808SOL    HW112323   3.812   5.965   3.324 -1.1485  1.7982  2.5434
 3808SOL    HW212324   3.675   5.878   3.308 -0.4692  0.8815  1.5603
 3809SOL     OW12325   0.966   3.042   4.762  0.7472 -0.8295 -0.2082
 3809SOL    HW112326   1.061   3.026   4.734  1.0936 -0.1300  0.5132
 3809SOL    HW212327   0.959   3.134   4.801 -0.3292 -0.7067 -0.6835
 3810SOL     OW12328   4.195   3.443   5.230 -0.6509 -0.7699  0.0773
 3810SOL    HW112329   4.167   3.483   5.318  0.6085 -2.4340  1.3117
 3810SOL    HW212330   4.154   3.353   5.219 -1.2413 -0.3495 -1.3364
 3811SOL     OW12331   6.335   5.615   3.287  0.7290  0.2050  0.0483
 3811SOL    HW112332   6.301   5.521   3.284 -0.5795  0.6164  0.9534
 3811SOL    HW212333   6.274   5.670   3.344  1.3790  1.6488 -0.6171
 3812SOL     OW12334   5.087   2.786   5.010 -0.0047  0.3971  0.5759
 3812SOL    HW112335   5.028   2.787   5.090 -0.5688  0.3761  0.1706
 3812SOL    HW212336   5.041   2.738   4.935  1.0364 -0.7348  0.6264
 3813SOL     OW12337   3.976   4.913   0.284  0.4162  0.2858 -0.2669
 3813SOL    HW112338   3.887   4.954   0.307 -0.2168  1.8373 -4.5269
 3813SOL    HW212339   4.049   4.977   0.308 -0.1622  1.6232 -1.8715
 3814SOL     OW12340   6.646   6.937   1.857 -0.6537 -0.2007 -0.2666
 3814SOL    HW112341   6.738   6.939   1.898 -0.5659  1.0326 -0.5043
 3814SOL    HW212342   6.650   6.888   1.770 -0.3702 -0.7608  0.0527
 3815SOL     OW12343   5.237   1.892   0.937 -0.1422  0.1231 -0.0416
 3815SOL    HW112344   5.211   1.814   0.994 -1.0012  0.7322  0.4294
 3815SOL    HW212345   5.183   1.893   0.854 -0.4684  0.4634  0.1683
 3816SOL     OW12346   0.677   6.765   2.336 -0.5173 -0.3897  0.3532
 3816SOL    HW112347   0.691   6.679   2.287  1.0861  0.0569 -0.0125
 3816SOL    HW212348   0.683   6.841   2.272 -1.1128  0.0617  0.8164
 3817SOL     OW12349   5.157   3.299   5.023 -0.5364 -0.2405  0.2168
 3817SOL    HW112350   5.061   3.308   4.997 -0.7880 -0.6335  0.9588
 3817SOL    HW212351   5.171   3.210   5.066 -0.8459  1.3443  4.0657
 3818SOL     OW12352   6.227   4.390   1.107  1.0018  0.5292  0.0129
 3818SOL    HW112353   6.245   4.472   1.052  0.7772  0.8199  0.3703
 3818SOL    HW212354   6.290   4.387   1.184  0.2214  1.0102  0.6855
 3819SOL     OW12355   6.324   5.284   0.944 -0.0497  0.0179 -0.4115
 3819SOL    HW112356   6.398   5.217   0.952  0.3488  0.5664  0.7458
 3819SOL    HW212357   6.236   5.236   0.944  0.1795 -0.4946  1.3652
 3820SOL     OW12358   4.825   5.815   3.646 -0.2338  0.7232 -0.3026
 3820SOL    HW112359   4.922   5.792   3.658  0.2254  2.7083  0.1179
 3820SOL    HW212360   4.783   5.750   3.583  1.0603 -0.9003  0.4301
 3821SOL     OW12361   0.672   0.654   2.711  0.4397 -0.0316 -0.0750
 3821SOL    HW112362   0.689   0.644   2.809  0.8370 -1.1753 -0.2501
 3821SOL    HW212363   0.737   0.598   2.659 -0.7180 -0.6269 -0.9326
 3822SOL     OW12364   2.304   5.382   1.729 -0.1014  0.0764 -0.3113
 3822SOL    HW112365   2.325   5.346   1.638 -1.4705  0.6795 -0.9012
 3822SOL    HW212366   2.219   5.341   1.762 -0.7863  1.4424 -0.2747
 3823SOL     OW12367   4.087   3.350   4.236  0.7402  0.2470 -0.2933
 3823SOL    HW112368   4.043   3.268   4.200 -0.2303  0.5076  0.2638
 3823SOL    HW212369   4.102   3.415   4.161  1.3471 -0.3465 -0.7051
 3824SOL     OW12370   5.355   2.742   5.682  0.0251 -0.4959 -0.5055
 3824SOL    HW112371   5.344   2.650   5.718  0.5465  0.2896  1.8462
 3824SOL    HW212372   5.449   2.773   5.697 -0.7042  1.2059  0.8539
 3825SOL     OW12373   6.446   1.223   6.602  0.0099  0.1839 -0.4656
 3825SOL    HW112374   6.432   1.314   6.564  0.8077  0.8427  0.7740
 3825SOL    HW212375   6.507   1.228   6.681 -2.3084 -0.9674  1.5389
 3826SOL     OW12376   0.758   3.867   1.220 -0.1525 -0.2161 -0.3778
 3826SOL    HW112377   0.793   3.921   1.143  1.4676 -3.5097 -2.1378
 3826SOL    HW212378   0.681   3.811   1.190  0.9359 -2.0685  0.1620
 3827SOL     OW12379   2.797   2.869   6.163  0.1635  0.5508  0.5211
 3827SOL    HW112380   2.724   2.807   6.192 -0.0089  0.7072  0.4214
 3827SOL    HW212381   2.802   2.870   6.063  0.9512 -0.2159  0.5402
 3828SOL     OW12382   5.635   3.112   1.127 -0.1724 -0.8347  1.1798
 3828SOL    HW112383   5.602   3.191   1.076 -2.2499 -1.4601  1.4484
 3828SOL    HW212384   5.688   3.142   1.206 -1.3273  0.3315  1.5385
 3829SOL     OW12385   4.792   6.474   4.763 -0.0909 -0.3288  0.1751
 3829SOL    HW112386   4.784   6.457   4.861 -2.4456  0.6822  0.2325
 3829SOL    HW212387   4.719   6.425   4.715  0.5790 -0.2222 -0.9724
 3830SOL     OW12388   0.738   0.957   4.972 -0.1833 -0.0581  0.4163
 3830SOL    HW112389   0.783   0.876   5.009 -0.9854 -0.7559 -0.0801
 3830SOL    HW212390   0.794   0.996   4.899 -0.9541 -1.7090 -1.1281
 3831SOL     OW12391   4.749   3.263   0.982 -0.4553 -0.0356  0.1540
 3831SOL    HW112392   4.793   3.177   1.007 -0.6048  0.1040  0.9418
 3831SOL    HW212393   4.767   3.283   0.886  0.8223 -0.2146  0.3267
 3832SOL     OW12394   6.982   1.500   1.561  0.0041  0.3691  0.6252
 3832SOL    HW112395   6.944   1.580   1.515 -2.8033 -1.9212 -1.4640
 3832SOL    HW212396   7.058   1.464   1.506 -0.0748  0.4396  0.4690
 3833SOL     OW12397   2.444   6.408   2.825  0.6591 -0.1451  0.2398
 3833SOL    HW112398   2.456   6.323   2.773 -0.2464  0.3144 -0.7861
 3833SOL    HW212399   2.369   6.397   2.890 -0.0504  0.1063 -0.5074
 3834SOL     OW12400   2.257   2.849   2.816  0.7416 -0.2499 -0.0667
 3834SOL    HW112401   2.226   2.807   2.731  0.8444 -2.0240  0.7450
 3834SOL    HW212402   2.245   2.949   2.809 -2.4274 -0.5716 -0.8825
 3835SOL     OW12403   1.395   6.851   4.701  0.0022 -0.6421  0.4792
 3835SOL    HW112404   1.337   6.922   4.661  0.0663  0.5054  2.3243
 3835SOL    HW212405   1.355   6.761   4.683 -0.4191 -0.1274 -1.3368
 3836SOL     OW12406   1.816   5.369   5.165  0.7858 -0.7639 -0.1091
 3836SOL    HW112407   1.897   5.420   5.136  0.4395 -1.4277 -2.4664
 3836SOL    HW212408   1.753   5.430   5.212  0.9111  0.7431 -1.7864
 3837SOL     OW12409   4.948   3.673   5.700  0.4873  0.6256 -0.9216
 3837SOL    HW112410   4.973   3.748   5.762  1.6676 -0.1759 -0.4058
 3837SOL    HW212411   4.848   3.671   5.690  0.4076  2.0616 -0.7061
 3838SOL     OW12412   4.941   2.089   3.237 -0.4152  0.2316 -0.0403
 3838SOL    HW112413   4.915   1.993   3.226  1.9837 -0.2826 -2.2899
 3838SOL    HW212414   5.029   2.095   3.283  0.4951  1.1771 -1.8071
 3839SOL     OW12415   4.651   6.423   5.055 -0.1305 -0.0213 -0.3968
 3839SOL    HW112416   4.585   6.391   4.988 -2.0215  0.7690  0.9945
 3839SOL    HW212417   4.614   6.501   5.104  1.6392  0.1270  0.8235
 3840SOL     OW12418   1.692   1.411   2.149  0.0829 -0.0047  0.3348
 3840SOL    HW112419   1.652   1.373   2.066  0.0595 -0.1655  0.4199
 3840SOL    HW212420   1.742   1.339   2.198 -1.3210 -0.3403  1.3438
 3841SOL     OW12421   0.217   5.107   4.483  0.8599 -0.1140  0.0738
 3841SOL    HW112422   0.175   5.167   4.551 -0.1904 -0.0577 -0.6136
 3841SOL    HW212423   0.162   5.106   4.399  2.1415 -0.1395 -0.8130
 3842SOL     OW12424   0.907   5.083   5.063  0.2223  0.2937  0.0116
 3842SOL    HW112425   0.908   5.058   5.160  1.4496 -1.1457 -0.3324
 3842SOL    HW212426   0.912   5.001   5.007 -0.4076  1.1079 -1.2969
 3843SOL     OW12427   5.196   2.287   0.953 -0.3635  0.4865  0.2844
 3843SOL    HW112428   5.203   2.386   0.950 -1.6187  0.5747 -0.2172
 3843SOL    HW212429   5.280   2.249   0.991 -0.7052  1.8720  2.6524
 3844SOL     OW12430   1.189   4.598   5.360  0.6721 -0.6300  0.2524
 3844SOL    HW112431   1.262   4.661   5.387  0.8871 -0.8761  0.2493
 3844SOL    HW212432   1.215   4.505   5.384 -1.0710 -0.4233  3.3895
 3845SOL     OW12433   2.997   3.809   3.398 -0.3142 -0.0446  0.1265
 3845SOL    HW112434   2.999   3.717   3.358 -1.4258 -0.1735  0.3282
 3845SOL    HW212435   3.007   3.802   3.497  1.9708  0.2411 -0.0468
 3846SOL     OW12436   1.350   3.313   3.501  0.3608  0.1151 -0.3136
 3846SOL    HW112437   1.301   3.393   3.534 -1.0659 -0.4690 -0.9478
 3846SOL    HW212438   1.417   3.341   3.431 -0.6437  0.6862 -1.0690
 3847SOL     OW12439   6.425   1.573   5.656 -0.7611  0.6552  0.8822
 3847SOL    HW112440   6.360   1.545   5.727 -2.3340 -0.6715 -0.9633
 3847SOL    HW212441   6.377   1.630   5.589 -0.4085 -1.2946 -1.1424
 3848SOL     OW12442   3.382   4.890   2.440 -0.2042  0.3711 -0.0126
 3848SOL    HW112443   3.373   4.982   2.401 -0.8050  0.2310 -0.2136
 3848SOL    HW212444   3.427   4.830   2.375  0.7270  0.6637  0.3473
 3849SOL     OW12445   1.647   2.254   4.929  0.1599 -0.2984 -0.1399
 3849SOL    HW112446   1.604   2.229   5.016 -1.2423 -1.5462 -1.1414
 3849SOL    HW212447   1.641   2.353   4.916 -2.2339 -0.3615 -0.0775
 3850SOL     OW12448   3.124   4.584   1.497  0.2670 -0.9529  0.1441
 3850SOL    HW112449   3.188   4.621   1.565 -0.1406 -1.0270  0.5738
 3850SOL    HW212450   3.075   4.507   1.536  2.0975 -2.9043 -1.2032
 3851SOL     OW12451   2.071   1.729   3.683  0.1930 -0.2894  0.3309
 3851SOL    HW112452   1.999   1.683   3.734 -0.0133  0.4651  0.7236
 3851SOL    HW212453   2.085   1.821   3.719  1.5880 -0.5327  0.4851
 3852SOL     OW12454   1.981   4.949   5.529  0.1834  0.6531  0.3767
 3852SOL    HW112455   2.074   4.985   5.525  1.1595 -1.8042 -0.6856
 3852SOL    HW212456   1.927   4.987   5.453  1.0476  0.2429 -0.4546
 3853SOL     OW12457   2.168   4.445   1.135  0.4708 -0.1497  0.1564
 3853SOL    HW112458   2.127   4.403   1.054  0.7908 -0.1560 -0.0008
 3853SOL    HW212459   2.267   4.437   1.131  0.4749 -0.4524  0.7112
 3854SOL     OW12460   0.229   1.885   3.381 -0.6720  0.0672  0.8191
 3854SOL    HW112461   0.303   1.918   3.439  0.3651  0.1320 -0.4896
 3854SOL    HW212462   0.165   1.960   3.361 -0.4028  0.3295  0.9415
 3855SOL     OW12463   6.857   2.610   4.046 -0.2113  0.5627 -0.1874
 3855SOL    HW112464   6.766   2.600   4.084 -0.0288 -0.6904 -0.0356
 3855SOL    HW212465   6.918   2.541   4.086  0.0891 -0.5614 -2.4389
 3856SOL     OW12466   6.774   6.413   5.016  0.3417  0.2797 -0.5959
 3856SOL    HW112467   6.710   6.377   5.084  0.5365  0.0057 -0.5524
 3856SOL    HW212468   6.842   6.470   5.062 -1.3289  2.7029 -0.9413
 3857SOL     OW12469   2.506   0.169   5.742  0.6537 -1.1212  0.6199
 3857SOL    HW112470   2.537   0.127   5.657  0.7260 -2.2195  1.1714
 3857SOL    HW212471   2.583   0.215   5.787  0.2745  0.8597 -0.6788
 3858SOL     OW12472   1.058   6.463   5.779  0.5304  0.6166  0.8028
 3858SOL    HW112473   1.019   6.379   5.818 -0.3651  0.5905 -0.1170
 3858SOL    HW212474   1.097   6.519   5.853  1.2705 -0.6637  1.4099
 3859SOL     OW12475   6.308   2.302   1.997  0.6938  0.0207  0.7872
 3859SOL    HW112476   6.385   2.359   1.969 -0.5845  2.1150  1.2800
 3859SOL    HW212477   6.224   2.339   1.958 -0.2119 -1.5040  1.2259
 3860SOL     OW12478   3.751   0.046   5.905  0.2996 -0.0456  0.2171
 3860SOL    HW112479   3.719   0.141   5.907  2.0718  0.5881  1.9814
 3860SOL    HW212480   3.672  -0.015   5.899 -1.0140  1.4877  0.9391
 3861SOL     OW12481   5.789   4.546   1.842  0.6124  0.2366 -0.2003
 3861SOL    HW112482   5.700   4.503   1.854  0.7654 -0.0511 -0.0772
 3861SOL    HW212483   5.777   4.640   1.811  0.2573  0.3577  0.3016
 3862SOL     OW12484   1.454   5.210   3.708  0.1664  0.9765 -0.4448
 3862SOL    HW112485   1.501   5.122   3.716  2.1362  2.0585  0.5691
 3862SOL    HW212486   1.442   5.232   3.611  1.1376  0.3371 -0.7287
 3863SOL     OW12487   1.783   2.709   2.448 -0.0662  0.2403  0.1483
 3863SOL    HW112488   1.699   2.758   2.469 -1.4438 -1.3186 -1.4151
 3863SOL    HW212489   1.799   2.639   2.517 -1.1184 -0.6932 -0.5191
 3864SOL     OW12490   1.240   1.947   6.545 -0.4644  0.4319  0.4337
 3864SOL    HW112491   1.231   1.876   6.475  0.5418 -2.0220  2.6357
 3864SOL    HW212492   1.307   2.015   6.516  0.9104 -1.2474 -0.4361
 3865SOL     OW12493   5.471   0.957   1.543 -0.3086 -0.0772 -0.0163
 3865SOL    HW112494   5.378   0.994   1.544 -0.0431  0.6182 -0.4302
 3865SOL    HW212495   5.472   0.869   1.495 -0.9986 -0.7901  1.2338
 3866SOL     OW12496   3.140   0.597   0.071  0.0195 -0.3100 -0.0163
 3866SOL    HW112497   3.137   0.569   0.167 -1.0072 -2.3420 -0.6011
 3866SOL    HW212498   3.099   0.527   0.014  1.0716  0.6213 -2.0301
 3867SOL     OW12499   2.093   1.561   3.125 -0.4990 -0.1065  0.3472
 3867SOL    HW112500   2.034   1.481   3.132  0.7780 -1.0846  0.3625
 3867SOL    HW212501   2.176   1.537   3.075 -0.5502  1.4987 -0.5687
 3868SOL     OW12502   3.688   0.085   3.606 -0.2894  0.2729  0.2226
 3868SOL    HW112503   3.647   0.173   3.627  1.3360  0.8555  1.1887
 3868SOL    HW212504   3.677   0.023   3.684  1.3713  0.7523  0.8988
 3869SOL     OW12505   0.634   2.458   3.532  0.1668 -0.4550  0.1064
 3869SOL    HW112506   0.648   2.528   3.461  1.5469  0.5735  1.3349
 3869SOL    HW212507   0.683   2.484   3.615 -1.2789 -1.7199  1.4184
 3870SOL     OW12508   3.720   4.137   6.849  0.4060 -0.3625  0.3314
 3870SOL    HW112509   3.763   4.227   6.861 -2.2665  0.9504  0.6890
 3870SOL    HW212510   3.766   4.071   6.908  3.5937  0.2571 -1.2356
 3871SOL     OW12511   5.130   1.127   4.567 -0.7284 -0.4614 -0.6013
 3871SOL    HW112512   5.106   1.110   4.663  0.6945  0.0312 -0.1376
 3871SOL    HW212513   5.072   1.070   4.508 -2.5512  0.2022  0.4643
 3872SOL     OW12514   4.657   4.294   1.676 -0.4160  1.1119  0.3158
 3872SOL    HW112515   4.585   4.267   1.740  1.5890 -1.9526  1.5201
 3872SOL    HW212516   4.724   4.351   1.724  1.0945 -1.1974  1.1205
 3873SOL     OW12517   5.832   3.847   2.235 -0.1802 -0.3225 -0.5612
 3873SOL    HW112518   5.895   3.849   2.158  0.0698 -1.4410 -0.4008
 3873SOL    HW212519   5.836   3.758   2.280  0.1381  0.5102  1.1388
 3874SOL     OW12520   3.659   0.299   5.999 -0.2431 -0.2021 -0.3155
 3874SOL    HW112521   3.603   0.372   5.961 -1.5644 -1.9697 -1.9852
 3874SOL    HW212522   3.645   0.292   6.098  0.5386  2.2423  0.0219
 3875SOL     OW12523   1.359   5.297   0.622  0.2308  1.0212  0.4499
 3875SOL    HW112524   1.320   5.342   0.542  0.6836 -0.7919 -0.8515
 3875SOL    HW212525   1.458   5.295   0.614  0.2363  0.1536  0.7038
 3876SOL     OW12526   5.663   3.762   4.462  0.3855 -0.2522  0.0121
 3876SOL    HW112527   5.635   3.857   4.475  0.3511  0.0366 -1.8411
 3876SOL    HW212528   5.583   3.703   4.460  0.2894 -0.1126 -0.2958
 3877SOL     OW12529   6.879   0.491   1.897 -0.2750 -0.6239 -0.2604
 3877SOL    HW112530   6.974   0.463   1.885  0.2833  0.5032  1.2367
 3877SOL    HW212531   6.827   0.469   1.814  0.9244 -2.6108 -0.5363
 3878SOL     OW12532   3.472   6.407   0.786  0.0252  0.3531 -0.4783
 3878SOL    HW112533   3.430   6.492   0.753  0.4020  2.3228  3.5964
 3878SOL    HW212534   3.490   6.347   0.708 -1.4022  3.4321 -3.4285
 3879SOL     OW12535   4.282   6.264   1.882  0.0661  0.1584  0.0017
 3879SOL    HW112536   4.257   6.196   1.814 -0.3628 -0.6946  0.9870
 3879SOL    HW212537   4.336   6.220   1.955  1.4461  1.2543 -0.3008
 3880SOL     OW12538   6.001   2.959   3.394 -0.6807  0.3399 -0.3767
 3880SOL    HW112539   5.976   2.876   3.444 -0.6770  0.6429  0.1323
 3880SOL    HW212540   5.959   3.038   3.438 -1.7479  0.4885 -1.6016
 3881SOL     OW12541   1.433   3.010   1.677 -0.0742  0.6846  0.5356
 3881SOL    HW112542   1.353   3.046   1.725  0.9243  0.5208  2.4284
 3881SOL    HW212543   1.404   2.946   1.606 -1.6039  0.5140  1.2770
 3882SOL     OW12544   0.591   1.791   6.512 -0.3378 -0.4116  0.0941
 3882SOL    HW112545   0.611   1.737   6.594  1.7813 -0.5894 -0.4776
 3882SOL    HW212546   0.614   1.887   6.529  0.5037 -0.5159 -0.3893
 3883SOL     OW12547   4.341   1.602   5.780  0.1355 -0.2434 -0.5709
 3883SOL    HW112548   4.353   1.682   5.721 -1.6073  0.2243 -0.3496
 3883SOL    HW212549   4.297   1.528   5.728 -0.1757 -0.3011 -0.2335
 3884SOL     OW12550   1.835   5.768   4.575 -0.2233  0.3766  0.1003
 3884SOL    HW112551   1.876   5.691   4.526  1.4278  0.9722  0.4839
 3884SOL    HW212552   1.791   5.734   4.658  0.7902 -0.1274  0.4447
 3885SOL     OW12553   6.559   0.637   4.384 -0.3680  0.0219  0.1191
 3885SOL    HW112554   6.608   0.604   4.465  2.8342 -2.0633 -2.3568
 3885SOL    HW212555   6.538   0.559   4.325 -0.7843  1.6176 -1.9389
 3886SOL     OW12556   0.228   6.925   0.570  0.6575 -0.4371 -0.2026
 3886SOL    HW112557   0.131   6.928   0.592  1.1329  0.2862  2.0557
 3886SOL    HW212558   0.243   6.964   0.479 -1.0320  0.4544 -0.1367
 3887SOL     OW12559   2.902   1.305   6.002  0.1394  0.1958  0.0040
 3887SOL    HW112560   2.955   1.302   5.917  0.8418 -1.0927  0.4542
 3887SOL    HW212561   2.962   1.333   6.077 -0.1236 -0.0574  0.3103
 3888SOL     OW12562   6.352   2.728   0.590 -0.2886 -0.3258 -0.2268
 3888SOL    HW112563   6.278   2.749   0.654 -1.2491 -0.6235 -1.2082
 3888SOL    HW212564   6.439   2.726   0.639 -1.2158 -2.7718  1.5642
 3889SOL     OW12565   2.194   2.235   5.844  0.1637  0.1280  0.4663
 3889SOL    HW112566   2.124   2.240   5.774  1.6792  1.4634 -1.0409
 3889SOL    HW212567   2.228   2.328   5.865  1.5994 -0.4754  0.9948
 3890SOL     OW12568   4.815   5.286   4.042 -0.0656  0.1137  0.5827
 3890SOL    HW112569   4.808   5.191   4.074  0.0063 -0.9619 -2.2669
 3890SOL    HW212570   4.909   5.303   4.011 -0.5101  0.4849 -0.6158
 3891SOL     OW12571   4.014   6.574   6.711  0.4260 -0.1410  0.2395
 3891SOL    HW112572   4.046   6.517   6.787 -0.9646 -0.3709  0.7003
 3891SOL    HW212573   3.914   6.568   6.706  0.3415  1.4531 -0.3720
 3892SOL     OW12574   5.603   6.725   2.136  0.3874  0.1294 -0.4836
 3892SOL    HW112575   5.550   6.769   2.209  3.1115  1.1512  1.0188
 3892SOL    HW212576   5.563   6.636   2.116 -0.4418 -0.2450  2.3205
 3893SOL     OW12577   2.916   6.918   5.980 -0.2370 -0.0071 -0.6768
 3893SOL    HW112578   2.846   6.859   5.940 -1.8505  0.2346  1.5918
 3893SOL    HW212579   2.910   6.914   6.080  3.3244 -0.2991 -0.3611
 3894SOL     OW12580   5.504   3.988   1.120 -0.0073 -0.5314  0.0020
 3894SOL    HW112581   5.483   3.944   1.208  1.2145  0.0704  0.6240
 3894SOL    HW212582   5.443   3.952   1.050 -1.3096 -0.7129  1.1762
 3895SOL     OW12583   2.054   2.649   6.012 -0.6639 -0.3612  0.4560
 3895SOL    HW112584   2.128   2.583   6.024  0.8599  0.7792 -1.7958
 3895SOL    HW212585   1.989   2.615   5.944  0.0412  0.3338 -0.5952
 3896SOL     OW12586   5.944   3.063   6.666 -0.0396 -0.2681  0.4357
 3896SOL    HW112587   6.013   2.996   6.691 -0.4544 -1.6874 -1.8994
 3896SOL    HW212588   5.963   3.099   6.575 -0.3158  2.2027  1.2851
 3897SOL     OW12589   5.201   5.072   2.103  0.4529 -0.0378  0.3339
 3897SOL    HW112590   5.147   5.150   2.133 -0.1406 -0.0744 -0.5944
 3897SOL    HW212591   5.228   5.017   2.182  1.1432  1.2619  1.0275
 3898SOL     OW12592   3.314   3.844   4.328 -0.2015  0.1498  0.0797
 3898SOL    HW112593   3.364   3.848   4.415 -0.2889 -1.0605  0.1976
 3898SOL    HW212594   3.253   3.923   4.322  1.1009  1.2058  0.3068
 3899SOL     OW12595   5.808   0.284   5.145  0.8522 -0.1034  0.1338
 3899SOL    HW112596   5.800   0.186   5.124 -0.7628  0.4260 -2.0630
 3899SOL    HW212597   5.896   0.318   5.112  0.9909 -0.5927 -0.0140
 3900SOL     OW12598   4.674   2.796   3.543 -0.1620 -0.5474  0.1236
 3900SOL    HW112599   4.669   2.826   3.448 -2.1933  2.2519  0.9681
 3900SOL    HW212600   4.739   2.852   3.593 -0.9023 -0.3298  0.8731
 3901SOL     OW12601   0.706   6.674   4.269  0.1174 -0.4922 -0.1003
 3901SOL    HW112602   0.629   6.734   4.290  0.1685 -0.5618  0.2992
 3901SOL    HW212603   0.760   6.713   4.194 -0.8659 -0.9358 -1.0637
 3902SOL     OW12604   5.490   6.214   0.385  0.2183  0.3851 -0.6643
 3902SOL    HW112605   5.514   6.257   0.298 -0.1377  1.3517 -0.3002
 3902SOL    HW212606   5.573   6.181   0.430  0.5231  0.8564 -0.8724
 3903SOL     OW12607   4.349   4.098   0.087  0.8261  0.1438  0.1529
 3903SOL    HW112608   4.405   4.033   0.139  2.4273 -0.1860 -1.8440
 3903SOL    HW212609   4.387   4.190   0.095  0.4003  0.2961  0.4709
 3904SOL     OW12610   2.707   6.894   0.559  0.3527  0.2113 -0.1723
 3904SOL    HW112611   2.721   6.801   0.524 -1.4095  0.3332 -1.3384
 3904SOL    HW212612   2.666   6.890   0.650  1.2564 -0.1268  0.2348
 3905SOL     OW12613   5.656   2.106   4.921 -0.6161  0.5321  0.4545
 3905SOL    HW112614   5.638   2.007   4.926 -0.1883  0.4650  0.6915
 3905SOL    HW212615   5.755   2.121   4.918 -0.5213  1.1074  3.7364
 3906SOL     OW12616   1.451   3.728   3.304  0.6913 -0.1595  0.4534
 3906SOL    HW112617   1.399   3.653   3.264  0.5922 -1.1878  2.3878
 3906SOL    HW212618   1.389   3.792   3.349  0.8508  0.6176 -0.3977
 3907SOL     OW12619   6.145   1.745   3.980 -0.0165 -0.0913 -0.3296
 3907SOL    HW112620   6.130   1.812   3.907  0.1581 -0.7131 -0.9453
 3907SOL    HW212621   6.069   1.680   3.982  1.7758 -2.4445 -2.5724
 3908SOL     OW12622   1.747   6.845   3.905  0.1902  0.3551 -0.2128
 3908SOL    HW112623   1.767   6.826   4.001  3.1608  1.4212 -0.5055
 3908SOL    HW212624   1.663   6.798   3.878 -0.1804 -0.7801  2.6159
 3909SOL     OW12625   6.290   1.786   4.938  0.4600 -0.2978  0.3320
 3909SOL    HW112626   6.292   1.849   4.860  0.4151  1.1475  1.4579
 3909SOL    HW212627   6.339   1.702   4.913  0.2275  0.0101 -1.3258
 3910SOL     OW12628   2.060   2.034   1.291  0.1879  0.0871  0.7078
 3910SOL    HW112629   1.979   1.983   1.261  1.3642 -0.8856 -0.9714
 3910SOL    HW212630   2.106   1.983   1.363  1.8912 -1.8853 -1.6129
 3911SOL     OW12631   6.061   2.171   6.438  0.4449  0.2521 -0.6265
 3911SOL    HW112632   6.125   2.139   6.368  0.7817  1.0610 -0.6966
 3911SOL    HW212633   5.968   2.144   6.413  0.5937  0.3173 -1.2595
 3912SOL     OW12634   4.259   2.421   1.181 -0.1699  0.0311 -0.5359
 3912SOL    HW112635   4.189   2.391   1.246  0.0262 -2.6647 -1.4669
 3912SOL    HW212636   4.337   2.358   1.184  1.3204  1.7592 -1.0559
 3913SOL     OW12637   4.735   5.143   2.253  0.1473  0.5366 -0.3940
 3913SOL    HW112638   4.700   5.175   2.341 -1.4697  0.9484 -1.1512
 3913SOL    HW212639   4.751   5.045   2.257 -1.6714  0.2124 -0.1444
 3914SOL     OW12640   6.386   0.640   0.824  0.1344 -0.1602  0.2373
 3914SOL    HW112641   6.313   0.579   0.853 -0.1935 -0.5758 -1.3365
 3914SOL    HW212642   6.455   0.587   0.774 -0.0287  0.6877 -0.9382
 3915SOL     OW12643   4.390   6.752   6.795 -0.0085  0.1162 -0.0863
 3915SOL    HW112644   4.299   6.761   6.837 -0.3362  1.2299 -0.9868
 3915SOL    HW212645   4.380   6.709   6.705  0.5319 -0.9928  0.3645
 3916SOL     OW12646   3.718   0.381   3.945 -0.0303 -0.0220 -0.3459
 3916SOL    HW112647   3.724   0.480   3.945 -1.4244  0.0938  0.3286
 3916SOL    HW212648   3.798   0.342   3.900 -0.5039  1.4690 -2.6465
 3917SOL     OW12649   3.505   3.913   1.033 -0.4007 -0.3532  0.1594
 3917SOL    HW112650   3.486   3.830   1.086  0.1305 -0.7309 -0.2317
 3917SOL    HW212651   3.592   3.953   1.062 -0.7829  0.2221  0.5291
 3918SOL     OW12652   4.333   1.204   0.875  0.2567 -0.1597  0.0277
 3918SOL    HW112653   4.393   1.199   0.795 -0.5035 -0.5975 -0.5311
 3918SOL    HW212654   4.241   1.229   0.846  0.4708  2.0816  1.0426
 3919SOL     OW12655   4.753   0.032   1.104  0.2562  0.0967 -0.2815
 3919SOL    HW112656   4.833   0.078   1.064 -1.0427  2.8353  0.1013
 3919SOL    HW212657   4.784  -0.039   1.168  2.4268  1.8391  0.7187
 3920SOL     OW12658   1.431   1.945   6.900  0.3677 -0.1955 -0.4542
 3920SOL    HW112659   1.336   1.939   6.929  0.1368 -0.7097 -1.2817
 3920SOL    HW212660   1.487   1.982   6.975 -0.9404  3.0878 -0.9451
 3921SOL     OW12661   4.410   3.371   5.469 -0.3573  0.5437  0.0948
 3921SOL    HW112662   4.378   3.292   5.417  1.5378 -0.0128 -0.3125
 3921SOL    HW212663   4.428   3.447   5.406  0.0675  0.5141  0.1766
 3922SOL     OW12664   3.246   5.908   2.507  0.0129  0.0537  0.2549
 3922SOL    HW112665   3.318   5.976   2.494  0.3751 -0.5970 -1.3833
 3922SOL    HW212666   3.283   5.830   2.558  0.1289  0.2499  0.4722
 3923SOL     OW12667   5.733   4.088   2.307  0.1571 -0.2706  0.1410
 3923SOL    HW112668   5.721   4.071   2.405  1.4828 -0.6038  0.2685
 3923SOL    HW212669   5.787   4.014   2.266  2.7384  1.5604 -0.0680
 3924SOL     OW12670   4.784   4.835   3.514 -0.7041 -0.2390  0.8604
 3924SOL    HW112671   4.862   4.784   3.480 -2.1325 -2.8871  1.2795
 3924SOL    HW212672   4.702   4.810   3.462 -1.4873  1.7255  1.0507
 3925SOL     OW12673   5.195   2.981   0.385 -0.2111  0.0681 -0.4115
 3925SOL    HW112674   5.215   3.029   0.470 -0.8421  0.9437 -0.7431
 3925SOL    HW212675   5.266   3.004   0.318  0.6245 -1.0986  0.0409
 3926SOL     OW12676   5.445   6.719   6.864  0.0934 -0.0833  0.2932
 3926SOL    HW112677   5.378   6.646   6.848  0.7403 -1.4499  3.1546
 3926SOL    HW212678   5.404   6.789   6.922  0.1851  0.7254 -0.5963
 3927SOL     OW12679   3.946   1.639   4.753 -0.2713 -0.4250  0.1057
 3927SOL    HW112680   3.955   1.717   4.815 -1.4988 -1.0770  1.1555
 3927SOL    HW212681   4.035   1.598   4.737  0.2613  0.6461  0.2544
 3928SOL     OW12682   2.801   5.657   4.203 -0.4437 -0.1849 -1.0738
 3928SOL    HW112683   2.862   5.607   4.142  1.3946  1.0405 -0.3066
 3928SOL    HW212684   2.824   5.754   4.202 -2.6584  0.4052 -1.0425
 3929SOL     OW12685   1.200   0.363   5.890  0.4075  0.3969 -0.0136
 3929SOL    HW112686   1.220   0.325   5.800 -0.8482 -1.1679  0.3181
 3929SOL    HW212687   1.279   0.348   5.951  0.8343  0.4741 -0.5430
 3930SOL     OW12688   0.462   3.325   4.637  0.6152 -0.0727  0.7196
 3930SOL    HW112689   0.505   3.399   4.689 -0.0371  0.4131  0.5695
 3930SOL    HW212690   0.519   3.303   4.558  0.9916  0.0192  0.9614
 3931SOL     OW12691   3.146   0.891   1.848 -0.4821 -0.2583 -0.0676
 3931SOL    HW112692   3.110   0.853   1.933 -0.0221 -2.0063 -0.6039
 3931SOL    HW212693   3.101   0.845   1.771 -0.1562  0.5770 -0.7667
 3932SOL     OW12694   4.118   5.635   3.603 -0.3114  0.5287  0.2587
 3932SOL    HW112695   4.157   5.654   3.693 -0.3605  0.3534  0.3172
 3932SOL    HW212696   4.043   5.570   3.612 -1.2332  1.5565  0.2533
 3933SOL     OW12697   2.121   6.714   2.308  0.3462  0.1760  0.1642
 3933SOL    HW112698   2.178   6.796   2.305  0.5016  0.0277 -2.0617
 3933SOL    HW212699   2.172   6.640   2.353  1.7270  0.2195 -1.2638
 3934SOL     OW12700   6.100   0.194   1.813 -0.7395  1.0027 -0.1588
 3934SOL    HW112701   6.017   0.167   1.862  0.1728 -0.7016  0.5183
 3934SOL    HW212702   6.178   0.193   1.876  0.5549 -1.6928 -1.6490
 3935SOL     OW12703   6.101   4.019   6.889  0.1617  0.3315 -0.4895
 3935SOL    HW112704   6.043   3.990   6.965  0.1962 -1.5802 -1.1534
 3935SOL    HW212705   6.190   3.974   6.895  0.1253  0.0626 -1.7232
 3936SOL     OW12706   5.714   5.727   5.482 -0.0614 -0.3450  0.3847
 3936SOL    HW112707   5.617   5.745   5.465  0.4679  2.0606 -0.5019
 3936SOL    HW212708   5.731   5.727   5.581 -1.1621 -2.2183  0.6132
 3937SOL     OW12709   6.759   6.218   1.772 -0.2957  0.2312 -0.3633
 3937SOL    HW112710   6.827   6.162   1.819 -0.7756  0.3736  0.5198
 3937SOL    HW212711   6.686   6.243   1.836 -0.8087  0.6854 -1.1094
 3938SOL     OW12712   0.904   5.106   3.217 -0.2019 -0.0347  0.7958
 3938SOL    HW112713   0.840   5.170   3.259  0.0374 -0.3842  1.6987
 3938SOL    HW212714   0.856   5.048   3.151 -0.5229  0.6917  0.3791
 3939SOL     OW12715   1.257   1.814   2.605  0.2122 -0.0059  0.1057
 3939SOL    HW112716   1.205   1.729   2.616  0.7338 -0.2263  0.9306
 3939SOL    HW212717   1.228   1.880   2.673  0.9191 -0.0894  0.4993
 3940SOL     OW12718   5.338   6.123   1.537 -0.4599  0.1578 -0.2068
 3940SOL    HW112719   5.414   6.116   1.601 -0.3384  2.0135 -0.0907
 3940SOL    HW212720   5.256   6.151   1.586 -0.6059  0.6223 -0.7067
 3941SOL     OW12721   6.159   6.238   2.308 -0.1448 -0.1947 -1.0721
 3941SOL    HW112722   6.182   6.317   2.252  0.9303 -0.4614 -1.0322
 3941SOL    HW212723   6.155   6.266   2.405  0.5396 -0.2366 -1.0244
 3942SOL     OW12724   0.495   5.985   5.664 -0.1107  0.1655  0.2183
 3942SOL    HW112725   0.484   5.925   5.585 -0.6923  0.6119 -0.0510
 3942SOL    HW212726   0.591   6.010   5.675  0.2355 -1.2869  0.6918
 3943SOL     OW12727   1.404   2.464   1.479 -0.7294 -0.6719  0.5145
 3943SOL    HW112728   1.348   2.457   1.561 -0.1076 -0.8022  0.9334
 3943SOL    HW212729   1.501   2.469   1.504 -0.6249  1.0889 -0.1331
 3944SOL     OW12730   5.000   2.184   6.251 -0.0871 -0.3165  0.1247
 3944SOL    HW112731   4.976   2.089   6.270  2.6482 -1.0506  0.3493
 3944SOL    HW212732   5.006   2.235   6.337  2.3755 -1.0418  0.4556
 3945SOL     OW12733   4.479   1.196   2.374 -0.2287 -0.0331 -0.7749
 3945SOL    HW112734   4.569   1.205   2.418 -0.1881 -0.2128 -0.8220
 3945SOL    HW212735   4.443   1.287   2.355 -0.4529  0.0580  0.0514
 3946SOL     OW12736   6.759   2.347   0.965  0.2457  0.4966  0.5914
 3946SOL    HW112737   6.807   2.264   0.935 -0.0954  0.4076  0.2922
 3946SOL    HW212738   6.807   2.386   1.044  1.2019  0.7892 -0.1200
 3947SOL     OW12739   1.223   4.502   2.147 -1.1733 -0.3442  0.1455
 3947SOL    HW112740   1.246   4.451   2.229  0.6413  1.9151  1.1589
 3947SOL    HW212741   1.131   4.539   2.155 -0.8883  0.1467  1.3739
 3948SOL     OW12742   0.081   3.225   5.965 -0.5076  0.0732 -0.5303
 3948SOL    HW112743   0.096   3.128   5.947 -2.8630 -0.8291  1.7577
 3948SOL    HW212744   0.157   3.260   6.021 -0.0764 -0.6787 -0.6244
 3949SOL     OW12745   5.975   6.601   0.183 -0.4352  0.3011  0.3336
 3949SOL    HW112746   6.054   6.653   0.214 -1.1919  1.5855  0.1553
 3949SOL    HW212747   5.973   6.598   0.083 -0.4097 -0.0593  0.3405
 3950SOL     OW12748   2.999   4.436   0.473  0.1742 -0.1256  0.1988
 3950SOL    HW112749   3.044   4.497   0.538  1.1541 -0.8297  0.2171
 3950SOL    HW212750   3.060   4.359   0.453 -0.9002 -0.9330 -0.0580
 3951SOL     OW12751   2.152   0.979   4.948 -0.1770  0.1931  0.1775
 3951SOL    HW112752   2.137   0.885   4.918  2.1984  0.1418 -1.0773
 3951SOL    HW212753   2.110   1.042   4.883  0.5831  0.0085 -0.5088
 3952SOL     OW12754   6.737   3.370   0.789 -0.2365 -0.1869 -0.3146
 3952SOL    HW112755   6.835   3.385   0.775 -0.2810  0.4923  0.0765
 3952SOL    HW212756   6.697   3.450   0.832 -0.8010 -0.8182  0.3522
 3953SOL     OW12757   2.276   4.404   6.769 -0.2199  0.1774 -0.6444
 3953SOL    HW112758   2.373   4.426   6.757 -0.2335  0.2718 -0.5852
 3953SOL    HW212759   2.226   4.487   6.794  0.1285 -0.3233  2.0877
 3954SOL     OW12760   1.325   4.014   4.989 -0.2900  0.5233 -0.4751
 3954SOL    HW112761   1.254   4.084   4.986 -1.7026 -0.7650  0.7670
 3954SOL    HW212762   1.283   3.923   4.984  1.4140 -0.2746 -1.2672
 3955SOL     OW12763   5.714   2.086   1.590  0.3207  0.2550 -0.0780
 3955SOL    HW112764   5.629   2.075   1.540  0.0846 -0.8006  0.5209
 3955SOL    HW212765   5.696   2.077   1.688  0.9587  1.0813  0.1233
 3956SOL     OW12766   6.767   3.622   5.911  0.0467 -0.1268 -0.1017
 3956SOL    HW112767   6.865   3.603   5.915  0.1783  0.6954  1.1919
 3956SOL    HW212768   6.733   3.600   5.820  1.9519  1.9894 -1.4634
 3957SOL     OW12769   1.185   0.683   2.530 -0.0707 -0.1758 -0.1016
 3957SOL    HW112770   1.120   0.610   2.514  0.7434 -1.2910  1.4313
 3957SOL    HW212771   1.243   0.694   2.449 -1.6171  0.3187 -1.1828
 3958SOL     OW12772   6.968   5.265   3.774 -0.2700 -0.1812 -0.1627
 3958SOL    HW112773   6.961   5.352   3.725  0.5399  1.2817  2.1400
 3958SOL    HW212774   6.895   5.259   3.842  1.4096  0.2042  1.7970
 3959SOL     OW12775   1.979   4.515   3.265 -0.0011 -0.4168 -0.2119
 3959SOL    HW112776   1.938   4.554   3.182 -0.2690 -1.4056 -0.5527
 3959SOL    HW212777   1.914   4.523   3.341 -0.5699 -1.3373 -0.5843
 3960SOL     OW12778   5.127   3.112   5.407  0.4865 -0.0522 -0.0819
 3960SOL    HW112779   5.108   3.041   5.475 -0.0329  2.3075  2.3566
 3960SOL    HW212780   5.216   3.153   5.425  0.2916  0.7033 -0.7871
 3961SOL     OW12781   5.939   0.447   2.209  0.3369 -0.1231  0.6964
 3961SOL    HW112782   5.898   0.356   2.208 -0.2927  0.1485 -0.8555
 3961SOL    HW212783   5.952   0.479   2.115  0.6668  1.3338  1.2108
 3962SOL     OW12784   1.800   5.960   5.710 -0.0302  0.1178 -0.0806
 3962SOL    HW112785   1.862   5.950   5.632  0.6019  0.3252  0.3893
 3962SOL    HW212786   1.745   5.877   5.720  0.7097 -0.3707 -0.0396
 3963SOL     OW12787   4.177   5.903   3.570 -0.5303 -0.0587  0.4204
 3963SOL    HW112788   4.236   5.924   3.647  0.9194  0.8603 -0.8884
 3963SOL    HW212789   4.165   5.803   3.564 -0.4604 -0.1575  1.6522
 3964SOL     OW12790   5.906   6.620   4.425 -0.9724 -0.0696  0.4389
 3964SOL    HW112791   5.865   6.710   4.410 -0.1443  0.2287 -0.1144
 3964SOL    HW212792   5.913   6.603   4.523 -1.7408  0.1756  0.5452
 3965SOL     OW12793   3.538   2.732   0.017 -0.1046 -0.1341  0.0214
 3965SOL    HW112794   3.561   2.645   0.059 -1.0156  0.0886  1.0142
 3965SOL    HW212795   3.583   2.807   0.066 -0.3383  0.0462 -0.0332
 3966SOL     OW12796   5.956   3.950   5.331 -0.1312 -0.1929 -0.6542
 3966SOL    HW112797   5.969   3.851   5.330 -0.7341 -0.2757 -0.3868
 3966SOL    HW212798   5.868   3.973   5.290 -0.0942  0.2194 -0.5081
 3967SOL     OW12799   6.571   5.658   6.192  0.8562  0.4023  0.2142
 3967SOL    HW112800   6.488   5.701   6.158  1.1091  0.5142 -0.2757
 3967SOL    HW212801   6.548   5.592   6.264  0.4344  1.1001  0.7321
 3968SOL     OW12802   3.578   6.576   1.094  0.4041 -0.3421  0.0572
 3968SOL    HW112803   3.637   6.603   1.170 -1.1152  0.5479  0.9783
 3968SOL    HW212804   3.551   6.658   1.042 -2.4319 -0.2251  1.5085
 3969SOL     OW12805   5.283   6.589   1.969  0.0627 -0.2768 -0.2117
 3969SOL    HW112806   5.296   6.687   1.982 -1.7176 -0.2002  1.4075
 3969SOL    HW212807   5.331   6.539   2.040 -1.9975 -0.3248  1.2578
 3970SOL     OW12808   5.261   5.394   4.479  0.2612 -0.0646  0.6016
 3970SOL    HW112809   5.200   5.458   4.433 -1.2868 -1.8081  0.0788
 3970SOL    HW212810   5.322   5.353   4.411  0.5487  0.1048  0.7578
 3971SOL     OW12811   2.317   5.763   5.121  0.3312  0.7416 -0.4006
 3971SOL    HW112812   2.400   5.711   5.139 -0.9401 -0.9571  0.9041
 3971SOL    HW212813   2.270   5.724   5.041  0.6445  1.5701 -1.0115
 3972SOL     OW12814   1.530   1.207   6.989  0.1455  0.4742 -0.4113
 3972SOL    HW112815   1.513   1.217   6.891  2.0920 -1.5665 -1.0417
 3972SOL    HW212816   1.619   1.245   7.012  1.2998 -2.1213 -0.2053
 3973SOL     OW12817   3.211   2.958   3.141 -0.1003 -0.1403 -0.3765
 3973SOL    HW112818   3.153   3.040   3.138  0.7981  0.5077 -0.5904
 3973SOL    HW212819   3.184   2.895   3.069  0.1873  0.6747 -1.2154
 3974SOL     OW12820   6.345   2.084   0.237 -0.0877  0.3826 -0.2819
 3974SOL    HW112821   6.427   2.064   0.184 -0.5564  1.1179 -1.3147
 3974SOL    HW212822   6.328   2.009   0.301  1.2450  0.1145 -0.2062
 3975SOL     OW12823   0.948   0.146   4.182  0.1623  0.3443 -0.4174
 3975SOL    HW112824   0.926   0.207   4.258  1.7829  0.4963 -0.0375
 3975SOL    HW212825   0.994   0.197   4.110  2.9644 -0.6149  0.5599
 3976SOL     OW12826   0.506   2.350   5.379  0.6553 -0.4399  0.4122
 3976SOL    HW112827   0.565   2.305   5.446  1.0590 -0.0289  0.3322
 3976SOL    HW212828   0.562   2.402   5.315  0.5421 -2.8113 -1.8048
 3977SOL     OW12829   4.254   6.117   0.360  0.1089 -0.2714 -0.1825
 3977SOL    HW112830   4.222   6.045   0.298 -0.8134  1.2448 -1.5161
 3977SOL    HW212831   4.330   6.167   0.318 -0.3675  0.6183 -0.0102
 3978SOL     OW12832   4.231   1.849   4.598 -0.6318 -1.1075  0.0866
 3978SOL    HW112833   4.193   1.832   4.689 -2.7883 -0.2443 -0.5862
 3978SOL    HW212834   4.297   1.924   4.603  1.3151 -2.7878  1.3281
 3979SOL     OW12835   1.501   6.212   4.683 -0.6779  0.1756  0.3937
 3979SOL    HW112836   1.555   6.287   4.645 -0.0830 -0.0798  0.7201
 3979SOL    HW212837   1.546   6.125   4.661 -0.3146  0.0239  1.7108
 3980SOL     OW12838   4.733   4.134   4.865 -0.2811 -0.2118 -0.3981
 3980SOL    HW112839   4.771   4.041   4.867  0.2614 -0.0692 -2.0956
 3980SOL    HW212840   4.695   4.157   4.954  0.8874 -1.5189  0.4727
 3981SOL     OW12841   5.761   3.494   5.975  0.7279 -0.0566  0.5001
 3981SOL    HW112842   5.685   3.449   5.927 -1.3449  2.9453  0.7146
 3981SOL    HW212843   5.796   3.434   6.046 -1.6384 -1.4627  0.5725
 3982SOL     OW12844   2.208   1.955   1.989 -0.7938  1.1450 -0.7367
 3982SOL    HW112845   2.298   1.991   2.012 -0.2807  1.3404 -2.8200
 3982SOL    HW212846   2.143   1.978   2.061  0.9742  0.2666  1.2207
 3983SOL     OW12847   3.470   6.938   5.047 -0.5952 -0.3075 -0.2153
 3983SOL    HW112848   3.483   7.036   5.063  2.4449 -0.6118 -0.0713
 3983SOL    HW212849   3.425   6.924   4.959 -1.1431  1.1927 -0.2125
 3984SOL     OW12850   2.360   4.861   0.024  0.2809 -0.0670 -0.4888
 3984SOL    HW112851   2.348   4.771  -0.018 -0.3705 -0.7800  1.1203
 3984SOL    HW212852   2.450   4.897   0.003  0.4208 -0.9377 -1.4376
 3985SOL     OW12853   1.979   5.342   2.436  0.4766  0.3547 -0.7615
 3985SOL    HW112854   1.901   5.400   2.413 -0.4651 -0.3507  0.4503
 3985SOL    HW212855   2.064   5.393   2.426 -0.1747  1.2813 -1.6985
 3986SOL     OW12856   6.521   2.620   2.629  0.2787 -0.7715 -0.2854
 3986SOL    HW112857   6.602   2.630   2.571 -0.8326  0.8555 -1.6568
 3986SOL    HW212858   6.439   2.628   2.572 -0.8743  1.7747  1.5726
 3987SOL     OW12859   1.515   3.999   0.129 -0.0133  0.3602  0.6402
 3987SOL    HW112860   1.507   4.068   0.201 -0.0688  0.4329  0.5649
 3987SOL    HW212861   1.587   3.934   0.153  0.4067  0.7513  0.4609
 3988SOL     OW12862   3.128   2.572   0.396  0.5936  0.2919 -0.0148
 3988SOL    HW112863   3.079   2.511   0.334 -2.6154  0.7893  1.8414
 3988SOL    HW212864   3.193   2.519   0.451  1.0497 -0.6645 -1.4219
 3989SOL     OW12865   4.421   0.898   6.268 -0.1525 -0.0397 -0.8398
 3989SOL    HW112866   4.355   0.971   6.284 -0.5112 -0.4453 -0.4470
 3989SOL    HW212867   4.482   0.923   6.193  1.0307  1.5649  0.5643
 3990SOL     OW12868   6.916   3.097   3.502 -0.0145 -0.0830  0.0439
 3990SOL    HW112869   6.913   3.121   3.599  0.2059 -0.4303  0.1370
 3990SOL    HW212870   6.907   2.998   3.492 -1.2281  0.0554 -0.3534
 3991SOL     OW12871   6.286   0.122   4.364  0.2020 -0.2454 -0.0037
 3991SOL    HW112872   6.242   0.176   4.292 -0.3938  0.0462  0.5771
 3991SOL    HW212873   6.371   0.167   4.393  1.3974 -1.2458 -1.7349
 3992SOL     OW12874   5.965   4.215   6.355 -0.1148 -0.7028 -0.2825
 3992SOL    HW112875   5.912   4.131   6.365  0.6544 -1.0604  1.0362
 3992SOL    HW212876   5.962   4.267   6.440 -0.1808  0.3946 -0.9254
 3993SOL     OW12877   3.658   6.959   3.837 -0.3263  0.2270 -0.6597
 3993SOL    HW112878   3.599   6.880   3.850 -1.8661  1.5085  0.4482
 3993SOL    HW212879   3.749   6.928   3.810 -0.3932 -2.0314  1.3647
 3994SOL     OW12880   3.515   1.271   3.950 -0.3745  0.3368  0.1507
 3994SOL    HW112881   3.430   1.314   3.980 -1.5008 -1.3336 -0.5104
 3994SOL    HW212882   3.519   1.178   3.986 -0.4174 -0.7524 -2.4870
 3995SOL     OW12883   6.736   3.725   2.407 -0.1067  0.0905 -0.2678
 3995SOL    HW112884   6.819   3.751   2.455  1.6814 -0.2593 -2.9368
 3995SOL    HW212885   6.712   3.631   2.429  0.8032 -0.1391 -0.2335
 3996SOL     OW12886   6.890   0.534   2.939  0.4610  0.0968  0.0465
 3996SOL    HW112887   6.844   0.605   2.991 -1.2853  1.0594 -2.5987
 3996SOL    HW212888   6.903   0.453   2.996  0.6111  1.7736  2.5050
 3997SOL     OW12889   5.871   3.621   2.390 -0.6100  0.7686  0.8638
 3997SOL    HW112890   5.940   3.575   2.446 -0.3651  1.1503  0.8748
 3997SOL    HW212891   5.783   3.620   2.439 -0.9474 -0.8604  0.3060
 3998SOL     OW12892   0.111   2.123   3.289  0.7655 -0.1981  0.7222
 3998SOL    HW112893   0.144   2.160   3.202  0.5671 -2.1591 -0.2522
 3998SOL    HW212894   0.059   2.193   3.337  0.5374  0.8358 -0.9357
 3999SOL     OW12895   4.252   1.809   6.988  0.4839  0.2909  0.0760
 3999SOL    HW112896   4.320   1.829   6.919 -0.7692  1.6141 -0.8355
 3999SOL    HW212897   4.259   1.876   7.063  1.3613 -0.6918  0.8926
 4000SOL     OW12898   3.535   4.974   1.190 -0.2280  0.5924 -0.0159
 4000SOL    HW112899   3.532   4.921   1.105  0.9004  0.0190  0.2880
 4000SOL    HW212900   3.526   5.071   1.168 -2.9829  0.2998 -0.5277
 4001SOL     OW12901   1.915   5.203   3.257  0.0285  0.1803 -0.2889
 4001SOL    HW112902   1.899   5.105   3.267 -0.2789  0.2839  0.2616
 4001SOL    HW212903   2.008   5.218   3.223  0.2581 -0.2837  0.1243
 4002SOL     OW12904   3.080   4.024   4.001  0.1276  0.1035  0.5860
 4002SOL    HW112905   3.106   4.037   4.097  1.3517 -2.0306  0.6029
 4002SOL    HW212906   2.994   4.071   3.983  0.3581  1.3405  2.4745
 4003SOL     OW12907   3.045   0.854   5.749 -0.2318  0.0066 -0.0643
 4003SOL    HW112908   3.134   0.884   5.715 -0.3809  0.1974 -0.2930
 4003SOL    HW212909   3.019   0.768   5.704 -0.4552  0.2887 -0.4907
 4004SOL     OW12910   6.695   4.777   4.518 -0.1089 -0.2303 -0.6148
 4004SOL    HW112911   6.775   4.729   4.482 -1.2316 -0.7327 -2.5350
 4004SOL    HW212912   6.716   4.874   4.529  1.2441 -0.6076  0.4753
 4005SOL     OW12913   5.406   4.242   1.031 -0.4379  0.0866 -0.9175
 4005SOL    HW112914   5.463   4.322   1.051 -1.8846  1.0460 -0.4742
 4005SOL    HW212915   5.453   4.160   1.062  0.8189  0.8094 -0.8180
 4006SOL     OW12916   5.539   4.319   3.227 -0.2436  0.0888  0.3556
 4006SOL    HW112917   5.540   4.238   3.286 -2.6454 -0.5092 -0.3088
 4006SOL    HW212918   5.498   4.396   3.276  0.1385  0.3262  0.3075
 4007SOL     OW12919   5.319   1.121   2.226  0.2981  0.0524 -0.1450
 4007SOL    HW112920   5.373   1.173   2.292  1.4965 -1.0467 -0.2139
 4007SOL    HW212921   5.238   1.173   2.200  1.1721  1.6312  0.1974
 4008SOL     OW12922   3.909   6.962   0.480 -0.4636  0.5065 -0.1262
 4008SOL    HW112923   3.903   6.954   0.380 -2.2428 -0.9871  0.0527
 4008SOL    HW212924   3.923   6.872   0.520 -1.7363  0.8170  1.0841
 4009SOL     OW12925   3.945   2.055   6.768  0.8126  0.2858  0.0885
 4009SOL    HW112926   3.937   2.010   6.679  1.9887  1.3133 -0.5646
 4009SOL    HW212927   3.937   1.987   6.841  4.2928 -1.3395 -0.8709
 4010SOL     OW12928   0.926   6.172   2.610 -0.6605  0.3675  0.1034
 4010SOL    HW112929   0.985   6.237   2.563  0.7677 -1.1518 -0.2759
 4010SOL    HW212930   0.857   6.137   2.546  2.3276 -3.0001 -1.5743
 4011SOL     OW12931   6.800   6.510   6.885 -0.2981 -0.2229 -0.3279
 4011SOL    HW112932   6.734   6.445   6.847 -1.4548 -0.0835  1.3398
 4011SOL    HW212933   6.835   6.474   6.972  0.8525  0.3172 -0.5527
 4012SOL     OW12934   3.429   6.777   4.162 -0.1912  0.4603 -0.0950
 4012SOL    HW112935   3.445   6.868   4.123 -1.4921  0.5098 -0.5519
 4012SOL    HW212936   3.335   6.771   4.196  0.5461  0.0347  2.0552
 4013SOL     OW12937   6.276   1.965   5.864  0.2666  0.4208  0.1993
 4013SOL    HW112938   6.321   1.929   5.946 -0.5527  1.6511  1.2155
 4013SOL    HW212939   6.180   1.939   5.865 -0.1262  1.8330  0.4831
 4014SOL     OW12940   3.417   4.920   0.462  0.0653 -0.0614  0.1694
 4014SOL    HW112941   3.414   4.826   0.427 -0.2370 -0.4480  1.2151
 4014SOL    HW212942   3.369   4.980   0.398 -1.1572 -0.8883  0.2765
 4015SOL     OW12943   6.792   4.731   1.712  0.2195  0.3725  0.3950
 4015SOL    HW112944   6.815   4.821   1.747 -0.3822  0.8523 -0.4135
 4015SOL    HW212945   6.849   4.662   1.758  0.9738  1.1924  0.7257
 4016SOL     OW12946   5.701   1.333   6.645 -0.0595 -0.0596 -0.6839
 4016SOL    HW112947   5.799   1.343   6.627  0.1082 -1.4770 -0.6854
 4016SOL    HW212948   5.649   1.371   6.569  0.5399 -1.0431 -1.6039
 4017SOL     OW12949   0.902   5.500   4.085 -0.0720 -0.3076 -0.3743
 4017SOL    HW112950   0.921   5.597   4.074 -1.7035  0.1701  0.6995
 4017SOL    HW212951   0.970   5.459   4.145  0.2322  0.3149 -0.2873
 4018SOL     OW12952   2.843   6.679   1.386 -0.6747 -0.3832  0.4844
 4018SOL    HW112953   2.885   6.605   1.438  1.1584  0.0328 -0.3240
 4018SOL    HW212954   2.901   6.761   1.392 -0.0229 -0.4944 -2.6653
 4019SOL     OW12955   5.973   3.716   4.363 -0.0239 -0.6508 -0.4667
 4019SOL    HW112956   6.008   3.657   4.436 -1.0711  0.0325  0.6313
 4019SOL    HW212957   5.895   3.671   4.318 -1.0358 -0.0239  0.5909
 4020SOL     OW12958   6.795   4.656   2.740  0.1989  0.2675 -0.0625
 4020SOL    HW112959   6.777   4.596   2.662  1.3505 -0.6663  0.3564
 4020SOL    HW212960   6.765   4.611   2.824  3.4761 -1.0150  0.5734
 4021SOL     OW12961   5.039   4.747   6.860 -0.2946  0.6142  0.0923
 4021SOL    HW112962   5.131   4.766   6.894  0.8060 -1.0787 -1.7040
 4021SOL    HW212963   4.973   4.754   6.935  1.4200  1.0238  1.6143
 4022SOL     OW12964   0.867   0.735   5.870  0.3359 -0.4645  0.2745
 4022SOL    HW112965   0.794   0.799   5.844  0.9254 -0.1018 -0.5298
 4022SOL    HW212966   0.946   0.750   5.811  0.5882 -1.7528  0.2627
 4023SOL     OW12967   1.588   2.236   1.172 -0.0625  0.2839 -0.0518
 4023SOL    HW112968   1.507   2.215   1.227  0.2131 -0.5259  0.0526
 4023SOL    HW212969   1.607   2.334   1.177 -0.4648  0.3288  0.7041
 4024SOL     OW12970   0.162   5.017   5.299  0.0177 -0.0788  0.3540
 4024SOL    HW112971   0.088   5.005   5.233  1.5182  2.6929 -2.0827
 4024SOL    HW212972   0.147   5.101   5.351 -0.2995 -1.3873  2.4875
 4025SOL     OW12973   0.728   6.942   4.489  0.5603 -0.4198 -0.8377
 4025SOL    HW112974   0.648   6.898   4.448  0.5950  0.0202 -1.3817
 4025SOL    HW212975   0.776   6.876   4.546 -0.9589 -0.3143  0.6276
 4026SOL     OW12976   6.668   0.656   3.203 -0.3705 -0.1850  0.1392
 4026SOL    HW112977   6.699   0.708   3.123  0.4775 -2.2697 -0.9664
 4026SOL    HW212978   6.722   0.683   3.283 -0.6207  1.2927 -0.1471
 4027SOL     OW12979   2.578   4.622   6.413 -0.4490 -0.3790  0.1114
 4027SOL    HW112980   2.489   4.585   6.437 -0.5606 -0.9844 -1.1529
 4027SOL    HW212981   2.583   4.635   6.314  0.3179  1.1109  0.3209
 4028SOL     OW12982   4.747   1.205   2.992  0.5328 -0.1064 -0.0287
 4028SOL    HW112983   4.749   1.284   3.054 -0.4262 -0.1932  0.1306
 4028SOL    HW212984   4.797   1.129   3.034  2.1543  0.6257 -0.5261
 4029SOL     OW12985   2.750   5.732   0.265 -0.2445 -0.2225  0.5993
 4029SOL    HW112986   2.776   5.665   0.195  2.5956  2.0112 -0.7320
 4029SOL    HW212987   2.754   5.690   0.355  1.9041 -1.7721 -0.1345
 4030SOL     OW12988   1.106   1.888   3.757 -0.1882  0.2696  0.5912
 4030SOL    HW112989   1.177   1.838   3.706  0.1441  0.6515  0.6728
 4030SOL    HW212990   1.150   1.946   3.826 -0.5142  1.3699 -0.1043
 4031SOL     OW12991   5.545   6.972   0.797  0.2656  0.2822  0.4417
 4031SOL    HW112992   5.596   6.948   0.880 -0.5468 -1.1294  0.5697
 4031SOL    HW212993   5.455   6.929   0.799  0.0156  0.6734 -0.9247
 4032SOL     OW12994   5.817   6.659   1.138  0.5259  0.2569 -0.0313
 4032SOL    HW112995   5.896   6.620   1.185  0.8078 -0.7075 -1.2642
 4032SOL    HW212996   5.848   6.717   1.063  0.0831 -0.6205 -0.9114
 4033SOL     OW12997   2.249   2.430   4.328 -0.6219  0.0305  0.5907
 4033SOL    HW112998   2.319   2.374   4.372  1.7753  1.1042 -1.5970
 4033SOL    HW212999   2.243   2.518   4.374 -0.6049 -0.0992  0.8447
 4034SOL     OW13000   1.249   2.670   5.008 -0.2605  0.0880  0.0759
 4034SOL    HW113001   1.310   2.627   5.074  0.0753  1.4928  0.7266
 4034SOL    HW213002   1.248   2.617   4.923  0.2724 -1.0560  0.7658
 4035SOL     OW13003   6.571   1.258   1.446 -0.6760 -0.1977 -0.1434
 4035SOL    HW113004   6.569   1.231   1.350  0.4530  0.0800 -0.2600
 4035SOL    HW213005   6.600   1.353   1.454  0.5604 -0.5956  0.5147
 4036SOL     OW13006   1.882   5.851   5.215 -0.5915 -0.5255 -0.0077
 4036SOL    HW113007   1.975   5.888   5.214 -0.8441  0.1607  0.7161
 4036SOL    HW213008   1.823   5.908   5.158 -0.6068 -0.8685 -0.3381
 4037SOL     OW13009   2.035   1.542   6.730  0.2700  0.1442  0.2986
 4037SOL    HW113010   2.049   1.555   6.632  0.3343 -0.2411  0.2529
 4037SOL    HW213011   2.050   1.445   6.753 -0.9409 -0.0080  0.4873
 4038SOL     OW13012   2.476   5.425   6.973 -0.0339  0.1321 -0.3352
 4038SOL    HW113013   2.575   5.415   6.984 -0.0069  0.3569 -0.3808
 4038SOL    HW213014   2.430   5.352   7.023  0.1573 -0.0205 -0.3792
 4039SOL     OW13015   6.664   4.818   1.455  0.1818 -0.2295  0.1005
 4039SOL    HW113016   6.682   4.747   1.522  2.6472 -0.1985 -0.4148
 4039SOL    HW213017   6.708   4.903   1.484 -0.3438  0.3125 -0.6472
 4040SOL     OW13018   2.191   5.242   3.200 -0.8396 -0.3521 -0.2447
 4040SOL    HW113019   2.222   5.305   3.129  2.2394  0.7431  1.8344
 4040SOL    HW213020   2.264   5.177   3.222 -1.9261 -1.0781  1.4496
 4041SOL     OW13021   0.843   5.491   6.654 -0.2238 -0.0580 -0.3142
 4041SOL    HW113022   0.862   5.393   6.660  0.8387  0.0992 -0.9193
 4041SOL    HW213023   0.885   5.529   6.572 -1.1313  0.8041 -0.4054
 4042SOL     OW13024   5.857   1.626   5.001  0.4673 -0.7890 -0.5949
 4042SOL    HW113025   5.899   1.539   5.028  1.3039 -0.2629 -0.1314
 4042SOL    HW213026   5.915   1.702   5.033 -1.3146  0.0243  0.9498
 4043SOL     OW13027   5.713   4.412   1.099  0.5431 -0.7276  0.7285
 4043SOL    HW113028   5.637   4.475   1.112  1.4410  0.9766 -1.5779
 4043SOL    HW213029   5.785   4.432   1.165  0.2257 -0.3193  0.9533
 4044SOL     OW13030   6.218   4.997   3.970  0.7147 -0.4712 -0.1809
 4044SOL    HW113031   6.195   5.078   4.023  0.9942 -0.7438  0.3658
 4044SOL    HW213032   6.240   4.921   4.032 -0.2775 -1.1873 -0.6768
 4045SOL     OW13033   3.529   5.199   4.831 -0.3868 -0.3504 -0.5714
 4045SOL    HW113034   3.430   5.213   4.838 -0.0034  2.2014  1.9778
 4045SOL    HW213035   3.552   5.108   4.866 -1.7434 -0.4762  0.0808
 4046SOL     OW13036   1.489   1.015   2.565 -0.2927 -0.2565 -0.7014
 4046SOL    HW113037   1.552   1.012   2.643 -1.2829 -2.4457  0.0718
 4046SOL    HW213038   1.540   0.998   2.481  0.3269 -0.9228 -0.2023
 4047SOL     OW13039   3.768   2.355   5.769 -0.4964 -0.2274 -0.1745
 4047SOL    HW113040   3.843   2.410   5.734 -1.1688  1.3856  0.8082
 4047SOL    HW213041   3.762   2.365   5.868 -0.8344 -1.8653 -0.0008
 4048SOL     OW13042   6.697   0.410   0.988 -0.3835  0.3564 -0.0267
 4048SOL    HW113043   6.730   0.480   1.051  0.5840 -0.2387  0.1557
 4048SOL    HW213044   6.687   0.449   0.897 -1.1594  1.0577  0.3439
 4049SOL     OW13045   2.819   6.076   5.722  0.0668 -0.0288  0.5306
 4049SOL    HW113046   2.738   6.120   5.761 -1.1843 -1.0364 -0.8011
 4049SOL    HW213047   2.793   6.029   5.638  1.3426 -3.0057  1.6532
 4050SOL     OW13048   6.732   0.001   3.413  0.4676  0.0859  0.5038
 4050SOL    HW113049   6.808  -0.058   3.440  1.3174  0.8199 -0.2231
 4050SOL    HW213050   6.650  -0.054   3.402  1.3703 -1.1060 -0.7585
 4051SOL     OW13051   6.660   1.356   6.040  0.0983  0.3422  0.1918
 4051SOL    HW113052   6.700   1.324   5.954 -0.8925  3.0294 -1.3815
 4051SOL    HW213053   6.587   1.294   6.067 -1.1533  0.6473 -2.2127
 4052SOL     OW13054   4.660   4.280   3.008 -0.2356  0.9160 -0.0053
 4052SOL    HW113055   4.587   4.323   3.060 -0.1538  0.0098  0.9012
 4052SOL    HW213056   4.740   4.267   3.067  0.7664  2.1243 -1.0484
 4053SOL     OW13057   1.332   3.966   3.950  0.2215 -0.0063 -0.1143
 4053SOL    HW113058   1.354   4.051   3.903  0.2371  1.8653  3.0010
 4053SOL    HW213059   1.417   3.916   3.968  0.5264  0.6542  0.3364
 4054SOL     OW13060   4.003   5.290   0.766 -0.2631 -0.0916  0.1647
 4054SOL    HW113061   3.998   5.353   0.844  0.1488 -0.1945  0.2771
 4054SOL    HW213062   3.955   5.329   0.688  1.0907  0.9516 -0.1720
 4055SOL     OW13063   2.627   4.687   2.544 -0.6266 -0.0502  0.4858
 4055SOL    HW113064   2.620   4.671   2.446 -2.1928 -1.8404  0.8276
 4055SOL    HW213065   2.705   4.746   2.563 -0.2595  0.2822 -1.8109
 4056SOL     OW13066   4.046   2.737   0.011  0.0275  0.4479 -0.4998
 4056SOL    HW113067   4.112   2.779  -0.052  0.1143  0.4843 -0.3832
 4056SOL    HW213068   4.011   2.653  -0.030  1.7640 -0.7555  0.3517
 4057SOL     OW13069   6.713   3.326   6.577  0.9248 -0.0179 -0.3069
 4057SOL    HW113070   6.642   3.355   6.514 -0.8244 -0.6338  1.2747
 4057SOL    HW213071   6.726   3.227   6.569  1.7927  0.1249 -0.7495
 4058SOL     OW13072   2.111   4.269   4.522 -0.0184  0.5156 -0.2732
 4058SOL    HW113073   2.205   4.289   4.551 -0.4016  0.2052  1.2429
 4058SOL    HW213074   2.070   4.351   4.482  1.6355  0.0810 -3.1441
 4059SOL     OW13075   2.268   1.176   4.063  0.0278  0.2320 -0.0919
 4059SOL    HW113076   2.299   1.220   3.979  0.0503 -0.2908 -0.3603
 4059SOL    HW213077   2.333   1.195   4.136 -0.5115  1.5511  0.0852
 4060SOL     OW13078   0.069   3.823   4.289  0.7760 -0.4502  0.3740
 4060SOL    HW113079  -0.031   3.824   4.281  0.8654  0.1844 -1.0873
 4060SOL    HW213080   0.106   3.909   4.254  2.0174 -2.1982 -3.0870
 4061SOL     OW13081   2.078   6.436   1.820  0.2577  0.1202 -0.1822
 4061SOL    HW113082   2.082   6.349   1.868  1.8079  0.1049 -0.2760
 4061SOL    HW213083   2.007   6.493   1.861 -0.2156 -0.8704  0.4169
 4062SOL     OW13084   1.128   2.017   6.855 -0.6371  0.0806  0.3483
 4062SOL    HW113085   1.201   2.040   6.791 -0.5581  0.8169  0.6987
 4062SOL    HW213086   1.063   2.092   6.860 -1.6203 -0.6996 -0.2207
 4063SOL     OW13087   4.215   1.436   1.071  0.5291 -0.4843 -0.0520
 4063SOL    HW113088   4.141   1.493   1.034 -0.1759 -0.6357  1.0617
 4063SOL    HW213089   4.209   1.345   1.031  1.0021 -0.0949 -1.0370
 4064SOL     OW13090   2.467   2.220   5.703  0.3792 -0.2025  0.3171
 4064SOL    HW113091   2.456   2.181   5.612 -0.1623  0.1315  0.2374
 4064SOL    HW213092   2.380   2.213   5.753  0.8611 -1.0579  1.0742
 4065SOL     OW13093   2.087   0.167   0.400  0.4718 -0.4127  0.1593
 4065SOL    HW113094   2.047   0.092   0.347  1.5278 -0.0583 -1.1733
 4065SOL    HW213095   2.014   0.214   0.450 -0.9596  0.5413 -2.5987
 4066SOL     OW13096   0.580   2.801   3.088 -0.2727  0.0770 -0.0140
 4066SOL    HW113097   0.557   2.804   3.185 -0.2704  3.3512  0.0065
 4066SOL    HW213098   0.676   2.776   3.077  0.1942  1.2999  0.9942
 4067SOL     OW13099   6.367   4.235   1.641  0.0521 -0.0115  0.1701
 4067SOL    HW113100   6.459   4.266   1.663 -0.4427 -0.2585  2.8901
 4067SOL    HW213101   6.309   4.240   1.722 -2.6125  0.9417 -1.6315
 4068SOL     OW13102   1.156   2.130   6.285  0.6580  0.2640  0.5505
 4068SOL    HW113103   1.162   2.142   6.186  1.6387 -1.9534  0.2850
 4068SOL    HW213104   1.123   2.215   6.327 -1.3080  0.7747 -1.7979
 4069SOL     OW13105   5.482   1.513   6.508  1.0446 -0.2863 -0.2302
 4069SOL    HW113106   5.504   1.421   6.476 -1.0309 -1.0240  0.2611
 4069SOL    HW213107   5.462   1.511   6.606  2.8808  1.0944  0.2292
 4070SOL     OW13108   6.803   2.028   1.303 -0.3439 -0.1125 -0.1778
 4070SOL    HW113109   6.897   2.030   1.339 -0.5194 -0.3853  0.3030
 4070SOL    HW213110   6.805   2.009   1.205  0.0637 -0.9443 -0.0156
 4071SOL     OW13111   6.333   6.602   3.762 -0.5747  0.0585 -0.4799
 4071SOL    HW113112   6.425   6.626   3.794  0.3550 -1.1799 -2.1308
 4071SOL    HW213113   6.273   6.682   3.773  0.6061  0.8145  0.8546
 4072SOL     OW13114   2.388   5.408   4.339 -0.0995 -0.6768 -0.3718
 4072SOL    HW113115   2.399   5.339   4.267 -1.2291  0.7434 -1.9889
 4072SOL    HW213116   2.335   5.485   4.303  0.5149  0.7282  1.5923
 4073SOL     OW13117   1.278   5.240   0.114 -0.7836 -0.1332  0.6238
 4073SOL    HW113118   1.178   5.228   0.118 -1.2036  2.2256 -1.0709
 4073SOL    HW213119   1.311   5.212   0.024 -0.1649  0.5796  0.6248
 4074SOL     OW13120   0.602   5.694   0.944  0.2441  0.3881 -0.5282
 4074SOL    HW113121   0.695   5.688   0.980  0.1778 -0.3782 -0.4686
 4074SOL    HW213122   0.571   5.789   0.947  0.8668  0.5847 -0.1588
 4075SOL     OW13123   2.828   6.723   0.849  0.1326 -0.0504 -0.0744
 4075SOL    HW113124   2.832   6.714   0.949 -1.5289  0.8125  0.1112
 4075SOL    HW213125   2.751   6.782   0.825  0.2734 -0.5760 -1.8985
 4076SOL     OW13126   1.597   3.477   6.233  0.4407 -0.0348 -0.0506
 4076SOL    HW113127   1.550   3.478   6.145 -0.4610  1.1405  0.4218
 4076SOL    HW213128   1.696   3.470   6.218  0.2972  0.1002 -1.1417
 4077SOL     OW13129   4.471   0.846   2.105  0.0452  0.0491 -0.1335
 4077SOL    HW113130   4.453   0.749   2.123  0.7341  0.0292  0.4792
 4077SOL    HW213131   4.511   0.856   2.014  0.5052 -0.3011  0.0267
 4078SOL     OW13132   4.259   5.230   2.262  0.0165  0.3417 -0.3115
 4078SOL    HW113133   4.166   5.208   2.294 -0.1387  1.0283 -0.2691
 4078SOL    HW213134   4.323   5.163   2.299 -0.4023  0.1262  0.0396
 4079SOL     OW13135   1.301   2.805   4.615 -0.6999  0.3127  0.5086
 4079SOL    HW113136   1.392   2.847   4.605 -0.5505 -0.4157 -1.5456
 4079SOL    HW213137   1.232   2.866   4.576 -0.6628 -0.6284 -1.0819
 4080SOL     OW13138   4.873   3.902   4.894 -0.8292 -0.0098 -0.1107
 4080SOL    HW113139   4.849   3.807   4.913  1.4843 -1.3515 -3.0917
 4080SOL    HW213140   4.968   3.918   4.918 -1.4448  1.9196  1.2817
 4081SOL     OW13141   2.584   2.545   4.490 -0.0763 -0.0111  0.1711
 4081SOL    HW113142   2.599   2.467   4.550 -2.8412 -0.1957  0.7291
 4081SOL    HW213143   2.560   2.513   4.398 -1.6247  0.1327  0.5048
 4082SOL     OW13144   0.898   3.399   1.370 -0.0574 -0.5851  0.2395
 4082SOL    HW113145   0.980   3.366   1.418  0.7069 -0.9982 -1.2580
 4082SOL    HW213146   0.926   3.453   1.291 -1.1085 -2.7496 -1.7422
 4083SOL     OW13147   3.921   2.153   4.219 -0.2521 -0.8073 -0.4243
 4083SOL    HW113148   4.012   2.152   4.179  0.2041 -2.2687  0.5768
 4083SOL    HW213149   3.853   2.173   4.148  0.8985  1.6926 -0.9320
 4084SOL     OW13150   5.149   1.839   3.140 -0.0011  0.5156 -0.6889
 4084SOL    HW113151   5.217   1.830   3.066  1.1503  1.8946  0.1486
 4084SOL    HW213152   5.059   1.814   3.105  0.6754  0.1601 -2.2893
 4085SOL     OW13153   4.227   5.819   2.165  0.3389 -0.9016 -0.1651
 4085SOL    HW113154   4.139   5.777   2.143 -0.0197 -0.1635 -0.1615
 4085SOL    HW213155   4.300   5.753   2.149 -0.1212 -1.1685 -1.2163
 4086SOL     OW13156   2.156   3.742   2.603  0.2844  0.2248 -0.3607
 4086SOL    HW113157   2.184   3.721   2.509 -1.1193  1.1173 -1.0068
 4086SOL    HW213158   2.209   3.819   2.637  2.1807 -1.2868  0.3435
 4087SOL     OW13159   5.580   2.667   2.759  0.1881  0.9558  0.9527
 4087SOL    HW113160   5.545   2.732   2.691 -1.8903 -2.6104 -1.7283
 4087SOL    HW213161   5.515   2.657   2.833 -0.9573 -0.0738 -0.1374
 4088SOL     OW13162   5.135   3.588   1.201  0.1057  0.4076 -0.2328
 4088SOL    HW113163   5.119   3.666   1.262 -1.2478 -0.6818  0.8851
 4088SOL    HW213164   5.047   3.555   1.166  0.6583 -0.6280 -0.6710
 4089SOL     OW13165   3.216   6.748   3.578  0.6018 -0.4392  0.3825
 4089SOL    HW113166   3.177   6.678   3.638  2.1857 -1.9561 -0.2622
 4089SOL    HW213167   3.197   6.724   3.483  0.3344  0.5617  0.1715
 4090SOL     OW13168   3.169   2.299   5.755  0.4775  0.0858 -0.0944
 4090SOL    HW113169   3.156   2.398   5.760  0.8795  0.1960 -0.9870
 4090SOL    HW213170   3.248   2.278   5.697  0.9064 -0.7383  0.7553
 4091SOL     OW13171   5.163   0.852   0.087 -0.1980  0.0078  0.4074
 4091SOL    HW113172   5.082   0.881   0.136  0.4569 -0.5804  1.8918
 4091SOL    HW213173   5.237   0.918   0.100  0.1035 -0.3525  0.5670
 4092SOL     OW13174   0.378   3.529   5.954  0.5893 -0.1664 -0.2639
 4092SOL    HW113175   0.440   3.549   6.029  1.5402 -1.0709 -0.7790
 4092SOL    HW213176   0.311   3.460   5.983  0.8867 -0.4346 -0.2164
 4093SOL     OW13177   6.465   1.349   2.655  0.2769  0.0034 -0.8511
 4093SOL    HW113178   6.542   1.397   2.612 -0.8432  1.5955 -1.1544
 4093SOL    HW213179   6.400   1.320   2.585 -1.0440  1.6840 -0.4037
 4094SOL     OW13180   1.711   4.069   4.479  0.7702  0.1955 -0.1031
 4094SOL    HW113181   1.668   4.130   4.545  2.1270  0.2382  0.8039
 4094SOL    HW213182   1.744   4.121   4.401  0.9840  0.4829  0.1726
 4095SOL     OW13183   0.483   3.859   6.669  0.2813 -0.3058  0.0390
 4095SOL    HW113184   0.435   3.844   6.755  0.1591 -0.1414  0.0020
 4095SOL    HW213185   0.581   3.849   6.683  0.1396 -2.9886 -0.3733
 4096SOL     OW13186   5.182   6.424   1.371  0.3391 -0.1412  0.3452
 4096SOL    HW113187   5.087   6.439   1.345  0.9703  0.3238 -1.9007
 4096SOL    HW213188   5.188   6.346   1.434 -1.5512  0.1906  0.9981
 4097SOL     OW13189   2.922   2.182   4.915  0.0173 -0.3120 -0.2036
 4097SOL    HW113190   2.994   2.221   4.972  0.4263  1.0887 -1.5835
 4097SOL    HW213191   2.839   2.237   4.923  0.3570  0.4581 -1.5800
 4098SOL     OW13192   1.385   3.948   1.358 -0.0204 -0.4164 -0.8079
 4098SOL    HW113193   1.285   3.938   1.352 -0.0154  0.3705 -3.3605
 4098SOL    HW213194   1.407   4.040   1.391 -0.0948 -0.7947  0.3584
 4099SOL     OW13195   3.490   6.466   2.288 -0.1462 -0.1331  0.4929
 4099SOL    HW113196   3.564   6.532   2.281  1.7277 -2.1544  0.1829
 4099SOL    HW213197   3.449   6.471   2.379  0.1553  1.2105  0.5719
 4100SOL     OW13198   3.844   5.428   4.049  0.1844  0.1652 -0.4938
 4100SOL    HW113199   3.772   5.365   4.017 -0.2291  1.1942 -1.6761
 4100SOL    HW213200   3.863   5.409   4.145 -1.3553 -0.4412 -0.2633
 4101SOL     OW13201   6.106   1.841   6.115  0.6100  0.1456 -0.1549
 4101SOL    HW113202   6.201   1.828   6.084  0.8288  2.4347 -0.6346
 4101SOL    HW213203   6.049   1.766   6.080  2.0968 -0.9127 -0.4281
 4102SOL     OW13204   6.473   0.406   1.370  0.0125  0.0698 -0.2879
 4102SOL    HW113205   6.533   0.467   1.423  0.3382  0.0022 -0.5777
 4102SOL    HW213206   6.421   0.348   1.433  0.5397 -0.1448 -0.0491
 4103SOL     OW13207   1.061   0.549   1.941 -0.4760  0.2951  0.0653
 4103SOL    HW113208   1.102   0.475   1.889  0.2026  0.4874  0.3206
 4103SOL    HW213209   1.023   0.617   1.878  0.5897  0.6672 -0.1953
 4104SOL     OW13210   2.550   4.689   3.035 -0.2269 -0.1068 -0.4687
 4104SOL    HW113211   2.468   4.740   3.062 -0.0857  0.2953 -0.7931
 4104SOL    HW213212   2.544   4.665   2.938 -0.1075 -0.3578 -0.4153
 4105SOL     OW13213   5.041   6.285   0.247 -0.3404  0.5843 -0.3112
 4105SOL    HW113214   5.082   6.194   0.239 -2.0640 -0.6574  3.1028
 4105SOL    HW213215   4.973   6.296   0.175 -0.6852 -1.1957 -0.3211
 4106SOL     OW13216   5.659   3.564   4.826  0.3139  0.2520 -0.5064
 4106SOL    HW113217   5.712   3.568   4.911  0.4131  2.0575 -0.6247
 4106SOL    HW213218   5.568   3.603   4.841  0.5514  1.1583 -1.3822
 4107SOL     OW13219   0.900   4.269   6.686 -0.4439  0.2499 -0.0218
 4107SOL    HW113220   1.000   4.265   6.697 -0.5124  0.6614  0.7716
 4107SOL    HW213221   0.878   4.281   6.589  0.2863  0.4243 -0.1709
 4108SOL     OW13222   0.108   0.305   6.030  0.1896 -0.5552 -0.0932
 4108SOL    HW113223   0.086   0.379   6.093  0.6704 -0.2062 -0.3316
 4108SOL    HW213224   0.139   0.343   5.943 -0.8465 -1.0346 -0.6847
 4109SOL     OW13225   3.948   6.537   3.547 -0.3274 -0.3191 -0.0479
 4109SOL    HW113226   3.962   6.579   3.637  0.2864  0.3206 -0.4393
 4109SOL    HW213227   3.871   6.582   3.501 -0.4299 -0.4286  0.0133
 4110SOL     OW13228   3.970   3.843   6.597 -0.5102  0.3226  0.2298
 4110SOL    HW113229   3.881   3.855   6.642 -0.0958  0.6539  0.9917
 4110SOL    HW213230   3.999   3.748   6.606 -1.6225 -0.2497 -1.6585
 4111SOL     OW13231   3.870   3.266   5.904 -0.2409  0.0357  0.3066
 4111SOL    HW113232   3.952   3.316   5.930  1.0333 -1.0591 -1.3651
 4111SOL    HW213233   3.854   3.274   5.805 -1.9681 -0.0564  0.5315
 4112SOL     OW13234   3.862   1.987   4.539 -0.1396 -0.2546 -0.0590
 4112SOL    HW113235   3.920   2.063   4.508 -1.1074  0.2007 -0.8035
 4112SOL    HW213236   3.843   1.998   4.636  0.7511 -0.2330  0.1247
 4113SOL     OW13237   1.872   5.073   5.040  0.0709  0.7390 -0.2251
 4113SOL    HW113238   1.892   5.052   4.944 -0.4472  0.9700 -0.3852
 4113SOL    HW213239   1.941   5.030   5.098 -0.4536 -0.6529 -0.5962
 4114SOL     OW13240   2.786   0.786   4.417  0.0211 -0.2849  0.0778
 4114SOL    HW113241   2.773   0.783   4.318  2.9179 -2.5277 -0.3737
 4114SOL    HW213242   2.867   0.841   4.438 -0.7382  0.4235  1.2912
 4115SOL     OW13243   6.073   0.429   1.965  0.5481  0.4819 -0.4284
 4115SOL    HW113244   6.002   0.448   1.898  1.0009 -1.0206 -1.3803
 4115SOL    HW213245   6.163   0.429   1.919  1.0169  0.8588  0.4621
 4116SOL     OW13246   4.685   1.442   1.700 -0.3110  0.0026  0.0870
 4116SOL    HW113247   4.699   1.533   1.660 -2.5169 -0.4622 -1.9474
 4116SOL    HW213248   4.657   1.452   1.796  0.4585  1.3846  0.2011
 4117SOL     OW13249   6.934   5.241   0.394  0.0044  0.1453 -0.0554
 4117SOL    HW113250   7.005   5.275   0.332  1.1658 -1.2311  0.4804
 4117SOL    HW213251   6.909   5.148   0.368 -0.1474 -0.1144  0.9887
 4118SOL     OW13252   1.184   0.257   1.785 -0.4061  0.2437 -0.2314
 4118SOL    HW113253   1.240   0.256   1.702 -0.8364 -0.6631 -0.5272
 4118SOL    HW213254   1.202   0.174   1.839  2.4193  2.3480  2.3802
 4119SOL     OW13255   3.511   2.069   4.126  0.0523  0.2541  0.2191
 4119SOL    HW113256   3.551   2.088   4.216 -1.2045  0.6890  0.6962
 4119SOL    HW213257   3.437   2.002   4.136 -1.4457  1.7964 -0.1662
 4120SOL     OW13258   3.784   5.200   1.703  0.3687  0.0006 -0.2901
 4120SOL    HW113259   3.772   5.285   1.651 -0.2428  0.4224  0.5213
 4120SOL    HW213260   3.779   5.122   1.641 -1.5329  0.4231 -0.7137
 4121SOL     OW13261   5.661   2.174   3.783  0.0509 -0.0174 -0.1534
 4121SOL    HW113262   5.685   2.081   3.756  1.4081  0.1822  0.2844
 4121SOL    HW213263   5.696   2.192   3.875 -0.3460  0.8718 -0.1647
 4122SOL     OW13264   5.821   4.771   5.088 -0.1622 -0.1948 -0.4102
 4122SOL    HW113265   5.776   4.741   5.003  0.1963 -0.5002 -0.4931
 4122SOL    HW213266   5.784   4.860   5.115 -0.3686 -0.1533 -0.8201
 4123SOL     OW13267   5.340   5.026   0.215 -0.1634 -0.2849 -0.1721
 4123SOL    HW113268   5.437   5.031   0.238 -0.4530  2.1111  0.7833
 4123SOL    HW213269   5.313   4.930   0.208  1.8812 -1.0343  1.1580
 4124SOL     OW13270   5.801   6.184   4.303  0.2703 -0.2396  0.1396
 4124SOL    HW113271   5.894   6.151   4.319  0.4834 -0.4000 -1.2743
 4124SOL    HW213272   5.804   6.277   4.266  0.0175 -0.9538 -1.8199
 4125SOL     OW13273   5.639   1.286   2.851 -0.1660  0.2232  0.8659
 4125SOL    HW113274   5.615   1.220   2.780  0.6269 -0.2665  1.0444
 4125SOL    HW213275   5.663   1.237   2.935 -3.1625  0.7911  2.2168
 4126SOL     OW13276   2.245   4.685   3.533 -0.7266  0.4225  0.0839
 4126SOL    HW113277   2.189   4.760   3.499  0.5665  1.6440  0.5191
 4126SOL    HW213278   2.227   4.671   3.631 -0.0552  1.0452  0.3045
 4127SOL     OW13279   6.855   3.771   4.026  0.4665 -0.1382 -0.1212
 4127SOL    HW113280   6.881   3.863   4.052 -0.9697  0.4000 -0.4831
 4127SOL    HW213281   6.886   3.753   3.932 -0.0893  0.3590 -0.4127
 4128SOL     OW13282   1.229   3.945   2.938  0.3491  0.1396 -0.0898
 4128SOL    HW113283   1.149   3.998   2.966 -0.0651 -0.3540 -0.3205
 4128SOL    HW213284   1.229   3.857   2.986  1.5242  0.7030  0.9827
 4129SOL     OW13285   5.632   2.506   5.832 -0.0477 -0.1007  0.3775
 4129SOL    HW113286   5.691   2.585   5.818 -1.8230  1.4030  0.9350
 4129SOL    HW213287   5.584   2.484   5.747  1.1248 -1.2207 -0.0324
 4130SOL     OW13288   5.494   4.471   5.882 -0.1587  0.7690  0.0698
 4130SOL    HW113289   5.406   4.427   5.898 -1.5626  2.7154 -1.7698
 4130SOL    HW213290   5.493   4.563   5.922  0.8119  1.0474 -0.5092
 4131SOL     OW13291   0.336   5.440   4.336 -0.0160 -0.1097  0.4881
 4131SOL    HW113292   0.317   5.462   4.432 -2.5269 -1.8315  0.4837
 4131SOL    HW213293   0.432   5.415   4.326  1.0602  2.9241  1.9117
 4132SOL     OW13294   5.543   3.545   5.785  0.5160 -0.2216 -0.0058
 4132SOL    HW113295   5.562   3.458   5.738  1.0133 -1.1011  1.7534
 4132SOL    HW213296   5.448   3.545   5.815  0.4553 -0.0498 -0.1948
 4133SOL     OW13297   2.740   6.248   1.378 -0.1793 -0.1050  0.1620
 4133SOL    HW113298   2.708   6.331   1.332  1.5546 -0.4634 -1.8642
 4133SOL    HW213299   2.675   6.174   1.362 -0.2045  0.0923 -0.7466
 4134SOL     OW13300   3.459   3.092   0.538  0.3521  0.2686  0.4634
 4134SOL    HW113301   3.388   3.086   0.608  1.0836  2.6205  1.5330
 4134SOL    HW213302   3.515   3.009   0.540 -1.3703 -0.9346  0.6746
 4135SOL     OW13303   6.928   1.274   3.798  0.2227  0.1599 -0.0801
 4135SOL    HW113304   6.896   1.354   3.847 -0.5532 -0.5885  0.6720
 4135SOL    HW213305   6.905   1.282   3.701 -1.3717  0.0944  0.2759
 4136SOL     OW13306   0.168   2.366   3.742 -0.2096 -0.2920  0.3389
 4136SOL    HW113307   0.141   2.450   3.695 -1.0286 -0.6808  0.0896
 4136SOL    HW213308   0.088   2.309   3.756  0.1802 -0.6143  1.3682
 4137SOL     OW13309   2.170   2.423   1.167  0.4607 -0.3202 -0.4330
 4137SOL    HW113310   2.132   2.459   1.082  1.4110 -0.8174 -1.0809
 4137SOL    HW213311   2.128   2.470   1.245  0.3366  0.8661 -1.1966
 4138SOL     OW13312   6.677   5.414   3.987 -0.4352 -0.2538  0.3449
 4138SOL    HW113313   6.741   5.416   4.064 -0.3596  0.9131  0.2674
 4138SOL    HW213314   6.702   5.483   3.920 -1.7243  0.1850  0.2780
 4139SOL     OW13315   1.265   2.986   1.000 -0.4686  0.0598  0.6602
 4139SOL    HW113316   1.362   3.013   1.000 -0.1682 -0.8749 -1.2056
 4139SOL    HW213317   1.243   2.941   1.087 -0.2380  3.4209  2.6821
 4140SOL     OW13318   5.041   0.777   3.199 -0.0454  0.4637  0.4806
 4140SOL    HW113319   5.109   0.825   3.254  0.0580  0.2047  0.5778
 4140SOL    HW213320   5.061   0.679   3.198  1.2473  0.6733 -1.8101
 4141SOL     OW13321   5.858   6.162   1.494 -0.6280 -0.1429 -0.2406
 4141SOL    HW113322   5.828   6.081   1.546  0.8696 -1.0809 -0.7697
 4141SOL    HW213323   5.954   6.151   1.469 -0.4031  1.8241 -0.3440
 4142SOL     OW13324   0.931   5.402   1.052 -0.0311  0.1790 -0.1613
 4142SOL    HW113325   0.904   5.313   1.089  1.7550  0.1042  1.0989
 4142SOL    HW213326   0.987   5.388   0.970  0.3802  0.1198  0.1261
 4143SOL     OW13327   0.940   1.688   5.101  0.0791 -0.5008  0.3591
 4143SOL    HW113328   0.918   1.773   5.148 -0.1812 -2.0361  3.2523
 4143SOL    HW213329   1.028   1.696   5.055 -0.7461  1.8309 -0.9808
 4144SOL     OW13330   5.166   1.238   2.785 -0.3955 -0.1478  0.4429
 4144SOL    HW113331   5.252   1.288   2.778  0.1270 -0.9817  0.6182
 4144SOL    HW213332   5.176   1.149   2.740 -0.7930 -0.7116  1.4318
 4145SOL     OW13333   0.373   0.244   2.293  0.3799  0.0624  0.3706
 4145SOL    HW113334   0.351   0.334   2.330  1.8053  0.1895  1.0011
 4145SOL    HW213335   0.388   0.180   2.369 -0.0686 -0.5590 -0.0624
 4146SOL     OW13336   5.572   1.618   0.261 -0.2670  0.7751  0.0356
 4146SOL    HW113337   5.524   1.704   0.279 -0.0377  0.5451  1.9144
 4146SOL    HW213338   5.567   1.559   0.341  0.4214 -0.5838 -0.8770
 4147SOL     OW13339   3.164   1.312   6.588  0.0716 -0.2305 -0.1363
 4147SOL    HW113340   3.144   1.359   6.502 -1.1592 -1.1159 -0.3570
 4147SOL    HW213341   3.244   1.354   6.631  0.1445  0.8225 -1.2490
 4148SOL     OW13342   5.874   6.841   3.306  0.3803  0.2506  0.2415
 4148SOL    HW113343   5.929   6.761   3.328  0.5977  0.2096 -0.4319
 4148SOL    HW213344   5.900   6.917   3.365 -0.5134 -0.4415  1.5730
 4149SOL     OW13345   4.641   2.689   6.909 -0.2527 -0.1855  0.0146
 4149SOL    HW113346   4.583   2.747   6.967 -0.0941 -0.4130  0.4006
 4149SOL    HW213347   4.584   2.637   6.846 -0.3352  1.4524 -1.3408
 4150SOL     OW13348   6.466   1.503   0.689  0.5667 -0.3479 -0.4091
 4150SOL    HW113349   6.425   1.422   0.647  0.9094 -0.2258 -0.9769
 4150SOL    HW213350   6.518   1.554   0.621  0.1082  0.5223 -0.1292
 4151SOL     OW13351   5.254   0.812   6.755 -0.5143 -0.6824 -0.7169
 4151SOL    HW113352   5.315   0.883   6.789 -1.9728  0.7378 -0.9310
 4151SOL    HW213353   5.236   0.746   6.829  0.3276 -0.4662 -0.3085
 4152SOL     OW13354   5.871   5.578   2.072  0.3610  0.1195  0.1368
 4152SOL    HW113355   5.922   5.537   1.996 -1.1358 -2.0399  0.1976
 4152SOL    HW213356   5.852   5.674   2.051  1.2491 -0.0288 -1.5445
 4153SOL     OW13357   0.330   3.999   6.473 -0.3343 -0.2988  0.4306
 4153SOL    HW113358   0.393   3.959   6.540  1.2918  0.3475 -0.6571
 4153SOL    HW213359   0.320   3.938   6.395 -0.5474 -0.1062  0.3038
 4154SOL     OW13360   5.800   4.456   6.204 -0.5072  0.4177  0.4115
 4154SOL    HW113361   5.846   4.398   6.271 -0.8681  0.6978  0.9027
 4154SOL    HW213362   5.717   4.494   6.243  0.1415  1.9193  0.3810
 4155SOL     OW13363   1.902   4.929   3.330  1.1193  0.0317  0.1069
 4155SOL    HW113364   1.835   4.868   3.372  1.0311  1.1132  1.6396
 4155SOL    HW213365   1.984   4.933   3.387  0.9125  1.7232  0.3515
 4156SOL     OW13366   6.943   6.797   4.914 -0.1947 -0.3167  0.1029
 4156SOL    HW113367   6.911   6.720   4.859 -0.1762 -1.4514  1.6208
 4156SOL    HW213368   6.974   6.764   5.003  2.4419  1.0838 -0.1810
 4157SOL     OW13369   2.026   5.567   4.821  0.0127  0.4974  0.1128
 4157SOL    HW113370   2.111   5.607   4.856 -0.3724  1.1189  0.3451
 4157SOL    HW213371   2.036   5.548   4.724  0.3980  0.6200  0.1265
 4158SOL     OW13372   0.423   5.863   3.733 -0.3751  0.5971  0.0678
 4158SOL    HW113373   0.483   5.939   3.707 -0.3125  0.4104 -0.3404
 4158SOL    HW213374   0.400   5.809   3.652  2.5271 -1.9725  0.7625
 4159SOL     OW13375   0.452   2.743   3.692  0.3522  0.0631 -0.1000
 4159SOL    HW113376   0.477   2.838   3.711  3.2933 -0.9913  2.0184
 4159SOL    HW213377   0.508   2.709   3.616  0.7562 -0.4911  0.4318
 4160SOL     OW13378   0.093   0.429   0.208 -0.4521 -0.3310  0.1044
 4160SOL    HW113379   0.142   0.514   0.189  0.7580 -1.4008 -2.0471
 4160SOL    HW213380   0.160   0.356   0.228 -1.4464 -0.8463  1.7319
 4161SOL     OW13381   1.904   0.955   0.875 -0.0977  0.7987  0.2248
 4161SOL    HW113382   1.875   1.049   0.893  0.3426  0.7167  1.4828
 4161SOL    HW213383   1.922   0.909   0.962 -0.2816 -0.4472 -0.3777
 4162SOL     OW13384   5.405   0.118   5.289 -0.0453  0.1576 -0.1346
 4162SOL    HW113385   5.345   0.082   5.217  0.9991  0.0091 -0.9622
 4162SOL    HW213386   5.493   0.072   5.284 -0.2007 -0.4198  1.7755
 4163SOL     OW13387   6.124   0.694   3.556  0.2995  0.5019 -0.1994
 4163SOL    HW113388   6.176   0.718   3.638 -1.2258  2.6627  0.2248
 4163SOL    HW213389   6.173   0.726   3.475  2.1007 -2.1495 -0.3059
 4164SOL     OW13390   1.924   1.504   0.218 -0.0364 -0.2314 -0.0752
 4164SOL    HW113391   1.842   1.550   0.253  0.2484  0.2865 -0.0815
 4164SOL    HW213392   2.002   1.527   0.276  0.5052  0.8550 -1.1888
 4165SOL     OW13393   5.072   0.305   6.237 -0.2823  0.4574 -0.0287
 4165SOL    HW113394   5.160   0.335   6.273 -0.7149  0.8664  0.7272
 4165SOL    HW213395   5.000   0.327   6.304 -0.7292 -1.4850  0.1901
 4166SOL     OW13396   3.743   2.970   0.552  0.2142 -0.1124  0.3433
 4166SOL    HW113397   3.797   3.039   0.503  0.3554 -0.2232  0.3440
 4166SOL    HW213398   3.775   2.879   0.527 -0.5823 -0.2062 -0.3621
 4167SOL     OW13399   0.745   2.812   1.988 -0.1446 -0.1955 -0.1376
 4167SOL    HW113400   0.820   2.824   2.053  1.5840  1.1169 -2.2165
 4167SOL    HW213401   0.704   2.901   1.967  1.0131 -0.1421 -2.5881
 4168SOL     OW13402   1.687   5.764   2.893 -0.1596 -0.3816  0.0241
 4168SOL    HW113403   1.773   5.713   2.900 -1.5682 -2.6374  2.7736
 4168SOL    HW213404   1.634   5.731   2.816  0.7485 -0.0654 -0.7514
 4169SOL     OW13405   3.542   4.909   4.019  0.2831 -0.2001  0.4445
 4169SOL    HW113406   3.478   4.844   4.060  0.5217 -0.0583  1.0509
 4169SOL    HW213407   3.617   4.927   4.082  1.6334 -1.3462 -0.7600
 4170SOL     OW13408   4.456   4.222   6.299 -0.0323 -0.2706  0.2136
 4170SOL    HW113409   4.486   4.167   6.221 -1.3680  1.3486 -1.5005
 4170SOL    HW213410   4.465   4.167   6.383  0.0201 -2.6000 -1.2199
 4171SOL     OW13411   5.249   4.015   1.238 -0.3086 -0.3698  0.2458
 4171SOL    HW113412   5.265   3.938   1.300  0.4368 -1.0042 -0.6961
 4171SOL    HW213413   5.269   3.986   1.144  0.4312  1.1058 -0.0737
 4172SOL     OW13414   0.292   0.256   0.537 -0.1611 -0.0481  0.0493
 4172SOL    HW113415   0.363   0.280   0.471  1.8375 -0.3302  1.9905
 4172SOL    HW213416   0.329   0.260   0.630 -2.3902 -1.3233  1.0881
 4173SOL     OW13417   4.982   3.090   4.907 -0.0965  0.2088 -0.4742
 4173SOL    HW113418   4.969   3.074   4.810 -0.7922  0.1515 -0.3725
 4173SOL    HW213419   4.938   3.175   4.934  0.5550  0.5034 -0.3098
 4174SOL     OW13420   0.059   0.356   4.174 -0.3726 -0.1044  0.7914
 4174SOL    HW113421   0.039   0.393   4.083  0.2458  1.5902  1.3142
 4174SOL    HW213422  -0.017   0.374   4.235  0.1185  0.7463  1.1668
 4175SOL     OW13423   2.664   6.094   3.620 -0.7111 -0.2915  0.1486
 4175SOL    HW113424   2.608   6.169   3.655 -2.0451 -1.1034 -0.1951
 4175SOL    HW213425   2.745   6.084   3.678 -1.4764  0.1770  1.3521
 4176SOL     OW13426   3.589   6.215   1.751  0.4865 -0.4033 -0.2456
 4176SOL    HW113427   3.678   6.239   1.712  1.2995 -2.6097  0.0970
 4176SOL    HW213428   3.516   6.248   1.692  1.6011 -0.4768 -1.7229
 4177SOL     OW13429   7.009   0.142   3.413  0.0680 -0.1229  0.2932
 4177SOL    HW113430   6.924   0.185   3.442 -0.7904 -1.5135 -0.0548
 4177SOL    HW213431   6.992   0.087   3.331  1.3379 -0.3299  0.1467
 4178SOL     OW13432   3.230   2.334   1.692 -0.2185 -0.2521  0.2866
 4178SOL    HW113433   3.329   2.342   1.701 -0.2745 -1.5433  2.7121
 4178SOL    HW213434   3.188   2.423   1.711  0.4250  0.2023 -0.3476
 4179SOL     OW13435   6.345   4.054   3.957 -0.0641 -0.3674 -0.5107
 4179SOL    HW113436   6.434   4.015   3.984  0.6707  1.4480 -0.1492
 4179SOL    HW213437   6.360   4.142   3.912 -1.7082  0.2192  0.0108
 4180SOL     OW13438   0.643   4.569   0.730  0.4893 -0.0424  0.1795
 4180SOL    HW113439   0.567   4.600   0.787 -0.8872  0.3120 -1.7476
 4180SOL    HW213440   0.609   4.508   0.659  1.7416  1.1927 -1.5723
 4181SOL     OW13441   1.942   2.813   6.221  0.3578  0.0420  0.3128
 4181SOL    HW113442   1.976   2.748   6.152  0.1454  1.3149 -1.0596
 4181SOL    HW213443   2.020   2.863   6.259  0.2843  3.1803 -3.0581
 4182SOL     OW13444   1.695   0.564   3.896 -0.1506  0.1606  0.3621
 4182SOL    HW113445   1.742   0.494   3.843 -1.2266 -0.3030 -0.0079
 4182SOL    HW213446   1.646   0.626   3.834 -2.4904 -1.1392  0.7837
 4183SOL     OW13447   0.733   0.922   2.696 -0.2598 -0.3338  0.2456
 4183SOL    HW113448   0.708   0.828   2.716 -0.2597 -0.4581 -0.3111
 4183SOL    HW213449   0.832   0.929   2.685 -0.2184 -0.1868  0.6924
 4184SOL     OW13450   5.144   5.116   6.839  0.0025 -0.4997  0.2468
 4184SOL    HW113451   5.159   5.152   6.747  0.3648  1.5709  1.0556
 4184SOL    HW213452   5.229   5.076   6.873  0.4546  0.5394  0.3920
 4185SOL     OW13453   0.988   0.486   4.435  0.3115 -0.0042 -0.1228
 4185SOL    HW113454   0.963   0.464   4.341 -1.9310  0.9177  0.1961
 4185SOL    HW213455   0.953   0.577   4.459  0.4418 -0.3932  1.7206
 4186SOL     OW13456   1.926   3.456   5.154  0.0388  0.1466 -0.3893
 4186SOL    HW113457   1.993   3.417   5.091  1.5231 -0.3260  1.3878
 4186SOL    HW213458   1.922   3.401   5.237 -0.7898  1.5349  0.5468
 4187SOL     OW13459   2.912   3.139   5.948  0.0696 -0.0019 -0.1534
 4187SOL    HW113460   2.832   3.187   5.985 -0.1592 -0.1799 -0.4101
 4187SOL    HW213461   2.905   3.136   5.848  1.2180  1.4259 -0.3107
 4188SOL     OW13462   5.757   0.423   3.072  0.3064  0.2491 -0.5606
 4188SOL    HW113463   5.736   0.398   2.977  2.1456  0.1517 -0.9793
 4188SOL    HW213464   5.785   0.342   3.122 -0.9464  0.2491  0.1817
 4189SOL     OW13465   3.057   6.495   3.113 -0.3290  0.0209 -0.7920
 4189SOL    HW113466   2.972   6.519   3.067 -0.5586 -0.0594 -0.4188
 4189SOL    HW213467   3.113   6.437   3.054 -0.9956 -0.7839 -0.6500
 4190SOL     OW13468   3.587   5.760   6.918 -0.1651 -0.1577  0.8482
 4190SOL    HW113469   3.656   5.706   6.870 -0.5787 -0.2428  0.3310
 4190SOL    HW213470   3.531   5.809   6.851  0.4213  1.1964  1.3268
 4191SOL     OW13471   6.387   2.273   3.342  0.3640  0.0576  0.3145
 4191SOL    HW113472   6.438   2.189   3.324 -0.1150 -0.0666 -0.5251
 4191SOL    HW213473   6.290   2.258   3.323  0.0010  0.2960  1.8767
 4192SOL     OW13474   6.803   1.126   2.655  0.0504  0.1157  0.0144
 4192SOL    HW113475   6.846   1.051   2.605 -0.0173 -0.1773  0.3896
 4192SOL    HW213476   6.782   1.200   2.592 -1.0143 -0.6751 -0.5978
 4193SOL     OW13477   0.963   6.497   3.633 -0.3765  0.1642  0.1914
 4193SOL    HW113478   0.953   6.399   3.617  1.5365  0.0219 -0.3761
 4193SOL    HW213479   1.034   6.513   3.702 -1.9049  1.1243  1.6304
 4194SOL     OW13480   6.416   1.964   3.856 -1.1413 -0.2586  0.4754
 4194SOL    HW113481   6.372   2.053   3.846  0.4414  0.4468 -0.8793
 4194SOL    HW213482   6.351   1.891   3.833 -2.5163  0.5120  1.8057
 4195SOL     OW13483   4.208   5.960   1.914 -0.1571 -0.0348 -0.6252
 4195SOL    HW113484   4.120   6.005   1.931  0.6244  0.6517  2.1733
 4195SOL    HW213485   4.239   5.917   1.998  2.2229 -0.2373 -1.5454
 4196SOL     OW13486   4.760   4.144   4.128 -0.2906  0.3957  0.1139
 4196SOL    HW113487   4.752   4.045   4.114 -0.2239  0.2386  1.1087
 4196SOL    HW213488   4.786   4.162   4.223 -0.8083  1.3955  0.0749
 4197SOL     OW13489   0.083   5.077   3.630  0.3049  0.3633 -0.1743
 4197SOL    HW113490   0.029   4.993   3.621  1.4444 -0.5900  1.2968
 4197SOL    HW213491   0.031   5.146   3.681 -0.7718  0.7032 -1.6906
 4198SOL     OW13492   4.940   4.845   0.735  0.1438  0.5164 -0.2687
 4198SOL    HW113493   5.021   4.821   0.682  0.6521 -1.1115  1.1480
 4198SOL    HW213494   4.966   4.870   0.828 -0.9424 -0.0209  0.2110
 4199SOL     OW13495   1.891   3.296   5.364 -0.3710 -0.3102  0.4329
 4199SOL    HW113496   1.899   3.212   5.310  4.5974 -0.6273  1.1933
 4199SOL    HW213497   1.859   3.274   5.456  0.6181 -1.3557  0.5393
 4200SOL     OW13498   1.817   0.178   4.764  0.0750 -0.3180 -0.0131
 4200SOL    HW113499   1.851   0.246   4.829 -2.1185  1.0727 -0.2162
 4200SOL    HW213500   1.858   0.193   4.675 -2.0704  2.4096 -0.6827
 4201SOL     OW13501   0.040   0.590   3.594 -0.0126 -0.2016  0.1487
 4201SOL    HW113502   0.120   0.538   3.625 -0.4215 -0.3523  1.0012
 4201SOL    HW213503   0.009   0.555   3.506 -0.2939 -1.4469  0.7202
 4202SOL     OW13504   6.715   4.411   5.610  0.5180 -0.3110  0.3969
 4202SOL    HW113505   6.725   4.476   5.534  1.8029 -0.1261  0.6988
 4202SOL    HW213506   6.634   4.355   5.595  0.4763  0.0495 -0.8743
 4203SOL     OW13507   4.231   5.007   3.427  0.2509 -0.7160 -0.3894
 4203SOL    HW113508   4.318   5.029   3.382 -0.4441 -0.3313 -1.5658
 4203SOL    HW213509   4.237   4.915   3.467  1.8247 -0.0157  1.1753
 4204SOL     OW13510   3.687   4.876   0.926  0.2069  0.2101 -0.2185
 4204SOL    HW113511   3.745   4.795   0.933  1.1135  0.9698  2.2113
 4204SOL    HW213512   3.744   4.955   0.903 -0.2985  0.5298 -0.3821
 4205SOL     OW13513   2.905   4.826   3.838 -0.1703  0.5027  0.1129
 4205SOL    HW113514   2.990   4.797   3.794 -0.7512 -0.5471 -0.3410
 4205SOL    HW213515   2.883   4.919   3.808  0.4095  0.4933 -0.3729
 4206SOL     OW13516   5.034   0.555   4.283 -0.1560 -0.2764  0.6262
 4206SOL    HW113517   5.110   0.529   4.343 -1.1556 -2.2437  1.1364
 4206SOL    HW213518   5.070   0.578   4.192  1.1088 -0.3820  1.0736
 4207SOL     OW13519   2.240   1.485   0.973 -0.3836 -0.1651  0.2068
 4207SOL    HW113520   2.171   1.415   0.989 -2.6920  2.1122  0.8140
 4207SOL    HW213521   2.259   1.492   0.875  0.5089 -2.1051  0.1894
 4208SOL     OW13522   1.159   2.641   2.619 -0.1720 -0.0772  0.0855
 4208SOL    HW113523   1.066   2.628   2.655  0.1617 -0.1797  0.9143
 4208SOL    HW213524   1.153   2.689   2.531 -0.8576  2.8606  1.5908
 4209SOL     OW13525   1.364   0.779   5.382  0.1708  0.3135  0.3244
 4209SOL    HW113526   1.326   0.688   5.391 -0.7782  0.7370  0.7558
 4209SOL    HW213527   1.354   0.811   5.288 -0.2880  0.3054  0.3691
 4210SOL     OW13528   3.268   3.164   0.715 -0.4734 -0.2991 -0.2548
 4210SOL    HW113529   3.181   3.129   0.750 -1.4873  1.8021 -0.5229
 4210SOL    HW213530   3.296   3.243   0.770  0.0187  0.5246 -1.6491
 4211SOL     OW13531   4.863   5.496   5.309  0.1031  0.0215  0.4001
 4211SOL    HW113532   4.814   5.580   5.289 -0.3412 -0.4472 -0.5499
 4211SOL    HW213533   4.962   5.512   5.299 -0.0551 -0.4075 -3.5521
 4212SOL     OW13534   1.515   2.356   2.344 -0.7798  0.1896 -0.4045
 4212SOL    HW113535   1.469   2.333   2.430 -0.6766  1.5755  0.0319
 4212SOL    HW213536   1.492   2.286   2.275 -2.7648  0.3055  0.0660
 4213SOL     OW13537   2.227   0.709   5.771  0.1540 -0.0012 -0.4250
 4213SOL    HW113538   2.135   0.731   5.803  0.1819 -1.1523  0.5223
 4213SOL    HW213539   2.241   0.610   5.774  1.3508  0.1340 -0.7801
 4214SOL     OW13540   1.726   3.491   6.626 -0.0566  0.2345 -0.9012
 4214SOL    HW113541   1.721   3.555   6.549 -0.9521 -0.7948 -1.7286
 4214SOL    HW213542   1.655   3.422   6.616  0.2765 -0.3313  0.4944
 4215SOL     OW13543   0.424   0.360   5.058  0.5835  0.6905  0.3265
 4215SOL    HW113544   0.496   0.360   4.988  2.1060  1.0486  1.8404
 4215SOL    HW213545   0.378   0.271   5.058  2.2529 -0.2086  0.5246
 4216SOL     OW13546   1.135   3.097   4.280  0.5152  0.0332 -0.0292
 4216SOL    HW113547   1.212   3.146   4.320 -1.1395  0.1589  3.3701
 4216SOL    HW213548   1.080   3.160   4.225  0.1314  1.2671  1.7036
 4217SOL     OW13549   6.954   6.450   2.988 -0.0252  0.4362  0.2605
 4217SOL    HW113550   7.012   6.519   2.947 -2.0717  2.8526  1.1458
 4217SOL    HW213551   6.861   6.486   2.998 -1.0394 -2.2105  1.4454
 4218SOL     OW13552   6.359   1.289   2.411 -0.1475 -0.1600  0.2689
 4218SOL    HW113553   6.423   1.286   2.334 -0.1750 -0.0016  0.2392
 4218SOL    HW213554   6.312   1.378   2.412 -0.8923 -0.5340 -0.1399
 4219SOL     OW13555   3.189   5.200   4.446  0.3727 -0.1823 -0.0148
 4219SOL    HW113556   3.166   5.254   4.365 -0.9219 -1.1449 -0.3268
 4219SOL    HW213557   3.230   5.259   4.515 -1.6420  1.3714 -0.0709
 4220SOL     OW13558   6.986   3.190   3.005  0.3190 -0.4101 -0.5858
 4220SOL    HW113559   6.913   3.155   2.947  0.2346  0.0522 -0.7613
 4220SOL    HW213560   6.947   3.227   3.089  0.3458 -0.1343 -0.6938
 4221SOL     OW13561   6.748   3.097   6.893 -0.1225  0.2901  0.6968
 4221SOL    HW113562   6.774   3.168   6.827  0.1133 -1.0223 -0.6913
 4221SOL    HW213563   6.660   3.059   6.866 -0.5819  0.5105  1.8362
 4222SOL     OW13564   5.013   2.721   0.113  0.6827 -0.1650  0.3497
 4222SOL    HW113565   5.079   2.650   0.138 -1.8315 -1.7491  3.1019
 4222SOL    HW213566   4.970   2.698   0.025  1.9035 -0.4742 -0.1845
 4223SOL     OW13567   3.198   3.675   2.248  0.1943 -0.4046 -0.5289
 4223SOL    HW113568   3.119   3.728   2.218 -0.1812  0.4205  1.6971
 4223SOL    HW213569   3.177   3.631   2.335  1.9059 -0.8788 -0.3186
 4224SOL     OW13570   5.440   3.525   4.422 -0.1924  0.3366 -0.3465
 4224SOL    HW113571   5.372   3.577   4.474 -0.3211 -0.1938  0.0221
 4224SOL    HW213572   5.501   3.476   4.485 -0.7900 -0.8873 -0.6874
 4225SOL     OW13573   5.752   1.163   4.087  0.1290 -0.3394 -0.1775
 4225SOL    HW113574   5.756   1.094   4.159 -2.4395 -1.4273 -0.9443
 4225SOL    HW213575   5.762   1.254   4.128 -0.1890 -0.9771  1.4085
 4226SOL     OW13576   6.191   0.197   3.174  0.3755  0.6067 -0.5158
 4226SOL    HW113577   6.229   0.231   3.088  0.5970 -0.1350 -0.7228
 4226SOL    HW213578   6.265   0.179   3.239  0.2482  0.6976 -0.3431
 4227SOL     OW13579   3.784   5.241   5.584  0.1277 -0.0591  0.3279
 4227SOL    HW113580   3.724   5.204   5.513 -0.5556  0.8049  0.4469
 4227SOL    HW213581   3.806   5.169   5.650 -1.5803 -0.1517  0.8276
 4228SOL     OW13582   5.321   6.318   4.870  0.3341  0.0406 -0.1739
 4228SOL    HW113583   5.233   6.356   4.841  0.0159  0.4628  1.2632
 4228SOL    HW213584   5.307   6.228   4.911  0.5828  0.0556 -0.0562
 4229SOL     OW13585   5.420   6.195   6.604  0.0813  0.3411  0.2807
 4229SOL    HW113586   5.443   6.269   6.668  1.2551  2.4160 -2.3275
 4229SOL    HW213587   5.496   6.130   6.599  0.5587  0.9040  0.0702
 4230SOL     OW13588   3.943   2.332   5.293  0.4209 -0.2750 -0.4001
 4230SOL    HW113589   4.022   2.374   5.247  0.2893  0.7245  0.2406
 4230SOL    HW213590   3.969   2.306   5.386 -0.1130  0.4775 -0.0277
 4231SOL     OW13591   5.077   4.287   4.637  0.0316  0.6877 -0.2841
 4231SOL    HW113592   4.985   4.251   4.624  0.8387 -1.8439  0.3789
 4231SOL    HW213593   5.072   4.380   4.673 -2.2545  0.5566 -0.1279
 4232SOL     OW13594   1.938   6.931   3.491  0.5219 -0.0723  0.6692
 4232SOL    HW113595   1.949   6.864   3.565 -0.0800 -1.0686 -0.1248
 4232SOL    HW213596   1.921   6.884   3.405 -0.6112  1.1217  0.2019
 4233SOL     OW13597   0.384   0.986   0.519 -0.3391 -0.5536  0.0954
 4233SOL    HW113598   0.398   0.960   0.424  0.5392 -1.2757  0.4009
 4233SOL    HW213599   0.342   0.910   0.568  1.2682 -1.0481  0.7665
 4234SOL     OW13600   2.021   5.719   6.466  0.0604 -0.3121  0.6162
 4234SOL    HW113601   2.061   5.737   6.556  0.9600  0.3987  0.0860
 4234SOL    HW213602   1.976   5.801   6.432 -1.5036 -0.9630  0.9894
 4235SOL     OW13603   6.076   4.446   5.759 -0.2088  0.2982 -0.1335
 4235SOL    HW113604   6.123   4.508   5.696  0.0983  1.3528  1.0778
 4235SOL    HW213605   6.136   4.427   5.837  0.3784 -2.8955 -1.2202
 4236SOL     OW13606   0.385   2.403   4.227  0.1399 -1.0975  0.2279
 4236SOL    HW113607   0.340   2.391   4.138  0.8491  0.2382 -0.3307
 4236SOL    HW213608   0.446   2.483   4.224  0.2674 -1.0947  1.8840
 4237SOL     OW13609   6.731   5.225   4.373  0.1655  0.2335 -0.1665
 4237SOL    HW113610   6.686   5.279   4.445  0.0812 -0.0394 -0.0100
 4237SOL    HW213611   6.799   5.281   4.326 -1.0118  0.9680 -1.0657
 4238SOL     OW13612   5.034   4.683   4.064 -0.1151 -0.1665 -0.0605
 4238SOL    HW113613   5.043   4.782   4.067 -0.1628 -0.1770  0.6623
 4238SOL    HW213614   4.956   4.658   4.007  0.3997  0.1750 -0.9269
 4239SOL     OW13615   4.709   6.100   4.897  0.0103  0.1514 -0.4602
 4239SOL    HW113616   4.798   6.143   4.908 -0.1598  0.6499 -0.9795
 4239SOL    HW213617   4.639   6.170   4.883 -0.6251 -0.1768  0.8822
 4240SOL     OW13618   2.661   6.248   0.527  0.2809  0.1909 -0.3929
 4240SOL    HW113619   2.683   6.335   0.572 -2.3719  0.9978 -0.4867
 4240SOL    HW213620   2.705   6.246   0.437  2.3277  0.3297  0.5434
 4241SOL     OW13621   3.997   6.581   0.800 -0.1651 -0.1414  0.1998
 4241SOL    HW113622   3.957   6.518   0.866  0.9156 -0.8095  0.2329
 4241SOL    HW213623   4.097   6.575   0.803 -0.0548  0.9866 -0.3649
 4242SOL     OW13624   2.806   6.703   2.719 -0.1834 -0.5392  0.1757
 4242SOL    HW113625   2.790   6.800   2.736  2.0395 -0.1945  0.6440
 4242SOL    HW213626   2.882   6.693   2.654 -1.7218 -1.9818 -1.5259
 4243SOL     OW13627   0.074   4.382   3.864  0.6269  0.2659 -0.3095
 4243SOL    HW113628   0.067   4.288   3.833 -2.0216 -0.4410  2.0723
 4243SOL    HW213629   0.001   4.437   3.823  0.0315  0.4220  0.9187
 4244SOL     OW13630   2.971   6.437   0.606 -0.2911  0.3498  0.0092
 4244SOL    HW113631   2.876   6.455   0.632  0.6910  0.6622  4.1683
 4244SOL    HW213632   3.025   6.520   0.619  0.9521 -0.4729  0.2484
 4245SOL     OW13633   1.871   1.689   0.981  0.0946 -0.2052 -0.9189
 4245SOL    HW113634   1.863   1.759   0.909  2.8793 -0.2037 -1.3503
 4245SOL    HW213635   1.936   1.720   1.050  1.5124 -2.3952 -1.1909
 4246SOL     OW13636   3.630   1.788   3.377 -0.4125 -0.9626 -0.0403
 4246SOL    HW113637   3.592   1.874   3.342  0.7437 -0.8582 -1.1121
 4246SOL    HW213638   3.645   1.796   3.476  1.1223  0.6819 -0.3408
 4247SOL     OW13639   3.497   5.146   5.141  0.3457  0.2162 -0.0671
 4247SOL    HW113640   3.574   5.202   5.109 -0.0241  0.8340  0.0947
 4247SOL    HW213641   3.425   5.148   5.071  0.5643 -0.5515 -0.3213
 4248SOL     OW13642   2.837   1.850   4.546  0.2663 -0.1346  0.4545
 4248SOL    HW113643   2.821   1.900   4.631  0.4619  0.0543  0.3828
 4248SOL    HW213644   2.910   1.783   4.560  0.6956  0.2889  0.2881
 4249SOL     OW13645   6.754   0.369   4.893  0.4876  0.8344 -0.8981
 4249SOL    HW113646   6.672   0.415   4.860  0.9000  3.9108  1.8413
 4249SOL    HW213647   6.728   0.291   4.950 -0.4475  0.7805 -1.3776
 4250SOL     OW13648   1.710   5.430   2.395 -0.6626 -0.6427  0.2843
 4250SOL    HW113649   1.696   5.331   2.394 -0.9117 -0.6050 -0.4789
 4250SOL    HW213650   1.729   5.462   2.302 -2.2758  0.2460  0.2186
 4251SOL     OW13651   5.251   3.594   5.877  0.0976  0.9860  0.4184
 4251SOL    HW113652   5.286   3.600   5.970 -1.1223 -1.4961  1.1190
 4251SOL    HW213653   5.159   3.635   5.873 -1.0206 -1.3231  1.0471
 4252SOL     OW13654   6.630   0.723   6.015 -0.4284 -0.0068 -0.4929
 4252SOL    HW113655   6.712   0.667   6.023  1.6544  2.8437 -0.0552
 4252SOL    HW213656   6.632   0.772   5.927 -1.7742 -0.0221 -0.5484
 4253SOL     OW13657   5.921   5.266   6.638 -0.3055  0.0940  0.7695
 4253SOL    HW113658   5.940   5.312   6.551 -1.3385 -0.7624  0.0738
 4253SOL    HW213659   5.908   5.335   6.709 -0.3318  0.8343  0.0699
 4254SOL     OW13660   0.815   3.911   5.812  0.3393 -0.1191 -0.2427
 4254SOL    HW113661   0.813   3.934   5.714 -1.3163  0.3327 -0.1385
 4254SOL    HW213662   0.888   3.963   5.857  1.1587 -0.3821 -1.2416
 4255SOL     OW13663   0.552   4.543   2.080 -0.0534  0.0710  0.1287
 4255SOL    HW113664   0.530   4.570   1.987 -0.7449 -2.4611 -0.5348
 4255SOL    HW213665   0.468   4.521   2.130  0.4084 -0.6798  0.6078
 4256SOL     OW13666   0.196   0.167   2.031 -0.1458 -0.3511 -0.0125
 4256SOL    HW113667   0.279   0.211   2.065 -1.8867  2.7958  0.6120
 4256SOL    HW213668   0.213   0.070   2.013  2.9773 -0.3499  2.2812
 4257SOL     OW13669   6.093   4.882   6.955  0.0549 -0.2714  0.0849
 4257SOL    HW113670   6.159   4.924   7.017  1.3210 -0.3258 -1.2015
 4257SOL    HW213671   6.089   4.932   6.869 -0.7092 -0.9656 -0.3072
 4258SOL     OW13672   3.693   6.204   0.346 -0.2453 -0.0358 -0.6422
 4258SOL    HW113673   3.774   6.218   0.404 -0.2382  0.3409 -0.7365
 4258SOL    HW213674   3.692   6.274   0.274 -0.4850 -0.2380 -0.8348
 4259SOL     OW13675   1.278   5.314   2.763 -0.1023  0.3002  0.2768
 4259SOL    HW113676   1.337   5.378   2.713  0.5354 -0.3274  0.1990
 4259SOL    HW213677   1.296   5.221   2.730  2.2734 -0.5202  3.4051
 4260SOL     OW13678   6.619   5.644   5.067  0.1109 -0.3180  0.0600
 4260SOL    HW113679   6.521   5.663   5.062 -0.0746 -1.4693 -3.3853
 4260SOL    HW213680   6.633   5.546   5.082  0.7831 -0.0341  1.4278
 4261SOL     OW13681   1.350   1.262   5.372 -0.1883  0.0427  0.5409
 4261SOL    HW113682   1.252   1.249   5.382 -0.1366  0.4446  1.6881
 4261SOL    HW213683   1.388   1.190   5.313 -1.4898  1.1174 -1.7427
 4262SOL     OW13684   1.608   5.224   6.704  0.2864 -0.1544  0.2812
 4262SOL    HW113685   1.656   5.308   6.677 -0.7870  0.1939 -0.6083
 4262SOL    HW213686   1.628   5.152   6.638  0.0741 -0.1866  0.2529
 4263SOL     OW13687   3.394   2.071   4.534 -0.2937  0.0126  0.4001
 4263SOL    HW113688   3.470   2.116   4.487 -0.7883 -1.5252 -2.0696
 4263SOL    HW213689   3.307   2.110   4.502 -0.6319 -0.2842  0.9321
 4264SOL     OW13690   5.575   0.668   3.563 -0.2002 -0.0008  0.0177
 4264SOL    HW113691   5.616   0.617   3.639  1.4891 -0.7202 -1.3061
 4264SOL    HW213692   5.647   0.699   3.501 -1.5275  0.5602 -1.3128
 4265SOL     OW13693   2.188   1.987   1.724 -0.9053  0.2425 -0.0961
 4265SOL    HW113694   2.250   2.065   1.713  0.0135 -0.4822 -0.1419
 4265SOL    HW213695   2.193   1.953   1.818 -0.6097 -0.3388 -0.3221
 4266SOL     OW13696   1.578   0.483   6.326  0.1794 -0.2514 -0.2014
 4266SOL    HW113697   1.595   0.581   6.339  0.2700 -0.2224 -0.5236
 4266SOL    HW213698   1.564   0.465   6.228 -0.0787 -0.5230 -0.1117
 4267SOL     OW13699   1.385   5.078   3.235 -0.7397 -0.0058 -0.1863
 4267SOL    HW113700   1.433   5.155   3.278 -0.4274  0.2193 -0.9250
 4267SOL    HW213701   1.290   5.103   3.219 -0.9923 -0.2716  0.8203
 4268SOL     OW13702   2.338   6.080   6.641  0.2906 -0.4012  0.0120
 4268SOL    HW113703   2.366   6.036   6.556  2.7322  1.3230 -0.1971
 4268SOL    HW213704   2.406   6.060   6.712 -0.2347  0.4604  0.7787
 4269SOL     OW13705   2.407   2.211   4.114 -0.0095  0.9982  0.2065
 4269SOL    HW113706   2.431   2.121   4.151  0.5098  0.8022 -0.5729
 4269SOL    HW213707   2.359   2.264   4.184 -0.7187 -0.0389  0.5377
 4270SOL     OW13708   2.741   1.912   6.040  0.3279  0.0642 -0.5279
 4270SOL    HW113709   2.701   1.824   6.064  2.5330 -1.1674 -1.1004
 4270SOL    HW213710   2.810   1.937   6.108 -1.9541  2.6837  1.0576
 4271SOL     OW13711   5.424   0.489   0.582 -0.5069 -0.1525  0.2213
 4271SOL    HW113712   5.517   0.453   0.573 -0.8408 -0.8215 -0.7410
 4271SOL    HW213713   5.405   0.551   0.507 -0.7567  0.1867  0.5609
 4272SOL     OW13714   5.249   2.465   4.402 -0.1034  0.4694 -0.0157
 4272SOL    HW113715   5.318   2.462   4.330  0.6170  0.2689  0.6774
 4272SOL    HW213716   5.264   2.391   4.467  0.8816  2.1465  1.7926
 4273SOL     OW13717   3.904   5.530   6.695 -0.4986  0.7891 -0.3532
 4273SOL    HW113718   3.978   5.477   6.736 -2.2400 -3.0106 -1.6325
 4273SOL    HW213719   3.941   5.604   6.640  2.1993  0.3510  0.7450
 4274SOL     OW13720   6.743   1.415   0.622 -0.6023 -0.2498  0.2201
 4274SOL    HW113721   6.687   1.342   0.581 -1.1067 -0.1053  0.6425
 4274SOL    HW213722   6.773   1.387   0.713  1.6758 -1.1487 -0.7432
 4275SOL     OW13723   6.572   3.838   1.443  0.2992  0.0689 -0.6030
 4275SOL    HW113724   6.657   3.809   1.487 -0.8095 -0.9229  0.9834
 4275SOL    HW213725   6.547   3.929   1.475 -1.1081 -1.0947  1.9156
 4276SOL     OW13726   3.337   5.427   3.053 -0.0368  0.8008 -0.3883
 4276SOL    HW113727   3.245   5.415   3.091  0.2578  1.2942  0.5147
 4276SOL    HW213728   3.335   5.409   2.955 -0.1680 -4.2777  0.2335
 4277SOL     OW13729   0.037   4.749   2.746  0.4442  0.3816 -0.0837
 4277SOL    HW113730   0.020   4.794   2.658 -0.0531  1.5389  0.5840
 4277SOL    HW213731  -0.045   4.702   2.776  0.4777  0.3579 -0.0292
 4278SOL     OW13732   2.460   0.301   3.956  0.2804 -0.0764 -0.6983
 4278SOL    HW113733   2.398   0.300   4.035  1.5700 -1.3244  0.3397
 4278SOL    HW213734   2.538   0.360   3.975  0.3000  0.1052 -1.3073
 4279SOL     OW13735   0.477   3.037   3.770 -0.4658 -0.4076  0.6074
 4279SOL    HW113736   0.446   3.036   3.865  0.4597  1.2466  0.9796
 4279SOL    HW213737   0.420   3.100   3.717 -0.3977 -0.6062  0.2925
 4280SOL     OW13738   6.796   6.336   5.883 -0.4132 -0.2782  0.5641
 4280SOL    HW113739   6.832   6.243   5.876  2.1050  0.6862 -0.6875
 4280SOL    HW213740   6.699   6.336   5.860 -0.7242 -2.6905  1.5421
 4281SOL     OW13741   4.395   4.663   4.743  0.4975 -0.1069 -0.9688
 4281SOL    HW113742   4.457   4.722   4.794 -0.7545  0.1569  0.3107
 4281SOL    HW213743   4.347   4.602   4.806 -0.6601 -0.1904 -1.8860
 4282SOL     OW13744   2.712   4.466   1.621 -0.7029 -0.9202  0.1144
 4282SOL    HW113745   2.776   4.471   1.698 -0.3052  0.3637 -0.2808
 4282SOL    HW213746   2.618   4.479   1.654 -0.4974  0.0247  0.3431
 4283SOL     OW13747   3.781   1.644   4.521 -0.6564 -0.3922  0.7310
 4283SOL    HW113748   3.811   1.565   4.468  0.2114  0.5439 -0.2058
 4283SOL    HW213749   3.829   1.646   4.608 -0.2594 -0.5790  0.5161
 4284SOL     OW13750   5.545   6.880   6.424 -0.7627  0.0438  0.3823
 4284SOL    HW113751   5.636   6.867   6.464 -0.5226  0.2899 -0.0768
 4284SOL    HW213752   5.477   6.878   6.497 -0.7238 -3.0256  0.4652
 4285SOL     OW13753   2.517   6.844   4.281  0.4317 -0.4500 -0.5606
 4285SOL    HW113754   2.504   6.745   4.291  3.0250 -1.1587 -2.9339
 4285SOL    HW213755   2.566   6.879   4.361 -2.1457 -0.6171  1.1987
 4286SOL     OW13756   6.475   1.258   0.216  0.0496 -0.0701 -0.2575
 4286SOL    HW113757   6.575   1.260   0.217  0.0641 -0.2008 -0.9880
 4286SOL    HW213758   6.439   1.323   0.283  0.6262  1.2362 -1.1722
 4287SOL     OW13759   4.745   6.702   5.777 -0.3400 -0.0888  0.3210
 4287SOL    HW113760   4.836   6.715   5.815  0.2569 -0.6775 -0.8496
 4287SOL    HW213761   4.691   6.785   5.790  0.5518  0.4774  0.5018
 4288SOL     OW13762   6.991   5.770   1.232 -0.0028 -0.8024  0.1506
 4288SOL    HW113763   6.992   5.788   1.330 -0.2464 -2.6556  0.5370
 4288SOL    HW213764   6.901   5.791   1.194  0.4202  0.9796  0.0779
 4289SOL     OW13765   1.156   4.980   5.962  0.6390 -0.0045  0.6028
 4289SOL    HW113766   1.074   4.949   5.914  2.2995 -2.8735 -0.6309
 4289SOL    HW213767   1.134   5.061   6.016 -2.7352 -0.0889 -0.4095
 4290SOL     OW13768   6.740   1.270   3.405  0.0571 -0.3505 -0.0288
 4290SOL    HW113769   6.771   1.334   3.335  0.2538  0.3330  0.6830
 4290SOL    HW213770   6.813   1.206   3.427  0.3860  0.1699  0.3950
 4291SOL     OW13771   5.614   2.849   5.715  0.2412  0.3555 -0.1862
 4291SOL    HW113772   5.632   2.904   5.797 -0.5559  0.7891 -0.2893
 4291SOL    HW213773   5.700   2.811   5.681  0.4175 -1.0650  1.6845
 4292SOL     OW13774   4.376   2.330   1.470 -0.7048 -0.5758 -0.3637
 4292SOL    HW113775   4.288   2.307   1.428 -0.3713 -1.1406 -0.7720
 4292SOL    HW213776   4.361   2.355   1.566 -1.3539 -0.2798 -0.5337
 4293SOL     OW13777   3.640   3.079   0.804 -0.2671  0.2606 -0.2339
 4293SOL    HW113778   3.685   3.043   0.722  0.8114  0.2920  0.3236
 4293SOL    HW213779   3.601   3.168   0.784  0.9958  0.7954 -0.4313
 4294SOL     OW13780   1.967   1.561   0.737  0.2992 -0.1604 -0.0884
 4294SOL    HW113781   2.052   1.603   0.704  0.3587 -0.7418 -0.6920
 4294SOL    HW213782   1.942   1.602   0.825  1.1797  0.0553  0.0735
 4295SOL     OW13783   4.029   6.230   2.592 -0.4270 -0.0655 -0.4573
 4295SOL    HW113784   3.989   6.138   2.588  0.5751 -0.5591  0.2525
 4295SOL    HW213785   4.053   6.260   2.500  2.1503 -1.8799 -0.4921
 4296SOL     OW13786   4.593   5.439   6.716  0.1272 -0.6518  0.3156
 4296SOL    HW113787   4.667   5.485   6.764 -0.9434  1.7328 -0.1256
 4296SOL    HW213788   4.621   5.347   6.689  1.7108 -1.0484  2.9993
 4297SOL     OW13789   0.222   2.727   1.231 -0.5403 -0.2021  0.3780
 4297SOL    HW113790   0.179   2.817   1.234 -1.7930 -0.7895  0.9755
 4297SOL    HW213791   0.301   2.726   1.292  0.0544  0.7575 -0.3547
 4298SOL     OW13792   2.247   6.684   0.530  0.6180  0.4079 -0.2858
 4298SOL    HW113793   2.213   6.749   0.597 -0.1395 -0.9569  0.7000
 4298SOL    HW213794   2.241   6.724   0.438 -0.9299  1.3039  0.1723
 4299SOL     OW13795   1.150   4.488   1.303  0.2032  0.0816 -0.0243
 4299SOL    HW113796   1.089   4.429   1.251 -0.0687  0.0171  0.3655
 4299SOL    HW213797   1.196   4.434   1.373  0.0350  0.3110  0.2650
 4300SOL     OW13798   1.983   0.483   6.300  0.5166 -0.0449 -0.6135
 4300SOL    HW113799   1.961   0.579   6.283 -0.7944 -0.2706 -0.2722
 4300SOL    HW213800   1.926   0.425   6.241  1.2635 -0.6215 -0.7838
 4301SOL     OW13801   3.754   6.115   3.610  0.0447  0.3063 -0.0402
 4301SOL    HW113802   3.739   6.016   3.610 -1.2727  0.4280 -2.2451
 4301SOL    HW213803   3.776   6.145   3.517 -1.8286  2.3462  0.0740
 4302SOL     OW13804   1.288   3.099   6.610  0.0713  0.1012  0.1851
 4302SOL    HW113805   1.307   3.027   6.676 -0.7875  0.9966  1.4664
 4302SOL    HW213806   1.373   3.128   6.566  1.1948  1.3676  2.9504
 4303SOL     OW13807   1.190   2.287   4.742  0.0636 -0.0840 -0.2471
 4303SOL    HW113808   1.256   2.257   4.811  0.3761  0.0571 -0.4839
 4303SOL    HW213809   1.188   2.387   4.740 -1.0146 -0.0689  0.5800
 4304SOL     OW13810   2.291   3.329   6.481  0.3601  0.2589 -0.0277
 4304SOL    HW113811   2.197   3.307   6.510  0.7826 -0.8056  0.5802
 4304SOL    HW213812   2.340   3.371   6.557  0.0501  1.9145 -0.6993
 4305SOL     OW13813   6.362   2.495   4.739  0.3393 -0.5626  0.2225
 4305SOL    HW113814   6.358   2.555   4.659  2.8395  0.3217  0.6759
 4305SOL    HW213815   6.272   2.493   4.783 -0.6390  0.3026 -1.6005
 4306SOL     OW13816   4.027   1.788   4.411  0.0692  0.0900  0.2282
 4306SOL    HW113817   4.113   1.793   4.462  0.3881  2.0300 -0.4136
 4306SOL    HW213818   3.959   1.849   4.454 -0.3760  0.0131 -0.3510
 4307SOL     OW13819   1.324   3.056   0.107  0.5866  0.3348 -0.5771
 4307SOL    HW113820   1.383   3.109   0.047  1.6353  0.4410  0.4888
 4307SOL    HW213821   1.371   2.971   0.133 -1.0510 -1.1648 -2.2542
 4308SOL     OW13822   5.265   5.623   0.566  0.3450  0.2532  0.4683
 4308SOL    HW113823   5.299   5.586   0.652 -0.5729 -1.0388  0.2995
 4308SOL    HW213824   5.242   5.548   0.504  0.8079  1.1498 -0.8536
 4309SOL     OW13825   1.600   4.524   0.554 -0.2385  0.0197 -0.0904
 4309SOL    HW113826   1.520   4.577   0.584  0.1260  0.0637  0.8388
 4309SOL    HW213827   1.681   4.583   0.554  0.3344 -0.6937  1.7593
 4310SOL     OW13828   0.901   3.109   1.633  0.2240  0.0825 -0.2356
 4310SOL    HW113829   0.872   3.174   1.703 -1.1149 -1.2514  0.5017
 4310SOL    HW213830   0.988   3.139   1.594  0.0073  1.9026  0.5859
 4311SOL     OW13831   1.447   4.298   2.628  0.5124 -0.1619  0.1703
 4311SOL    HW113832   1.455   4.386   2.674 -0.4681  1.1250 -1.9581
 4311SOL    HW213833   1.408   4.231   2.691 -3.4591  2.1967  0.5742
 4312SOL     OW13834   6.938   6.010   3.253  0.6098  0.0458 -0.1453
 4312SOL    HW113835   6.959   5.927   3.306 -0.9670 -1.5060 -1.8079
 4312SOL    HW213836   6.989   6.008   3.167  0.2073  0.5690 -0.4009
 4313SOL     OW13837   4.458   2.155   0.795 -0.0252 -0.1752  0.1087
 4313SOL    HW113838   4.399   2.128   0.718 -1.5299 -0.5260  1.3383
 4313SOL    HW213839   4.513   2.234   0.768  1.3696 -1.8012 -2.1637
 4314SOL     OW13840   5.628   1.408   3.847  0.4473  0.1779 -0.1124
 4314SOL    HW113841   5.679   1.493   3.866  2.1481 -0.5509 -1.1620
 4314SOL    HW213842   5.692   1.338   3.815 -0.7056 -1.9501  2.0048
 4315SOL     OW13843   2.334   0.362   4.514 -0.2810 -0.0941 -0.8021
 4315SOL    HW113844   2.248   0.319   4.489 -1.0350 -1.0463  2.8605
 4315SOL    HW213845   2.409   0.296   4.505 -0.9512 -1.3193  1.7137
 4316SOL     OW13846   6.133   1.032   1.613 -0.2657  0.3140 -0.0733
 4316SOL    HW113847   6.159   1.030   1.710 -0.0123  0.2950 -0.1428
 4316SOL    HW213848   6.074   0.954   1.593  0.3089 -0.1115 -0.1150
 4317SOL     OW13849   4.629   0.366   4.467  0.4140 -0.0138  0.0756
 4317SOL    HW113850   4.689   0.371   4.387  1.8006  1.0947  1.1367
 4317SOL    HW213851   4.637   0.275   4.508  1.1982  0.0357  0.0590
 4318SOL     OW13852   6.396   2.161   4.738 -0.4542  0.1746 -0.4896
 4318SOL    HW113853   6.393   2.256   4.706 -1.2206  0.5289  0.5586
 4318SOL    HW213854   6.477   2.148   4.795 -1.0076  0.5737  0.4139
 4319SOL     OW13855   2.322   6.622   2.497  0.1786 -0.2133 -0.2404
 4319SOL    HW113856   2.310   6.715   2.533  2.1822  0.3276 -0.8332
 4319SOL    HW213857   2.407   6.583   2.531  0.2454 -1.1460 -1.3845
 4320SOL     OW13858   4.493   6.307   0.200  0.2559 -0.2731  0.0150
 4320SOL    HW113859   4.562   6.367   0.239  0.0978  0.8799 -1.4030
 4320SOL    HW213860   4.536   6.243   0.137  0.2201 -0.6541  0.3683
 4321SOL     OW13861   0.758   0.553   3.110 -0.2948  0.3779 -0.0225
 4321SOL    HW113862   0.834   0.615   3.089  0.0204  0.5447  1.5423
 4321SOL    HW213863   0.696   0.596   3.176  0.4063 -1.2684  1.8045
 4322SOL     OW13864   0.533   5.014   3.163  0.5971 -0.0248  0.1478
 4322SOL    HW113865   0.516   5.112   3.158 -0.0584 -0.1774 -1.2397
 4322SOL    HW213866   0.538   4.985   3.258 -2.1510  0.8886  0.6567
 4323SOL     OW13867   4.121   5.991   6.371 -0.0888  0.0135 -0.4975
 4323SOL    HW113868   4.060   6.063   6.405  0.7544  0.0970  0.9211
 4323SOL    HW213869   4.187   6.030   6.308  0.3277  0.4869  0.2215
 4324SOL     OW13870   6.892   3.336   5.749  0.1772 -0.5191 -0.1199
 4324SOL    HW113871   6.930   3.363   5.660 -0.7727 -0.7912 -0.6265
 4324SOL    HW213872   6.965   3.300   5.807  0.4743 -2.5753 -1.6478
 4325SOL     OW13873   3.866   6.856   2.896 -0.3941 -0.0651 -0.2314
 4325SOL    HW113874   3.771   6.881   2.874 -0.3954 -0.1212 -0.2897
 4325SOL    HW213875   3.920   6.857   2.812 -0.5061 -0.7709 -0.3156
 4326SOL     OW13876   3.643   0.913   1.826  0.4554  0.2176 -0.3071
 4326SOL    HW113877   3.687   0.987   1.877  0.8439  0.4648 -0.9864
 4326SOL    HW213878   3.575   0.868   1.884 -0.6368  1.8674 -0.2367
 4327SOL     OW13879   5.336   4.750   4.270  0.3407 -0.3200 -0.5694
 4327SOL    HW113880   5.267   4.683   4.297  0.7939 -1.3833 -1.9334
 4327SOL    HW213881   5.350   4.815   4.344 -0.9636 -1.0296  0.3420
 4328SOL     OW13882   4.931   0.980   4.798  0.3123 -0.5548  0.2931
 4328SOL    HW113883   4.864   0.919   4.756 -1.8394  0.1932  2.3554
 4328SOL    HW213884   4.885   1.065   4.827  2.5375  0.7056  0.3493
 4329SOL     OW13885   6.308   2.266   5.768  0.5577  0.4068 -0.1915
 4329SOL    HW113886   6.226   2.250   5.823  0.4809  1.5020  0.0278
 4329SOL    HW213887   6.389   2.241   5.820  0.3366 -2.3530 -1.0099
 4330SOL     OW13888   1.866   5.363   4.603 -0.4757  0.4284  0.5489
 4330SOL    HW113889   1.789   5.381   4.541 -0.5338 -0.0502  0.4773
 4330SOL    HW213890   1.832   5.352   4.696 -0.3884  1.1464  0.6642
 4331SOL     OW13891   4.937   0.313   0.230 -0.3475  0.5854  0.4156
 4331SOL    HW113892   4.892   0.305   0.319 -1.2222 -0.1044 -0.0755
 4331SOL    HW213893   5.021   0.258   0.231 -0.7865 -0.0881  0.5473
 4332SOL     OW13894   5.776   5.280   2.563 -0.3857 -0.2069  0.2632
 4332SOL    HW113895   5.768   5.223   2.645 -1.1295  1.5157  1.4526
 4332SOL    HW213896   5.868   5.272   2.526  0.3941 -0.0617  2.0426
 4333SOL     OW13897   3.090   2.546   5.688  0.8943  0.3961 -0.2758
 4333SOL    HW113898   3.162   2.612   5.668  0.9192  0.2098 -0.7953
 4333SOL    HW213899   3.007   2.571   5.639  0.0355  1.6220  1.6651
 4334SOL     OW13900   6.488   1.225   1.160 -0.3599  0.0073 -0.1557
 4334SOL    HW113901   6.462   1.275   1.077 -1.5351 -0.6659 -0.2189
 4334SOL    HW213902   6.473   1.128   1.146  0.6645 -0.2457  0.4162
 4335SOL     OW13903   3.077   4.794   1.065 -0.1831  0.4858  0.5580
 4335SOL    HW113904   3.011   4.738   1.115  1.4956 -2.5841 -0.3908
 4335SOL    HW213905   3.072   4.772   0.968  1.7353  0.6258  0.3804
 4336SOL     OW13906   3.216   5.125   6.701 -0.2047 -0.3315  0.1289
 4336SOL    HW113907   3.149   5.053   6.720 -1.1173  0.3239 -0.4951
 4336SOL    HW213908   3.270   5.100   6.620 -0.0960 -0.5938  0.2822
 4337SOL     OW13909   1.027   5.576   4.813 -0.0544  0.4010 -0.5633
 4337SOL    HW113910   1.042   5.486   4.855 -0.3506  0.9792  0.8490
 4337SOL    HW213911   0.933   5.605   4.831 -0.3619  0.4623 -2.1069
 4338SOL     OW13912   5.577   0.240   4.454 -0.4977 -0.2300 -0.4327
 4338SOL    HW113913   5.675   0.254   4.445 -0.5650 -0.6893 -2.1413
 4338SOL    HW213914   5.558   0.198   4.543  0.9882 -1.3118 -0.5890
 4339SOL     OW13915   4.922   3.608   4.752  0.1381  0.4033 -0.1582
 4339SOL    HW113916   4.881   3.685   4.702  2.1510  1.0722 -0.8821
 4339SOL    HW213917   4.896   3.613   4.848  0.7375  2.4060 -0.0524
 4340SOL     OW13918   0.512   4.214   6.939  0.7294  0.1048 -0.2850
 4340SOL    HW113919   0.545   4.223   6.845  1.1278  0.1936 -0.1362
 4340SOL    HW213920   0.586   4.233   7.003  0.0378  1.8493  0.0658
 4341SOL     OW13921   0.288   6.536   1.933 -0.3575  0.6918 -0.0886
 4341SOL    HW113922   0.363   6.593   1.901  0.1385 -0.3365 -0.8060
 4341SOL    HW213923   0.283   6.539   2.033 -0.9228  2.6897 -0.1407
 4342SOL     OW13924   6.443   3.520   3.039  0.0619 -0.0735  0.1496
 4342SOL    HW113925   6.374   3.525   3.111 -1.6666 -0.0293 -1.4445
 4342SOL    HW213926   6.401   3.490   2.954  2.0848 -0.3112 -0.8404
 4343SOL     OW13927   3.980   0.945   0.397 -0.4863 -0.1783  0.3286
 4343SOL    HW113928   3.951   1.034   0.434 -1.4963 -0.5765  0.5417
 4343SOL    HW213929   3.987   0.951   0.298 -0.1314  0.2460  0.3726
 4344SOL     OW13930   0.176   2.250   3.072 -0.0791  0.0270  0.5153
 4344SOL    HW113931   0.229   2.217   2.993 -0.7477  2.2294 -0.9247
 4344SOL    HW213932   0.233   2.310   3.127  0.0823 -0.7402  1.2095
 4345SOL     OW13933   3.075   3.128   2.391 -0.0486 -0.1082  0.3727
 4345SOL    HW113934   3.066   3.138   2.490  0.5884 -0.5260  0.4787
 4345SOL    HW213935   3.024   3.201   2.346  0.7482  0.8958  1.0309
 4346SOL     OW13936   1.296   2.961   2.268  0.5007 -0.0609 -0.3402
 4346SOL    HW113937   1.295   3.053   2.308 -0.9506 -0.9804  2.0042
 4346SOL    HW213938   1.390   2.928   2.262  1.0120  1.3905 -0.8514
 4347SOL     OW13939   2.289   3.850   1.868  1.0063 -0.0925 -0.0196
 4347SOL    HW113940   2.256   3.759   1.893  1.4376 -0.0220  0.8534
 4347SOL    HW213941   2.364   3.841   1.803  1.5837 -0.4085  0.6716
 4348SOL     OW13942   5.484   6.524   4.254 -0.1923 -0.5235 -0.4117
 4348SOL    HW113943   5.465   6.620   4.272 -2.1964 -0.8936 -0.2324
 4348SOL    HW213944   5.565   6.495   4.305  0.1007  0.9159 -0.0259
 4349SOL     OW13945   6.283   3.593   3.237 -0.4032  0.4195 -0.1415
 4349SOL    HW113946   6.194   3.556   3.262 -0.9810 -0.3169 -2.9503
 4349SOL    HW213947   6.272   3.688   3.205 -0.3955  0.0131 -1.4170
 4350SOL     OW13948   5.636   6.588   5.945  0.5661  0.4805 -0.1258
 4350SOL    HW113949   5.555   6.642   5.966  0.3360 -0.0668  0.4312
 4350SOL    HW213950   5.614   6.491   5.952  0.9875  0.3084 -1.0460
 4351SOL     OW13951   0.496   5.727   0.292  0.4732  0.0400  0.5820
 4351SOL    HW113952   0.595   5.721   0.306  0.4737 -2.3696 -0.0588
 4351SOL    HW213953   0.450   5.659   0.349 -0.7191  0.3421  0.0113
 4352SOL     OW13954   5.104   4.321   1.022 -0.1052 -0.4208  0.1618
 4352SOL    HW113955   5.038   4.391   1.052 -1.9123 -1.8896 -0.2283
 4352SOL    HW213956   5.163   4.296   1.099 -0.4634  0.4123  0.7304
 4353SOL     OW13957   4.165   3.202   0.678  0.3378  0.1422  0.2435
 4353SOL    HW113958   4.095   3.151   0.728  1.0590 -0.1150  1.0192
 4353SOL    HW213959   4.251   3.152   0.681  0.6022  0.5341 -0.5611
 4354SOL     OW13960   5.682   0.851   2.682  0.2587 -0.1364 -0.5951
 4354SOL    HW113961   5.734   0.914   2.625  0.4146  0.8683  0.6091
 4354SOL    HW213962   5.618   0.800   2.625 -0.2175  1.4647 -1.5641
 4355SOL     OW13963   1.014   6.692   2.159  0.0068  0.0369  0.7874
 4355SOL    HW113964   0.945   6.625   2.189  0.2195 -0.5432  0.0275
 4355SOL    HW213965   1.013   6.697   2.059  0.9652  0.1289  0.7748
 4356SOL     OW13966   3.936   2.512   6.912  0.2043  0.2504  0.2669
 4356SOL    HW113967   3.862   2.576   6.890  1.0238  0.7363 -1.2245
 4356SOL    HW213968   3.938   2.439   6.844  1.6337  0.7205 -0.2202
 4357SOL     OW13969   4.211   0.714   1.624 -0.5597  0.0838  0.2314
 4357SOL    HW113970   4.161   0.627   1.622 -0.8881  0.2696  0.3167
 4357SOL    HW213971   4.253   0.730   1.535 -1.2075  0.2432 -0.0557
 4358SOL     OW13972   0.647   0.413   0.660  0.6417 -0.0031  0.3111
 4358SOL    HW113973   0.559   0.460   0.665  0.2270 -0.6740 -0.3761
 4358SOL    HW213974   0.632   0.317   0.637  1.5306 -0.2376  0.6620
 4359SOL     OW13975   1.926   1.181   0.198  0.1803  0.7498  0.4892
 4359SOL    HW113976   1.997   1.118   0.230  0.0940 -0.0849 -0.8846
 4359SOL    HW213977   1.948   1.274   0.228  2.3866  0.6793 -0.6528
 4360SOL     OW13978   1.574   1.527   2.394  0.0580  0.4062  0.6465
 4360SOL    HW113979   1.613   1.514   2.485 -1.7056 -4.1239  1.0033
 4360SOL    HW213980   1.617   1.463   2.330  0.4612  2.7130 -1.5451
 4361SOL     OW13981   1.477   0.048   1.644 -0.1921  0.4261 -0.6449
 4361SOL    HW113982   1.396  -0.009   1.653 -0.8040  1.4222  0.3092
 4361SOL    HW213983   1.528   0.048   1.730 -0.9561  2.4002 -0.1430
 4362SOL     OW13984   0.049   5.575   3.679  0.1777  0.0975 -0.3256
 4362SOL    HW113985   0.138   5.535   3.657 -0.3890 -0.7310 -1.2184
 4362SOL    HW213986   0.020   5.635   3.605 -0.9461 -1.3271 -1.1112
 4363SOL     OW13987   4.042   6.322   2.340 -0.6004  0.1456  0.0407
 4363SOL    HW113988   4.002   6.408   2.374  0.8153  1.5198 -1.5707
 4363SOL    HW213989   3.975   6.277   2.280 -1.0610  0.5567  0.2325
 4364SOL     OW13990   3.318   3.685   3.372 -0.5966 -0.2308 -0.0244
 4364SOL    HW113991   3.316   3.656   3.468  0.5031  0.0476  0.0926
 4364SOL    HW213992   3.366   3.616   3.318  2.8670  1.6181  0.3992
 4365SOL     OW13993   3.585   3.220   1.252  0.4854 -0.1548 -0.1290
 4365SOL    HW113994   3.505   3.225   1.193  0.8238 -3.4126 -1.0730
 4365SOL    HW213995   3.667   3.241   1.200  0.5462 -0.4674 -0.1658
 4366SOL     OW13996   5.147   6.751   4.441 -0.0126 -0.5243 -0.2498
 4366SOL    HW113997   5.092   6.667   4.449 -0.8151  0.0742  0.8638
 4366SOL    HW213998   5.134   6.790   4.350 -1.2919 -0.5189 -0.0889
 4367SOL     OW13999   3.793   6.307   3.803 -0.4136  0.2095 -0.5189
 4367SOL    HW114000   3.794   6.235   3.735 -0.0947 -0.3139  0.0324
 4367SOL    HW214001   3.885   6.345   3.812 -0.4800  0.3561 -0.4601
 4368SOL     OW14002   4.186   4.906   1.333  0.3304 -0.0341 -0.2397
 4368SOL    HW114003   4.247   4.937   1.261 -1.1131 -1.3773 -2.1655
 4368SOL    HW214004   4.204   4.809   1.352  0.0261  0.0478  0.4956
 4369SOL     OW14005   5.548   4.397   4.249 -0.5526 -0.9581  0.4376
 4369SOL    HW114006   5.629   4.427   4.299 -0.8277  0.1324  0.2458
 4369SOL    HW214007   5.468   4.400   4.309 -0.6906 -0.7119  0.2412
 4370SOL     OW14008   2.741   4.391   0.459 -0.5817  0.3495 -0.4342
 4370SOL    HW114009   2.690   4.475   0.440 -2.4160 -0.8098 -0.9075
 4370SOL    HW214010   2.838   4.412   0.470 -0.8142  2.3551 -1.7742
 4371SOL     OW14011   2.916   0.336   2.489  0.9841 -0.1867 -0.4136
 4371SOL    HW114012   2.953   0.411   2.543  0.8986  0.0956 -0.7441
 4371SOL    HW214013   2.840   0.368   2.433  1.6469 -0.2415 -1.3898
 4372SOL     OW14014   2.190   3.882   4.203 -0.3393  0.4443  0.5363
 4372SOL    HW114015   2.162   3.790   4.176 -0.5769  0.7742 -0.3712
 4372SOL    HW214016   2.250   3.921   4.133  1.5386  0.1868  1.9178
 4373SOL     OW14017   5.671   1.595   6.874 -0.4215 -0.5651 -0.4478
 4373SOL    HW114018   5.708   1.587   6.782  1.3036 -0.1838  0.1828
 4373SOL    HW214019   5.700   1.517   6.929 -1.1495 -0.6114 -0.1140
 4374SOL     OW14020   2.926   2.418   0.903 -0.1137  0.0632 -0.1947
 4374SOL    HW114021   2.979   2.481   0.846 -1.0725 -2.2118 -3.9369
 4374SOL    HW214022   2.831   2.416   0.872 -0.8327 -0.9849  1.8732
 4375SOL     OW14023   4.614   0.165   1.946 -0.7429 -0.1966 -0.4749
 4375SOL    HW114024   4.688   0.133   1.886 -1.7565 -2.1184 -0.7770
 4375SOL    HW214025   4.654   0.216   2.023  0.8696 -0.8357 -0.8444
 4376SOL     OW14026   4.237   6.957   1.805  0.3977  0.1278  0.4640
 4376SOL    HW114027   4.151   7.006   1.789  0.6695  0.7991  1.0197
 4376SOL    HW214028   4.221   6.859   1.794  0.0268  0.3594 -1.4890
 4377SOL     OW14029   5.662   0.937   6.423  0.2156 -0.3771 -0.4339
 4377SOL    HW114030   5.723   0.865   6.390 -1.2742 -0.6530 -2.7995
 4377SOL    HW214031   5.568   0.916   6.397 -0.4051  1.8758 -0.2118
 4378SOL     OW14032   1.455   5.444   1.655  0.0803  0.4475 -0.3994
 4378SOL    HW114033   1.454   5.382   1.732 -2.0613  1.8424  0.7920
 4378SOL    HW214034   1.525   5.515   1.670 -0.9042  1.2064  0.7107
 4379SOL     OW14035   2.252   1.126   1.458  0.3357 -0.2302 -0.3709
 4379SOL    HW114036   2.335   1.146   1.406 -0.0345  1.5836 -0.3329
 4379SOL    HW214037   2.196   1.209   1.466 -0.4379 -0.8620  1.4775
 4380SOL     OW14038   4.932   0.227   3.519 -0.1296 -0.1525  0.2932
 4380SOL    HW114039   4.927   0.129   3.499 -0.0029  0.1640 -1.5335
 4380SOL    HW214040   4.942   0.241   3.617  0.7009 -1.9994  0.5170
 4381SOL     OW14041   4.930   5.227   4.533 -0.6250 -0.2808 -0.0401
 4381SOL    HW114042   4.937   5.327   4.537 -0.0402 -0.2429 -1.7199
 4381SOL    HW214043   4.835   5.201   4.515 -0.9009 -0.0693  1.0406
 4382SOL     OW14044   6.054   3.503   5.899  0.8052  0.6245 -0.4740
 4382SOL    HW114045   5.968   3.523   5.946  0.6914  1.4547 -1.0062
 4382SOL    HW214046   6.083   3.409   5.919  0.3626  0.7109  0.6153
 4383SOL     OW14047   6.799   2.101   6.097 -0.0374  0.9062  0.0979
 4383SOL    HW114048   6.745   2.153   6.162 -2.5768  0.3523 -1.4435
 4383SOL    HW214049   6.791   2.143   6.006  0.7677 -0.1838 -0.4973
 4384SOL     OW14050   2.923   6.996   1.801 -0.2409  0.8320 -0.0872
 4384SOL    HW114051   2.951   6.901   1.818 -1.6829  0.2405 -0.8689
 4384SOL    HW214052   2.965   7.028   1.716 -0.3668  0.6158 -0.2335
 4385SOL     OW14053   1.187   1.354   2.798  0.8261  0.2061  0.3535
 4385SOL    HW114054   1.195   1.454   2.802  0.0730  0.3227 -0.6480
 4385SOL    HW214055   1.162   1.319   2.888  2.1416  0.7965  0.9846
 4386SOL     OW14056   1.925   3.179   0.750  0.3756 -0.0549 -0.3531
 4386SOL    HW114057   1.883   3.260   0.790  1.5399  0.0790  0.6480
 4386SOL    HW214058   1.921   3.186   0.650 -2.8576 -0.5481 -0.3766
 4387SOL     OW14059   0.552   3.117   2.420 -0.0244 -0.0712  0.5191
 4387SOL    HW114060   0.511   3.204   2.393  0.9135  0.6566  1.3527
 4387SOL    HW214061   0.641   3.107   2.374 -0.8324 -1.3659 -0.8398
 4388SOL     OW14062   2.907   2.041   6.890  0.0051 -0.4594  0.4998
 4388SOL    HW114063   2.841   2.099   6.938  0.3717 -0.2292  0.7313
 4388SOL    HW214064   2.992   2.091   6.877  1.0297 -1.5813  2.4374
 4389SOL     OW14065   6.186   2.483   1.158  0.5839 -0.2506 -0.2942
 4389SOL    HW114066   6.089   2.473   1.136  0.0354 -0.1362  1.8673
 4389SOL    HW214067   6.197   2.498   1.257  2.5725  2.7792 -0.8355
 4390SOL     OW14068   4.752   2.757   1.196  0.3709 -0.3231 -0.5155
 4390SOL    HW114069   4.711   2.747   1.286 -0.9474  1.7650 -0.8001
 4390SOL    HW214070   4.724   2.682   1.136 -1.8300  0.2229 -0.2347
 4391SOL     OW14071   0.606   6.052   0.091  0.1269 -0.0134 -0.5464
 4391SOL    HW114072   0.663   5.990   0.037  2.0308  0.3578  0.8903
 4391SOL    HW214073   0.636   6.049   0.186 -3.4147 -1.0293  0.7048
 4392SOL     OW14074   6.167   4.517   4.875 -0.1078 -0.3382  0.2426
 4392SOL    HW114075   6.198   4.423   4.892  1.1781  0.1454  0.6980
 4392SOL    HW214076   6.236   4.566   4.824 -2.6117 -0.8592 -4.1479
 4393SOL     OW14077   5.867   6.938   1.792 -0.1550 -0.2479 -0.0832
 4393SOL    HW114078   5.785   6.900   1.835 -0.5946  0.7540 -0.0222
 4393SOL    HW214079   5.886   6.887   1.708 -1.2224 -0.0938 -0.4434
 4394SOL     OW14080   4.620   1.130   2.141  0.2219  0.3686 -0.1323
 4394SOL    HW114081   4.657   1.051   2.189 -1.8555 -0.8601 -0.4657
 4394SOL    HW214082   4.550   1.174   2.196  1.7085  2.3816  0.2866
 4395SOL     OW14083   3.944   1.685   1.323 -0.5804 -0.5947  0.7214
 4395SOL    HW114084   4.001   1.614   1.364  1.7611 -0.1357 -1.4812
 4395SOL    HW214085   3.847   1.664   1.337  0.0612 -3.3679  1.4446
 4396SOL     OW14086   2.098   1.490   4.733  0.4548  0.2666 -0.4295
 4396SOL    HW114087   2.190   1.453   4.717  1.4071  1.1724  2.2732
 4396SOL    HW214088   2.038   1.417   4.764  1.0939  0.1295  0.5468
 4397SOL     OW14089   0.987   1.748   4.745  0.1451  0.1661 -0.0830
 4397SOL    HW114090   0.946   1.832   4.710 -0.0973  0.9827  2.0208
 4397SOL    HW214091   0.939   1.719   4.827 -0.5648 -2.7657 -1.3811
 4398SOL     OW14092   0.018   4.930   3.331 -0.0006 -0.7257 -0.2782
 4398SOL    HW114093  -0.002   4.917   3.428  0.0003  0.4309 -0.1064
 4398SOL    HW214094   0.002   4.845   3.282 -2.0286 -0.7728  0.3884
 4399SOL     OW14095   0.689   0.180   0.942 -0.2042 -0.0323  0.6008
 4399SOL    HW114096   0.651   0.119   1.011 -2.0742 -0.2634 -0.5791
 4399SOL    HW214097   0.663   0.149   0.851  2.1017  0.3433 -0.2564
 4400SOL     OW14098   3.807   4.960   5.995 -0.9004 -0.4024 -0.4517
 4400SOL    HW114099   3.835   5.002   5.909  0.5537 -1.1413 -0.3681
 4400SOL    HW214100   3.841   5.015   6.071 -0.9157 -0.5209 -0.3584
 4401SOL     OW14101   5.521   6.820   3.023 -0.3519 -0.0831  0.4586
 4401SOL    HW114102   5.559   6.789   3.110 -0.8479 -0.6059  0.4989
 4401SOL    HW214103   5.586   6.879   2.976  0.1809 -0.3301  0.8858
 4402SOL     OW14104   1.107   5.354   4.222  0.2551 -0.8558 -0.0115
 4402SOL    HW114105   1.133   5.343   4.318  0.2687  2.4796  0.4906
 4402SOL    HW214106   1.184   5.392   4.171 -0.6124  0.0438 -0.6836
 4403SOL     OW14107   1.535   1.818   4.189 -0.0713 -0.5372  0.6060
 4403SOL    HW114108   1.548   1.824   4.288  1.9588  0.0034  0.3627
 4403SOL    HW214109   1.492   1.903   4.157 -1.3324 -0.9756  1.0728
 4404SOL     OW14110   1.182   2.799   3.145 -0.0413  0.4587  0.1258
 4404SOL    HW114111   1.264   2.754   3.181  0.0427  0.2846 -0.2803
 4404SOL    HW214112   1.209   2.880   3.094 -0.1706  0.7829  0.5704
 4405SOL     OW14113   1.888   5.236   6.067  0.0859  0.2332 -0.6360
 4405SOL    HW114114   1.954   5.265   6.136  0.2162 -1.2465 -0.1183
 4405SOL    HW214115   1.917   5.272   5.977  0.3830  1.4299 -0.0902
 4406SOL     OW14116   6.967   3.937   1.294 -0.1507  0.0213  0.0923
 4406SOL    HW114117   6.933   3.858   1.243  0.1193 -1.0157  1.4532
 4406SOL    HW214118   6.993   3.908   1.386  1.1683  1.4610  0.2073
 4407SOL     OW14119   6.742   6.271   1.002  0.0127 -0.4747 -0.1244
 4407SOL    HW114120   6.701   6.338   1.063  0.3636  0.1166 -0.5290
 4407SOL    HW214121   6.744   6.181   1.047 -0.5960 -0.2516  0.3611
 4408SOL     OW14122   3.964   6.219   5.604  0.0247 -0.5032 -0.1830
 4408SOL    HW114123   3.873   6.245   5.637 -0.6753  1.7965 -3.3061
 4408SOL    HW214124   3.958   6.132   5.554 -0.5787 -0.2263 -0.6156
 4409SOL     OW14125   3.301   6.273   1.327  0.1322 -0.1759  0.5760
 4409SOL    HW114126   3.328   6.288   1.232 -1.7501 -1.4544 -0.2080
 4409SOL    HW214127   3.258   6.183   1.336 -2.6591  1.1757  1.9414
 4410SOL     OW14128   2.080   5.429   6.823 -0.3796  0.5106  0.2928
 4410SOL    HW114129   2.016   5.506   6.817 -0.0515  0.9031  1.5276
 4410SOL    HW214130   2.031   5.343   6.810 -1.0931  0.8267  0.8652
 4411SOL     OW14131   3.772   3.340   2.766 -0.2698  0.4527 -0.5389
 4411SOL    HW114132   3.684   3.303   2.797 -0.5308 -1.7248 -3.4622
 4411SOL    HW214133   3.756   3.406   2.693  0.4925 -1.4782 -2.5290
 4412SOL     OW14134   2.782   3.123   0.276  0.1494  0.2661  0.3478
 4412SOL    HW114135   2.758   3.212   0.237  0.5231  0.3817  0.3789
 4412SOL    HW214136   2.700   3.080   0.314  0.4267  1.9411  3.1306
 4413SOL     OW14137   5.034   5.714   3.908 -0.7587 -0.0947  0.0098
 4413SOL    HW114138   5.116   5.749   3.862 -0.0498 -1.7570 -0.0727
 4413SOL    HW214139   4.991   5.787   3.960  1.5821  0.5391  1.1894
 4414SOL     OW14140   3.988   5.434   1.425  0.1558  0.7433 -0.3007
 4414SOL    HW114141   3.898   5.435   1.467  0.9276  3.1863  1.5848
 4414SOL    HW214142   4.045   5.365   1.470 -0.3419  0.1916 -0.5051
 4415SOL     OW14143   4.261   1.567   5.302 -0.5987  0.0729 -0.1985
 4415SOL    HW114144   4.274   1.507   5.381 -0.8407 -0.1230 -0.3085
 4415SOL    HW214145   4.166   1.600   5.301  0.3720  3.4948  2.0462
 4416SOL     OW14146   3.787   6.850   4.503  0.1473 -0.2098 -0.1716
 4416SOL    HW114147   3.857   6.909   4.464 -2.1478  0.6594 -3.4260
 4416SOL    HW214148   3.789   6.761   4.457 -0.3815 -0.4325  0.2223
 4417SOL     OW14149   6.459   5.947   2.320 -0.0710 -0.0106 -0.8969
 4417SOL    HW114150   6.470   5.850   2.296 -0.4864  0.1858 -1.9154
 4417SOL    HW214151   6.503   5.964   2.409  1.4634 -0.7788 -1.4738
 4418SOL     OW14152   2.401   6.160   2.613 -0.9961  0.3265 -0.0878
 4418SOL    HW114153   2.479   6.143   2.553 -1.4172  0.1230 -0.5838
 4418SOL    HW214154   2.402   6.095   2.689 -0.3449  0.7206  0.2564
 4419SOL     OW14155   0.590   4.357   1.186 -0.4349  0.1144  0.1224
 4419SOL    HW114156   0.554   4.264   1.196 -1.2421  0.4576  0.5400
 4419SOL    HW214157   0.647   4.362   1.104 -2.1088 -0.2269 -1.1193
 4420SOL     OW14158   4.676   1.411   2.027 -0.1011  0.0293  0.3082
 4420SOL    HW114159   4.738   1.337   2.000  2.0116  1.7168  0.2098
 4420SOL    HW214160   4.661   1.407   2.126  1.0394  0.1682  0.5073
 4421SOL     OW14161   6.045   0.668   5.838  0.1596  0.2474 -0.3657
 4421SOL    HW114162   6.027   0.760   5.804  1.2714 -0.2921 -2.6710
 4421SOL    HW214163   6.110   0.672   5.914 -0.3106  1.3829 -0.0082
 4422SOL     OW14164   2.226   2.886   5.281  0.1179  0.0719 -0.3685
 4422SOL    HW114165   2.309   2.905   5.228 -0.8149 -0.4102 -2.0922
 4422SOL    HW214166   2.215   2.956   5.352  2.2666 -0.1740  0.2841
 4423SOL     OW14167   6.179   2.744   0.019 -0.0802 -0.1137  0.6240
 4423SOL    HW114168   6.106   2.681   0.045 -0.8105  0.6532  0.4841
 4423SOL    HW214169   6.266   2.712   0.056 -0.1416 -2.0613 -0.7609
 4424SOL     OW14170   5.982   6.249   2.922 -0.1243 -0.0374  0.3947
 4424SOL    HW114171   5.934   6.175   2.874  0.6911 -0.3865  0.1000
 4424SOL    HW214172   5.938   6.265   3.010 -0.2686 -0.9204  0.4961
 4425SOL     OW14173   5.269   6.439   0.174 -0.2865  0.5901 -0.3062
 4425SOL    HW114174   5.193   6.377   0.156  0.8701 -1.3863  1.1721
 4425SOL    HW214175   5.340   6.425   0.104 -0.1070  0.3427 -0.0800
 4426SOL     OW14176   0.701   1.712   5.367  0.2774  0.0067 -0.2051
 4426SOL    HW114177   0.623   1.771   5.348  0.2387 -0.5227 -1.9206
 4426SOL    HW214178   0.680   1.650   5.442 -1.2691 -0.6346 -1.1286
 4427SOL     OW14179   2.383   0.570   4.373  0.0736  0.0508  0.4931
 4427SOL    HW114180   2.351   0.493   4.429 -1.3052 -1.5157 -2.2263
 4427SOL    HW214181   2.482   0.565   4.363  0.0209 -1.3414  0.4401
 4428SOL     OW14182   2.330   4.228   2.869  0.4332  0.2847 -0.0217
 4428SOL    HW114183   2.350   4.319   2.906 -2.3347  0.3969  1.4664
 4428SOL    HW214184   2.315   4.236   2.770  0.6378  1.3744  0.0176
 4429SOL     OW14185   4.481   0.992   5.295  0.1010 -0.0573 -0.1473
 4429SOL    HW114186   4.560   1.015   5.239  0.5861 -1.3790 -0.0435
 4429SOL    HW214187   4.408   0.957   5.236  0.6265 -1.4884 -0.0002
 4430SOL     OW14188   4.899   1.630   2.363  0.2481 -0.1642 -0.2542
 4430SOL    HW114189   4.958   1.611   2.284  0.3697 -2.5837  0.3712
 4430SOL    HW214190   4.941   1.595   2.446 -1.1305 -0.0786  0.5122
 4431SOL     OW14191   4.375   2.077   4.693  0.6630  0.0236  0.0225
 4431SOL    HW114192   4.427   2.082   4.607  0.8072  0.6479  0.1438
 4431SOL    HW214193   4.332   2.165   4.711  0.3437 -0.2117  0.4145
 4432SOL     OW14194   3.009   3.320   4.293  0.0146 -0.0778 -0.0489
 4432SOL    HW114195   3.105   3.330   4.267  0.8930 -2.0960  2.0667
 4432SOL    HW214196   2.955   3.293   4.214  1.6771 -1.3874 -0.8019
 4433SOL     OW14197   6.857   0.919   2.515 -0.6646  0.6584  0.9089
 4433SOL    HW114198   6.793   0.921   2.438 -0.5544 -1.1061  0.7318
 4433SOL    HW214199   6.935   0.861   2.492 -0.0125  1.1207  1.8905
 4434SOL     OW14200   6.196   1.506   2.520  0.4487 -0.2627  0.3770
 4434SOL    HW114201   6.172   1.471   2.611  0.2648 -1.3500 -0.0819
 4434SOL    HW214202   6.220   1.603   2.528 -0.0627 -0.2056  1.5028
 4435SOL     OW14203   2.990   3.265   3.976  1.0120  0.6385 -0.2095
 4435SOL    HW114204   3.023   3.262   3.882  3.4765 -0.2375  0.6150
 4435SOL    HW214205   3.038   3.196   4.031 -1.9030 -0.4042  1.2696
 4436SOL     OW14206   3.499   6.597   1.783 -0.2825  0.1018 -0.8890
 4436SOL    HW114207   3.591   6.559   1.773 -0.6285 -1.1434  0.3824
 4436SOL    HW214208   3.453   6.554   1.861 -1.0397  2.4989  0.0832
 4437SOL     OW14209   3.421   5.394   5.745  0.1005  0.0070 -0.6737
 4437SOL    HW114210   3.415   5.325   5.674  0.0408 -0.2379 -0.4321
 4437SOL    HW214211   3.444   5.351   5.832 -5.5936 -0.7188  0.8662
 4438SOL     OW14212   4.871   2.165   1.245 -0.3713  0.7393  0.5447
 4438SOL    HW114213   4.880   2.206   1.154 -1.8677 -1.1227 -0.5553
 4438SOL    HW214214   4.949   2.189   1.301  1.3230  0.8346 -1.7134
 4439SOL     OW14215   2.324   4.747   1.530 -0.1694  0.3918  0.8056
 4439SOL    HW114216   2.379   4.770   1.449  0.0719  0.8500  1.0881
 4439SOL    HW214217   2.228   4.743   1.506  0.0372 -1.1708  0.1377
 4440SOL     OW14218   5.564   0.071   5.574  0.4510 -0.2823 -0.2172
 4440SOL    HW114219   5.530   0.160   5.541  3.2035  0.5530 -1.1084
 4440SOL    HW214220   5.634   0.087   5.643 -0.7291 -1.9030  1.4365
 4441SOL     OW14221   5.874   2.924   2.128  0.6573 -0.1283 -0.2412
 4441SOL    HW114222   5.791   2.879   2.096  0.2391 -2.3135  3.3280
 4441SOL    HW214223   5.951   2.898   2.071 -0.4151 -1.6058 -1.0807
 4442SOL     OW14224   3.508   5.718   3.585 -0.0613 -0.2630  0.0923
 4442SOL    HW114225   3.420   5.762   3.569  0.1769  0.5087  0.8324
 4442SOL    HW214226   3.497   5.643   3.650 -0.0290  0.4273  0.9073
 4443SOL     OW14227   3.875   1.987   0.251 -0.4175 -0.1578  0.5753
 4443SOL    HW114228   3.875   2.077   0.206 -1.1428  0.3659  1.5852
 4443SOL    HW214229   3.784   1.947   0.244 -0.2049 -0.6349  0.5029
 4444SOL     OW14230   4.351   6.055   2.181  0.2315 -0.0320 -0.3469
 4444SOL    HW114231   4.334   6.116   2.259  0.6705 -0.9395  0.4827
 4444SOL    HW214232   4.298   5.971   2.193  0.7694 -0.4262 -0.7185
 4445SOL     OW14233   0.562   1.843   6.184  0.1315 -0.1782  0.5867
 4445SOL    HW114234   0.648   1.893   6.172  0.2326  0.1930  2.4732
 4445SOL    HW214235   0.578   1.745   6.172  0.5535 -0.0125 -0.2529
 4446SOL     OW14236   7.017   0.449   1.582 -0.0914  0.5236  0.9059
 4446SOL    HW114237   7.099   0.398   1.560 -0.0694  0.3372  1.4081
 4446SOL    HW214238   7.040   0.526   1.642 -0.4209 -0.1611  1.9416
 4447SOL     OW14239   4.793   1.604   6.570  0.1535  0.4790 -0.2973
 4447SOL    HW114240   4.781   1.548   6.488 -1.0076  0.0509  0.1325
 4447SOL    HW214241   4.832   1.548   6.643 -1.7531 -0.0617  0.3805
 4448SOL     OW14242   2.431   3.904   5.586 -0.8057 -0.3111  0.1696
 4448SOL    HW114243   2.336   3.877   5.595 -1.5052  2.0163  0.3428
 4448SOL    HW214244   2.437   3.996   5.547  1.4507 -1.1444 -1.7858
 4449SOL     OW14245   2.077   1.354   5.980  0.2712  0.0855 -0.7087
 4449SOL    HW114246   1.982   1.343   5.950 -0.0113 -0.9811  0.4767
 4449SOL    HW214247   2.109   1.445   5.954 -2.1873  1.8042  1.6542
 4450SOL     OW14248   3.541   4.056   2.987 -0.1107  0.0804  0.4456
 4450SOL    HW114249   3.463   4.117   3.005 -0.7276 -0.3760 -0.5727
 4450SOL    HW214250   3.507   3.968   2.955  0.7679 -0.8649  1.9887
 4451SOL     OW14251   6.906   4.460   1.703  0.2110 -0.1910  0.5088
 4451SOL    HW114252   6.854   4.416   1.776  1.6569 -0.5736  1.3400
 4451SOL    HW214253   6.859   4.446   1.616 -2.7089  2.0513  1.5347
 4452SOL     OW14254   6.484   0.639   5.329 -0.0683  0.0880 -0.1099
 4452SOL    HW114255   6.502   0.683   5.241 -0.9335  0.7729  0.0361
 4452SOL    HW214256   6.418   0.565   5.316 -4.5187  3.5071  0.5689
 4453SOL     OW14257   4.414   1.689   0.786 -0.1441 -0.3818  0.6227
 4453SOL    HW114258   4.408   1.722   0.881 -0.2070 -1.3800  0.9783
 4453SOL    HW214259   4.326   1.651   0.758 -0.1788  0.0809  0.0956
 4454SOL     OW14260   4.488   3.575   0.599  0.0141  0.0485 -0.5247
 4454SOL    HW114261   4.393   3.606   0.592 -0.6051 -1.9530 -1.6936
 4454SOL    HW214262   4.491   3.487   0.645  1.0941 -0.7265 -2.0037
 4455SOL     OW14263   4.947   0.930   2.146 -0.0348 -0.1363  0.4095
 4455SOL    HW114264   4.982   1.009   2.195 -0.9333  0.1208  0.6564
 4455SOL    HW214265   4.866   0.894   2.193 -1.8042  0.9870 -1.5888
 4456SOL     OW14266   2.636   0.007   3.376 -0.4868 -0.0662 -0.3362
 4456SOL    HW114267   2.676  -0.076   3.416  1.1500 -0.0891 -1.9061
 4456SOL    HW214268   2.586  -0.017   3.293 -2.2851  0.2127  0.6311
 4457SOL     OW14269   3.931   1.603   0.153  0.0507 -0.0252 -0.0380
 4457SOL    HW114270   3.971   1.591   0.244  0.1309  0.5438  0.0073
 4457SOL    HW214271   3.838   1.566   0.152  0.1163 -0.1987  0.2226
 4458SOL     OW14272   2.946   3.784   5.817  0.3609  0.2558  0.5104
 4458SOL    HW114273   3.009   3.860   5.802  1.0195 -0.5336 -0.8914
 4458SOL    HW214274   2.940   3.729   5.733 -2.1169  0.2518  0.6233
 4459SOL     OW14275   3.035   6.371   5.199 -0.4674 -0.1035 -0.4211
 4459SOL    HW114276   3.124   6.389   5.157 -0.8155  0.2499 -1.0210
 4459SOL    HW214277   3.008   6.449   5.255 -0.5499 -0.0695 -0.5075
 4460SOL     OW14278   2.876   2.758   0.562  0.8791 -0.0482  0.2321
 4460SOL    HW114279   2.908   2.722   0.474  1.4098 -0.6009  0.6359
 4460SOL    HW214280   2.901   2.855   0.569  0.5829  0.0738 -0.3396
 4461SOL     OW14281   1.920   0.351   4.939  0.0160 -0.4986  0.1123
 4461SOL    HW114282   1.914   0.441   4.896  0.6328 -0.5559 -0.1026
 4461SOL    HW214283   1.968   0.359   5.026  1.8534 -0.9186 -0.8271
 4462SOL     OW14284   0.094   3.274   0.385  0.4886  0.1283 -0.7527
 4462SOL    HW114285   0.057   3.365   0.403  1.1750  0.3143 -0.2609
 4462SOL    HW214286   0.179   3.261   0.436  0.3913 -0.7980 -0.7984
 4463SOL     OW14287   6.240   3.016   6.986 -0.1961 -0.6406 -0.6388
 4463SOL    HW114288   6.189   3.073   7.049 -0.3742  0.6873 -1.9268
 4463SOL    HW214289   6.241   2.921   7.019  1.1007  0.2438  2.1531
 4464SOL     OW14290   5.375   3.693   5.194 -0.7745 -0.5384 -0.7035
 4464SOL    HW114291   5.279   3.722   5.187 -0.8345 -0.9057 -1.6635
 4464SOL    HW214292   5.416   3.730   5.277 -1.4389  0.5269 -0.8335
 4465SOL     OW14293   2.625   6.550   1.847  1.1246 -0.1602 -0.1999
 4465SOL    HW114294   2.607   6.565   1.750  0.5706  1.7029  0.1581
 4465SOL    HW214295   2.571   6.614   1.902  1.2549 -1.3268  1.3661
 4466SOL     OW14296   0.538   0.840   3.051  0.2535 -0.2344 -0.1357
 4466SOL    HW114297   0.501   0.759   3.004  2.4603 -1.3070 -0.1178
 4466SOL    HW214298   0.515   0.922   2.998 -0.9160 -0.9793 -0.8412
 4467SOL     OW14299   3.272   0.686   5.359  0.2943 -0.0535  1.2601
 4467SOL    HW114300   3.314   0.679   5.268 -0.1018  0.2387  1.0494
 4467SOL    HW214301   3.281   0.780   5.392 -1.6121  0.4460  0.4961
 4468SOL     OW14302   1.539   2.764   0.381  0.3927  0.3423  0.1265
 4468SOL    HW114303   1.492   2.677   0.395  0.7144  0.1667  0.1194
 4468SOL    HW214304   1.493   2.836   0.433  0.0456  0.1956  0.0232
 4469SOL     OW14305   4.477   1.047   1.895  0.5913  0.7473 -0.0491
 4469SOL    HW114306   4.470   1.135   1.847 -0.6683  0.9906  0.5331
 4469SOL    HW214307   4.475   1.063   1.994  0.0088  0.0564  0.0596
 4470SOL     OW14308   5.049   4.626   1.680 -0.1968 -0.8236 -0.6926
 4470SOL    HW114309   5.126   4.639   1.742 -1.0024 -1.6339  0.5247
 4470SOL    HW214310   5.081   4.581   1.596  0.5855 -1.5978  0.0016
 4471SOL     OW14311   1.384   2.566   1.206 -0.4231 -0.2178  0.4633
 4471SOL    HW114312   1.292   2.579   1.169 -0.8672  2.5477  2.2696
 4471SOL    HW214313   1.378   2.537   1.301  0.6554 -1.9551  0.0505
 4472SOL     OW14314   1.761   4.773   3.504  0.1315 -0.3471  0.3576
 4472SOL    HW114315   1.782   4.832   3.582 -1.0908  0.2106  0.2845
 4472SOL    HW214316   1.830   4.702   3.497 -0.6692 -1.5060  3.0526
 4473SOL     OW14317   5.837   0.139   6.079 -0.0208  0.0787  0.3249
 4473SOL    HW114318   5.887   0.063   6.037 -0.0328  0.7918 -1.0116
 4473SOL    HW214319   5.777   0.182   6.011  1.7762  2.8347  0.3442
 4474SOL     OW14320   4.314   6.662   1.715  0.8103  0.0988  0.0805
 4474SOL    HW114321   4.254   6.703   1.646  1.3903  0.5572 -0.1620
 4474SOL    HW214322   4.333   6.568   1.691 -0.3867 -0.2866  0.5409
 4475SOL     OW14323   0.432   5.544   6.366 -0.0132  0.6429 -0.1102
 4475SOL    HW114324   0.372   5.511   6.293 -0.0430  0.9960 -0.2490
 4475SOL    HW214325   0.463   5.467   6.421 -1.1759  0.5308  0.4142
 4476SOL     OW14326   4.206   5.572   0.235  0.7658  0.0964 -0.1760
 4476SOL    HW114327   4.279   5.597   0.299 -0.3160  1.4956  0.5553
 4476SOL    HW214328   4.245   5.519   0.160  2.5224  0.7264  0.2417
 4477SOL     OW14329   1.157   0.341   1.366  0.0341 -0.1382 -0.0896
 4477SOL    HW114330   1.241   0.301   1.402 -0.6075 -1.7731 -0.3504
 4477SOL    HW214331   1.157   0.439   1.384  1.0187 -0.4506  1.8076
 4478SOL     OW14332   0.511   6.922   3.912 -0.0081 -0.4227 -0.4309
 4478SOL    HW114333   0.567   6.927   3.994 -0.1968 -0.8745 -0.2705
 4478SOL    HW214334   0.446   6.997   3.910  1.7810  1.1918 -1.5079
 4479SOL     OW14335   1.129   1.958   0.341 -0.3129  0.2990  0.0697
 4479SOL    HW114336   1.126   1.859   0.328  0.3784  0.3385 -0.4242
 4479SOL    HW214337   1.060   1.985   0.409 -1.2744 -0.3834 -0.5987
 4480SOL     OW14338   1.001   5.043   3.710  0.3841 -0.2027  0.4159
 4480SOL    HW114339   1.067   5.113   3.682 -0.5807 -0.3341 -2.6117
 4480SOL    HW214340   1.028   4.955   3.671 -1.7688 -0.1452 -1.3876
 4481SOL     OW14341   0.693   6.565   3.257  0.5570  0.5966 -0.5699
 4481SOL    HW114342   0.764   6.591   3.322  0.3417  1.1504 -0.5543
 4481SOL    HW214343   0.608   6.614   3.278 -0.6988 -2.0867  1.1317
 4482SOL     OW14344   6.118   2.382   4.605 -0.1198 -0.1216  0.2978
 4482SOL    HW114345   6.124   2.405   4.702  0.8524 -0.9814  0.4519
 4482SOL    HW214346   6.169   2.450   4.552  0.8655 -0.6473  0.5547
 4483SOL     OW14347   5.954   2.117   2.124  0.1287 -0.3726 -0.1252
 4483SOL    HW114348   5.925   2.204   2.086  0.1528 -0.8649 -1.3319
 4483SOL    HW214349   6.049   2.099   2.098 -0.3313 -1.4242 -1.2175
 4484SOL     OW14350   5.166   4.948   6.504 -0.8336 -0.3310  0.1142
 4484SOL    HW114351   5.203   5.039   6.525 -0.5452 -0.3749 -0.1981
 4484SOL    HW214352   5.165   4.934   6.405  0.1614 -1.0914  0.2008
 4485SOL     OW14353   4.620   2.073   1.255 -0.5424 -0.0061  0.2292
 4485SOL    HW114354   4.705   2.123   1.274 -0.6086  0.4830 -0.6973
 4485SOL    HW214355   4.633   2.013   1.177 -1.0572  0.1024  0.0526
 4486SOL     OW14356   4.680   4.870   5.424 -0.2637 -0.7696  0.2237
 4486SOL    HW114357   4.675   4.963   5.460  2.3359 -0.7326  0.6470
 4486SOL    HW214358   4.696   4.873   5.325  1.2073 -0.7138  0.4490
 4487SOL     OW14359   3.780   2.563   5.382  0.2161 -0.2566 -0.1016
 4487SOL    HW114360   3.700   2.599   5.335 -0.3919 -0.2813  0.8785
 4487SOL    HW214361   3.778   2.463   5.381  0.6503 -0.2622 -0.7537
 4488SOL     OW14362   4.964   2.154   3.963  0.0189 -0.1793 -0.4104
 4488SOL    HW114363   4.937   2.187   3.872  0.0459 -0.1135 -0.3948
 4488SOL    HW214364   4.934   2.060   3.974  1.7293 -0.8617 -1.2452
 4489SOL     OW14365   6.615   5.553   3.199 -0.8336 -0.1773  0.4999
 4489SOL    HW114366   6.533   5.600   3.166 -2.8875 -2.6839  1.7202
 4489SOL    HW214367   6.638   5.478   3.137  0.4899  0.3830  0.2736
 4490SOL     OW14368   4.665   3.751   1.347 -0.1301  0.1774  0.2369
 4490SOL    HW114369   4.705   3.843   1.353 -0.6229  0.4351 -0.3950
 4490SOL    HW214370   4.609   3.734   1.428 -0.9040  0.8476 -0.1521
 4491SOL     OW14371   1.397   4.373   3.081  0.1570  0.0545  0.4477
 4491SOL    HW114372   1.347   4.435   3.021 -0.3063  1.1948  1.9542
 4491SOL    HW214373   1.349   4.286   3.087 -0.9039  0.6445  0.7643
 4492SOL     OW14374   2.909   1.676   1.004  0.3131 -0.7572 -0.2996
 4492SOL    HW114375   2.881   1.719   1.090  0.6719 -1.4804  0.1927
 4492SOL    HW214376   2.876   1.582   1.002 -1.5506 -0.1501 -1.9076
 4493SOL     OW14377   1.516   5.306   5.079  0.3643  0.3242  0.7595
 4493SOL    HW114378   1.482   5.313   5.173  0.3252  0.5134  0.7337
 4493SOL    HW214379   1.518   5.398   5.038  3.7436  0.8112  1.7356
 4494SOL     OW14380   6.563   2.752   5.278 -0.7418 -0.1531 -0.2320
 4494SOL    HW114381   6.468   2.722   5.266 -1.2216  1.0483  0.3390
 4494SOL    HW214382   6.575   2.841   5.235 -0.4200  0.6104  1.3714
 4495SOL     OW14383   4.666   6.877   2.038  0.4060  0.2350 -0.6351
 4495SOL    HW114384   4.651   6.914   2.130 -0.4154  0.4317 -0.8377
 4495SOL    HW214385   4.627   6.940   1.971 -1.4760 -1.1931 -0.9685
 4496SOL     OW14386   5.800   4.732   5.530  0.3952  0.2769  0.1043
 4496SOL    HW114387   5.753   4.707   5.445  1.3857 -2.8161  0.3459
 4496SOL    HW214388   5.809   4.651   5.588  1.3571  1.9177  2.3911
 4497SOL     OW14389   5.892   4.070   0.064 -0.4105 -0.1644 -0.1774
 4497SOL    HW114390   5.832   3.999   0.101  0.0843 -0.5681 -0.1303
 4497SOL    HW214391   5.963   4.092   0.132 -0.8921  0.7923  0.0386
 4498SOL     OW14392   6.605   4.728   0.801  0.2577  0.3061  0.1622
 4498SOL    HW114393   6.619   4.823   0.772  2.2454  0.0796  0.2512
 4498SOL    HW214394   6.658   4.711   0.885 -3.6166  0.3491  2.8741
 4499SOL     OW14395   1.056   3.771   5.638 -0.1952  0.2989 -0.2655
 4499SOL    HW114396   1.024   3.677   5.653  2.4028 -0.3632  1.8832
 4499SOL    HW214397   1.060   3.819   5.726 -0.8172  2.2512 -1.2461
 4500SOL     OW14398   3.483   3.361   3.871 -0.3076  0.0575  0.1420
 4500SOL    HW114399   3.470   3.263   3.857  0.9185 -0.4704  2.2942
 4500SOL    HW214400   3.406   3.398   3.923  1.3046 -0.8521  3.4915
 4501SOL     OW14401   7.021   3.827   5.732  0.3786  0.1508  0.5462
 4501SOL    HW114402   7.100   3.868   5.688  0.3053 -0.2484  0.0313
 4501SOL    HW214403   7.049   3.781   5.816  0.6164  0.4239  0.6159
 4502SOL     OW14404   1.218   3.620   6.650  0.3373 -0.4711  0.0602
 4502SOL    HW114405   1.174   3.531   6.663  1.0519 -0.8753 -0.2516
 4502SOL    HW214406   1.240   3.632   6.553  4.3776 -1.9624  0.6274
 4503SOL     OW14407   1.016   1.269   4.866 -0.7438 -0.3735 -0.4193
 4503SOL    HW114408   0.951   1.307   4.931 -0.3724 -0.9950  0.3208
 4503SOL    HW214409   1.104   1.317   4.874 -1.2468  0.8835 -1.8368
 4504SOL     OW14410   4.677   4.041   5.804  0.1643 -0.2176  0.2094
 4504SOL    HW114411   4.609   3.967   5.806  0.7991 -0.8104  0.5538
 4504SOL    HW214412   4.769   4.001   5.806  0.5146  0.5945  0.7847
 4505SOL     OW14413   0.973   0.351   6.048  0.1153 -0.1978 -0.5498
 4505SOL    HW114414   1.004   0.384   6.137 -0.7615  0.7339 -0.5741
 4505SOL    HW214415   1.050   0.346   5.985  0.0973  3.7852 -1.1558
 4506SOL     OW14416   5.014   0.016   3.198  0.5779 -0.0197  0.2550
 4506SOL    HW114417   4.921  -0.019   3.210  0.9065 -0.6064  1.1624
 4506SOL    HW214418   5.011   0.116   3.192 -0.2559 -0.1107 -1.2548
 4507SOL     OW14419   4.438   4.378   0.111  0.1694  0.1141  0.2159
 4507SOL    HW114420   4.476   4.444   0.175 -1.6743 -0.7817  2.4152
 4507SOL    HW214421   4.365   4.421   0.057  0.8435  0.5535 -0.3464
 4508SOL     OW14422   1.234   4.396   0.201  0.5980 -0.3170  0.0573
 4508SOL    HW114423   1.253   4.443   0.115 -0.0265 -0.8051 -0.3566
 4508SOL    HW214424   1.157   4.441   0.247  0.7144 -0.2595  0.1951
 4509SOL     OW14425   4.197   1.254   4.907  0.7602  0.1703  0.2361
 4509SOL    HW114426   4.215   1.325   4.839  1.6137  0.4528  0.7379
 4509SOL    HW214427   4.187   1.296   4.997 -0.1608 -0.2202  0.3264
 4510SOL     OW14428   4.313   4.905   5.395  0.0602 -0.3452 -0.5731
 4510SOL    HW114429   4.384   4.869   5.334 -0.1653 -1.1659 -0.3741
 4510SOL    HW214430   4.253   4.830   5.422  0.3430 -0.0686  0.8967
 4511SOL     OW14431   5.393   3.369   0.761 -0.1302  0.0263 -0.0279
 4511SOL    HW114432   5.304   3.408   0.739 -0.4696 -0.4737  0.4437
 4511SOL    HW214433   5.419   3.302   0.692 -0.6116 -0.6100  0.4014
 4512SOL     OW14434   0.760   6.049   1.060 -0.3208 -0.5749  0.7426
 4512SOL    HW114435   0.850   6.039   1.102  1.6028  0.3376 -2.7171
 4512SOL    HW214436   0.726   6.141   1.077 -0.1697 -0.6175  1.3053
 4513SOL     OW14437   4.481   6.839   2.916 -0.2922 -0.4335  0.0038
 4513SOL    HW114438   4.553   6.837   2.847  1.1103  0.1978  1.3986
 4513SOL    HW214439   4.398   6.878   2.876  0.9823  1.4966 -0.9372
 4514SOL     OW14440   2.897   1.282   5.576 -0.4809 -0.0716  0.1434
 4514SOL    HW114441   2.870   1.191   5.607 -0.4566 -0.7082 -1.5646
 4514SOL    HW214442   2.817   1.331   5.542 -0.5798  0.7698  1.5402
 4515SOL     OW14443   0.103   4.931   1.141 -0.3337  0.0697  0.0294
 4515SOL    HW114444   0.018   4.937   1.192  0.2705 -0.5685  1.1595
 4515SOL    HW214445   0.158   5.013   1.159 -0.9730  0.7841 -1.2148
 4516SOL     OW14446   2.365   2.071   5.218 -0.6504  0.3878 -0.1801
 4516SOL    HW114447   2.309   2.142   5.175  0.5360  1.0612 -0.6721
 4516SOL    HW214448   2.368   1.991   5.158  0.4460  1.0735 -1.0987
 4517SOL     OW14449   4.107   6.631   5.167  0.1012  0.2549 -0.0526
 4517SOL    HW114450   4.043   6.676   5.229 -0.2406 -0.5751  0.2131
 4517SOL    HW214451   4.113   6.534   5.191  1.7477  0.3902  0.1646
 4518SOL     OW14452   1.021   2.687   4.355 -0.2765 -0.2099  0.0666
 4518SOL    HW114453   1.092   2.664   4.288 -0.8857  1.3600 -1.1567
 4518SOL    HW214454   1.043   2.774   4.398 -1.1155 -0.0475  0.1828
 4519SOL     OW14455   0.618   1.863   3.438 -0.0570 -0.5433  0.8984
 4519SOL    HW114456   0.534   1.900   3.478  0.7266  1.2927  0.9537
 4519SOL    HW214457   0.681   1.838   3.512  0.5696  0.8694  0.8708
 4520SOL     OW14458   0.043   3.700   5.391  0.5887  0.3156  0.1083
 4520SOL    HW114459   0.021   3.638   5.316 -0.0714 -0.4473  0.9097
 4520SOL    HW214460   0.089   3.781   5.355  2.8676 -1.3000 -0.8137
 4521SOL     OW14461   4.373   4.524   6.606  0.0059 -0.1222 -0.4008
 4521SOL    HW114462   4.319   4.447   6.638 -0.4036 -0.3797 -1.6439
 4521SOL    HW214463   4.396   4.511   6.509  1.3323  0.5252 -0.2038
 4522SOL     OW14464   1.141   6.115   3.658 -0.4556  0.2472 -0.1977
 4522SOL    HW114465   1.132   6.020   3.627  1.0537 -0.0526  0.1800
 4522SOL    HW214466   1.052   6.151   3.685 -1.3739 -0.4201 -2.1498
 4523SOL     OW14467   4.789   6.285   6.504  0.3266 -0.3282  0.2026
 4523SOL    HW114468   4.716   6.231   6.461  1.0724 -0.2187 -1.2839
 4523SOL    HW214469   4.877   6.257   6.466  0.8748  0.8807  0.5439
 4524SOL     OW14470   3.801   6.156   4.945  0.2456  0.0027  0.3264
 4524SOL    HW114471   3.848   6.172   4.858 -0.8679  0.9974 -0.1135
 4524SOL    HW214472   3.712   6.114   4.928  0.2945 -0.3996  1.0374
 4525SOL     OW14473   5.302   6.064   4.995  0.0950 -0.0636  0.2837
 4525SOL    HW114474   5.249   6.024   5.070 -1.4191  0.4790 -0.4649
 4525SOL    HW214475   5.270   6.028   4.908  1.1760  0.0563 -0.1860
 4526SOL     OW14476   4.224   6.971   2.196  0.4526  0.5651 -0.8962
 4526SOL    HW114477   4.260   7.014   2.113  2.4071  2.5459  0.8400
 4526SOL    HW214478   4.288   6.902   2.229 -0.2398 -0.1036 -0.9224
 4527SOL     OW14479   4.436   0.879   3.318  0.7571  0.2331  0.0546
 4527SOL    HW114480   4.347   0.887   3.363 -0.4348 -0.1180 -2.1114
 4527SOL    HW214481   4.434   0.930   3.232  1.8539 -1.7185 -1.1875
 4528SOL     OW14482   5.200   1.078   0.903  0.3384  0.9664 -0.0952
 4528SOL    HW114483   5.124   1.033   0.857 -0.7330  1.6747  0.9266
 4528SOL    HW214484   5.211   1.040   0.995  2.8447 -0.8623 -1.0210
 4529SOL     OW14485   4.754   6.406   3.700 -0.1008  0.3100 -0.1294
 4529SOL    HW114486   4.665   6.360   3.699  0.8467 -1.6403 -0.3840
 4529SOL    HW214487   4.817   6.357   3.640  2.3416 -0.9586  3.1448
 4530SOL     OW14488   0.684   3.209   5.022  0.4234  0.5069 -0.0979
 4530SOL    HW114489   0.637   3.297   5.020  1.0474  0.9750  2.1712
 4530SOL    HW214490   0.703   3.184   5.117  2.8512 -0.6829 -0.8162
 4531SOL     OW14491   1.876   2.679   4.253  1.3166  0.4042  0.0006
 4531SOL    HW114492   1.911   2.586   4.244  1.4132  0.3365  1.0135
 4531SOL    HW214493   1.793   2.679   4.308  1.9069  1.0371  0.9190
 4532SOL     OW14494   4.751   6.433   1.761  0.1478 -0.0718  0.5501
 4532SOL    HW114495   4.709   6.355   1.807  0.3477  0.3953  1.5363
 4532SOL    HW214496   4.706   6.518   1.790  0.2259  0.2288 -0.1750
 4533SOL     OW14497   2.257   6.441   3.739  0.1889 -0.2468  0.6329
 4533SOL    HW114498   2.212   6.529   3.756 -1.4611 -1.0328  0.4639
 4533SOL    HW214499   2.201   6.367   3.775  0.6609 -1.3671 -0.8273
 4534SOL     OW14500   0.257   4.212   4.437 -0.2608 -0.4620 -0.2776
 4534SOL    HW114501   0.276   4.264   4.520 -1.9789  1.6209 -1.0892
 4534SOL    HW214502   0.339   4.161   4.410  1.9449  2.6604 -0.0049
 4535SOL     OW14503   4.108   2.189   1.489  0.2860 -0.4080  0.0281
 4535SOL    HW114504   4.109   2.185   1.589  1.1518  0.0370  0.0501
 4535SOL    HW214505   4.093   2.097   1.452 -0.0653 -0.5712  0.5651
 4536SOL     OW14506   6.625   1.165   6.811  0.6187 -0.4930 -0.5684
 4536SOL    HW114507   6.683   1.202   6.738  0.0066 -1.8696 -1.7988
 4536SOL    HW214508   6.658   1.074   6.837 -0.1818 -0.7320 -0.3536
 4537SOL     OW14509   4.010   4.083   1.463  0.2277 -0.2454  0.1000
 4537SOL    HW114510   3.938   4.138   1.505  0.1583  1.1550 -1.7401
 4537SOL    HW214511   4.065   4.040   1.535 -1.5631 -0.2104  1.5493
 4538SOL     OW14512   4.035   1.718   3.032  0.2986 -0.2964  0.0475
 4538SOL    HW114513   4.041   1.794   2.968 -1.4971  0.2381  0.4472
 4538SOL    HW214514   4.032   1.632   2.982  1.2628 -0.0499 -0.4557
 4539SOL     OW14515   3.537   1.353   1.975  0.5838  0.2661 -0.4215
 4539SOL    HW114516   3.608   1.423   1.963  2.2428 -1.2318  0.2209
 4539SOL    HW214517   3.456   1.379   1.923  0.8050  3.0658  0.4478
 4540SOL     OW14518   3.285   4.155   3.133  0.2176 -0.2862 -0.2861
 4540SOL    HW114519   3.232   4.071   3.120  1.1111 -0.8024 -0.6717
 4540SOL    HW214520   3.309   4.164   3.229  1.5398 -1.3696 -0.4881
 4541SOL     OW14521   6.215   0.745   0.356  0.2037  0.1805  0.6182
 4541SOL    HW114522   6.275   0.826   0.362  1.3371 -0.5981  0.0972
 4541SOL    HW214523   6.207   0.704   0.447 -1.1102  1.3593  1.0761
 4542SOL     OW14524   5.423   0.584   1.198 -1.6975 -0.3239 -0.0844
 4542SOL    HW114525   5.336   0.625   1.170 -1.6730 -0.7895 -0.9009
 4542SOL    HW214526   5.498   0.633   1.155 -1.6546 -1.0040 -0.8298
 4543SOL     OW14527   5.453   1.329   1.990  0.2353  0.2323 -0.4136
 4543SOL    HW114528   5.523   1.317   2.060  0.4788  0.3412 -0.6405
 4543SOL    HW214529   5.436   1.241   1.945 -0.5495 -0.0351  0.3757
 4544SOL     OW14530   3.127   4.742   0.447 -0.9554  0.4129  0.3316
 4544SOL    HW114531   3.038   4.706   0.420 -0.9340 -0.9787  1.9630
 4544SOL    HW214532   3.199   4.698   0.393 -1.1029 -0.1458  0.5926
 4545SOL     OW14533   1.438   1.067   6.225  0.4742  0.0112 -0.3811
 4545SOL    HW114534   1.356   1.042   6.175 -0.5279  0.1417  1.1470
 4545SOL    HW214535   1.437   1.025   6.316  1.2347  1.3944  0.3131
 4546SOL     OW14536   5.996   5.846   1.940  0.6586 -0.0294  0.1731
 4546SOL    HW114537   6.029   5.869   1.848 -1.4230 -0.1455 -0.6594
 4546SOL    HW214538   6.072   5.851   2.005  2.2075 -0.0379 -1.5555
 4547SOL     OW14539   5.975   3.395   1.551 -0.0873 -0.4363  0.6211
 4547SOL    HW114540   6.018   3.369   1.465  0.1091  0.2154  0.5175
 4547SOL    HW214541   5.877   3.411   1.536  0.1021  0.5096  0.3309
 4548SOL     OW14542   6.165   2.732   5.032  0.1915  0.2219 -0.8967
 4548SOL    HW114543   6.265   2.735   5.020  0.3185 -1.5926 -0.5477
 4548SOL    HW214544   6.121   2.775   4.953  1.2287 -0.2623 -1.7752
 4549SOL     OW14545   6.404   4.740   2.194 -0.8365  0.3640  0.2879
 4549SOL    HW114546   6.328   4.771   2.251 -0.6491 -0.1359  0.8271
 4549SOL    HW214547   6.447   4.818   2.149 -1.7840  0.6341 -0.1830
 4550SOL     OW14548   0.652   5.940   3.968  0.2071 -0.0056  0.0754
 4550SOL    HW114549   0.562   5.972   3.938  0.5584  0.0483 -0.9835
 4550SOL    HW214550   0.648   5.915   4.065 -0.8469  0.3462  0.1411
 4551SOL     OW14551   2.071   3.173   5.702  0.3064 -0.1061 -0.0228
 4551SOL    HW114552   2.146   3.157   5.638  0.7041  1.6396 -0.0434
 4551SOL    HW214553   1.985   3.179   5.651  0.4969  0.3380 -0.3034
 4552SOL     OW14554   6.773   2.311   5.413  0.5256  0.2539 -0.6040
 4552SOL    HW114555   6.767   2.222   5.458 -0.5032 -0.4155 -1.9931
 4552SOL    HW214556   6.860   2.318   5.365  0.2554 -0.3779 -1.2056
 4553SOL     OW14557   4.586   5.727   6.670 -0.2319  0.3378  0.1242
 4553SOL    HW114558   4.528   5.738   6.589  1.0169 -1.3959 -1.0611
 4553SOL    HW214559   4.590   5.631   6.696  4.3116 -0.1479 -1.6166
 4554SOL     OW14560   4.353   5.043   4.019  0.3329  1.0962  0.0501
 4554SOL    HW114561   4.274   5.096   4.047  0.4491 -0.0104  2.7790
 4554SOL    HW214562   4.431   5.064   4.079  0.7868 -1.0274  0.2807
 4555SOL     OW14563   5.638   2.489   0.326 -0.6484 -0.3025  0.3551
 4555SOL    HW114564   5.640   2.570   0.267 -0.6856  1.2162  2.3249
 4555SOL    HW214565   5.704   2.422   0.293 -1.5907 -0.0847 -2.1279
 4556SOL     OW14566   4.832   0.063   4.203 -0.0899 -0.7542  0.3280
 4556SOL    HW114567   4.927   0.065   4.234  0.5537  1.4246 -1.5273
 4556SOL    HW214568   4.778   0.006   4.265  1.9870 -0.3669  2.6587
 4557SOL     OW14569   5.116   1.589   6.156 -0.4433 -0.6968  0.2409
 4557SOL    HW114570   5.022   1.558   6.140 -1.0940  0.7248  1.1762
 4557SOL    HW214571   5.137   1.583   6.253  1.7356 -4.4159 -0.2530
 4558SOL     OW14572   4.370   2.179   4.346  0.6958 -0.2769 -0.3830
 4558SOL    HW114573   4.424   2.097   4.328  2.1023  0.6896 -0.8181
 4558SOL    HW214574   4.411   2.229   4.423 -0.9114 -0.6152  0.7407
 4559SOL     OW14575   2.204   5.160   1.012 -0.2369 -0.3246 -0.1993
 4559SOL    HW114576   2.261   5.107   0.949  0.7635  1.4796 -0.9069
 4559SOL    HW214577   2.254   5.176   1.097 -0.5294 -0.5056  0.0083
 4560SOL     OW14578   4.228   1.933   1.135 -0.0721 -0.5482 -0.0654
 4560SOL    HW114579   4.234   2.014   1.077  3.4438 -0.6272 -0.0130
 4560SOL    HW214580   4.197   1.959   1.226 -1.3851  0.2773 -0.7182
 4561SOL     OW14581   3.330   1.269   6.114  0.3886 -0.7408 -0.2141
 4561SOL    HW114582   3.390   1.336   6.070  0.2543 -0.5055 -0.0419
 4561SOL    HW214583   3.369   1.177   6.104  0.4673 -0.6622 -0.6316
 4562SOL     OW14584   1.186   5.758   6.978 -0.4797  0.0437  0.1499
 4562SOL    HW114585   1.115   5.760   6.908  0.6380 -0.1535 -1.0272
 4562SOL    HW214586   1.211   5.663   6.997 -1.1944  0.0670  1.2707
 4563SOL     OW14587   5.094   1.210   1.963 -0.5047  0.4936 -0.0635
 4563SOL    HW114588   5.084   1.228   2.061  0.4053  0.2279  0.0937
 4563SOL    HW214589   5.004   1.209   1.920 -1.2056 -2.2566  1.2726
 4564SOL     OW14590   1.595   6.772   0.057 -0.3826  0.0004 -0.5816
 4564SOL    HW114591   1.528   6.830   0.011 -1.5215  0.5678  1.6638
 4564SOL    HW214592   1.595   6.681   0.015 -0.5780  0.7587 -2.3358
 4565SOL     OW14593   6.016   7.009   3.891 -0.5250  0.7154  0.1012
 4565SOL    HW114594   6.085   7.081   3.902  0.4648 -0.3649  1.3711
 4565SOL    HW214595   5.941   7.044   3.836  1.4551  1.6358 -2.2084
 4566SOL     OW14596   7.003   1.427   6.424 -0.5308  0.0370  0.1555
 4566SOL    HW114597   6.929   1.388   6.370 -0.1492  0.5096 -0.7364
 4566SOL    HW214598   7.081   1.448   6.364 -0.4570  1.4716  0.7014
 4567SOL     OW14599   5.493   1.950   2.201 -0.0149  0.1968 -0.1349
 4567SOL    HW114600   5.581   1.924   2.160 -0.4353  0.0680 -0.9692
 4567SOL    HW214601   5.474   2.046   2.181  2.7260  2.1843  5.0057
 4568SOL     OW14602   1.887   4.125   6.996 -0.0569  0.0038  0.5787
 4568SOL    HW114603   1.892   4.179   7.080  0.1501 -0.2881  0.7531
 4568SOL    HW214604   1.850   4.182   6.923  0.0692  0.3570  0.7856
 4569SOL     OW14605   2.417   1.093   5.976 -0.1914 -0.1988  0.0435
 4569SOL    HW114606   2.501   1.129   5.936  0.3621  0.7892  1.9836
 4569SOL    HW214607   2.415   0.994   5.964  1.6149 -0.3382  0.5671
 4570SOL     OW14608   0.726   6.524   1.973 -0.2309  0.1828 -0.7764
 4570SOL    HW114609   0.697   6.615   1.942  1.1562 -0.0502 -2.9759
 4570SOL    HW214610   0.680   6.454   1.919  0.5688 -0.3346 -0.7975
 4571SOL     OW14611   3.526   3.379   3.599  0.6117  0.6524  0.3472
 4571SOL    HW114612   3.553   3.291   3.559 -1.3164  0.5062 -0.7865
 4571SOL    HW214613   3.492   3.364   3.692 -0.8670 -0.0686 -0.2600
 4572SOL     OW14614   1.273   5.640   6.057  0.3017  0.5069 -0.4850
 4572SOL    HW114615   1.344   5.657   6.126  1.8084  0.5290 -1.9753
 4572SOL    HW214616   1.303   5.678   5.970 -1.4613  0.2627 -1.2272
 4573SOL     OW14617   6.703   6.015   0.046  0.4709  0.2978  0.1485
 4573SOL    HW114618   6.672   6.034   0.139 -1.3761  1.4467 -0.6452
 4573SOL    HW214619   6.802   6.031   0.040  0.5609  0.5724  1.7970
 4574SOL     OW14620   6.028   2.829   1.927  0.1978  0.2553 -0.4069
 4574SOL    HW114621   6.106   2.800   1.983  1.5748  1.1060 -1.7854
 4574SOL    HW214622   6.049   2.812   1.830 -1.4031  0.3761 -0.7941
 4575SOL     OW14623   6.192   1.842   6.782 -0.1074 -0.5094  0.1911
 4575SOL    HW114624   6.135   1.883   6.853 -1.9125 -1.1244 -0.8144
 4575SOL    HW214625   6.177   1.744   6.780 -1.4568 -0.3374 -2.0895
 4576SOL     OW14626   3.351   6.256   5.866  0.2492 -0.1642  0.0670
 4576SOL    HW114627   3.419   6.227   5.934 -0.8251  0.1794  1.3472
 4576SOL    HW214628   3.266   6.204   5.880 -0.1910  0.3479 -0.6209
 4577SOL     OW14629   0.531   1.345   4.195 -0.0619 -0.3316  0.6687
 4577SOL    HW114630   0.554   1.339   4.292 -0.8154  1.7213  1.0196
 4577SOL    HW214631   0.435   1.319   4.181  0.4214 -1.9983  0.2333
 4578SOL     OW14632   1.167   2.881   3.856 -0.1439  0.2592 -0.6799
 4578SOL    HW114633   1.099   2.877   3.782 -1.2328  1.9545  0.1614
 4578SOL    HW214634   1.254   2.913   3.819 -0.3091 -0.1328 -1.4406
 4579SOL     OW14635   5.496   2.664   1.083  0.3275 -0.5432 -0.8831
 4579SOL    HW114636   5.507   2.666   1.182  0.1078  0.3849 -0.8676
 4579SOL    HW214637   5.550   2.737   1.042 -0.9575  0.1931 -1.2980
 4580SOL     OW14638   5.650   5.969   6.237  0.1173  0.3012  0.7902
 4580SOL    HW114639   5.723   5.981   6.303 -0.0413 -0.7693  1.1918
 4580SOL    HW214640   5.627   5.872   6.231 -1.0780  0.5871  0.4741
 4581SOL     OW14641   2.739   5.071   1.617 -0.0326 -0.1290 -1.0199
 4581SOL    HW114642   2.690   4.998   1.568 -0.4574  0.5724 -1.6538
 4581SOL    HW214643   2.838   5.053   1.612 -0.1928 -1.9133  0.8394
 4582SOL     OW14644   6.287   0.186   3.909  0.3780 -0.0683 -0.0339
 4582SOL    HW114645   6.360   0.134   3.954 -0.3669 -0.9547  0.1843
 4582SOL    HW214646   6.260   0.263   3.967  1.0544  0.1978 -0.0640
 4583SOL     OW14647   3.152   2.165   4.450  0.0433  0.1937  0.0190
 4583SOL    HW114648   3.114   2.196   4.537  0.2796 -0.4192  0.3387
 4583SOL    HW214649   3.084   2.180   4.377  0.7423  3.0659 -0.1589
 4584SOL     OW14650   1.387   4.774   5.428 -0.0670 -0.6320 -0.5044
 4584SOL    HW114651   1.475   4.791   5.473 -0.8451  1.2598  0.4302
 4584SOL    HW214652   1.381   4.829   5.345 -0.9081  0.3965  0.2098
 4585SOL     OW14653   3.880   5.160   2.574  0.7704  0.0085 -0.0632
 4585SOL    HW114654   3.923   5.135   2.660  1.3903 -0.9880 -0.6335
 4585SOL    HW214655   3.834   5.248   2.583 -1.0415 -1.0687  1.9139
 4586SOL     OW14656   3.157   6.198   0.265  0.2869 -0.4853  0.8531
 4586SOL    HW114657   3.125   6.177   0.357  1.3211 -0.5686  1.2060
 4586SOL    HW214658   3.099   6.151   0.198 -0.5764 -0.2790  1.4502
 4587SOL     OW14659   2.851   3.551   0.706  0.5951  0.4135  0.9861
 4587SOL    HW114660   2.935   3.532   0.755  1.1586  0.1181 -0.0568
 4587SOL    HW214661   2.796   3.468   0.701  1.3614 -0.0378 -0.3921
 4588SOL     OW14662   4.672   2.799   6.025  0.2462  0.2708 -0.3177
 4588SOL    HW114663   4.754   2.745   6.046 -0.7230 -1.2725 -0.3455
 4588SOL    HW214664   4.624   2.757   5.949 -0.9126  0.7927  0.1087
 4589SOL     OW14665   5.173   2.162   3.450  0.1216  0.5247 -0.2582
 4589SOL    HW114666   5.136   2.237   3.504 -1.7001  1.5950 -2.7933
 4589SOL    HW214667   5.120   2.079   3.467 -0.8628  1.0178 -0.7875
 4590SOL     OW14668   5.213   5.905   2.815 -0.2103  0.0975 -0.2069
 4590SOL    HW114669   5.160   5.822   2.800  0.5343 -0.5819  0.7969
 4590SOL    HW214670   5.253   5.903   2.907 -0.5493  1.7769  0.0281
 4591SOL     OW14671   4.907   5.573   4.864 -0.0748 -0.5549 -0.1965
 4591SOL    HW114672   4.859   5.487   4.850 -1.1539  0.0871 -0.5785
 4591SOL    HW214673   4.924   5.617   4.776  0.3106 -0.2899  0.0062
 4592SOL     OW14674   3.543   3.103   3.035  0.2868  0.1415  0.2465
 4592SOL    HW114675   3.554   3.027   2.971  0.0132 -1.4257  1.9345
 4592SOL    HW214676   3.630   3.121   3.081  0.6231  1.6315 -0.8980
 4593SOL     OW14677   4.746   0.408   3.089  0.3629  0.0039 -0.5191
 4593SOL    HW114678   4.800   0.335   3.046 -0.0013  0.2508 -1.4129
 4593SOL    HW214679   4.720   0.475   3.020 -2.7750 -1.1212 -0.5854
 4594SOL     OW14680   4.082   1.288   0.837 -0.2942 -0.1602  0.6348
 4594SOL    HW114681   4.036   1.243   0.760  0.9669  0.5193 -0.5605
 4594SOL    HW214682   4.025   1.363   0.871 -0.8201 -0.4064  0.3105
 4595SOL     OW14683   4.858   3.980   6.786  0.0245  0.1546 -0.3265
 4595SOL    HW114684   4.788   3.972   6.715 -0.1412  1.1553 -0.2900
 4595SOL    HW214685   4.814   3.991   6.875  0.2134  1.0582 -0.3343
 4596SOL     OW14686   5.202   5.518   2.060  0.3999  0.3976 -0.1024
 4596SOL    HW114687   5.285   5.503   2.006  0.2731  0.8674 -0.4348
 4596SOL    HW214688   5.206   5.462   2.143  0.7743 -0.0343 -0.4082
 4597SOL     OW14689   6.261   3.844   0.606 -0.0251  0.6614 -0.3671
 4597SOL    HW114690   6.176   3.842   0.554  0.0377  0.1161 -0.4580
 4597SOL    HW214691   6.319   3.767   0.577 -0.7774 -0.8551  1.8620
 4598SOL     OW14692   2.258   5.869   6.949  0.3845  0.2041 -0.2427
 4598SOL    HW114693   2.170   5.901   6.984  0.3923 -0.1777  0.1235
 4598SOL    HW214694   2.313   5.948   6.922 -0.0166  0.4516 -0.3504
 4599SOL     OW14695   2.474   5.476   2.201 -0.1510  0.1604  0.1427
 4599SOL    HW114696   2.475   5.560   2.256  2.0408  0.4196 -0.2101
 4599SOL    HW214697   2.482   5.397   2.261  0.1005  0.3300  0.3347
 4600SOL     OW14698   3.799   5.308   0.573 -0.2084 -0.2624 -0.5389
 4600SOL    HW114699   3.743   5.230   0.543 -1.2594  0.5855 -0.8564
 4600SOL    HW214700   3.759   5.393   0.539 -0.4557  0.6255  1.7424
 4601SOL     OW14701   1.522   2.087   5.949 -0.0093  0.0789  0.2008
 4601SOL    HW114702   1.433   2.072   5.992  0.2759  0.2236  0.8543
 4601SOL    HW214703   1.509   2.138   5.864 -0.4545  1.0923  0.8589
 4602SOL     OW14704   2.189   6.488   1.241 -0.4366  0.5096 -0.2546
 4602SOL    HW114705   2.240   6.568   1.210 -3.2918  3.2931  1.4944
 4602SOL    HW214706   2.199   6.480   1.341 -1.4062 -0.3496 -0.2153
 4603SOL     OW14707   4.631   5.284   2.027 -0.0465  0.4115  0.0404
 4603SOL    HW114708   4.602   5.297   2.122 -1.2703 -0.2510 -0.2273
 4603SOL    HW214709   4.658   5.188   2.014 -0.5862  0.3309 -0.4658
 4604SOL     OW14710   4.263   6.546   0.777 -0.1560 -0.1764 -0.2412
 4604SOL    HW114711   4.332   6.618   0.784  0.5536 -0.6830 -1.7171
 4604SOL    HW214712   4.302   6.466   0.732 -1.1183 -1.2699  0.8079
 4605SOL     OW14713   3.993   1.655   5.312  0.4448  0.6266  0.0716
 4605SOL    HW114714   3.984   1.632   5.215  1.5733  3.9326 -0.9405
 4605SOL    HW214715   3.908   1.698   5.345 -0.4311 -1.6540  1.0227
 4606SOL     OW14716   0.072   4.985   4.801  0.5592  0.2128  0.1592
 4606SOL    HW114717   0.151   5.028   4.847 -0.9129  1.2038  1.9008
 4606SOL    HW214718   0.074   5.009   4.704  1.3047  1.9825  0.5509
 4607SOL     OW14719   3.216   0.526   0.677  0.3945 -0.3443 -0.2851
 4607SOL    HW114720   3.230   0.554   0.772 -1.6959  0.7334 -0.2449
 4607SOL    HW214721   3.209   0.607   0.620  1.3176 -0.9849 -1.3421
 4608SOL     OW14722   0.696   5.302   4.420  0.0727 -0.6310 -0.5484
 4608SOL    HW114723   0.712   5.349   4.508 -0.0005 -1.0769 -0.2955
 4608SOL    HW214724   0.605   5.262   4.420 -1.0372  1.7052 -1.8954
 4609SOL     OW14725   4.869   0.231   6.428  0.1894 -0.0285 -0.1020
 4609SOL    HW114726   4.852   0.164   6.500  2.1674  0.2641  0.6913
 4609SOL    HW214727   4.879   0.322   6.468  0.8363  0.2120 -0.7871
 4610SOL     OW14728   1.204   2.105   1.152 -0.8423 -0.5703 -0.5825
 4610SOL    HW114729   1.169   2.187   1.107 -0.6807 -0.2936 -0.2080
 4610SOL    HW214730   1.273   2.131   1.220 -2.0446 -0.8704  0.7845
 4611SOL     OW14731   0.282   3.734   0.673  0.2836 -0.0362  0.1680
 4611SOL    HW114732   0.316   3.642   0.690  0.7896 -0.6199 -3.2942
 4611SOL    HW214733   0.183   3.731   0.655 -0.4153  0.6765  3.3190
 4612SOL     OW14734   2.264   0.441   4.912  0.6511  0.0411  0.3710
 4612SOL    HW114735   2.252   0.538   4.930 -0.6493 -0.1716  0.7413
 4612SOL    HW214736   2.361   0.421   4.899  0.8773  1.4722 -0.2575
 4613SOL     OW14737   2.936   5.269   2.914 -0.5167  0.6723  0.0571
 4613SOL    HW114738   2.963   5.344   2.854 -0.6742  0.9790  0.3630
 4613SOL    HW214739   2.973   5.183   2.879 -1.4519  0.6865 -1.0432
 4614SOL     OW14740   1.698   6.753   6.439  0.0711  0.0154  0.3764
 4614SOL    HW114741   1.676   6.743   6.342 -1.4103 -0.6524  0.7542
 4614SOL    HW214742   1.795   6.775   6.449  0.3587 -0.3871 -1.2265
 4615SOL     OW14743   3.698   1.567   1.065  0.0342  0.1993  0.2394
 4615SOL    HW114744   3.608   1.535   1.037 -0.5120  0.8907  1.1537
 4615SOL    HW214745   3.703   1.666   1.052  0.8017  0.1138 -0.1600
 4616SOL     OW14746   0.009   0.230   0.531 -0.3802 -0.2524 -0.6036
 4616SOL    HW114747  -0.033   0.229   0.440  1.8993  0.5840 -1.7285
 4616SOL    HW214748   0.108   0.226   0.523 -0.0783  0.4766  1.8407
 4617SOL     OW14749   1.764   1.450   1.739 -0.2583  0.1884 -0.4641
 4617SOL    HW114750   1.850   1.428   1.785 -0.5596  1.3869  0.7549
 4617SOL    HW214751   1.687   1.425   1.797 -0.7428 -0.5217 -1.3811
 4618SOL     OW14752   6.158   3.836   6.212 -0.0725  0.3655  0.5921
 4618SOL    HW114753   6.070   3.877   6.188 -0.2614  0.2623  1.0966
 4618SOL    HW214754   6.221   3.846   6.135 -0.4473  0.6565  0.3157
 4619SOL     OW14755   5.476   1.838   3.879 -0.8606 -0.3490 -0.4364
 4619SOL    HW114756   5.433   1.796   3.959 -1.0913  1.4974  0.4601
 4619SOL    HW214757   5.424   1.919   3.852 -0.6130 -0.7641 -2.3010
 4620SOL     OW14758   3.002   6.003   6.585 -0.1081  0.2866 -0.2278
 4620SOL    HW114759   2.961   5.931   6.641  1.4969  0.9534  1.9510
 4620SOL    HW214760   2.960   6.003   6.494 -2.2525 -1.4041  0.6755
 4621SOL     OW14761   5.648   1.281   5.746 -0.2253 -0.5391  1.0321
 4621SOL    HW114762   5.629   1.277   5.648 -0.3419  1.3656  0.9506
 4621SOL    HW214763   5.586   1.219   5.795 -0.5222 -1.1095 -0.0410
 4622SOL     OW14764   2.901   4.096   1.640 -0.1099  0.4462 -0.7508
 4622SOL    HW114765   2.910   4.000   1.616 -0.8854 -1.1987  4.4397
 4622SOL    HW214766   2.841   4.142   1.574  0.8670 -2.3159 -3.7932
 4623SOL     OW14767   6.403   5.596   0.371 -0.4730 -0.3056  0.1344
 4623SOL    HW114768   6.419   5.694   0.377  2.6865 -0.8201  4.2894
 4623SOL    HW214769   6.487   5.549   0.347 -0.7988 -2.1670  2.3035
 4624SOL     OW14770   3.947   0.410   5.629 -0.7135 -0.1624  0.0106
 4624SOL    HW114771   4.015   0.374   5.564 -1.4015 -1.7591  0.1283
 4624SOL    HW214772   3.945   0.352   5.710 -0.2943  1.4689  1.2353
 4625SOL     OW14773   0.688   4.353   5.801 -0.2217  0.1413  0.3040
 4625SOL    HW114774   0.600   4.308   5.821  0.7300 -0.9254  2.4959
 4625SOL    HW214775   0.739   4.298   5.735 -1.2976  0.9516 -1.2557
 4626SOL     OW14776   1.405   5.474   2.589 -0.1271  0.7934  0.3196
 4626SOL    HW114777   1.408   5.497   2.492  0.6136 -0.7806 -0.0630
 4626SOL    HW214778   1.488   5.506   2.633  0.5219 -0.3714 -0.0340
 4627SOL     OW14779   3.996   6.439   6.217 -0.0679  0.0030  0.2737
 4627SOL    HW114780   4.023   6.440   6.120  1.1478 -2.6544  0.5083
 4627SOL    HW214781   3.902   6.405   6.225 -0.4163  0.8640  0.0302
 4628SOL     OW14782   0.439   5.256   2.082  0.1488 -0.2043  0.0092
 4628SOL    HW114783   0.514   5.311   2.119 -0.8559  0.3892  1.2635
 4628SOL    HW214784   0.362   5.317   2.059 -0.3078 -0.8942 -0.3173
 4629SOL     OW14785   2.020   0.661   5.206 -0.3468  0.5640  0.5191
 4629SOL    HW114786   2.114   0.689   5.226 -0.0259 -0.5732  0.7271
 4629SOL    HW214787   2.017   0.561   5.197 -1.3749  0.6560 -0.3861
 4630SOL     OW14788   1.371   6.584   4.589 -0.5062  0.3713  0.0608
 4630SOL    HW114789   1.318   6.521   4.645 -0.5062  1.0082  0.7986
 4630SOL    HW214790   1.309   6.643   4.537 -0.5514  1.2008  1.0185
 4631SOL     OW14791   2.677   6.036   4.024 -0.2129 -0.3924  0.5145
 4631SOL    HW114792   2.684   6.133   4.001 -1.4710 -0.2001  0.8544
 4631SOL    HW214793   2.689   5.981   3.941 -0.0497  0.0767  0.2218
 4632SOL     OW14794   3.645   5.625   6.085  0.0147  0.1800  0.0449
 4632SOL    HW114795   3.601   5.541   6.119 -0.2180 -0.0695 -0.8375
 4632SOL    HW214796   3.742   5.608   6.070  0.2235  0.4369  1.0367
 4633SOL     OW14797   5.476   6.292   6.362  0.2653  0.4636  0.2323
 4633SOL    HW114798   5.454   6.256   6.453  0.8857  0.3070  0.3304
 4633SOL    HW214799   5.463   6.391   6.361  0.7849  0.5411  0.6616
 4634SOL     OW14800   1.854   5.312   1.532  0.1928  0.1727  0.0872
 4634SOL    HW114801   1.775   5.338   1.477  0.1838 -1.7132 -0.8717
 4634SOL    HW214802   1.826   5.297   1.627 -0.5990 -0.4222 -0.2349
 4635SOL     OW14803   6.098   2.627   2.751  0.0206 -0.3526  0.2340
 4635SOL    HW114804   5.999   2.613   2.755 -0.2892  1.0518 -1.4421
 4635SOL    HW214805   6.139   2.556   2.694  0.1435 -1.4371  1.6033
 4636SOL     OW14806   2.748   5.403   7.016  0.5189 -0.5851 -0.0436
 4636SOL    HW114807   2.811   5.326   6.999  2.1706  0.8889 -0.9835
 4636SOL    HW214808   2.800   5.488   7.018 -1.4927  0.7451 -1.0244
 4637SOL     OW14809   0.566   7.021   5.038  0.1361 -0.0975 -0.1127
 4637SOL    HW114810   0.504   7.057   5.108  0.2032 -0.0414 -0.0823
 4637SOL    HW214811   0.599   6.931   5.065  2.4981  1.1347  1.3680
 4638SOL     OW14812   5.294   4.381   0.372 -0.4698  0.4433  0.1019
 4638SOL    HW114813   5.303   4.379   0.273 -0.5115 -3.4021  0.0301
 4638SOL    HW214814   5.383   4.399   0.414  0.1285 -0.5621 -0.6782
 4639SOL     OW14815   0.489   3.939   5.165  0.1781 -0.1067 -0.3060
 4639SOL    HW114816   0.533   3.880   5.098 -2.5595 -2.2463 -0.4011
 4639SOL    HW214817   0.535   4.028   5.167  2.2307 -0.9942 -2.7640
 4640SOL     OW14818   6.032   3.924   3.541  0.4880  0.4759  0.2486
 4640SOL    HW114819   5.951   3.955   3.491 -0.4891 -0.2336  1.3562
 4640SOL    HW214820   6.026   3.953   3.636  0.9309 -0.6489  0.6375
 4641SOL     OW14821   5.222   4.197   4.438 -0.0732  0.3435  0.4948
 4641SOL    HW114822   5.192   4.102   4.430 -1.7534  0.9032 -0.3234
 4641SOL    HW214823   5.164   4.246   4.503  2.1841  0.3234  2.6774
 4642SOL     OW14824   6.836   3.925   2.041 -0.2713  0.9432  0.4640
 4642SOL    HW114825   6.759   3.922   1.976 -0.0580  2.9391  0.0388
 4642SOL    HW214826   6.919   3.896   1.994 -0.7311 -1.3992  0.9732
 4643SOL     OW14827   4.837   2.397   1.694 -0.2463 -0.1670 -0.1639
 4643SOL    HW114828   4.842   2.460   1.616  0.2136  1.7188  1.3220
 4643SOL    HW214829   4.742   2.390   1.723 -0.3918 -0.7104 -0.7539
 4644SOL     OW14830   1.910   6.704   5.727  0.1204  0.2161  0.0679
 4644SOL    HW114831   2.004   6.680   5.750  0.0810  0.6804  0.7526
 4644SOL    HW214832   1.848   6.635   5.765  0.0494  1.0265  1.5109
 4645SOL     OW14833   3.761   1.093   4.482  0.3398  0.1126  0.2013
 4645SOL    HW114834   3.725   1.001   4.494 -2.5138  1.3678  2.3935
 4645SOL    HW214835   3.707   1.143   4.414 -0.5129  1.2250  1.6355
 4646SOL     OW14836   0.892   6.850   3.025 -0.0362  0.3801  0.1133
 4646SOL    HW114837   0.874   6.939   2.983  1.0554  1.3307  1.5590
 4646SOL    HW214838   0.889   6.858   3.125  0.2009 -1.1865  0.2810
 4647SOL     OW14839   6.927   1.001   4.217  0.0444 -0.1024 -0.5389
 4647SOL    HW114840   6.977   1.081   4.252 -2.8433  1.6358 -0.0411
 4647SOL    HW214841   6.991   0.925   4.206  2.5022  1.4955  1.3226
 4648SOL     OW14842   2.419   5.148   5.817  0.4692  0.3748 -0.9404
 4648SOL    HW114843   2.380   5.237   5.795  1.7930  0.4245 -3.3964
 4648SOL    HW214844   2.349   5.077   5.809 -0.3014  1.0237 -0.1422
 4649SOL     OW14845   4.831   1.123   5.652 -0.4900  0.3031  0.0601
 4649SOL    HW114846   4.925   1.097   5.629 -0.3971  1.0310 -0.4276
 4649SOL    HW214847   4.832   1.193   5.723 -0.5105  2.2280 -1.7257
 4650SOL     OW14848   6.999   5.423   0.970 -0.5794 -0.1183 -0.1118
 4650SOL    HW114849   6.960   5.334   0.947 -3.6683  1.1720 -0.4113
 4650SOL    HW214850   6.951   5.494   0.918  2.1027  1.7263 -0.2467
 4651SOL     OW14851   5.254   4.296   1.283 -0.7981 -0.0424 -0.4691
 4651SOL    HW114852   5.337   4.333   1.241 -1.1370  0.4580 -0.7061
 4651SOL    HW214853   5.260   4.196   1.285  0.6842  0.0384  1.3192
 4652SOL     OW14854   6.610   0.829   5.153 -0.2535  0.0299 -0.0526
 4652SOL    HW114855   6.564   0.803   5.068  0.2119  0.3158 -0.3936
 4652SOL    HW214856   6.709   0.823   5.141 -0.1937 -1.3420  0.9167
 4653SOL     OW14857   6.022   0.898   6.171  0.4360  0.6727 -0.4292
 4653SOL    HW114858   5.984   0.842   6.244 -0.3527  0.9127 -0.6492
 4653SOL    HW214859   6.122   0.895   6.176  0.4052  1.2446  1.0934
 4654SOL     OW14860   0.482   6.725   0.828  0.3605 -0.4219 -0.4820
 4654SOL    HW114861   0.466   6.811   0.781 -1.6915 -1.5396 -1.9896
 4654SOL    HW214862   0.399   6.696   0.875  0.9070 -1.7320 -0.2678
 4655SOL     OW14863   5.521   4.095   3.382  0.4917 -0.3412  0.0358
 4655SOL    HW114864   5.452   4.086   3.454  0.5321 -0.8229  0.0172
 4655SOL    HW214865   5.491   4.043   3.301  0.0589  0.8501 -0.5879
 4656SOL     OW14866   0.616   0.082   4.698 -0.2523  0.5021 -0.6350
 4656SOL    HW114867   0.686   0.040   4.755 -0.7274  0.1512 -0.3018
 4656SOL    HW214868   0.629   0.053   4.603  0.1819  0.6133 -0.6122
 4657SOL     OW14869   3.999   6.955   2.379  0.0373  0.5337  0.2484
 4657SOL    HW114870   4.060   6.949   2.299  0.9150  0.9361  0.8801
 4657SOL    HW214871   3.912   6.995   2.350  0.9273  2.2690 -0.2144
 4658SOL     OW14872   4.863   6.836   1.635 -0.0867 -0.1261 -0.0054
 4658SOL    HW114873   4.940   6.785   1.597 -0.4815  0.6048 -1.8588
 4658SOL    HW214874   4.796   6.855   1.563 -0.6184  1.7957  0.9357
 4659SOL     OW14875   2.233   1.506   4.337 -0.1524  0.3470 -0.2405
 4659SOL    HW114876   2.287   1.436   4.383 -1.0497  0.4869  1.0792
 4659SOL    HW214877   2.276   1.596   4.349 -1.0151  0.5708  1.4566
 4660SOL     OW14878   6.679   1.945   5.227 -0.1796 -0.2141  0.4060
 4660SOL    HW114879   6.626   1.980   5.304 -2.4640  1.1980 -1.6417
 4660SOL    HW214880   6.749   2.012   5.202 -0.5875  0.1530  0.2204
 4661SOL     OW14881   3.574   3.464   5.726  0.2377 -0.2961 -0.1319
 4661SOL    HW114882   3.505   3.404   5.685  0.2518  0.3133 -1.0761
 4661SOL    HW214883   3.665   3.430   5.706  0.3325  1.0795 -2.4740
 4662SOL     OW14884   5.860   0.272   4.473  1.1065 -0.5221  0.1827
 4662SOL    HW114885   5.850   0.370   4.490  1.0047 -0.1412 -1.7739
 4662SOL    HW214886   5.944   0.239   4.515  0.2450 -0.0254  2.4106
 4663SOL     OW14887   0.210   1.555   2.667 -0.1026  0.5081  0.1247
 4663SOL    HW114888   0.151   1.572   2.588 -0.8569 -0.0310  0.5544
 4663SOL    HW214889   0.192   1.623   2.738 -1.4756 -0.6401  0.9349
 4664SOL     OW14890   1.765   2.493   6.546  0.2597 -0.9189 -0.2059
 4664SOL    HW114891   1.811   2.433   6.480  0.9488 -0.7529  0.1091
 4664SOL    HW214892   1.814   2.581   6.551  0.4908 -1.0933  0.8503
 4665SOL     OW14893   4.765   1.747   6.145 -0.2560  0.0400  0.1597
 4665SOL    HW114894   4.743   1.772   6.050  0.6134 -0.6635 -0.2352
 4665SOL    HW214895   4.688   1.697   6.184  0.3964 -2.0759 -1.0946
 4666SOL     OW14896   1.910   1.355   0.559  0.1214  0.2677 -0.2131
 4666SOL    HW114897   1.821   1.314   0.580  0.6844 -0.3556  1.0247
 4666SOL    HW214898   1.922   1.438   0.614  1.7438 -1.5495  2.3772
 4667SOL     OW14899   0.343   4.723   6.419  0.2387 -0.6456 -0.1164
 4667SOL    HW114900   0.318   4.717   6.516  0.1024  0.8428 -0.0327
 4667SOL    HW214901   0.423   4.666   6.401  0.0358 -1.2294  0.7857
 4668SOL     OW14902   4.914   2.517   5.617 -0.0384 -0.3267 -0.4532
 4668SOL    HW114903   4.853   2.484   5.689 -0.2271 -1.5873 -1.1777
 4668SOL    HW214904   4.879   2.605   5.583 -0.0491  0.1966  0.8356
 4669SOL     OW14905   0.245   0.580   6.443 -0.1174 -0.2242  0.3678
 4669SOL    HW114906   0.280   0.501   6.393  0.8338 -0.0233  0.6879
 4669SOL    HW214907   0.321   0.630   6.484 -0.3958  2.3558 -1.9656
 4670SOL     OW14908   3.494   2.853   5.598  0.4188  0.0741  0.3154
 4670SOL    HW114909   3.441   2.772   5.573  0.8203 -0.0068 -0.3119
 4670SOL    HW214910   3.532   2.841   5.690 -0.4761  0.0497  0.6893
 4671SOL     OW14911   6.614   3.768   2.151  0.0899  0.0840 -0.1729
 4671SOL    HW114912   6.580   3.855   2.187  4.2727  1.7462  0.3630
 4671SOL    HW214913   6.676   3.726   2.217  0.5371 -1.7481 -1.6625
 4672SOL     OW14914   2.061   4.639   0.844  0.2586 -0.0393  0.2099
 4672SOL    HW114915   2.083   4.542   0.839 -0.4507 -0.2074  0.2716
 4672SOL    HW214916   2.114   4.689   0.776  0.5496 -0.4790  0.1081
 4673SOL     OW14917   1.908   0.256   1.304  0.2775  0.4920 -0.0467
 4673SOL    HW114918   1.874   0.342   1.265 -1.7555 -0.2657 -0.0952
 4673SOL    HW214919   1.836   0.215   1.359  1.0925 -1.3533 -0.3010
 4674SOL     OW14920   5.689   6.269   4.545 -0.1141  0.4261 -0.5867
 4674SOL    HW114921   5.761   6.237   4.607 -1.0594 -0.9686 -0.1675
 4674SOL    HW214922   5.707   6.237   4.452  0.2012  0.7294 -0.6310
 4675SOL     OW14923   0.560   3.537   1.535 -0.2946 -0.5052 -0.2290
 4675SOL    HW114924   0.570   3.576   1.444  1.3134  1.7253  0.8136
 4675SOL    HW214925   0.650   3.525   1.576 -0.8805 -3.1236  0.4822
 4676SOL     OW14926   1.167   6.333   4.456 -0.1156  0.6501  0.1789
 4676SOL    HW114927   1.188   6.341   4.359  0.3059  2.0856  0.3570
 4676SOL    HW214928   1.249   6.349   4.510 -0.2882 -0.4069  0.7742
 4677SOL     OW14929   3.373   1.266   0.066 -0.1298  0.1028 -0.2346
 4677SOL    HW114930   3.281   1.285   0.102 -1.3382 -0.4602 -2.7617
 4677SOL    HW214931   3.385   1.167   0.057  1.0153  0.1463  0.7272
 4678SOL     OW14932   2.688   4.701   3.272 -0.0788  0.6893 -0.0189
 4678SOL    HW114933   2.629   4.673   3.348 -0.3245  4.8675  1.6027
 4678SOL    HW214934   2.642   4.682   3.186 -1.9206  0.0547  1.0453
 4679SOL     OW14935   3.048   5.444   1.519 -0.4159  0.0876  0.4272
 4679SOL    HW114936   3.043   5.353   1.561  0.5745  0.1739  0.7433
 4679SOL    HW214937   3.139   5.458   1.480 -0.4373  1.0981  0.7196
 4680SOL     OW14938   2.476   1.870   2.664  0.0273 -0.1536 -0.2289
 4680SOL    HW114939   2.441   1.943   2.723  1.9226  0.6190  0.0168
 4680SOL    HW214940   2.563   1.898   2.625 -0.6148 -1.1316 -2.5111
 4681SOL     OW14941   6.763   4.414   0.677 -0.0106  0.0816  0.1165
 4681SOL    HW114942   6.810   4.475   0.741 -0.4470  0.2163  0.3131
 4681SOL    HW214943   6.785   4.439   0.583 -0.3872  0.7123  0.1896
 4682SOL     OW14944   5.846   3.722   5.779  0.4186 -0.0540 -1.3002
 4682SOL    HW114945   5.835   3.643   5.839  1.7652  1.5217  1.2129
 4682SOL    HW214946   5.919   3.705   5.714  0.0961 -1.1907 -1.3801
 4683SOL     OW14947   0.024   4.385   2.852  0.3912 -0.0479  0.8061
 4683SOL    HW114948   0.071   4.311   2.900 -0.9817 -0.2395  1.9136
 4683SOL    HW214949  -0.004   4.353   2.761  1.4964 -0.2383  0.5136
 4684SOL     OW14950   4.650   6.496   0.303 -0.4221 -0.6362 -0.1878
 4684SOL    HW114951   4.689   6.543   0.223 -0.4164  1.7711  1.1231
 4684SOL    HW214952   4.715   6.427   0.336  1.3936  1.0730  0.0310
 4685SOL     OW14953   3.228   2.944   5.676 -0.2239 -0.2388  0.4750
 4685SOL    HW114954   3.315   2.908   5.642  0.2902  2.4702 -1.4044
 4685SOL    HW214955   3.232   2.956   5.775  1.6230  0.0673  0.3872
 4686SOL     OW14956   3.245   5.479   0.451  0.4695 -0.1208  0.5195
 4686SOL    HW114957   3.196   5.399   0.486  0.6371  0.1549  1.4032
 4686SOL    HW214958   3.338   5.479   0.488  1.4660 -1.0963 -1.7855
 4687SOL     OW14959   4.257   0.255   4.567  0.1886  0.5196  0.0487
 4687SOL    HW114960   4.301   0.246   4.657 -0.1022  2.7823  0.4830
 4687SOL    HW214961   4.300   0.329   4.516 -0.5706  0.1809 -1.1260
 4688SOL     OW14962   4.507   2.032   1.482 -0.7379 -0.2160  0.2860
 4688SOL    HW114963   4.548   2.054   1.393  0.7699  0.5579  1.1298
 4688SOL    HW214964   4.435   2.098   1.504 -0.1662  0.4276  0.2470
 4689SOL     OW14965   5.390   1.142   0.547 -0.5793 -0.1651  0.4932
 4689SOL    HW114966   5.313   1.078   0.543 -0.1972 -0.5746 -0.7143
 4689SOL    HW214967   5.371   1.220   0.488 -0.4916  0.2297  0.9788
 4690SOL     OW14968   2.353   0.886   1.751  0.2258 -0.3461 -0.7497
 4690SOL    HW114969   2.363   0.798   1.797  1.1155 -0.5670 -1.3319
 4690SOL    HW214970   2.332   0.871   1.654  0.5630  0.0769 -0.8933
 4691SOL     OW14971   6.905   3.424   1.096  0.0586 -0.1716  0.2486
 4691SOL    HW114972   6.813   3.440   1.130 -0.4189  1.0489 -1.4743
 4691SOL    HW214973   6.905   3.342   1.037 -0.1070  0.2285 -0.3202
 4692SOL     OW14974   1.626   4.841   1.896  0.5682 -0.0135  0.1860
 4692SOL    HW114975   1.655   4.796   1.980 -0.9704 -1.9200 -0.2213
 4692SOL    HW214976   1.527   4.845   1.892  0.5610 -0.7135 -1.8689
 4693SOL     OW14977   1.458   6.142   2.407 -0.0281  0.0063 -0.2467
 4693SOL    HW114978   1.384   6.183   2.460 -0.3389 -0.9320  0.0685
 4693SOL    HW214979   1.543   6.191   2.425 -0.3837  0.4886  0.1397
 4694SOL     OW14980   3.645   6.072   6.169 -0.4920  0.0005  0.5577
 4694SOL    HW114981   3.577   6.083   6.097 -0.0385  0.9229  0.2536
 4694SOL    HW214982   3.632   5.984   6.214 -0.8856 -0.5233 -0.5449
 4695SOL     OW14983   0.233   5.996   0.641  0.3041  0.1142 -0.1899
 4695SOL    HW114984   0.183   6.081   0.620 -1.0704 -0.5851  0.1703
 4695SOL    HW214985   0.170   5.929   0.680  1.4585 -0.9500 -0.1080
 4696SOL     OW14986   3.450   4.633   0.106  0.3539 -0.0033 -0.1756
 4696SOL    HW114987   3.438   4.725   0.143  2.6604 -0.4253  1.8528
 4696SOL    HW214988   3.521   4.634   0.035  0.4802 -0.2191 -0.0551
 4697SOL     OW14989   2.788   4.472   6.960 -0.5415 -0.4812  0.6127
 4697SOL    HW114990   2.756   4.566   6.973  1.2001  0.8264 -3.0591
 4697SOL    HW214991   2.868   4.457   7.017 -0.1072  0.7585  0.3793
 4698SOL     OW14992   3.536   1.197   3.055  0.0844  0.3645  0.0698
 4698SOL    HW114993   3.495   1.113   3.019  0.3222  0.2295  0.1106
 4698SOL    HW214994   3.516   1.206   3.152 -0.6414  0.7789 -0.1153
 4699SOL     OW14995   0.810   1.947   2.653 -0.7061  0.3146  0.7664
 4699SOL    HW114996   0.827   1.848   2.646  2.1089  0.8311 -1.8369
 4699SOL    HW214997   0.835   1.979   2.744  0.5478 -1.0587  0.9437
 4700SOL     OW14998   6.519   1.992   3.064  0.2566  0.1925 -0.5768
 4700SOL    HW114999   6.569   2.024   3.145 -0.7416 -1.2234  0.6472
 4700SOL    HW215000   6.577   2.002   2.983  0.5834  3.4836 -0.0520
 4701SOL     OW15001   3.049   1.449   2.260  0.5082  0.1869  0.0426
 4701SOL    HW115002   3.113   1.460   2.336  0.1763  1.3197  0.1793
 4701SOL    HW215003   3.082   1.498   2.180 -0.0948  0.6228  0.0563
 4702SOL     OW15004   3.961   4.379   0.908 -0.0250 -0.2654 -0.4900
 4702SOL    HW115005   4.003   4.404   0.995  0.9063 -0.9964 -0.7118
 4702SOL    HW215006   3.999   4.436   0.835 -1.9868  1.4815 -0.2274
 4703SOL     OW15007   0.986   4.675   3.438  0.3747  0.3730  0.2440
 4703SOL    HW115008   0.974   4.652   3.534 -2.1880  0.4958  0.0140
 4703SOL    HW215009   1.007   4.772   3.429 -3.5216  1.4196  0.6146
 4704SOL     OW15010   6.318   5.634   6.346 -0.0939  0.2908 -0.0375
 4704SOL    HW115011   6.324   5.556   6.409 -0.6637  0.9099  0.7999
 4704SOL    HW215012   6.295   5.601   6.255  1.4672 -0.7004 -0.1224
 4705SOL     OW15013   2.973   3.076   1.049 -0.2618 -0.0128  0.2290
 4705SOL    HW115014   2.895   3.059   1.111 -0.0762 -2.9406 -0.2016
 4705SOL    HW215015   3.018   2.989   1.028  0.1245  0.9303 -3.4968
 4706SOL     OW15016   1.444   0.221   0.035 -0.3090 -0.2718  0.3067
 4706SOL    HW115017   1.360   0.170   0.016  1.3236 -2.8665 -0.5357
 4706SOL    HW215018   1.498   0.227  -0.049  0.4890  1.0810  0.9013
 4707SOL     OW15019   1.469   1.247   6.733  0.2349 -0.3168  0.4917
 4707SOL    HW115020   1.418   1.180   6.679 -0.3472  1.1824 -0.9367
 4707SOL    HW215021   1.552   1.273   6.684 -0.0470  0.7096  0.5228
 4708SOL     OW15022   6.783   3.208   3.286 -0.1542  0.2569  0.7406
 4708SOL    HW115023   6.687   3.227   3.304 -0.2863  1.1596 -0.7353
 4708SOL    HW215024   6.826   3.170   3.368 -1.6271  0.3434  1.5800
 4709SOL     OW15025   6.391   4.304   3.882 -0.1597 -0.0594 -0.1432
 4709SOL    HW115026   6.372   4.379   3.819 -1.1375  0.1542  0.3703
 4709SOL    HW215027   6.471   4.252   3.851  0.3558  1.0209 -0.6579
 4710SOL     OW15028   4.685   6.736   4.780  0.2092 -0.4997  0.6295
 4710SOL    HW115029   4.704   6.775   4.871  0.3207 -1.0492  0.8449
 4710SOL    HW215030   4.755   6.669   4.758  1.6555  1.3976 -0.9548
 4711SOL     OW15031   5.324   2.497   3.851 -0.0186 -0.0976 -0.0441
 4711SOL    HW115032   5.237   2.498   3.900  0.1392 -0.3521  0.2561
 4711SOL    HW215033   5.336   2.408   3.807 -0.5590  0.4370 -1.3025
 4712SOL     OW15034   2.894   5.094   6.734 -0.7445 -0.0014  0.1357
 4712SOL    HW115035   2.941   5.008   6.756 -0.2629  0.1406 -0.3278
 4712SOL    HW215036   2.870   5.095   6.637 -1.8949 -0.1573  0.4004
 4713SOL     OW15037   5.046   5.290   1.702 -0.4008  0.4530 -0.3234
 4713SOL    HW115038   5.007   5.337   1.781  0.8322  0.6098  0.2072
 4713SOL    HW215039   5.143   5.271   1.718 -0.7069 -1.7535 -0.7476
 4714SOL     OW15040   1.676   3.521   4.746 -0.3071  0.0234  0.1617
 4714SOL    HW115041   1.731   3.599   4.776 -0.7339  0.5579 -0.4080
 4714SOL    HW215042   1.701   3.440   4.799 -0.6316  0.7901  1.5353
 4715SOL     OW15043   6.720   2.004   3.514  0.4026 -0.6995 -0.2410
 4715SOL    HW115044   6.759   2.090   3.549  0.6771 -0.8807 -0.1007
 4715SOL    HW215045   6.760   1.927   3.564  0.6273 -0.9458 -0.7986
 4716SOL     OW15046   2.704   5.831   5.970  0.4593 -0.0104 -0.4390
 4716SOL    HW115047   2.767   5.894   5.926  0.4353  1.2194  1.1677
 4716SOL    HW215048   2.653   5.880   6.041 -0.5328 -1.5484 -0.0437
 4717SOL     OW15049   2.244   5.026   5.539  0.0822 -0.0047  0.6529
 4717SOL    HW115050   2.237   5.123   5.559 -1.0195 -0.0212  0.4001
 4717SOL    HW215051   2.292   4.980   5.614  3.2171  1.1099 -0.5084
 4718SOL     OW15052   5.592   4.201   0.702 -0.2205 -0.7450  0.5294
 4718SOL    HW115053   5.505   4.250   0.704 -0.8468 -1.7145 -1.2648
 4718SOL    HW215054   5.583   4.117   0.649  1.4523 -1.6298  1.5347
 4719SOL     OW15055   0.152   0.627   3.226  0.0921  0.3894  0.4993
 4719SOL    HW115056   0.201   0.540   3.216  0.8035  1.0434 -3.2356
 4719SOL    HW215057   0.216   0.699   3.252  0.5147  0.6105 -1.0553
 4720SOL     OW15058   3.022   4.577   0.095  0.0025  0.4450  0.0850
 4720SOL    HW115059   3.033   4.667   0.053 -1.5287  0.6744  0.1426
 4720SOL    HW215060   3.110   4.548   0.135  0.3715  2.1742  0.6000
 4721SOL     OW15061   5.723   5.051   2.725 -0.4446 -0.4974  0.5614
 4721SOL    HW115062   5.730   4.954   2.702  1.1493 -0.4299  0.6606
 4721SOL    HW215063   5.631   5.084   2.702 -0.4941 -1.6191 -1.0320
 4722SOL     OW15064   1.024   3.883   6.107 -0.3426  0.1188  0.1664
 4722SOL    HW115065   1.048   3.969   6.153 -0.7599  0.0529  0.5069
 4722SOL    HW215066   0.944   3.843   6.150 -0.3867 -0.2454 -0.2452
 4723SOL     OW15067   4.369   5.325   6.796  0.3297 -0.1468  0.2119
 4723SOL    HW115068   4.446   5.386   6.775 -0.4740  0.9163  0.2409
 4723SOL    HW215069   4.311   5.315   6.715 -0.3344  0.3299  0.6102
 4724SOL     OW15070   0.432   5.385   4.722 -0.0280 -0.2573  0.4926
 4724SOL    HW115071   0.410   5.293   4.753 -2.3078  0.4631  1.2215
 4724SOL    HW215072   0.348   5.432   4.695  1.3181  0.8729 -2.1016
 4725SOL     OW15073   0.379   4.855   1.537 -0.0455  0.2472 -0.4805
 4725SOL    HW115074   0.431   4.825   1.457 -0.8224 -0.7638 -0.6269
 4725SOL    HW215075   0.284   4.872   1.511  0.1017  1.7244 -0.1387
 4726SOL     OW15076   2.608   5.844   4.620 -0.2394 -0.1780  0.0732
 4726SOL    HW115077   2.663   5.907   4.566  0.5163 -0.2346  0.7691
 4726SOL    HW215078   2.527   5.817   4.566 -0.2118  0.8129 -0.5000
 4727SOL     OW15079   1.668   4.667   0.957 -0.3595 -0.0779  0.4148
 4727SOL    HW115080   1.616   4.745   0.924 -1.4596 -1.2726 -0.7561
 4727SOL    HW215081   1.687   4.679   1.055 -2.7695  0.4379  0.8754
 4728SOL     OW15082   6.337   1.156   1.822  0.4083  0.2423  0.5960
 4728SOL    HW115083   6.403   1.229   1.802 -0.0813  0.6567  0.4756
 4728SOL    HW215084   6.379   1.089   1.884  1.4093 -0.2099 -0.5080
 4729SOL     OW15085   5.690   0.317   0.142  0.2595 -0.4355 -0.0122
 4729SOL    HW115086   5.735   0.332   0.230 -1.0818 -1.1621  0.8400
 4729SOL    HW215087   5.672   0.405   0.098 -0.1234  0.0288  1.0226
 4730SOL     OW15088   2.039   6.161   4.867 -0.0376  0.6574  0.0055
 4730SOL    HW115089   2.043   6.255   4.901 -0.5647  0.6959 -0.0192
 4730SOL    HW215090   2.073   6.159   4.773 -1.1488  1.0541 -0.4271
 4731SOL     OW15091   3.926   0.128   5.218  0.1526 -0.5122 -0.7273
 4731SOL    HW115092   3.866   0.208   5.226 -1.3191 -1.7094  0.8683
 4731SOL    HW215093   3.870   0.046   5.205  1.5953 -1.4263 -1.4365
 4732SOL     OW15094   1.841   4.237   5.768  0.6310 -0.2044 -0.0586
 4732SOL    HW115095   1.940   4.239   5.777  0.7532 -1.2437 -0.9100
 4732SOL    HW215096   1.816   4.230   5.671 -0.3905  3.7256 -0.2676
 4733SOL     OW15097   1.815   1.665   3.757 -0.7781 -0.1500 -0.3878
 4733SOL    HW115098   1.870   1.597   3.805 -0.7254  0.5925  0.6444
 4733SOL    HW215099   1.764   1.719   3.824 -0.4428  1.1471 -1.1468
 4734SOL     OW15100   3.895   1.997   0.824 -0.0208  0.3458 -0.2963
 4734SOL    HW115101   3.802   2.026   0.845  0.5598  2.5831 -0.5195
 4734SOL    HW215102   3.917   2.022   0.729  0.8125 -0.1228 -0.2402
 4735SOL     OW15103   0.478   6.262   5.669  0.6888 -0.4119 -0.3524
 4735SOL    HW115104   0.450   6.303   5.582 -0.7701  0.1378  0.3391
 4735SOL    HW215105   0.450   6.166   5.671 -0.3882 -0.1086 -0.0365
 4736SOL     OW15106   5.036   1.729   3.759  0.3970 -0.2908  0.3329
 4736SOL    HW115107   4.961   1.793   3.740  0.1398 -0.9000 -0.7506
 4736SOL    HW215108   5.121   1.765   3.719  0.8590  0.7298  2.1302
 4737SOL     OW15109   0.755   5.590   3.796 -0.0083  0.1267 -0.6479
 4737SOL    HW115110   0.828   5.526   3.821  0.5337  1.3621  1.1287
 4737SOL    HW215111   0.790   5.683   3.797 -1.5308  0.7379 -0.0038
 4738SOL     OW15112   2.065   1.174   5.155 -0.3181 -0.2958  0.0659
 4738SOL    HW115113   2.110   1.184   5.244  1.0262 -1.4345 -0.4547
 4738SOL    HW215114   2.107   1.099   5.104 -2.3328 -0.9201 -0.7829
 4739SOL     OW15115   6.293   3.799   3.820 -0.4206 -0.3416  0.0818
 4739SOL    HW115116   6.279   3.882   3.873 -1.4771 -0.1087 -0.5410
 4739SOL    HW215117   6.342   3.731   3.876  0.2250  0.5921  0.6720
 4740SOL     OW15118   3.902   1.418   2.414  0.0479 -0.3490 -0.0765
 4740SOL    HW115119   3.926   1.431   2.317  0.2466 -1.0471 -0.1278
 4740SOL    HW215120   3.891   1.321   2.432 -1.8507 -0.1252  0.1767
 4741SOL     OW15121   4.626   5.915   1.841 -0.0106  0.0738 -0.1544
 4741SOL    HW115122   4.553   5.889   1.778 -1.1611  0.6720  0.8953
 4741SOL    HW215123   4.591   5.981   1.907  0.4933 -2.1891  2.5503
 4742SOL     OW15124   2.064   5.282   1.819  0.3643  0.4300 -0.1303
 4742SOL    HW115125   2.033   5.270   1.913  0.1655 -1.3279 -0.3877
 4742SOL    HW215126   2.037   5.202   1.765  1.2579  1.0058 -1.4709
 4743SOL     OW15127   2.705   2.883   5.762  0.0477  0.2799 -0.3757
 4743SOL    HW115128   2.789   2.888   5.708  0.1398 -2.0273 -0.5499
 4743SOL    HW215129   2.629   2.859   5.701 -0.5193  1.1230 -0.0154
 4744SOL     OW15130   2.279   2.923   6.240 -0.0885  0.0157  0.1275
 4744SOL    HW115131   2.235   2.948   6.154 -1.3333 -0.9503  0.4583
 4744SOL    HW215132   2.364   2.874   6.221 -0.4976 -0.4417 -0.5499
 4745SOL     OW15133   2.826   5.048   5.484  0.3934  0.1377  0.8626
 4745SOL    HW115134   2.820   4.970   5.421  0.0119  1.7333 -1.2166
 4745SOL    HW215135   2.759   5.038   5.557 -1.0486 -0.5579 -0.4986
 4746SOL     OW15136   0.173   6.370   6.907 -0.2698  0.5279  0.0554
 4746SOL    HW115137   0.170   6.330   6.815  0.3360  0.1199  0.2073
 4746SOL    HW215138   0.241   6.443   6.910  0.1483  0.1340  0.3326
 4747SOL     OW15139   0.452   1.607   0.226 -0.5558  0.8713 -1.0266
 4747SOL    HW115140   0.545   1.581   0.251 -0.2891  1.7395 -1.0965
 4747SOL    HW215141   0.438   1.704   0.247 -1.6648  0.5845 -0.3789
 4748SOL     OW15142   0.588   1.103   1.725 -0.1072  0.4854 -0.9761
 4748SOL    HW115143   0.679   1.136   1.750  0.6667 -2.1695  0.0503
 4748SOL    HW215144   0.524   1.180   1.722  1.4806  2.0308  1.4310
 4749SOL     OW15145   0.491   0.629   0.344  0.1215  0.3759  0.6234
 4749SOL    HW115146   0.435   0.694   0.396  1.0960  2.1846 -0.4621
 4749SOL    HW215147   0.453   0.617   0.253 -0.0457 -0.6072  0.8114
 4750SOL     OW15148   1.207   0.307   4.024  0.3283  0.5066 -0.5405
 4750SOL    HW115149   1.273   0.238   4.051  0.4935  1.2797  1.2158
 4750SOL    HW215150   1.247   0.368   3.956  1.1483  0.4632 -0.1102
 4751SOL     OW15151   2.031   4.697   5.602  0.0300  0.1815 -0.7950
 4751SOL    HW115152   2.014   4.789   5.568  0.1913  0.6300  0.2805
 4751SOL    HW215153   1.966   4.633   5.562 -2.6814  1.4119  1.3342
 4752SOL     OW15154   0.704   6.552   3.729  0.5458  0.6319 -0.0481
 4752SOL    HW115155   0.802   6.535   3.721  0.3041 -1.4730  0.8995
 4752SOL    HW215156   0.659   6.532   3.642  0.7870  0.2054 -0.0772
 4753SOL     OW15157   6.576   0.470   3.968 -0.5955  0.6024  0.5043
 4753SOL    HW115158   6.509   0.435   3.902  2.4436 -1.3181 -1.7886
 4753SOL    HW215159   6.622   0.550   3.929  0.7778 -0.1547  0.5202
 4754SOL     OW15160   2.010   6.196   6.427  0.5254 -0.0170 -0.7245
 4754SOL    HW115161   2.050   6.173   6.515  0.1683 -0.8875 -0.7862
 4754SOL    HW215162   2.014   6.296   6.414  0.7209  0.1029  0.1943
 4755SOL     OW15163   3.703   1.874   5.659 -0.0826  0.7560 -0.5781
 4755SOL    HW115164   3.718   1.832   5.749 -0.5976  0.3339 -0.6881
 4755SOL    HW215165   3.614   1.847   5.624  0.2781  0.6038 -1.3970
 4756SOL     OW15166   4.572   3.153   1.269  0.0730 -0.2732 -0.2098
 4756SOL    HW115167   4.519   3.228   1.309  1.4190  1.4876 -1.5447
 4756SOL    HW215168   4.633   3.115   1.338  0.0201  0.4832  0.2706
 4757SOL     OW15169   1.112   1.075   3.750  0.9657 -0.3884 -0.5103
 4757SOL    HW115170   1.181   1.146   3.766  0.2523  0.3080 -0.4906
 4757SOL    HW215171   1.125   1.001   3.817  0.6824  0.5012  0.5541
 4758SOL     OW15172   5.280   5.680   5.983 -0.2565 -0.0407  0.2634
 4758SOL    HW115173   5.203   5.676   5.921  0.0966 -1.3051 -0.1115
 4758SOL    HW215174   5.266   5.755   6.049 -1.7190 -0.1669  0.1265
 4759SOL     OW15175   4.231   5.444   5.477 -0.3595 -0.2031 -0.0737
 4759SOL    HW115176   4.163   5.516   5.490 -0.1681  0.3970 -2.1370
 4759SOL    HW215177   4.300   5.452   5.549 -0.8413  1.0680  0.2919
 4760SOL     OW15178   0.463   2.647   0.729  0.2702 -0.2427  0.0647
 4760SOL    HW115179   0.479   2.717   0.798  0.3293 -0.5158  0.3345
 4760SOL    HW215180   0.475   2.556   0.770  0.3337 -0.4099 -0.3114
 4761SOL     OW15181   5.959   1.510   0.790 -0.3171  0.4264 -0.0768
 4761SOL    HW115182   5.957   1.564   0.706 -1.8249 -0.4082 -0.6034
 4761SOL    HW215183   5.882   1.536   0.849  0.2521  0.4253  0.6908
 4762SOL     OW15184   2.513   5.364   2.816  0.1753 -0.8781  0.0641
 4762SOL    HW115185   2.432   5.379   2.760  0.0213  0.0887  0.5264
 4762SOL    HW215186   2.590   5.340   2.757 -0.1862 -0.7146 -0.4801
 4763SOL     OW15187   5.343   6.921   1.278 -0.2349 -0.2730  0.0321
 4763SOL    HW115188   5.439   6.891   1.284 -0.1344  0.3156  2.3194
 4763SOL    HW215189   5.283   6.842   1.282  0.1102 -0.4946  2.6970
 4764SOL     OW15190   3.336   4.065   4.973  0.2132  0.2116 -0.0640
 4764SOL    HW115191   3.245   4.082   5.011  0.3682 -0.2252  0.5352
 4764SOL    HW215192   3.403   4.125   5.018  0.4719 -0.6374  0.7270
 4765SOL     OW15193   4.566   5.198   5.843  0.2941  0.2870 -0.3927
 4765SOL    HW115194   4.592   5.125   5.907  2.2064  1.1520 -0.1232
 4765SOL    HW215195   4.560   5.160   5.751  0.6147 -0.3500 -0.1578
 4766SOL     OW15196   3.501   2.132   2.563  0.0729 -0.7415  0.2726
 4766SOL    HW115197   3.591   2.156   2.527 -0.4047  0.5976 -0.0758
 4766SOL    HW215198   3.501   2.142   2.662  1.0529 -3.3222  0.6022
 4767SOL     OW15199   4.960   6.866   6.427 -0.1977 -0.3156  0.5612
 4767SOL    HW115200   4.926   6.776   6.453 -0.3865 -0.8786 -1.4254
 4767SOL    HW215201   5.039   6.890   6.484 -0.0584 -1.7993  1.0238
 4768SOL     OW15202   4.710   6.332   5.311  0.4169 -0.2427  0.0223
 4768SOL    HW115203   4.696   6.352   5.214 -1.1905 -0.1853  0.2528
 4768SOL    HW215204   4.697   6.235   5.328 -1.1800  0.0339  0.4791
 4769SOL     OW15205   4.566   5.769   2.410  0.0260 -0.0175  0.6140
 4769SOL    HW115206   4.543   5.752   2.314 -0.6227 -1.6555  1.0318
 4769SOL    HW215207   4.497   5.830   2.450 -1.4385 -1.6979  0.7895
 4770SOL     OW15208   4.765   0.860   0.746  0.2323  0.4871 -0.5684
 4770SOL    HW115209   4.796   0.891   0.836  1.0216 -2.8844  0.4357
 4770SOL    HW215210   4.667   0.842   0.749  0.4919 -0.9633  0.1115
 4771SOL     OW15211   2.834   4.721   5.800  0.5296  0.4029 -0.1758
 4771SOL    HW115212   2.868   4.722   5.706 -1.5715  0.5632 -0.9957
 4771SOL    HW215213   2.908   4.699   5.862  1.8106 -0.5248 -1.9397
 4772SOL     OW15214   2.749   0.330   1.705 -0.9041  0.5181 -0.4285
 4772SOL    HW115215   2.675   0.394   1.682 -0.7324  0.8647 -0.0300
 4772SOL    HW215216   2.717   0.267   1.776 -0.6925  0.9247  0.0334
 4773SOL     OW15217   0.729   5.640   2.956  0.2167  0.0634  0.2714
 4773SOL    HW115218   0.699   5.650   2.861  0.1350 -1.3257  0.1402
 4773SOL    HW215219   0.649   5.638   3.015  0.1787 -0.7223  0.2018
 4774SOL     OW15220   1.532   4.266   2.009  0.0324 -0.3045 -0.2994
 4774SOL    HW115221   1.441   4.226   1.996 -1.0780  1.1587  2.3544
 4774SOL    HW215222   1.529   4.364   1.986  1.1930 -0.3970 -0.9593
 4775SOL     OW15223   4.710   1.222   3.568 -0.5706 -0.5188  0.7833
 4775SOL    HW115224   4.786   1.276   3.533 -1.2862 -0.0089 -0.0425
 4775SOL    HW215225   4.737   1.126   3.574  0.9471 -0.0209  2.9497
 4776SOL     OW15226   2.754   5.695   1.613 -0.3705  0.1219 -0.1330
 4776SOL    HW115227   2.763   5.790   1.583 -1.8921 -0.1738 -1.6535
 4776SOL    HW215228   2.657   5.671   1.620 -0.0147 -1.1778  0.7439
 4777SOL     OW15229   1.976   5.540   1.767  0.1519 -0.3012  0.8172
 4777SOL    HW115230   1.975   5.440   1.775  0.9708 -0.2661  1.5594
 4777SOL    HW215231   2.008   5.567   1.676  2.5661 -0.7371  1.4534
 4778SOL     OW15232   4.382   4.480   1.738  0.5150 -0.0263 -0.1448
 4778SOL    HW115233   4.419   4.566   1.772 -1.9421  0.7852  0.7569
 4778SOL    HW215234   4.432   4.403   1.777  2.9852  0.9160 -1.2355
 4779SOL     OW15235   6.408   0.712   3.318 -0.8821 -0.0259 -0.3574
 4779SOL    HW115236   6.443   0.650   3.389  0.3654  2.7647  1.6841
 4779SOL    HW215237   6.460   0.699   3.234  0.6975 -0.4359  0.6311
 4780SOL     OW15238   6.757   0.097   6.725 -0.3231 -0.0153 -0.5950
 4780SOL    HW115239   6.730   0.068   6.633 -1.6513 -0.0827 -0.2074
 4780SOL    HW215240   6.748   0.020   6.789 -0.9088  0.4189 -0.1359
 4781SOL     OW15241   1.572   0.416   0.906 -0.4587 -0.4979  0.6092
 4781SOL    HW115242   1.616   0.488   0.959 -0.4247 -1.3063  1.7162
 4781SOL    HW215243   1.531   0.349   0.968  0.1610 -1.8327 -0.3669
 4782SOL     OW15244   5.268   6.298   5.634 -0.3733 -0.1947 -0.3421
 4782SOL    HW115245   5.187   6.244   5.612 -0.5871  0.5374 -1.4216
 4782SOL    HW215246   5.244   6.369   5.699 -0.3993 -0.5087 -0.0040
 4783SOL     OW15247   5.726   3.923   1.559 -0.1027 -0.2535 -0.0050
 4783SOL    HW115248   5.651   3.976   1.599 -0.3660 -0.1277 -0.6573
 4783SOL    HW215249   5.769   3.976   1.485  0.9150 -0.1454  0.6422
 4784SOL     OW15250   6.075   4.938   6.435 -0.0416 -0.2181 -0.3073
 4784SOL    HW115251   6.099   5.020   6.384  2.1870 -0.6925 -0.1134
 4784SOL    HW215252   6.019   4.878   6.378 -0.2724  0.6809 -1.0399
 4785SOL     OW15253   6.292   0.243   0.177 -0.8918 -0.2271  0.3649
 4785SOL    HW115254   6.289   0.316   0.246  0.7616 -0.9357  1.2389
 4785SOL    HW215255   6.258   0.279   0.090 -1.9468  1.0139  1.2419
 4786SOL     OW15256   1.980   2.239   3.436 -0.1647  0.7391  0.2358
 4786SOL    HW115257   2.007   2.304   3.507  0.3917  0.2694  0.4616
 4786SOL    HW215258   1.889   2.202   3.457 -0.6475  1.7123 -0.0912
 4787SOL     OW15259   1.401   2.076   4.210  0.0079  0.0340  0.1442
 4787SOL    HW115260   1.306   2.086   4.241 -0.2703 -1.7594 -0.0584
 4787SOL    HW215261   1.433   2.164   4.173 -0.6181  1.4794  2.7190
 4788SOL     OW15262   0.264   5.697   5.155  0.8296  0.7316 -0.2775
 4788SOL    HW115263   0.224   5.696   5.247 -1.0324  1.6845 -1.0380
 4788SOL    HW215264   0.332   5.624   5.148  0.4563  0.1460  1.6088
 4789SOL     OW15265   6.309   0.069   0.978  0.0658  0.2912  0.3231
 4789SOL    HW115266   6.365   0.107   0.904  0.4869 -0.6655  0.1455
 4789SOL    HW215267   6.212   0.073   0.951  0.1238  0.9146  0.1690
 4790SOL     OW15268   5.220   3.217   0.088  0.1028  0.3401 -0.0159
 4790SOL    HW115269   5.173   3.129   0.079  0.5649 -0.1724  2.0655
 4790SOL    HW215270   5.288   3.225   0.015  1.0626 -1.7127  0.5654
 4791SOL     OW15271   5.188   0.702   1.197  0.2079 -0.1969 -0.3383
 4791SOL    HW115272   5.220   0.791   1.163  1.0661 -0.0474  0.8047
 4791SOL    HW215273   5.143   0.713   1.285 -0.5151 -0.7951 -0.6161
 4792SOL     OW15274   2.201   1.702   0.613  0.9382 -0.0029  0.0277
 4792SOL    HW115275   2.291   1.669   0.642  0.5582 -2.4212 -1.2193
 4792SOL    HW215276   2.175   1.781   0.668  3.2966  0.0606  1.2086
 4793SOL     OW15277   5.700   1.522   5.876  0.2545  0.2109  0.5251
 4793SOL    HW115278   5.675   1.427   5.854 -0.3733  0.6653 -0.8349
 4793SOL    HW215279   5.631   1.584   5.838  2.3445  1.4121 -1.6265
 4794SOL     OW15280   1.956   0.250   3.943 -0.1185  0.0469  0.3502
 4794SOL    HW115281   2.034   0.195   3.912 -0.1018  0.0752  0.3408
 4794SOL    HW215282   1.924   0.307   3.867  0.5584  0.8617  0.6515
 4795SOL     OW15283   6.216   2.066   2.099  0.9862  0.0415  0.2948
 4795SOL    HW115284   6.270   2.138   2.056 -0.3782  1.1267  0.3458
 4795SOL    HW215285   6.275   1.987   2.118  2.1580  0.4869 -1.2711
 4796SOL     OW15286   6.869   1.880   6.554  0.1126  0.1909  0.4572
 4796SOL    HW115287   6.901   1.914   6.642  3.0620 -0.2967 -0.3096
 4796SOL    HW215288   6.916   1.929   6.481  2.2059 -3.1768 -0.7182
 4797SOL     OW15289   1.087   3.872   0.458 -0.2235 -0.4866 -0.3364
 4797SOL    HW115290   1.173   3.869   0.509  1.2261  0.5426 -2.5586
 4797SOL    HW215291   1.029   3.796   0.486  0.1315  0.3926  3.2920
 4798SOL     OW15292   1.872   4.384   4.379  0.4400  0.2498  0.1940
 4798SOL    HW115293   1.823   4.324   4.315  1.0894 -1.6706  1.4273
 4798SOL    HW215294   1.810   4.411   4.453  0.1109  1.2554 -0.4286
 4799SOL     OW15295   5.760   1.194   0.390 -0.1604  0.1312 -0.7818
 4799SOL    HW115296   5.686   1.241   0.437  0.6530  1.1292 -0.4513
 4799SOL    HW215297   5.730   1.165   0.299 -0.2049  2.9345 -1.7558
 4800SOL     OW15298   1.615   2.437   6.261 -0.5070 -0.3070 -0.0437
 4800SOL    HW115299   1.553   2.467   6.333 -0.4911  1.2703 -0.6454
 4800SOL    HW215300   1.615   2.504   6.187  0.2847 -1.3619 -1.0360
 4801SOL     OW15301   1.561   1.868   1.388  0.5950  0.0943 -0.0672
 4801SOL    HW115302   1.509   1.814   1.321 -1.0516  2.4788 -0.8671
 4801SOL    HW215303   1.570   1.816   1.473 -1.8095 -1.0787 -0.4190
 4802SOL     OW15304   3.943   6.093   1.899  0.4024  0.9593 -0.6471
 4802SOL    HW115305   3.926   6.148   1.817 -1.5563  0.3900 -0.6549
 4802SOL    HW215306   3.889   6.128   1.975  0.3128 -0.0267 -0.2472
 4803SOL     OW15307   0.299   0.638   6.784  0.4417  0.3323 -0.2029
 4803SOL    HW115308   0.289   0.551   6.831  3.0355 -0.1529 -0.3826
 4803SOL    HW215309   0.209   0.674   6.759 -0.7543 -1.5393  1.1836
 4804SOL     OW15310   6.362   0.194   6.104  0.2003 -0.5618 -0.1376
 4804SOL    HW115311   6.299   0.239   6.168  0.9936 -2.1626  1.8716
 4804SOL    HW215312   6.313   0.122   6.055 -0.0679 -0.3213 -0.2237
 4805SOL     OW15313   3.629   1.564   0.209 -0.2695  0.6828  0.5812
 4805SOL    HW115314   3.549   1.565   0.150 -0.3298  1.1295  0.6679
 4805SOL    HW215315   3.602   1.539   0.302 -0.2694  0.5747  0.5516
 4806SOL     OW15316   1.602   2.519   2.627 -0.1917 -0.0156  0.4368
 4806SOL    HW115317   1.533   2.572   2.676  0.5309 -0.4078  1.9057
 4806SOL    HW215318   1.566   2.428   2.608  0.2744 -0.5820  2.1492
 4807SOL     OW15319   1.187   4.682   3.085 -0.4339 -0.1240 -0.0853
 4807SOL    HW115320   1.233   4.630   3.157 -2.0511 -0.7302  0.5692
 4807SOL    HW215321   1.238   4.766   3.067  0.7045 -0.5814  0.8460
 4808SOL     OW15322   6.437   4.092   1.415  0.0186 -0.6650  0.2459
 4808SOL    HW115323   6.395   4.155   1.480 -1.3772 -0.6066 -0.6778
 4808SOL    HW215324   6.470   4.143   1.336 -1.6242 -1.1115 -0.7679
 4809SOL     OW15325   3.175   4.951   1.313 -0.3614 -0.4936  0.2413
 4809SOL    HW115326   3.180   4.895   1.230 -0.1767 -0.0886 -0.0272
 4809SOL    HW215327   3.253   4.931   1.372 -0.0669 -0.2210 -0.0501
 4810SOL     OW15328   6.518   6.910   2.106 -0.3493  0.1583  0.0945
 4810SOL    HW115329   6.568   6.938   2.024  2.1452 -1.8479  0.8096
 4810SOL    HW215330   6.423   6.938   2.097  0.6139  3.4396 -1.7428
 4811SOL     OW15331   3.643   5.503   1.280 -0.3506  0.2598 -0.5465
 4811SOL    HW115332   3.653   5.405   1.266  0.2272  0.3043 -0.4747
 4811SOL    HW215333   3.553   5.532   1.248  0.0510 -0.0252 -2.0148
 4812SOL     OW15334   0.214   5.487   4.579  0.1755  0.0687  0.0261
 4812SOL    HW115335   0.151   5.560   4.603 -0.7026 -0.4885 -0.5470
 4812SOL    HW215336   0.171   5.398   4.595  1.3639 -0.3548  1.1018
 4813SOL     OW15337   5.397   0.688   1.469  0.4952  0.3897 -0.4541
 4813SOL    HW115338   5.422   0.638   1.552 -1.6676 -1.3640 -0.7744
 4813SOL    HW215339   5.416   0.631   1.389 -0.1070  0.9072 -0.9736
 4814SOL     OW15340   1.124   3.262   1.490 -0.0921  0.1964  0.2832
 4814SOL    HW115341   1.099   3.230   1.398 -0.0596 -0.8370  0.6183
 4814SOL    HW215342   1.224   3.266   1.498  0.0267  4.0950 -0.9771
 4815SOL     OW15343   4.849   4.819   2.002 -0.1655 -0.2898  0.2487
 4815SOL    HW115344   4.844   4.734   2.054 -0.9418 -0.1061  0.4907
 4815SOL    HW215345   4.769   4.875   2.023 -0.8296 -0.4734 -1.5910
 4816SOL     OW15346   4.290   4.643   2.409  0.2171 -0.0374 -0.3606
 4816SOL    HW115347   4.282   4.644   2.310  1.3088  2.2307 -0.4815
 4816SOL    HW215348   4.218   4.699   2.449  0.2620 -0.2889  0.0834
 4817SOL     OW15349   1.135   3.362   5.056  0.8787  0.2073 -0.8026
 4817SOL    HW115350   1.232   3.385   5.052  0.8264  0.5935 -0.0719
 4817SOL    HW215351   1.106   3.359   5.152  0.3160 -0.5218 -0.9868
 4818SOL     OW15352   6.899   0.691   3.353  0.1778  0.5421  0.1950
 4818SOL    HW115353   6.974   0.715   3.292 -0.2365  0.4711 -0.3589
 4818SOL    HW215354   6.891   0.591   3.359 -0.4704  0.5336 -0.5331
 4819SOL     OW15355   6.023   5.026   6.695  0.3564 -0.6251 -0.1619
 4819SOL    HW115356   6.028   4.983   6.605  2.0906 -0.9368  0.0335
 4819SOL    HW215357   5.993   5.121   6.686  0.9929 -0.5045 -1.1330
 4820SOL     OW15358   6.808   2.175   4.043  0.1974  0.6288  0.2851
 4820SOL    HW115359   6.819   2.117   4.124 -0.2934  1.5784  1.0475
 4820SOL    HW215360   6.751   2.127   3.976  1.4094 -0.5662  0.0702
 4821SOL     OW15361   5.885   5.736   2.918  0.1620  0.4122  0.2556
 4821SOL    HW115362   5.841   5.716   2.830 -2.0952  0.1676  1.3999
 4821SOL    HW215363   5.897   5.651   2.969 -0.7658  0.8191  1.1765
 4822SOL     OW15364   0.963   3.395   3.810 -0.6081  0.5211  0.2960
 4822SOL    HW115365   0.907   3.366   3.732  0.3762 -1.3948  0.2426
 4822SOL    HW215366   0.904   3.434   3.881 -1.9973 -1.1538  0.1292
 4823SOL     OW15367   2.684   2.376   3.058 -0.2244 -0.1437 -0.1328
 4823SOL    HW115368   2.610   2.441   3.044 -1.7941 -1.2674  2.1763
 4823SOL    HW215369   2.723   2.350   2.970 -1.5765  1.5995 -1.3128
 4824SOL     OW15370   5.059   6.920   5.897 -0.2700  0.0595 -0.3353
 4824SOL    HW115371   5.063   7.018   5.919 -2.0115  0.3275 -1.0049
 4824SOL    HW215372   5.135   6.897   5.835 -1.0566  1.5259 -1.9526
 4825SOL     OW15373   3.276   7.001   5.429 -0.3223 -0.3272 -0.8006
 4825SOL    HW115374   3.340   6.951   5.371  0.8565  0.1058  0.0778
 4825SOL    HW215375   3.278   6.963   5.521 -3.4368 -2.1304 -1.3311
 4826SOL     OW15376   4.623   5.524   0.319  0.0656  0.5149 -0.0132
 4826SOL    HW115377   4.718   5.550   0.302  0.4777 -1.5562 -1.2154
 4826SOL    HW215378   4.587   5.476   0.240 -1.2132 -0.8283  1.3137
 4827SOL     OW15379   1.953   2.949   1.900  0.0164 -0.1993  0.3531
 4827SOL    HW115380   1.963   2.866   1.845  0.7199 -1.0633  1.7170
 4827SOL    HW215381   1.988   3.028   1.849 -0.4289 -0.7745 -0.8660
 4828SOL     OW15382   3.433   6.345   1.055 -0.0919 -0.3683  0.5200
 4828SOL    HW115383   3.415   6.376   0.962  0.5332 -0.3575  0.3980
 4828SOL    HW215384   3.469   6.420   1.110 -0.4227 -0.3841  0.7614
 4829SOL     OW15385   4.017   5.873   4.717 -0.0900  0.2353 -0.1291
 4829SOL    HW115386   4.071   5.878   4.633  0.6786  0.2903  0.3657
 4829SOL    HW215387   3.976   5.962   4.736 -1.2265 -0.0571 -1.0576
 4830SOL     OW15388   4.321   4.652   2.975 -0.1122 -0.2911  0.3265
 4830SOL    HW115389   4.267   4.641   2.892 -0.0516 -0.0770  0.2603
 4830SOL    HW215390   4.404   4.703   2.954  0.1168 -0.6205  0.4279
 4831SOL     OW15391   3.352   5.600   6.527  0.3489  0.0794  0.1849
 4831SOL    HW115392   3.418   5.577   6.456  0.1093  0.7134 -0.2509
 4831SOL    HW215393   3.330   5.518   6.580 -0.4182 -0.6924 -1.2734
 4832SOL     OW15394   3.917   3.151   4.185  0.6688  0.1338  0.3194
 4832SOL    HW115395   3.882   3.058   4.181 -0.0512  0.4401 -1.8965
 4832SOL    HW215396   3.859   3.211   4.130  0.5846  2.1058  2.4228
 4833SOL     OW15397   5.044   3.638   3.796 -0.3525  0.6875 -0.1270
 4833SOL    HW115398   4.953   3.617   3.832 -0.0928  0.3377  0.3330
 4833SOL    HW215399   5.092   3.699   3.859  0.4649 -0.6835  0.6361
 4834SOL     OW15400   1.118   6.708   1.471 -0.0848 -0.2764 -0.8722
 4834SOL    HW115401   1.134   6.698   1.372  0.3596  0.9762 -0.9488
 4834SOL    HW215402   1.199   6.677   1.520  0.7800  1.5875 -1.0465
 4835SOL     OW15403   6.621   5.030   0.680 -0.1203 -0.7091 -0.0493
 4835SOL    HW115404   6.587   4.983   0.598 -1.0556  0.6741 -0.4926
 4835SOL    HW215405   6.675   5.109   0.653 -1.1851  0.2869  0.6305
 4836SOL     OW15406   5.346   2.222   6.245  0.3110 -0.3403  0.5997
 4836SOL    HW115407   5.348   2.134   6.196 -2.5225  0.6265 -1.5593
 4836SOL    HW215408   5.304   2.209   6.335 -0.7148 -1.1301  0.0303
 4837SOL     OW15409   0.220   3.517   3.591  0.0439  0.0725  0.1163
 4837SOL    HW115410   0.214   3.574   3.508  2.1407 -0.5094 -0.4792
 4837SOL    HW215411   0.282   3.560   3.656 -0.7398 -0.0349  0.9431
 4838SOL     OW15412   1.727   0.162   6.142  0.5664  0.4057 -0.1719
 4838SOL    HW115413   1.645   0.107   6.128  1.1272 -0.2392 -1.0828
 4838SOL    HW215414   1.804   0.119   6.095  1.3585  1.1754  0.3807
 4839SOL     OW15415   2.440   2.842   6.901  0.0479 -0.2152  0.1884
 4839SOL    HW115416   2.472   2.912   6.838  0.9012  0.2682  1.1187
 4839SOL    HW215417   2.342   2.852   6.916 -0.1360 -0.2512 -0.9352
 4840SOL     OW15418   4.227   2.269   0.148 -0.8984  0.2641 -0.0749
 4840SOL    HW115419   4.129   2.266   0.167 -0.8110 -0.2960  0.3378
 4840SOL    HW215420   4.247   2.341   0.082 -1.4843  0.9050  0.4386
 4841SOL     OW15421   4.455   5.022   3.294 -0.7227  0.2385 -0.0365
 4841SOL    HW115422   4.477   5.119   3.307 -0.2461  0.2382 -0.7605
 4841SOL    HW215423   4.490   4.992   3.205 -0.6810 -0.6524  0.2717
 4842SOL     OW15424   3.571   5.182   2.717 -0.4156  0.2656  0.0971
 4842SOL    HW115425   3.612   5.105   2.669 -0.3321  0.8690 -0.8124
 4842SOL    HW215426   3.477   5.195   2.686 -1.0105 -0.4812  1.4486
 4843SOL     OW15427   1.721   2.550   3.183  0.0735  0.6573 -0.3332
 4843SOL    HW115428   1.705   2.489   3.106  0.0132  0.2774 -0.0219
 4843SOL    HW215429   1.693   2.643   3.159 -1.1589  0.2976 -0.3310
 4844SOL     OW15430   1.841   5.760   4.852 -0.1577 -0.1804  0.7939
 4844SOL    HW115431   1.900   5.682   4.833 -0.6463 -0.4117  0.1687
 4844SOL    HW215432   1.872   5.839   4.800 -0.9252 -0.5518 -0.2620
 4845SOL     OW15433   3.650   4.029   5.370 -0.2161 -0.4709  0.4263
 4845SOL    HW115434   3.604   4.069   5.291 -1.3063  1.1216  1.7730
 4845SOL    HW215435   3.603   3.946   5.398  1.5901 -2.4198 -1.9315
 4846SOL     OW15436   0.647   4.328   2.988 -0.0488 -0.1831  0.1278
 4846SOL    HW115437   0.723   4.326   2.924  1.0785 -2.1274  1.4243
 4846SOL    HW215438   0.562   4.347   2.938  0.8960 -0.7386 -1.8015
 4847SOL     OW15439   3.750   6.226   6.512 -0.1434  0.0572 -0.9623
 4847SOL    HW115440   3.752   6.247   6.414 -2.0300  0.7183 -0.9130
 4847SOL    HW215441   3.843   6.213   6.546  0.5264 -0.4162 -2.8774
 4848SOL     OW15442   4.729   0.186   2.592 -0.4261  0.2012 -0.3498
 4848SOL    HW115443   4.690   0.211   2.681  0.1856  0.1254 -0.0575
 4848SOL    HW215444   4.815   0.137   2.606 -0.7398 -0.5433 -0.9633
 4849SOL     OW15445   0.693   5.779   1.420  0.4279  0.2486 -0.3487
 4849SOL    HW115446   0.780   5.755   1.464  1.0353 -0.0038 -1.6151
 4849SOL    HW215447   0.671   5.710   1.351 -0.5712  0.5355 -0.3242
 4850SOL     OW15448   5.400   1.549   0.008  0.8189  0.4396  0.2939
 4850SOL    HW115449   5.322   1.570   0.067  0.9842  1.0139  0.3128
 4850SOL    HW215450   5.485   1.558   0.061  0.9821  1.1694 -0.0801
 4851SOL     OW15451   2.928   0.411   0.595 -0.1735  0.0868 -0.0193
 4851SOL    HW115452   2.936   0.506   0.626  0.7648  0.7439 -2.1182
 4851SOL    HW215453   2.843   0.401   0.543 -0.1309 -0.1697 -0.0378
 4852SOL     OW15454   3.911   5.238   6.226 -0.1221 -0.1413 -0.4600
 4852SOL    HW115455   3.812   5.247   6.232  0.0023  1.2982 -0.0422
 4852SOL    HW215456   3.950   5.321   6.186  1.2289  1.4313  3.5528
 4853SOL     OW15457   4.846   1.434   3.199 -0.0237 -0.1452  0.0211
 4853SOL    HW115458   4.842   1.346   3.245  0.3322  0.1000  0.5384
 4853SOL    HW215459   4.828   1.507   3.266 -0.6277  0.1579 -0.4613
 4854SOL     OW15460   5.918   5.992   0.039  0.3229 -0.3191 -0.1551
 4854SOL    HW115461   5.962   6.080   0.020  0.4081  0.0540  1.6378
 4854SOL    HW215462   5.986   5.929   0.077  0.3582 -1.3272 -1.8095
 4855SOL     OW15463   6.230   6.193   4.617  0.3323 -0.6602  0.0260
 4855SOL    HW115464   6.262   6.274   4.567 -2.4030  0.3678 -0.2156
 4855SOL    HW215465   6.309   6.135   4.640  2.2011  1.2288 -1.2166
 4856SOL     OW15466   0.531   4.780   2.227 -0.0376  1.0886  0.4420
 4856SOL    HW115467   0.555   4.744   2.318  2.0118  1.4424  0.0948
 4856SOL    HW215468   0.564   4.717   2.157 -0.1448  1.6063 -0.0820
 4857SOL     OW15469   2.976   1.385   3.082  0.1735  0.2891  0.4850
 4857SOL    HW115470   2.983   1.314   3.152 -1.7638  0.4028  0.8535
 4857SOL    HW215471   2.880   1.409   3.069  0.7086  2.1624 -0.3320
 4858SOL     OW15472   0.955   6.441   4.836  0.2514 -0.6145 -0.4994
 4858SOL    HW115473   0.872   6.473   4.791  0.4583  1.5374  0.5214
 4858SOL    HW215474   0.931   6.401   4.925  0.3578  1.3364  0.4580
 4859SOL     OW15475   0.513   5.201   2.377  0.8218 -0.0918  0.8502
 4859SOL    HW115476   0.553   5.127   2.432  1.2822 -0.1771  0.4061
 4859SOL    HW215477   0.447   5.163   2.312  1.0099 -0.1056  0.6668
 4860SOL     OW15478   5.040   5.916   6.537  0.2899  0.0649 -0.0771
 4860SOL    HW115479   5.020   5.964   6.622  0.4254 -0.9438  0.5371
 4860SOL    HW215480   5.116   5.962   6.490  1.3473 -0.3416  1.1853
 4861SOL     OW15481   0.176   6.620   0.285  0.9007 -0.0510  0.6433
 4861SOL    HW115482   0.193   6.640   0.189 -1.4100  0.8636  0.3766
 4861SOL    HW215483   0.085   6.581   0.296  1.0611  0.0032  2.4677
 4862SOL     OW15484   2.190   4.206   6.148 -0.2263 -0.1641 -0.1287
 4862SOL    HW115485   2.154   4.290   6.106 -1.4933  1.0793  3.0960
 4862SOL    HW215486   2.228   4.228   6.238  0.3356 -2.9232  0.3838
 4863SOL     OW15487   4.480   1.738   3.300  0.1201  0.3515 -0.2357
 4863SOL    HW115488   4.473   1.771   3.394 -0.1029 -1.0459  0.2620
 4863SOL    HW215489   4.433   1.650   3.291  0.4295  0.2898 -1.5772
 4864SOL     OW15490   3.050   0.764   1.629 -0.4068 -0.4460 -0.0002
 4864SOL    HW115491   3.042   0.665   1.645  1.1023 -1.2188 -3.2921
 4864SOL    HW215492   3.137   0.784   1.584 -0.2701  2.5729  1.3671
 4865SOL     OW15493   1.818   6.263   4.613  0.0953  0.0310 -0.2261
 4865SOL    HW115494   1.832   6.249   4.514  1.1442  0.8052 -0.2106
 4865SOL    HW215495   1.871   6.343   4.642 -2.2294  1.3923  0.4774
 4866SOL     OW15496   4.701   5.526   1.630 -0.0265  0.3014  0.2083
 4866SOL    HW115497   4.783   5.577   1.604  0.5020 -0.9235 -0.5825
 4866SOL    HW215498   4.627   5.549   1.566  0.1725  0.1780 -0.0702
 4867SOL     OW15499   4.844   5.462   2.867 -0.3191 -0.0105  0.1650
 4867SOL    HW115500   4.892   5.476   2.953  0.1879 -0.4696 -0.0393
 4867SOL    HW215501   4.874   5.530   2.800  0.6702 -0.8123 -0.2176
 4868SOL     OW15502   0.230   4.714   1.291 -0.2849 -0.4422 -0.1439
 4868SOL    HW115503   0.189   4.720   1.382 -0.5160  1.4807 -0.3317
 4868SOL    HW215504   0.207   4.796   1.238  0.3398 -1.2403 -1.7404
 4869SOL     OW15505   5.975   0.923   0.308  0.2042 -0.4466 -0.3520
 4869SOL    HW115506   5.887   0.958   0.340  0.1421 -1.3489  0.5152
 4869SOL    HW215507   5.996   0.838   0.356  1.8446  0.0723 -0.1043
 4870SOL     OW15508   3.912   4.821   3.068 -0.2697 -0.5202  0.5865
 4870SOL    HW115509   3.850   4.766   3.124  0.1581 -1.4466  0.1682
 4870SOL    HW215510   4.006   4.807   3.099  0.0164 -1.3866 -0.6237
 4871SOL     OW15511   2.227   2.840   4.912 -0.5690 -0.7674 -0.6478
 4871SOL    HW115512   2.169   2.901   4.858 -0.7241  0.5590  0.9566
 4871SOL    HW215513   2.297   2.893   4.959  0.1894 -2.0127 -0.3253
 4872SOL     OW15514   2.582   5.597   1.079  0.3314 -0.1119 -0.7329
 4872SOL    HW115515   2.554   5.503   1.060  1.7746 -0.7429  0.1074
 4872SOL    HW215516   2.651   5.625   1.013 -0.6672  0.6789 -1.4816
 4873SOL     OW15517   0.951   5.306   5.313  0.2587 -0.0750 -0.2512
 4873SOL    HW115518   0.885   5.300   5.238 -1.2720 -0.0828  1.0543
 4873SOL    HW215519   1.012   5.384   5.297 -0.6942  0.5373 -0.9986
 4874SOL     OW15520   6.271   3.445   2.336 -0.0890  0.3735 -0.4322
 4874SOL    HW115521   6.326   3.415   2.414 -0.4788  1.5829  0.3329
 4874SOL    HW215522   6.273   3.375   2.265  1.2755 -0.2118  0.1563
 4875SOL     OW15523   4.549   3.504   0.241 -0.3485 -0.3293 -0.3882
 4875SOL    HW115524   4.594   3.425   0.283  0.1444 -0.1052 -0.4919
 4875SOL    HW215525   4.463   3.523   0.289 -0.0819 -0.4446  0.1386
 4876SOL     OW15526   1.738   0.243   0.753 -0.2772 -0.0708  0.1227
 4876SOL    HW115527   1.670   0.311   0.781  1.3571  0.8713  2.1089
 4876SOL    HW215528   1.791   0.214   0.833  1.1125 -1.4128 -1.2004
 4877SOL     OW15529   4.859   2.680   0.551  0.2918  0.2355 -0.2783
 4877SOL    HW115530   4.884   2.755   0.489  0.3011 -0.7608 -1.5185
 4877SOL    HW215531   4.814   2.608   0.499  1.7317 -1.3538  0.5706
 4878SOL     OW15532   6.452   1.963   0.454 -0.2130  0.1250  0.3735
 4878SOL    HW115533   6.501   2.030   0.397 -3.2362  1.7045 -0.5891
 4878SOL    HW215534   6.477   1.976   0.550 -0.1667  2.1447  0.1195
 4879SOL     OW15535   5.772   4.484   4.384 -0.2958  0.0367  0.1878
 4879SOL    HW115536   5.709   4.488   4.461  0.2604  0.8569  0.6179
 4879SOL    HW215537   5.841   4.413   4.401  0.0952  0.5215  0.6713
 4880SOL     OW15538   5.160   1.575   5.735 -0.0781  0.0588 -0.2176
 4880SOL    HW115539   5.180   1.493   5.789 -0.2655  0.8688  1.1111
 4880SOL    HW215540   5.245   1.620   5.709 -0.0103  0.5578  0.8266
 4881SOL     OW15541   2.158   0.529   4.651  0.2636 -0.7028  0.7238
 4881SOL    HW115542   2.230   0.484   4.597  0.9948  1.8327 -0.5311
 4881SOL    HW215543   2.178   0.516   4.748  1.6363 -1.2422  0.3998
 4882SOL     OW15544   6.818   0.837   4.493 -0.2902  0.0862 -0.3964
 4882SOL    HW115545   6.785   0.895   4.419 -0.8113  0.3255  0.0142
 4882SOL    HW215546   6.857   0.753   4.455 -0.4742  0.2411 -0.9409
 4883SOL     OW15547   1.125   6.099   0.355  0.7684  0.7032 -0.0842
 4883SOL    HW115548   1.033   6.127   0.328  1.0803  1.5545 -0.2977
 4883SOL    HW215549   1.120   6.012   0.404 -0.4705  2.0447  2.3468
 4884SOL     OW15550   4.145   4.707   1.804  0.8845 -0.0807  0.5128
 4884SOL    HW115551   4.224   4.645   1.800  1.6463  0.8817  0.2591
 4884SOL    HW215552   4.146   4.754   1.892  0.3684 -0.3458  0.6611
 4885SOL     OW15553   3.028   6.763   2.548 -0.4501 -0.3824  0.3135
 4885SOL    HW115554   3.047   6.674   2.506 -2.8642  0.1655 -2.1942
 4885SOL    HW215555   3.052   6.836   2.484  1.0858  0.8386  2.1626
 4886SOL     OW15556   6.005   2.754   0.252  0.1054  0.1488 -0.0947
 4886SOL    HW115557   6.097   2.720   0.268 -0.5152 -1.7909 -0.3417
 4886SOL    HW215558   5.999   2.849   0.281  2.2146  0.3765 -0.2555
 4887SOL     OW15559   0.758   2.481   4.297  0.3984  0.2322  0.2668
 4887SOL    HW115560   0.858   2.477   4.289  0.2764 -0.2802 -1.3482
 4887SOL    HW215561   0.732   2.468   4.393  1.8724  0.4477  0.7263
 4888SOL     OW15562   2.788   5.860   3.031  0.1289  0.0176 -0.1363
 4888SOL    HW115563   2.743   5.789   2.977 -0.0415 -0.3372  0.4648
 4888SOL    HW215564   2.874   5.885   2.986  1.3522 -2.2200  0.7935
 4889SOL     OW15565   1.764   1.988   1.890  0.1681  0.1087 -0.0194
 4889SOL    HW115566   1.774   2.033   1.802 -1.0413  0.4534 -0.0029
 4889SOL    HW215567   1.789   1.892   1.882  1.2566  0.4052 -0.4276
 4890SOL     OW15568   1.885   1.372   4.508  0.6716 -0.2173 -0.6142
 4890SOL    HW115569   1.858   1.360   4.412 -0.1729 -0.4384 -0.3599
 4890SOL    HW215570   1.917   1.466   4.522 -0.4282  0.2002 -0.8292
 4891SOL     OW15571   6.851   5.499   0.448  0.0788  0.3970  0.4805
 4891SOL    HW115572   6.874   5.404   0.427 -0.8765  0.2349  0.0781
 4891SOL    HW215573   6.917   5.561   0.405 -0.8800  0.0094 -1.6699
 4892SOL     OW15574   0.994   3.795   6.680  0.7491 -0.0874  0.3893
 4892SOL    HW115575   0.977   3.871   6.618  1.1646 -0.9576 -0.8500
 4892SOL    HW215576   1.084   3.756   6.660 -0.9280 -3.3267 -1.7645
 4893SOL     OW15577   5.824   3.489   5.594 -0.0137  0.3258  0.2511
 4893SOL    HW115578   5.746   3.525   5.543 -0.3125  1.1472  1.2447
 4893SOL    HW215579   5.894   3.560   5.603 -0.4539  0.5972  1.9365
 4894SOL     OW15580   4.070   0.772   3.810  0.3625 -0.1229  0.4498
 4894SOL    HW115581   4.125   0.733   3.736  1.1209  0.3420  0.7540
 4894SOL    HW215582   4.130   0.813   3.878 -0.3584  0.2084  0.9028
 4895SOL     OW15583   2.211   3.389   1.316  0.6037 -0.1476 -0.5697
 4895SOL    HW115584   2.139   3.449   1.353  2.0672  1.4857 -0.2751
 4895SOL    HW215585   2.246   3.332   1.390  0.4415 -0.0862 -0.4425
 4896SOL     OW15586   2.630   6.242   5.800  0.0729 -0.1548  0.0823
 4896SOL    HW115587   2.673   6.294   5.874  0.7752  1.0326 -1.1220
 4896SOL    HW215588   2.555   6.295   5.761 -0.4663 -0.8826  0.1020
 4897SOL     OW15589   3.467   6.412   0.094 -0.2342  0.0626 -0.1013
 4897SOL    HW115590   3.562   6.387   0.114 -0.2110 -0.7046 -1.0662
 4897SOL    HW215591   3.411   6.404   0.176  0.4655  0.1595  0.3871
 4898SOL     OW15592   4.937   2.105   5.445 -0.0063 -0.3445 -0.4810
 4898SOL    HW115593   4.959   2.203   5.436  0.4196 -0.3308  0.5575
 4898SOL    HW215594   4.870   2.080   5.376  0.6533  0.4474 -1.4477
 4899SOL     OW15595   5.630   4.948   4.847  0.5953  0.5169  0.0030
 4899SOL    HW115596   5.560   4.903   4.903 -0.8610  1.3113 -1.0966
 4899SOL    HW215597   5.586   5.011   4.783  2.4551  2.3442  0.4126
 4900SOL     OW15598   2.172   0.955   6.629 -0.1688  0.1147 -0.1169
 4900SOL    HW115599   2.127   0.877   6.673 -2.2490  0.8956 -0.7446
 4900SOL    HW215600   2.264   0.966   6.668 -1.0147 -0.6620  2.3192
 4901SOL     OW15601   0.171   5.726   2.787 -0.2163 -0.0072 -0.4053
 4901SOL    HW115602   0.175   5.632   2.754 -2.1129 -0.2850  0.0419
 4901SOL    HW215603   0.262   5.767   2.780  0.3905 -1.4538 -1.7691
 4902SOL     OW15604   2.056   2.835   6.920 -0.3496 -0.2544  0.7999
 4902SOL    HW115605   2.090   2.854   6.828  0.6620  0.8190  1.3719
 4902SOL    HW215606   2.088   2.745   6.950  0.0086 -0.2505  0.4311
 4903SOL     OW15607   4.949   0.306   0.682 -0.1326 -0.0273 -0.3547
 4903SOL    HW115608   5.038   0.345   0.704  0.6000 -1.9714  0.3581
 4903SOL    HW215609   4.961   0.212   0.651 -1.7869  0.3527 -2.3033
 4904SOL     OW15610   3.242   5.144   4.944  0.5012 -0.3059  0.3839
 4904SOL    HW115611   3.168   5.120   5.007  0.1540 -1.6039 -0.4900
 4904SOL    HW215612   3.260   5.067   4.883  1.5382  0.5548 -0.4223
 4905SOL     OW15613   3.895   3.823   1.446 -0.1844  0.5297 -0.1357
 4905SOL    HW115614   3.970   3.882   1.416 -1.1833  0.8872 -2.1565
 4905SOL    HW215615   3.924   3.728   1.443  0.6500  0.7497  0.6374
 4906SOL     OW15616   3.669   1.119   0.475 -0.4469 -0.0023  0.1260
 4906SOL    HW115617   3.570   1.111   0.464 -0.1360 -0.8032 -3.1403
 4906SOL    HW215618   3.704   1.039   0.523 -0.8920 -2.8893 -3.8859
 4907SOL     OW15619   5.254   2.124   5.134 -0.6692 -0.2788  0.1121
 4907SOL    HW115620   5.290   2.045   5.085  1.2079  1.0951 -0.8791
 4907SOL    HW215621   5.154   2.118   5.140 -0.7050 -1.8679 -1.4131
 4908SOL     OW15622   2.486   0.130   0.362  0.2325 -0.2892 -0.3933
 4908SOL    HW115623   2.413   0.180   0.315  0.4931  0.0599 -0.4342
 4908SOL    HW215624   2.447   0.078   0.438 -0.0396  0.0352 -0.3047
 4909SOL     OW15625   0.696   6.244   5.910  0.1254 -0.1584  0.5211
 4909SOL    HW115626   0.644   6.262   5.827  0.9598 -0.5496 -0.1056
 4909SOL    HW215627   0.727   6.331   5.950 -0.0996  0.0225  0.3034
 4910SOL     OW15628   0.693   0.763   4.043  0.4933  0.5262  0.0654
 4910SOL    HW115629   0.718   0.667   4.030  0.2390  0.6675 -1.6865
 4910SOL    HW215630   0.599   0.768   4.077  0.5867  0.1628  0.3956
 4911SOL     OW15631   1.946   1.662   5.381  0.1297  0.4666 -0.2930
 4911SOL    HW115632   2.024   1.675   5.320  0.5611  1.6253  0.4837
 4911SOL    HW215633   1.909   1.570   5.368  2.9400 -0.9514  0.7842
 4912SOL     OW15634   4.148   2.176   1.004 -0.1838  0.1075 -0.5533
 4912SOL    HW115635   4.139   2.163   0.905 -0.2762  1.0799 -0.6835
 4912SOL    HW215636   4.206   2.255   1.023 -0.0345 -0.1666  0.1729
 4913SOL     OW15637   3.806   2.919   4.138  0.9670 -0.1237  0.4917
 4913SOL    HW115638   3.795   2.824   4.167  1.0828 -0.9126 -1.8367
 4913SOL    HW215639   3.721   2.952   4.099  1.3668  0.1916 -0.1310
 4914SOL     OW15640   3.571   0.285   3.719 -0.3850  0.5406 -0.2712
 4914SOL    HW115641   3.617   0.330   3.796 -1.0078  0.6308  0.0506
 4914SOL    HW215642   3.489   0.239   3.751  1.7889 -3.5634  0.0505
 4915SOL     OW15643   4.823   5.225   2.748 -0.4961 -0.0948  0.3211
 4915SOL    HW115644   4.819   5.303   2.811 -0.5550  0.5336 -0.4364
 4915SOL    HW215645   4.917   5.192   2.742 -0.4330  0.0487  0.4979
 4916SOL     OW15646   3.627   1.325   3.534 -0.2422  0.1140  0.5472
 4916SOL    HW115647   3.724   1.304   3.543 -0.2556 -0.1173  0.1665
 4916SOL    HW215648   3.615   1.408   3.480 -0.2843 -0.3291 -0.1360
 4917SOL     OW15649   3.862   5.708   1.301  0.8212  0.3009 -0.1374
 4917SOL    HW115650   3.802   5.633   1.273 -0.2797  1.2023 -0.2700
 4917SOL    HW215651   3.957   5.683   1.284  0.4399 -0.8259 -0.7177
 4918SOL     OW15652   1.563   6.820   1.547 -0.4404  0.1270 -0.0842
 4918SOL    HW115653   1.583   6.918   1.540 -0.8176  0.0819 -3.1040
 4918SOL    HW215654   1.648   6.768   1.537 -0.6192  0.1337 -1.9429
 4919SOL     OW15655   1.454   2.380   1.921 -0.4337  0.2601 -0.0831
 4919SOL    HW115656   1.407   2.335   1.997  1.2816  0.2548  1.0409
 4919SOL    HW215657   1.524   2.443   1.957  0.2579  0.4595 -1.6585
 4920SOL     OW15658   4.001   0.428   6.631 -0.2009 -0.5483 -0.5226
 4920SOL    HW115659   4.070   0.356   6.639  0.1843 -0.0476  1.1812
 4920SOL    HW215660   3.972   0.456   6.723 -0.3186  1.4766 -1.1284
 4921SOL     OW15661   1.011   5.443   1.462  0.5366 -0.1662  0.0299
 4921SOL    HW115662   1.040   5.511   1.530  0.1472  0.1739 -0.1430
 4921SOL    HW215663   1.091   5.413   1.410  1.4579 -2.6741  2.5958
 4922SOL     OW15664   3.231   2.730   5.987 -0.1820 -0.0949  0.2907
 4922SOL    HW115665   3.145   2.679   5.985 -0.8928  1.0800 -0.1077
 4922SOL    HW215666   3.212   2.827   6.005  1.1913 -0.0601  1.6777
 4923SOL     OW15667   5.147   1.251   6.463  0.4869  0.2092 -0.3954
 4923SOL    HW115668   5.215   1.194   6.416  0.4186 -0.5369  0.4036
 4923SOL    HW215669   5.063   1.199   6.478  0.0184  0.8718 -0.6414
 4924SOL     OW15670   0.470   5.119   4.399  0.2861  0.7697 -1.2207
 4924SOL    HW115671   0.487   5.101   4.302  0.4537 -1.2555 -0.8747
 4924SOL    HW215672   0.373   5.107   4.419  0.0140  2.4991 -1.3465
 4925SOL     OW15673   4.005   5.033   6.383  0.8741 -0.1449  0.0893
 4925SOL    HW115674   3.998   5.108   6.317  0.0239 -1.1386 -1.0045
 4925SOL    HW215675   3.921   5.029   6.438  0.5929 -0.7401 -0.3727
 4926SOL     OW15676   5.503   3.860   1.382  0.1413  0.4472 -0.4988
 4926SOL    HW115677   5.482   3.769   1.415 -1.0711  0.7924 -0.2801
 4926SOL    HW215678   5.527   3.919   1.459  1.1752  0.2658 -0.6644
 4927SOL     OW15679   2.991   3.145   2.667 -0.3064 -0.1911  0.2274
 4927SOL    HW115680   2.980   3.048   2.691  1.2320 -0.1521  1.2483
 4927SOL    HW215681   2.968   3.202   2.747 -0.3488  0.2324 -0.0844
 4928SOL     OW15682   6.809   6.039   0.738  0.4256  0.3442 -0.2345
 4928SOL    HW115683   6.902   6.022   0.769  0.4853 -1.6573 -1.2756
 4928SOL    HW215684   6.783   6.133   0.758  2.2124  0.5936  1.1840
 4929SOL     OW15685   0.459   5.780   4.623  0.4657 -0.4580 -0.0336
 4929SOL    HW115686   0.398   5.763   4.545 -0.1391  0.1854  0.2832
 4929SOL    HW215687   0.418   5.742   4.706  1.2380 -1.3808 -0.0637
 4930SOL     OW15688   0.456   2.007   1.542 -0.3869 -0.0909 -0.5723
 4930SOL    HW115689   0.500   2.084   1.495 -1.5263  0.8710 -0.1310
 4930SOL    HW215690   0.495   1.996   1.633  0.3365 -0.5621 -0.9362
 4931SOL     OW15691   1.059   1.321   6.570 -0.0092  0.0309 -0.6482
 4931SOL    HW115692   1.144   1.333   6.519  0.2958  2.2375  0.2247
 4931SOL    HW215693   1.080   1.298   6.665 -0.4766 -1.1785 -0.8182
 4932SOL     OW15694   2.092   3.704   1.175 -0.2264 -0.3759  0.6290
 4932SOL    HW115695   2.078   3.785   1.116  1.5329  0.4093  1.2425
 4932SOL    HW215696   2.096   3.733   1.270  0.3094 -1.2185  0.8678
 4933SOL     OW15697   1.818   0.826   5.218  0.4049 -0.1080  0.3480
 4933SOL    HW115698   1.842   0.891   5.290 -1.5503  0.1604  0.8124
 4933SOL    HW215699   1.899   0.771   5.194  0.8866 -1.0172  3.5500
 4934SOL     OW15700   1.351   6.951   4.246 -0.2445 -0.3053  0.6839
 4934SOL    HW115701   1.414   6.873   4.246  1.0147  0.6801  0.2801
 4934SOL    HW215702   1.385   7.021   4.183 -1.2857  0.6326  1.1362
 4935SOL     OW15703   6.999   2.773   1.669 -0.1015 -0.5701  0.2307
 4935SOL    HW115704   7.052   2.833   1.609 -0.5489 -0.3694  0.0351
 4935SOL    HW215705   6.988   2.816   1.758 -0.0085 -0.5752  0.2446
 4936SOL     OW15706   4.837   4.837   5.939  0.0968 -0.0641 -0.7864
 4936SOL    HW115707   4.909   4.849   6.007 -0.8926 -1.6974  0.6207
 4936SOL    HW215708   4.752   4.877   5.973  0.0642  0.9850 -2.0107
 4937SOL     OW15709   0.939   3.589   5.990 -0.5826 -0.2645  0.4748
 4937SOL    HW115710   1.001   3.544   6.053  0.8908  0.5808 -0.3154
 4937SOL    HW215711   0.991   3.649   5.929 -2.1017 -0.0718 -0.6914
 4938SOL     OW15712   3.315   5.469   1.486 -0.4854 -0.1931 -0.2038
 4938SOL    HW115713   3.344   5.412   1.410 -1.0605 -0.7664  0.0011
 4938SOL    HW215714   3.391   5.529   1.514  0.1032 -0.8129 -0.4614
 4939SOL     OW15715   2.112   1.368   1.433  0.2028  0.1484  0.2485
 4939SOL    HW115716   2.014   1.355   1.422  0.0868 -0.3988  1.7566
 4939SOL    HW215717   2.136   1.462   1.411 -0.4161 -0.0585 -1.5046
 4940SOL     OW15718   1.544   1.233   4.177 -0.0026  0.7925  0.7018
 4940SOL    HW115719   1.568   1.146   4.221  0.6062  0.1434 -0.8267
 4940SOL    HW215720   1.448   1.254   4.196 -0.2333 -0.3581  0.9052
 4941SOL     OW15721   5.929   3.238   4.753 -0.7486 -0.2104  0.5891
 4941SOL    HW115722   5.900   3.302   4.682  1.4637 -0.2264 -0.4331
 4941SOL    HW215723   5.994   3.284   4.814 -0.1444 -1.0883  0.6282
 4942SOL     OW15724   5.299   1.454   4.827 -0.3013 -0.2380  0.5213
 4942SOL    HW115725   5.239   1.501   4.892  0.5654  0.4049  0.8857
 4942SOL    HW215726   5.317   1.362   4.860 -2.6139 -1.1593 -0.5702
 4943SOL     OW15727   4.666   2.545   1.019  0.1901  0.1708  0.2616
 4943SOL    HW115728   4.645   2.449   1.036  2.0108  0.0299  1.9813
 4943SOL    HW215729   4.701   2.555   0.926 -0.5774 -0.7141 -0.1413
 4944SOL     OW15730   3.159   5.036   0.780  0.0799  0.1860 -0.0436
 4944SOL    HW115731   3.119   4.946   0.761  0.5869  0.2630 -1.6185
 4944SOL    HW215732   3.257   5.026   0.796  0.1514  0.4727 -0.3006
 4945SOL     OW15733   1.746   1.558   6.687 -0.4955 -0.2455  0.2607
 4945SOL    HW115734   1.842   1.567   6.713 -1.0076 -1.4203  2.9146
 4945SOL    HW215735   1.689   1.605   6.754 -1.8344 -0.6579 -0.5590
 4946SOL     OW15736   0.023   4.920   6.691 -0.4269  0.1226 -0.3747
 4946SOL    HW115737   0.026   4.964   6.781 -0.4232 -1.1097  0.2507
 4946SOL    HW215738  -0.067   4.879   6.678  0.2614 -1.5847  0.0174
 4947SOL     OW15739   1.402   0.432   1.190 -0.1809  0.0573 -0.4173
 4947SOL    HW115740   1.321   0.410   1.136  1.1356  2.5104 -3.7018
 4947SOL    HW215741   1.411   0.531   1.197  2.1898 -0.1665  0.4616
 4948SOL     OW15742   3.925   2.912   1.825  0.3281 -0.5124 -0.2905
 4948SOL    HW115743   4.003   2.966   1.793 -0.0733 -0.8565 -1.9181
 4948SOL    HW215744   3.910   2.930   1.922  1.3242  0.9076 -0.3693
 4949SOL     OW15745   0.759   3.927   0.100 -0.3247  0.4056 -0.6482
 4949SOL    HW115746   0.711   3.978   0.171 -1.0665 -0.5313 -0.4448
 4949SOL    HW215747   0.793   3.990   0.030  2.6074  1.6697  1.7304
 4950SOL     OW15748   2.079   5.166   4.539  0.0222  0.3639 -0.4539
 4950SOL    HW115749   2.014   5.235   4.569  0.7580  1.4397 -1.2372
 4950SOL    HW215750   2.036   5.105   4.472 -0.8209 -0.3671  0.7189
 4951SOL     OW15751   4.788   4.646   4.743 -0.0760 -0.6715  0.1734
 4951SOL    HW115752   4.731   4.666   4.663  1.3790 -0.3529 -0.8181
 4951SOL    HW215753   4.799   4.547   4.752 -0.4572 -0.7193  0.1516
 4952SOL     OW15754   0.267   0.725   6.136 -0.3992  0.3139  0.2662
 4952SOL    HW115755   0.289   0.735   6.233  1.1121  0.2581 -0.0513
 4952SOL    HW215756   0.319   0.792   6.083 -0.7483 -0.0679 -0.5657
 4953SOL     OW15757   1.814   3.202   5.606  0.3308 -0.1294  0.0631
 4953SOL    HW115758   1.758   3.269   5.655 -0.2192  0.9386 -1.9171
 4953SOL    HW215759   1.773   3.111   5.616 -0.2296  0.2033  0.8891
 4954SOL     OW15760   4.081   4.017   5.401 -0.4471  0.1572  0.3631
 4954SOL    HW115761   4.164   3.980   5.359  0.1248  0.8463  0.8604
 4954SOL    HW215762   4.009   3.948   5.399 -0.2270 -0.0647 -1.1057
 4955SOL     OW15763   3.756   6.992   0.763  0.3928 -0.1102 -0.0122
 4955SOL    HW115764   3.811   6.981   0.680 -0.6856 -0.1447 -0.7346
 4955SOL    HW215765   3.788   7.073   0.813  2.0494 -0.9395  0.3520
 4956SOL     OW15766   4.012   0.727   4.980  0.4426  0.2756  0.5266
 4956SOL    HW115767   4.015   0.825   4.997  1.1751  0.1108  1.4374
 4956SOL    HW215768   4.049   0.708   4.889 -1.7532  1.0103 -0.5884
 4957SOL     OW15769   4.730   2.645   0.183 -0.6926  0.2098 -0.0617
 4957SOL    HW115770   4.815   2.662   0.133 -0.7549  0.3541 -0.1191
 4957SOL    HW215771   4.652   2.665   0.124 -0.7725 -0.8090 -0.3185
 4958SOL     OW15772   7.017   6.722   6.464 -0.6235 -0.0021  0.6488
 4958SOL    HW115773   7.043   6.760   6.375  0.9035 -0.7834  0.7371
 4958SOL    HW215774   6.960   6.642   6.450 -0.7328  0.1204  0.3814
 4959SOL     OW15775   0.666   2.485   2.434 -0.2193 -0.1095 -0.2106
 4959SOL    HW115776   0.638   2.489   2.530  1.2286 -0.2593  0.2433
 4959SOL    HW215777   0.750   2.539   2.421 -1.0698  0.9292 -1.6622
 4960SOL     OW15778   3.783   4.875   3.839 -1.0220  0.0529  0.5474
 4960SOL    HW115779   3.712   4.870   3.768 -0.8288 -0.6911  0.4076
 4960SOL    HW215780   3.740   4.871   3.929 -1.2214  0.4454  0.4752
 4961SOL     OW15781   2.516   1.594   6.094 -0.3100 -0.2423 -0.4426
 4961SOL    HW115782   2.580   1.520   6.112 -0.8404 -0.1409  2.2664
 4961SOL    HW215783   2.431   1.557   6.057 -0.0180 -0.7950 -0.5695
 4962SOL     OW15784   1.218   3.699   2.271  0.1630  0.1025  0.4539
 4962SOL    HW115785   1.303   3.729   2.227  0.4032 -1.9910 -0.6301
 4962SOL    HW215786   1.141   3.728   2.215  0.2569  0.4899  0.5193
 4963SOL     OW15787   6.658   2.502   6.405  0.3323  0.3464 -0.0375
 4963SOL    HW115788   6.666   2.460   6.315 -1.4978  1.4915 -0.7905
 4963SOL    HW215789   6.655   2.601   6.395 -1.3445  0.4536  1.1127
 4964SOL     OW15790   1.762   6.208   5.867  0.4901 -0.5236 -0.3474
 4964SOL    HW115791   1.727   6.222   5.960  0.4914  0.9213 -0.5368
 4964SOL    HW215792   1.744   6.114   5.839 -1.6004 -0.3794  0.2671
 4965SOL     OW15793   0.663   5.409   2.604  0.0339  0.1694  0.2884
 4965SOL    HW115794   0.573   5.413   2.648  0.8051  2.1435  1.7894
 4965SOL    HW215795   0.685   5.313   2.582 -2.1039 -0.4192  0.5025
 4966SOL     OW15796   4.966   5.514   4.325 -0.3415 -0.3038  0.3774
 4966SOL    HW115797   4.983   5.611   4.305 -0.0253  0.0365  2.0917
 4966SOL    HW215798   4.875   5.503   4.365 -0.4460 -0.7401  0.0244
 4967SOL     OW15799   3.104   6.175   4.253 -0.8842 -0.1532 -0.0562
 4967SOL    HW115800   3.178   6.131   4.202 -0.3620  0.2381  0.3538
 4967SOL    HW215801   3.122   6.273   4.259 -1.7316  0.0367 -0.4436
 4968SOL     OW15802   4.841   2.261   3.710 -0.0760 -0.0750  0.1486
 4968SOL    HW115803   4.742   2.263   3.699 -0.2549 -1.0542  1.4370
 4968SOL    HW215804   4.884   2.253   3.620 -1.1421  0.5740 -0.4399
 4969SOL     OW15805   0.581   6.246   2.877 -0.1922  0.2867 -0.5073
 4969SOL    HW115806   0.678   6.235   2.902 -0.7261 -1.9212  0.8744
 4969SOL    HW215807   0.562   6.195   2.794 -0.6692 -1.6194  0.7011
 4970SOL     OW15808   0.004   3.840   0.206  0.1204 -0.2472 -0.6742
 4970SOL    HW115809  -0.023   3.745   0.224 -0.2405 -0.0112  0.0626
 4970SOL    HW215810  -0.018   3.896   0.285  0.3534  0.4541 -1.1001
 4971SOL     OW15811   6.673   0.943   2.324 -0.4162 -0.1739  0.4571
 4971SOL    HW115812   6.574   0.938   2.339 -0.6093 -1.5651 -1.0124
 4971SOL    HW215813   6.692   0.937   2.226  1.1445  0.0095  0.7232
 4972SOL     OW15814   1.897   3.857   1.849  0.1875  0.1856 -0.2162
 4972SOL    HW115815   1.913   3.946   1.892 -0.5105 -0.2829  1.0700
 4972SOL    HW215816   1.821   3.865   1.785 -0.2951  0.3963  0.3666
 4973SOL     OW15817   6.129   3.067   1.015  0.2278 -0.7395  0.2867
 4973SOL    HW115818   6.193   3.144   1.006 -0.9402  0.3877  1.1584
 4973SOL    HW215819   6.179   2.981   1.005  1.7205  0.1035  0.0956
 4974SOL     OW15820   3.167   5.959   6.904  0.1343 -0.3593 -0.4752
 4974SOL    HW115821   3.083   6.012   6.918 -0.1585 -0.5905 -1.2668
 4974SOL    HW215822   3.231   5.978   6.978 -1.0435 -1.0265  0.7510
 4975SOL     OW15823   4.959   2.878   0.331  0.4695  0.0457 -0.0222
 4975SOL    HW115824   5.053   2.913   0.339  0.2700  0.8665 -1.0731
 4975SOL    HW215825   4.956   2.806   0.261  0.2575  0.2272 -0.1983
 4976SOL     OW15826   0.926   7.005   3.703 -0.2187 -0.0662  0.1095
 4976SOL    HW115827   0.861   6.946   3.750 -0.7230  1.1198  0.9560
 4976SOL    HW215828   0.886   7.037   3.617 -1.3024  1.5738  1.1526
 4977SOL     OW15829   1.938   4.689   0.247 -0.1593 -0.3994  0.4595
 4977SOL    HW115830   2.009   4.692   0.318 -1.3575 -1.5259  1.7798
 4977SOL    HW215831   1.865   4.626   0.276 -1.8164  0.8772 -0.7235
 4978SOL     OW15832   4.755   4.266   6.429 -0.5897 -0.7815  0.0586
 4978SOL    HW115833   4.819   4.266   6.506 -1.4404  1.3469  0.8292
 4978SOL    HW215834   4.663   4.248   6.463 -0.8554 -0.6624 -0.5944
 4979SOL     OW15835   0.976   0.481   5.419  0.0017 -0.1332  0.1702
 4979SOL    HW115836   0.883   0.512   5.398  0.2300  0.1521 -0.4691
 4979SOL    HW215837   1.008   0.525   5.503  0.6140  2.0829 -1.1381
 4980SOL     OW15838   6.297   3.783   1.826  0.7121  0.6970 -0.3125
 4980SOL    HW115839   6.364   3.739   1.886  1.2527  1.4679 -0.3428
 4980SOL    HW215840   6.259   3.715   1.762 -1.1872 -0.5716  2.0013
 4981SOL     OW15841   4.385   4.138   1.395  0.3619 -0.0530  0.0211
 4981SOL    HW115842   4.327   4.076   1.343  0.9309  0.3939 -1.1899
 4981SOL    HW215843   4.359   4.136   1.492 -1.0759 -0.5070 -0.3554
 4982SOL     OW15844   3.713   1.701   0.795 -0.0329 -0.4493 -0.0362
 4982SOL    HW115845   3.646   1.727   0.725 -0.4569 -2.4216 -0.4052
 4982SOL    HW215846   3.730   1.779   0.855 -1.9574  0.3647 -0.4918
 4983SOL     OW15847   6.049   6.155   1.745  0.4850  0.1610  0.1260
 4983SOL    HW115848   6.051   6.057   1.730 -1.0138  0.1026  0.1633
 4983SOL    HW215849   5.981   6.177   1.815  1.1151  1.1944  0.4516
 4984SOL     OW15850   4.540   4.939   3.031 -0.6531 -0.1715 -0.4989
 4984SOL    HW115851   4.622   4.947   2.974 -0.4886 -1.4081 -0.4743
 4984SOL    HW215852   4.467   4.998   2.994  0.1220  0.6611 -0.7259
 4985SOL     OW15853   5.745   4.273   3.479 -0.2940  0.1494 -0.3059
 4985SOL    HW115854   5.680   4.199   3.459  0.0979 -0.7859  1.6082
 4985SOL    HW215855   5.795   4.251   3.563  0.4942  2.1914 -0.1881
 4986SOL     OW15856   6.816   5.989   2.549  0.1643  0.0154 -0.4312
 4986SOL    HW115857   6.781   5.929   2.621  1.9040  0.1236  0.5627
 4986SOL    HW215858   6.812   6.084   2.581  0.9536  0.0627 -0.4490
 4987SOL     OW15859   6.883   7.021   1.994  0.5072 -0.1350 -0.1481
 4987SOL    HW115860   6.935   7.102   2.020 -0.3960  1.1168 -1.9710
 4987SOL    HW215861   6.940   6.940   2.001  1.9348  0.8688  0.1768
 4988SOL     OW15862   5.477   6.820   4.283  0.4085  0.0992  0.7033
 4988SOL    HW115863   5.456   6.831   4.380 -0.3122 -0.5165  0.6235
 4988SOL    HW215864   5.402   6.857   4.228  0.4798 -0.2253  0.3842
 4989SOL     OW15865   4.450   0.590   1.237 -0.4198  0.9012 -0.0049
 4989SOL    HW115866   4.355   0.579   1.265 -0.2071  0.8020  0.7254
 4989SOL    HW215867   4.508   0.530   1.293  0.0760  1.0185 -0.3845
 4990SOL     OW15868   4.585   2.307   6.691 -0.2161  0.1174 -0.0596
 4990SOL    HW115869   4.648   2.231   6.673 -0.7308 -0.5919  1.0335
 4990SOL    HW215870   4.588   2.331   6.788  0.2532  1.8094 -0.4548
 4991SOL     OW15871   2.970   5.606   4.820 -0.5445 -0.1225 -0.5602
 4991SOL    HW115872   3.009   5.520   4.851 -0.3021 -0.5386 -1.9506
 4991SOL    HW215873   2.900   5.636   4.884  1.4110  0.2123  1.5747
 4992SOL     OW15874   1.993   6.352   2.934 -0.4788  0.7835 -0.0256
 4992SOL    HW115875   2.010   6.275   2.873 -0.4010  0.0964  0.8467
 4992SOL    HW215876   1.957   6.429   2.881  1.1983  0.7998 -1.2092
 4993SOL     OW15877   6.204   6.449   2.145 -0.2073 -0.3186  0.2088
 4993SOL    HW115878   6.232   6.420   2.053  0.5506  1.3713 -0.1140
 4993SOL    HW215879   6.250   6.533   2.169 -2.0173  0.4184  1.2926
 4994SOL     OW15880   0.700   4.690   5.195 -0.0591  0.3934 -0.3783
 4994SOL    HW115881   0.704   4.787   5.219  0.9802  0.6154 -1.3586
 4994SOL    HW215882   0.789   4.662   5.158 -0.7087 -0.6400 -1.1832
 4995SOL     OW15883   0.710   5.973   4.422  0.1046 -0.1090 -0.0054
 4995SOL    HW115884   0.709   5.980   4.521  0.3258  0.3759 -0.0336
 4995SOL    HW215885   0.797   5.931   4.392  0.8366  1.3844 -0.0786
 4996SOL     OW15886   6.887   0.953   3.898  0.5493  0.4532 -0.2965
 4996SOL    HW115887   6.943   1.036   3.897  0.6799  0.5193  2.8546
 4996SOL    HW215888   6.898   0.904   3.812  0.1983  3.8275 -2.4330
 4997SOL     OW15889   1.885   2.763   6.516  0.1194 -0.3937  0.8855
 4997SOL    HW115890   1.889   2.840   6.580  0.7366 -1.2335  1.8908
 4997SOL    HW215891   1.977   2.739   6.486 -0.1953  0.3071 -0.7542
 4998SOL     OW15892   1.072   2.381   3.694 -0.0553  0.2105 -0.3111
 4998SOL    HW115893   1.057   2.404   3.597 -0.2485  1.3007 -0.0346
 4998SOL    HW215894   1.122   2.455   3.738 -0.4779 -0.0184  0.5712
 4999SOL     OW15895   2.187   3.731   0.799  0.2252  0.4157 -0.3125
 4999SOL    HW115896   2.197   3.639   0.838  0.8416  0.1396 -1.0977
 4999SOL    HW215897   2.277   3.775   0.794 -0.3365  2.0782  2.4074
 5000SOL     OW15898   3.910   5.173   4.620  0.5717 -0.3134  0.0017
 5000SOL    HW115899   3.846   5.130   4.556  1.2815  2.0240 -2.4834
 5000SOL    HW215900   3.991   5.115   4.631  0.1369 -1.0743 -0.6945
 5001SOL     OW15901   1.267   6.077   4.010 -0.4099  0.8738  0.1403
 5001SOL    HW115902   1.365   6.090   3.995 -0.0237  0.1251  1.7516
 5001SOL    HW215903   1.218   6.158   3.979  0.7845  1.5390 -0.0947
 5002SOL     OW15904   0.880   4.324   2.821 -0.1085 -0.3169 -0.2366
 5002SOL    HW115905   0.961   4.375   2.846 -1.1151  0.5557  1.4268
 5002SOL    HW215906   0.854   4.345   2.727  0.9384  0.2608 -0.4013
 5003SOL     OW15907   5.121   5.486   4.046  0.2177  0.0749 -0.1054
 5003SOL    HW115908   5.046   5.499   4.110  1.2523 -0.1401  1.1903
 5003SOL    HW215909   5.153   5.575   4.013 -0.5257  0.1706 -0.5965
 5004SOL     OW15910   4.174   5.631   6.682 -0.5122  0.2419 -0.4571
 5004SOL    HW115911   4.208   5.722   6.659  0.8647  0.2413  1.3104
 5004SOL    HW215912   4.220   5.563   6.625 -0.4560  0.5408 -0.7734
 5005SOL     OW15913   2.860   2.080   0.389 -0.0828  0.2089 -0.1654
 5005SOL    HW115914   2.895   2.142   0.459  0.5120 -1.0979  0.7399
 5005SOL    HW215915   2.825   1.997   0.432  0.1111 -0.5496 -1.4047
 5006SOL     OW15916   6.194   2.212   1.685 -0.0145 -0.0475  0.2139
 5006SOL    HW115917   6.135   2.260   1.750 -1.8872  1.6032 -2.4703
 5006SOL    HW215918   6.138   2.149   1.630  1.8789 -3.1038  1.5119
 5007SOL     OW15919   5.027   2.645   1.201 -0.5930  0.5412 -0.0751
 5007SOL    HW115920   4.954   2.712   1.209 -0.4240  0.9227 -1.5280
 5007SOL    HW215921   5.074   2.655   1.113  0.7286 -0.1832  0.5004
 5008SOL     OW15922   1.491   0.064   6.068 -0.4318 -0.5422 -0.2714
 5008SOL    HW115923   1.470  -0.024   6.026 -1.0737 -0.6783  0.3257
 5008SOL    HW215924   1.438   0.076   6.151  0.1802  0.1050  0.0463
 5009SOL     OW15925   0.626   3.684   0.639  0.2674  0.0354 -0.6978
 5009SOL    HW115926   0.691   3.749   0.598 -0.5579  0.5836 -1.1531
 5009SOL    HW215927   0.560   3.655   0.570 -0.9071  0.6712  0.1159
 5010SOL     OW15928   3.098   3.774   6.440  0.4368  0.7954  0.3759
 5010SOL    HW115929   3.101   3.825   6.353 -0.4131  1.5038  0.7416
 5010SOL    HW215930   3.086   3.677   6.421 -0.4619  1.0177 -0.3057
 5011SOL     OW15931   0.938   1.821   6.351 -0.6093  0.2770  0.1681
 5011SOL    HW115932   0.927   1.787   6.445  0.1564  1.0794  0.5730
 5011SOL    HW215933   0.884   1.904   6.340 -1.0183 -0.0432 -0.2309
 5012SOL     OW15934   5.902   0.524   4.530 -0.8251  0.8605 -0.3585
 5012SOL    HW115935   5.991   0.570   4.534 -0.9045  0.9218  2.5637
 5012SOL    HW215936   5.849   0.563   4.455  0.5627  2.8214 -0.4177
 5013SOL     OW15937   5.932   6.177   4.709  0.0929  0.3138  0.2134
 5013SOL    HW115938   6.023   6.171   4.668  0.0288  1.0432 -0.0377
 5013SOL    HW215939   5.939   6.158   4.807  0.5798  0.7762  0.2723
 5014SOL     OW15940   4.978   2.767   1.575  0.1496  0.0494  0.3494
 5014SOL    HW115941   4.889   2.780   1.620  0.0585  0.2436  0.1144
 5014SOL    HW215942   4.976   2.682   1.522 -0.3404  0.7128 -0.7141
 5015SOL     OW15943   4.862   1.494   3.813  0.0278  0.2659 -0.0055
 5015SOL    HW115944   4.914   1.580   3.812 -1.3153  1.1412  1.2387
 5015SOL    HW215945   4.866   1.452   3.722  1.4369  1.1795 -0.4052
 5016SOL     OW15946   6.550   2.793   5.534 -0.7339 -0.4579 -0.3444
 5016SOL    HW115947   6.502   2.711   5.565 -0.0255 -0.8888 -0.3848
 5016SOL    HW215948   6.546   2.798   5.434 -2.3414  0.5240 -0.2798
 5017SOL     OW15949   6.514   2.174   1.843 -0.3653 -0.1108  0.1413
 5017SOL    HW115950   6.418   2.172   1.870 -0.9205 -2.2483 -1.6836
 5017SOL    HW215951   6.571   2.145   1.920 -1.2163  0.5121  1.0322
 5018SOL     OW15952   0.082   5.585   1.654 -0.4111  0.0911  0.3262
 5018SOL    HW115953   0.071   5.496   1.698  1.1239 -0.5156 -0.4366
 5018SOL    HW215954  -0.008   5.626   1.639 -1.0943 -0.8653  1.5876
 5019SOL     OW15955   1.470   4.999   4.172 -0.2691 -0.1567 -0.1979
 5019SOL    HW115956   1.545   4.935   4.158 -0.5852 -1.0892  1.9430
 5019SOL    HW215957   1.410   4.999   4.091  2.0616  0.7838 -2.0363
 5020SOL     OW15958   6.392   6.618   3.475  0.0536 -0.1984  0.1924
 5020SOL    HW115959   6.353   6.605   3.566  0.1839  0.0640  0.2888
 5020SOL    HW215960   6.450   6.540   3.452  0.5075  0.0100  0.5936
 5021SOL     OW15961   2.133   0.135   0.847  0.6457  0.1091 -0.4174
 5021SOL    HW115962   2.098   0.072   0.778 -0.4482 -1.2310  1.2753
 5021SOL    HW215963   2.165   0.083   0.926  0.1199  1.6637  0.8616
 5022SOL     OW15964   0.985   2.059   2.456  0.0575 -0.7193  0.1212
 5022SOL    HW115965   0.965   2.156   2.442  0.1095 -0.7771 -0.3601
 5022SOL    HW215966   0.917   2.019   2.518 -0.3091 -0.5139 -0.1446
 5023SOL     OW15967   0.673   4.764   1.670  0.4264 -0.0198 -0.3509
 5023SOL    HW115968   0.617   4.778   1.588  1.3694  0.0239 -0.9983
 5023SOL    HW215969   0.642   4.826   1.742 -1.6662 -1.3875 -0.0063
 5024SOL     OW15970   4.297   4.520   1.110  0.0919  0.6150 -0.6040
 5024SOL    HW115971   4.381   4.522   1.164  0.5808  0.3173 -1.3353
 5024SOL    HW215972   4.218   4.522   1.171  0.6298  0.5622  0.1068
 5025SOL     OW15973   4.230   6.837   4.626 -0.1678  0.7238  0.2048
 5025SOL    HW115974   4.232   6.896   4.545  0.7675  0.9034  0.3529
 5025SOL    HW215975   4.317   6.843   4.674  0.1866 -1.2208 -0.0977
 5026SOL     OW15976   5.106   5.644   3.339  0.1101  0.5387 -0.4260
 5026SOL    HW115977   5.092   5.671   3.435  1.7240  0.4599 -0.1428
 5026SOL    HW215978   5.190   5.591   3.332 -0.6914 -0.6326 -1.6989
 5027SOL     OW15979   3.526   5.606   1.593  0.2118  0.3326 -0.1647
 5027SOL    HW115980   3.510   5.625   1.690 -1.1885 -0.8755 -0.1128
 5027SOL    HW215981   3.602   5.661   1.560  0.6808  0.8139  1.6042
 5028SOL     OW15982   5.921   2.332   3.116 -0.4015 -0.6507 -1.0866
 5028SOL    HW115983   5.882   2.419   3.083  0.6939 -0.0832 -0.9162
 5028SOL    HW215984   5.920   2.265   3.042 -0.9278 -0.3848 -1.3250
 5029SOL     OW15985   6.252   2.111   3.056 -0.0607  0.1327 -0.2215
 5029SOL    HW115986   6.274   2.202   3.023 -0.0202  1.1291  2.3236
 5029SOL    HW215987   6.336   2.057   3.064  0.0605  0.2602 -0.6201
 5030SOL     OW15988   7.003   5.032   6.389 -0.0786  0.2097 -0.8176
 5030SOL    HW115989   7.004   5.004   6.485  1.2264 -0.6321 -1.0554
 5030SOL    HW215990   6.909   5.055   6.362 -0.4501  0.5257  0.6652
 5031SOL     OW15991   6.664   0.832   4.725  1.3758  0.1561  0.1122
 5031SOL    HW115992   6.609   0.909   4.757  1.3472 -0.1779  0.8872
 5031SOL    HW215993   6.695   0.849   4.631  0.3145  0.5426 -0.1781
 5032SOL     OW15994   4.257   2.727   5.960  0.3018  0.4619 -0.8889
 5032SOL    HW115995   4.226   2.687   6.046 -0.9434  1.9409 -0.5940
 5032SOL    HW215996   4.178   2.756   5.907  1.1106  1.2521 -1.6985
 5033SOL     OW15997   0.790   6.503   5.998 -0.3751 -0.0916 -0.5552
 5033SOL    HW115998   0.774   6.586   5.944 -1.3590 -0.0155 -0.1560
 5033SOL    HW215999   0.888   6.483   5.998 -0.2437  0.4535 -1.5581
 5034SOL     OW16000   3.984   5.885   4.980 -0.5499  0.8018  0.9499
 5034SOL    HW116001   4.010   5.876   4.884 -1.9060  0.2991  0.6095
 5034SOL    HW216002   4.065   5.907   5.035  0.3781  0.2878 -0.1844
 5035SOL     OW16003   6.878   4.890   0.950  0.1616 -0.3299 -0.5305
 5035SOL    HW116004   6.943   4.871   1.025 -0.1838 -0.6465 -0.3087
 5035SOL    HW216005   6.899   4.979   0.910 -1.2388  1.0335  1.6147
 5036SOL     OW16006   5.056   5.273   5.877 -0.0345  0.6277  0.2283
 5036SOL    HW116007   5.111   5.210   5.932  0.5358  1.2104  0.3409
 5036SOL    HW216008   4.981   5.309   5.933 -1.3896 -1.1996 -0.3084
 5037SOL     OW16009   4.457   4.995   1.778  0.0841  0.3498 -0.7652
 5037SOL    HW116010   4.363   4.984   1.747 -0.0011  2.7904 -1.5531
 5037SOL    HW216011   4.501   5.068   1.726  2.1128 -0.0640  0.2740
 5038SOL     OW16012   3.108   3.014   3.585 -0.0642 -0.3432 -0.1444
 5038SOL    HW116013   3.044   2.948   3.625 -1.1266  0.0284 -1.1996
 5038SOL    HW216014   3.059   3.074   3.522  0.8295  1.5905  0.9079
 5039SOL     OW16015   0.470   3.631   0.424  0.2490 -0.5513 -0.3292
 5039SOL    HW116016   0.482   3.685   0.341  0.9064 -0.5331 -0.2278
 5039SOL    HW216017   0.401   3.675   0.482  0.7749  0.1857 -0.2482
 5040SOL     OW16018   2.144   4.539   5.019 -0.2531  0.0842  0.3321
 5040SOL    HW116019   2.202   4.459   5.005  1.3314  0.9918  1.3671
 5040SOL    HW216020   2.051   4.520   4.988  0.2296 -1.9501  0.0556
 5041SOL     OW16021   1.374   4.831   1.768 -0.1735 -0.2150 -0.5120
 5041SOL    HW116022   1.360   4.835   1.669 -0.2561 -0.2087 -0.4995
 5041SOL    HW216023   1.286   4.834   1.815 -0.1231  0.0024 -0.4291
 5042SOL     OW16024   6.450   3.548   5.987  0.7010  0.8115 -0.6728
 5042SOL    HW116025   6.433   3.540   6.085  1.0003  1.7961 -0.5253
 5042SOL    HW216026   6.466   3.644   5.964  0.4132  0.6185 -1.7237
 5043SOL     OW16027   3.996   6.239   0.050  0.2117 -0.0993 -0.3484
 5043SOL    HW116028   4.035   6.276   0.133  3.4743  1.4171 -2.3582
 5043SOL    HW216029   4.026   6.144   0.038  1.1438  0.2139 -0.5695
 5044SOL     OW16030   6.684   0.041   1.008  0.1533 -0.3269 -0.4067
 5044SOL    HW116031   6.768   0.091   0.988 -0.7310  1.1197 -0.6979
 5044SOL    HW216032   6.609   0.106   1.023 -0.4262 -1.4771  2.3490
 5045SOL     OW16033   4.235   3.128   5.924  0.0776  0.2360 -0.5080
 5045SOL    HW116034   4.330   3.096   5.922  0.5845  1.5153  0.7624
 5045SOL    HW216035   4.184   3.086   5.849  1.3621 -1.3154 -0.5815
 5046SOL     OW16036   4.435   3.861   6.429  0.2360 -0.2944 -0.0444
 5046SOL    HW116037   4.527   3.839   6.398  0.0166 -0.5680 -0.5078
 5046SOL    HW216038   4.372   3.862   6.351  0.1328  1.4657  0.0063
 5047SOL     OW16039   0.772   1.873   2.948 -0.2324 -0.1053 -0.2082
 5047SOL    HW116040   0.846   1.909   3.004  0.1625  0.8601 -1.2980
 5047SOL    HW216041   0.684   1.891   2.991  0.1237 -0.6029  0.7417
 5048SOL     OW16042   0.090   0.882   4.779 -0.0219 -0.6686  0.1369
 5048SOL    HW116043   0.073   0.952   4.848 -2.6915 -2.3879  1.3607
 5048SOL    HW216044   0.063   0.917   4.689  1.2452  0.7374  0.2526
 5049SOL     OW16045   5.559   0.958   5.390 -0.0050 -0.0042  0.6175
 5049SOL    HW116046   5.616   0.929   5.313  1.5595  0.8669  1.4001
 5049SOL    HW216047   5.463   0.938   5.370  0.2641  0.9307 -1.8736
 5050SOL     OW16048   0.975   0.495   6.476 -0.5394 -0.3356  0.1693
 5050SOL    HW116049   0.937   0.413   6.434 -0.1023 -0.4996  0.0866
 5050SOL    HW216050   1.069   0.509   6.443 -0.5614  0.1154  0.2928
 5051SOL     OW16051   4.306   3.289   6.946 -0.8347 -0.0367  0.0728
 5051SOL    HW116052   4.354   3.376   6.951 -1.2069  0.1823 -0.1362
 5051SOL    HW216053   4.294   3.252   7.038  2.8210 -1.8142  0.0017
 5052SOL     OW16054   1.988   2.914   4.361 -0.5198 -0.0775 -0.3304
 5052SOL    HW116055   1.918   2.984   4.356 -0.9757 -0.5243 -0.2677
 5052SOL    HW216056   1.951   2.827   4.327  0.3716 -0.0316 -1.4943
 5053SOL     OW16057   0.908   6.230   3.716  0.3935 -0.3986 -0.3192
 5053SOL    HW116058   0.829   6.252   3.660 -0.5168 -0.0168  1.0651
 5053SOL    HW216059   0.881   6.223   3.812  2.0341 -0.2537  0.1991
 5054SOL     OW16060   2.104   3.660   4.924 -0.2264 -0.0870 -0.6708
 5054SOL    HW116061   2.076   3.565   4.930  1.8004 -0.7331 -0.4982
 5054SOL    HW216062   2.171   3.680   4.996 -2.7021  2.3235  1.1643
 5055SOL     OW16063   1.680   3.940   6.214  0.2146  0.5201 -0.3159
 5055SOL    HW116064   1.755   3.929   6.149  2.4060  0.7946  2.0370
 5055SOL    HW216065   1.670   4.036   6.239 -0.5143  0.4000 -0.1004
 5056SOL     OW16066   4.594   3.278   6.205 -0.2596  0.4756 -0.1209
 5056SOL    HW116067   4.608   3.312   6.298  1.2808  0.1423 -0.2070
 5056SOL    HW216068   4.636   3.187   6.196  0.5510  0.9496 -1.4087
 5057SOL     OW16069   0.951   5.831   4.390 -0.0609 -0.0510  0.1742
 5057SOL    HW116070   0.950   5.744   4.441 -2.0462 -0.7476 -0.9574
 5057SOL    HW216071   1.039   5.876   4.403  0.1323 -1.0343  2.7865
 5058SOL     OW16072   5.421   5.420   6.008  0.2414  0.4298  0.6075
 5058SOL    HW116073   5.439   5.410   5.910 -1.4217  1.2004  0.1886
 5058SOL    HW216074   5.372   5.506   6.024 -1.4748 -0.7312  1.8376
 5059SOL     OW16075   0.971   5.553   4.507  0.2212  0.2452 -0.0050
 5059SOL    HW116076   0.892   5.492   4.499  0.2925  0.4138 -2.5006
 5059SOL    HW216077   0.994   5.564   4.604 -1.3851 -1.6033  0.6514
 5060SOL     OW16078   6.300   1.441   5.162 -0.2125  0.2804 -0.4206
 5060SOL    HW116079   6.272   1.523   5.213 -0.8044  0.3342 -0.8221
 5060SOL    HW216080   6.386   1.406   5.200  0.2815  1.3429 -0.5139
 5061SOL     OW16081   5.496   4.587   6.903  0.6095 -0.5325  0.4485
 5061SOL    HW116082   5.435   4.523   6.856 -1.1661  1.4420 -0.0767
 5061SOL    HW216083   5.551   4.538   6.971 -1.6976 -2.3720  1.0856
 5062SOL     OW16084   1.921   1.825   2.257 -0.3961  0.2656  0.2592
 5062SOL    HW116085   1.944   1.744   2.203 -0.5808  0.8109 -0.6675
 5062SOL    HW216086   1.900   1.798   2.351 -0.4290 -0.7511 -0.0288
 5063SOL     OW16087   0.269   1.047   1.442 -0.0483 -0.6453 -0.2504
 5063SOL    HW116088   0.317   0.969   1.484 -0.3434 -0.5678  0.2361
 5063SOL    HW216089   0.335   1.118   1.420  0.2107 -0.9893 -0.5993
 5064SOL     OW16090   5.415   3.823   2.529 -0.5122 -0.4223  0.1414
 5064SOL    HW116091   5.358   3.872   2.464 -1.3038 -0.2483  0.9425
 5064SOL    HW216092   5.381   3.840   2.622  2.0264  1.4013  0.8696
 5065SOL     OW16093   1.886   1.256   4.956 -0.1919 -1.3957 -0.0983
 5065SOL    HW116094   1.861   1.352   4.959 -2.4694 -1.9602  0.8871
 5065SOL    HW216095   1.953   1.236   5.027  0.4123 -0.5423 -0.4090
 5066SOL     OW16096   6.173   5.033   1.145 -0.6383  0.3499  0.0608
 5066SOL    HW116097   6.272   5.024   1.133 -0.3070  0.2604  2.3092
 5066SOL    HW216098   6.129   5.037   1.056  1.2135 -1.3537 -1.0263
 5067SOL     OW16099   0.717   1.114   0.042  0.5494  0.4212 -0.3174
 5067SOL    HW116100   0.663   1.196   0.055  0.2493  0.2440 -0.4289
 5067SOL    HW216101   0.706   1.053   0.120  0.3459  0.2519 -0.4758
 5068SOL     OW16102   3.068   5.027   0.399  0.2521  0.4963 -0.2119
 5068SOL    HW116103   3.087   4.929   0.401 -0.9229  0.2495 -0.0716
 5068SOL    HW216104   3.017   5.049   0.316 -0.3700  0.7922  0.2344
 5069SOL     OW16105   2.410   4.481   3.757 -0.1975 -0.0945 -0.2248
 5069SOL    HW116106   2.494   4.535   3.746  0.2450 -0.4464  1.1291
 5069SOL    HW216107   2.424   4.415   3.831 -1.1165 -1.2924 -1.0940
 5070SOL     OW16108   5.520   3.416   4.168  0.4981 -0.0240 -0.2397
 5070SOL    HW116109   5.448   3.347   4.166  1.1696 -0.7434 -0.1465
 5070SOL    HW216110   5.514   3.468   4.254  0.1486 -0.1356 -0.1960
 5071SOL     OW16111   4.542   0.126   6.562  0.6353 -0.0367 -0.0374
 5071SOL    HW116112   4.478   0.112   6.638  0.2206  2.7284  0.2305
 5071SOL    HW216113   4.616   0.186   6.593  0.7482  0.6963 -1.6482
 5072SOL     OW16114   0.386   5.452   1.277 -0.1550 -0.2683  0.0835
 5072SOL    HW116115   0.391   5.360   1.315  0.0970  0.0537  0.8348
 5072SOL    HW216116   0.300   5.495   1.305 -0.2861 -0.2802 -0.2915
 5073SOL     OW16117   0.968   0.590   2.713  0.0831  0.4665 -0.3430
 5073SOL    HW116118   1.046   0.542   2.754 -1.3138 -1.1611  0.5320
 5073SOL    HW216119   0.927   0.651   2.781 -1.0003 -0.7006  0.0807
 5074SOL     OW16120   4.063   1.097   0.175  0.2045 -0.1373  0.1912
 5074SOL    HW116121   4.094   1.186   0.208 -1.7136  0.8816 -0.6077
 5074SOL    HW216122   3.963   1.093   0.177  0.2390 -2.2374  0.0784
 5075SOL     OW16123   2.705   0.064   5.544  0.5212  0.4474 -0.2673
 5075SOL    HW116124   2.767   0.087   5.469 -0.5565  1.0515 -1.0023
 5075SOL    HW216125   2.649  -0.015   5.518  0.8971 -0.0252  0.3424
 5076SOL     OW16126   2.766   6.045   0.958  0.0102 -0.1643  0.2577
 5076SOL    HW116127   2.804   5.982   1.026 -0.8965 -1.9056 -0.7804
 5076SOL    HW216128   2.839   6.081   0.901  0.6539  0.5031  1.4525
 5077SOL     OW16129   1.854   2.935   4.906  0.5788  0.0620 -0.7792
 5077SOL    HW116130   1.916   2.961   4.832  1.1767  0.2331 -0.2350
 5077SOL    HW216131   1.761   2.930   4.872  0.8682 -0.0295 -1.5805
 5078SOL     OW16132   1.988   2.557   3.322  0.0180 -0.1626 -0.0637
 5078SOL    HW116133   1.963   2.515   3.235  0.0947  0.1276 -0.2248
 5078SOL    HW216134   1.986   2.487   3.394  3.0145 -1.1812 -0.8027
 5079SOL     OW16135   2.767   4.990   5.144 -0.1589 -0.5417 -0.0890
 5079SOL    HW116136   2.750   5.078   5.188 -3.2685 -1.7869  1.4773
 5079SOL    HW216137   2.748   4.998   5.046  2.2822  1.0978 -0.5255
 5080SOL     OW16138   6.972   1.363   5.992 -0.4595 -0.6352 -0.1488
 5080SOL    HW116139   6.902   1.360   5.920 -0.2224  0.7024 -0.4686
 5080SOL    HW216140   6.930   1.385   6.079 -0.5519 -0.7833 -0.1550
 5081SOL     OW16141   4.111   3.447   4.689 -0.3540  0.0263  0.0678
 5081SOL    HW116142   4.096   3.368   4.630  0.5431  0.6167 -0.9961
 5081SOL    HW216143   4.151   3.417   4.776 -3.7770 -1.1167  1.3822
 5082SOL     OW16144   5.944   4.057   4.021  0.3409  0.1721 -0.5757
 5082SOL    HW116145   5.977   4.053   4.115 -1.5492 -2.0004  0.0638
 5082SOL    HW216146   5.867   4.121   4.015  2.1868  2.4787 -1.3260
 5083SOL     OW16147   6.669   6.854   1.584 -0.5583  0.1098 -0.4677
 5083SOL    HW116148   6.633   6.784   1.522 -2.0295 -0.1163  0.5833
 5083SOL    HW216149   6.687   6.938   1.533 -1.0877 -0.2810 -1.3231
 5084SOL     OW16150   6.572   3.362   3.984 -0.0011 -0.4252 -0.0119
 5084SOL    HW116151   6.607   3.329   3.896 -1.6683 -0.3607 -0.7212
 5084SOL    HW216152   6.616   3.449   4.007 -0.1853 -0.0037 -1.2178
 5085SOL     OW16153   0.450   2.053   6.300 -0.1945 -0.4930  0.2167
 5085SOL    HW116154   0.406   2.095   6.220 -0.7823 -1.0606  0.2355
 5085SOL    HW216155   0.483   1.962   6.275 -1.1400 -1.0259  0.8385
 5086SOL     OW16156   6.486   5.158   2.508  0.0427  0.2362  0.2207
 5086SOL    HW116157   6.583   5.136   2.519 -0.1970 -0.3005  1.3843
 5086SOL    HW216158   6.432   5.102   2.571 -1.1050 -0.1129 -1.0152
 5087SOL     OW16159   0.395   5.495   5.621 -0.1939 -0.1573 -0.5146
 5087SOL    HW116160   0.407   5.480   5.523  0.8224 -0.7878 -0.3080
 5087SOL    HW216161   0.484   5.516   5.663 -0.3216 -1.5655  0.5384
 5088SOL     OW16162   5.809   0.065   0.102 -0.0176  0.1237  0.1981
 5088SOL    HW116163   5.764   0.152   0.122 -1.1610 -0.1359 -1.0878
 5088SOL    HW216164   5.798   0.002   0.179  1.1834  1.2175  1.3169
 5089SOL     OW16165   0.641   1.648   0.591  0.1761  0.0165  0.6940
 5089SOL    HW116166   0.590   1.715   0.645 -0.2138  0.3607 -0.0838
 5089SOL    HW216167   0.638   1.559   0.636 -2.7247 -0.4431 -0.2108
 5090SOL     OW16168   2.105   6.842   1.551  0.4206 -0.4816  0.1219
 5090SOL    HW116169   2.198   6.857   1.516  0.6931  0.9033  1.3662
 5090SOL    HW216170   2.095   6.884   1.641 -1.3976 -0.7090  0.0732
 5091SOL     OW16171   0.608   6.792   3.531 -0.6844 -0.6659  0.1701
 5091SOL    HW116172   0.613   6.875   3.475 -1.8520  0.2141  1.3031
 5091SOL    HW216173   0.679   6.795   3.601 -0.5704 -0.7412  0.0577
 5092SOL     OW16174   2.539   3.157   1.099  0.2752  0.0996  0.0101
 5092SOL    HW116175   2.553   3.256   1.101 -2.1388  0.5018  2.7680
 5092SOL    HW216176   2.619   3.112   1.140 -0.2910  1.2986  2.6708
 5093SOL     OW16177   0.050   1.954   2.361  0.2607 -0.1410 -0.4913
 5093SOL    HW116178   0.054   2.052   2.341  1.0842  0.4660  2.2920
 5093SOL    HW216179   0.128   1.909   2.318  0.9868  0.7690 -0.1595
 5094SOL     OW16180   1.770   1.828   4.895  0.3789  0.0286  0.4535
 5094SOL    HW116181   1.735   1.885   4.821  0.6609  0.9624  1.0173
 5094SOL    HW216182   1.790   1.886   4.974 -1.4233 -1.1218  1.8364
 5095SOL     OW16183   3.438   1.374   4.470 -0.0388  0.1528  0.2212
 5095SOL    HW116184   3.445   1.469   4.500 -0.5713 -0.5589  2.8225
 5095SOL    HW216185   3.342   1.352   4.454 -0.1025 -0.3789  1.2629
 5096SOL     OW16186   3.946   3.077   6.716  0.1974 -0.2094 -0.9919
 5096SOL    HW116187   3.897   3.134   6.650  0.8694  1.2676 -0.2565
 5096SOL    HW216188   4.036   3.116   6.733 -0.4532  0.2953  1.8557
 5097SOL     OW16189   3.085   0.384   0.939  0.2430  0.7165 -0.0124
 5097SOL    HW116190   3.159   0.448   0.959  2.5212 -1.7827  0.1238
 5097SOL    HW216191   3.117   0.316   0.873 -1.2749 -1.5759  1.4691
 5098SOL     OW16192   1.433   2.203   2.558  0.0131 -0.3476 -0.5152
 5098SOL    HW116193   1.362   2.177   2.624 -1.1190 -1.2818 -2.0297
 5098SOL    HW216194   1.416   2.156   2.471  1.7507  0.4528 -1.3262
 5099SOL     OW16195   0.788   1.337   5.363  0.0836  0.3232  0.1154
 5099SOL    HW116196   0.772   1.260   5.301 -0.3008  1.1254 -0.8152
 5099SOL    HW216197   0.703   1.388   5.376  0.7686  1.8916 -1.1107
 5100SOL     OW16198   4.933   0.891   0.973 -0.3542  0.8329  0.2123
 5100SOL    HW116199   4.931   0.892   1.073 -1.6860 -1.4124  0.2778
 5100SOL    HW216200   4.909   0.799   0.940 -0.5232  1.6698 -2.1847
 5101SOL     OW16201   4.121   5.239   5.951  0.3675  0.0987  0.4364
 5101SOL    HW116202   4.213   5.269   5.976 -0.0320  0.8153  1.1280
 5101SOL    HW216203   4.118   5.218   5.853  0.6110  2.7829 -0.2460
 5102SOL     OW16204   5.053   0.761   4.066  0.2248 -0.5889 -0.1042
 5102SOL    HW116205   5.077   0.858   4.067  3.2138 -1.2314  0.7555
 5102SOL    HW216206   5.021   0.735   3.975  3.8482  0.3327 -1.8269
 5103SOL     OW16207   1.627   0.310   1.571  0.5067 -0.3205 -0.1207
 5103SOL    HW116208   1.670   0.252   1.502  0.3021 -1.4673  0.7027
 5103SOL    HW216209   1.644   0.273   1.662 -2.9920 -1.4466  0.2263
 5104SOL     OW16210   2.126   0.401   3.709  0.2993  0.2210 -0.0457
 5104SOL    HW116211   2.107   0.304   3.717  1.7469 -0.0705  0.1152
 5104SOL    HW216212   2.042   0.453   3.721 -0.2831 -0.9495  1.1529
 5105SOL     OW16213   2.787   3.334   6.533  0.4567 -0.3266  0.0428
 5105SOL    HW116214   2.718   3.263   6.523 -2.6356  2.2341  1.3272
 5105SOL    HW216215   2.778   3.400   6.458  1.9665 -0.2250 -0.0811
 5106SOL     OW16216   4.028   0.225   1.956 -0.4097  0.7985  0.0541
 5106SOL    HW116217   3.990   0.274   1.877 -0.7953  2.5010  1.2221
 5106SOL    HW216218   4.126   0.247   1.964  0.3514 -1.6513 -1.5444
 5107SOL     OW16219   2.485   0.475   0.942 -0.4168 -0.3298  0.2546
 5107SOL    HW116220   2.418   0.414   0.901 -0.4230  0.7414 -1.3934
 5107SOL    HW216221   2.574   0.429   0.945 -0.5884 -0.7065 -0.2551
 5108SOL     OW16222   3.372   3.020   4.137  0.0095 -0.4477  0.3164
 5108SOL    HW116223   3.452   2.975   4.098 -0.2303  0.3267 -1.1350
 5108SOL    HW216224   3.383   3.029   4.236  1.7092 -0.3316  0.1376
 5109SOL     OW16225   0.822   5.951   2.096 -0.7538  0.2136  0.0713
 5109SOL    HW116226   0.769   5.874   2.132 -0.1823 -0.6710 -0.9460
 5109SOL    HW216227   0.765   6.003   2.032 -0.7349 -0.1082 -0.2082
 5110SOL     OW16228   2.394   0.057   4.675  0.1491 -0.3795  0.1052
 5110SOL    HW116229   2.477   0.084   4.723  0.1138 -0.1033  0.0127
 5110SOL    HW216230   2.314   0.093   4.723  0.1263  0.1078 -0.2963
 5111SOL     OW16231   0.969   2.605   0.074  0.2817 -0.1135  0.0367
 5111SOL    HW116232   0.893   2.611   0.138  1.4950  0.1214  1.4930
 5111SOL    HW216233   1.055   2.629   0.120  1.0722  1.1155 -1.9252
 5112SOL     OW16234   1.209   6.608   4.098  0.1016  0.2860  0.0635
 5112SOL    HW116235   1.184   6.512   4.092 -0.0306  0.2127  1.4436
 5112SOL    HW216236   1.166   6.649   4.179 -0.4673  1.7107 -0.9183
 5113SOL     OW16237   1.742   1.298   6.606  0.0235  0.6745  0.1337
 5113SOL    HW116238   1.835   1.263   6.596  0.0341  1.0967 -1.8001
 5113SOL    HW216239   1.745   1.391   6.642  0.3963  0.8809 -0.4195
 5114SOL     OW16240   2.367   3.768   6.601 -0.4126  0.5172  0.7304
 5114SOL    HW116241   2.303   3.793   6.528  1.0209  0.3064 -0.6465
 5114SOL    HW216242   2.458   3.805   6.579  0.4179 -0.9580  1.5740
 5115SOL     OW16243   7.014   4.254   6.371 -0.3017 -0.4357  0.0675
 5115SOL    HW116244   7.051   4.330   6.317  0.2886 -1.4407 -0.9728
 5115SOL    HW216245   7.086   4.216   6.429 -0.8654  0.4618  1.4260
 5116SOL     OW16246   7.019   3.893   1.553 -0.0861 -0.1645  0.1851
 5116SOL    HW116247   6.946   3.856   1.610  0.2580 -0.2363  0.5862
 5116SOL    HW216248   7.077   3.953   1.609  2.2736 -2.8521  0.8472
 5117SOL     OW16249   2.649   5.525   2.496 -0.1629  0.3539  0.1732
 5117SOL    HW116250   2.707   5.606   2.480 -0.5322  0.2012 -2.3832
 5117SOL    HW216251   2.684   5.448   2.443 -1.2200 -0.4831  0.6545
 5118SOL     OW16252   5.616   4.984   6.865 -0.5317  0.3249 -0.5586
 5118SOL    HW116253   5.637   4.919   6.937  1.5931  1.0174 -0.4799
 5118SOL    HW216254   5.564   4.938   6.793 -0.8829 -0.8951  0.4395
 5119SOL     OW16255   5.925   0.861   1.211 -0.0898 -0.4944 -0.3931
 5119SOL    HW116256   6.011   0.891   1.252  1.4940 -1.6480 -2.6742
 5119SOL    HW216257   5.892   0.930   1.147  0.3474 -0.9697 -1.1518
 5120SOL     OW16258   4.292   1.397   2.630  0.8764 -0.3057 -0.2553
 5120SOL    HW116259   4.194   1.408   2.616  0.9410 -0.8733 -1.3306
 5120SOL    HW216260   4.340   1.423   2.546  1.5497 -1.2359 -0.1693
 5121SOL     OW16261   6.669   4.432   5.886  0.1437  0.6969  0.5454
 5121SOL    HW116262   6.739   4.371   5.923 -0.4978  0.2767  1.1010
 5121SOL    HW216263   6.665   4.420   5.787  0.7010  0.5594  0.5340
 5122SOL     OW16264   2.029   6.013   3.420 -0.1784 -0.4980  0.6416
 5122SOL    HW116265   2.061   5.955   3.345 -1.0070 -0.4285  0.2184
 5122SOL    HW216266   2.081   6.099   3.420 -0.9808  0.0258 -0.6555
 5123SOL     OW16267   5.385   4.810   2.658  0.1451  0.4923 -0.1262
 5123SOL    HW116268   5.364   4.735   2.720 -0.9673 -0.6329 -1.7747
 5123SOL    HW216269   5.484   4.821   2.651  0.3663 -1.3655 -0.4165
 5124SOL     OW16270   3.879   0.710   0.046  0.1727 -0.2715 -0.1432
 5124SOL    HW116271   3.968   0.755   0.056 -0.6278  1.1754  0.7633
 5124SOL    HW216272   3.830   0.713   0.133 -1.4383  0.4732 -1.0211
 5125SOL     OW16273   0.650   3.865   3.453 -0.1535  0.1767  0.5085
 5125SOL    HW116274   0.571   3.824   3.408 -0.6328 -0.1199  1.5685
 5125SOL    HW216275   0.647   3.964   3.443  0.1229  0.0822 -0.6704
 5126SOL     OW16276   6.865   3.396   6.300 -0.2175 -0.3319 -0.2985
 5126SOL    HW116277   6.866   3.319   6.236  0.8380  0.0423 -0.7424
 5126SOL    HW216278   6.862   3.361   6.394 -0.8120 -0.8904 -0.5174
 5127SOL     OW16279   5.854   1.849   0.846 -0.2436  0.1717 -0.0042
 5127SOL    HW116280   5.810   1.907   0.915 -0.7044  0.7817 -0.7882
 5127SOL    HW216281   5.952   1.843   0.866 -0.4405 -0.0238  0.9474
 5128SOL     OW16282   1.847   3.564   5.524  0.2441 -0.6970 -0.0467
 5128SOL    HW116283   1.900   3.537   5.444 -0.0525 -1.1982 -0.0808
 5128SOL    HW216284   1.899   3.542   5.607  0.0836 -1.2088 -0.0788
 5129SOL     OW16285   6.790   0.156   2.345 -0.1255  0.5855  0.2237
 5129SOL    HW116286   6.882   0.167   2.308  0.0798 -0.5692  0.3741
 5129SOL    HW216287   6.743   0.245   2.343  0.5672  0.9519 -0.9481
 5130SOL     OW16288   0.568   4.225   4.690 -0.4462 -0.0386  0.7353
 5130SOL    HW116289   0.661   4.262   4.688 -1.3958  2.5870 -0.0141
 5130SOL    HW216290   0.554   4.166   4.610  0.1053  0.9484 -0.1204
 5131SOL     OW16291   2.548   6.033   2.858  0.2936  0.5715  0.1889
 5131SOL    HW116292   2.620   6.046   2.926  0.8139 -0.6060 -0.1002
 5131SOL    HW216293   2.460   6.057   2.897  0.4818 -0.7688  1.5518
 5132SOL     OW16294   3.155   1.584   1.099  0.0905 -0.4271  0.4950
 5132SOL    HW116295   3.076   1.623   1.051  1.1543  2.1632  0.6657
 5132SOL    HW216296   3.160   1.622   1.191  1.7512 -0.1846  0.3436
 5133SOL     OW16297   4.676   5.229   1.080  0.6631 -0.4879 -0.3493
 5133SOL    HW116298   4.654   5.206   0.985 -0.0553 -1.7738  0.1025
 5133SOL    HW216299   4.734   5.158   1.119  1.1823  0.1717  0.0974
 5134SOL     OW16300   6.475   5.941   1.389 -0.0306 -0.3934  0.6440
 5134SOL    HW116301   6.424   5.954   1.303 -1.1616  2.3034  1.6049
 5134SOL    HW216302   6.425   5.879   1.449 -0.9307  0.2373  0.5728
 5135SOL     OW16303   6.721   1.727   1.747  0.3953  0.1805  0.8181
 5135SOL    HW116304   6.745   1.800   1.684  0.5296 -0.3829  0.2139
 5135SOL    HW216305   6.799   1.665   1.759 -0.1364 -0.6035  0.3003
 5136SOL     OW16306   0.753   1.905   0.170 -0.3715 -0.4286 -0.6060
 5136SOL    HW116307   0.784   1.952   0.253 -0.6863 -1.0854 -0.1133
 5136SOL    HW216308   0.659   1.873   0.182  0.5718 -3.2555 -0.0202
 5137SOL     OW16309   4.642   6.500   6.889  0.0902  0.1989 -0.5655
 5137SOL    HW116310   4.587   6.545   6.959 -1.3741 -1.8015 -0.3264
 5137SOL    HW216311   4.581   6.453   6.824  1.4751 -1.6896 -0.5829
 5138SOL     OW16312   3.737   2.091   5.318  0.2076 -0.3526 -0.5912
 5138SOL    HW116313   3.800   2.138   5.256  0.9316 -0.3358  0.1539
 5138SOL    HW216314   3.751   2.123   5.411 -1.2058 -0.0275 -0.4601
 5139SOL     OW16315   1.741   1.791   5.492 -0.2652 -0.2679 -0.2696
 5139SOL    HW116316   1.743   1.713   5.555  1.8247  0.3265  0.4803
 5139SOL    HW216317   1.810   1.778   5.421  0.2053  0.9467 -0.0591
 5140SOL     OW16318   2.866   1.876   6.696  0.3448 -0.6602  0.2435
 5140SOL    HW116319   2.871   1.945   6.768 -1.6284  0.3833 -0.5515
 5140SOL    HW216320   2.928   1.901   6.622 -0.7195  0.5909 -0.2657
 5141SOL     OW16321   0.063   2.388   3.391 -0.3919 -0.1160  0.4217
 5141SOL    HW116322   0.159   2.377   3.366 -0.4630 -1.2091  0.6097
 5141SOL    HW216323   0.042   2.486   3.397  0.7446  0.1415  0.5341
 5142SOL     OW16324   5.914   1.147   3.751  0.1384 -0.0952  0.2889
 5142SOL    HW116325   5.926   1.134   3.653  0.6944  2.1746  0.0098
 5142SOL    HW216326   5.824   1.114   3.778 -0.0433 -0.6982 -0.9744
 5143SOL     OW16327   0.178   4.314   5.010 -0.1516  0.1487  0.4902
 5143SOL    HW116328   0.215   4.383   5.073  0.8374  0.8955 -0.8344
 5143SOL    HW216329   0.134   4.361   4.932 -2.2547 -0.7379  1.0656
 5144SOL     OW16330   2.085   2.698   0.719  0.2277 -0.2218  0.1223
 5144SOL    HW116331   2.168   2.739   0.679 -0.2566  0.1191 -0.5560
 5144SOL    HW216332   2.015   2.768   0.728 -0.4162 -0.7725 -0.4967
 5145SOL     OW16333   2.300   5.886   1.554  0.0507 -0.3452  0.4336
 5145SOL    HW116334   2.355   5.969   1.551 -0.8797  0.2575 -0.5040
 5145SOL    HW216335   2.304   5.847   1.646  0.4836  0.7511  0.8977
 5146SOL     OW16336   6.339   5.686   5.165  0.9118  0.3187 -0.3230
 5146SOL    HW116337   6.307   5.665   5.257  0.7618  3.1712  0.3495
 5146SOL    HW216338   6.306   5.615   5.102 -1.4997 -0.1750  1.3360
 5147SOL     OW16339   4.840   2.538   3.790  0.8564 -0.3207 -0.4551
 5147SOL    HW116340   4.816   2.573   3.699 -0.7439 -1.6464 -0.5924
 5147SOL    HW216341   4.852   2.439   3.785  0.6592 -0.4187  0.8099
 5148SOL     OW16342   0.413   6.304   1.176  0.3852  0.3885 -0.3138
 5148SOL    HW116343   0.509   6.318   1.151  0.3452  0.1385 -0.6187
 5148SOL    HW216344   0.403   6.312   1.275  0.1387  3.8215 -0.5058
 5149SOL     OW16345   7.017   3.897   2.690  0.3457 -0.3916  0.3165
 5149SOL    HW116346   7.100   3.908   2.745 -0.5100 -0.8302  1.7203
 5149SOL    HW216347   7.037   3.923   2.595  1.9995 -0.1943  0.6905
 5150SOL     OW16348   1.034   0.306   5.048 -0.3860  0.1501  0.4112
 5150SOL    HW116349   1.023   0.212   5.083 -2.6037  0.4040  0.5361
 5150SOL    HW216350   1.003   0.310   4.953  2.5229  0.1837 -0.6440
 5151SOL     OW16351   6.901   5.844   1.466  0.2134 -0.3859 -0.3811
 5151SOL    HW116352   6.845   5.763   1.451  1.1215 -0.9131 -1.0523
 5151SOL    HW216353   6.847   5.914   1.514 -1.0473 -0.7984 -1.1529
 5152SOL     OW16354   6.694   2.860   6.138  0.4669  1.3310 -0.1953
 5152SOL    HW116355   6.711   2.817   6.049 -1.9534 -0.0517 -0.0846
 5152SOL    HW216356   6.606   2.908   6.135  0.3775  1.3246  1.4334
 5153SOL     OW16357   0.239   0.702   0.526 -0.0090 -0.0551  0.5539
 5153SOL    HW116358   0.190   0.732   0.608 -0.6494 -1.0096  0.5406
 5153SOL    HW216359   0.174   0.660   0.462  0.6302 -0.1573 -0.0399
 5154SOL     OW16360   0.010   2.950   5.971  0.0127 -0.1960  0.4691
 5154SOL    HW116361   0.019   2.952   6.071 -1.5198 -0.2692  0.6321
 5154SOL    HW216362  -0.080   2.985   5.945  0.6482  0.4721 -0.9453
 5155SOL     OW16363   2.590   6.613   6.586 -0.2504 -0.3848  0.1597
 5155SOL    HW116364   2.663   6.665   6.630 -0.3537  0.6119 -0.8101
 5155SOL    HW216365   2.506   6.621   6.640 -0.2478  0.3994  0.0517
 5156SOL     OW16366   4.693   4.849   3.794  0.0657  0.6693  0.7470
 5156SOL    HW116367   4.714   4.801   3.708  1.3953  2.9327 -0.2771
 5156SOL    HW216368   4.616   4.911   3.780 -1.5749 -0.9494  2.0354
 5157SOL     OW16369   6.199   1.500   2.237  0.2232  0.1150  0.0869
 5157SOL    HW116370   6.295   1.522   2.224 -0.0331  1.3770  0.1999
 5157SOL    HW216371   6.178   1.496   2.334 -0.0367  0.7869  0.0623
 5158SOL     OW16372   4.772   2.761   2.058 -0.3389  0.0747  0.2213
 5158SOL    HW116373   4.765   2.856   2.090  0.1516  0.8300 -1.7398
 5158SOL    HW216374   4.790   2.761   1.960  2.5462 -1.9997  0.6228
 5159SOL     OW16375   5.728   4.297   0.044 -0.2610  0.1655  0.1542
 5159SOL    HW116376   5.778   4.211   0.032  0.8995  0.3826  2.7677
 5159SOL    HW216377   5.773   4.370  -0.008  0.9708 -0.0641  0.8700
 5160SOL     OW16378   5.862   6.181   1.929 -0.2626 -0.0073 -0.2554
 5160SOL    HW116379   5.943   6.145   1.976  1.2153  3.0730 -0.2122
 5160SOL    HW216380   5.783   6.178   1.991  0.3757 -0.8264  0.5528
 5161SOL     OW16381   5.724   4.007   0.881  0.2487 -0.5459 -0.2072
 5161SOL    HW116382   5.634   4.039   0.852 -0.0709  0.1548  1.4160
 5161SOL    HW216383   5.781   4.086   0.903  0.6133 -1.0297  0.6109
 5162SOL     OW16384   6.622   6.762   4.990 -0.5049  0.0779 -0.5785
 5162SOL    HW116385   6.587   6.786   4.900  1.3355  0.5799 -1.1956
 5162SOL    HW216386   6.700   6.699   4.981 -0.2315  0.2027  0.6458
 5163SOL     OW16387   3.281   5.317   1.738  0.5240 -0.5118 -0.4842
 5163SOL    HW116388   3.193   5.271   1.726 -0.9800  2.0180  0.0464
 5163SOL    HW216389   3.300   5.375   1.659  1.0411 -0.0229 -0.0195
 5164SOL     OW16390   3.664   4.494   0.359 -0.2083  0.3374 -0.0792
 5164SOL    HW116391   3.723   4.439   0.299 -3.5189 -0.8045 -2.5522
 5164SOL    HW216392   3.689   4.476   0.454  1.3503 -2.5219 -0.9058
 5165SOL     OW16393   6.640   3.354   5.892  0.0166 -0.5425 -1.4425
 5165SOL    HW116394   6.727   3.354   5.843  0.6827 -1.2975 -0.2888
 5165SOL    HW216395   6.620   3.447   5.924  0.6940 -0.4784 -1.1945
 5166SOL     OW16396   1.320   6.606   0.689 -0.1427  0.6218  0.4515
 5166SOL    HW116397   1.286   6.638   0.600  0.5685  0.4406  0.1020
 5166SOL    HW216398   1.369   6.520   0.676 -1.4414 -0.2690  1.2807
 5167SOL     OW16399   5.176   3.485   5.296  0.3610  0.2137 -0.0476
 5167SOL    HW116400   5.095   3.524   5.340  0.2178  0.1633 -0.2662
 5167SOL    HW216401   5.148   3.430   5.218  0.6059  0.1826 -0.1129
 5168SOL     OW16402   4.660   2.528   2.009 -0.0044  0.0827 -0.1983
 5168SOL    HW116403   4.727   2.453   2.009 -1.0338 -0.8879 -1.2539
 5168SOL    HW216404   4.703   2.611   2.045  1.6314 -0.6156 -0.4245
 5169SOL     OW16405   6.040   0.738   4.001  0.0989 -0.0652  0.1799
 5169SOL    HW116406   6.128   0.710   4.039 -0.5846 -0.0828  1.8740
 5169SOL    HW216407   6.043   0.836   3.979  0.1258  0.2811  1.6169
 5170SOL     OW16408   1.599   3.327   5.814  0.4622  0.5646  0.1316
 5170SOL    HW116409   1.586   3.241   5.862 -1.9010  0.6748 -0.2003
 5170SOL    HW216410   1.668   3.382   5.862 -0.7776  0.0973  2.6047
 5171SOL     OW16411   1.062   6.998   5.649  0.1168 -0.5307  0.4082
 5171SOL    HW116412   1.151   7.035   5.675 -0.4650  0.2569  1.3749
 5171SOL    HW216413   1.067   6.898   5.645  0.3386 -0.7383  3.4332
 5172SOL     OW16414   6.637   5.862   2.083 -0.2478 -0.1986  0.0664
 5172SOL    HW116415   6.662   5.946   2.131 -2.2725  1.3732 -1.4298
 5172SOL    HW216416   6.602   5.796   2.149 -1.3821  1.2523  0.9946
 5173SOL     OW16417   4.348   3.845   6.176 -0.8642 -0.0025 -0.1498
 5173SOL    HW116418   4.398   3.758   6.183 -2.9220 -1.2114  0.4782
 5173SOL    HW216419   4.380   3.895   6.096  0.2851 -1.4134 -0.6224
 5174SOL     OW16420   3.495   0.303   2.892 -0.1548  0.0651  0.0784
 5174SOL    HW116421   3.409   0.262   2.862 -0.5741  0.7415  0.3340
 5174SOL    HW216422   3.492   0.317   2.991  1.3124 -2.3872  0.5559
 5175SOL     OW16423   3.465   6.272   6.330  0.8824  0.1165 -0.6742
 5175SOL    HW116424   3.398   6.342   6.303  0.6968 -0.5334 -1.9894
 5175SOL    HW216425   3.423   6.181   6.323  2.2434 -0.4161 -2.8226
 5176SOL     OW16426   5.519   5.254   6.572 -0.3850  0.2149 -0.3974
 5176SOL    HW116427   5.544   5.338   6.525 -2.3230  0.2931 -1.3853
 5176SOL    HW216428   5.532   5.267   6.671  0.8384  1.1035 -0.6508
 5177SOL     OW16429   4.592   0.510   1.002 -0.2733 -0.2398  0.2264
 5177SOL    HW116430   4.535   0.549   1.074 -0.1703  0.5227 -0.0844
 5177SOL    HW216431   4.678   0.478   1.040 -0.3917 -0.2207  0.5084
 5178SOL     OW16432   1.239   5.031   2.466  0.1605 -0.4368  0.0826
 5178SOL    HW116433   1.293   5.111   2.494  0.1311 -0.1914 -0.5321
 5178SOL    HW216434   1.142   5.050   2.480  0.0667  0.1105 -1.1657
 5179SOL     OW16435   6.459   5.251   2.937  0.3777 -0.2542  0.3003
 5179SOL    HW116436   6.491   5.161   2.909 -2.4202 -1.5766  0.9684
 5179SOL    HW216437   6.404   5.243   3.020  0.4218  2.1470  0.6298
 5180SOL     OW16438   3.254   0.739   2.519  0.3091 -0.3833  0.1356
 5180SOL    HW116439   3.336   0.795   2.516  0.1332 -0.1589 -1.2839
 5180SOL    HW216440   3.255   0.682   2.601  0.3911  1.8065  1.7555
 5181SOL     OW16441   5.985   0.047   5.562  0.0394 -0.1262 -0.2968
 5181SOL    HW116442   6.018   0.056   5.468  0.9653 -1.7980 -0.1705
 5181SOL    HW216443   5.940  -0.042   5.572 -0.4171  0.2105  0.7555
 5182SOL     OW16444   5.091   0.106   4.266  0.0631 -0.1419 -0.3923
 5182SOL    HW116445   5.112   0.161   4.184 -0.7084  0.2792 -0.3139
 5182SOL    HW216446   5.169   0.047   4.286  1.6880  2.1619  0.5486
 5183SOL     OW16447   4.273   0.533   3.792 -0.0564  0.5892  0.6256
 5183SOL    HW116448   4.357   0.586   3.800 -0.1583  1.0215 -0.9310
 5183SOL    HW216449   4.219   0.565   3.714 -1.3114 -0.1826  1.1270
 5184SOL     OW16450   3.924   0.560   3.511  0.5100 -0.2331  0.0163
 5184SOL    HW116451   3.913   0.469   3.552  0.8394 -0.4455 -0.3563
 5184SOL    HW216452   3.838   0.610   3.518 -0.1453 -1.1408 -1.1243
 5185SOL     OW16453   4.330   0.090   1.981  0.2227 -0.5499 -0.4168
 5185SOL    HW116454   4.427   0.110   1.996  0.0492  0.2203 -0.3198
 5185SOL    HW216455   4.322   0.015   1.914  0.8668 -0.0303 -1.0933
 5186SOL     OW16456   6.574   2.354   0.297 -0.2702  0.2828  0.3545
 5186SOL    HW116457   6.602   2.268   0.256 -1.9903 -0.5729  0.8608
 5186SOL    HW216458   6.478   2.373   0.273  0.2336  2.3742 -0.2413
 5187SOL     OW16459   0.878   4.287   6.389 -0.7218  0.0079  0.0330
 5187SOL    HW116460   0.918   4.378   6.407  1.5510 -0.6524 -1.2629
 5187SOL    HW216461   0.812   4.294   6.315 -0.3334  0.5787 -0.2711
 5188SOL     OW16462   6.407   0.944   0.291 -0.1383  0.5057  0.6470
 5188SOL    HW116463   6.421   1.043   0.286  0.3417  0.4352  0.5759
 5188SOL    HW216464   6.465   0.906   0.362 -0.3545  0.2785  0.7028
 5189SOL     OW16465   5.304   2.129   0.205 -0.4751  0.2310  0.5779
 5189SOL    HW116466   5.236   2.202   0.209 -1.4380 -0.6621  0.8752
 5189SOL    HW216467   5.355   2.135   0.119  0.0278  1.7406  0.9646
 5190SOL     OW16468   1.813   3.728   0.328 -0.3182  0.0009  0.5029
 5190SOL    HW116469   1.809   3.715   0.229 -2.9572 -0.3797  0.5706
 5190SOL    HW216470   1.852   3.647   0.371 -0.4296 -0.4073 -0.1501
 5191SOL     OW16471   4.359   4.811   4.342  0.7151 -0.2817  0.3976
 5191SOL    HW116472   4.387   4.892   4.394  1.1174 -0.5462  0.5965
 5191SOL    HW216473   4.360   4.731   4.402 -1.7170 -0.1043  0.7530
 5192SOL     OW16474   2.784   4.948   3.197  0.2235  0.3726  0.2119
 5192SOL    HW116475   2.736   5.012   3.138 -1.4522 -0.4241  0.6466
 5192SOL    HW216476   2.727   4.867   3.212  1.6403 -0.5416  0.9176
 5193SOL     OW16477   5.200   7.000   5.132  0.0780 -0.0525  0.4406
 5193SOL    HW116478   5.114   7.031   5.092 -0.4174  3.7307  3.8317
 5193SOL    HW216479   5.182   6.927   5.198 -0.2773 -0.3666  0.0005
 5194SOL     OW16480   4.272   2.845   0.389 -0.3481  0.3062  0.4442
 5194SOL    HW116481   4.279   2.944   0.376 -2.8420  0.5118  0.0788
 5194SOL    HW216482   4.336   2.798   0.328  0.4884  1.6795  0.2379
 5195SOL     OW16483   6.786   6.373   2.717 -0.3885 -0.0394  0.4122
 5195SOL    HW116484   6.768   6.462   2.758  0.2977  0.3608 -0.1260
 5195SOL    HW216485   6.716   6.307   2.747 -1.4660  0.9093  0.0557
 5196SOL     OW16486   4.456   6.784   0.764 -0.1622  0.2816  0.1380
 5196SOL    HW116487   4.467   6.781   0.863  0.2893  2.0747  0.1814
 5196SOL    HW216488   4.546   6.787   0.720 -0.2550  3.4044 -0.0751
 5197SOL     OW16489   0.510   5.842   5.449 -0.4389  0.1012  0.7233
 5197SOL    HW116490   0.582   5.859   5.383  0.1420 -1.7439  0.8106
 5197SOL    HW216491   0.421   5.852   5.406 -0.0724 -0.5320 -0.2057
 5198SOL     OW16492   5.349   6.007   2.156 -0.0067  0.2434  0.0438
 5198SOL    HW116493   5.373   5.963   2.069  0.8117 -2.4483  1.5312
 5198SOL    HW216494   5.424   6.065   2.186  0.6480 -0.5788  0.0189
 5199SOL     OW16495   0.662   6.915   1.512  0.3326 -0.1796 -0.5478
 5199SOL    HW116496   0.582   6.857   1.526  0.6486 -0.5188 -0.1384
 5199SOL    HW216497   0.648   7.003   1.557  0.3396 -0.3760 -0.1578
 5200SOL     OW16498   6.081   4.382   0.031  0.1489 -0.1586  0.8649
 5200SOL    HW116499   6.089   4.320   0.108  1.1610  0.3191  1.1571
 5200SOL    HW216500   6.084   4.330  -0.055 -0.9964 -0.6884  1.1287
 5201SOL     OW16501   1.616   6.712   3.054 -0.2069 -0.1669  0.0385
 5201SOL    HW116502   1.561   6.748   3.129 -1.1577  0.7322 -1.0412
 5201SOL    HW216503   1.662   6.628   3.083 -1.4806 -0.4870  1.2431
 5202SOL     OW16504   6.533   5.073   0.937 -0.1258  0.3311  0.3823
 5202SOL    HW116505   6.578   5.077   0.848 -0.2840  0.1713  0.2954
 5202SOL    HW216506   6.544   4.982   0.976 -0.5971  0.2156  0.2443
 5203SOL     OW16507   1.414   4.221   1.461 -0.3050  0.6081 -0.0491
 5203SOL    HW116508   1.452   4.228   1.553  0.9650 -1.2002 -0.3710
 5203SOL    HW216509   1.478   4.261   1.395 -0.7114  0.9226 -0.2601
 5204SOL     OW16510   4.292   5.464   6.496 -0.7067  0.3050 -0.4525
 5204SOL    HW116511   4.333   5.492   6.409  0.0389  1.3449  0.2196
 5204SOL    HW216512   4.280   5.365   6.496 -0.2771  0.2383 -1.5496
 5205SOL     OW16513   3.863   6.889   6.038 -0.4240  0.0350 -0.1473
 5205SOL    HW116514   3.850   6.968   5.977 -0.2998  0.5660  0.5073
 5205SOL    HW216515   3.897   6.920   6.127  0.4742 -0.8413 -0.1630
 5206SOL     OW16516   1.053   4.205   0.076 -0.2810  0.2247 -0.0676
 5206SOL    HW116517   1.074   4.112   0.108 -0.6998 -0.5015 -1.7577
 5206SOL    HW216518   1.116   4.270   0.117 -2.1603 -0.2179  3.9902
 5207SOL     OW16519   1.622   5.079   3.458  0.2350 -0.0822 -0.5875
 5207SOL    HW116520   1.702   5.084   3.517  0.1970 -1.3332 -0.4096
 5207SOL    HW216521   1.626   5.153   3.391  1.8645 -0.4963 -0.9887
 5208SOL     OW16522   4.359   6.513   6.127  0.0490 -0.3082  0.1190
 5208SOL    HW116523   4.442   6.497   6.074  0.0912 -2.4612  0.7218
 5208SOL    HW216524   4.348   6.611   6.143  0.5309  0.3430 -2.9688
 5209SOL     OW16525   1.473   6.449   2.589 -0.3549  0.0367  0.4938
 5209SOL    HW116526   1.431   6.512   2.524  1.5130  0.3934 -0.4504
 5209SOL    HW216527   1.508   6.500   2.667  1.3661  0.2701 -0.3812
 5210SOL     OW16528   4.984   4.315   4.129 -0.1074  0.2915  0.4694
 5210SOL    HW116529   4.967   4.392   4.190  1.0712 -0.4467  1.7826
 5210SOL    HW216530   4.897   4.279   4.095 -0.7344  1.1988  1.0851
 5211SOL     OW16531   3.015   3.761   4.257 -0.1619 -0.1692  0.7812
 5211SOL    HW116532   3.038   3.679   4.204 -0.9144  0.4959 -0.6260
 5211SOL    HW216533   2.989   3.835   4.195 -1.6558  0.4774  2.0910
 5212SOL     OW16534   6.477   0.966   1.972  0.1006 -0.4153  0.4598
 5212SOL    HW116535   6.401   0.946   2.035 -0.2186  0.6685  0.4387
 5212SOL    HW216536   6.564   0.943   2.016 -0.0605  1.1055  1.6603
 5213SOL     OW16537   4.130   1.802   4.884  1.0987 -0.2780 -0.0287
 5213SOL    HW116538   4.153   1.712   4.922 -0.8298 -0.6566  0.3327
 5213SOL    HW216539   4.173   1.874   4.940  1.1515 -0.9299  0.7907
 5214SOL     OW16540   5.803   1.836   4.070 -0.0949 -0.3966 -0.6983
 5214SOL    HW116541   5.855   1.874   4.146 -0.8631 -0.2695 -0.2209
 5214SOL    HW216542   5.721   1.790   4.106 -0.0680 -1.0038 -1.3935
 5215SOL     OW16543   5.194   5.395   2.885 -0.2813  0.0412  0.7009
 5215SOL    HW116544   5.142   5.387   2.800 -0.1408  1.1867  0.4933
 5215SOL    HW216545   5.140   5.358   2.961 -0.5046 -0.7673  0.1677
 5216SOL     OW16546   6.543   4.011   0.955  0.2232 -0.1395  0.0056
 5216SOL    HW116547   6.526   3.918   0.988 -1.1039 -0.0002 -0.2598
 5216SOL    HW216548   6.458   4.063   0.955  0.8886  0.9844 -0.1700
 5217SOL     OW16549   2.423   4.396   4.859 -0.0992 -0.5685  0.7527
 5217SOL    HW116550   2.452   4.491   4.871 -2.0027  0.3162 -0.9613
 5217SOL    HW216551   2.397   4.357   4.947  1.6954  0.1150  1.6269
 5218SOL     OW16552   1.119   4.590   4.975  0.4333  0.4493  0.0968
 5218SOL    HW116553   1.177   4.633   4.905 -0.4898  0.2402 -0.8288
 5218SOL    HW216554   1.151   4.617   5.066  0.7880  1.9003 -0.4282
 5219SOL     OW16555   3.724   1.093   6.826 -0.4561 -0.6829  0.6305
 5219SOL    HW116556   3.637   1.116   6.781  0.2626 -0.1003 -0.5091
 5219SOL    HW216557   3.708   1.023   6.895 -1.7431 -1.0091  0.0323
 5220SOL     OW16558   1.118   6.354   2.994  0.5511  0.3674 -0.1438
 5220SOL    HW116559   1.182   6.418   3.036 -0.6065  0.8658  0.9279
 5220SOL    HW216560   1.066   6.400   2.923  0.6944  0.2288 -0.3400
 5221SOL     OW16561   3.874   1.647   4.194  0.5383  0.1123 -0.1087
 5221SOL    HW116562   3.859   1.563   4.246  2.0900 -0.6122 -0.7973
 5221SOL    HW216563   3.905   1.719   4.256  1.5879 -0.5200  0.1303
 5222SOL     OW16564   3.070   1.212   4.672 -0.1200 -0.4125  0.3555
 5222SOL    HW116565   2.987   1.163   4.647 -1.5765  1.7899  0.5874
 5222SOL    HW216566   3.108   1.258   4.591 -0.8906  1.0436  0.7842
 5223SOL     OW16567   4.548   5.894   1.474 -0.4723  0.1551  0.2148
 5223SOL    HW116568   4.574   5.802   1.445  3.8751  1.3338 -0.3649
 5223SOL    HW216569   4.495   5.889   1.559  0.7510 -2.8367  0.9196
 5224SOL     OW16570   6.675   3.682   0.858 -0.3302  0.1287  0.1022
 5224SOL    HW116571   6.752   3.740   0.834 -2.8655  3.5374 -0.4535
 5224SOL    HW216572   6.608   3.682   0.783 -1.7914 -1.1000  1.3330
 5225SOL     OW16573   6.831   6.430   3.796 -0.0995 -0.4670  0.2271
 5225SOL    HW116574   6.764   6.365   3.830  0.0420 -0.4992  0.4425
 5225SOL    HW216575   6.907   6.381   3.753  0.7803 -0.5171  1.7752
 5226SOL     OW16576   0.548   6.507   3.515  0.1011 -0.7897  0.3823
 5226SOL    HW116577   0.555   6.582   3.450  0.1101 -2.2341 -1.3502
 5226SOL    HW216578   0.465   6.455   3.497  0.8786 -2.1156  0.5083
 5227SOL     OW16579   1.074   3.712   5.195  0.5902  0.4139  0.4290
 5227SOL    HW116580   1.017   3.630   5.190 -0.5356  1.0942  1.5325
 5227SOL    HW216581   1.168   3.686   5.220  0.6979 -0.6828 -1.0169
 5228SOL     OW16582   6.221   1.638   2.839 -0.3664 -0.2185  0.4160
 5228SOL    HW116583   6.248   1.709   2.904  0.5011 -0.8056  0.7137
 5228SOL    HW216584   6.266   1.552   2.863 -0.4145 -0.5612 -0.6709
 5229SOL     OW16585   6.588   2.754   0.722  0.0659 -0.2768  0.1842
 5229SOL    HW116586   6.662   2.718   0.779 -0.9625 -0.0989  1.6709
 5229SOL    HW216587   6.544   2.830   0.769 -0.6599  0.0398 -0.9737
 5230SOL     OW16588   0.502   6.774   7.002 -0.3808 -0.5198 -0.0722
 5230SOL    HW116589   0.591   6.749   7.040 -1.4199 -1.5181  1.8813
 5230SOL    HW216590   0.499   6.872   6.987  0.9737 -0.4379  0.0384
 5231SOL     OW16591   3.299   3.537   3.612 -0.3044  0.3234  0.4497
 5231SOL    HW116592   3.376   3.473   3.614 -0.8303 -0.4136 -1.1530
 5231SOL    HW216593   3.309   3.604   3.685 -0.7993 -2.8034  3.6279
 5232SOL     OW16594   4.371   3.794   0.318 -0.3533 -0.0837  0.0080
 5232SOL    HW116595   4.416   3.742   0.391  0.0017  1.4439  0.9156
 5232SOL    HW216596   4.440   3.842   0.264 -0.7704  1.3011  0.6543
 5233SOL     OW16597   5.084   5.681   3.610  0.2273 -0.1572  0.1431
 5233SOL    HW116598   5.131   5.724   3.687  1.7586  1.0431 -1.3825
 5233SOL    HW216599   5.069   5.584   3.630 -1.2410  0.4985  2.7273
 5234SOL     OW16600   4.597   6.133   0.028 -0.1417 -0.0547 -0.0838
 5234SOL    HW116601   4.622   6.045   0.067 -0.7180 -0.4870 -0.6648
 5234SOL    HW216602   4.675   6.170  -0.024  0.8028  0.7578  1.8097
 5235SOL     OW16603   1.446   3.805   0.785 -0.7420  0.1936  0.0630
 5235SOL    HW116604   1.474   3.890   0.739  0.8965 -0.9197 -1.1083
 5235SOL    HW216605   1.528   3.752   0.809 -1.7539 -1.5773 -0.2616
 5236SOL     OW16606   5.779   4.203   0.371 -0.0364 -0.0395 -0.4460
 5236SOL    HW116607   5.869   4.173   0.402 -0.1780  0.3063  0.3330
 5236SOL    HW216608   5.786   4.294   0.331 -0.2690  0.6862  1.0784
 5237SOL     OW16609   4.071   1.913   5.466  0.2676  0.1045 -0.0628
 5237SOL    HW116610   4.012   1.889   5.390 -0.7998  0.4137  0.6379
 5237SOL    HW216611   4.026   1.889   5.552  1.3687 -0.0790  0.4780
 5238SOL     OW16612   1.743   4.900   1.648  0.0365  0.0925 -0.0451
 5238SOL    HW116613   1.712   4.864   1.737  0.6794 -2.3398 -0.7124
 5238SOL    HW216614   1.839   4.928   1.656  0.5907 -1.6080 -0.2856
 5239SOL     OW16615   4.120   3.520   5.484 -0.4077  0.6722  0.1541
 5239SOL    HW116616   4.053   3.594   5.481 -0.0832  0.9917  0.7096
 5239SOL    HW216617   4.183   3.534   5.560 -0.5934 -0.3974  0.5230
 5240SOL     OW16618   2.647   0.684   5.885  0.1794  0.6852 -0.2447
 5240SOL    HW116619   2.660   0.587   5.905 -1.2804  0.0455 -2.1002
 5240SOL    HW216620   2.668   0.738   5.966 -0.6619 -1.2984  1.3822
 5241SOL     OW16621   5.748   5.758   1.484 -0.2826  0.0972 -0.6634
 5241SOL    HW116622   5.664   5.796   1.523  0.3486  0.2728  0.5542
 5241SOL    HW216623   5.725   5.701   1.405 -1.7254 -1.3682  0.7472
 5242SOL     OW16624   5.472   1.608   6.085 -0.4188  0.2090  0.5946
 5242SOL    HW116625   5.506   1.668   6.012 -1.5742  0.4270  0.2170
 5242SOL    HW216626   5.410   1.540   6.046  0.8977 -1.3038  1.0079
 5243SOL     OW16627   1.591   5.695   1.316  0.0341 -0.0111 -0.4071
 5243SOL    HW116628   1.506   5.716   1.269 -0.2572 -0.6142 -0.1658
 5243SOL    HW216629   1.665   5.689   1.250 -0.3135 -0.5354 -0.7542
 5244SOL     OW16630   5.324   5.368   5.394 -0.0567 -0.5724 -0.1178
 5244SOL    HW116631   5.298   5.380   5.490  1.3092  1.5154  0.0682
 5244SOL    HW216632   5.423   5.364   5.387 -0.1678 -1.6918 -1.3853
 5245SOL     OW16633   3.038   4.017   5.053  0.0277  0.7820 -0.2038
 5245SOL    HW116634   2.982   3.983   4.977 -0.3569  1.8311 -0.4167
 5245SOL    HW216635   2.980   4.029   5.133  0.7176 -1.7993  0.7854
 5246SOL     OW16636   0.266   1.086   3.582 -0.4814  0.1164 -0.8953
 5246SOL    HW116637   0.282   0.989   3.564  1.7431  0.5506 -1.6436
 5246SOL    HW216638   0.268   1.137   3.495  4.4925  1.5077 -0.2737
 5247SOL     OW16639   6.564   5.744   0.621 -0.3909 -0.1001  0.0545
 5247SOL    HW116640   6.614   5.663   0.591 -1.4110 -0.6398 -0.2227
 5247SOL    HW216641   6.504   5.776   0.548 -0.1751  0.7731  0.2421
 5248SOL     OW16642   5.322   1.877   6.029 -0.0415  0.3353 -0.7063
 5248SOL    HW116643   5.231   1.857   5.993  1.1106 -2.1814 -2.5686
 5248SOL    HW216644   5.357   1.798   6.078  1.5532  0.8572 -0.9363
 5249SOL     OW16645   6.981   4.437   5.664 -0.2326 -0.1382  0.4655
 5249SOL    HW116646   6.889   4.407   5.638 -0.0769 -1.4198  1.3132
 5249SOL    HW216647   7.024   4.366   5.719  0.3621  1.4639  2.1217
 5250SOL     OW16648   1.165   2.315   0.977 -0.0745 -0.4276 -0.6243
 5250SOL    HW116649   1.119   2.248   0.918  0.1060  0.0852 -1.3587
 5250SOL    HW216650   1.228   2.370   0.922 -0.7025  0.7806 -0.1697
 5251SOL     OW16651   5.470   2.708   1.357 -0.5306 -0.4984 -0.5323
 5251SOL    HW116652   5.539   2.664   1.414 -1.2229 -0.7487  0.1256
 5251SOL    HW216653   5.379   2.687   1.392 -0.8842  1.8706  0.1609
 5252SOL     OW16654   2.373   5.093   1.208  0.3498 -0.8077  0.6355
 5252SOL    HW116655   2.472   5.106   1.204  0.2068  0.4422  0.8230
 5252SOL    HW216656   2.353   5.014   1.266  1.2029 -0.5020  1.3752
 5253SOL     OW16657   0.221   2.689   5.573  0.4272 -0.5214  0.3529
 5253SOL    HW116658   0.317   2.714   5.576  0.2268  0.3062  0.0074
 5253SOL    HW216659   0.171   2.737   5.645  0.1724 -0.5318  0.1843
 5254SOL     OW16660   4.751   0.845   4.648 -0.1485  0.0216  0.2300
 5254SOL    HW116661   4.667   0.844   4.702 -0.3189 -0.0759 -0.0327
 5254SOL    HW216662   4.731   0.813   4.555  0.1801 -0.0093  0.1687
 5255SOL     OW16663   2.755   6.840   4.828 -0.6953 -0.4241  0.2525
 5255SOL    HW116664   2.688   6.840   4.753 -0.9744  2.5070  0.4208
 5255SOL    HW216665   2.708   6.818   4.914 -0.6614 -2.2103 -0.1455
 5256SOL     OW16666   5.404   1.661   3.258  0.2086  0.5911  0.5362
 5256SOL    HW116667   5.325   1.721   3.252 -0.5681 -0.3795  0.7818
 5256SOL    HW216668   5.380   1.570   3.225  0.8189 -0.0819  1.8463
 5257SOL     OW16669   2.724   0.099   6.788  0.2578  0.3393  0.4770
 5257SOL    HW116670   2.740   0.063   6.880  0.3672  0.2712  0.4318
 5257SOL    HW216671   2.645   0.160   6.789  1.9269  2.6229  1.2077
 5258SOL     OW16672   3.821   5.541   1.826 -0.7898  0.1076  0.0259
 5258SOL    HW116673   3.817   5.639   1.845  0.6163  0.0366  0.8356
 5258SOL    HW216674   3.774   5.491   1.899 -0.4965  0.1275  0.2302
 5259SOL     OW16675   4.548   6.536   4.401 -0.4673 -0.2324  0.5819
 5259SOL    HW116676   4.537   6.553   4.499  2.0328  4.0558  0.3714
 5259SOL    HW216677   4.605   6.455   4.387 -1.5508 -1.4064  2.5827
 5260SOL     OW16678   6.533   3.431   0.477  0.7058  0.3021  0.0472
 5260SOL    HW116679   6.482   3.420   0.392 -0.6640 -0.3722  0.9234
 5260SOL    HW216680   6.621   3.384   0.470 -0.2886 -1.5704 -0.2622
 5261SOL     OW16681   0.545   1.365   4.739 -0.2741 -0.7327 -0.4187
 5261SOL    HW116682   0.557   1.270   4.712 -1.5975 -1.0613  0.0752
 5261SOL    HW216683   0.608   1.387   4.814  0.6578 -0.9397 -1.1185
 5262SOL     OW16684   3.665   0.668   3.558  0.0305 -0.1025  0.0380
 5262SOL    HW116685   3.625   0.748   3.513  1.3557  0.5949  0.0630
 5262SOL    HW216686   3.603   0.590   3.548 -1.2643  0.9055 -0.0201
 5263SOL     OW16687   0.263   1.475   6.316 -0.2966 -0.1456 -0.4354
 5263SOL    HW116688   0.284   1.450   6.411  1.0000  0.0671 -0.6521
 5263SOL    HW216689   0.254   1.574   6.309 -1.4398 -0.2259 -0.3531
 5264SOL     OW16690   6.991   0.782   0.053  0.4752  0.4059  0.0496
 5264SOL    HW116691   6.979   0.695   0.004  0.1884  0.6167 -0.2603
 5264SOL    HW216692   7.046   0.844  -0.002  1.5997  0.0432  0.7429
 5265SOL     OW16693   6.245   5.401   1.371  0.2540  1.1091  0.2016
 5265SOL    HW116694   6.247   5.431   1.276 -1.6810 -0.7164 -0.5082
 5265SOL    HW216695   6.152   5.413   1.407  0.3305 -0.4809  1.0260
 5266SOL     OW16696   2.035   6.474   2.116 -0.4207 -0.6379  0.2141
 5266SOL    HW116697   1.954   6.494   2.060  0.9226 -1.2017 -2.0752
 5266SOL    HW216698   2.092   6.556   2.123 -0.6597 -0.5291  0.9006
 5267SOL     OW16699   4.753   6.112   5.975  0.2162  0.6087 -0.0619
 5267SOL    HW116700   4.670   6.154   6.011  0.3534  0.6584  0.1976
 5267SOL    HW216701   4.751   6.116   5.875 -1.2624 -1.6018 -0.2014
 5268SOL     OW16702   5.789   5.888   5.806 -0.2988 -0.2269 -0.0848
 5268SOL    HW116703   5.694   5.857   5.805 -0.0235 -1.1237 -0.7051
 5268SOL    HW216704   5.793   5.988   5.798 -1.2113 -0.0408  1.4729
 5269SOL     OW16705   2.261   4.144   3.105  0.1665  0.1169 -0.0038
 5269SOL    HW116706   2.333   4.160   3.173  0.1168  0.3039  0.0060
 5269SOL    HW216707   2.297   4.162   3.014  0.7129 -1.7127 -0.1778
 5270SOL     OW16708   4.015   0.687   1.197  0.1327 -0.7117 -0.9026
 5270SOL    HW116709   3.966   0.652   1.277  0.4355 -0.5461 -0.6422
 5270SOL    HW216710   4.074   0.763   1.225  0.4191 -0.8068 -1.2424
 5271SOL     OW16711   4.658   5.100   4.630  0.0315 -0.0105  0.2325
 5271SOL    HW116712   4.690   5.016   4.587  0.1453 -0.5774  1.3948
 5271SOL    HW216713   4.567   5.085   4.669  0.4050  0.1449  1.1836
 5272SOL     OW16714   0.005   5.734   3.010  0.5709  0.3433 -0.1342
 5272SOL    HW116715   0.035   5.724   2.915  0.1359  0.3732 -0.2748
 5272SOL    HW216716   0.018   5.828   3.039 -0.0194  0.5196 -0.4175
 5273SOL     OW16717   0.998   0.733   4.938  0.3655 -0.6827  0.1019
 5273SOL    HW116718   0.924   0.740   4.871  0.4854 -0.2701  0.0143
 5273SOL    HW216719   0.970   0.670   5.011 -1.0716  1.2719  1.3573
 5274SOL     OW16720   6.803   4.638   4.918  0.1770  0.4176  0.0444
 5274SOL    HW116721   6.782   4.561   4.858 -2.8837  1.2104 -0.0840
 5274SOL    HW216722   6.894   4.673   4.897  0.1476 -0.8043 -2.4884
 5275SOL     OW16723   2.898   6.911   6.297 -0.7245 -0.1157  0.1648
 5275SOL    HW116724   2.894   7.011   6.291 -1.0325 -0.0106  1.6523
 5275SOL    HW216725   2.809   6.876   6.327 -0.5275 -0.8207 -0.0583
 5276SOL     OW16726   5.905   2.231   0.829  0.1141  0.5611 -0.5804
 5276SOL    HW116727   5.904   2.313   0.772 -1.4683  1.4355  0.6410
 5276SOL    HW216728   5.814   2.188   0.827  0.8342 -1.0181 -0.9632
 5277SOL     OW16729   2.410   2.257   4.447 -0.0125  0.5705  0.0228
 5277SOL    HW116730   2.347   2.200   4.499 -1.4415  0.1395 -2.0302
 5277SOL    HW216731   2.496   2.208   4.434 -1.3415 -1.4355 -2.0251
 5278SOL     OW16732   0.159   1.136   4.887 -0.3947 -0.0855  0.4029
 5278SOL    HW116733   0.250   1.159   4.924 -0.0017 -0.8093 -0.0787
 5278SOL    HW216734   0.090   1.154   4.956 -0.4409  4.4466 -0.5093
 5279SOL     OW16735   2.611   5.982   6.207  0.4044 -0.0202 -0.4358
 5279SOL    HW116736   2.670   5.925   6.262 -1.3810 -1.2423  0.3042
 5279SOL    HW216737   2.635   6.078   6.221 -0.0301 -0.2538  2.5788
 5280SOL     OW16738   3.996   5.328   3.424 -0.5575 -0.3176  0.2445
 5280SOL    HW116739   4.084   5.282   3.438  0.4099  1.2987 -0.2418
 5280SOL    HW216740   3.935   5.306   3.500  0.1559 -1.7110  0.4413
 5281SOL     OW16741   1.348   0.260   2.853 -1.2926 -0.1195 -0.3103
 5281SOL    HW116742   1.285   0.185   2.874 -1.1167  0.0449  0.8522
 5281SOL    HW216743   1.297   0.346   2.848 -1.2984 -0.1232 -0.3146
 5282SOL     OW16744   3.297   6.068   4.065  0.6365  0.0562  0.0802
 5282SOL    HW116745   3.238   6.132   4.017  0.5287  0.0328  0.1803
 5282SOL    HW216746   3.339   6.005   3.999 -1.2833 -1.4492  0.1943
 5283SOL     OW16747   6.676   1.356   2.470 -0.1424 -0.2360  0.0422
 5283SOL    HW116748   6.747   1.424   2.490  1.1814 -1.0412 -1.7091
 5283SOL    HW216749   6.661   1.351   2.372 -1.6552 -1.0948  0.2855
 5284SOL     OW16750   5.015   2.843   2.785  0.1732  0.9558  0.0803
 5284SOL    HW116751   4.989   2.842   2.689  0.8347  0.9014 -0.0962
 5284SOL    HW216752   5.039   2.750   2.815  2.5099  1.3620 -0.3985
 5285SOL     OW16753   1.242   1.564   3.370 -0.1273  0.3016 -0.2772
 5285SOL    HW116754   1.342   1.569   3.369 -0.0144 -1.3822 -1.1586
 5285SOL    HW216755   1.210   1.559   3.464  0.8118 -1.5625 -0.0173
 5286SOL     OW16756   6.734   3.094   0.755 -0.0766 -0.0811 -0.3225
 5286SOL    HW116757   6.726   3.194   0.760  0.1878 -0.0572 -0.3772
 5286SOL    HW216758   6.770   3.069   0.665  0.1979 -0.2064 -0.1760
 5287SOL     OW16759   4.695   4.442   3.797 -0.2133  0.2864 -0.0249
 5287SOL    HW116760   4.598   4.455   3.815 -0.6566 -0.8400 -1.4371
 5287SOL    HW216761   4.724   4.352   3.830  0.8049  1.2644  1.9612
 5288SOL     OW16762   5.983   1.071   2.988 -0.1435 -0.4128 -0.6834
 5288SOL    HW116763   5.999   1.058   2.890  4.0001  0.8421 -0.3750
 5288SOL    HW216764   6.071   1.070   3.036 -1.6717  2.2731  2.5845
 5289SOL     OW16765   0.531   4.824   6.900 -0.1664  0.0832 -0.1378
 5289SOL    HW116766   0.487   4.882   6.968  1.3645  1.4881 -0.2816
 5289SOL    HW216767   0.496   4.730   6.908 -0.9892  0.5058  1.6628
 5290SOL     OW16768   0.570   3.864   5.980 -0.9582 -0.8583 -0.1844
 5290SOL    HW116769   0.478   3.902   5.969 -0.5290  0.5809  0.9748
 5290SOL    HW216770   0.635   3.919   5.928 -0.2766  0.2914  1.7941
 5291SOL     OW16771   1.214   3.218   6.358  0.1190  0.1359  0.0725
 5291SOL    HW116772   1.199   3.155   6.281 -0.7405 -1.0363  1.1530
 5291SOL    HW216773   1.206   3.167   6.444  0.6793  1.4963  0.9545
 5292SOL     OW16774   6.523   3.734   0.570 -0.7762 -0.5364 -0.3966
 5292SOL    HW116775   6.583   3.782   0.506  0.0995 -0.3294  0.5561
 5292SOL    HW216776   6.519   3.637   0.544  1.0729 -0.8433  0.2758
 5293SOL     OW16777   1.598   5.031   5.023 -0.8944  1.2210 -0.1935
 5293SOL    HW116778   1.577   5.125   5.051  3.5019  2.7971 -1.4056
 5293SOL    HW216779   1.688   5.005   5.057 -1.7279 -2.4894 -0.3495
 5294SOL     OW16780   3.757   0.379   5.207 -0.3614 -0.3245  0.0670
 5294SOL    HW116781   3.827   0.420   5.148 -1.6022 -0.6038 -1.6901
 5294SOL    HW216782   3.752   0.429   5.294  2.9605 -1.1851  0.8730
 5295SOL     OW16783   4.802   1.234   4.560  0.2559  0.1841  0.0103
 5295SOL    HW116784   4.783   1.137   4.551 -0.4011  0.4283 -1.6663
 5295SOL    HW216785   4.853   1.266   4.479  1.5944  0.9868  1.1323
 5296SOL     OW16786   3.479   3.565   6.200  0.1414  0.6110  0.3876
 5296SOL    HW116787   3.535   3.522   6.129  0.8011 -2.1248  2.3475
 5296SOL    HW216788   3.382   3.554   6.178  0.3283  1.4450 -0.9292
 5297SOL     OW16789   5.385   5.372   5.738  0.0525 -0.1211  0.6118
 5297SOL    HW116790   5.468   5.316   5.738  0.4260  0.4109 -0.2955
 5297SOL    HW216791   5.308   5.316   5.708  0.2859 -0.3453  0.4227
 5298SOL     OW16792   0.301   0.521   5.241  0.6276 -0.5689  0.4589
 5298SOL    HW116793   0.329   0.458   5.169 -1.6709 -1.8121  0.5508
 5298SOL    HW216794   0.328   0.614   5.216  1.9815 -1.2651 -0.8294
 5299SOL     OW16795   2.488   3.282   1.649 -0.0653 -0.3871  0.0160
 5299SOL    HW116796   2.532   3.196   1.676  0.3942 -0.4441 -0.8661
 5299SOL    HW216797   2.471   3.338   1.730  0.0022 -1.1353  0.5551
 5300SOL     OW16798   2.472   4.547   1.693  0.2569  0.6862  0.2155
 5300SOL    HW116799   2.406   4.616   1.664 -0.2387  0.1050 -0.0647
 5300SOL    HW216800   2.423   4.470   1.734  0.8229  0.6507  0.8435
 5301SOL     OW16801   3.590   0.837   6.932 -0.0797  0.2838  0.3933
 5301SOL    HW116802   3.628   0.808   6.845  1.5087  1.0048  0.8099
 5301SOL    HW216803   3.632   0.784   7.006 -3.7140 -2.6793  0.6552
 5302SOL     OW16804   5.787   5.845   4.982 -0.0969 -0.0806 -0.0116
 5302SOL    HW116805   5.862   5.812   4.926  1.1609  4.2626 -1.2558
 5302SOL    HW216806   5.708   5.785   4.971  1.0515 -1.1303 -4.0901
 5303SOL     OW16807   6.048   4.341   0.526  0.4492 -0.9978 -0.0036
 5303SOL    HW116808   6.053   4.260   0.584  0.0311 -1.6038 -0.8053
 5303SOL    HW216809   5.953   4.374   0.523  0.3666 -1.2874 -0.7665
 5304SOL     OW16810   5.421   6.498   0.622  0.9075  0.1609 -0.2990
 5304SOL    HW116811   5.445   6.563   0.550 -1.1319  0.7104 -0.5394
 5304SOL    HW216812   5.473   6.413   0.609 -0.7001 -0.4720 -3.5805
 5305SOL     OW16813   0.710   3.604   5.845 -0.0420  0.0191 -0.1529
 5305SOL    HW116814   0.655   3.674   5.891 -1.9466 -0.2159 -1.9274
 5305SOL    HW216815   0.793   3.588   5.898 -0.0450  2.8126  0.8947
 5306SOL     OW16816   0.483   4.383   6.083  0.6419 -0.1183 -0.1349
 5306SOL    HW116817   0.506   4.306   6.142 -1.0990 -0.5813  0.0225
 5306SOL    HW216818   0.422   4.351   6.010  0.6214  0.9415 -0.6006
 5307SOL     OW16819   5.766   3.083   0.659 -0.1352  0.0209  0.0906
 5307SOL    HW116820   5.857   3.054   0.690  0.5417 -1.4803 -2.9529
 5307SOL    HW216821   5.705   3.004   0.656 -0.6799  0.4572 -0.6050
 5308SOL     OW16822   0.238   4.775   2.113 -0.3433 -0.1791 -0.2224
 5308SOL    HW116823   0.309   4.792   2.181 -0.1200 -0.8036 -0.2927
 5308SOL    HW216824   0.154   4.823   2.139 -0.5509 -1.1617  1.0118
 5309SOL     OW16825   5.730   3.702   3.436 -0.1149  0.0170 -0.7436
 5309SOL    HW116826   5.777   3.742   3.514  1.8548 -0.7589 -1.4586
 5309SOL    HW216827   5.749   3.603   3.432  1.8640  0.3955 -3.4568
 5310SOL     OW16828   1.172   4.911   2.841  0.2415  0.0195 -0.0437
 5310SOL    HW116829   1.261   4.928   2.798  0.8255 -1.3366  0.5607
 5310SOL    HW216830   1.164   4.968   2.923  1.3112 -1.0612  0.8524
 5311SOL     OW16831   1.278   0.698   2.036  0.4245 -0.0401 -0.0052
 5311SOL    HW116832   1.222   0.629   1.989  0.8259  0.2010 -0.8665
 5311SOL    HW216833   1.220   0.774   2.065  0.2263 -0.0107 -0.4735
 5312SOL     OW16834   6.714   5.683   1.391 -0.8248  0.3531  0.3914
 5312SOL    HW116835   6.629   5.650   1.430 -0.7113 -1.3847 -0.7503
 5312SOL    HW216836   6.699   5.712   1.297  0.0651 -1.1276 -0.2294
 5313SOL     OW16837   1.292   0.231   4.719  0.2267 -0.0839 -0.7335
 5313SOL    HW116838   1.362   0.172   4.758  0.5798 -0.1381 -1.4388
 5313SOL    HW216839   1.321   0.326   4.724 -1.3479  0.3486  2.5922
 5314SOL     OW16840   6.258   5.324   6.920  0.6605 -0.1070  0.4236
 5314SOL    HW116841   6.274   5.408   6.972 -0.4792  0.0237  0.5854
 5314SOL    HW216842   6.162   5.297   6.929  0.7338 -0.7568 -0.6266
 5315SOL     OW16843   4.362   0.779   2.690  0.3965 -0.0130  0.3254
 5315SOL    HW116844   4.393   0.873   2.702 -0.1712  0.0393  1.5718
 5315SOL    HW216845   4.391   0.724   2.768 -0.1872 -0.6214  0.1250
 5316SOL     OW16846   0.890   3.543   5.656 -0.1629  0.2982 -0.0221
 5316SOL    HW116847   0.875   3.465   5.595 -0.1158 -0.7635  1.2842
 5316SOL    HW216848   0.841   3.528   5.742  0.3882  1.4005  0.5023
 5317SOL     OW16849   5.362   0.687   6.554  0.0123  0.7351 -0.5430
 5317SOL    HW116850   5.319   0.721   6.637  0.9050 -0.1246  0.2961
 5317SOL    HW216851   5.366   0.760   6.486 -0.0450  1.6708  0.4429
 5318SOL     OW16852   0.049   4.322   1.406  0.1702 -0.9477  0.5077
 5318SOL    HW116853   0.084   4.231   1.387  1.7631 -0.4480  0.9241
 5318SOL    HW216854   0.090   4.388   1.343 -0.0090 -0.3365  1.0129
 5319SOL     OW16855   4.685   6.207   1.521 -0.2982  0.2366 -0.4995
 5319SOL    HW116856   4.717   6.301   1.533 -0.5993  0.1734  1.1163
 5319SOL    HW216857   4.643   6.196   1.431  0.4721  1.4217 -1.0149
 5320SOL     OW16858   4.448   5.173   1.493  0.3382 -0.6962 -0.0145
 5320SOL    HW116859   4.414   5.257   1.450  1.8670 -0.0236  0.0415
 5320SOL    HW216860   4.469   5.105   1.422  0.8688 -0.3445 -0.1985
 5321SOL     OW16861   2.651   4.596   3.705 -0.2010  0.1720 -0.2747
 5321SOL    HW116862   2.649   4.696   3.711 -2.4489  0.1431  0.1664
 5321SOL    HW216863   2.711   4.560   3.776 -1.3081  1.1414  1.2142
 5322SOL     OW16864   5.620   0.715   1.074 -0.1224  0.0862 -0.2533
 5322SOL    HW116865   5.690   0.655   1.035 -1.9273 -0.9483 -2.0815
 5322SOL    HW216866   5.604   0.792   1.012 -0.1597  0.6738  0.4740
 5323SOL     OW16867   6.813   1.138   4.784  0.7472  0.6443 -0.5739
 5323SOL    HW116868   6.829   1.234   4.761  0.0453  0.4122 -2.1629
 5323SOL    HW216869   6.723   1.110   4.750 -0.4251  0.2207  2.5346
 5324SOL     OW16870   3.939   2.451   0.468  0.0591  0.1255  0.0355
 5324SOL    HW116871   4.001   2.433   0.392 -0.6029 -0.6756 -0.3294
 5324SOL    HW216872   3.882   2.371   0.485 -1.8626  1.2991 -0.5647
 5325SOL     OW16873   3.487   0.461   4.129  0.5576  0.1603  0.2375
 5325SOL    HW116874   3.484   0.523   4.051 -0.5289  0.6946  0.6682
 5325SOL    HW216875   3.581   0.449   4.159  1.1946 -1.3180 -2.1006
 5326SOL     OW16876   0.945   5.415   2.223 -0.4188 -0.5522  0.0475
 5326SOL    HW116877   1.005   5.439   2.147 -0.3812 -2.2932 -0.5231
 5326SOL    HW216878   0.971   5.467   2.304  0.7860 -0.0589 -0.6339
 5327SOL     OW16879   6.156   3.183   3.359 -0.7453  0.2270  0.1654
 5327SOL    HW116880   6.110   3.095   3.348  0.1052 -0.0104 -2.0792
 5327SOL    HW216881   6.203   3.185   3.447  0.5449 -2.2486 -0.3808
 5328SOL     OW16882   4.011   3.936   5.800  0.0136 -0.0036 -0.0835
 5328SOL    HW116883   3.950   3.999   5.849  0.9810  1.4161 -0.6258
 5328SOL    HW216884   3.981   3.926   5.706 -0.9504 -1.5178  0.3429
 5329SOL     OW16885   6.406   6.559   6.127 -0.7232  0.0481 -0.5656
 5329SOL    HW116886   6.483   6.613   6.091  0.2712  0.3262  1.7915
 5329SOL    HW216887   6.440   6.495   6.196 -2.3664 -1.3529 -0.9726
 5330SOL     OW16888   2.826   5.053   6.474  0.3523  0.2916 -0.2651
 5330SOL    HW116889   2.748   5.014   6.426  0.6157  1.6858 -1.9507
 5330SOL    HW216890   2.891   4.981   6.496 -1.1633 -0.8199  0.7540
 5331SOL     OW16891   5.301   2.666   4.612 -0.0127  0.3594 -0.0046
 5331SOL    HW116892   5.256   2.622   4.534  0.4546 -0.1609  0.0162
 5331SOL    HW216893   5.256   2.754   4.631 -2.5540 -1.1000  1.4336
 5332SOL     OW16894   0.979   4.454   2.297  0.1519  0.4405  0.2532
 5332SOL    HW116895   1.041   4.394   2.346  0.7503  0.7189 -0.1536
 5332SOL    HW216896   0.934   4.516   2.362 -1.5079 -1.3116  0.8615
 5333SOL     OW16897   1.560   0.058   4.816  0.3313 -0.6888  0.5402
 5333SOL    HW116898   1.649   0.101   4.803  0.3348 -1.1797 -1.4597
 5333SOL    HW216899   1.543  -0.007   4.741 -1.0175 -1.8199  1.7564
 5334SOL     OW16900   3.242   5.987   5.288 -0.3359  0.5124  0.5595
 5334SOL    HW116901   3.256   6.070   5.342  0.5625 -0.1720  1.3950
 5334SOL    HW216902   3.245   6.010   5.190  0.7871  1.3350  0.7681
 5335SOL     OW16903   4.895   5.826   1.872 -0.1826 -0.4953  0.6895
 5335SOL    HW116904   4.795   5.832   1.861 -0.0121  1.9128  0.0198
 5335SOL    HW216905   4.917   5.811   1.968 -1.1604  1.0236  1.1777
 5336SOL     OW16906   1.008   3.096   2.177 -0.0165  0.9204  0.6726
 5336SOL    HW116907   1.101   3.059   2.179  0.4982  2.1417  0.8058
 5336SOL    HW216908   1.006   3.180   2.232 -1.4197  0.4401  1.3940
 5337SOL     OW16909   5.505   4.041   1.647 -1.1214  0.0017  0.0607
 5337SOL    HW116910   5.438   3.974   1.680 -0.3080 -0.2890  1.1942
 5337SOL    HW216911   5.471   4.133   1.663 -0.6171 -0.1226  2.1232
 5338SOL     OW16912   6.865   1.034   5.858 -0.3955  0.2251  0.3559
 5338SOL    HW116913   6.950   1.018   5.909 -0.8236 -1.0172  0.7216
 5338SOL    HW216914   6.817   0.947   5.847  0.3234  0.1324 -3.3695
 5339SOL     OW16915   6.950   2.264   2.952 -0.0772  0.2809  0.3224
 5339SOL    HW116916   6.935   2.320   2.871 -1.5409  2.4745  1.9894
 5339SOL    HW216917   7.040   2.284   2.990  0.7798 -1.0474 -0.9022
 5340SOL     OW16918   6.097   4.174   0.264  0.2860  0.4730 -0.1973
 5340SOL    HW116919   6.104   4.232   0.346  1.0200  1.2351 -0.7797
 5340SOL    HW216920   6.189   4.145   0.237 -0.0591 -0.9780  0.0704
 5341SOL     OW16921   3.259   1.598   5.997  0.0169  0.2031 -0.0760
 5341SOL    HW116922   3.281   1.685   5.953 -0.2989  0.0832 -0.4804
 5341SOL    HW216923   3.162   1.578   5.985 -0.3174  0.6866  1.6019
 5342SOL     OW16924   1.923   0.052   5.969  0.7188 -0.1431  0.8051
 5342SOL    HW116925   2.010   0.101   5.969  0.3715  0.4760  1.0049
 5342SOL    HW216926   1.922  -0.014   5.893  0.4509  1.4700 -0.6554
 5343SOL     OW16927   3.826   3.389   3.618  0.4942 -0.2416  0.5595
 5343SOL    HW116928   3.888   3.397   3.540 -0.6407  1.2788 -0.2711
 5343SOL    HW216929   3.768   3.308   3.607  0.7594 -0.3774  0.1405
 5344SOL     OW16930   0.447   1.249   3.167 -0.1767  0.3731 -0.1479
 5344SOL    HW116931   0.517   1.215   3.230 -1.8632 -2.1209  0.5387
 5344SOL    HW216932   0.491   1.300   3.093  2.4249 -1.4564  0.0083
 5345SOL     OW16933   4.039   4.683   0.385 -0.4750  0.0241 -0.3873
 5345SOL    HW116934   4.134   4.683   0.415  0.1994 -2.3916 -2.2454
 5345SOL    HW216935   4.012   4.776   0.359  1.8878  0.5043 -1.3469
 5346SOL     OW16936   3.403   0.343   2.457  0.2238 -0.2448  0.1522
 5346SOL    HW116937   3.342   0.404   2.405 -0.1303 -0.7762 -0.0586
 5346SOL    HW216938   3.364   0.251   2.460  1.3973 -0.7817 -0.6450
 5347SOL     OW16939   6.853   1.905   2.206  0.0554  1.0862 -0.7165
 5347SOL    HW116940   6.938   1.913   2.257  0.6124  1.1284 -1.6332
 5347SOL    HW216941   6.807   1.819   2.230  0.7140  0.7264 -0.7379
 5348SOL     OW16942   2.914   1.471   1.280  0.2611  0.7487  0.4062
 5348SOL    HW116943   2.941   1.443   1.373  1.5816 -1.1006 -0.4685
 5348SOL    HW216944   2.967   1.419   1.213 -1.6160  1.0466 -1.4164
 5349SOL     OW16945   0.741   2.165   0.049 -0.5257 -0.1690  0.2070
 5349SOL    HW116946   0.747   2.069   0.078 -0.3741 -0.9129 -2.0644
 5349SOL    HW216947   0.758   2.170  -0.049  0.1410  2.2928  0.3993
 5350SOL     OW16948   4.494   5.777   6.351  0.2253  0.2103 -0.1598
 5350SOL    HW116949   4.446   5.859   6.320  0.3914  1.1826  1.9758
 5350SOL    HW216950   4.587   5.777   6.313 -0.3239  0.1060 -1.5426
 5351SOL     OW16951   4.571   4.815   2.650  0.8292  0.2639 -0.3926
 5351SOL    HW116952   4.493   4.776   2.699  0.6320  1.7961  0.5934
 5351SOL    HW216953   4.611   4.746   2.590 -0.6540 -0.8448 -0.1531
 5352SOL     OW16954   5.056   0.492   3.131  0.4254 -0.1318  0.8227
 5352SOL    HW116955   5.065   0.430   3.208 -1.1019 -1.4215  0.0235
 5352SOL    HW216956   4.979   0.463   3.074  1.3459  0.9202 -1.0450
 5353SOL     OW16957   4.152   0.175   2.581  0.8078  0.1088  0.2234
 5353SOL    HW116958   4.242   0.184   2.538  0.2964 -0.9710 -1.1682
 5353SOL    HW216959   4.105   0.095   2.543 -0.6296  0.4769  1.1376
 5354SOL     OW16960   3.691   5.426   2.272 -1.0125  0.2007  0.0104
 5354SOL    HW116961   3.780   5.455   2.307 -0.2490 -2.0882  0.1288
 5354SOL    HW216962   3.638   5.385   2.346 -0.3057 -2.5590 -0.8747
 5355SOL     OW16963   4.795   1.911   3.509 -0.0220 -0.1942 -0.1049
 5355SOL    HW116964   4.752   1.895   3.598  1.0608  0.0232  0.4812
 5355SOL    HW216965   4.870   1.846   3.497  0.5340  0.4818 -0.3698
 5356SOL     OW16966   0.323   4.895   0.959 -0.0660  0.5816 -0.2824
 5356SOL    HW116967   0.227   4.887   0.986  0.2435  0.0204  0.6603
 5356SOL    HW216968   0.346   4.992   0.950 -0.4431  0.7564  0.5104
 5357SOL     OW16969   3.537   0.641   0.682 -0.3263  0.4135  0.5054
 5357SOL    HW116970   3.535   0.625   0.583  2.7175 -0.5983  0.5043
 5357SOL    HW216971   3.523   0.739   0.700  1.7218  1.1120 -1.2231
 5358SOL     OW16972   4.170   2.888   1.473  0.0624 -0.0331  0.3915
 5358SOL    HW116973   4.203   2.935   1.556  0.4210  0.5009 -0.0481
 5358SOL    HW216974   4.173   2.951   1.396 -0.8283 -0.3507  0.0820
 5359SOL     OW16975   1.335   2.008   1.476  0.4906  0.3698 -0.3883
 5359SOL    HW116976   1.413   1.955   1.442 -0.7541 -0.8899 -1.4048
 5359SOL    HW216977   1.319   1.985   1.572 -0.3986 -1.6477 -0.9669
 5360SOL     OW16978   4.900   5.912   4.589  0.4081  0.0198  1.1644
 5360SOL    HW116979   4.840   5.833   4.592  0.8724 -0.5897 -1.9498
 5360SOL    HW216980   4.849   5.995   4.613 -0.5083 -0.9499  2.7374
 5361SOL     OW16981   4.157   6.350   5.330  0.7862  0.2877 -0.5308
 5361SOL    HW116982   4.066   6.309   5.322  0.4535  1.1938 -1.6425
 5361SOL    HW216983   4.217   6.288   5.380  0.3989 -1.7854 -2.4512
 5362SOL     OW16984   6.064   4.869   5.453 -0.3062 -0.3352  0.2296
 5362SOL    HW116985   5.983   4.814   5.476 -0.6068 -0.0515 -0.1481
 5362SOL    HW216986   6.100   4.841   5.364  0.6664 -1.2058  0.8710
 5363SOL     OW16987   0.493   4.897   5.963  0.0093  0.3447  0.1326
 5363SOL    HW116988   0.565   4.943   5.911 -0.2033  0.0883 -0.3990
 5363SOL    HW216989   0.410   4.890   5.907 -0.6666  1.2622  0.9807
 5364SOL     OW16990   0.082   5.338   1.779  0.2312 -0.7846  0.4718
 5364SOL    HW116991   0.074   5.342   1.879  0.6772 -0.8166  0.5075
 5364SOL    HW216992   0.154   5.273   1.754  0.3175 -0.5594  0.1334
 5365SOL     OW16993   4.416   3.094   0.925 -0.6997 -0.1317  0.4674
 5365SOL    HW116994   4.488   3.064   0.987  0.1774  1.4952  0.2839
 5365SOL    HW216995   4.370   3.014   0.885  0.7647 -1.1929  0.8397
 5366SOL     OW16996   3.983   5.516   0.963  0.6052  0.0301  0.6005
 5366SOL    HW116997   4.007   5.452   1.036 -0.1127 -1.2004 -0.2027
 5366SOL    HW216998   3.884   5.526   0.960  0.6100 -0.1474 -0.3655
 5367SOL     OW16999   6.813   5.588   6.619 -0.5001 -0.4312 -0.0849
 5367SOL    HW117000   6.802   5.686   6.630 -1.1673 -0.4541 -0.4977
 5367SOL    HW217001   6.909   5.567   6.597 -0.0585 -0.0088  1.3085
 5368SOL     OW17002   5.940   1.983   1.316 -0.4918  0.0660 -0.7316
 5368SOL    HW117003   5.944   2.068   1.369  0.6805  0.2514 -1.1004
 5368SOL    HW217004   5.937   2.005   1.218 -1.0214 -0.3084 -0.8045
 5369SOL     OW17005   2.589   6.143   2.412  0.3885 -0.1364 -0.7509
 5369SOL    HW117006   2.636   6.229   2.430 -0.6613  0.5985 -1.4143
 5369SOL    HW217007   2.640   6.091   2.343  0.8622  0.0805 -0.5678
 5370SOL     OW17008   3.899   2.082   1.960 -0.3844 -0.2563  0.2327
 5370SOL    HW117009   3.805   2.113   1.972  0.0656  0.8534  1.1471
 5370SOL    HW217010   3.921   2.013   2.029 -0.4596 -0.3317  0.1802
 5371SOL     OW17011   0.294   4.788   3.524 -0.0058 -0.0571 -0.0657
 5371SOL    HW117012   0.289   4.698   3.482  0.9927 -0.1330 -0.0686
 5371SOL    HW217013   0.298   4.858   3.453  0.5889 -0.1142 -0.0996
 5372SOL     OW17014   1.562   6.215   3.264 -0.1604  0.5922  0.5293
 5372SOL    HW117015   1.502   6.250   3.335  0.9847  1.1234  1.2655
 5372SOL    HW217016   1.654   6.201   3.301 -0.0433 -1.1786 -0.2897
 5373SOL     OW17017   3.286   5.155   3.968  0.1079  0.0477  0.0621
 5373SOL    HW117018   3.200   5.197   3.939  0.7142  1.2695 -0.0160
 5373SOL    HW217019   3.332   5.116   3.888  0.1957  0.4677 -0.0974
 5374SOL     OW17020   0.219   4.336   1.980  0.4729  0.1446  0.0138
 5374SOL    HW117021   0.131   4.289   1.980  0.2192  0.5399 -1.7808
 5374SOL    HW217022   0.291   4.273   1.951  0.3573  0.4592 -1.0002
 5375SOL     OW17023   1.264   4.317   5.112 -0.0299  0.1820  0.3162
 5375SOL    HW117024   1.167   4.337   5.101 -0.6234 -1.7543  1.6199
 5375SOL    HW217025   1.284   4.298   5.208  1.1564 -1.7171 -0.2514
 5376SOL     OW17026   1.432   3.366   1.189 -0.4643  0.0455 -0.0018
 5376SOL    HW117027   1.334   3.351   1.201 -0.7244  1.1436 -0.5729
 5376SOL    HW217028   1.462   3.442   1.248 -0.1926  0.4509 -0.6534
 5377SOL     OW17029   2.593   6.824   1.943 -0.4128 -0.1882 -0.2527
 5377SOL    HW117030   2.681   6.824   1.897  0.2159  2.4840  0.7335
 5377SOL    HW217031   2.545   6.910   1.923 -2.4329 -1.2047 -0.0670
 5378SOL     OW17032   2.257   1.760   2.352 -0.5885 -0.2386 -0.3010
 5378SOL    HW117033   2.299   1.731   2.266  1.9922  2.2637 -0.0515
 5378SOL    HW217034   2.230   1.855   2.345 -3.1317 -0.8079  0.7832
 5379SOL     OW17035   1.271   2.164   4.519 -0.1240 -0.5198  0.0372
 5379SOL    HW117036   1.226   2.179   4.608 -1.5293  0.8923 -0.8393
 5379SOL    HW217037   1.370   2.165   4.531 -0.2845 -0.4994  1.6133
 5380SOL     OW17038   1.756   0.981   4.982  0.2775  0.0848 -0.2658
 5380SOL    HW117039   1.771   0.930   5.067 -1.8633  3.1546  2.1658
 5380SOL    HW217040   1.843   1.013   4.946  1.3404 -2.3511 -0.0441
 5381SOL     OW17041   4.235   3.913   1.308 -0.8014 -0.3847 -0.2558
 5381SOL    HW117042   4.254   3.872   1.398 -0.3587  1.3413  0.4829
 5381SOL    HW217043   4.275   3.856   1.236 -0.4528 -1.3746  0.6926
 5382SOL     OW17044   1.875   1.249   1.357 -0.7256  0.3234  0.4019
 5382SOL    HW117045   1.893   1.151   1.348 -0.4594  0.4094 -0.0186
 5382SOL    HW217046   1.809   1.264   1.431  0.4151 -0.0608  1.5501
 5383SOL     OW17047   2.619   2.463   4.191 -0.1349 -0.0903 -0.1993
 5383SOL    HW117048   2.570   2.458   4.104 -1.5979  1.0345  0.5257
 5383SOL    HW217049   2.710   2.503   4.176 -1.2011  2.2016 -0.9212
 5384SOL     OW17050   5.887   0.104   4.248 -0.7374  0.1306  0.7283
 5384SOL    HW117051   5.876   0.166   4.325  1.1707  2.6137 -0.8702
 5384SOL    HW217052   5.819   0.124   4.179 -0.3338  0.2295  0.3543
 5385SOL     OW17053   2.916   3.702   2.534  0.3745  0.3206 -0.6957
 5385SOL    HW117054   2.837   3.742   2.488  0.1164  0.2125 -0.3543
 5385SOL    HW217055   2.978   3.775   2.563  0.2192  0.4291 -0.6358
 5386SOL     OW17056   4.340   5.388   4.057  0.0457  0.0033  0.0388
 5386SOL    HW117057   4.336   5.357   3.963  1.3598  0.1768 -0.1036
 5386SOL    HW217058   4.290   5.474   4.067 -1.2552 -0.7175 -0.1803
 5387SOL     OW17059   1.216   5.733   1.905 -0.3389 -0.6848  0.0743
 5387SOL    HW117060   1.196   5.693   1.995 -0.6285  1.1911  0.8854
 5387SOL    HW217061   1.190   5.668   1.834 -0.6900 -1.9741  1.3258
 5388SOL     OW17062   4.286   6.028   0.950 -0.0117  0.1139 -0.0964
 5388SOL    HW117063   4.248   6.121   0.945  2.2649  1.0845 -0.2545
 5388SOL    HW217064   4.281   5.986   0.859  0.0295  0.5370 -0.2993
 5389SOL     OW17065   3.346   0.627   1.755 -0.2415 -0.6274 -0.2483
 5389SOL    HW117066   3.342   0.696   1.683  2.5645  0.1966  0.2437
 5389SOL    HW217067   3.361   0.671   1.843  3.1529 -1.7520 -0.0943
 5390SOL     OW17068   3.280   5.860   3.464  0.6538  0.4748  0.1756
 5390SOL    HW117069   3.210   5.926   3.439 -0.6094 -0.5979  0.7715
 5390SOL    HW217070   3.261   5.773   3.419  0.7741 -0.2494  1.4909
 5391SOL     OW17071   1.270   3.905   3.389  0.4824 -0.3786  0.2475
 5391SOL    HW117072   1.314   3.956   3.464 -2.4131 -0.7057  2.3451
 5391SOL    HW217073   1.190   3.857   3.424 -1.2371 -0.3063 -3.1724
 5392SOL     OW17074   6.825   2.629   6.979 -0.0249  0.5639  0.1219
 5392SOL    HW117075   6.773   2.639   7.064  1.0956  2.3446  0.6498
 5392SOL    HW217076   6.919   2.601   7.000  0.9343  3.1635 -0.2398
 5393SOL     OW17077   3.814   1.231   6.327  0.0668  0.2319 -0.7942
 5393SOL    HW117078   3.812   1.131   6.332  1.3099  0.1942 -0.9623
 5393SOL    HW217079   3.797   1.269   6.418  1.2354 -0.1702 -0.3915
 5394SOL     OW17080   0.449   1.864   0.231  0.4722  0.0109 -0.1464
 5394SOL    HW117081   0.366   1.868   0.175  0.5171  0.1412 -0.2042
 5394SOL    HW217082   0.448   1.938   0.298 -0.7600 -1.5664  1.6911
 5395SOL     OW17083   2.592   0.034   1.080 -0.2460  0.0153 -0.0984
 5395SOL    HW117084   2.685   0.015   1.112 -1.4638 -1.0066  3.2184
 5395SOL    HW217085   2.582   0.132   1.063  0.6723  0.6945  2.6770
 5396SOL     OW17086   5.261   4.645   1.054  0.0810 -0.0157  0.3948
 5396SOL    HW117087   5.245   4.589   0.973  0.5903  0.7812 -0.2766
 5396SOL    HW217088   5.278   4.740   1.026  0.0747  0.3058  1.4478
 5397SOL     OW17089   5.146   4.749   0.580 -0.1150 -0.0493 -0.2877
 5397SOL    HW117090   5.123   4.693   0.501  0.3186  1.9554 -1.9091
 5397SOL    HW217091   5.228   4.712   0.625 -0.0062 -0.8560 -1.1327
 5398SOL     OW17092   3.621   2.450   1.380 -0.4153  0.0384 -0.0061
 5398SOL    HW117093   3.610   2.377   1.313  2.0936 -0.8716  0.4423
 5398SOL    HW217094   3.586   2.420   1.469 -0.0656 -0.3524  0.0030
 5399SOL     OW17095   0.934   5.813   5.070 -0.7308  0.0797  0.5508
 5399SOL    HW117096   0.995   5.892   5.069  0.0455 -0.4936  1.2124
 5399SOL    HW217097   0.871   5.819   4.993  0.7224  0.2427 -0.6668
 5400SOL     OW17098   3.632   4.347   1.152 -0.4313 -0.3952 -0.0350
 5400SOL    HW117099   3.708   4.369   1.214  0.5131  2.1872 -1.9189
 5400SOL    HW217100   3.636   4.251   1.127  0.4291 -0.9945  2.2027
 5401SOL     OW17101   6.350   4.375   2.704  0.3340 -0.1056 -0.0326
 5401SOL    HW117102   6.416   4.343   2.771  0.5685  1.5651  0.5830
 5401SOL    HW217103   6.275   4.309   2.696  0.4699 -0.4893  1.6079
 5402SOL     OW17104   3.523   0.222   4.288 -0.1347  0.1569  0.1519
 5402SOL    HW117105   3.481   0.304   4.249  0.5519 -0.3565 -1.8079
 5402SOL    HW217106   3.526   0.149   4.218  3.0905 -0.1385  0.4126
 5403SOL     OW17107   4.897   2.616   6.602 -0.0247 -0.3183 -0.3579
 5403SOL    HW117108   4.912   2.631   6.700 -0.8404  1.5433 -0.4828
 5403SOL    HW217109   4.866   2.701   6.559 -1.1418 -1.4668 -1.9604
 5404SOL     OW17110   2.024   1.796   4.793  0.0698 -0.3211  0.1713
 5404SOL    HW117111   1.935   1.825   4.826  0.3512  0.1736  0.4966
 5404SOL    HW217112   2.046   1.706   4.831 -1.2651 -1.4908 -1.6728
 5405SOL     OW17113   7.002   5.511   1.220 -0.2468  0.1216 -0.1059
 5405SOL    HW117114   7.006   5.467   1.131  0.0460  0.8016 -0.4394
 5405SOL    HW217115   7.005   5.610   1.209 -0.8587  0.2368  0.6300
 5406SOL     OW17116   3.569   2.999   6.436 -0.5278 -0.2054  0.5109
 5406SOL    HW117117   3.525   2.968   6.352 -0.1273 -0.7243  0.4850
 5406SOL    HW217118   3.667   2.980   6.431 -0.1026  1.8809  0.1304
 5407SOL     OW17119   5.124   4.111   0.440  0.6063 -0.3387 -0.0640
 5407SOL    HW117120   5.106   4.014   0.426  1.0195 -0.8327  2.4704
 5407SOL    HW217121   5.222   4.126   0.447  0.5417  0.2854 -0.3845
 5408SOL     OW17122   2.288   2.471   5.927  0.4444  0.4215 -0.6634
 5408SOL    HW117123   2.359   2.523   5.974 -0.4549  1.3325 -0.2725
 5408SOL    HW217124   2.244   2.529   5.859  0.1384 -0.1662 -0.9727
 5409SOL     OW17125   5.674   0.039   3.392 -0.1422 -0.4032 -0.0468
 5409SOL    HW117126   5.770   0.047   3.364 -0.2504  0.6974 -0.1160
 5409SOL    HW217127   5.615   0.052   3.313 -0.3544 -1.4913 -0.0834
 5410SOL     OW17128   3.615   2.054   1.819 -0.4491 -0.5930 -0.3151
 5410SOL    HW117129   3.639   2.132   1.876 -1.4543 -2.1524  2.4360
 5410SOL    HW217130   3.666   2.058   1.733  2.5307  0.9686  1.3721
 5411SOL     OW17131   5.308   2.790   6.659  0.8299 -0.2897 -0.1697
 5411SOL    HW117132   5.376   2.856   6.689  0.2199 -0.2783  1.2758
 5411SOL    HW217133   5.225   2.800   6.714 -0.4466 -0.1571 -2.0014
 5412SOL     OW17134   4.366   3.092   0.330  0.4174  0.1786 -0.6445
 5412SOL    HW117135   4.454   3.090   0.281 -0.1113  1.6730 -1.7478
 5412SOL    HW217136   4.310   3.166   0.293  0.4091  2.2544  2.9948
 5413SOL     OW17137   1.925   0.354   0.563  0.8095  0.0492  0.7648
 5413SOL    HW117138   1.869   0.406   0.498  1.3496 -0.9069 -0.5187
 5413SOL    HW217139   1.868   0.321   0.638 -0.4605 -1.1384 -0.6490
 5414SOL     OW17140   4.751   3.499   6.039 -0.9343  0.0989  0.4487
 5414SOL    HW117141   4.778   3.439   5.964 -0.7677  0.4243  0.2494
 5414SOL    HW217142   4.717   3.443   6.115  0.6169 -0.3570  0.8415
 5415SOL     OW17143   0.505   5.936   0.984  0.3848 -0.0656  0.4212
 5415SOL    HW117144   0.417   5.969   1.018  0.0468 -0.1216 -0.3688
 5415SOL    HW217145   0.579   5.994   1.019  0.0404 -0.0353  1.1109
 5416SOL     OW17146   4.866   4.660   6.442 -0.1585  0.0247 -0.2086
 5416SOL    HW117147   4.809   4.604   6.503 -0.8429  1.0510  0.1131
 5416SOL    HW217148   4.881   4.750   6.483  0.7440  0.1705 -0.8217
 5417SOL     OW17149   4.101   5.567   5.910 -0.1373  0.2322 -0.1372
 5417SOL    HW117150   4.033   5.552   5.839  0.8106  2.7183 -1.6841
 5417SOL    HW217151   4.128   5.478   5.948 -2.1456 -1.0227 -1.4164
 5418SOL     OW17152   3.820   0.201   4.342  0.4845  0.1101  0.1844
 5418SOL    HW117153   3.855   0.245   4.424  1.0783 -1.1642  0.6359
 5418SOL    HW217154   3.725   0.229   4.327  0.3559  0.3141  1.3308
 5419SOL     OW17155   2.385   6.174   0.416 -0.4413 -0.4588  0.6007
 5419SOL    HW117156   2.475   6.189   0.458 -1.0823  0.0588  1.8526
 5419SOL    HW217157   2.374   6.077   0.395  0.3540 -0.5491  0.5422
 5420SOL     OW17158   1.657   2.385   3.652 -1.0941  0.4863  0.2590
 5420SOL    HW117159   1.696   2.452   3.589  0.0188 -0.4986 -0.1575
 5420SOL    HW217160   1.668   2.293   3.613 -0.9138 -0.0965  1.6164
 5421SOL     OW17161   6.881   4.272   3.207 -0.4103 -0.3447 -0.0743
 5421SOL    HW117162   6.960   4.313   3.162 -0.9939  0.2298 -0.5956
 5421SOL    HW217163   6.840   4.204   3.146  0.4475 -1.6228  0.7135
 5422SOL     OW17164   0.084   4.052   6.591  0.3823  0.0080  0.1857
 5422SOL    HW117165   0.104   4.089   6.682 -2.4099  0.0250  0.8918
 5422SOL    HW217166   0.167   4.050   6.536  1.9025  1.1492  2.3216
 5423SOL     OW17167   0.919   1.622   0.139 -0.2358 -0.0865  0.2657
 5423SOL    HW117168   0.889   1.676   0.060 -0.2173  0.6702  0.7674
 5423SOL    HW217169   0.839   1.583   0.184 -0.4112  0.9756  0.9209
 5424SOL     OW17170   5.438   4.125   5.453  0.8551  0.3560 -0.0976
 5424SOL    HW117171   5.345   4.156   5.474  0.9033  0.9323 -0.7301
 5424SOL    HW217172   5.501   4.156   5.524  0.8778  1.5785 -0.6411
 5425SOL     OW17173   4.510   1.846   0.223  0.1688 -0.0882  0.9998
 5425SOL    HW117174   4.430   1.905   0.211 -0.0124 -0.3142  1.0971
 5425SOL    HW217175   4.551   1.827   0.134  0.8211  1.0030  1.0468
 5426SOL     OW17176   5.967   5.263   5.644  0.2734 -0.2002  0.1357
 5426SOL    HW117177   5.966   5.356   5.607  0.9457 -0.9179 -1.7726
 5426SOL    HW217178   5.893   5.253   5.710 -1.1022  1.1009 -1.1372
 5427SOL     OW17179   5.189   6.629   6.615  0.3378  0.4633 -0.3794
 5427SOL    HW117180   5.099   6.641   6.659 -1.2769 -0.2812 -3.2414
 5427SOL    HW217181   5.194   6.539   6.574  1.1160  1.5852 -2.9191
 5428SOL     OW17182   0.412   5.725   2.410 -0.4039  0.2369  0.5292
 5428SOL    HW117183   0.373   5.762   2.325 -1.4312  0.6126  1.1429
 5428SOL    HW217184   0.374   5.634   2.427  2.1827 -1.2657 -1.0237
 5429SOL     OW17185   1.156   1.850   1.231 -0.2864 -0.0322  0.6717
 5429SOL    HW117186   1.177   1.943   1.202 -0.7661 -0.1395 -0.0484
 5429SOL    HW217187   1.124   1.850   1.325 -0.7956  0.5994  0.4991
 5430SOL     OW17188   0.480   1.823   5.620 -0.5798 -0.1430  0.2176
 5430SOL    HW117189   0.525   1.792   5.703  0.7560  1.0474 -0.0063
 5430SOL    HW217190   0.382   1.829   5.635 -0.5141 -1.2640  1.2553
 5431SOL     OW17191   2.420   4.101   0.465  0.7275 -0.4732  0.8710
 5431SOL    HW117192   2.516   4.088   0.490  0.9746  1.1132  0.8676
 5431SOL    HW217193   2.412   4.180   0.404 -0.7280  0.2600  1.9501
 5432SOL     OW17194   4.777   6.643   0.101 -0.5083 -0.0681  0.0052
 5432SOL    HW117195   4.691   6.686   0.071 -0.6479  0.4869  1.1310
 5432SOL    HW217196   4.853   6.706   0.085 -0.5299  0.0693  0.4262
 5433SOL     OW17197   0.405   1.090   4.458  0.3854 -0.1206 -0.2540
 5433SOL    HW117198   0.482   1.114   4.518  0.4438  0.6247 -0.6189
 5433SOL    HW217199   0.374   0.997   4.479  1.2946 -0.3764 -0.0090
 5434SOL     OW17200   2.315   1.040   0.096 -0.6737 -0.6862  0.2859
 5434SOL    HW117201   2.361   1.110   0.042 -1.7379 -2.0603 -2.6154
 5434SOL    HW217202   2.369   0.955   0.094 -0.9869 -0.9094  0.9745
 5435SOL     OW17203   5.179   6.271   2.996  0.0890  0.4996 -0.0949
 5435SOL    HW117204   5.226   6.204   3.053  0.0580  0.0045 -0.6330
 5435SOL    HW217205   5.154   6.228   2.909  0.7510  1.4190 -0.7613
 5436SOL     OW17206   2.836   5.700   5.491 -0.4896 -0.1355  0.1793
 5436SOL    HW117207   2.819   5.622   5.551 -0.2687 -0.0162  0.3983
 5436SOL    HW217208   2.794   5.782   5.530 -0.0886  0.0040  0.3276
 5437SOL     OW17209   1.854   3.717   5.151 -0.1478 -0.4009 -0.0410
 5437SOL    HW117210   1.882   3.622   5.152 -0.4782 -0.4974  0.1729
 5437SOL    HW217211   1.934   3.776   5.159 -0.0095 -0.6709  0.5662
 5438SOL     OW17212   4.875   3.582   2.038  0.6611  0.4813 -0.1530
 5438SOL    HW117213   4.860   3.592   1.940 -0.2345 -0.5866 -0.1439
 5438SOL    HW217214   4.884   3.485   2.061 -0.8814  0.5880  1.0447
 5439SOL     OW17215   2.135   0.815   2.664 -0.0839 -0.0172  0.1217
 5439SOL    HW117216   2.036   0.827   2.665 -0.0070  2.0125 -3.0270
 5439SOL    HW217217   2.176   0.869   2.738 -1.2146  1.4734 -0.2883
 5440SOL     OW17218   0.976   6.952   1.165 -0.1633 -0.0029 -0.5414
 5440SOL    HW117219   0.982   7.010   1.246 -1.1289 -0.1547 -0.3537
 5440SOL    HW217220   0.905   6.884   1.177 -1.2218  0.7766 -1.9986
 5441SOL     OW17221   4.033   0.862   2.947  0.2605 -0.1128 -0.4301
 5441SOL    HW117222   4.057   0.928   2.876  0.3957  0.5707  0.2384
 5441SOL    HW217223   3.988   0.783   2.905 -0.8659  0.8681 -1.1390
 5442SOL     OW17224   4.302   5.426   3.516 -0.4649  0.0179 -0.4425
 5442SOL    HW117225   4.334   5.439   3.422  0.9462  0.6887  0.1112
 5442SOL    HW217226   4.234   5.496   3.538 -2.2446 -1.2782 -1.5485
 5443SOL     OW17227   2.207   5.891   4.631  0.1705 -0.3310 -0.0656
 5443SOL    HW117228   2.265   5.858   4.706 -0.7693 -0.1397  0.7592
 5443SOL    HW217229   2.195   5.989   4.639  0.9066 -0.1350 -1.0827
 5444SOL     OW17230   2.626   1.599   4.782  0.2850 -0.0784  0.8828
 5444SOL    HW117231   2.721   1.627   4.800  1.2142 -0.6920 -2.3443
 5444SOL    HW217232   2.572   1.680   4.758  0.7477 -0.0235 -0.0122
 5445SOL     OW17233   6.350   3.172   4.704 -0.5991 -0.5866 -0.2128
 5445SOL    HW117234   6.383   3.138   4.792  0.1599  2.4003  0.7581
 5445SOL    HW217235   6.251   3.185   4.708 -0.9212 -2.5307 -0.6281
 5446SOL     OW17236   6.945   6.627   5.141 -0.0814  0.0933  0.5521
 5446SOL    HW117237   6.914   6.604   5.233  1.2402  1.3896  1.3531
 5446SOL    HW217238   7.045   6.621   5.137  0.0977  2.5507 -0.0452
 5447SOL     OW17239   2.687   2.532   5.205 -0.3467 -0.0050 -0.3402
 5447SOL    HW117240   2.772   2.479   5.206 -0.0792  0.4220 -0.2792
 5447SOL    HW217241   2.614   2.477   5.246 -0.1277 -0.4131 -0.4838
 5448SOL     OW17242   4.407   3.593   6.134  0.1427 -0.3194 -0.2863
 5448SOL    HW117243   4.361   3.510   6.164  1.5195 -1.2962 -0.7881
 5448SOL    HW217244   4.436   3.582   6.039 -0.0562  0.9255 -0.5068
 5449SOL     OW17245   3.289   1.796   0.435  0.5149  0.3548 -0.4312
 5449SOL    HW117246   3.218   1.814   0.504 -0.3662 -0.8962 -0.9588
 5449SOL    HW217247   3.246   1.756   0.354  1.8390 -0.4717 -0.7498
 5450SOL     OW17248   1.895   1.243   2.283  0.7306 -0.0789 -0.1785
 5450SOL    HW117249   1.971   1.308   2.287  0.1603  0.5637  0.6239
 5450SOL    HW217250   1.926   1.157   2.243  1.1962  1.1168 -2.6182
 5451SOL     OW17251   1.827   6.455   5.453 -0.5565  0.3222  0.7723
 5451SOL    HW117252   1.759   6.523   5.481  0.9626  0.9139  3.2614
 5451SOL    HW217253   1.914   6.500   5.434 -1.1341 -0.1072 -4.5345
 5452SOL     OW17254   0.702   4.818   0.613  0.1479  0.5026 -0.0740
 5452SOL    HW117255   0.703   4.721   0.639  1.7281  0.6871  0.6510
 5452SOL    HW217256   0.737   4.827   0.519 -2.3682  0.1712 -1.1212
 5453SOL     OW17257   6.301   5.274   2.351 -0.5219 -0.5751 -0.2480
 5453SOL    HW117258   6.315   5.216   2.272  1.0128 -0.4347 -0.1029
 5453SOL    HW217259   6.362   5.246   2.425  1.3382  2.0455 -0.6478
 5454SOL     OW17260   0.348   4.895   1.891 -0.3872 -0.0772 -0.0373
 5454SOL    HW117261   0.304   4.861   1.974 -0.0375  0.3898  0.3428
 5454SOL    HW217262   0.382   4.818   1.837 -0.2656 -0.3640  0.4449
 5455SOL     OW17263   0.972   3.752   0.867 -0.0202 -0.1886  0.0319
 5455SOL    HW117264   1.041   3.745   0.795  0.3226 -1.5621  0.4650
 5455SOL    HW217265   0.885   3.779   0.827  0.3258 -0.2624 -0.7964
 5456SOL     OW17266   3.567   6.065   4.856  0.0457 -0.4581 -0.0849
 5456SOL    HW117267   3.585   5.968   4.866  0.0716 -0.8979 -3.2333
 5456SOL    HW217268   3.578   6.091   4.760 -1.7502  2.2817  0.3351
 5457SOL     OW17269   5.283   2.174   6.939  0.1239  0.3992 -0.0036
 5457SOL    HW117270   5.382   2.167   6.928 -0.0924  0.2652 -2.4513
 5457SOL    HW217271   5.251   2.260   6.900 -0.6779  0.7259  1.3272
 5458SOL     OW17272   1.315   3.505   0.600  0.7228  0.3690 -0.5187
 5458SOL    HW117273   1.290   3.434   0.533  0.6747  1.0160 -1.1932
 5458SOL    HW217274   1.408   3.537   0.582  1.7096 -1.2371  1.2975
 5459SOL     OW17275   2.106   4.633   0.544  0.7285 -0.3860  0.1976
 5459SOL    HW117276   2.053   4.557   0.582  1.8252 -0.5970  1.3584
 5459SOL    HW217277   2.194   4.599   0.512  1.2358  0.3942  0.7404
 5460SOL     OW17278   2.837   1.309   2.068 -0.1460 -0.0865  0.0422
 5460SOL    HW117279   2.877   1.354   2.148  0.2026  0.9134 -0.6615
 5460SOL    HW217280   2.851   1.211   2.074 -1.0778 -0.1517  1.7253
 5461SOL     OW17281   5.497   0.965   3.499  0.4916  0.5751 -0.1962
 5461SOL    HW117282   5.564   0.972   3.425  0.4015  0.8215 -0.2546
 5461SOL    HW217283   5.512   0.879   3.549 -1.1945 -0.9633 -2.1730
 5462SOL     OW17284   1.464   0.586   5.887 -0.6332 -0.3394 -0.8628
 5462SOL    HW117285   1.466   0.594   5.787  1.1177 -0.4168 -0.8688
 5462SOL    HW217286   1.386   0.637   5.923  0.5250  2.4361 -2.0607
 5463SOL     OW17287   6.610   2.842   1.395 -0.0932 -0.1430 -0.2578
 5463SOL    HW117288   6.628   2.927   1.445 -0.9745 -0.2602  0.2764
 5463SOL    HW217289   6.689   2.781   1.404  1.1836  1.1556 -1.8686
 5464SOL     OW17290   0.035   6.454   4.705  0.5839  0.0395  0.4238
 5464SOL    HW117291   0.013   6.382   4.772  0.6434 -0.9829 -0.6257
 5464SOL    HW217292   0.065   6.412   4.620  1.1545  1.3370 -0.0436
 5465SOL     OW17293   3.718   6.052   4.095  0.3039  0.6245 -0.1756
 5465SOL    HW117294   3.794   6.059   4.160  1.5314  3.2058 -1.7255
 5465SOL    HW217295   3.749   6.006   4.012  0.1629  1.5930 -0.7759
 5466SOL     OW17296   6.584   4.016   6.466  0.3209  0.6533 -0.2785
 5466SOL    HW117297   6.665   4.059   6.506 -0.5056  1.4392  0.5864
 5466SOL    HW217298   6.594   4.012   6.367  1.0487  1.5145 -0.2511
 5467SOL     OW17299   5.254   2.965   2.539 -0.1305  0.0554  0.4608
 5467SOL    HW117300   5.218   3.057   2.528 -1.5102 -0.3767  1.1490
 5467SOL    HW217301   5.273   2.948   2.636  3.1894  0.6837  0.0448
 5468SOL     OW17302   5.430   2.373   4.199  0.5176  0.4927 -0.0889
 5468SOL    HW117303   5.495   2.299   4.217  1.4102  1.3921  0.4718
 5468SOL    HW217304   5.351   2.336   4.150  1.3898 -0.6546 -0.6951
 5469SOL     OW17305   5.470   5.135   0.833 -0.4073  0.0295  0.6475
 5469SOL    HW117306   5.473   5.226   0.875 -1.5182  0.2558  0.2825
 5469SOL    HW217307   5.437   5.144   0.739  0.6211 -0.6292  0.2140
 5470SOL     OW17308   0.529   4.833   4.116 -0.2988 -0.3301  0.2944
 5470SOL    HW117309   0.594   4.816   4.042 -2.6206  0.0652 -1.9574
 5470SOL    HW217310   0.547   4.923   4.155 -0.4577  0.4844 -1.4207
 5471SOL     OW17311   3.694   5.239   1.318  0.0790  0.1454 -0.1292
 5471SOL    HW117312   3.727   5.268   1.408 -3.0258 -2.0399  1.8956
 5471SOL    HW217313   3.700   5.140   1.309 -1.6335  0.0927 -1.4160
 5472SOL     OW17314   2.800   5.826   6.321  0.1530 -0.2323  0.0778
 5472SOL    HW117315   2.751   5.745   6.351 -0.0379 -0.2408 -0.2459
 5472SOL    HW217316   2.898   5.812   6.332  0.2144 -1.0345 -1.1948
 5473SOL     OW17317   2.849   2.301   4.037  0.3961  0.2810 -0.6547
 5473SOL    HW117318   2.903   2.291   3.953  1.3754 -1.7126  0.1527
 5473SOL    HW217319   2.759   2.258   4.024  1.2469 -1.7436 -0.1195
 5474SOL     OW17320   2.002   3.961   3.842 -0.1455 -0.2242  0.0552
 5474SOL    HW117321   2.031   3.875   3.885 -1.1916 -1.0568 -0.8658
 5474SOL    HW217322   2.063   3.982   3.766  1.4513  1.0326  1.5930
 5475SOL     OW17323   4.152   1.886   1.473  0.0417  0.3367  0.2133
 5475SOL    HW117324   4.102   1.864   1.389 -2.2637  2.1294  1.0145
 5475SOL    HW217325   4.101   1.853   1.552  0.8503  0.9869  1.0314
 5476SOL     OW17326   2.891   4.367   6.078 -0.8652  0.2105  0.6691
 5476SOL    HW117327   2.854   4.275   6.085 -0.6976  0.0043 -0.8518
 5476SOL    HW217328   2.821   4.429   6.045 -0.4739  0.2549 -0.0979
 5477SOL     OW17329   2.091   4.918   3.770 -0.7232  0.0707 -0.0174
 5477SOL    HW117330   2.143   4.876   3.844  0.6394  2.0560  0.2200
 5477SOL    HW217331   2.069   5.013   3.794 -1.6182  0.2766 -1.5172
 5478SOL     OW17332   6.641   5.457   5.674  0.2755  0.7000  0.0966
 5478SOL    HW117333   6.606   5.427   5.763  0.2871  0.7164  0.1064
 5478SOL    HW217334   6.716   5.521   5.687  0.7914  0.1078  0.0746
 5479SOL     OW17335   4.410   0.855   5.745 -0.6301  0.6149 -0.0816
 5479SOL    HW117336   4.316   0.887   5.736 -0.8131 -0.3410 -2.3725
 5479SOL    HW217337   4.472   0.920   5.703 -0.2320  1.2169  1.3778
 5480SOL     OW17338   6.562   2.581   3.522  0.0279  0.9678  0.4211
 5480SOL    HW117339   6.521   2.586   3.431  0.1409 -2.3971  0.0538
 5480SOL    HW217340   6.492   2.603   3.591 -1.7426 -1.7597 -0.3221
 5481SOL     OW17341   1.992   6.474   6.327 -0.3288 -0.0116  0.0485
 5481SOL    HW117342   1.975   6.545   6.395 -1.3670  1.7323 -1.9222
 5481SOL    HW217343   2.046   6.511   6.252 -1.5540 -1.0392 -1.4140
 5482SOL     OW17344   3.446   3.732   1.545 -0.3504 -0.3082  0.5220
 5482SOL    HW117345   3.418   3.701   1.635 -0.8723  0.0703  0.4910
 5482SOL    HW217346   3.454   3.653   1.483  0.5878 -0.6370  1.0460
 5483SOL     OW17347   2.174   2.184   3.973  0.5034 -0.4585 -0.1310
 5483SOL    HW117348   2.266   2.189   4.011  0.7667 -1.1559 -0.6689
 5483SOL    HW217349   2.107   2.208   4.043  1.0698 -0.3203  0.3627
 5484SOL     OW17350   5.365   6.155   3.700  0.3062  0.3418 -0.0301
 5484SOL    HW117351   5.345   6.180   3.794 -1.6782 -0.5087 -0.1887
 5484SOL    HW217352   5.420   6.071   3.699  2.2748  1.5472  0.3607
 5485SOL     OW17353   2.550   3.939   5.825  0.4599  0.0783 -0.5770
 5485SOL    HW117354   2.526   3.934   5.728 -0.0058  1.1573 -0.5258
 5485SOL    HW217355   2.541   4.033   5.857  0.2912 -0.3207  0.5991
 5486SOL     OW17356   2.243   6.856   4.440 -0.5402 -0.0137 -0.1592
 5486SOL    HW117357   2.228   6.869   4.538  0.7446 -0.0172  0.0562
 5486SOL    HW217358   2.324   6.907   4.412 -0.5747 -0.4621 -1.1147
 5487SOL     OW17359   2.528   3.689   6.333 -1.0575  0.2955  1.0800
 5487SOL    HW117360   2.498   3.751   6.260  0.9380 -0.1662 -0.2260
 5487SOL    HW217361   2.562   3.743   6.411  0.1558  0.8944  0.1777
 5488SOL     OW17362   5.044   1.831   0.724 -0.5333  0.0838  0.4777
 5488SOL    HW117363   5.001   1.805   0.638 -0.6698  0.3317  0.4707
 5488SOL    HW217364   4.979   1.883   0.780 -0.0066  1.1513  0.1334
 5489SOL     OW17365   6.758   5.620   1.966 -0.6339 -0.0194  0.0582
 5489SOL    HW117366   6.752   5.709   2.012  0.5283  0.4780 -0.7056
 5489SOL    HW217367   6.672   5.570   1.979 -1.0614  0.9281  1.0655
 5490SOL     OW17368   1.897   0.628   4.313 -0.2469  0.2167  0.6906
 5490SOL    HW117369   1.830   0.580   4.256  0.2942  0.0800  0.1617
 5490SOL    HW217370   1.892   0.593   4.407 -0.9610  0.2596  0.6771
 5491SOL     OW17371   1.655   1.675   0.776 -0.0506  0.8461 -0.3935
 5491SOL    HW117372   1.692   1.650   0.866 -0.1540 -0.7748 -0.7818
 5491SOL    HW217373   1.560   1.704   0.786  0.3352  1.9924  0.1795
 5492SOL     OW17374   0.002   3.501   0.020 -0.5257  0.7657 -0.2230
 5492SOL    HW117375  -0.072   3.502   0.087  0.3457 -0.4756  0.8214
 5492SOL    HW217376  -0.023   3.443  -0.057 -0.3422 -0.3654  0.5371
 5493SOL     OW17377   4.098   3.656   2.349  0.0704  0.3497  0.3151
 5493SOL    HW117378   4.049   3.729   2.397  1.1844  0.4489  1.3603
 5493SOL    HW217379   4.196   3.679   2.346  0.1613 -0.1499 -1.1344
 5494SOL     OW17380   6.625   4.214   0.004  0.7872 -0.0356 -0.0895
 5494SOL    HW117381   6.534   4.236  -0.032  0.6681  1.1088  0.8675
 5494SOL    HW217382   6.668   4.147  -0.056  0.3463  1.3205 -2.0500
 5495SOL     OW17383   3.734   3.548   1.257  0.5453  0.1709  0.9047
 5495SOL    HW117384   3.787   3.626   1.222 -0.2218  0.6460  0.7772
 5495SOL    HW217385   3.792   3.491   1.314  1.3253  0.4165  0.3737
 5496SOL     OW17386   4.676   1.039   5.108  0.7211  0.2655  0.5448
 5496SOL    HW117387   4.650   0.978   5.033 -0.2127  1.1748  0.1175
 5496SOL    HW217388   4.773   1.061   5.100  0.4022  1.2370 -1.0621
 5497SOL     OW17389   1.091   1.819   1.493  0.7650 -0.4450 -0.2449
 5497SOL    HW117390   1.019   1.834   1.560  0.0405  0.1358 -1.1218
 5497SOL    HW217391   1.179   1.848   1.531  0.0345  2.1733 -0.3468
 5498SOL     OW17392   1.754   4.202   4.218  0.3417 -0.0529 -0.4038
 5498SOL    HW117393   1.826   4.141   4.186  2.2633  1.0750  1.5741
 5498SOL    HW217394   1.670   4.183   4.167  1.9933 -1.3874 -2.8260
 5499SOL     OW17395   6.993   6.327   4.033 -0.2975  0.2864 -0.2958
 5499SOL    HW117396   6.971   6.423   4.047  0.6091  0.4727 -0.1375
 5499SOL    HW217397   6.994   6.307   3.935  0.1324  0.5844 -0.3524
 5500SOL     OW17398   1.568   1.778   6.508  0.4524  0.2540  0.2926
 5500SOL    HW117399   1.492   1.724   6.545 -1.6244  1.9190 -1.2416
 5500SOL    HW217400   1.630   1.804   6.582 -0.7628 -0.6730  1.7004
 5501SOL     OW17401   2.853   0.640   0.684  0.4278  0.0135 -0.4620
 5501SOL    HW117402   2.852   0.613   0.781 -0.7437  0.4177 -0.3488
 5501SOL    HW217403   2.760   0.656   0.653  0.8935  1.5705 -1.1780
 5502SOL     OW17404   6.515   5.873   5.292 -0.0686  0.6692 -0.3053
 5502SOL    HW117405   6.479   5.869   5.385  1.6912  1.2455  0.4442
 5502SOL    HW217406   6.453   5.824   5.230 -0.6627 -0.7690  1.3545
 5503SOL     OW17407   0.333   3.786   1.244  0.1574 -0.5454 -0.2260
 5503SOL    HW117408   0.274   3.785   1.325  0.8280 -0.5620  0.2741
 5503SOL    HW217409   0.277   3.788   1.162 -0.6015 -3.7300  0.1171
 5504SOL     OW17410   4.258   0.918   5.114  0.0468  0.5849 -0.2502
 5504SOL    HW117411   4.326   0.887   5.048 -0.1196  1.0519 -0.6375
 5504SOL    HW217412   4.182   0.963   5.067 -0.1460  0.7893  0.2449
 5505SOL     OW17413   2.213   5.634   4.239  0.1506 -0.3169 -0.2767
 5505SOL    HW117414   2.159   5.555   4.212 -0.2892 -0.8610  2.0266
 5505SOL    HW217415   2.162   5.687   4.307  1.9006 -0.0348  0.8622
 5506SOL     OW17416   0.917   2.520   0.886 -0.4830  0.2213 -0.0408
 5506SOL    HW117417   0.937   2.575   0.967  1.6968 -0.3385 -0.1388
 5506SOL    HW217418   0.858   2.444   0.911 -0.1271  0.2559  0.9620
 5507SOL     OW17419   4.616   0.188   5.170  0.0131  0.1944  0.0606
 5507SOL    HW117420   4.632   0.099   5.214 -0.9389 -0.0005  0.0403
 5507SOL    HW217421   4.559   0.245   5.230  0.5528  0.7715  0.0388
 5508SOL     OW17422   1.552   2.133   0.081  0.4381 -0.1908  0.0093
 5508SOL    HW117423   1.458   2.160   0.101  0.6561  1.4295 -0.9571
 5508SOL    HW217424   1.610   2.154   0.161  0.3235  0.8193 -0.1521
 5509SOL     OW17425   6.635   6.100   0.297  0.4459  0.3173 -0.6424
 5509SOL    HW117426   6.547   6.147   0.298 -0.5870 -1.4557  1.5303
 5509SOL    HW217427   6.704   6.158   0.341 -0.7043  0.0786  1.6370
 5510SOL     OW17428   4.802   5.168   6.410  0.3972 -0.2020 -0.0491
 5510SOL    HW117429   4.718   5.220   6.420  0.2814 -0.3346 -0.3235
 5510SOL    HW217430   4.828   5.127   6.497  1.1519  1.3256  0.4736
 5511SOL     OW17431   0.789   2.355   6.418  0.6026  0.2042 -0.1040
 5511SOL    HW117432   0.749   2.362   6.509 -0.9007  2.2182 -0.8445
 5511SOL    HW217433   0.735   2.292   6.362  1.1147 -0.4929  0.1762
 5512SOL     OW17434   3.203   1.826   3.783 -0.0230 -0.2095 -0.4629
 5512SOL    HW117435   3.238   1.813   3.690 -0.6095  0.6402 -0.8139
 5512SOL    HW217436   3.108   1.857   3.778 -0.7612 -2.1357  0.4532
 5513SOL     OW17437   3.606   3.424   6.008 -0.0093 -0.3259  0.0712
 5513SOL    HW117438   3.664   3.351   6.043  1.3143  0.5627 -0.1848
 5513SOL    HW217439   3.592   3.410   5.909  0.0045 -0.3829  0.0772
 5514SOL     OW17440   2.295   6.443   6.201 -0.0930  0.4427  1.2693
 5514SOL    HW117441   2.233   6.374   6.163 -0.1775  0.2051  1.8231
 5514SOL    HW217442   2.377   6.398   6.237  0.3669  0.7459  0.6302
 5515SOL     OW17443   1.283   5.017   3.967 -0.3435 -0.1825 -0.1278
 5515SOL    HW117444   1.288   4.947   3.896  0.8859 -0.5461  0.2861
 5515SOL    HW217445   1.287   5.108   3.926 -2.9984 -0.2778 -0.7587
 5516SOL     OW17446   2.842   3.011   5.435 -0.4409 -0.0307 -0.4922
 5516SOL    HW117447   2.743   3.028   5.436 -0.1530  2.6922 -3.1875
 5516SOL    HW217448   2.860   2.921   5.395 -1.7901 -0.6869  0.3008
 5517SOL     OW17449   1.568   3.408   3.369 -0.1272  0.0179 -1.0652
 5517SOL    HW117450   1.641   3.476   3.378  0.1938 -0.5373  1.0544
 5517SOL    HW217451   1.608   3.318   3.352 -0.2990 -0.2449 -0.1473
 5518SOL     OW17452   5.147   5.856   0.498  0.0378  0.5060  0.3571
 5518SOL    HW117453   5.164   5.775   0.554 -0.4086  2.0290  2.8616
 5518SOL    HW217454   5.051   5.883   0.506  0.5623  2.2884  1.1025
 5519SOL     OW17455   4.566   2.296   3.728 -0.1790  0.1875  0.2152
 5519SOL    HW117456   4.487   2.242   3.758 -1.8730  1.3407 -1.8846
 5519SOL    HW217457   4.581   2.372   3.792  0.8812 -1.4309  1.9967
 5520SOL     OW17458   5.186   0.380   1.176  0.2354 -0.3948 -0.5710
 5520SOL    HW117459   5.189   0.399   1.077 -0.2366  1.3098 -0.2741
 5520SOL    HW217460   5.201   0.464   1.227 -0.8400 -1.0267  0.8420
 5521SOL     OW17461   4.908   3.546   2.345 -0.1588  0.1898 -0.7463
 5521SOL    HW117462   4.828   3.542   2.286  0.3696  1.3537 -1.5872
 5521SOL    HW217463   4.991   3.544   2.289  0.4544 -1.8002  0.1500
 5522SOL     OW17464   5.817   4.456   0.293  0.2318  0.2886 -0.2019
 5522SOL    HW117465   5.788   4.494   0.205  2.2572  1.2900 -0.4919
 5522SOL    HW217466   5.862   4.527   0.347  1.1758 -0.8897  0.6316
 5523SOL     OW17467   6.374   6.909   2.868  0.4760 -0.0454  0.0450
 5523SOL    HW117468   6.396   6.813   2.852 -2.2185 -0.6118 -0.8839
 5523SOL    HW217469   6.330   6.919   2.957  1.7923  0.5677  0.6550
 5524SOL     OW17470   1.633   5.487   5.838 -0.3498  0.4053 -0.3370
 5524SOL    HW117471   1.588   5.455   5.921 -1.4987 -0.0226 -1.0892
 5524SOL    HW217472   1.637   5.587   5.838  0.2035  0.3961  0.4834
 5525SOL     OW17473   6.972   2.942   2.642  0.4018  0.2232 -0.0835
 5525SOL    HW117474   6.909   2.913   2.714 -0.7632 -0.6093 -1.3752
 5525SOL    HW217475   7.064   2.951   2.679 -0.5607  2.2985  2.0645
 5526SOL     OW17476   5.145   4.793   2.954  0.4025  0.0704 -0.2475
 5526SOL    HW117477   5.199   4.722   2.908  0.1189  0.7320 -1.6762
 5526SOL    HW217478   5.106   4.757   3.038  0.1568 -1.5112 -1.0126
 5527SOL     OW17479   4.941   3.313   4.692 -0.0247 -0.6834  0.3374
 5527SOL    HW117480   4.879   3.237   4.674  1.1797 -2.1044  1.9525
 5527SOL    HW217481   4.892   3.386   4.740 -0.9029 -0.9080 -0.1977
 5528SOL     OW17482   0.976   1.182   3.510 -0.3011 -1.2970 -0.1580
 5528SOL    HW117483   0.927   1.269   3.522 -1.6168 -1.7412 -1.9254
 5528SOL    HW217484   0.985   1.137   3.599 -1.3261 -0.2463  0.5172
 5529SOL     OW17485   3.202   1.271   2.813  0.1293 -0.2526  0.2673
 5529SOL    HW117486   3.103   1.280   2.826  0.2045 -0.2222  0.8300
 5529SOL    HW217487   3.220   1.222   2.728 -0.4408 -2.7462  1.4683
 5530SOL     OW17488   1.390   2.324   0.555  0.3529 -0.1470  0.5194
 5530SOL    HW117489   1.337   2.244   0.530 -0.0309  0.0616  0.6530
 5530SOL    HW217490   1.388   2.391   0.481  0.4463 -0.1466  0.5167
 5531SOL     OW17491   4.301   3.491   1.240 -0.3582 -0.1913 -0.1125
 5531SOL    HW117492   4.288   3.587   1.215 -0.9737 -0.5520 -1.2857
 5531SOL    HW217493   4.296   3.435   1.157 -3.0586 -1.5319  0.8287
 5532SOL     OW17494   1.330   2.097   3.271  0.1287 -0.5391 -0.3348
 5532SOL    HW117495   1.393   2.171   3.296  0.0015 -0.2810 -0.7608
 5532SOL    HW217496   1.378   2.030   3.214  0.1666 -0.6364 -0.1893
 5533SOL     OW17497   3.902   1.429   4.378  0.4637  0.4819 -0.0514
 5533SOL    HW117498   4.000   1.418   4.391  0.4244  0.5522  0.3160
 5533SOL    HW217499   3.858   1.339   4.382  0.5773  0.3849 -0.8024
 5534SOL     OW17500   6.767   2.815   4.871  0.4402  0.1966 -0.1456
 5534SOL    HW117501   6.780   2.756   4.951  0.5728  1.2185  0.6072
 5534SOL    HW217502   6.844   2.802   4.808 -0.0472 -1.1757 -0.4911
 5535SOL     OW17503   0.820   1.934   4.582  0.2565 -0.0745  0.3867
 5535SOL    HW117504   0.736   1.973   4.544  0.2678  0.4002  0.8335
 5535SOL    HW217505   0.874   2.007   4.624  1.2122 -0.2642 -0.4778
 5536SOL     OW17506   2.156   1.036   5.627  0.2446  0.6582  0.0646
 5536SOL    HW117507   2.160   1.070   5.720 -0.4113 -0.0812  0.3696
 5536SOL    HW217508   2.243   1.057   5.580  0.3380  1.5718  0.6323
 5537SOL     OW17509   2.766   1.816   3.098 -0.8691  0.1795  0.6872
 5537SOL    HW117510   2.863   1.808   3.076 -1.2983  0.6501 -1.6744
 5537SOL    HW217511   2.724   1.725   3.099 -1.0590  0.1510 -2.0224
 5538SOL     OW17512   5.008   5.559   5.890  0.0655  0.7791 -0.2010
 5538SOL    HW117513   4.984   5.499   5.966 -0.2026 -0.1068 -0.9537
 5538SOL    HW217514   5.025   5.503   5.808 -0.0600  1.7249 -0.8911
 5539SOL     OW17515   3.334   2.552   0.199 -0.1067  0.1318 -0.2305
 5539SOL    HW117516   3.293   2.563   0.290 -0.8773  0.0311 -0.5521
 5539SOL    HW217517   3.433   2.565   0.204 -0.1353  0.0265  0.6373
 5540SOL     OW17518   4.211   6.107   1.577 -0.5006  0.2709 -0.1954
 5540SOL    HW117519   4.150   6.043   1.623  0.6919 -0.4731  0.3947
 5540SOL    HW217520   4.157   6.179   1.533 -1.8323 -0.8119 -0.3915
 5541SOL     OW17521   4.208   0.157   0.448 -0.0382  0.1355 -0.3465
 5541SOL    HW117522   4.143   0.129   0.519  0.7270 -0.9027 -0.0195
 5541SOL    HW217523   4.225   0.080   0.386  0.8646  0.3826 -0.4278
 5542SOL     OW17524   6.393   5.443   5.012  0.1165 -0.8430  0.0695
 5542SOL    HW117525   6.393   5.495   4.927  0.4608 -1.3025 -0.2117
 5542SOL    HW217526   6.332   5.364   5.003  0.3755 -1.0536  0.1513
 5543SOL     OW17527   5.113   2.649   6.025 -0.0205 -0.1786  0.3770
 5543SOL    HW117528   5.178   2.593   6.077  0.8594  0.3817 -0.0972
 5543SOL    HW217529   5.116   2.621   5.929  1.8469  1.8988 -0.2506
 5544SOL     OW17530   6.812   0.589   6.354 -0.2484  0.1683 -0.0493
 5544SOL    HW117531   6.736   0.559   6.296  1.1920 -1.1908 -1.3186
 5544SOL    HW217532   6.899   0.573   6.307  0.8647  1.6117  1.3858
 5545SOL     OW17533   4.408   1.471   1.299 -0.2625 -0.7775 -1.0847
 5545SOL    HW117534   4.361   1.458   1.212 -0.8846  0.1806 -0.9026
 5545SOL    HW217535   4.342   1.493   1.370  0.4305  0.6412 -0.8274
 5546SOL     OW17536   2.569   4.145   5.323  0.2086  0.3770  0.2467
 5546SOL    HW117537   2.524   4.090   5.254  0.0043 -0.5885  1.1315
 5546SOL    HW217538   2.600   4.231   5.282 -0.8782  0.3033 -0.7699
 5547SOL     OW17539   2.237   5.576   4.604  0.2080  0.1265 -0.1637
 5547SOL    HW117540   2.319   5.607   4.557  2.1584 -3.0437  0.8711
 5547SOL    HW217541   2.158   5.582   4.542  1.4019  2.0372 -1.6024
 5548SOL     OW17542   1.178   4.698   5.986 -0.5789  0.1389 -0.3693
 5548SOL    HW117543   1.198   4.795   5.996  0.3285  0.0998 -1.4929
 5548SOL    HW217544   1.092   4.686   5.937 -1.3884  0.3474  0.9613
 5549SOL     OW17545   3.960   3.426   0.934  0.1645 -0.6729 -0.2292
 5549SOL    HW117546   3.981   3.406   0.838  0.9594 -1.1634  0.0402
 5549SOL    HW217547   3.916   3.346   0.976 -2.1764  0.2576 -0.7281
 5550SOL     OW17548   4.417   5.830   1.712  0.1319  0.2104  0.2537
 5550SOL    HW117549   4.361   5.869   1.785  0.6569  1.0798  0.2037
 5550SOL    HW217550   4.371   5.750   1.674 -0.8406  0.6154  0.5482
 5551SOL     OW17551   0.819   0.925   3.847  0.3919 -0.3527  0.1671
 5551SOL    HW117552   0.859   1.012   3.873  2.5332 -0.9326 -0.8987
 5551SOL    HW217553   0.762   0.890   3.921  2.1305  0.4155  1.9505
 5552SOL     OW17554   6.666   0.496   0.245 -0.4431 -0.1921 -0.5195
 5552SOL    HW117555   6.682   0.469   0.150  0.8660 -1.0144 -0.0833
 5552SOL    HW217556   6.721   0.576   0.267 -1.3251  0.4721 -0.6507
 5553SOL     OW17557   0.057   6.270   0.630 -0.0968 -0.5869 -0.1796
 5553SOL    HW117558   0.044   6.306   0.538 -0.1693 -0.4869 -0.1306
 5553SOL    HW217559  -0.029   6.275   0.681 -0.1874 -1.1327 -0.2750
 5554SOL     OW17560   5.275   2.588   5.043  0.4438 -0.3140  0.3926
 5554SOL    HW117561   5.295   2.582   5.140 -0.2967 -0.2230  0.5553
 5554SOL    HW217562   5.216   2.667   5.026  0.0533 -0.6944 -0.0440
 5555SOL     OW17563   1.554   4.909   2.258  0.1924 -0.5728  0.2034
 5555SOL    HW117564   1.650   4.887   2.240  0.3843  0.0505  0.4284
 5555SOL    HW217565   1.495   4.847   2.207  0.7188 -0.7628 -0.1806
 5556SOL     OW17566   1.246   3.070   4.694 -0.5974 -0.2273 -0.1677
 5556SOL    HW117567   1.262   3.164   4.724  0.0732 -0.2938 -0.3153
 5556SOL    HW217568   1.278   3.007   4.764 -0.2548 -0.3609 -0.4435
 5557SOL     OW17569   3.009   2.249   3.803 -0.0877 -0.3774 -0.1488
 5557SOL    HW117570   3.003   2.150   3.803 -1.0102 -0.3429 -1.2082
 5557SOL    HW217571   2.990   2.284   3.711  1.6984  0.7150 -0.1646
 5558SOL     OW17572   5.164   3.779   5.355 -0.1673  0.1993  0.0304
 5558SOL    HW117573   5.249   3.803   5.401 -0.8604 -0.2996  1.6587
 5558SOL    HW217574   5.105   3.727   5.418 -1.3833 -0.0866 -1.2760
 5559SOL     OW17575   2.853   0.238   6.595 -0.1490  0.2300  0.1470
 5559SOL    HW117576   2.881   0.175   6.522 -0.4683 -0.4737  0.6223
 5559SOL    HW217577   2.846   0.188   6.681 -0.6906  0.8651  0.4774
 5560SOL     OW17578   6.655   2.610   4.690  0.0432 -0.1253  0.3505
 5560SOL    HW117579   6.674   2.653   4.779 -3.7875  1.9017  0.3964
 5560SOL    HW217580   6.605   2.525   4.704  0.7247 -0.5738  0.1146
 5561SOL     OW17581   0.904   3.662   3.734 -0.5131  0.2053 -0.1935
 5561SOL    HW117582   0.944   3.585   3.784 -1.0402  0.3835  0.5227
 5561SOL    HW217583   0.952   3.746   3.757 -1.1053  0.3720  0.4339
 5562SOL     OW17584   3.023   2.948   6.306 -0.9654  0.0538  0.4560
 5562SOL    HW117585   2.991   2.930   6.399 -0.0744 -0.9263  0.5940
 5562SOL    HW217586   2.957   2.911   6.240 -1.2413  0.1057  0.7007
 5563SOL     OW17587   6.374   4.756   0.275 -0.5512 -0.3708 -0.1855
 5563SOL    HW117588   6.418   4.727   0.360 -1.4827  1.5893  1.0693
 5563SOL    HW217589   6.443   4.781   0.208  0.2800  0.6590  0.9978
 5564SOL     OW17590   4.018   2.843   0.268 -0.3211  0.4581 -0.5253
 5564SOL    HW117591   4.109   2.815   0.298 -0.0082  1.1542 -0.8172
 5564SOL    HW217592   4.006   2.818   0.171  0.5473  2.6604 -1.2591
 5565SOL     OW17593   2.863   3.495   5.226  0.0288 -0.4346 -0.0378
 5565SOL    HW117594   2.881   3.399   5.245 -0.9073 -0.3882  1.2318
 5565SOL    HW217595   2.889   3.516   5.131  3.6309 -1.0384  0.6717
 5566SOL     OW17596   1.992   0.520   1.853  0.6231  0.6758  0.5210
 5566SOL    HW117597   1.976   0.605   1.802 -0.5370 -0.8273 -1.7882
 5566SOL    HW217598   2.073   0.474   1.816 -1.0175 -1.1155 -1.0805
 5567SOL     OW17599   1.737   4.953   0.561  0.2991  0.1795 -0.0925
 5567SOL    HW117600   1.834   4.978   0.566  0.3206  0.2416 -0.7282
 5567SOL    HW217601   1.721   4.871   0.616  0.8951 -0.3723 -0.7246
 5568SOL     OW17602   3.353   0.750   1.236 -0.0754  0.0091  0.8108
 5568SOL    HW117603   3.388   0.825   1.179 -0.7025  0.0303  0.4462
 5568SOL    HW217604   3.411   0.669   1.222 -0.3357 -0.0430 -0.0117
 5569SOL     OW17605   5.185   1.536   6.420  0.3687 -0.0612  0.2760
 5569SOL    HW117606   5.211   1.439   6.414  0.7037  0.0334  0.1640
 5569SOL    HW217607   5.268   1.592   6.417  0.2094  0.2084  0.8442
 5570SOL     OW17608   6.250   3.079   5.765  0.0833  0.5584 -0.1116
 5570SOL    HW117609   6.324   3.125   5.814 -1.5078  1.3455  1.6649
 5570SOL    HW217610   6.179   3.145   5.743 -0.3283 -0.2751 -1.3643
 5571SOL     OW17611   0.235   3.552   5.539  0.2931  0.4034  0.4581
 5571SOL    HW117612   0.182   3.468   5.535  0.8609  0.0106  1.0790
 5571SOL    HW217613   0.175   3.630   5.520 -0.2850 -0.1140  0.1253
 5572SOL     OW17614   3.430   2.525   5.990  0.3229  0.2547  0.5604
 5572SOL    HW117615   3.362   2.597   5.982  0.9939  0.9373  0.8686
 5572SOL    HW217616   3.416   2.475   6.076  1.5729  1.8812  1.7911
 5573SOL     OW17617   0.793   3.410   1.874 -0.8547  0.2445  0.3898
 5573SOL    HW117618   0.785   3.426   1.775  0.1550  0.7032  0.3658
 5573SOL    HW217619   0.876   3.357   1.892 -1.3413 -0.3405  0.9502
 5574SOL     OW17620   0.400   1.538   5.579  0.1437  0.0873 -0.1591
 5574SOL    HW117621   0.425   1.465   5.515  1.3263  1.0506 -0.8384
 5574SOL    HW217622   0.482   1.586   5.608 -0.6454  1.3700  0.0166
 5575SOL     OW17623   3.388   2.088   1.520  0.1551  0.3349 -0.3023
 5575SOL    HW117624   3.297   2.124   1.540 -0.3970 -0.2824 -1.5735
 5575SOL    HW217625   3.392   2.059   1.424  0.5146 -2.9861  0.5892
 5576SOL     OW17626   6.529   0.078   5.463  0.2955  0.4554  0.5055
 5576SOL    HW117627   6.621   0.039   5.460 -0.8208 -2.3388 -0.5442
 5576SOL    HW217628   6.464   0.013   5.424 -1.5601  4.2017 -3.4506
 5577SOL     OW17629   0.274   3.842   4.808 -0.4457 -0.0133  0.5987
 5577SOL    HW117630   0.203   3.838   4.738  0.0179 -2.7818  0.1736
 5577SOL    HW217631   0.304   3.937   4.820 -0.7830  0.6244 -2.7003
 5578SOL     OW17632   4.646   5.399   6.437 -0.5503  0.4515 -0.5738
 5578SOL    HW117633   4.569   5.383   6.375 -0.7044  0.3442 -0.3586
 5578SOL    HW217634   4.611   5.434   6.524 -0.5145 -1.0033  0.0583
 5579SOL     OW17635   5.362   4.877   4.506 -0.3285 -0.6571  0.5954
 5579SOL    HW117636   5.317   4.800   4.551 -1.7211 -0.6338 -0.6486
 5579SOL    HW217637   5.310   4.961   4.523  0.2771 -0.2823  0.6271
 5580SOL     OW17638   5.179   1.472   1.937 -0.1229  0.6421  0.0235
 5580SOL    HW117639   5.100   1.486   1.878 -0.8439  1.6568  1.1772
 5580SOL    HW217640   5.169   1.384   1.984  1.4631 -1.1770 -2.7875
 5581SOL     OW17641   0.766   3.240   7.010  0.0753 -0.5436  0.1956
 5581SOL    HW117642   0.837   3.294   7.056  1.3671 -0.6796 -1.5453
 5581SOL    HW217643   0.698   3.302   6.971  0.3753 -0.2765  0.0819
 5582SOL     OW17644   3.369   4.175   3.391  0.4506  0.2679  0.0934
 5582SOL    HW117645   3.295   4.237   3.418  1.3310  0.9674  0.9928
 5582SOL    HW217646   3.395   4.118   3.468  0.9268  0.0975 -0.1869
 5583SOL     OW17647   3.992   5.545   0.053  0.2570  0.2373 -0.3240
 5583SOL    HW117648   4.061   5.512   0.117  0.3077 -0.0707 -0.5345
 5583SOL    HW217649   3.951   5.628   0.089 -0.1760 -0.2865  0.4234
 5584SOL     OW17650   0.429   3.191   3.161  0.3335 -0.4139  0.1366
 5584SOL    HW117651   0.454   3.264   3.224  0.3055  0.1089 -0.4451
 5584SOL    HW217652   0.506   3.173   3.099  0.2501 -0.7070  0.1133
 5585SOL     OW17653   5.102   1.037   4.080 -0.2649 -0.0258  0.2171
 5585SOL    HW117654   5.004   1.054   4.096 -0.6556  0.7599 -2.4863
 5585SOL    HW217655   5.151   1.123   4.080  0.6201 -0.4864  2.3373
 5586SOL     OW17656   2.408   1.936   6.884 -0.4293 -0.3744 -0.3261
 5586SOL    HW117657   2.440   1.858   6.830 -2.3501 -0.4776 -1.3832
 5586SOL    HW217658   2.410   1.913   6.981  0.2098 -1.2625 -0.5356
 5587SOL     OW17659   2.809   6.381   3.714 -0.5997  0.1391  0.4532
 5587SOL    HW117660   2.739   6.362   3.646 -0.8465 -1.1602  1.0238
 5587SOL    HW217661   2.789   6.467   3.761 -0.9229  0.5766 -0.4702
 5588SOL     OW17662   5.328   1.069   6.341 -0.4974 -0.5174  0.0571
 5588SOL    HW117663   5.318   0.972   6.364  0.4803 -0.8128 -0.6936
 5588SOL    HW217664   5.358   1.077   6.245 -2.2706  0.5871 -0.4408
 5589SOL     OW17665   6.413   2.406   6.966 -0.1088 -0.1169  0.2962
 5589SOL    HW117666   6.362   2.355   7.035 -2.1404  0.4112 -0.7441
 5589SOL    HW217667   6.375   2.387   6.875  1.7438  0.1117 -0.5775
 5590SOL     OW17668   5.896   4.993   4.841 -0.3003  0.3484 -0.2957
 5590SOL    HW117669   5.797   4.982   4.850 -0.2131  0.2928  0.8664
 5590SOL    HW217670   5.936   4.906   4.812 -0.5832  0.3663 -0.7544
 5591SOL     OW17671   4.780   0.262   6.894  0.4035  0.3438 -0.4513
 5591SOL    HW117672   4.750   0.352   6.863  1.1578  0.5212 -0.6694
 5591SOL    HW217673   4.875   0.266   6.924 -0.2975  0.2133  2.0487
 5592SOL     OW17674   1.990   3.436   2.977  0.0124  0.8566 -0.5839
 5592SOL    HW117675   2.056   3.506   2.949  1.2797 -0.8684 -2.0601
 5592SOL    HW217676   2.036   3.365   3.030 -1.4505  1.5574  1.8273
 5593SOL     OW17677   1.756   2.952   0.246 -0.7074 -0.0472  0.0625
 5593SOL    HW117678   1.772   2.969   0.343  0.2770 -0.6415  0.0125
 5593SOL    HW217679   1.780   2.857   0.225 -0.3983  0.2396 -0.8816
 5594SOL     OW17680   1.552   0.551   6.856 -0.1480 -0.7202  0.1737
 5594SOL    HW117681   1.463   0.598   6.849 -1.0070 -2.4174 -1.1029
 5594SOL    HW217682   1.615   0.589   6.788  0.7093  1.5655  2.1084
 5595SOL     OW17683   6.756   3.082   4.528 -0.3363 -0.5281 -0.3747
 5595SOL    HW117684   6.703   3.147   4.582 -1.3163 -0.8503 -0.9418
 5595SOL    HW217685   6.791   3.128   4.446 -0.5682 -0.5719 -0.4985
 5596SOL     OW17686   5.357   0.876   4.948 -0.1965 -0.5014 -0.3882
 5596SOL    HW117687   5.421   0.891   4.873 -1.0655  1.0417 -0.8743
 5596SOL    HW217688   5.274   0.833   4.913  0.3037 -1.9667  0.1383
 5597SOL     OW17689   1.218   0.035   0.687 -0.1131 -0.0827  0.0259
 5597SOL    HW117690   1.191  -0.036   0.752 -0.7873  2.3050  2.5334
 5597SOL    HW217691   1.316   0.053   0.696 -0.2235  0.3099  0.4669
 5598SOL     OW17692   1.055   3.164   3.287  0.1002  0.2047  0.3912
 5598SOL    HW117693   1.085   3.233   3.352  0.1373  0.7476 -0.1902
 5598SOL    HW217694   0.963   3.186   3.255 -0.1998 -0.4466  0.7820
 5599SOL     OW17695   5.181   3.876   3.990  0.3432 -0.2746  0.4490
 5599SOL    HW117696   5.145   3.817   4.063  0.2545 -1.2835 -0.3945
 5599SOL    HW217697   5.281   3.883   4.000  0.3063 -0.1971  0.8062
 5600SOL     OW17698   4.637   0.289   2.360 -0.0556  0.0953  0.1009
 5600SOL    HW117699   4.599   0.380   2.377 -0.2944 -0.2439  1.4923
 5600SOL    HW217700   4.658   0.244   2.447  0.3005 -1.0903 -0.5662
 5601SOL     OW17701   6.167   3.083   5.137 -0.6647 -0.0511  0.5823
 5601SOL    HW117702   6.073   3.063   5.163 -0.4904 -0.0237  1.2472
 5601SOL    HW217703   6.213   2.997   5.114 -0.7288 -0.1131  0.6808
 5602SOL     OW17704   5.848   2.815   1.684 -0.1711  0.0581  0.0609
 5602SOL    HW117705   5.858   2.742   1.752  0.9581  1.8464  1.9602
 5602SOL    HW217706   5.752   2.840   1.676 -0.6148 -1.7654 -0.8355
 5603SOL     OW17707   3.146   0.553   0.345 -0.2951 -0.7382  0.2974
 5603SOL    HW117708   3.194   0.469   0.374  1.2922  0.1916  0.4972
 5603SOL    HW217709   3.194   0.632   0.382 -1.1294  0.3104 -0.8052
 5604SOL     OW17710   0.416   1.575   4.957 -0.2232 -0.4093  0.5140
 5604SOL    HW117711   0.353   1.538   4.888  1.9961  1.1093 -2.5998
 5604SOL    HW217712   0.372   1.650   5.005 -1.0399  0.2777 -1.2006
 5605SOL     OW17713   4.235   5.169   3.629  0.0077 -0.3526  0.1776
 5605SOL    HW117714   4.230   5.113   3.546 -2.1400 -0.6444  0.4597
 5605SOL    HW217715   4.246   5.265   3.603  0.7459 -0.5832 -0.3917
 5606SOL     OW17716   3.682   2.910   1.687  0.1228  0.1484 -0.5250
 5606SOL    HW117717   3.780   2.913   1.706  0.0335  1.6623 -0.1654
 5606SOL    HW217718   3.662   2.965   1.606 -0.5726  0.8472  0.1091
 5607SOL     OW17719   0.281   0.968   1.162  0.1187  0.3430  0.3208
 5607SOL    HW117720   0.278   0.974   1.261  2.2885  0.4860  0.4222
 5607SOL    HW217721   0.347   1.035   1.126  1.0024 -1.1576 -1.0058
 5608SOL     OW17722   5.432   1.237   2.455 -0.2436 -0.1797  0.1127
 5608SOL    HW117723   5.425   1.172   2.531  0.3282 -0.3618  0.0122
 5608SOL    HW217724   5.455   1.327   2.491 -1.8458  0.1784  0.3380
 5609SOL     OW17725   6.592   5.806   0.890 -0.6068  0.0137  0.8482
 5609SOL    HW117726   6.599   5.790   0.791  0.6174 -0.0988  0.9444
 5609SOL    HW217727   6.552   5.896   0.906 -0.5682  0.1434  0.2431
 5610SOL     OW17728   5.039   4.206   2.013  0.0900 -0.2458 -0.1511
 5610SOL    HW117729   5.103   4.148   2.063  0.3831  1.0393  1.0222
 5610SOL    HW217730   4.951   4.208   2.060 -0.3580 -0.7753 -0.9250
 5611SOL     OW17731   5.529   2.645   2.239 -0.1839 -0.3357 -0.1738
 5611SOL    HW117732   5.532   2.666   2.337 -0.6696 -0.3028 -0.1643
 5611SOL    HW217733   5.435   2.653   2.206 -0.1527 -1.1272 -0.4758
 5612SOL     OW17734   1.443   0.291   0.500 -0.0773 -0.2577 -0.2653
 5612SOL    HW117735   1.382   0.277   0.422  0.8931 -0.3039 -1.0343
 5612SOL    HW217736   1.432   0.385   0.534 -0.3145 -0.1581 -0.6114
 5613SOL     OW17737   0.044   5.266   6.673 -0.1980 -0.5059  0.2501
 5613SOL    HW117738   0.100   5.305   6.600  0.8437  1.7560  2.1246
 5613SOL    HW217739  -0.052   5.286   6.655  0.2665  3.0371  1.0354
 5614SOL     OW17740   4.933   3.854   2.293  0.3510  0.2042 -0.0981
 5614SOL    HW117741   4.878   3.834   2.374  0.8190  0.2623  0.2417
 5614SOL    HW217742   5.030   3.851   2.317  0.4975  0.2257 -0.6572
 5615SOL     OW17743   0.075   2.444   0.883 -0.0172 -0.5179  0.7572
 5615SOL    HW117744   0.040   2.521   0.936  0.5461 -0.4053  0.9763
 5615SOL    HW217745   0.133   2.478   0.809  0.9596 -0.7543  1.3974
 5616SOL     OW17746   1.709   2.662   2.884  0.4540 -0.0430 -0.3408
 5616SOL    HW117747   1.766   2.583   2.906  0.8416 -0.4809 -2.6348
 5616SOL    HW217748   1.634   2.633   2.824 -0.0398  1.1488 -0.3246
 5617SOL     OW17749   2.084   5.306   6.230  0.5240 -0.4248 -0.1257
 5617SOL    HW117750   2.109   5.395   6.268  2.1551 -0.5495 -0.8361
 5617SOL    HW217751   2.165   5.261   6.193 -0.4050 -1.8763 -0.5028
 5618SOL     OW17752   5.792   5.833   4.502 -0.5113  0.0658 -0.2350
 5618SOL    HW117753   5.725   5.845   4.575  0.6355  1.4728  0.6637
 5618SOL    HW217754   5.745   5.826   4.414 -1.9337 -1.8810  0.6235
 5619SOL     OW17755   3.551   3.543   4.586  0.2775 -0.4922 -0.0399
 5619SOL    HW117756   3.530   3.574   4.679  0.3234 -0.7896  0.0705
 5619SOL    HW217757   3.640   3.579   4.558 -0.7123  1.5087 -0.8380
 5620SOL     OW17758   3.542   3.798   5.424 -0.3334  0.1403 -0.1516
 5620SOL    HW117759   3.495   3.723   5.378  0.4922  0.1650 -1.0588
 5620SOL    HW217760   3.568   3.770   5.516  1.7689 -1.4324 -1.1688
 5621SOL     OW17761   1.900   4.438   4.953  0.6948 -0.3335  0.1080
 5621SOL    HW117762   1.804   4.441   4.978  0.4224  1.6869 -0.9197
 5621SOL    HW217763   1.908   4.430   4.853  1.5577  0.0629  0.1318
 5622SOL     OW17764   5.604   5.533   4.421 -0.1149  0.2514 -0.5853
 5622SOL    HW117765   5.606   5.632   4.412 -1.7945  0.3852  0.1033
 5622SOL    HW217766   5.687   5.502   4.468  0.1284  1.3829 -0.2450
 5623SOL     OW17767   5.046   5.082   2.859  0.4306 -0.3983 -0.2370
 5623SOL    HW117768   5.066   5.162   2.915  0.2815  0.2655 -1.1153
 5623SOL    HW217769   5.056   4.999   2.915  0.7841  0.2095  0.6258
 5624SOL     OW17770   0.392   5.071   3.907  0.0784  0.0164 -0.2043
 5624SOL    HW117771   0.472   5.072   3.848  0.0752  0.0447 -0.2081
 5624SOL    HW217772   0.334   4.993   3.884  0.9652 -1.0323  0.9535
 5625SOL     OW17773   2.097   5.416   0.065 -0.0422  0.1237 -0.2504
 5625SOL    HW117774   2.189   5.388   0.092 -0.3832  0.6730  1.6754
 5625SOL    HW217775   2.093   5.431  -0.034  2.1102  0.7340 -0.2766
 5626SOL     OW17776   1.309   4.295   5.668  0.1598 -0.4847  0.7018
 5626SOL    HW117777   1.312   4.195   5.677 -0.2188 -0.5063  0.6286
 5626SOL    HW217778   1.393   4.334   5.704  0.3885 -0.8431  0.5684
 5627SOL     OW17779   0.722   6.372   5.538  0.8229 -0.6602 -0.5699
 5627SOL    HW117780   0.791   6.348   5.470  2.4927  1.1430  0.3825
 5627SOL    HW217781   0.722   6.472   5.551 -0.4566 -0.8334  1.0404
 5628SOL     OW17782   0.694   2.063   2.037 -0.2411  0.5795 -0.5671
 5628SOL    HW117783   0.786   2.075   2.074  0.4754 -2.3649 -1.1231
 5628SOL    HW217784   0.642   2.148   2.048  2.7951  2.6783 -1.0990
 5629SOL     OW17785   4.884   4.424   1.799  0.5871  0.1967 -0.9248
 5629SOL    HW117786   4.893   4.426   1.898 -1.4425 -1.3017 -0.6565
 5629SOL    HW217787   4.969   4.455   1.757  2.0712 -0.7241  1.2526
 5630SOL     OW17788   1.884   4.504   1.338  0.5947  0.4033  0.3624
 5630SOL    HW117789   1.933   4.417   1.338 -0.8756 -0.4587  0.8627
 5630SOL    HW217790   1.924   4.565   1.269  1.4185 -0.7824 -0.2373
 5631SOL     OW17791   4.555   0.072   0.338  0.2482 -0.2298  0.3088
 5631SOL    HW117792   4.619   0.106   0.269  0.6690 -2.5675 -0.5564
 5631SOL    HW217793   4.569   0.122   0.424  4.4630 -1.5905  0.6782
 5632SOL     OW17794   5.516   5.422   5.046  0.0826  0.3433  0.0877
 5632SOL    HW117795   5.553   5.498   4.994 -0.1411  0.8432  0.6496
 5632SOL    HW217796   5.590   5.360   5.073  0.0659 -0.5874 -1.8462
 5633SOL     OW17797   6.229   4.700   5.655  0.5638 -0.4640 -0.1363
 5633SOL    HW117798   6.297   4.640   5.612 -1.5369 -3.9273  0.9652
 5633SOL    HW217799   6.181   4.752   5.584  1.7260 -0.8811 -1.2718
 5634SOL     OW17800   1.185   6.525   6.929 -0.4034  0.2547 -0.0893
 5634SOL    HW117801   1.219   6.580   7.005 -0.5875 -0.0115  0.1839
 5634SOL    HW217802   1.122   6.455   6.963 -1.4201  0.8897 -0.6049
 5635SOL     OW17803   3.060   0.199   0.725 -0.1398 -0.1185 -0.4529
 5635SOL    HW117804   3.105   0.143   0.654 -2.2123 -0.5332 -1.5267
 5635SOL    HW217805   3.024   0.282   0.683 -1.6507 -0.5055  0.0435
 5636SOL     OW17806   6.185   1.176   0.026  0.1101  0.2011 -0.2183
 5636SOL    HW117807   6.192   1.175   0.125  0.0203 -0.5404 -0.2153
 5636SOL    HW217808   6.238   1.253  -0.011  3.9767 -2.0626  0.1174
 5637SOL     OW17809   4.765   5.298   3.249 -0.1604  0.4524 -0.2778
 5637SOL    HW117810   4.834   5.275   3.317  0.5057  2.0828 -0.3557
 5637SOL    HW217811   4.779   5.241   3.167  1.5128  1.1556 -0.5310
 5638SOL     OW17812   0.179   6.539   6.589 -0.0588  0.6367  0.3248
 5638SOL    HW117813   0.085   6.573   6.584  0.0047  1.0146  1.3543
 5638SOL    HW217814   0.221   6.542   6.498 -1.6908 -1.4941 -0.5713
 5639SOL     OW17815   1.044   5.859   0.515  0.8798  0.1667  0.2561
 5639SOL    HW117816   1.101   5.778   0.528 -1.5434 -2.0219 -1.6463
 5639SOL    HW217817   0.968   5.858   0.581  1.0648  1.1660  0.5087
 5640SOL     OW17818   3.030   5.429   2.284  0.6525 -0.6850 -0.0542
 5640SOL    HW117819   2.934   5.406   2.269 -0.1248  0.9431  1.9017
 5640SOL    HW217820   3.053   5.511   2.233  0.6610 -0.4302  0.3544
 5641SOL     OW17821   0.893   3.694   3.128 -0.1083 -0.0294 -0.4776
 5641SOL    HW117822   0.827   3.765   3.103 -1.3267 -0.7248  0.6276
 5641SOL    HW217823   0.844   3.609   3.149  1.1722 -0.6642  0.0506
 5642SOL     OW17824   0.860   3.130   0.782 -0.1298 -0.7094 -0.2458
 5642SOL    HW117825   0.827   3.057   0.723 -0.1358 -0.7889 -0.1443
 5642SOL    HW217826   0.960   3.125   0.789  0.2009  1.0549 -2.5986
 5643SOL     OW17827   3.096   1.625   4.038  0.7579  0.0101 -0.2800
 5643SOL    HW117828   3.130   1.700   3.981  0.2618  0.2977 -0.2061
 5643SOL    HW217829   3.035   1.662   4.109 -1.0959 -0.6468 -1.4731
 5644SOL     OW17830   5.486   0.164   4.701 -0.6341  0.6786 -0.1004
 5644SOL    HW117831   5.414   0.139   4.765 -0.7532  1.6491  0.1599
 5644SOL    HW217832   5.575   0.156   4.746 -0.6068 -0.0937 -0.2855
 5645SOL     OW17833   5.794   5.501   4.077  0.0686 -0.0963  0.2118
 5645SOL    HW117834   5.717   5.515   4.013  1.0677 -1.2872 -1.3308
 5645SOL    HW217835   5.810   5.403   4.088  0.7432  0.1248  1.3191
 5646SOL     OW17836   6.901   6.766   6.120  0.0443  0.1823  0.0834
 5646SOL    HW117837   7.000   6.752   6.124  0.0818  0.6243  0.8239
 5646SOL    HW217838   6.882   6.849   6.067  0.0336 -0.2877 -0.6518
 5647SOL     OW17839   6.059   3.906   6.484  0.2414 -0.1332  0.1496
 5647SOL    HW117840   5.973   3.899   6.534 -0.3563 -1.7418 -0.9977
 5647SOL    HW217841   6.044   3.876   6.389  1.8192  0.6600 -0.3750
 5648SOL     OW17842   1.968   0.758   6.226 -0.4157 -0.0002  0.3171
 5648SOL    HW117843   2.058   0.770   6.267 -0.5473 -1.5422  1.1049
 5648SOL    HW217844   1.932   0.847   6.199  1.1319  0.6878  0.4126
 5649SOL     OW17845   1.132   1.703   0.286  0.5466 -0.1179 -0.2620
 5649SOL    HW117846   1.204   1.634   0.295  1.2371  0.3104 -2.0837
 5649SOL    HW217847   1.054   1.663   0.237 -0.6519 -0.6590  1.9174
 5650SOL     OW17848   0.137   5.243   6.188 -0.1292  0.7177 -0.0097
 5650SOL    HW117849   0.143   5.165   6.250 -0.7581  0.4162 -0.3141
 5650SOL    HW217850   0.228   5.268   6.156 -0.0451 -0.8645 -1.1137
 5651SOL     OW17851   0.088   1.616   2.432  0.0118  0.2481 -0.4724
 5651SOL    HW117852   0.169   1.672   2.413 -0.5808  1.8868  1.4961
 5651SOL    HW217853   0.019   1.632   2.362 -0.2332  2.2145  0.1618
 5652SOL     OW17854   5.293   5.041   5.767 -0.5382  0.2448 -0.2290
 5652SOL    HW117855   5.216   5.012   5.710  0.1328 -0.9168 -0.5851
 5652SOL    HW217856   5.377   5.038   5.713 -0.2172  1.3422  0.2002
 5653SOL     OW17857   0.714   6.152   6.243 -0.3303  0.0471  0.0716
 5653SOL    HW117858   0.740   6.080   6.179 -0.1979 -0.2595  0.4674
 5653SOL    HW217859   0.769   6.145   6.326 -1.5232 -0.4936  0.8460
 5654SOL     OW17860   0.391   6.193   5.210 -0.0626 -0.3194 -0.5459
 5654SOL    HW117861   0.452   6.117   5.232  1.2544  0.8719  0.1195
 5654SOL    HW217862   0.366   6.188   5.113  0.6720 -1.1466 -0.7105
 5655SOL     OW17863   6.621   3.054   3.904  0.0100  0.3317  0.2462
 5655SOL    HW117864   6.600   3.041   4.001 -0.2756  0.6090  0.2210
 5655SOL    HW217865   6.711   3.096   3.895  0.2602 -0.1680  0.3745
 5656SOL     OW17866   2.995   3.454   7.003 -0.0457  0.1510 -0.7059
 5656SOL    HW117867   2.997   3.544   6.959  0.8944 -0.0205 -1.0253
 5656SOL    HW217868   3.088   3.419   7.013 -0.4146 -0.8816 -0.7581
 5657SOL     OW17869   4.793   2.483   2.575  0.1951 -0.1889 -0.4992
 5657SOL    HW117870   4.879   2.507   2.530 -0.9337  1.3626 -1.9316
 5657SOL    HW217871   4.813   2.438   2.662  2.4475 -1.0766 -1.3864
 5658SOL     OW17872   4.432   1.678   6.521 -0.0566 -0.4197  0.3828
 5658SOL    HW117873   4.437   1.753   6.455 -0.7141 -1.2378 -0.6469
 5658SOL    HW217874   4.341   1.677   6.564  0.6450  0.6220  1.9690
 5659SOL     OW17875   3.050   3.866   3.007  0.3620  0.3138  0.1457
 5659SOL    HW117876   3.072   3.944   2.948  2.4022  0.9522  1.6765
 5659SOL    HW217877   3.089   3.880   3.098 -2.6078 -0.6878  1.7118
 5660SOL     OW17878   6.107   1.318   0.556  0.0971  0.1295 -0.0792
 5660SOL    HW117879   6.053   1.240   0.588 -0.1713 -0.0120 -0.8642
 5660SOL    HW217880   6.087   1.398   0.614  1.2530 -0.6562  1.4737
 5661SOL     OW17881   5.870   4.419   5.100  0.0914  0.9631 -0.3327
 5661SOL    HW117882   5.831   4.403   5.191  0.8523 -0.7868 -0.2707
 5661SOL    HW217883   5.932   4.496   5.103 -2.0354  2.7764 -0.0649
 5662SOL     OW17884   2.333   4.782   3.170  0.4284 -0.1817  0.3145
 5662SOL    HW117885   2.343   4.698   3.224  3.3190  0.2874  0.6537
 5662SOL    HW217886   2.236   4.800   3.156 -0.3701 -2.0826  2.5712
 5663SOL     OW17887   1.745   3.061   7.013  0.6463 -0.1879  0.0795
 5663SOL    HW117888   1.676   3.021   6.953  1.2053 -0.7524 -0.1916
 5663SOL    HW217889   1.735   3.024   7.105 -1.6114  2.2688  0.9363
 5664SOL     OW17890   1.283   4.035   2.453 -0.3934  0.1952 -0.6000
 5664SOL    HW117891   1.359   4.027   2.389  0.5327 -0.7583  0.5442
 5664SOL    HW217892   1.314   4.006   2.544 -2.3680 -1.1621 -0.2882
 5665SOL     OW17893   1.702   2.459   0.805  0.2261 -0.5492  0.2386
 5665SOL    HW117894   1.637   2.485   0.877  0.8702 -0.3734  0.7625
 5665SOL    HW217895   1.701   2.528   0.733 -0.3551 -0.6790  0.1117
 5666SOL     OW17896   1.397   5.165   1.311  0.2539 -0.0874  0.3148
 5666SOL    HW117897   1.482   5.116   1.331  1.2017  1.1894 -0.4347
 5666SOL    HW217898   1.357   5.130   1.226 -0.0296 -0.7660  0.7276
 5667SOL     OW17899   6.347   5.125   2.105 -0.4293  0.2177 -0.1747
 5667SOL    HW117900   6.259   5.168   2.083  0.1005  0.2848 -2.4364
 5667SOL    HW217901   6.358   5.042   2.049 -0.5222 -1.7916  2.5948
 5668SOL     OW17902   0.704   2.977   6.724 -0.0844  0.0133  0.4544
 5668SOL    HW117903   0.715   2.926   6.809 -0.0833 -1.9212 -0.6474
 5668SOL    HW217904   0.608   3.005   6.715 -0.0658  0.3174  1.1279
 5669SOL     OW17905   0.065   5.570   6.529  0.3573 -0.6360  0.8273
 5669SOL    HW117906   0.130   5.494   6.535  0.1569 -0.8220  0.6464
 5669SOL    HW217907   0.098   5.646   6.585  0.2723 -1.0603  1.4588
 5670SOL     OW17908   5.662   4.510   4.644 -0.6858  0.1958 -0.0926
 5670SOL    HW117909   5.753   4.479   4.672  0.2420  1.3046 -1.7539
 5670SOL    HW217910   5.602   4.430   4.635 -0.2382 -0.4661  2.0636
 5671SOL     OW17911   2.002   0.773   5.894 -0.4177  0.3924  0.5190
 5671SOL    HW117912   1.998   0.868   5.924  0.3725  0.1361  1.4896
 5671SOL    HW217913   1.917   0.726   5.919 -0.5730  0.6913  0.5533
 5672SOL     OW17914   4.946   5.539   0.245 -0.1667 -0.2230 -0.0301
 5672SOL    HW117915   4.993   5.543   0.157 -1.9838  0.5712 -1.0278
 5672SOL    HW217916   4.990   5.471   0.303  2.1761  0.4734 -0.8604
 5673SOL     OW17917   0.793   6.610   2.974 -0.0178 -0.1785 -0.1021
 5673SOL    HW117918   0.828   6.697   3.008 -1.1945 -0.5355  2.2692
 5673SOL    HW217919   0.713   6.583   3.028 -0.0378 -2.4450 -1.1402
 5674SOL     OW17920   5.602   3.517   1.348 -0.4782  0.1656 -0.1931
 5674SOL    HW117921   5.634   3.423   1.353 -0.1683  0.1876 -1.4290
 5674SOL    HW217922   5.577   3.539   1.254 -1.7152  0.9489  0.2914
 5675SOL     OW17923   3.086   1.436   6.861 -0.7135  0.3490  0.0794
 5675SOL    HW117924   3.093   1.402   6.955 -0.3408 -0.0329 -0.0870
 5675SOL    HW217925   2.997   1.413   6.823 -0.1461 -1.2513 -0.3464
 5676SOL     OW17926   1.124   0.439   0.739  0.4134 -0.3407 -0.2641
 5676SOL    HW117927   1.144   0.413   0.644  0.6794  0.4269 -0.4256
 5676SOL    HW217928   1.026   0.457   0.748  0.6423  1.3646 -0.8609
 5677SOL     OW17929   6.781   0.276   3.494 -0.0437  0.5777 -0.5443
 5677SOL    HW117930   6.708   0.208   3.484  0.7288 -0.1011 -1.6788
 5677SOL    HW217931   6.751   0.346   3.559 -2.0861  0.8119 -1.6578
 5678SOL     OW17932   4.500   6.023   5.156  0.8993 -0.2568  0.0720
 5678SOL    HW117933   4.596   5.995   5.163  0.8525 -0.0499  2.0372
 5678SOL    HW217934   4.485   6.069   5.068  2.5287 -0.4943 -0.3647
 5679SOL     OW17935   1.742   5.993   6.612 -0.1324  0.1973  0.4561
 5679SOL    HW117936   1.805   5.959   6.682 -1.1980 -1.8612  0.5034
 5679SOL    HW217937   1.782   5.980   6.522 -1.3441 -3.5434  0.2891
 5680SOL     OW17938   2.044   6.676   6.108  0.1821 -0.0233  0.4318
 5680SOL    HW117939   2.061   6.767   6.146  0.7504  0.1118 -0.1156
 5680SOL    HW217940   2.075   6.674   6.012  0.1137 -0.7685  0.4203
 5681SOL     OW17941   6.799   4.074   1.079  0.1506 -0.5083  0.1503
 5681SOL    HW117942   6.839   4.004   1.138 -0.8370  1.2484  3.1714
 5681SOL    HW217943   6.723   4.034   1.027  1.8388 -2.4144 -0.9760
 5682SOL     OW17944   1.388   3.202   4.037 -0.1753  0.1384  0.3852
 5682SOL    HW117945   1.457   3.132   4.052 -0.0306 -0.2682 -1.8758
 5682SOL    HW217946   1.391   3.233   3.942 -0.9270  2.4936  1.0371
 5683SOL     OW17947   3.897   3.620   4.726  0.5482  0.3931 -0.6860
 5683SOL    HW117948   3.960   3.542   4.727  0.3164  0.2041 -0.5563
 5683SOL    HW217949   3.947   3.704   4.743  0.5836  0.1032  0.8174
 5684SOL     OW17950   3.872   3.943   2.712  0.5569  0.5928  0.5640
 5684SOL    HW117951   3.776   3.937   2.685  0.8836  4.0583 -2.0602
 5684SOL    HW217952   3.880   3.937   2.812 -2.2799 -0.2414  0.8150
 5685SOL     OW17953   0.311   6.012   2.855 -0.6345  0.6159  0.2539
 5685SOL    HW117954   0.277   6.073   2.783  0.9165  0.7866 -0.3550
 5685SOL    HW217955   0.369   5.942   2.815  0.7527  1.0656  1.3889
 5686SOL     OW17956   3.224   0.274   1.864  0.0239  0.0663  0.5416
 5686SOL    HW117957   3.298   0.228   1.815  0.7800  2.0196 -0.2607
 5686SOL    HW217958   3.185   0.212   1.932  3.3100 -0.6336  1.9784
 5687SOL     OW17959   4.044   4.762   4.463 -0.1115  0.8602  0.0714
 5687SOL    HW117960   4.135   4.802   4.480  0.0095 -0.1597  2.2293
 5687SOL    HW217961   4.035   4.739   4.367  2.1939  0.4073 -0.1010
 5688SOL     OW17962   5.465   2.058   1.492 -0.1873  0.5610 -0.2595
 5688SOL    HW117963   5.407   2.063   1.574 -0.3948 -0.2066 -0.3536
 5688SOL    HW217964   5.420   2.103   1.416 -0.6462  0.0004 -0.3218
 5689SOL     OW17965   2.184   1.155   0.287 -0.4608 -0.2829 -0.5400
 5689SOL    HW117966   2.240   1.234   0.311 -1.2491  0.0542  0.2406
 5689SOL    HW217967   2.221   1.111   0.205  0.1875  0.6832 -0.7798
 5690SOL     OW17968   3.025   6.170   1.947 -0.1906 -0.2353  0.3743
 5690SOL    HW117969   3.084   6.232   1.999 -1.2085  1.5688 -0.5336
 5690SOL    HW217970   2.930   6.198   1.957 -0.5750 -0.9563 -0.9783
 5691SOL     OW17971   2.748   6.322   1.038 -0.5858 -0.0728  0.1146
 5691SOL    HW117972   2.726   6.382   0.961 -0.0479  0.1548  0.1301
 5691SOL    HW217973   2.739   6.227   1.010  0.8918 -0.0168 -0.6434
 5692SOL     OW17974   4.046   2.978   6.185  0.2665  0.4327  0.2218
 5692SOL    HW117975   4.139   3.000   6.154  1.4018 -2.5895  1.0903
 5692SOL    HW217976   3.997   2.929   6.113  0.1909  0.0419  0.5322
 5693SOL     OW17977   5.273   1.361   4.550  0.0694  0.3135  0.5209
 5693SOL    HW117978   5.297   1.374   4.647 -0.1726  1.5232  0.4375
 5693SOL    HW217979   5.215   1.281   4.540  1.4047 -0.7855  1.1585
 5694SOL     OW17980   6.885   1.715   3.124  0.0157  0.1537 -0.3965
 5694SOL    HW117981   6.790   1.683   3.121  0.4355 -1.4336  1.3388
 5694SOL    HW217982   6.891   1.795   3.185  0.1420 -1.3533  1.6657
 5695SOL     OW17983   1.633   3.969   2.756  0.6546 -0.3962  0.2595
 5695SOL    HW117984   1.713   3.921   2.793  0.4246 -0.9368  0.0692
 5695SOL    HW217985   1.574   3.904   2.709 -0.7171 -0.2753  1.7509
 5696SOL     OW17986   1.663   0.995   6.374 -0.0387 -0.2086 -0.0799
 5696SOL    HW117987   1.605   1.054   6.317 -1.0935  0.5931  1.7303
 5696SOL    HW217988   1.756   1.033   6.376 -0.3342  0.5511 -0.1644
 5697SOL     OW17989   6.871   1.711   1.442 -0.4545  0.1403  0.1650
 5697SOL    HW117990   6.779   1.670   1.447 -0.3105 -0.1102  0.9387
 5697SOL    HW217991   6.871   1.798   1.492  0.0298 -0.4635  1.2543
 5698SOL     OW17992   1.444   3.226   2.396 -0.1816 -0.5091 -0.2546
 5698SOL    HW117993   1.511   3.163   2.359 -1.1362 -0.9603 -1.2628
 5698SOL    HW217994   1.422   3.296   2.328 -0.7325 -0.3592  0.0693
 5699SOL     OW17995   5.366   4.708   5.639  0.3896 -0.4985  0.1988
 5699SOL    HW117996   5.408   4.617   5.646  0.7938 -0.2964  0.5395
 5699SOL    HW217997   5.274   4.700   5.601 -0.4891 -1.3291  2.3140
 5700SOL     OW17998   2.702   5.478   4.894  0.2584  0.3712 -0.0875
 5700SOL    HW117999   2.633   5.434   4.836 -0.2155 -0.2423  0.9253
 5700SOL    HW218000   2.793   5.447   4.867  0.0377  0.0338 -0.4516
 5701SOL     OW18001   0.017   0.120   2.280  0.0682 -0.0190 -0.6772
 5701SOL    HW118002  -0.009   0.023   2.286  1.4676 -0.4035 -0.5732
 5701SOL    HW218003   0.075   0.134   2.201 -0.2095  0.7697 -0.7473
 5702SOL     OW18004   3.357   0.838   6.297  0.0540 -0.0860 -0.0297
 5702SOL    HW118005   3.347   0.739   6.290 -1.3105  0.0607 -0.5115
 5702SOL    HW218006   3.303   0.872   6.374 -0.3217  0.3805 -0.4855
 5703SOL     OW18007   4.619   4.815   0.403 -0.3890 -0.7095  0.3934
 5703SOL    HW118008   4.693   4.826   0.337 -0.1307  0.2368  0.8202
 5703SOL    HW218009   4.570   4.902   0.412 -1.0141 -1.0953  0.7511
 5704SOL     OW18010   5.745   4.868   3.825 -0.1312 -0.0332  0.5055
 5704SOL    HW118011   5.686   4.848   3.903 -1.9957 -0.8651 -1.0208
 5704SOL    HW218012   5.700   4.934   3.765 -0.0272 -1.4615 -1.2225
 5705SOL     OW18013   6.796   0.634   1.134 -0.1221  0.4850  0.4015
 5705SOL    HW118014   6.709   0.680   1.115  0.6071  0.8370 -2.4988
 5705SOL    HW218015   6.823   0.653   1.228 -2.9938  0.6211  1.2951
 5706SOL     OW18016   0.973   2.557   5.211  0.2172  0.4122 -0.5632
 5706SOL    HW118017   1.003   2.641   5.166  0.2170  0.6908 -0.0553
 5706SOL    HW218018   0.873   2.558   5.220  0.2048  0.2913 -0.6822
 5707SOL     OW18019   1.621   2.117   0.569 -0.0566 -0.3309  0.3857
 5707SOL    HW118020   1.643   2.215   0.573 -0.1240 -0.1588 -1.9593
 5707SOL    HW218021   1.523   2.104   0.581 -0.0666 -0.1019  0.5586
 5708SOL     OW18022   6.116   6.571   1.456  0.2951 -0.0840 -0.1425
 5708SOL    HW118023   6.200   6.617   1.486  0.2641  0.6695 -1.1393
 5708SOL    HW218024   6.115   6.568   1.356 -1.0106  0.1641 -0.1446
 5709SOL     OW18025   1.712   0.499   3.531 -0.1016  0.1618 -0.6407
 5709SOL    HW118026   1.695   0.598   3.535 -0.1026  0.1316  1.3702
 5709SOL    HW218027   1.685   0.464   3.442 -1.4709  1.7410 -0.9020
 5710SOL     OW18028   2.327   3.215   5.859  0.5578  0.0206  0.1559
 5710SOL    HW118029   2.392   3.266   5.804  0.4678  2.2400  1.9727
 5710SOL    HW218030   2.242   3.200   5.807  1.4713 -0.4843 -1.2479
 5711SOL     OW18031   3.980   6.658   3.809 -0.5065  0.2391 -0.4097
 5711SOL    HW118032   3.927   6.732   3.768 -0.5487  0.8951  0.7848
 5711SOL    HW218033   3.927   6.615   3.882 -0.4497 -0.9425 -1.0207
 5712SOL     OW18034   4.628   6.890   6.771 -0.4361  0.4041 -0.1741
 5712SOL    HW118035   4.633   6.886   6.671  0.2899  0.2304 -0.1347
 5712SOL    HW218036   4.550   6.836   6.802  0.5643 -1.3024 -0.5303
 5713SOL     OW18037   0.187   3.746   2.208 -0.2120  0.5467 -0.1555
 5713SOL    HW118038   0.170   3.841   2.233 -0.7122  0.4766 -0.2118
 5713SOL    HW218039   0.285   3.726   2.215 -0.0255  1.2288 -0.6989
 5714SOL     OW18040   1.217   2.556   4.740 -0.1183  0.2771 -0.5970
 5714SOL    HW118041   1.295   2.598   4.695  0.0462  0.8321  0.1758
 5714SOL    HW218042   1.134   2.610   4.721 -0.6016 -1.0500 -2.5195
 5715SOL     OW18043   0.960   6.472   2.802  0.1242 -0.3968 -0.1934
 5715SOL    HW118044   0.896   6.543   2.833  2.5784  0.6533  3.0594
 5715SOL    HW218045   1.024   6.512   2.736  3.0060  1.4865  3.3503
 5716SOL     OW18046   1.391   2.531   0.365 -0.3985 -0.0072 -0.0798
 5716SOL    HW118047   1.314   2.586   0.332  0.4876  1.0009 -0.5389
 5716SOL    HW218048   1.449   2.505   0.287 -1.2215 -2.3188  0.0119
 5717SOL     OW18049   0.206   4.245   6.822 -0.0197 -0.7170 -0.0786
 5717SOL    HW118050   0.230   4.322   6.763 -0.3070 -0.0246  0.6894
 5717SOL    HW218051   0.289   4.208   6.864  0.0993 -0.7194 -0.3113
 5718SOL     OW18052   3.598   5.279   6.065 -0.2212  0.0446 -0.0521
 5718SOL    HW118053   3.581   5.181   6.071 -0.6127 -0.0458 -2.1406
 5718SOL    HW218054   3.670   5.297   5.999 -1.2566  1.2439 -0.9053
 5719SOL     OW18055   3.948   0.943   1.370 -0.8074  0.1402  0.0835
 5719SOL    HW118056   4.042   0.930   1.341 -1.2668 -1.2766 -0.8508
 5719SOL    HW218057   3.920   0.869   1.430 -1.5421  0.1559 -0.2204
 5720SOL     OW18058   0.546   4.758   4.539  0.6543  0.0613  0.7685
 5720SOL    HW118059   0.597   4.790   4.619  0.9949  0.4973  0.3848
 5720SOL    HW218060   0.464   4.814   4.527  0.1267 -0.5711  1.3218
 5721SOL     OW18061   1.446   4.122   2.842  0.0952  0.5617  0.1823
 5721SOL    HW118062   1.517   4.061   2.807 -0.7131 -1.3972  1.7453
 5721SOL    HW218063   1.375   4.068   2.887 -0.7342  2.6756  1.5733
 5722SOL     OW18064   6.658   5.871   2.982 -0.0284  0.1929  0.1767
 5722SOL    HW118065   6.580   5.808   2.987  0.4938 -0.4702  0.0496
 5722SOL    HW218066   6.703   5.863   2.893 -0.0959  0.9268  0.0639
 5723SOL     OW18067   4.520   5.696   6.975 -0.0260 -0.2422  0.1936
 5723SOL    HW118068   4.428   5.721   6.947 -0.6475 -1.3279  1.1962
 5723SOL    HW218069   4.587   5.751   6.924 -1.1759 -0.1946 -1.3125
 5724SOL     OW18070   4.844   1.491   1.212  0.6073 -0.4354  0.1036
 5724SOL    HW118071   4.901   1.515   1.134  0.7273  1.5333  0.7499
 5724SOL    HW218072   4.750   1.475   1.181  0.4869  1.0873 -0.3824
 5725SOL     OW18073   6.658   6.303   4.556 -0.5906  0.2065 -0.4614
 5725SOL    HW118074   6.597   6.319   4.634  1.4108  0.0772  1.2081
 5725SOL    HW218075   6.692   6.209   4.558  1.3851  0.8808 -0.0232
 5726SOL     OW18076   5.213   3.679   5.629 -0.2909 -0.2122 -0.2384
 5726SOL    HW118077   5.113   3.674   5.621 -0.1921 -2.1226 -0.8431
 5726SOL    HW218078   5.241   3.656   5.722 -0.4615  2.2345  0.4842
 5727SOL     OW18079   4.662   1.288   2.566 -0.4896  0.3830 -0.0327
 5727SOL    HW118080   4.742   1.267   2.622 -0.4828  1.1960  0.2632
 5727SOL    HW218081   4.603   1.353   2.613 -1.1520  0.0727 -0.4065
 5728SOL     OW18082   6.021   4.708   4.194 -0.1213 -1.3746 -0.3906
 5728SOL    HW118083   5.929   4.746   4.189  1.6352  3.2681 -2.1524
 5728SOL    HW218084   6.043   4.686   4.289 -2.2026 -0.3336  0.3918
 5729SOL     OW18085   6.164   3.488   0.629  0.6410 -0.0240  0.0324
 5729SOL    HW118086   6.144   3.390   0.642 -2.6078  0.7315  1.6386
 5729SOL    HW218087   6.211   3.523   0.710  1.4358 -0.1055 -0.3751
 5730SOL     OW18088   5.106   5.856   6.152 -0.5393 -0.3886 -0.0320
 5730SOL    HW118089   5.031   5.798   6.184 -0.9502 -0.3050 -0.8080
 5730SOL    HW218090   5.069   5.942   6.116 -0.1747 -0.7611 -1.3561
 5731SOL     OW18091   4.249   0.899   3.971 -0.0186  0.0519 -0.0497
 5731SOL    HW118092   4.310   0.929   3.897  0.1998 -3.3842 -1.4288
 5731SOL    HW218093   4.303   0.881   4.053  0.6190 -1.3434 -0.7521
 5732SOL     OW18094   6.608   6.710   5.988  0.0286 -0.0206 -0.9540
 5732SOL    HW118095   6.674   6.651   6.036 -0.4641 -0.2661 -0.5707
 5732SOL    HW218096   6.632   6.806   6.002  0.1963 -0.1053 -0.6596
 5733SOL     OW18097   3.566   1.844   6.587  0.0724 -0.4672  0.2424
 5733SOL    HW118098   3.536   1.847   6.492 -0.4136  2.6785  0.3867
 5733SOL    HW218099   3.666   1.837   6.591  0.0117 -2.2670 -0.3930
 5734SOL     OW18100   0.775   6.124   5.034  0.1365 -0.1292 -0.7301
 5734SOL    HW118101   0.810   6.101   4.943  0.8844  1.3036 -0.8338
 5734SOL    HW218102   0.778   6.223   5.047  0.6036 -0.3423  1.0812
 5735SOL     OW18103   5.278   0.898   0.411  0.1413 -0.4282  0.2576
 5735SOL    HW118104   5.186   0.868   0.437 -0.6883  2.3148  0.7972
 5735SOL    HW218105   5.271   0.966   0.338  1.7201  0.1695  0.6288
 5736SOL     OW18106   4.913   4.514   7.001  0.1671 -0.0040 -0.3462
 5736SOL    HW118107   4.816   4.491   6.987  0.0926  0.3694 -0.4631
 5736SOL    HW218108   4.969   4.452   6.946 -0.0216  0.0007 -0.5473
 5737SOL     OW18109   4.405   4.896   1.163 -0.2560  0.2485 -0.0654
 5737SOL    HW118110   4.438   4.850   1.081 -1.7589  0.9377 -1.1125
 5737SOL    HW218111   4.482   4.922   1.221  0.7545 -1.5373 -0.5290
 5738SOL     OW18112   4.178   1.372   6.773 -0.3944  0.2271  0.0103
 5738SOL    HW118113   4.274   1.344   6.762 -0.7185 -0.0125 -3.1871
 5738SOL    HW218114   4.173   1.452   6.832  1.6357 -0.3555  1.0773
 5739SOL     OW18115   3.425   6.143   5.058  0.2558  0.4214 -0.0181
 5739SOL    HW118116   3.475   6.145   4.971 -0.6481 -0.5630 -0.5708
 5739SOL    HW218117   3.487   6.115   5.131  0.8528  0.5688 -0.4605
 5740SOL     OW18118   4.462   2.588   0.744 -0.0095  0.1654  0.0740
 5740SOL    HW118119   4.522   2.510   0.728  0.3753  0.6972 -1.1695
 5740SOL    HW218120   4.409   2.573   0.828  0.6077 -1.0758  0.2564
 5741SOL     OW18121   0.956   0.718   3.742 -0.4161 -0.7168 -0.6048
 5741SOL    HW118122   1.040   0.724   3.797 -0.7061  0.7278 -0.2581
 5741SOL    HW218123   0.888   0.781   3.779 -0.6454  0.2776 -2.5783
 5742SOL     OW18124   4.423   5.975   2.518  0.0549  0.3132 -0.9859
 5742SOL    HW118125   4.499   6.036   2.495 -0.0600  0.2550 -1.5394
 5742SOL    HW218126   4.363   6.020   2.584  0.9640  0.0703  0.0363
 5743SOL     OW18127   3.338   4.986   6.441  0.3819 -0.5603 -0.2278
 5743SOL    HW118128   3.432   4.953   6.430 -0.2227 -2.3491 -0.3697
 5743SOL    HW218129   3.276   4.928   6.387 -0.8829  0.1451  0.4260
 5744SOL     OW18130   4.951   6.427   1.576 -0.0584  0.7255 -0.1166
 5744SOL    HW118131   4.979   6.520   1.550  0.7851  0.6217  0.4005
 5744SOL    HW218132   4.880   6.433   1.647  0.2714  0.9764  0.1970
 5745SOL     OW18133   6.645   1.512   2.990  0.4556 -0.1082 -0.1097
 5745SOL    HW118134   6.614   1.418   3.004  0.2716  0.0839  0.8564
 5745SOL    HW218135   6.566   1.574   2.993  0.6614  0.1488  0.0478
 5746SOL     OW18136   5.765   7.001   1.257  0.5500  0.0176 -0.5395
 5746SOL    HW118137   5.856   6.961   1.267  0.3561 -0.6315 -1.2742
 5746SOL    HW218138   5.773   7.101   1.257  1.4052 -0.0189 -1.6887
 5747SOL     OW18139   1.815   6.789   0.643 -0.0798 -0.6655 -0.2199
 5747SOL    HW118140   1.717   6.797   0.626 -0.6678  2.3148  3.3398
 5747SOL    HW218141   1.831   6.713   0.707 -0.1912 -0.5733 -0.0810
 5748SOL     OW18142   1.856   4.251   1.759 -0.4482  0.1421  0.1991
 5748SOL    HW118143   1.825   4.295   1.843  0.5789 -0.3676  0.8574
 5748SOL    HW218144   1.951   4.276   1.740 -0.3120 -0.6243 -0.2001
 5749SOL     OW18145   1.156   6.603   3.826  0.3307 -0.8550 -1.3261
 5749SOL    HW118146   1.141   6.623   3.923 -1.2443  1.6802 -1.9809
 5749SOL    HW218147   1.221   6.670   3.789  0.8739 -1.7719 -2.0652
 5750SOL     OW18148   0.222   2.303   3.987 -0.0378 -0.4534 -0.3427
 5750SOL    HW118149   0.203   2.344   3.898 -2.1177 -2.0592 -0.7024
 5750SOL    HW218150   0.212   2.204   3.982 -2.0103 -0.4711  2.0702
 5751SOL     OW18151   1.509   4.629   4.242  0.1927  0.4265  0.5168
 5751SOL    HW118152   1.471   4.655   4.154 -0.1005  0.8364  0.7597
 5751SOL    HW218153   1.609   4.631   4.238  0.2288 -1.1954 -0.2880
 5752SOL     OW18154   5.113   6.452   0.455  0.5552  0.2773  0.2281
 5752SOL    HW118155   5.204   6.493   0.463  0.4834  0.3718  0.5775
 5752SOL    HW218156   5.112   6.388   0.379  0.8825  0.3635  0.1496
 5753SOL     OW18157   1.959   4.175   4.737  0.2918 -0.6772  0.2204
 5753SOL    HW118158   1.977   4.091   4.787 -1.4079 -0.2066  1.7540
 5753SOL    HW218159   1.993   4.167   4.644  0.3032 -2.9977  0.3731
 5754SOL     OW18160   1.036   4.018   2.293 -0.0933 -0.5080 -0.3468
 5754SOL    HW118161   1.123   4.006   2.341 -0.3427  1.0892  0.5810
 5754SOL    HW218162   1.002   3.930   2.262  0.9002 -1.3965  0.9883
 5755SOL     OW18163   2.253   2.227   0.600  0.1287 -0.0666 -0.1624
 5755SOL    HW118164   2.241   2.325   0.585  2.1785  0.4520  1.1520
 5755SOL    HW218165   2.182   2.176   0.551 -1.1329  2.0685 -0.6610
 5756SOL     OW18166   6.225   6.254   0.456  0.1718 -0.0218 -0.1538
 5756SOL    HW118167   6.154   6.313   0.417  1.3592  1.4336 -0.2318
 5756SOL    HW218168   6.287   6.309   0.512 -0.7234 -1.8197  2.8377
 5757SOL     OW18169   5.919   0.055   2.493  0.1732 -0.1012 -0.3190
 5757SOL    HW118170   5.948   0.038   2.399  1.5761  1.8730 -0.3032
 5757SOL    HW218171   5.984   0.013   2.557 -0.1338 -0.4591 -0.2423
 5758SOL     OW18172   6.886   0.031   3.072  0.6346 -0.0247  0.0776
 5758SOL    HW118173   6.875  -0.060   3.113  0.5207  0.3415  0.8757
 5758SOL    HW218174   6.906   0.021   2.974  2.4883 -0.9723  0.4949
 5759SOL     OW18175   3.406   5.775   0.125  0.0775 -0.4238  0.0651
 5759SOL    HW118176   3.348   5.837   0.071 -0.4180 -1.2655 -0.3969
 5759SOL    HW218177   3.490   5.755   0.075  0.5915  0.4628  0.5501
 5760SOL     OW18178   0.470   5.130   2.841 -0.2159 -0.1372  0.1348
 5760SOL    HW118179   0.531   5.077   2.782 -0.6080 -0.7152  0.2472
 5760SOL    HW218180   0.525   5.179   2.909  0.2624  0.7932 -0.8975
 5761SOL     OW18181   6.600   6.261   3.798  0.2119  0.3127 -0.0766
 5761SOL    HW118182   6.502   6.255   3.813  0.1140  0.8779 -0.4551
 5761SOL    HW218183   6.621   6.234   3.704  0.4148  0.2534 -0.0153
 5762SOL     OW18184   5.274   4.592   6.032 -0.0642  0.3822  0.2590
 5762SOL    HW118185   5.239   4.656   5.964 -2.1755  1.4136  2.1867
 5762SOL    HW218186   5.264   4.631   6.124  3.3961 -0.6167  1.2146
 5763SOL     OW18187   4.918   6.382   1.326  0.3769  0.0753  0.1466
 5763SOL    HW118188   4.892   6.301   1.273 -1.9320  1.6811 -1.3353
 5763SOL    HW218189   4.906   6.362   1.424 -1.2724 -1.0204 -0.2346
 5764SOL     OW18190   6.002   3.355   2.817 -0.6163 -0.0947 -0.0267
 5764SOL    HW118191   5.949   3.375   2.734 -1.5980  1.1091  0.8359
 5764SOL    HW218192   5.993   3.258   2.840  0.6585 -0.7275 -1.9484
 5765SOL     OW18193   5.976   4.947   1.333 -0.2988 -0.7668  0.3662
 5765SOL    HW118194   5.885   4.984   1.313  0.3723  1.0773  0.5258
 5765SOL    HW218195   6.039   4.974   1.260  0.4935 -0.4918  1.1322
 5766SOL     OW18196   1.288   3.430   4.150  0.5259 -0.0312 -0.1405
 5766SOL    HW118197   1.192   3.412   4.171  1.1846 -0.9083  2.5141
 5766SOL    HW218198   1.330   3.348   4.110  0.3905  0.0145 -0.3720
 5767SOL     OW18199   2.020   1.172   6.592 -0.6774  0.6126  0.1929
 5767SOL    HW118200   2.064   1.227   6.663  1.1468  1.8720 -1.8017
 5767SOL    HW218201   2.070   1.087   6.581 -1.2205  0.2215  0.6661
 5768SOL     OW18202   7.007   1.205   5.286 -0.1607 -0.2389 -0.8871
 5768SOL    HW118203   6.943   1.280   5.300  0.2940  0.7219 -3.3993
 5768SOL    HW218204   7.009   1.180   5.189  2.8932 -0.5285 -0.8673
 5769SOL     OW18205   6.284   3.677   6.480  0.5483 -0.1228 -0.1352
 5769SOL    HW118206   6.347   3.678   6.402 -0.3990  0.9002 -0.9059
 5769SOL    HW218207   6.228   3.760   6.479  0.6826  0.0232  1.7820
 5770SOL     OW18208   0.855   6.240   2.277  0.2518  0.4931 -0.2670
 5770SOL    HW118209   0.790   6.170   2.308  1.0346  0.2837  0.9994
 5770SOL    HW218210   0.806   6.324   2.257 -0.7148 -0.3940 -1.8152
 5771SOL     OW18211   0.088   4.547   3.282  0.0615  0.0654  0.5753
 5771SOL    HW118212   0.077   4.476   3.352  2.2733  0.1860  1.0939
 5771SOL    HW218213   0.182   4.548   3.250 -0.8160  0.1891 -2.2666
 5772SOL     OW18214   3.734   0.418   2.817 -0.6079 -0.0701 -0.1980
 5772SOL    HW118215   3.775   0.366   2.741 -1.2054  0.2898 -0.7778
 5772SOL    HW218216   3.651   0.372   2.847 -0.8382  0.2485 -0.3423
 5773SOL     OW18217   4.164   0.946   1.007  0.3135 -0.1577 -0.3332
 5773SOL    HW118218   4.108   1.026   1.026  1.0395  0.4416 -0.6665
 5773SOL    HW218219   4.239   0.971   0.945  1.2556 -0.8157  0.5043
 5774SOL     OW18220   0.975   4.502   4.038  0.0360  0.4177 -0.4234
 5774SOL    HW118221   0.901   4.555   3.997 -1.8467 -1.8889 -0.2030
 5774SOL    HW218222   1.061   4.552   4.029 -1.7761  4.1792  1.1219
 5775SOL     OW18223   0.282   6.345   1.744  0.1629 -0.0328 -0.5092
 5775SOL    HW118224   0.258   6.252   1.773  0.3843  0.0267 -0.1471
 5775SOL    HW218225   0.287   6.406   1.823 -0.5033  0.4079 -0.7936
 5776SOL     OW18226   3.028   6.827   5.650  0.6996  0.3631  0.1019
 5776SOL    HW118227   3.057   6.817   5.555  0.6487 -1.7782  0.2769
 5776SOL    HW218228   3.099   6.790   5.710 -0.1532 -0.1937  0.7812
 5777SOL     OW18229   1.544   1.125   2.246 -0.5965 -0.4054  0.3511
 5777SOL    HW118230   1.592   1.103   2.161 -0.1795  1.4290  0.0659
 5777SOL    HW218231   1.475   1.195   2.229 -1.6316 -1.1687  1.2519
 5778SOL     OW18232   2.570   2.709   5.555  0.5639  0.0638  0.4944
 5778SOL    HW118233   2.515   2.631   5.525  0.9047  0.1319 -0.3508
 5778SOL    HW218234   2.564   2.782   5.487  0.6807  0.5683  1.0167
 5779SOL     OW18235   4.756   1.741   1.298  0.2944 -0.3095  0.2599
 5779SOL    HW118236   4.673   1.752   1.243  0.3848  0.4230  0.2620
 5779SOL    HW218237   4.797   1.652   1.279  0.0047 -0.2999 -0.4229
 5780SOL     OW18238   6.626   5.249   3.692 -0.1607 -0.0694  0.1213
 5780SOL    HW118239   6.637   5.216   3.786 -2.5831  2.9222  1.6721
 5780SOL    HW218240   6.657   5.179   3.628 -0.4219 -3.1702  3.0717
 5781SOL     OW18241   0.678   4.534   6.631  0.0025 -0.3392  0.5427
 5781SOL    HW118242   0.761   4.500   6.587  0.0903 -0.0864  0.5115
 5781SOL    HW218243   0.702   4.607   6.696 -0.3149  0.6298 -0.3981
 5782SOL     OW18244   1.643   0.365   0.184  0.1700 -0.7336 -0.1085
 5782SOL    HW118245   1.711   0.405   0.121  0.6926 -1.1037  0.2095
 5782SOL    HW218246   1.561   0.341   0.133  0.6741 -1.2362 -0.7015
 5783SOL     OW18247   3.273   0.269   3.367  0.4838  0.5530 -0.3702
 5783SOL    HW118248   3.305   0.361   3.391  0.5565  0.6105 -0.6897
 5783SOL    HW218249   3.326   0.233   3.290 -0.7208  0.9706 -1.4413
 5784SOL     OW18250   2.432   5.541   0.528 -0.2400 -0.0182  0.3737
 5784SOL    HW118251   2.474   5.527   0.617  0.4239  2.2080  0.4675
 5784SOL    HW218252   2.362   5.612   0.534 -0.7777 -0.4254 -0.7156
 5785SOL     OW18253   2.261   3.561   6.939  0.0343  0.4087  0.1619
 5785SOL    HW118254   2.193   3.497   6.903 -1.2112  2.0623 -0.5682
 5785SOL    HW218255   2.231   3.655   6.920  0.2562  1.3549  3.8422
 5786SOL     OW18256   6.548   4.137   0.351  0.2943  0.2422  0.2406
 5786SOL    HW118257   6.583   4.091   0.433  1.0113 -0.4117 -0.4076
 5786SOL    HW218258   6.458   4.175   0.369  0.0213 -0.7544  1.0388
 5787SOL     OW18259   3.226   1.660   6.867 -0.2580  0.1920 -0.1313
 5787SOL    HW118260   3.231   1.694   6.773 -0.4866 -0.5391 -0.4112
 5787SOL    HW218261   3.168   1.579   6.871 -2.0536  1.4380  0.9942
 5788SOL     OW18262   2.342   1.697   3.286 -0.7813 -0.7084  0.3451
 5788SOL    HW118263   2.266   1.635   3.305 -0.7570 -0.5410  1.0138
 5788SOL    HW218264   2.380   1.730   3.373  0.4282 -1.2450  0.0439
 5789SOL     OW18265   4.373   6.232   6.934 -0.2371  0.1617  0.2952
 5789SOL    HW118266   4.445   6.191   6.990  1.1646  0.2456 -1.3682
 5789SOL    HW218267   4.352   6.324   6.968 -1.0563 -0.6019  2.0221
 5790SOL     OW18268   0.062   3.480   6.594  0.2791  0.1600  0.0130
 5790SOL    HW118269  -0.033   3.506   6.576  0.1893 -0.3001 -0.2007
 5790SOL    HW218270   0.124   3.545   6.550  0.0704 -0.5613 -1.4052
 5791SOL     OW18271   1.464   6.202   3.011  0.1790 -0.5611 -0.1106
 5791SOL    HW118272   1.503   6.200   3.103 -2.1763 -1.7862  0.9287
 5791SOL    HW218273   1.515   6.139   2.952  0.5657 -1.1777  0.8634
 5792SOL     OW18274   1.933   2.331   3.179  0.4110 -0.1561 -0.0781
 5792SOL    HW118275   1.878   2.325   3.262  2.1341 -0.4712  1.0707
 5792SOL    HW218276   1.928   2.244   3.129 -0.1411 -0.1689 -0.0074
 5793SOL     OW18277   0.018   1.260   4.297 -0.1890  0.1034  0.2363
 5793SOL    HW118278  -0.019   1.352   4.309  2.3243  1.2842 -0.5083
 5793SOL    HW218279   0.097   1.248   4.357 -0.5110 -1.6080  0.3529
 5794SOL     OW18280   4.276   3.335   1.006  0.5308  0.0705 -0.2281
 5794SOL    HW118281   4.322   3.247   0.993 -1.9554 -1.1969 -0.9722
 5794SOL    HW218282   4.208   3.349   0.935 -0.9366  1.3898  1.3392
 5795SOL     OW18283   6.016   3.984   5.622  0.5091  0.1228  0.3282
 5795SOL    HW118284   6.015   3.889   5.652  0.1420  0.0179 -0.0032
 5795SOL    HW218285   5.999   3.987   5.523 -1.8940  0.6602  0.6950
 5796SOL     OW18286   3.447   1.466   0.919  0.6141  0.6574  0.6735
 5796SOL    HW118287   3.443   1.397   0.847 -1.6689  0.0842  1.2754
 5796SOL    HW218288   3.375   1.449   0.987  1.8331  1.9511  2.4052
 5797SOL     OW18289   1.865   2.176   6.609  0.2532 -0.3683 -0.6031
 5797SOL    HW118290   1.873   2.078   6.628 -0.6094 -0.0778  1.5096
 5797SOL    HW218291   1.770   2.198   6.588  0.4778  0.0095 -1.2546
 5798SOL     OW18292   6.959   1.945   6.288  0.4873  0.7816 -0.9588
 5798SOL    HW118293   6.939   1.848   6.274 -0.5756  0.8584 -0.0432
 5798SOL    HW218294   6.934   1.996   6.206 -0.5092  0.5005 -0.8381
 5799SOL     OW18295   5.322   0.896   4.219  0.1724  0.2326 -0.1328
 5799SOL    HW118296   5.369   0.842   4.150  1.0125  1.5792 -0.6454
 5799SOL    HW218297   5.266   0.966   4.175  1.1380  1.4521  0.5375
 5800SOL     OW18298   4.905   3.850   0.965  0.0653  0.6587 -0.1569
 5800SOL    HW118299   4.930   3.917   1.034  2.0167 -0.5008  0.3540
 5800SOL    HW218300   4.973   3.850   0.892 -0.7930  0.3593 -0.9831
 5801SOL     OW18301   0.512   1.634   4.163  0.0170 -0.3671  0.1552
 5801SOL    HW118302   0.541   1.701   4.232  3.2302 -0.1402 -1.2306
 5801SOL    HW218303   0.559   1.547   4.181 -0.2562 -0.7379 -0.8853
 5802SOL     OW18304   6.435   4.562   5.474 -0.4542  0.1583  0.0441
 5802SOL    HW118305   6.484   4.594   5.556 -0.5106 -1.3582  0.7111
 5802SOL    HW218306   6.501   4.530   5.406 -0.4548  0.0645  0.0877
 5803SOL     OW18307   1.789   4.941   3.055 -0.2561 -0.1940 -0.2562
 5803SOL    HW118308   1.782   4.946   3.155  0.4478 -1.8378 -0.0869
 5803SOL    HW218309   1.880   4.906   3.031 -0.7779 -0.7645 -1.4336
 5804SOL     OW18310   6.248   3.155   5.408 -0.6150 -0.1675 -0.1467
 5804SOL    HW118311   6.221   3.144   5.312  1.2241 -0.8112 -0.6248
 5804SOL    HW218312   6.333   3.207   5.413 -0.8977  0.2128  1.1849
 5805SOL     OW18313   4.818   3.324   5.810  0.6452 -0.3173  0.1862
 5805SOL    HW118314   4.899   3.294   5.759 -0.2014 -0.9361 -0.8267
 5805SOL    HW218315   4.784   3.249   5.866  0.7847 -0.0412  0.6518
 5806SOL     OW18316   0.328   6.512   2.396  0.3797  0.6475 -0.5867
 5806SOL    HW118317   0.265   6.526   2.319  1.3794  1.4168 -1.2980
 5806SOL    HW218318   0.357   6.601   2.432 -0.3409  0.2846  0.9192
 5807SOL     OW18319   1.803   3.405   1.314 -0.0391 -0.2307 -0.3942
 5807SOL    HW118320   1.886   3.402   1.371 -1.1477 -0.4256  1.2854
 5807SOL    HW218321   1.767   3.313   1.302 -0.6219 -0.0412 -0.1524
 5808SOL     OW18322   4.044   4.846   2.038 -0.0377  0.6449  0.6376
 5808SOL    HW118323   4.030   4.841   2.136  0.5922  1.7635  0.8059
 5808SOL    HW218324   3.956   4.858   1.992 -0.4683 -1.1103  0.9402
 5809SOL     OW18325   0.203   1.168   3.311 -0.5477  0.1301 -0.7688
 5809SOL    HW118326   0.279   1.210   3.262 -0.5956  0.5240 -0.5085
 5809SOL    HW218327   0.152   1.109   3.249  1.2416 -1.8892 -0.4474
 5810SOL     OW18328   4.919   6.765   3.644 -0.6569  0.5851  0.2389
 5810SOL    HW118329   4.993   6.706   3.677 -0.5767  1.5647  1.9134
 5810SOL    HW218330   4.862   6.714   3.580  0.1149 -0.9136  0.6928
 5811SOL     OW18331   2.623   0.820   3.727  0.2658 -0.1109  0.2470
 5811SOL    HW118332   2.619   0.912   3.689  2.4726  0.1461  0.5136
 5811SOL    HW218333   2.537   0.773   3.710 -0.5623  1.6711 -0.7134
 5812SOL     OW18334   4.615   6.353   2.869 -0.2572 -0.5460  0.4245
 5812SOL    HW118335   4.594   6.421   2.939 -4.0499 -1.1319  0.0605
 5812SOL    HW218336   4.652   6.271   2.913  1.0550  0.4292  1.2371
 5813SOL     OW18337   1.695   2.608   6.960  0.5310  0.2187  0.0100
 5813SOL    HW118338   1.702   2.542   7.035 -0.2010  1.1238  0.9062
 5813SOL    HW218339   1.698   2.560   6.873  1.2899 -0.8706  0.6117
 5814SOL     OW18340   5.790   4.274   0.870  0.0852 -0.1100  0.4717
 5814SOL    HW118341   5.710   4.241   0.819  0.4605 -0.3616  0.0370
 5814SOL    HW218342   5.759   4.329   0.947 -0.4696  2.2610 -1.3345
 5815SOL     OW18343   5.205   3.313   3.291  0.0315 -0.2749 -0.1879
 5815SOL    HW118344   5.153   3.253   3.230  0.5747 -0.1255 -0.8053
 5815SOL    HW218345   5.148   3.391   3.317 -0.2378 -0.3926 -0.4163
 5816SOL     OW18346   5.385   2.102   1.014  0.4348  0.0240 -0.3917
 5816SOL    HW118347   5.316   2.038   0.980  0.4429 -0.2973  0.1816
 5816SOL    HW218348   5.476   2.071   0.987  0.5830 -1.1417  1.2708
 5817SOL     OW18349   6.326   4.138   5.473  0.2051 -0.3496 -0.0747
 5817SOL    HW118350   6.354   4.045   5.451 -1.3625 -0.9030  0.0953
 5817SOL    HW218351   6.234   4.155   5.436 -0.7766  0.1077  2.3405
 5818SOL     OW18352   6.763   6.386   4.307 -1.1200 -0.0357 -0.3757
 5818SOL    HW118353   6.847   6.333   4.302 -1.1351 -0.1325  0.2658
 5818SOL    HW218354   6.723   6.377   4.399 -1.8402 -0.0117 -0.6764
 5819SOL     OW18355   3.092   6.493   0.099  0.0698 -0.2243  0.5042
 5819SOL    HW118356   3.033   6.481   0.180  2.6905  0.9837  2.7380
 5819SOL    HW218357   3.103   6.405   0.053 -1.7967 -0.8784  1.2014
 5820SOL     OW18358   6.978   6.648   4.437 -0.0046  0.1365 -0.5772
 5820SOL    HW118359   6.941   6.679   4.524  2.4928  2.0598 -0.1021
 5820SOL    HW218360   6.984   6.548   4.437  1.1265  0.1373  1.9859
 5821SOL     OW18361   2.649   6.765   6.367  0.1579  0.1159 -0.5375
 5821SOL    HW118362   2.646   6.690   6.433  0.4548 -1.3197 -2.0754
 5821SOL    HW218363   2.556   6.796   6.347 -0.0688 -0.7765 -0.8958
 5822SOL     OW18364   0.892   4.633   3.028  0.5389 -0.3291 -0.1417
 5822SOL    HW118365   0.983   4.675   3.015  0.5113  0.0708  0.8938
 5822SOL    HW218366   0.900   4.555   3.089  0.1830 -0.3114 -0.0753
 5823SOL     OW18367   1.270   1.218   3.981  0.2062 -0.1138 -0.2625
 5823SOL    HW118368   1.270   1.303   4.033 -1.2019  2.6871 -4.3272
 5823SOL    HW218369   1.197   1.158   4.013 -0.5858  1.4262  0.9246
 5824SOL     OW18370   0.186   6.847   3.543 -0.3043 -0.2258 -0.7413
 5824SOL    HW118371   0.256   6.789   3.584 -0.5814 -0.4252 -0.5493
 5824SOL    HW218372   0.147   6.907   3.613 -1.6044 -1.3812 -0.4363
 5825SOL     OW18373   2.059   2.298   6.474 -0.0414 -0.0332 -0.0092
 5825SOL    HW118374   1.984   2.260   6.527 -2.5768  3.2852 -0.8164
 5825SOL    HW218375   2.083   2.388   6.511  1.8391  0.0371 -1.2769
 5826SOL     OW18376   6.032   6.446   4.728  0.1649  0.2220 -0.3945
 5826SOL    HW118377   6.117   6.463   4.677  0.4240  0.7223  0.1903
 5826SOL    HW218378   5.976   6.380   4.678  0.7795  0.0839 -0.9189
 5827SOL     OW18379   1.066   4.180   5.473  0.6350 -0.3175 -0.1201
 5827SOL    HW118380   1.150   4.221   5.507  0.8236 -0.9306  0.1612
 5827SOL    HW218381   1.077   4.081   5.467  0.1513 -0.3394 -0.6999
 5828SOL     OW18382   2.429   3.107   0.710  0.5020 -0.3309  0.1957
 5828SOL    HW118383   2.409   3.138   0.803  0.0446  0.3473 -0.1180
 5828SOL    HW218384   2.524   3.128   0.687  0.0985  1.3060 -0.1605
 5829SOL     OW18385   3.022   2.091   2.199  0.2810 -0.5277 -0.0334
 5829SOL    HW118386   3.119   2.103   2.220  0.0599  1.1698  0.1402
 5829SOL    HW218387   2.989   2.171   2.150 -1.5000 -0.1891  1.6167
 5830SOL     OW18388   3.963   0.023   1.106 -0.2171 -0.0938  0.1798
 5830SOL    HW118389   3.966  -0.049   1.037 -2.9392  0.2125 -0.3861
 5830SOL    HW218390   3.996   0.109   1.067 -3.4800  0.5396 -1.5187
 5831SOL     OW18391   6.092   6.342   2.555 -0.0663 -0.8019 -0.1128
 5831SOL    HW118392   6.121   6.402   2.631 -1.8560  0.6288 -0.4846
 5831SOL    HW218393   5.993   6.343   2.549 -0.0022 -1.9239 -1.6941
 5832SOL     OW18394   4.299   3.094   5.355  0.3984 -0.3478 -0.3010
 5832SOL    HW118395   4.235   3.103   5.279  0.9852 -3.6266 -1.3691
 5832SOL    HW218396   4.250   3.059   5.435  0.3806 -0.3288 -0.3037
 5833SOL     OW18397   3.379   2.905   4.805  0.7519 -0.6097  0.1798
 5833SOL    HW118398   3.356   2.996   4.770  1.1585  0.3567  2.2253
 5833SOL    HW218399   3.328   2.836   4.755 -0.8834  0.8768 -0.3056
 5834SOL     OW18400   5.511   1.711   6.322  0.6274 -0.0541  0.0575
 5834SOL    HW118401   5.513   1.670   6.231 -2.5283  1.1804 -0.7168
 5834SOL    HW218402   5.493   1.640   6.390  0.6649 -0.6808 -0.5762
 5835SOL     OW18403   4.878   3.615   4.031  0.4269  0.3031 -0.3423
 5835SOL    HW118404   4.952   3.595   4.096 -1.2851 -1.4607  1.1701
 5835SOL    HW218405   4.852   3.711   4.039  0.5748  0.2437  1.2856
 5836SOL     OW18406   2.798   5.418   1.924  0.2834  0.3830  0.2049
 5836SOL    HW118407   2.724   5.387   1.866 -1.0580  3.7726 -0.1200
 5836SOL    HW218408   2.877   5.444   1.868  0.8149 -0.8318  0.3551
 5837SOL     OW18409   3.593   3.303   6.891 -0.1750 -0.4858  0.7088
 5837SOL    HW118410   3.506   3.292   6.844  0.2218 -3.4167  0.4873
 5837SOL    HW218411   3.663   3.333   6.825 -0.6950  0.6347  0.6312
 5838SOL     OW18412   1.787   0.525   0.346 -0.1886 -0.6005 -0.2601
 5838SOL    HW118413   1.837   0.552   0.264  0.3400 -1.9081 -0.3963
 5838SOL    HW218414   1.728   0.447   0.325  1.1515 -1.9998  0.9302
 5839SOL     OW18415   1.014   2.254   2.707 -0.4539 -0.0765 -0.1729
 5839SOL    HW118416   1.006   2.276   2.610 -0.4967 -1.6258 -0.5599
 5839SOL    HW218417   1.098   2.202   2.723 -0.8712 -0.5796  0.4621
 5840SOL     OW18418   1.299   5.307   5.746 -0.6997 -0.3552 -0.2623
 5840SOL    HW118419   1.227   5.348   5.691 -0.2334  0.7660 -0.0590
 5840SOL    HW218420   1.290   5.337   5.841  0.9504  1.1518 -0.5098
 5841SOL     OW18421   6.882   3.451   3.220 -0.2664  0.1835  0.1008
 5841SOL    HW118422   6.843   3.363   3.244 -0.6436  0.3298  0.0332
 5841SOL    HW218423   6.895   3.457   3.121 -1.2191  0.5933 -0.0119
 5842SOL     OW18424   3.030   4.061   0.230  0.1381  0.4935  0.0924
 5842SOL    HW118425   3.086   4.010   0.165 -0.1320 -0.2659  0.4478
 5842SOL    HW218426   3.088   4.124   0.282  0.4306  0.7584 -0.5347
 5843SOL     OW18427   1.250   3.278   1.813  0.2248 -0.5372 -0.2873
 5843SOL    HW118428   1.345   3.268   1.842  0.2884 -0.1055 -0.3365
 5843SOL    HW218429   1.247   3.331   1.728 -0.0334 -0.8837 -0.4958
 5844SOL     OW18430   0.107   6.295   5.620  0.0961  0.3135 -0.1549
 5844SOL    HW118431   0.184   6.333   5.569  0.7380 -0.2592  0.3676
 5844SOL    HW218432   0.066   6.367   5.676  0.0069  0.7120 -0.7231
 5845SOL     OW18433   2.311   0.768   3.439  0.0851  0.1771 -0.4274
 5845SOL    HW118434   2.269   0.764   3.348  2.4927 -1.6619 -1.5700
 5845SOL    HW218435   2.331   0.676   3.470  2.3791  0.8845  0.4138
 5846SOL     OW18436   6.322   2.562   6.225  0.0226 -0.3602 -0.5311
 5846SOL    HW118437   6.297   2.468   6.204 -0.1319  0.1801 -3.2420
 5846SOL    HW218438   6.386   2.596   6.155 -1.6275  2.1754 -0.9748
 5847SOL     OW18439   2.479   1.997   2.314  0.1711  0.1391 -0.1993
 5847SOL    HW118440   2.421   1.960   2.387  0.0900 -0.5938 -0.6181
 5847SOL    HW218441   2.444   2.086   2.285 -1.3027 -0.6783 -1.0518
 5848SOL     OW18442   0.437   6.688   3.289  0.0801 -0.6100 -0.5622
 5848SOL    HW118443   0.345   6.651   3.278 -0.8897  0.5455  2.5829
 5848SOL    HW218444   0.432   6.781   3.326  2.5160 -0.3708 -0.6659
 5849SOL     OW18445   2.394   6.682   6.790 -0.1611  0.0863  0.2051
 5849SOL    HW118446   2.322   6.706   6.855 -0.3083 -1.3363  0.6226
 5849SOL    HW218447   2.474   6.740   6.805 -2.2230  4.0483 -2.4390
 5850SOL     OW18448   1.904   1.846   2.899 -0.2845  0.5072 -0.4403
 5850SOL    HW118449   1.974   1.872   2.832 -0.1237 -1.2895 -1.0151
 5850SOL    HW218450   1.915   1.902   2.981  1.6898  0.4278 -0.5899
 5851SOL     OW18451   5.833   3.140   2.273  0.3816 -0.0629  0.3817
 5851SOL    HW118452   5.775   3.118   2.351 -0.8131  1.6102  0.0247
 5851SOL    HW218453   5.838   3.061   2.212 -1.7328 -0.1949  0.3179
 5852SOL     OW18454   4.346   6.498   3.656  0.1328  0.8378 -0.4305
 5852SOL    HW118455   4.333   6.572   3.721  0.2403  0.2177  0.3011
 5852SOL    HW218456   4.307   6.525   3.567 -3.0136  0.4492  0.7177
 5853SOL     OW18457   2.682   6.361   6.022  0.2196  0.0834  0.1277
 5853SOL    HW118458   2.707   6.453   6.050  2.5788 -0.9221  1.6118
 5853SOL    HW218459   2.693   6.298   6.099 -1.8703 -1.3997 -0.6876
 5854SOL     OW18460   4.766   2.113   6.675 -0.0095  0.3261  0.1960
 5854SOL    HW118461   4.810   2.099   6.764 -0.3451  2.0673  0.6661
 5854SOL    HW218462   4.720   2.028   6.647  0.4314 -0.3651  1.4920
 5855SOL     OW18463   6.967   0.955   3.124 -0.5422  0.8127 -0.0516
 5855SOL    HW118464   6.922   1.016   3.059 -0.5100 -0.5806 -1.4217
 5855SOL    HW218465   7.063   0.943   3.099  0.1830  2.2730  1.7710
 5856SOL     OW18466   1.098   6.291   3.928  0.3151 -0.5420  0.4332
 5856SOL    HW118467   1.021   6.236   3.895 -1.3657  1.4795  0.7833
 5856SOL    HW218468   1.122   6.360   3.860  0.4550  0.1607  1.1769
 5857SOL     OW18469   4.580   4.359   5.200 -0.2105  0.3842  0.8206
 5857SOL    HW118470   4.584   4.391   5.105 -2.2059 -3.1185 -0.6125
 5857SOL    HW218471   4.672   4.340   5.233  0.4281 -0.1957 -1.1523
 5858SOL     OW18472   3.641   0.225   1.786 -0.1921  0.4085  0.2063
 5858SOL    HW118473   3.726   0.213   1.735 -0.9219 -0.8865 -0.7809
 5858SOL    HW218474   3.624   0.322   1.801  0.3945  0.7866 -1.4434
 5859SOL     OW18475   6.304   0.455   0.367 -0.5307  0.0905 -0.0721
 5859SOL    HW118476   6.224   0.514   0.360 -0.5081  0.0926 -0.3329
 5859SOL    HW218477   6.385   0.510   0.389 -0.4199  0.2245 -0.8115
 5860SOL     OW18478   2.423   4.307   0.295  0.8420 -0.1591  0.1074
 5860SOL    HW118479   2.385   4.399   0.300 -1.3391 -1.0168  0.1566
 5860SOL    HW218480   2.490   4.303   0.221 -1.1819  0.7651 -1.9064
 5861SOL     OW18481   4.842   2.865   4.177 -0.5973  0.0515  0.2504
 5861SOL    HW118482   4.810   2.859   4.271  0.3035 -1.2386  0.4906
 5861SOL    HW218483   4.781   2.813   4.117 -0.6558  0.1148  0.2548
 5862SOL     OW18484   3.167   6.264   3.934 -0.0642  0.1973  0.2738
 5862SOL    HW118485   3.182   6.269   3.836  1.3549 -0.7335  0.4191
 5862SOL    HW218486   3.224   6.331   3.980 -2.6122  2.4898  0.3707
 5863SOL     OW18487   2.835   1.362   4.130 -0.4564 -0.1521 -1.0793
 5863SOL    HW118488   2.883   1.420   4.195 -0.2454 -1.4890  0.0030
 5863SOL    HW218489   2.871   1.379   4.038 -1.0301  2.0283 -0.9355
 5864SOL     OW18490   4.823   5.094   1.288 -0.0867 -0.2689 -0.2843
 5864SOL    HW118491   4.873   5.020   1.333  2.9144  1.3294 -0.7073
 5864SOL    HW218492   4.802   5.166   1.355 -2.5702 -1.2101  0.0308
 5865SOL     OW18493   5.623   0.567   2.305 -0.1189  0.3711  0.0292
 5865SOL    HW118494   5.608   0.622   2.223  0.2425 -0.3022 -0.4952
 5865SOL    HW218495   5.648   0.473   2.279  2.7612  0.8127  0.8360
 5866SOL     OW18496   5.238   0.407   5.814  0.0118 -0.0336  0.0034
 5866SOL    HW118497   5.284   0.321   5.834 -1.3053 -0.1121  3.3659
 5866SOL    HW218498   5.288   0.482   5.858 -1.1006  0.3114  0.7334
 5867SOL     OW18499   2.503   3.384   0.959 -0.2416 -0.4104 -0.1521
 5867SOL    HW118500   2.539   3.452   1.024 -1.0105 -0.9132  0.8111
 5867SOL    HW218501   2.417   3.417   0.921 -1.1829 -1.2980  1.1405
 5868SOL     OW18502   6.560   1.888   6.201 -0.3081 -0.4783 -0.2196
 5868SOL    HW118503   6.617   1.960   6.240  0.5797 -0.2631 -1.8428
 5868SOL    HW218504   6.609   1.842   6.127 -1.9171 -0.8610 -1.0946
 5869SOL     OW18505   1.595   4.169   3.234 -0.2096  0.3873  0.2734
 5869SOL    HW118506   1.500   4.173   3.203 -1.0609 -2.3041  2.1340
 5869SOL    HW218507   1.655   4.145   3.158 -1.5989 -1.6767 -0.2391
 5870SOL     OW18508   5.897   4.214   4.873  0.1589 -0.3684 -0.3508
 5870SOL    HW118509   5.919   4.216   4.971 -0.4797 -1.0157 -0.1910
 5870SOL    HW218510   5.821   4.152   4.857 -1.1696  1.3553 -0.9680
 5871SOL     OW18511   2.284   3.234   7.008  0.1627  0.2154 -0.6898
 5871SOL    HW118512   2.207   3.258   6.949  0.4656 -0.7245 -1.5192
 5871SOL    HW218513   2.274   3.139   7.038 -0.1394  0.7790  1.0583
 5872SOL     OW18514   3.942   5.953   5.482 -0.0767  0.4866 -0.0092
 5872SOL    HW118515   3.875   5.931   5.411 -0.6003  3.3490 -0.4964
 5872SOL    HW218516   3.915   5.908   5.567 -1.2245 -0.3975 -0.8006
 5873SOL     OW18517   0.597   3.614   6.442 -0.3687  0.0147  0.1568
 5873SOL    HW118518   0.561   3.706   6.458  0.1684  0.4096 -0.7856
 5873SOL    HW218519   0.692   3.609   6.472 -0.3455 -0.1824  0.0520
 5874SOL     OW18520   2.169   3.453   0.870 -0.3852 -0.1418 -0.3590
 5874SOL    HW118521   2.194   3.382   0.804 -0.1786 -1.5434  1.1841
 5874SOL    HW218522   2.138   3.411   0.955 -1.0676  1.6233  0.3222
 5875SOL     OW18523   2.446   1.372   2.851 -0.1899  0.1808  0.3635
 5875SOL    HW118524   2.462   1.471   2.856 -0.6813  0.3005 -0.3016
 5875SOL    HW218525   2.487   1.335   2.768 -1.5366  0.1459 -0.3123
 5876SOL     OW18526   2.080   3.954   4.902  0.3801 -0.0746  0.2434
 5876SOL    HW118527   2.096   3.855   4.907  1.6441  0.1014 -0.1047
 5876SOL    HW218528   2.159   4.002   4.937 -0.4967  0.8271  1.0304
 5877SOL     OW18529   0.378   5.706   0.035 -0.3845 -0.1933 -0.1256
 5877SOL    HW118530   0.386   5.794  -0.012  1.0626 -1.2083 -1.9039
 5877SOL    HW218531   0.419   5.713   0.126 -0.4517  1.0003 -0.1690
 5878SOL     OW18532   4.898   5.510   3.155  0.0506  0.1297  0.4650
 5878SOL    HW118533   4.831   5.445   3.189  0.8212 -1.0703 -0.2659
 5878SOL    HW218534   4.961   5.535   3.228 -1.2786  1.4254  1.2128
 5879SOL     OW18535   2.631   3.693   5.724 -0.3277  0.1429  0.7765
 5879SOL    HW118536   2.566   3.762   5.759 -0.7918  0.3384 -0.4371
 5879SOL    HW218537   2.713   3.739   5.690 -0.6197  0.0972  0.0056
 5880SOL     OW18538   5.658   4.650   4.912 -0.2564  0.0808 -0.3603
 5880SOL    HW118539   5.692   4.637   4.819  0.2190 -2.1870  0.0875
 5880SOL    HW218540   5.604   4.571   4.939 -0.1856  0.6040  1.3995
 5881SOL     OW18541   0.740   4.021   1.567 -0.4384 -0.7424 -0.4290
 5881SOL    HW118542   0.747   3.925   1.541 -0.0153 -0.9213  0.3187
 5881SOL    HW218543   0.803   4.040   1.643 -1.7404 -0.2902  0.5872
 5882SOL     OW18544   1.101   6.890   4.155  0.0458 -0.1770  0.0669
 5882SOL    HW118545   1.192   6.900   4.195  0.0636 -0.2321  0.0406
 5882SOL    HW218546   1.053   6.977   4.159 -0.8222 -0.6992  2.3555
 5883SOL     OW18547   2.439   4.135   1.644  0.2677 -0.1066  0.1404
 5883SOL    HW118548   2.513   4.175   1.589  0.0333 -0.9631 -0.8378
 5883SOL    HW218549   2.459   4.039   1.662 -0.6555 -0.3797 -0.2419
 5884SOL     OW18550   6.796   1.477   3.232 -0.3573 -0.7828 -0.1605
 5884SOL    HW118551   6.777   1.542   3.306 -1.1637 -1.9492  0.6955
 5884SOL    HW218552   6.726   1.485   3.162 -0.9180 -1.2701  0.3338
 5885SOL     OW18553   6.789   4.058   0.237  0.0542  0.4457  0.1010
 5885SOL    HW118554   6.705   4.104   0.267 -1.0032 -0.9676 -0.5654
 5885SOL    HW218555   6.791   4.055   0.137 -0.5768 -2.0345  0.1103
 5886SOL     OW18556   1.060   3.716   3.370  0.1044  0.8827  0.0039
 5886SOL    HW118557   1.024   3.720   3.277  0.9000  2.2335 -0.2831
 5886SOL    HW218558   1.001   3.770   3.430 -1.2786 -1.2233  0.6436
 5887SOL     OW18559   1.568   1.319   1.909  0.0304 -0.1838 -0.1601
 5887SOL    HW118560   1.473   1.333   1.935 -0.0954 -2.5956  0.9212
 5887SOL    HW218561   1.575   1.241   1.846  1.1701  0.9200 -1.4863
 5888SOL     OW18562   2.471   0.396   2.868 -0.1227 -0.3545 -0.4259
 5888SOL    HW118563   2.561   0.367   2.837  0.2399  0.9434 -0.6433
 5888SOL    HW218564   2.468   0.496   2.872 -1.5887 -0.3782 -0.5250
 5889SOL     OW18565   0.944   2.524   0.404 -0.0120 -0.0493 -0.5401
 5889SOL    HW118566   0.899   2.438   0.380 -0.0021 -0.6434  1.4108
 5889SOL    HW218567   0.900   2.563   0.485  1.2583  0.7737 -0.2245
 5890SOL     OW18568   1.035   6.620   2.531  0.2148 -0.1532 -0.0248
 5890SOL    HW118569   0.939   6.646   2.542  0.4325  0.2112  1.1178
 5890SOL    HW218570   1.084   6.692   2.482  0.5361  1.1018  2.0103
 5891SOL     OW18571   4.214   3.278   0.222  0.4060  0.2747 -0.0101
 5891SOL    HW118572   4.125   3.260   0.181  0.7543  0.4126 -0.8592
 5891SOL    HW218573   4.232   3.376   0.221  1.0961  0.1582 -1.0324
 5892SOL     OW18574   1.441   4.657   2.537  0.7247 -0.2591 -0.4589
 5892SOL    HW118575   1.496   4.610   2.468  4.0196  0.1892  1.5838
 5892SOL    HW218576   1.440   4.602   2.621 -0.1660  0.7501  0.2092
 5893SOL     OW18577   1.545   5.989   1.724  0.0796  0.2137  0.6628
 5893SOL    HW118578   1.449   5.968   1.703  0.4577 -1.3266  0.3599
 5893SOL    HW218579   1.604   5.929   1.671  1.3003  2.3040 -0.5185
 5894SOL     OW18580   0.733   6.121   5.650  0.2473 -0.1429  0.3130
 5894SOL    HW118581   0.677   6.201   5.632 -0.2366 -0.5973 -0.2540
 5894SOL    HW218582   0.813   6.147   5.704  0.0984  0.7125  0.1305
 5895SOL     OW18583   4.562   2.488   3.931 -0.0387 -0.2698 -0.6998
 5895SOL    HW118584   4.612   2.452   4.010  0.0306  0.3800 -0.4352
 5895SOL    HW218585   4.566   2.588   3.933  1.7546 -0.2379 -2.6530
 5896SOL     OW18586   6.394   0.810   2.832  0.4129  0.0112  0.1632
 5896SOL    HW118587   6.459   0.883   2.812  0.3344 -0.6303 -2.9984
 5896SOL    HW218588   6.442   0.723   2.840  0.0642 -0.3984 -1.7534
 5897SOL     OW18589   3.973   1.938   2.816 -0.0595 -0.6055 -0.0490
 5897SOL    HW118590   4.059   1.977   2.783  0.4215 -0.5342  1.2117
 5897SOL    HW218591   3.902   2.007   2.814  0.4429 -0.0385  0.8565
 5898SOL     OW18592   2.265   1.652   6.343 -0.5119 -0.0973 -0.3834
 5898SOL    HW118593   2.252   1.708   6.262  0.0958  0.1828 -0.2990
 5898SOL    HW218594   2.196   1.580   6.346 -2.1289  1.3913  0.1713
 5899SOL     OW18595   6.083   6.096   6.700 -0.0284 -0.0387  0.2891
 5899SOL    HW118596   6.103   6.128   6.792  1.9264  0.3163 -0.2178
 5899SOL    HW218597   6.164   6.108   6.642 -1.9024  2.0810 -2.1495
 5900SOL     OW18598   5.566   4.923   4.046  0.0727 -0.0550 -0.1474
 5900SOL    HW118599   5.553   5.013   4.004 -0.7801 -0.1542 -0.1151
 5900SOL    HW218600   5.518   4.920   4.133 -0.2076 -0.6583 -0.3181
 5901SOL     OW18601   1.241   0.546   6.390  0.8756  0.0232 -0.3585
 5901SOL    HW118602   1.272   0.481   6.460 -0.3125  1.7711  1.9556
 5901SOL    HW218603   1.296   0.629   6.395 -1.4833  1.6591  1.2177
 5902SOL     OW18604   0.671   2.472   4.597 -0.5104 -0.4527 -0.7785
 5902SOL    HW118605   0.653   2.396   4.659 -0.7853 -0.8591 -1.3423
 5902SOL    HW218606   0.590   2.530   4.591 -0.2605 -0.0438 -0.2577
 5903SOL     OW18607   5.972   1.351   6.609  0.4611 -0.1666 -0.1567
 5903SOL    HW118608   6.027   1.413   6.553  0.2731 -0.4112 -0.6281
 5903SOL    HW218609   6.014   1.260   6.610  0.0937 -0.3492 -0.5000
 5904SOL     OW18610   4.623   5.793   3.821 -0.1179  0.1314  0.0818
 5904SOL    HW118611   4.637   5.706   3.869 -0.7162  0.7056  1.3505
 5904SOL    HW218612   4.708   5.820   3.776 -0.0102 -1.2423 -0.5591
 5905SOL     OW18613   4.435   1.806   3.835  0.3736  0.2874  0.7698
 5905SOL    HW118614   4.451   1.866   3.914  0.1749  1.1302  0.1898
 5905SOL    HW218615   4.350   1.756   3.847  0.2351  0.5759  0.9921
 5906SOL     OW18616   6.517   0.672   5.586 -0.1826  1.1097  0.3612
 5906SOL    HW118617   6.525   0.651   5.489 -0.2524  2.2153  0.1074
 5906SOL    HW218618   6.427   0.645   5.620 -0.6264  1.8840 -0.1858
 5907SOL     OW18619   0.065   0.651   1.755 -0.2642 -0.2248 -0.1271
 5907SOL    HW118620   0.140   0.590   1.779  0.3821  0.2102 -0.9907
 5907SOL    HW218621  -0.008   0.642   1.823 -0.0826 -1.7664 -0.0969
 5908SOL     OW18622   2.627   2.952   0.452 -0.3816 -0.5361  0.0340
 5908SOL    HW118623   2.602   2.857   0.432  1.6373 -0.9521 -0.8610
 5908SOL    HW218624   2.555   3.013   0.422 -0.0491 -1.5558 -3.2412
 5909SOL     OW18625   6.597   4.705   6.118  0.0817  0.2664 -0.0291
 5909SOL    HW118626   6.677   4.699   6.057 -0.3260 -0.6155 -0.4936
 5909SOL    HW218627   6.589   4.620   6.170 -1.3434 -0.2343 -0.9989
 5910SOL     OW18628   2.005   2.706   2.239  0.2014 -0.0430  0.1631
 5910SOL    HW118629   1.942   2.693   2.316 -1.0351  2.1746 -0.3936
 5910SOL    HW218630   2.088   2.752   2.272 -0.2143  0.6669  0.2474
 5911SOL     OW18631   6.825   4.491   6.183  0.2197  0.2273 -0.2559
 5911SOL    HW118632   6.849   4.408   6.132  1.4543  0.6927 -0.4812
 5911SOL    HW218633   6.907   4.528   6.226 -0.1954  1.6472 -0.6273
 5912SOL     OW18634   5.371   2.785   0.699 -0.4183 -0.1713 -0.1759
 5912SOL    HW118635   5.319   2.724   0.640 -0.5487 -0.1387 -0.0970
 5912SOL    HW218636   5.308   2.851   0.742 -0.6176 -1.3794  1.4788
 5913SOL     OW18637   2.723   2.378   4.919  0.2486 -0.4932 -0.1406
 5913SOL    HW118638   2.743   2.448   4.988  1.1660  1.1150 -1.9465
 5913SOL    HW218639   2.624   2.363   4.916  0.0584  0.4998  0.5062
 5914SOL     OW18640   4.407   5.644   0.411  0.1570  0.1608 -0.3470
 5914SOL    HW118641   4.426   5.734   0.449  0.0230  0.2693 -0.5345
 5914SOL    HW218642   4.493   5.600   0.384  0.4575 -0.6835  1.7553
 5915SOL     OW18643   4.253   1.769   2.470  0.5456 -0.1804  0.0833
 5915SOL    HW118644   4.191   1.741   2.397  0.2586 -0.4878  0.4427
 5915SOL    HW218645   4.298   1.854   2.444  0.4126 -0.2636 -0.4322
 5916SOL     OW18646   4.126   0.266   6.084 -0.0116 -0.1187 -0.1863
 5916SOL    HW118647   4.095   0.257   6.179 -0.7334 -0.0619 -0.4097
 5916SOL    HW218648   4.208   0.322   6.082 -0.1879  0.1765  0.3735
 5917SOL     OW18649   3.437   4.051   3.622  0.2247 -0.4106 -0.5499
 5917SOL    HW118650   3.358   4.031   3.679  0.2397 -1.2274 -0.8033
 5917SOL    HW218651   3.521   4.044   3.677  0.2385 -1.1845 -0.6550
 5918SOL     OW18652   1.626   3.828   4.187 -0.4963 -0.9003  0.3208
 5918SOL    HW118653   1.615   3.829   4.088  1.7180  0.1812  0.0268
 5918SOL    HW218654   1.539   3.852   4.230 -1.4828 -1.3409 -1.3459
 5919SOL     OW18655   2.369   1.743   0.104  0.5490 -0.4240  0.4765
 5919SOL    HW118656   2.423   1.673   0.150 -1.2701 -1.0628  1.7864
 5919SOL    HW218657   2.307   1.699   0.039 -0.1817 -0.0040  0.8730
 5920SOL     OW18658   3.496   6.259   0.551  0.1461  0.1271  0.4326
 5920SOL    HW118659   3.583   6.235   0.510 -0.1901 -0.1541 -0.1186
 5920SOL    HW218660   3.444   6.317   0.488 -0.2139  0.0041  0.6143
 5921SOL     OW18661   3.159   6.214   6.622  0.3940  0.4694 -0.2446
 5921SOL    HW118662   3.228   6.210   6.694  1.3714  2.4128 -0.9960
 5921SOL    HW218663   3.095   6.138   6.633  2.3519 -1.1397  0.7660
 5922SOL     OW18664   6.063   4.629   2.997  1.0099 -0.3066  0.0563
 5922SOL    HW118665   6.133   4.610   2.927 -1.2264  0.3755 -2.5436
 5922SOL    HW218666   6.073   4.723   3.029  0.1998  0.4379 -1.7494
 5923SOL     OW18667   6.554   1.819   1.071 -0.2314  0.2901  0.5183
 5923SOL    HW118668   6.620   1.744   1.068 -0.8201 -0.2304 -0.0349
 5923SOL    HW218669   6.601   1.905   1.085  0.5863 -0.0464 -0.0744
 5924SOL     OW18670   5.272   2.481   6.187 -0.3516 -0.4557  0.2275
 5924SOL    HW118671   5.280   2.384   6.162  2.0200 -0.2974  0.2036
 5924SOL    HW218672   5.329   2.501   6.266  1.3930  1.4506 -1.4012
 5925SOL     OW18673   0.498   6.006   1.481  0.3696 -0.7334  0.0365
 5925SOL    HW118674   0.559   5.930   1.457  1.1782 -0.1775  0.2917
 5925SOL    HW218675   0.423   6.011   1.415  0.4193 -1.6236 -0.0985
 5926SOL     OW18676   6.239   3.716   2.289  0.0860  0.0064 -0.5683
 5926SOL    HW118677   6.261   3.620   2.303 -2.6479 -0.5606  0.2973
 5926SOL    HW218678   6.258   3.767   2.374  0.0133 -0.0735 -0.5045
 5927SOL     OW18679   1.963   6.585   2.650 -0.6153 -0.6005 -0.2559
 5927SOL    HW118680   1.945   6.633   2.564 -0.7003 -0.3062 -0.0736
 5927SOL    HW218681   2.030   6.512   2.634  0.4773  0.3830 -0.2784
 5928SOL     OW18682   0.590   1.089   2.043 -0.4903 -0.3903 -0.6751
 5928SOL    HW118683   0.593   1.086   1.943  1.7204 -1.0703 -0.6273
 5928SOL    HW218684   0.658   1.026   2.081 -1.7663 -0.6856  1.2891
 5929SOL     OW18685   0.831   5.904   5.513  0.7200 -0.5128  0.4513
 5929SOL    HW118686   0.779   5.981   5.551 -0.0128 -0.9139  0.2706
 5929SOL    HW218687   0.897   5.872   5.581 -0.3686 -1.0342  1.2892
 5930SOL     OW18688   4.989   6.670   4.916  0.3025  0.1849 -0.2823
 5930SOL    HW118689   5.068   6.681   4.856 -0.8237 -0.8688 -2.0092
 5930SOL    HW218690   4.905   6.683   4.864 -0.7124  0.1268  1.2753
 5931SOL     OW18691   5.899   5.700   2.336  0.0768  0.2638  0.1566
 5931SOL    HW118692   5.825   5.767   2.334  0.1364  0.3164 -0.8280
 5931SOL    HW218693   5.878   5.625   2.272  0.8016  0.2081 -0.0274
 5932SOL     OW18694   2.926   1.078   1.327  0.2612 -0.1194  0.1771
 5932SOL    HW118695   3.014   1.031   1.333  0.4458  0.1209 -0.4826
 5932SOL    HW218696   2.936   1.172   1.358  0.3433  0.0370 -0.3193
 5933SOL     OW18697   6.357   0.425   1.868  0.4257 -0.4102 -0.1643
 5933SOL    HW118698   6.368   0.479   1.784  1.8233 -1.0788 -0.4385
 5933SOL    HW218699   6.399   0.335   1.855  2.5604  0.1939  1.9174
 5934SOL     OW18700   3.547   3.357   2.948  0.0323  0.5535  0.5644
 5934SOL    HW118701   3.528   3.260   2.963  0.2692 -0.1349 -2.7766
 5934SOL    HW218702   3.609   3.391   3.019 -0.8569 -1.4184  2.3922
 5935SOL     OW18703   3.353   3.297   6.789 -0.0817 -0.1860  0.0885
 5935SOL    HW118704   3.275   3.313   6.729 -1.4733 -0.7872  1.6442
 5935SOL    HW218705   3.341   3.350   6.873  0.6960 -1.0381  0.7614
 5936SOL     OW18706   4.822   6.432   6.142  0.1415  0.2903  0.4574
 5936SOL    HW118707   4.791   6.342   6.173 -0.2397  1.1558  2.8294
 5936SOL    HW218708   4.750   6.476   6.088  0.1434 -0.6017 -0.3010
 5937SOL     OW18709   0.298   3.035   2.306  0.1920 -0.1047  0.3058
 5937SOL    HW118710   0.393   3.055   2.327 -0.0970  1.1597  0.4941
 5937SOL    HW218711   0.280   2.938   2.320  1.5223 -0.4210 -0.0370
 5938SOL     OW18712   6.721   4.987   4.202 -0.2578  0.3468  0.9731
 5938SOL    HW118713   6.764   4.903   4.236  1.5425  1.4626  1.6073
 5938SOL    HW218714   6.722   5.056   4.275 -0.7266  1.2630  0.1273
 5939SOL     OW18715   4.446   0.932   3.785  0.6024 -0.1735 -0.0659
 5939SOL    HW118716   4.421   1.026   3.763  1.2102 -0.0507 -0.2482
 5939SOL    HW218717   4.512   0.931   3.859  1.0312 -0.4258 -0.4435
 5940SOL     OW18718   2.489   7.006   2.449 -0.0180 -0.4496 -0.2068
 5940SOL    HW118719   2.574   6.957   2.429  0.9580  1.6191 -1.4258
 5940SOL    HW218720   2.479   7.017   2.548  2.0307  0.6858 -0.0674
 5941SOL     OW18721   5.595   5.775   2.124 -0.4392  0.4071 -0.7173
 5941SOL    HW118722   5.546   5.718   2.189  0.3995 -0.5954 -0.9336
 5941SOL    HW218723   5.532   5.806   2.053 -0.7107 -1.1396 -1.1887
 5942SOL     OW18724   3.638   3.722   6.370  0.2245 -0.3132  0.0027
 5942SOL    HW118725   3.573   3.685   6.304  0.7165  0.3483 -0.8660
 5942SOL    HW218726   3.608   3.698   6.463  0.1286 -2.2009 -0.4876
 5943SOL     OW18727   2.568   4.628   6.980  0.4614 -0.3138 -0.4016
 5943SOL    HW118728   2.519   4.542   6.991  0.0602  0.0250  0.5020
 5943SOL    HW218729   2.569   4.654   6.883  1.3309 -1.7542 -0.8079
 5944SOL     OW18730   3.601   2.093   0.589 -0.2676 -0.4814 -0.3367
 5944SOL    HW118731   3.608   2.120   0.685 -0.6684 -1.6211  0.0227
 5944SOL    HW218732   3.507   2.107   0.557  0.0071  0.4906 -0.7602
 5945SOL     OW18733   0.228   4.966   6.293  0.3275  0.1937 -0.0564
 5945SOL    HW118734   0.135   4.985   6.324  0.6779 -0.3239  1.3771
 5945SOL    HW218735   0.268   4.892   6.347  2.1258  1.4282  0.4200
 5946SOL     OW18736   2.582   3.578   5.990 -0.1389 -0.3545  0.3826
 5946SOL    HW118737   2.498   3.590   6.042 -0.3378  0.1223 -0.0459
 5946SOL    HW218738   2.563   3.584   5.892  0.5599  0.9705  0.3000
 5947SOL     OW18739   2.840   4.511   0.978 -0.0371  0.3092 -0.0855
 5947SOL    HW118740   2.829   4.599   1.025  2.0251  0.6301 -0.1210
 5947SOL    HW218741   2.751   4.481   0.943 -1.0350  1.6762  1.1450
 5948SOL     OW18742   5.361   4.976   3.115  0.0310  0.0720 -0.3334
 5948SOL    HW118743   5.365   5.050   3.048 -0.3284 -0.9371 -1.5086
 5948SOL    HW218744   5.268   4.938   3.117 -0.0962  0.4150  1.1172
 5949SOL     OW18745   4.080   3.632   1.077  0.3887  0.2007 -0.2079
 5949SOL    HW118746   4.018   3.664   1.148 -1.1329 -1.0117 -0.9320
 5949SOL    HW218747   4.036   3.559   1.024  2.6432 -1.1601 -0.3777
 5950SOL     OW18748   0.768   2.596   3.728  0.0219  0.2390 -0.0807
 5950SOL    HW118749   0.795   2.692   3.737 -1.6911  0.8630 -1.0759
 5950SOL    HW218750   0.724   2.567   3.813  0.1105  0.4981  0.0558
 5951SOL     OW18751   3.098   5.779   4.275 -0.0382  0.6520 -0.0129
 5951SOL    HW118752   3.027   5.848   4.290 -1.4812 -0.1362 -2.6690
 5951SOL    HW218753   3.188   5.823   4.275 -0.7002  2.0820  0.8447
 5952SOL     OW18754   5.822   6.376   2.605  0.2160 -0.2113 -0.4713
 5952SOL    HW118755   5.801   6.291   2.654 -2.4265  0.0894 -0.9396
 5952SOL    HW218756   5.825   6.452   2.669 -2.2971  0.0332 -0.5420
 5953SOL     OW18757   6.245   3.645   5.416 -0.4736  0.1857 -0.2168
 5953SOL    HW118758   6.234   3.622   5.319  0.4869  0.4858 -0.4094
 5953SOL    HW218759   6.303   3.726   5.424  0.7128 -0.7245  0.6637
 5954SOL     OW18760   6.896   5.279   6.135 -0.0013 -0.5847  0.2864
 5954SOL    HW118761   6.882   5.200   6.074 -0.6912  0.7387 -1.3373
 5954SOL    HW218762   6.994   5.290   6.152  0.1032 -1.8133  0.5851
 5955SOL     OW18763   4.929   4.897   1.443 -0.3726 -0.0950  0.0191
 5955SOL    HW118764   5.028   4.884   1.451 -0.3885 -0.5119 -0.4122
 5955SOL    HW218765   4.886   4.876   1.531 -0.2080 -1.2681 -0.1529
 5956SOL     OW18766   5.568   2.874   0.542 -0.5205 -0.4767  0.7302
 5956SOL    HW118767   5.513   2.842   0.619 -1.3252 -2.4994 -0.5871
 5956SOL    HW218768   5.528   2.841   0.457  2.0202 -0.9716 -0.3699
 5957SOL     OW18769   5.604   6.033   4.106  0.2042 -0.4173  0.1717
 5957SOL    HW118770   5.685   6.068   4.154  1.0650 -1.5058 -0.4368
 5957SOL    HW218771   5.597   6.078   4.017  0.8876 -1.1983 -0.2999
 5958SOL     OW18772   5.535   0.205   1.740 -0.1072  0.2740 -0.0512
 5958SOL    HW118773   5.516   0.173   1.832 -3.1846 -1.6687 -1.2108
 5958SOL    HW218774   5.607   0.149   1.699 -0.2510 -0.2937  0.4609
 5959SOL     OW18775   2.144   0.485   0.645 -0.0916 -0.1593 -0.0174
 5959SOL    HW118776   2.133   0.578   0.611  0.7802 -0.3163 -0.7570
 5959SOL    HW218777   2.065   0.430   0.619 -0.7266  0.4312  0.6375
 5960SOL     OW18778   4.534   0.017   4.415  0.4576 -0.6769  0.6107
 5960SOL    HW118779   4.550   0.077   4.493 -1.5887  3.0222 -1.5174
 5960SOL    HW218780   4.436   0.012   4.395  0.8747 -1.6438 -1.6048
 5961SOL     OW18781   5.358   6.810   4.841  0.5421 -0.0438  0.7008
 5961SOL    HW118782   5.450   6.795   4.805 -0.1985 -0.1811 -1.2125
 5961SOL    HW218783   5.345   6.908   4.857  1.1625 -0.0679  1.4709
 5962SOL     OW18784   6.110   5.494   2.623  0.5635  0.2627  0.2312
 5962SOL    HW118785   6.062   5.441   2.553 -0.6818  0.3369  0.9891
 5962SOL    HW218786   6.141   5.580   2.584  0.7809 -0.1262 -0.4766
 5963SOL     OW18787   3.077   3.897   2.628  0.2227  0.0246  0.5288
 5963SOL    HW118788   3.171   3.878   2.599 -0.3204 -1.4174 -0.4047
 5963SOL    HW218789   3.078   3.934   2.721  1.8317  1.9216 -0.1651
 5964SOL     OW18790   1.578   6.462   1.548  0.4401 -0.2748 -0.6513
 5964SOL    HW118791   1.614   6.388   1.605 -0.5282 -0.8803 -0.8037
 5964SOL    HW218792   1.628   6.466   1.462 -0.7042 -2.0232 -1.4547
 5965SOL     OW18793   6.605   3.702   6.480 -0.2236 -0.1338  0.4891
 5965SOL    HW118794   6.700   3.698   6.448  0.2640 -0.3771  1.9075
 5965SOL    HW218795   6.579   3.797   6.497 -0.0838 -0.1083  0.5554
 5966SOL     OW18796   4.303   6.316   5.080 -0.3320 -0.1457 -0.0853
 5966SOL    HW118797   4.217   6.280   5.045 -1.4912  0.5942  1.8230
 5966SOL    HW218798   4.304   6.309   5.180  1.2464  1.0900  0.0327
 5967SOL     OW18799   3.890   5.710   3.130  0.5253  0.3816 -0.1131
 5967SOL    HW118800   3.817   5.680   3.191  1.5553 -0.9180  0.5459
 5967SOL    HW218801   3.878   5.806   3.107 -0.6308  0.5394  1.0614
 5968SOL     OW18802   6.004   1.154   2.272 -0.3693  0.2470 -0.1342
 5968SOL    HW118803   6.016   1.238   2.218  1.7982 -0.9703 -1.7390
 5968SOL    HW218804   6.081   1.143   2.334 -0.0559 -1.0332 -0.7054
 5969SOL     OW18805   6.443   3.440   4.901  0.3248 -0.2632 -0.3364
 5969SOL    HW118806   6.492   3.358   4.875  0.0880 -0.7923  0.8066
 5969SOL    HW218807   6.432   3.500   4.821 -1.4538 -2.3230 -1.7309
 5970SOL     OW18808   0.666   2.014   3.730 -0.6558  0.0624  0.4728
 5970SOL    HW118809   0.667   2.085   3.660  0.7456  0.0328  0.4411
 5970SOL    HW218810   0.753   2.014   3.779  0.2778 -3.0084 -0.9309
 5971SOL     OW18811   2.184   6.944   4.016  0.3672  0.1936 -0.0375
 5971SOL    HW118812   2.128   6.875   4.062 -1.0739  1.9148  0.9244
 5971SOL    HW218813   2.179   6.930   3.917 -1.0371 -0.2535  0.0781
 5972SOL     OW18814   4.432   1.859   6.793  0.1000 -0.2365  0.3050
 5972SOL    HW118815   4.379   1.817   6.720  0.4416 -0.2696  0.0740
 5972SOL    HW218816   4.474   1.944   6.760 -0.7238  0.3900  0.8162
 5973SOL     OW18817   6.847   5.332   3.054 -0.8175  0.2886 -0.3182
 5973SOL    HW118818   6.871   5.398   3.126  2.3897  0.9184 -1.7564
 5973SOL    HW218819   6.857   5.239   3.090 -0.2584  0.5890  0.3437
 5974SOL     OW18820   6.070   3.569   6.917  0.4299  0.1193  0.2232
 5974SOL    HW118821   6.051   3.471   6.917  0.8971  0.0122  1.2874
 5974SOL    HW218822   5.986   3.619   6.940  0.0594  0.0095 -0.8607
 5975SOL     OW18823   4.479   1.260   1.693  0.0501 -0.1864 -0.1480
 5975SOL    HW118824   4.456   1.219   1.605 -0.0560 -0.0759 -0.1709
 5975SOL    HW218825   4.545   1.334   1.680  0.5268 -0.5891 -0.0702
 5976SOL     OW18826   3.768   2.159   5.591  0.6755 -0.0556  0.1511
 5976SOL    HW118827   3.745   2.068   5.627  0.8413 -0.5043 -0.8476
 5976SOL    HW218828   3.755   2.227   5.663 -0.5488 -0.7136  0.5888
 5977SOL     OW18829   1.395   5.668   4.036 -0.2582 -0.1591  0.9333
 5977SOL    HW118830   1.484   5.713   4.029  0.2387 -0.9862  1.7964
 5977SOL    HW218831   1.336   5.718   4.100 -0.1414 -0.0510  0.9552
 5978SOL     OW18832   6.311   3.334   5.884 -0.4786 -0.1775  0.2020
 5978SOL    HW118833   6.265   3.356   5.798  0.3871  0.2573 -0.1584
 5978SOL    HW218834   6.364   3.412   5.915  1.0801 -1.0753 -0.0792
 5979SOL     OW18835   6.029   1.918   3.600 -0.3688  0.1125 -0.3383
 5979SOL    HW118836   6.035   1.818   3.605  0.6140  0.1387 -0.8407
 5979SOL    HW218837   5.999   1.953   3.689 -3.3912 -0.7801 -0.9013
 5980SOL     OW18838   5.548   4.485   0.436  0.3536 -0.1562 -0.2802
 5980SOL    HW118839   5.600   4.512   0.516  0.2694  0.1479 -0.3273
 5980SOL    HW218840   5.610   4.450   0.366  0.3327 -1.4148  0.3073
 5981SOL     OW18841   0.019   2.546   2.118 -0.7854  0.0730 -0.4913
 5981SOL    HW118842   0.028   2.536   2.217  0.0882  1.6593 -0.3782
 5981SOL    HW218843   0.102   2.515   2.073 -1.0135 -0.2354 -0.7073
 5982SOL     OW18844   2.332   0.976   0.436  0.4232  0.2799 -0.1218
 5982SOL    HW118845   2.328   0.880   0.408 -1.7563  0.2096  0.2059
 5982SOL    HW218846   2.278   1.032   0.373  0.1842  0.9876  0.6828
 5983SOL     OW18847   1.255   3.349   4.745  0.6009  0.5317  0.0312
 5983SOL    HW118848   1.279   3.433   4.795  1.5130  1.2727 -1.5900
 5983SOL    HW218849   1.159   3.355   4.716  0.3176  0.4753  0.9096
 5984SOL     OW18850   0.210   5.982   4.476 -0.2263  0.2399 -0.2324
 5984SOL    HW118851   0.305   5.997   4.447  0.2060  0.3689  1.1850
 5984SOL    HW218852   0.153   5.966   4.395  0.6358  2.1020 -1.2819
 5985SOL     OW18853   6.198   1.841   3.121  0.1452 -0.0382 -0.4379
 5985SOL    HW118854   6.263   1.807   3.189 -1.1331  1.2456  1.5267
 5985SOL    HW218855   6.206   1.940   3.114  0.5670 -0.1749 -2.5750
 5986SOL     OW18856   3.457   2.907   3.275  0.4960  0.0091 -0.0151
 5986SOL    HW118857   3.361   2.885   3.257  0.8059 -0.7338 -0.8181
 5986SOL    HW218858   3.489   2.975   3.208  0.6357 -0.0196  0.0211
 5987SOL     OW18859   4.910   6.994   2.568 -0.5244  0.4056 -0.0486
 5987SOL    HW118860   4.889   6.927   2.638  1.4373  1.2813  1.4845
 5987SOL    HW218861   4.883   6.959   2.478 -0.2547 -2.0861  0.7777
 5988SOL     OW18862   4.823   1.164   4.085 -0.9654 -0.0957 -0.3912
 5988SOL    HW118863   4.733   1.121   4.074 -1.7085  1.3697 -0.2491
 5988SOL    HW218864   4.871   1.163   3.998 -1.8759  0.7103 -0.9221
 5989SOL     OW18865   2.131   5.091   6.738  0.1895 -0.1534  0.6018
 5989SOL    HW118866   2.038   5.124   6.752  0.1689  0.8484 -1.5473
 5989SOL    HW218867   2.173   5.141   6.663  2.0509 -1.4435  0.7244
 5990SOL     OW18868   4.704   4.294   0.311  0.3867 -0.3853  0.0415
 5990SOL    HW118869   4.660   4.381   0.333  0.1508 -0.4848 -0.0289
 5990SOL    HW218870   4.769   4.307   0.237 -1.1303 -0.6449 -1.3873
 5991SOL     OW18871   3.235   4.854   5.517  0.0514 -0.1692 -0.4462
 5991SOL    HW118872   3.239   4.829   5.614 -0.9561  0.5157 -0.2142
 5991SOL    HW218873   3.192   4.780   5.465  1.1211 -0.7915 -0.4844
 5992SOL     OW18874   5.044   0.435   3.897  0.0017  0.7029 -0.9252
 5992SOL    HW118875   5.031   0.338   3.877 -0.2594  0.6659 -0.5721
 5992SOL    HW218876   4.958   0.484   3.885  0.3134  1.0326 -1.8951
 5993SOL     OW18877   1.750   6.493   5.188  0.2025 -0.4056 -0.0807
 5993SOL    HW118878   1.787   6.459   5.274 -2.5374 -1.2476  0.8574
 5993SOL    HW218879   1.750   6.593   5.188 -1.5198 -0.3443  1.7935
 5994SOL     OW18880   6.698   1.991   1.987  0.2474 -0.4686 -0.0771
 5994SOL    HW118881   6.741   1.969   2.075  1.2959  1.0993 -0.1448
 5994SOL    HW218882   6.721   1.921   1.920 -0.5171 -1.6571  0.8530
 5995SOL     OW18883   5.803   3.958   3.375  0.2317  0.0653  0.2194
 5995SOL    HW118884   5.732   4.006   3.322 -0.3515  2.1897  2.6967
 5995SOL    HW218885   5.762   3.880   3.422 -0.4512  0.9852  1.2332
 5996SOL     OW18886   6.509   0.305   5.039  0.4866  0.8036  0.0269
 5996SOL    HW118887   6.462   0.218   5.027 -1.5338  1.4418  2.4792
 5996SOL    HW218888   6.549   0.309   5.130  0.7252  2.3560 -0.1196
 5997SOL     OW18889   1.352   6.632   1.562  0.7315 -0.2259 -0.1123
 5997SOL    HW118890   1.422   6.565   1.586  1.0002  0.1492  0.1422
 5997SOL    HW218891   1.395   6.720   1.541  0.4772 -0.4041 -1.5009
 5998SOL     OW18892   5.678   3.266   1.457 -0.1202 -0.6329  0.0157
 5998SOL    HW118893   5.743   3.191   1.451  0.5163 -0.0690 -0.2925
 5998SOL    HW218894   5.615   3.250   1.533  0.8670 -0.8082  0.8076
 5999SOL     OW18895   0.392   0.825   4.076 -0.1145  0.0724  0.1459
 5999SOL    HW118896   0.352   0.863   3.993 -1.0290 -1.7446 -0.2999
 5999SOL    HW218897   0.448   0.894   4.121 -0.4948  1.4320 -1.3867
 6000SOL     OW18898   4.982   5.046   2.473  0.1984 -0.0622  0.1480
 6000SOL    HW118899   4.892   5.012   2.445  0.6567  0.2403 -1.8628
 6000SOL    HW218900   5.051   4.976   2.455  0.5822  0.3133  0.1568
 6001SOL     OW18901   0.479   4.220   0.877  0.3072 -0.1613 -0.3151
 6001SOL    HW118902   0.387   4.235   0.912 -0.0457 -1.8468 -0.4297
 6001SOL    HW218903   0.515   4.133   0.912  0.5556 -1.1363 -2.7871
 6002SOL     OW18904   4.023   6.924   1.344  0.6083 -0.0826 -0.4635
 6002SOL    HW118905   3.995   6.961   1.255 -1.0939 -0.6000 -0.1906
 6002SOL    HW218906   3.943   6.883   1.388  1.3372  0.5215  1.4831
 6003SOL     OW18907   5.308   3.882   4.261  0.5929  0.1209  0.8146
 6003SOL    HW118908   5.277   3.892   4.356  0.1127 -0.2970  0.7109
 6003SOL    HW218909   5.329   3.971   4.223  0.8510  0.2869  1.3367
 6004SOL     OW18910   0.380   2.917   2.012  0.4518 -0.3095  0.1598
 6004SOL    HW118911   0.352   2.857   2.087  0.4734  1.3579  1.5637
 6004SOL    HW218912   0.301   2.969   1.980  0.6687 -0.2171 -0.2324
 6005SOL     OW18913   2.290   0.534   5.189  0.0319  0.4419  0.2178
 6005SOL    HW118914   2.285   0.628   5.223  1.1675  1.3639 -1.9275
 6005SOL    HW218915   2.377   0.493   5.215  0.8150  1.0775 -1.2686
 6006SOL     OW18916   3.483   5.939   5.416 -0.0230  0.0858 -0.3236
 6006SOL    HW118917   3.456   5.934   5.512 -0.2426  1.7256 -0.2721
 6006SOL    HW218918   3.403   5.926   5.358 -0.4589  2.0322 -0.2146
 6007SOL     OW18919   6.982   1.381   3.054  0.2766 -0.1087 -0.5699
 6007SOL    HW118920   6.933   1.414   3.134  0.8767 -0.2933 -0.1267
 6007SOL    HW218921   7.080   1.381   3.071  0.3932 -0.4522 -1.1881
 6008SOL     OW18922   3.326   4.781   6.791  0.1223  0.6806 -0.0288
 6008SOL    HW118923   3.364   4.748   6.705 -0.6428 -2.2180  0.6042
 6008SOL    HW218924   3.398   4.789   6.860  0.2628 -0.5106 -0.0139
 6009SOL     OW18925   1.767   2.470   4.504 -0.5703  0.0169 -1.0216
 6009SOL    HW118926   1.815   2.503   4.586  1.1452 -0.0673 -1.9482
 6009SOL    HW218927   1.833   2.433   4.439 -2.0556 -1.5311 -1.7469
 6010SOL     OW18928   2.476   2.866   1.585  0.4943  0.2243  0.6892
 6010SOL    HW118929   2.410   2.902   1.650 -2.8317 -2.4595 -0.9018
 6010SOL    HW218930   2.479   2.925   1.504 -0.1180  0.2255  0.6683
 6011SOL     OW18931   5.469   3.020   2.235 -0.0997 -0.0590 -0.2234
 6011SOL    HW118932   5.496   3.038   2.141 -0.2860  0.1817 -0.2301
 6011SOL    HW218933   5.371   3.001   2.239 -0.2538  0.7812  0.0417
 6012SOL     OW18934   0.669   3.463   6.851  0.1105 -0.0818 -0.0305
 6012SOL    HW118935   0.696   3.537   6.913 -1.7176  3.5541 -3.1386
 6012SOL    HW218936   0.570   3.462   6.842  0.2407 -1.3721 -1.8344
 6013SOL     OW18937   0.541   0.333   1.180  0.0980  0.1306 -0.3916
 6013SOL    HW118938   0.579   0.339   1.088  2.4159  1.6348  0.5693
 6013SOL    HW218939   0.497   0.420   1.204 -1.5310 -0.6409 -0.4479
 6014SOL     OW18940   4.441   6.754   6.441 -0.2620 -0.2484  0.6752
 6014SOL    HW118941   4.538   6.769   6.461 -0.3957  0.7929  0.6239
 6014SOL    HW218942   4.394   6.843   6.437 -0.4908 -0.3748 -3.0351
 6015SOL     OW18943   5.284   1.851   5.509 -0.4250 -0.5532 -0.0722
 6015SOL    HW118944   5.351   1.925   5.514 -0.1805 -0.6489 -1.5091
 6015SOL    HW218945   5.206   1.873   5.567 -1.2200  1.7596 -1.8508
 6016SOL     OW18946   2.453   1.009   2.353  0.4231  0.0565 -0.5947
 6016SOL    HW118947   2.354   1.009   2.340  0.2763 -1.2752  0.3188
 6016SOL    HW218948   2.498   1.037   2.268 -0.7442  1.7231 -0.6987
 6017SOL     OW18949   6.054   3.577   4.621 -0.5296  0.3797  0.4843
 6017SOL    HW118950   6.145   3.589   4.583 -0.1760 -0.9723  0.8505
 6017SOL    HW218951   6.045   3.632   4.705  1.7882 -3.1778  3.3723
 6018SOL     OW18952   1.886   3.363   0.025 -0.2600  0.4806 -0.3144
 6018SOL    HW118953   1.938   3.280   0.045  1.6546  1.1673 -2.0800
 6018SOL    HW218954   1.792   3.351   0.056  0.1813 -1.9685  0.3318
 6019SOL     OW18955   4.383   0.172   4.798 -0.7070 -0.5577 -0.2114
 6019SOL    HW118956   4.326   0.163   4.880 -0.0168 -0.2827  0.3061
 6019SOL    HW218957   4.400   0.081   4.759 -2.1055 -0.5908 -0.8106
 6020SOL     OW18958   3.949   6.273   3.445 -0.1860 -0.0890  0.3884
 6020SOL    HW118959   3.944   6.349   3.510  2.1239  1.9402 -1.5849
 6020SOL    HW218960   3.904   6.299   3.360 -1.4891 -1.9646  0.4448
 6021SOL     OW18961   3.675   0.380   2.060  0.0134  0.0766 -0.2350
 6021SOL    HW118962   3.585   0.338   2.064  0.6270 -1.2773 -0.0335
 6021SOL    HW218963   3.681   0.439   1.979 -0.2515 -1.8172 -1.7006
 6022SOL     OW18964   4.026   2.378   1.315  0.0303  0.0470 -0.1951
 6022SOL    HW118965   3.927   2.389   1.306  0.1559  0.6034 -0.9021
 6022SOL    HW218966   4.045   2.288   1.355 -0.7179 -0.6426 -1.3185
 6023SOL     OW18967   7.017   2.382   4.087  0.1469 -0.1854  0.1925
 6023SOL    HW118968   6.957   2.305   4.066 -0.1044 -0.5956  2.2398
 6023SOL    HW218969   7.109   2.364   4.051  0.3068 -1.8336  1.3379
 6024SOL     OW18970   6.797   5.092   2.205 -0.0845  0.6025 -0.7303
 6024SOL    HW118971   6.723   5.156   2.185 -0.0126  0.5318 -1.2303
 6024SOL    HW218972   6.769   5.000   2.177 -0.2589  0.3807  0.1476
 6025SOL     OW18973   4.250   0.912   1.797  0.3342 -0.6421  0.0957
 6025SOL    HW118974   4.276   0.829   1.748  2.5810  1.5520 -2.7364
 6025SOL    HW218975   4.332   0.959   1.829 -0.8895  0.4510  1.8230
 6026SOL     OW18976   6.922   5.032   5.604  0.2605  0.4952  0.4332
 6026SOL    HW118977   6.910   5.043   5.505 -0.8242 -0.8870  0.3941
 6026SOL    HW218978   6.917   4.935   5.628  1.1185  0.7605  1.7834
 6027SOL     OW18979   2.320   2.236   4.870 -0.0020 -0.2145 -0.1194
 6027SOL    HW118980   2.402   2.218   4.815 -0.2636 -0.0694 -0.5577
 6027SOL    HW218981   2.252   2.282   4.815 -0.1711  0.1765  0.4040
 6028SOL     OW18982   2.335   5.538   1.975 -0.1504  0.1184 -0.5511
 6028SOL    HW118983   2.308   5.477   1.901 -0.7956  1.2353 -1.2811
 6028SOL    HW218984   2.401   5.492   2.035  3.4137  0.3333 -3.9019
 6029SOL     OW18985   1.323   6.526   6.671 -0.5291  0.3756 -0.4647
 6029SOL    HW118986   1.303   6.493   6.763 -1.6201 -0.6715 -1.0576
 6029SOL    HW218987   1.416   6.500   6.646 -1.3792 -2.5085 -0.9562
 6030SOL     OW18988   3.016   0.484   1.725  0.1700 -0.1167  0.0942
 6030SOL    HW118989   3.086   0.428   1.770  1.2812 -1.5638 -3.1616
 6030SOL    HW218990   2.926   0.446   1.745  0.7099 -1.3900  0.2369
 6031SOL     OW18991   5.064   5.636   4.599  0.8275 -0.2542 -0.3053
 6031SOL    HW118992   5.141   5.684   4.557  0.8530  0.1946  0.2386
 6031SOL    HW218993   4.998   5.609   4.529  1.2080 -0.1442 -0.7074
 6032SOL     OW18994   0.876   4.637   2.765  0.2933 -0.1887 -0.5924
 6032SOL    HW118995   0.786   4.642   2.721  0.0936  0.3397 -0.1484
 6032SOL    HW218996   0.864   4.634   2.864  0.7544 -0.6186 -0.5486
 6033SOL     OW18997   1.411   2.637   3.226 -0.0904  0.2897 -0.7371
 6033SOL    HW118998   1.409   2.623   3.325 -2.4264  2.5333 -0.3653
 6033SOL    HW218999   1.490   2.693   3.201  0.7918 -0.7069 -0.2490
 6034SOL     OW19000   2.462   5.171   3.812  0.7642 -0.2776 -0.6403
 6034SOL    HW119001   2.412   5.234   3.753  0.6994 -1.0305 -1.4117
 6034SOL    HW219002   2.428   5.078   3.799  2.0221 -0.7403 -0.8242
 6035SOL     OW19003   5.088   1.848   3.416 -0.0288 -0.2906 -0.1386
 6035SOL    HW119004   5.133   1.842   3.327 -0.5205 -4.2741 -0.3157
 6035SOL    HW219005   5.155   1.835   3.489  0.0866  0.9985  0.0011
 6036SOL     OW19006   6.525   6.363   4.790  0.0618  0.3196 -0.0016
 6036SOL    HW119007   6.456   6.435   4.782 -0.2690 -0.0927 -0.9915
 6036SOL    HW219008   6.504   6.306   4.869 -1.4797 -0.5533 -0.9866
 6037SOL     OW19009   2.772   4.786   5.308  0.1892  0.5173 -0.4593
 6037SOL    HW119010   2.786   4.705   5.251 -0.1073  1.5584 -2.0775
 6037SOL    HW219011   2.767   4.867   5.250 -0.2692  1.6190  1.0565
 6038SOL     OW19012   6.649   2.321   5.110  0.3590  0.1374  0.4494
 6038SOL    HW119013   6.680   2.328   5.205 -0.4456  1.4234  0.6353
 6038SOL    HW219014   6.573   2.384   5.094 -1.2806 -1.9184 -0.3721
 6039SOL     OW19015   3.736   3.268   3.269 -0.0134 -0.2681 -0.1464
 6039SOL    HW119016   3.835   3.257   3.271  0.2589  1.6326 -0.8108
 6039SOL    HW219017   3.713   3.353   3.220 -1.9162 -0.0545  1.0125
 6040SOL     OW19018   0.914   1.144   0.374  0.6290 -0.1583 -0.0423
 6040SOL    HW119019   0.842   1.106   0.432  1.3799 -1.8311 -0.1693
 6040SOL    HW219020   0.992   1.082   0.371  1.0956  0.4362 -1.9172
 6041SOL     OW19021   6.892   2.287   6.377  0.4343  0.3073  0.0688
 6041SOL    HW119022   6.910   2.366   6.319  1.7097  0.3838  0.5568
 6041SOL    HW219023   6.807   2.242   6.346  0.8021  0.6493 -1.5155
 6042SOL     OW19024   5.533   4.107   2.070  0.4388  0.1332 -0.4207
 6042SOL    HW119025   5.591   4.094   2.150  1.4826 -0.0316 -1.1724
 6042SOL    HW219026   5.575   4.061   1.991  0.1524  1.4332 -1.3659
 6043SOL     OW19027   0.957   3.850   4.785  0.2307 -1.0138 -0.2199
 6043SOL    HW119028   0.898   3.911   4.838  0.1671  1.1016 -2.5221
 6043SOL    HW219029   1.046   3.843   4.830 -0.0424  0.1532  0.5546
 6044SOL     OW19030   1.042   0.715   1.207 -0.1384 -0.2645  0.6496
 6044SOL    HW119031   1.114   0.693   1.140 -1.0560 -3.7102  0.5878
 6044SOL    HW219032   0.981   0.636   1.216 -2.0907  1.3935  3.0359
 6045SOL     OW19033   6.813   5.579   0.772  0.6786 -0.4585 -0.4060
 6045SOL    HW119034   6.740   5.527   0.727  1.4403 -3.2814  1.3505
 6045SOL    HW219035   6.773   5.657   0.821 -1.1719 -1.7457  0.2425
 6046SOL     OW19036   3.519   1.241   6.651 -0.4555  0.0215 -0.2946
 6046SOL    HW119037   3.472   1.153   6.654 -0.1021 -0.1708 -0.3239
 6046SOL    HW219038   3.470   1.306   6.709  0.2124 -0.6638  1.0900
 6047SOL     OW19039   6.535   0.414   4.237 -0.3873  0.1323  0.2455
 6047SOL    HW119040   6.564   0.451   4.149  3.0651 -0.6690  0.8817
 6047SOL    HW219041   6.590   0.333   4.259 -1.1425  0.2698  3.0957
 6048SOL     OW19042   4.997   6.221   5.557 -0.5494  0.2631 -0.5361
 6048SOL    HW119043   4.950   6.240   5.471 -0.9105  1.5845 -0.0684
 6048SOL    HW219044   4.935   6.237   5.633 -0.4363 -1.5023 -0.0118
 6049SOL     OW19045   5.929   3.620   1.079 -0.1237  0.5595 -0.1025
 6049SOL    HW119046   5.893   3.526   1.079  1.8677 -0.2732  1.1259
 6049SOL    HW219047   5.854   3.684   1.066 -1.7579 -1.1468  0.3824
 6050SOL     OW19048   3.596   4.674   5.310 -0.9626 -0.1169 -0.6193
 6050SOL    HW119049   3.597   4.605   5.382  1.1658 -0.3490 -0.8227
 6050SOL    HW219050   3.686   4.715   5.301 -2.2926  3.3426  0.0525
 6051SOL     OW19051   2.831   5.911   4.235 -0.2949 -0.5621 -0.4449
 6051SOL    HW119052   2.791   5.956   4.155  0.0603 -1.5398 -1.1971
 6051SOL    HW219053   2.794   5.952   4.318  0.0887  1.1630 -1.0885
 6052SOL     OW19054   1.162   0.832   0.106 -0.0924 -0.9067 -0.2159
 6052SOL    HW119055   1.232   0.812   0.174 -0.9519  0.2414  1.0727
 6052SOL    HW219056   1.154   0.931   0.094  0.4914 -1.0759 -2.5262
 6053SOL     OW19057   3.980   3.057   0.837  0.1142  0.2195 -0.0899
 6053SOL    HW119058   3.886   3.089   0.846  0.1957  0.3125  0.5168
 6053SOL    HW219059   3.999   2.990   0.908  0.9246  1.2511  0.6965
 6054SOL     OW19060   2.586   5.643   5.763  0.0407  0.0684 -0.0060
 6054SOL    HW119061   2.606   5.691   5.848  1.1178  1.4229 -0.9915
 6054SOL    HW219062   2.636   5.556   5.762 -0.0886 -0.0297  0.7745
 6055SOL     OW19063   4.669   0.556   6.014 -0.2370  0.1793  0.1513
 6055SOL    HW119064   4.747   0.492   6.016  0.6765  1.2779  0.7747
 6055SOL    HW219065   4.668   0.602   5.925 -1.1775 -1.0077 -0.4778
 6056SOL     OW19066   5.761   1.163   4.697  0.2326  0.2674 -0.1078
 6056SOL    HW119067   5.776   1.067   4.674  1.2284  0.2557  0.5536
 6056SOL    HW219068   5.847   1.205   4.726 -0.3843  1.0899  0.6097
 6057SOL     OW19069   3.353   2.618   5.579  0.1361 -0.1799 -0.2498
 6057SOL    HW119070   3.337   2.612   5.481 -0.7037 -0.0826 -0.1278
 6057SOL    HW219071   3.419   2.548   5.607 -0.8598 -1.3198 -0.6388
 6058SOL     OW19072   5.248   3.054   3.790 -0.0923  0.2989  0.6842
 6058SOL    HW119073   5.215   2.961   3.773  0.4413 -0.0721  1.6144
 6058SOL    HW219074   5.247   3.106   3.705  1.5829 -1.1856 -0.3019
 6059SOL     OW19075   4.502   4.165   5.393 -0.1661 -0.1318  0.8362
 6059SOL    HW119076   4.487   4.171   5.294 -0.3459 -3.4031  0.5607
 6059SOL    HW219077   4.452   4.239   5.439 -1.4231  0.4952 -1.3960
 6060SOL     OW19078   5.890   5.066   3.513  0.0269 -0.8203 -0.4612
 6060SOL    HW119079   5.820   5.138   3.520  2.0733  1.2398  0.1430
 6060SOL    HW219080   5.898   5.020   3.601  1.4609  1.0529  0.4687
 6061SOL     OW19081   3.736   2.677   6.828 -0.5023 -0.0131  0.0782
 6061SOL    HW119082   3.709   2.644   6.737  1.6796  0.6099 -0.8719
 6061SOL    HW219083   3.656   2.712   6.876 -1.7528 -0.5693 -1.5139
 6062SOL     OW19084   3.043   1.598   5.682  0.4534  0.0589 -0.4460
 6062SOL    HW119085   3.009   1.613   5.774 -1.6860 -1.1044 -0.9805
 6062SOL    HW219086   3.078   1.505   5.674  1.6629  0.5093 -0.5355
 6063SOL     OW19087   4.222   1.554   5.032 -0.1632 -0.1730  0.4332
 6063SOL    HW119088   4.124   1.569   5.038 -0.2417 -0.3189 -0.3680
 6063SOL    HW219089   4.261   1.547   5.124 -0.9294 -0.2972  0.7512
 6064SOL     OW19090   6.202   0.217   2.525  0.1963  0.6608  0.6600
 6064SOL    HW119091   6.202   0.138   2.463  1.3286  0.1116  1.3197
 6064SOL    HW219092   6.191   0.301   2.472 -0.1945  0.1199 -0.1393
 6065SOL     OW19093   6.419   5.581   0.955  0.5311  0.1507 -1.0733
 6065SOL    HW119094   6.492   5.650   0.949  1.4018 -0.3788  1.9100
 6065SOL    HW219095   6.460   5.489   0.947  0.3200 -0.1638  0.9751
 6066SOL     OW19096   4.823   1.172   1.885 -0.5834 -0.1206 -0.4990
 6066SOL    HW119097   4.772   1.107   1.942  0.1881 -0.8472 -0.6212
 6066SOL    HW219098   4.770   1.193   1.803 -0.9354 -0.4113 -0.3503
 6067SOL     OW19099   1.190   0.868   3.930 -0.2191 -0.1882  0.4694
 6067SOL    HW119100   1.136   0.840   4.010  0.3968  0.2091  1.0326
 6067SOL    HW219101   1.287   0.872   3.955  0.1124 -1.1019 -0.5949
 6068SOL     OW19102   4.767   4.183   3.855 -0.7186  0.6753 -0.1073
 6068SOL    HW119103   4.866   4.186   3.843 -0.7133  0.0726 -0.2227
 6068SOL    HW219104   4.746   4.152   3.948 -0.7967 -0.7510 -0.5710
 6069SOL     OW19105   6.851   3.363   5.399  0.2190  0.2291 -0.1374
 6069SOL    HW119106   6.910   3.434   5.358  1.1628  0.6094  1.7714
 6069SOL    HW219107   6.892   3.273   5.382 -1.1542 -0.0073 -2.8618
 6070SOL     OW19108   5.035   4.726   5.132 -0.1463  0.0462 -0.3106
 6070SOL    HW119109   5.082   4.766   5.053  1.4298 -0.9073  0.1014
 6070SOL    HW219110   5.023   4.628   5.117  1.3676 -0.4071  1.1433
 6071SOL     OW19111   5.646   0.727   4.597 -0.1973  0.4577 -0.0848
 6071SOL    HW119112   5.548   0.709   4.590 -0.3925  1.1590  0.7313
 6071SOL    HW219113   5.696   0.641   4.585 -0.9901 -0.2556  1.4411
 6072SOL     OW19114   1.409   1.599   2.675  0.3130 -0.0205  0.2934
 6072SOL    HW119115   1.377   1.694   2.672 -0.7810 -0.3023  1.7677
 6072SOL    HW219116   1.358   1.545   2.608  0.5744  0.3357 -0.1918
 6073SOL     OW19117   4.405   2.598   6.777 -0.6979 -0.1658 -0.2376
 6073SOL    HW119118   4.468   2.605   6.700 -2.3547 -0.1085 -1.6668
 6073SOL    HW219119   4.312   2.619   6.746 -1.6266 -1.3885  1.5025
 6074SOL     OW19120   1.604   6.767   4.872  0.4756  0.2608 -0.2435
 6074SOL    HW119121   1.525   6.793   4.818 -0.4685 -0.8720  0.5314
 6074SOL    HW219122   1.685   6.815   4.839 -0.6540  2.0118 -0.5799
 6075SOL     OW19123   6.463   3.048   0.759  0.6385 -0.3456 -0.0462
 6075SOL    HW119124   6.413   3.079   0.678  1.3722  0.8238 -0.0748
 6075SOL    HW219125   6.558   3.079   0.753  0.7234 -0.3240  1.2188
 6076SOL     OW19126   3.332   0.153   3.792 -0.3724 -0.5336 -0.2818
 6076SOL    HW119127   3.337   0.057   3.765  0.7288 -0.4029 -0.6072
 6076SOL    HW219128   3.259   0.199   3.741 -0.0642 -0.9081 -1.0659
 6077SOL     OW19129   6.091   3.511   2.555 -0.0990 -0.1727 -0.0218
 6077SOL    HW119130   6.133   3.574   2.621  0.9989  1.2178 -1.9377
 6077SOL    HW219131   6.148   3.505   2.474 -0.4217 -3.3705 -0.1390
 6078SOL     OW19132   4.467   5.216   4.213 -0.8578  0.2073 -0.8428
 6078SOL    HW119133   4.397   5.275   4.174 -0.1925  2.1320  0.6778
 6078SOL    HW219134   4.513   5.264   4.287  1.0506 -1.5581 -0.7848
 6079SOL     OW19135   1.853   2.722   0.117  0.8238 -0.5428  0.4290
 6079SOL    HW119136   1.928   2.769   0.072 -0.4680 -0.1590 -1.4458
 6079SOL    HW219137   1.793   2.681   0.049 -2.9439  2.6352  1.4523
 6080SOL     OW19138   5.647   6.861   0.246  1.0478 -0.5462 -0.2480
 6080SOL    HW119139   5.657   6.857   0.147 -1.0645 -2.0837 -0.4713
 6080SOL    HW219140   5.689   6.780   0.287  0.2168 -0.8947 -0.0802
 6081SOL     OW19141   6.535   1.037   2.797  0.2425  0.4049  0.2452
 6081SOL    HW119142   6.610   1.073   2.741  0.9056 -1.8608 -0.4314
 6081SOL    HW219143   6.451   1.087   2.775  0.7929  0.5685 -1.7334
 6082SOL     OW19144   5.241   6.299   2.201  0.3290 -0.1902  0.1728
 6082SOL    HW119145   5.261   6.217   2.254  1.3065  0.1665  0.3778
 6082SOL    HW219146   5.232   6.276   2.105  0.0661 -0.6079  0.2940
 6083SOL     OW19147   6.742   0.033   5.775 -0.4445 -0.0168  0.0446
 6083SOL    HW119148   6.721   0.131   5.770  0.0974  0.0814 -0.3530
 6083SOL    HW219149   6.732  -0.008   5.685  0.2789 -0.1253  0.0074
 6084SOL     OW19150   5.898   5.752   5.278  0.1555 -0.2077 -1.2185
 6084SOL    HW119151   5.859   5.795   5.197 -0.4227  0.2839 -0.6965
 6084SOL    HW219152   5.826   5.734   5.344  0.9165  2.0062  0.3549
 6085SOL     OW19153   6.738   2.739   0.488  0.0227 -0.3102 -0.5535
 6085SOL    HW119154   6.676   2.728   0.565 -0.1903 -0.4612 -0.7435
 6085SOL    HW219155   6.719   2.826   0.442 -0.4529 -0.6233 -0.9652
 6086SOL     OW19156   4.443   0.371   5.316 -0.0079  0.2068 -0.2736
 6086SOL    HW119157   4.520   0.427   5.350 -0.6791  0.0815  1.5673
 6086SOL    HW219158   4.358   0.423   5.326 -0.6290 -1.0230  1.3557
 6087SOL     OW19159   6.748   6.481   6.127  0.2242  0.5924 -0.4986
 6087SOL    HW119160   6.758   6.431   6.041 -0.0870  0.0181 -0.2050
 6087SOL    HW219161   6.838   6.491   6.170  0.4652  1.4026 -1.1739
 6088SOL     OW19162   6.838   6.521   5.370  0.1868 -0.3899 -0.4144
 6088SOL    HW119163   6.738   6.526   5.363  0.2498  0.1797 -0.9674
 6088SOL    HW219164   6.867   6.426   5.365 -0.1851 -0.4424 -2.4319
 6089SOL     OW19165   1.427   4.075   0.748  0.8512 -0.3986 -0.0236
 6089SOL    HW119166   1.479   4.114   0.824  2.2975 -0.7192 -0.8017
 6089SOL    HW219167   1.360   4.141   0.716  1.9406  0.7239 -0.0689
 6090SOL     OW19168   1.889   3.864   4.503  0.0696  0.5109 -0.1415
 6090SOL    HW119169   1.832   3.942   4.481 -0.8066  0.3015  1.2615
 6090SOL    HW219170   1.981   3.895   4.527  0.6180  0.8447 -2.4578
 6091SOL     OW19171   0.401   3.292   1.626 -0.0588 -0.1580 -0.2890
 6091SOL    HW119172   0.416   3.371   1.566  1.8833  0.6184  1.1168
 6091SOL    HW219173   0.484   3.274   1.679 -1.5649 -1.0854  1.8833
 6092SOL     OW19174   2.378   1.645   2.134  1.0017  0.2307 -0.4212
 6092SOL    HW119175   2.469   1.620   2.167  0.8734  0.7602  0.3731
 6092SOL    HW219176   2.368   1.618   2.039  1.7357 -0.4777 -0.3067
 6093SOL     OW19177   0.562   4.883   1.077  0.9237 -0.0692  0.2038
 6093SOL    HW119178   0.597   4.959   1.022  1.9444  0.3091  1.3111
 6093SOL    HW219179   0.480   4.846   1.034  1.8231  0.0101 -1.6896
 6094SOL     OW19180   2.145   1.340   2.601  0.0906  0.3159  0.1428
 6094SOL    HW119181   2.084   1.262   2.587  0.6724 -0.0744 -0.2517
 6094SOL    HW219182   2.119   1.388   2.684 -0.5119 -0.0737  0.1851
 6095SOL     OW19183   6.201   2.910   6.738  0.1243 -0.2392 -0.5504
 6095SOL    HW119184   6.231   2.953   6.823 -2.3061  0.1951  0.1564
 6095SOL    HW219185   6.255   2.828   6.722  0.8917 -0.1309  1.2073
 6096SOL     OW19186   5.412   1.430   2.818 -0.3485  0.1729 -0.1080
 6096SOL    HW119187   5.491   1.372   2.839 -0.5152 -0.1071 -0.2329
 6096SOL    HW219188   5.372   1.466   2.902  0.8184  1.5572 -0.1117
 6097SOL     OW19189   3.173   1.981   2.898 -0.1981 -0.1826  0.3806
 6097SOL    HW119190   3.165   1.911   2.826  0.2650  0.5512 -0.3964
 6097SOL    HW219191   3.105   2.052   2.883 -1.0525 -0.7203  1.4987
 6098SOL     OW19192   1.158   2.355   6.684  0.3146 -0.0294 -0.1324
 6098SOL    HW119193   1.200   2.446   6.680  0.0830  0.0460 -1.5380
 6098SOL    HW219194   1.102   2.342   6.602 -0.6752 -0.9529  0.6743
 6099SOL     OW19195   3.643   4.725   5.947 -0.1195  0.2430  0.2896
 6099SOL    HW119196   3.695   4.807   5.924 -1.0207  0.8873  0.5017
 6099SOL    HW219197   3.595   4.692   5.866 -2.3914  1.8634  0.8635
 6100SOL     OW19198   5.852   3.227   5.431  0.6386  0.3077 -0.5295
 6100SOL    HW119199   5.755   3.211   5.452  0.6427 -0.1705 -0.8484
 6100SOL    HW219200   5.886   3.301   5.487 -0.2068  1.2357 -1.1947
 6101SOL     OW19201   6.049   1.821   5.070 -0.3151  0.4306 -0.3167
 6101SOL    HW119202   6.138   1.815   5.025 -1.0064  0.0734 -1.6986
 6101SOL    HW219203   6.043   1.908   5.119  1.6675 -0.5543  1.8237
 6102SOL     OW19204   2.687   6.435   5.258  0.8421  0.4102  0.0033
 6102SOL    HW119205   2.661   6.478   5.344 -0.5072 -0.4932  0.0881
 6102SOL    HW219206   2.651   6.489   5.181  0.7260  0.4066  0.0548
 6103SOL     OW19207   5.760   0.744   3.942 -0.0903  0.0472 -0.0082
 6103SOL    HW119208   5.755   0.843   3.924  0.0747 -0.0253 -0.4715
 6103SOL    HW219209   5.856   0.717   3.951 -0.1347 -0.0760  0.0973
 6104SOL     OW19210   5.821   1.305   6.162 -0.2164 -0.1937 -0.6212
 6104SOL    HW119211   5.847   1.398   6.187 -0.8484  0.2088 -1.4160
 6104SOL    HW219212   5.901   1.257   6.126  0.3442 -0.2893  0.6919
 6105SOL     OW19213   3.133   6.484   6.643  0.3219 -0.5411 -0.1423
 6105SOL    HW119214   3.122   6.387   6.624 -0.4887 -0.4417 -0.2413
 6105SOL    HW219215   3.195   6.524   6.576  1.1407 -1.0983  0.2634
 6106SOL     OW19216   2.796   4.661   6.563  0.2004 -0.3545  0.5785
 6106SOL    HW119217   2.782   4.574   6.612 -1.0168  0.3001  1.4733
 6106SOL    HW219218   2.722   4.673   6.497  0.2935  0.0653  0.5536
 6107SOL     OW19219   2.180   5.469   6.451  0.5338  0.0498  0.1172
 6107SOL    HW119220   2.275   5.476   6.423  0.4233 -0.4634 -0.3990
 6107SOL    HW219221   2.152   5.554   6.495  0.6061  1.0030 -1.6333
 6108SOL     OW19222   0.066   2.817   3.042  0.4761  0.0704 -0.0314
 6108SOL    HW119223   0.122   2.779   3.116 -0.4802 -0.0379  0.6479
 6108SOL    HW219224   0.083   2.916   3.034  1.1053 -0.0437 -0.1455
 6109SOL     OW19225   6.908   2.169   0.304 -0.1438  0.0508 -0.3031
 6109SOL    HW119226   7.005   2.144   0.310 -0.0578  0.6557  1.4973
 6109SOL    HW219227   6.894   2.258   0.349 -1.1757  1.0787 -2.5039
 6110SOL     OW19228   3.202   1.677   6.577  0.0022 -0.0466  0.2397
 6110SOL    HW119229   3.193   1.767   6.533 -2.2751  0.4747  1.6082
 6110SOL    HW219230   3.280   1.629   6.538  0.6797  2.1044 -1.2619
 6111SOL     OW19231   0.868   6.205   2.870 -0.7279 -0.1450 -0.2284
 6111SOL    HW119232   0.938   6.276   2.877 -1.8378  1.0721 -1.0159
 6111SOL    HW219233   0.878   6.158   2.782 -1.3158  0.5397 -0.6830
 6112SOL     OW19234   1.073   1.610   2.626 -0.4333  0.1696  0.1327
 6112SOL    HW119235   1.001   1.656   2.677 -0.0783 -1.2270  2.0357
 6112SOL    HW219236   1.043   1.594   2.532 -1.6947  1.5652  0.2625
 6113SOL     OW19237   2.175   1.599   5.903  0.3591 -0.0119  0.0972
 6113SOL    HW119238   2.200   1.661   5.977 -0.8410 -0.3555  0.8145
 6113SOL    HW219239   2.151   1.652   5.822  0.7526  0.4014  0.2488
 6114SOL     OW19240   4.605   6.005   6.723 -0.2735  0.2871  0.5654
 6114SOL    HW119241   4.547   6.025   6.802 -2.4551  2.0868 -1.3510
 6114SOL    HW219242   4.584   5.914   6.688  1.6816 -1.1032  2.7433
 6115SOL     OW19243   4.048   5.502   3.228  0.5133 -0.3675  0.6660
 6115SOL    HW119244   3.998   5.587   3.210  0.4709 -1.0404 -3.0701
 6115SOL    HW219245   3.998   5.448   3.295 -0.7319  1.4507  1.2896
 6116SOL     OW19246   3.438   6.086   2.476 -0.0896 -0.0837 -0.6758
 6116SOL    HW119247   3.527   6.039   2.471 -1.0795 -2.1798  0.3042
 6116SOL    HW219248   3.424   6.138   2.392  1.4182 -0.9436 -1.5072
 6117SOL     OW19249   6.695   0.425   5.601 -0.2732 -0.4177 -0.3841
 6117SOL    HW119250   6.745   0.407   5.685 -0.1747  2.5586  0.2981
 6117SOL    HW219251   6.642   0.510   5.610 -2.0842 -1.1847 -2.5598
 6118SOL     OW19252   0.133   0.254   2.938 -0.3343  0.2959 -0.5180
 6118SOL    HW119253   0.058   0.270   2.874 -0.0847 -0.6969 -1.0837
 6118SOL    HW219254   0.205   0.201   2.893 -0.0991 -0.3242  0.5568
 6119SOL     OW19255   0.577   5.581   5.237 -0.0914 -0.6735  0.5788
 6119SOL    HW119256   0.656   5.639   5.254 -0.3623 -0.0469 -0.2469
 6119SOL    HW219257   0.569   5.562   5.140 -2.0018  0.8549  0.3545
 6120SOL     OW19258   2.695   6.356   2.951  0.0003  0.1398 -0.4784
 6120SOL    HW119259   2.613   6.408   2.929  0.2515  0.4480 -0.6813
 6120SOL    HW219260   2.670   6.277   3.009 -0.3362  0.6519  0.0868
 6121SOL     OW19261   6.012   3.805   1.869  0.0141 -0.3272  0.6120
 6121SOL    HW119262   6.071   3.848   1.937  0.5899 -1.0222  0.5614
 6121SOL    HW219263   6.058   3.808   1.780  0.7711 -2.3852  0.8778
 6122SOL     OW19264   3.458   6.112   3.708  0.3347  0.2370 -0.0566
 6122SOL    HW119265   3.553   6.088   3.689  0.3555  0.3079 -0.0447
 6122SOL    HW219266   3.415   6.039   3.761 -0.0767 -0.5191 -1.3962
 6123SOL     OW19267   6.885   1.133   2.939  0.1817  0.5285 -0.1697
 6123SOL    HW119268   6.828   1.140   2.857  0.4572  0.9384 -0.3291
 6123SOL    HW219269   6.913   1.225   2.968  0.7042  0.3344 -0.0566
 6124SOL     OW19270   3.402   1.548   0.059 -0.4687 -0.1012 -0.0170
 6124SOL    HW119271   3.347   1.589  -0.013 -1.6438  1.2982  1.5950
 6124SOL    HW219272   3.384   1.450   0.063 -1.2836  0.0053 -0.8408
 6125SOL     OW19273   1.911   0.750   1.719  0.1454 -0.5055  0.2022
 6125SOL    HW119274   1.881   0.840   1.749  3.5198  0.0212  2.4871
 6125SOL    HW219275   1.868   0.728   1.631 -0.6248  3.3999 -0.5635
 6126SOL     OW19276   5.159   5.053   3.790 -0.2700 -0.1383 -0.4233
 6126SOL    HW119277   5.064   5.044   3.763 -0.2252  0.9219 -0.9827
 6126SOL    HW219278   5.203   4.963   3.788 -1.3565 -0.7116  0.2834
 6127SOL     OW19279   1.557   5.546   0.934 -0.1152 -0.4490 -0.5919
 6127SOL    HW119280   1.506   5.483   0.993  0.4570 -0.0666  0.3240
 6127SOL    HW219281   1.620   5.600   0.989  1.5256 -1.1125 -1.7274
 6128SOL     OW19282   0.883   1.978   0.472  0.1552  0.3138  0.2391
 6128SOL    HW119283   0.837   2.039   0.537  1.2266  0.2142  1.1218
 6128SOL    HW219284   0.886   1.885   0.509  2.0732  0.5400  0.7756
 6129SOL     OW19285   0.311   3.533   2.851  0.4574  1.2104 -0.0749
 6129SOL    HW119286   0.325   3.490   2.762 -1.5711 -1.9725  0.9478
 6129SOL    HW219287   0.390   3.515   2.909 -0.0180 -0.6650  0.0734
 6130SOL     OW19288   6.313   2.067   2.691  0.6867  0.4818 -0.0504
 6130SOL    HW119289   6.264   2.120   2.760 -0.6103 -1.2353  0.4182
 6130SOL    HW219290   6.295   2.106   2.601 -0.6817  0.5581  0.2306
 6131SOL     OW19291   6.293   0.570   5.977  0.2076  0.2908 -0.7884
 6131SOL    HW119292   6.297   0.623   6.061  0.5599  0.0530 -0.6507
 6131SOL    HW219293   6.381   0.525   5.961  0.7267  1.6923 -2.1833
 6132SOL     OW19294   4.765   3.222   1.731 -0.1975  0.3954  0.5318
 6132SOL    HW119295   4.843   3.225   1.793 -0.7732  0.2279  1.2770
 6132SOL    HW219296   4.697   3.158   1.767  0.4032 -1.4647 -1.3887
 6133SOL     OW19297   1.717   4.886   4.113  0.2787 -0.4709  0.1158
 6133SOL    HW119298   1.734   4.929   4.024 -0.6989 -0.7058 -0.1953
 6133SOL    HW219299   1.767   4.799   4.118 -0.2596 -0.8258 -0.5167
 6134SOL     OW19300   2.947   3.172   6.953 -0.3440 -0.0659  0.3019
 6134SOL    HW119301   3.017   3.134   7.014 -0.6086 -0.2818  0.4747
 6134SOL    HW219302   2.925   3.265   6.982  0.9972  0.5925 -0.7003
 6135SOL     OW19303   5.100   5.948   0.978 -0.8394 -0.0201 -0.7326
 6135SOL    HW119304   5.166   5.884   0.939  0.7023 -0.0783  1.7064
 6135SOL    HW219305   5.148   6.012   1.038 -2.6626  1.9154 -1.2179
 6136SOL     OW19306   6.876   1.185   2.195 -0.6894  0.5061 -0.5822
 6136SOL    HW119307   6.891   1.214   2.289 -1.4002 -0.7322 -0.0604
 6136SOL    HW219308   6.960   1.200   2.142  0.1426  0.0696  0.5591
 6137SOL     OW19309   2.597   0.286   6.500 -0.2536  0.4637  0.1046
 6137SOL    HW119310   2.688   0.257   6.530 -0.5890 -0.6655  0.0678
 6137SOL    HW219311   2.565   0.360   6.560  0.4122  0.4213  0.5264
 6138SOL     OW19312   3.802   6.227   2.138 -0.2254 -0.1149 -0.0054
 6138SOL    HW119313   3.834   6.312   2.097  0.0059 -1.1335 -2.0694
 6138SOL    HW219314   3.717   6.198   2.093 -0.5740 -0.7458  1.0120
 6139SOL     OW19315   1.155   3.209   3.859  0.3239 -0.2099  1.1713
 6139SOL    HW119316   1.194   3.259   3.936  0.6396  0.1780  0.7684
 6139SOL    HW219317   1.090   3.267   3.810  0.7513 -0.1544  0.6542
 6140SOL     OW19318   6.605   6.618   1.889 -0.0767 -0.4457  0.8766
 6140SOL    HW119319   6.525   6.676   1.869 -0.7983 -1.0324  1.9223
 6140SOL    HW219320   6.625   6.561   1.810  0.6872  1.2436 -0.2037
 6141SOL     OW19321   5.939   1.069   5.177  0.1027  0.1467  0.0317
 6141SOL    HW119322   6.010   1.128   5.216 -0.2404 -0.6998  2.0790
 6141SOL    HW219323   5.902   1.010   5.249 -1.1120 -1.0108 -1.4768
 6142SOL     OW19324   4.407   4.399   1.460  0.0487  0.2353 -0.0774
 6142SOL    HW119325   4.410   4.406   1.560 -0.3116  0.6888 -0.0954
 6142SOL    HW219326   4.379   4.306   1.434 -3.0765  0.9746  0.3026
 6143SOL     OW19327   6.741   4.031   6.803 -0.0139 -0.1090 -0.6934
 6143SOL    HW119328   6.806   4.006   6.875  0.2872  1.5005 -0.3589
 6143SOL    HW219329   6.790   4.075   6.727 -0.5690  0.1158 -0.9282
 6144SOL     OW19330   0.165   4.825   5.490  0.3430  0.1789  0.1500
 6144SOL    HW119331   0.264   4.824   5.509  0.1015  0.1380  1.4905
 6144SOL    HW219332   0.144   4.902   5.430  1.2265  0.0095 -0.4009
 6145SOL     OW19333   3.444   5.644   1.848  0.0426  0.1473 -0.0321
 6145SOL    HW119334   3.489   5.574   1.904  0.9645  1.4735  0.9480
 6145SOL    HW219335   3.348   5.652   1.876 -0.0910 -0.7278 -0.1874
 6146SOL     OW19336   0.501   1.460   1.996 -0.0659 -0.9210 -0.1691
 6146SOL    HW119337   0.505   1.400   1.916  2.8898 -0.2903 -0.6106
 6146SOL    HW219338   0.538   1.412   2.075  3.2775  0.4504 -0.7421
 6147SOL     OW19339   1.545   2.372   4.339 -0.0540 -0.4903 -0.5078
 6147SOL    HW119340   1.456   2.408   4.368 -0.1260 -0.5148 -0.7012
 6147SOL    HW219341   1.618   2.428   4.380 -0.1603 -0.3372 -0.5260
 6148SOL     OW19342   6.022   6.654   3.427  0.4584 -0.2834  0.2670
 6148SOL    HW119343   5.988   6.633   3.519  0.9709  0.1988  0.5747
 6148SOL    HW219344   6.102   6.714   3.434  0.6934 -0.5005 -0.4856
 6149SOL     OW19345   3.708   4.905   2.234 -0.1930  0.4989 -0.6094
 6149SOL    HW119346   3.693   5.001   2.213  1.0273  0.3707 -2.3265
 6149SOL    HW219347   3.670   4.848   2.161 -3.0286 -0.5393  1.4968
 6150SOL     OW19348   5.704   0.090   6.328  0.2472 -0.4404  0.1545
 6150SOL    HW119349   5.651   0.016   6.369 -0.8957 -0.4424 -1.2247
 6150SOL    HW219350   5.732   0.065   6.236  0.1118  0.7026 -0.2221
 6151SOL     OW19351   5.704   4.039   4.865 -0.2227 -0.1112  0.1067
 6151SOL    HW119352   5.684   4.001   4.955  1.5446  1.3818  1.1853
 6151SOL    HW219353   5.734   3.965   4.804 -2.0262 -1.2331  0.5118
 6152SOL     OW19354   6.031   1.505   0.064 -0.1714 -0.0345 -0.2768
 6152SOL    HW119355   5.949   1.494   0.121 -0.1732 -0.7260 -0.3972
 6152SOL    HW219356   6.107   1.537   0.121 -0.1584 -0.7673  0.1387
 6153SOL     OW19357   3.880   3.431   0.057  0.4178  0.1226 -0.0049
 6153SOL    HW119358   3.899   3.347   0.107 -0.3185  1.5184  2.8396
 6153SOL    HW219359   3.807   3.482   0.103  0.7336  2.2737 -1.6817
 6154SOL     OW19360   6.862   2.778   2.223 -0.5250  0.2334  0.4928
 6154SOL    HW119361   6.857   2.707   2.153  0.3104  0.3122  0.3408
 6154SOL    HW219362   6.855   2.868   2.181 -2.0714  0.2478  0.7364
 6155SOL     OW19363   0.784   2.819   5.793 -0.1650  0.1334  0.0453
 6155SOL    HW119364   0.866   2.763   5.784 -0.2855 -0.1357  0.5862
 6155SOL    HW219365   0.727   2.784   5.867 -1.4671 -0.5335 -1.2319
 6156SOL     OW19366   7.016   1.329   2.413 -0.6982  0.2852 -0.0674
 6156SOL    HW119367   7.078   1.405   2.393 -1.0490 -0.3724 -4.5006
 6156SOL    HW219368   7.067   1.257   2.461  1.2273  0.9792 -0.9510
 6157SOL     OW19369   0.409   1.996   3.573 -0.7147 -0.3968  0.2422
 6157SOL    HW119370   0.415   2.094   3.552 -0.9505 -0.6893 -1.3205
 6157SOL    HW219371   0.477   1.973   3.643  2.6363  0.1144 -2.5294
 6158SOL     OW19372   4.193   0.481   1.246  0.4049 -0.3578 -0.3465
 6158SOL    HW119373   4.208   0.398   1.191 -1.0847 -0.6783 -0.3098
 6158SOL    HW219374   4.151   0.551   1.188 -0.7447 -0.5388  0.2311
 6159SOL     OW19375   4.534   2.555   6.550  0.5868 -0.2713  0.0593
 6159SOL    HW119376   4.581   2.587   6.467 -1.4559 -1.7116 -1.7816
 6159SOL    HW219377   4.562   2.461   6.570 -0.9392 -0.9379 -0.7260
 6160SOL     OW19378   5.160   7.007   0.205 -0.2190  0.3176 -0.4160
 6160SOL    HW119379   5.170   7.104   0.185 -0.1970  0.3166 -0.4100
 6160SOL    HW219380   5.197   6.987   0.296 -0.3277  0.3242 -0.3703
 6161SOL     OW19381   5.449   1.453   6.778 -0.2709  0.0962 -0.3874
 6161SOL    HW119382   5.547   1.433   6.782 -0.1014  0.9023 -0.1746
 6161SOL    HW219383   5.420   1.491   6.866 -0.5124  0.9412 -0.8164
 6162SOL     OW19384   1.698   1.188   5.365 -0.4878 -0.5080  0.2575
 6162SOL    HW119385   1.668   1.176   5.271  1.0137 -0.0345 -0.3178
 6162SOL    HW219386   1.752   1.109   5.394  1.2047  0.4289 -0.1954
 6163SOL     OW19387   5.502   5.737   0.435 -0.0637  0.4783  0.5266
 6163SOL    HW119388   5.577   5.672   0.425 -0.9945 -0.5493  0.0088
 6163SOL    HW219389   5.418   5.688   0.460 -1.1159  1.2637 -1.2318
 6164SOL     OW19390   3.538   2.764   1.506  0.1931  0.8410  0.0326
 6164SOL    HW119391   3.574   2.672   1.521 -1.8409 -0.1393 -0.6611
 6164SOL    HW219392   3.577   2.827   1.572  2.3275 -0.3149 -0.0498
 6165SOL     OW19393   4.975   6.403   0.903 -0.1101 -0.1150  0.1686
 6165SOL    HW119394   4.919   6.451   0.971  0.3687 -0.7996  1.0626
 6165SOL    HW219395   5.070   6.400   0.934 -0.2286 -2.1662  0.4355
 6166SOL     OW19396   2.059   0.730   6.754  0.0563 -0.1482  0.7111
 6166SOL    HW119397   2.027   0.642   6.719  0.5807 -0.0201 -0.1026
 6166SOL    HW219398   2.097   0.718   6.845  2.7078 -1.3116 -0.4627
 6167SOL     OW19399   6.225   4.475   3.279 -0.5660 -0.0947  0.6764
 6167SOL    HW119400   6.244   4.573   3.281 -0.6794 -0.0764  1.3784
 6167SOL    HW219401   6.126   4.460   3.286 -0.4552 -0.2713  2.2692
 6168SOL     OW19402   0.565   2.784   1.708  0.3426 -0.3504 -0.0046
 6168SOL    HW119403   0.590   2.729   1.788 -1.2240 -2.0537 -0.5986
 6168SOL    HW219404   0.631   2.767   1.635  0.5264 -0.5493  0.2035
 6169SOL     OW19405   1.510   5.836   1.959  0.1299  0.7817  0.4837
 6169SOL    HW119406   1.428   5.786   1.931  0.2379  1.1621 -0.5809
 6169SOL    HW219407   1.535   5.901   1.886  0.9054  1.2428  1.1494
 6170SOL     OW19408   1.825   3.579   3.704  0.7218 -1.3096  0.0446
 6170SOL    HW119409   1.895   3.606   3.771  0.3143  1.7155 -0.5787
 6170SOL    HW219410   1.863   3.586   3.612 -0.5106  1.4292 -0.3818
 6171SOL     OW19411   0.773   0.614   6.281 -0.0163 -0.0399 -0.4468
 6171SOL    HW119412   0.800   0.639   6.374 -0.0852  0.0913 -0.4617
 6171SOL    HW219413   0.729   0.524   6.282 -0.8677  0.3757 -0.2167
 6172SOL     OW19414   0.569   2.316   2.840  0.6651 -0.2760 -0.1733
 6172SOL    HW119415   0.472   2.295   2.846  0.9287 -1.1487  1.6063
 6172SOL    HW219416   0.613   2.301   2.928  2.4074  0.2343 -0.8914
 6173SOL     OW19417   5.425   1.011   6.847 -0.1204 -0.1570 -0.4406
 6173SOL    HW119418   5.465   1.087   6.899 -1.6844 -0.7838  1.8706
 6173SOL    HW219419   5.451   0.925   6.891 -0.6536 -0.8051 -1.3716
 6174SOL     OW19420   0.648   4.134   3.433 -0.6017 -0.0497  0.4745
 6174SOL    HW119421   0.553   4.165   3.432 -0.7360 -0.4448 -0.2470
 6174SOL    HW219422   0.701   4.189   3.497 -1.4402 -0.1981  1.3191
 6175SOL     OW19423   2.373   0.845   4.326 -0.1305  0.2453 -0.0272
 6175SOL    HW119424   2.386   0.746   4.316 -0.4075  0.2327 -0.3001
 6175SOL    HW219425   2.345   0.866   4.420 -2.8753 -0.2747 -0.6331
 6176SOL     OW19426   3.777   4.066   4.734 -0.4296 -0.3839 -1.0543
 6176SOL    HW119427   3.840   4.070   4.656  0.0180 -1.4415 -0.7531
 6176SOL    HW219428   3.732   3.977   4.736 -0.2149 -0.4737  0.0770
 6177SOL     OW19429   5.814   1.371   3.127 -0.4765 -0.3879 -0.0399
 6177SOL    HW119430   5.913   1.376   3.138 -0.3996 -0.3886 -0.6979
 6177SOL    HW219431   5.781   1.281   3.157 -0.3789 -0.1315  0.8641
 6178SOL     OW19432   5.277   3.683   3.151 -0.1571  0.4829 -0.1831
 6178SOL    HW119433   5.189   3.668   3.107  0.5123 -0.6881 -1.2296
 6178SOL    HW219434   5.340   3.610   3.124  1.0983  1.2217  0.6271
 6179SOL     OW19435   6.066   5.881   3.089 -0.6881 -0.1423  0.0791
 6179SOL    HW119436   6.002   5.870   3.013 -0.1701  1.4275 -0.6322
 6179SOL    HW219437   6.159   5.895   3.053 -0.3472  0.1012  1.0188
 6180SOL     OW19438   3.080   4.388   0.953  0.1890 -0.2151  0.1525
 6180SOL    HW119439   2.995   4.438   0.968  0.1993  0.3701 -1.5271
 6180SOL    HW219440   3.066   4.292   0.977 -0.9741 -0.1403 -0.1553
 6181SOL     OW19441   5.221   6.530   5.793 -0.2096 -0.1501  0.2724
 6181SOL    HW119442   5.252   6.613   5.746  2.4904 -1.2990 -0.1476
 6181SOL    HW219443   5.146   6.553   5.855 -0.4371  2.3286 -0.7878
 6182SOL     OW19444   2.923   3.966   0.478 -0.2607 -0.3825  0.5154
 6182SOL    HW119445   2.985   4.005   0.409 -0.4984  0.0191  0.5245
 6182SOL    HW219446   2.933   3.866   0.478  1.2972 -0.2601  1.3951
 6183SOL     OW19447   2.641   1.311   1.224 -0.1638 -0.1427 -0.1277
 6183SOL    HW119448   2.658   1.220   1.186  1.1928 -0.3009  0.7890
 6183SOL    HW219449   2.693   1.322   1.309 -2.2223  0.6242  1.0914
 6184SOL     OW19450   3.708   6.541   0.627 -0.6709 -0.6081  0.7081
 6184SOL    HW119451   3.664   6.631   0.633 -1.2350 -0.7318 -1.0894
 6184SOL    HW219452   3.730   6.509   0.719 -0.8729  1.1585  1.4186
 6185SOL     OW19453   3.239   3.852   4.777 -0.3245  0.3871  0.5673
 6185SOL    HW119454   3.305   3.865   4.851 -1.3779 -1.7793  2.0114
 6185SOL    HW219455   3.150   3.829   4.816 -0.8605 -1.0319 -1.3603
 6186SOL     OW19456   0.227   1.395   0.705 -0.3300  0.5917 -0.6263
 6186SOL    HW119457   0.303   1.354   0.757 -1.1717  0.6642  0.7212
 6186SOL    HW219458   0.209   1.340   0.624 -0.1941 -0.6537  0.1490
 6187SOL     OW19459   3.073   2.120   3.454 -0.2305 -0.2937 -0.2702
 6187SOL    HW119460   3.173   2.123   3.456 -0.2146 -0.8410 -0.0917
 6187SOL    HW219461   3.043   2.025   3.450 -0.7683 -0.1803  0.7621
 6188SOL     OW19462   2.383   2.380   5.074 -0.5425  0.0229  0.2146
 6188SOL    HW119463   2.402   2.477   5.067 -0.5982 -0.0019 -0.3251
 6188SOL    HW219464   2.383   2.339   4.983  2.4821 -1.0507  0.5892
 6189SOL     OW19465   5.208   5.830   2.284  0.1306  0.6320  0.0038
 6189SOL    HW119466   5.275   5.876   2.226  0.2617 -1.4466 -1.6480
 6189SOL    HW219467   5.199   5.878   2.371  1.4100  2.7494 -0.9654
 6190SOL     OW19468   5.545   1.866   4.553  0.4394  0.9326 -0.2531
 6190SOL    HW119469   5.519   1.802   4.625  0.7951  1.0949  0.0302
 6190SOL    HW219470   5.550   1.819   4.465  1.5912  0.3516  0.0974
 6191SOL     OW19471   4.680   3.427   6.461 -0.0442  0.2171 -0.1340
 6191SOL    HW119472   4.624   3.422   6.544  0.4450 -2.0238  0.1274
 6191SOL    HW219473   4.777   3.422   6.486  0.1631  0.7552 -0.7884
 6192SOL     OW19474   2.028   2.758   1.074 -0.3666 -0.4838  0.1488
 6192SOL    HW119475   1.991   2.833   1.019  0.5063 -0.3736 -0.2981
 6192SOL    HW219476   2.031   2.675   1.018 -0.3870 -0.6056  0.3296
 6193SOL     OW19477   5.024   6.782   0.512 -0.1884  0.1520  0.1193
 6193SOL    HW119478   5.005   6.751   0.605 -1.5764 -1.3065 -0.5921
 6193SOL    HW219479   5.113   6.746   0.483 -0.5163 -0.8430  0.3058
 6194SOL     OW19480   6.652   2.449   6.126 -0.1324 -0.5140  0.7168
 6194SOL    HW119481   6.583   2.500   6.075  0.2530  0.9838  1.6596
 6194SOL    HW219482   6.700   2.387   6.063 -0.7946  0.0675 -0.3918
 6195SOL     OW19483   5.477   5.787   5.052  0.1493  0.3464 -0.7744
 6195SOL    HW119484   5.525   5.772   4.965  0.6672  0.2613 -0.4754
 6195SOL    HW219485   5.435   5.878   5.051  0.1406  0.3423 -1.1146
 6196SOL     OW19486   6.581   2.997   4.173  0.3403  0.3083 -0.4942
 6196SOL    HW119487   6.564   3.033   4.264  1.9219  0.5239 -0.2454
 6196SOL    HW219488   6.542   2.905   4.166  0.9247 -0.0569  0.7023
 6197SOL     OW19489   3.394   5.280   3.409 -0.2382  0.5080  0.5802
 6197SOL    HW119490   3.486   5.294   3.371 -0.4098 -1.0200 -0.5024
 6197SOL    HW219491   3.395   5.298   3.507  1.4556 -0.3696  0.7552
 6198SOL     OW19492   5.639   0.482   4.099 -0.0656  0.0623  0.2512
 6198SOL    HW119493   5.627   0.392   4.057  0.3182  0.1989 -0.1606
 6198SOL    HW219494   5.736   0.505   4.103 -0.1678  0.5178  0.2219
 6199SOL     OW19495   1.493   6.876   0.333 -0.4041 -0.3661  0.6116
 6199SOL    HW119496   1.510   6.781   0.304  1.7873  0.5296 -1.3453
 6199SOL    HW219497   1.572   6.908   0.386  0.3141  1.2619 -1.3195
 6200SOL     OW19498   3.676   0.909   2.924  0.3537 -0.0383 -0.1815
 6200SOL    HW119499   3.585   0.870   2.913  0.1574 -0.0878  1.3477
 6200SOL    HW219500   3.744   0.835   2.929  0.2519 -0.0969  0.4463
 6201SOL     OW19501   6.199   2.442   5.174 -0.2730  0.7305 -0.0023
 6201SOL    HW119502   6.173   2.538   5.173  0.5071  0.9426 -0.6859
 6201SOL    HW219503   6.148   2.395   5.246 -0.6438  1.6530  0.3574
 6202SOL     OW19504   5.350   1.849   2.955 -0.0502 -0.2173  0.5749
 6202SOL    HW119505   5.422   1.780   2.956  0.1074 -0.0650  0.1289
 6202SOL    HW219506   5.392   1.940   2.953 -0.2534 -0.1305  0.2279
 6203SOL     OW19507   6.826   5.632   1.691  0.6180 -0.2641  0.4497
 6203SOL    HW119508   6.796   5.619   1.785 -1.0385  0.9784  0.1418
 6203SOL    HW219509   6.800   5.553   1.636  0.1207 -0.2925  0.7165
 6204SOL     OW19510   1.538   1.337   6.151  0.7138 -0.3032 -0.1626
 6204SOL    HW119511   1.546   1.368   6.245  1.0845  1.2433 -0.6704
 6204SOL    HW219512   1.501   1.244   6.149  1.9020 -0.8572  1.5500
 6205SOL     OW19513   5.731   4.143   4.284  0.2746 -0.6276 -0.3860
 6205SOL    HW119514   5.701   4.134   4.379  0.2489 -2.5347 -0.5364
 6205SOL    HW219515   5.663   4.193   4.231 -1.3786 -2.4774 -0.1114
 6206SOL     OW19516   6.200   1.473   4.757 -0.0541  0.7298  0.3850
 6206SOL    HW119517   6.242   1.448   4.670  0.0506 -0.2124  0.7013
 6206SOL    HW219518   6.271   1.491   4.824 -0.1493 -0.0472  0.6937
 6207SOL     OW19519   2.062   6.139   6.697  0.0238  0.2274 -0.0962
 6207SOL    HW119520   2.022   6.048   6.711  0.4468  0.1074  0.3152
 6207SOL    HW219521   2.160   6.131   6.679  0.1845  0.6422  0.5429
 6208SOL     OW19522   5.474   3.513   0.359 -0.1254 -0.8217 -0.3651
 6208SOL    HW119523   5.380   3.486   0.337 -0.9934  3.6265 -3.4117
 6208SOL    HW219524   5.480   3.532   0.457 -2.0630 -2.2830  0.1031
 6209SOL     OW19525   1.657   5.019   0.094 -0.0048 -0.2835  0.5543
 6209SOL    HW119526   1.608   4.933   0.101 -0.7965  0.0437 -0.7114
 6209SOL    HW219527   1.750   5.002   0.060 -0.3375 -0.5863 -0.2174
 6210SOL     OW19528   4.934   2.572   4.102  0.3982  0.2908 -0.0285
 6210SOL    HW119529   4.873   2.646   4.075 -2.9735 -2.2597 -0.0889
 6210SOL    HW219530   4.957   2.580   4.199 -0.2755  1.1510  0.0670
 6211SOL     OW19531   5.398   5.319   4.823 -0.0444  0.0261  0.3531
 6211SOL    HW119532   5.328   5.387   4.805  0.6249  0.9027  0.9269
 6211SOL    HW219533   5.437   5.335   4.914  0.0086 -1.2398  0.5737
 6212SOL     OW19534   2.222   3.779   5.162 -0.2931  0.3005 -0.6308
 6212SOL    HW119535   2.153   3.851   5.168 -0.1512  0.3579  0.7360
 6212SOL    HW219536   2.313   3.819   5.169 -0.2304 -0.0390  1.1186
 6213SOL     OW19537   4.835   6.327   0.434  0.5220 -0.2130 -0.4581
 6213SOL    HW119538   4.809   6.241   0.479  2.5771 -0.7987 -0.3072
 6213SOL    HW219539   4.904   6.309   0.365  1.7065  1.4318  0.2321
 6214SOL     OW19540   6.685   5.440   4.760  0.2323 -0.2254 -0.1525
 6214SOL    HW119541   6.711   5.536   4.777  1.4377 -0.6239  0.4088
 6214SOL    HW219542   6.661   5.396   4.846 -2.7938  0.1885 -0.6708
 6215SOL     OW19543   4.275   2.490   6.979 -0.1993 -0.3659  0.3041
 6215SOL    HW119544   4.181   2.504   6.947 -0.1487  1.5998  0.8902
 6215SOL    HW219545   4.338   2.525   6.911 -0.0072  1.2482  1.2816
 6216SOL     OW19546   4.842   4.584   2.760  0.4595 -1.1708  0.1861
 6216SOL    HW119547   4.816   4.630   2.845  0.1219 -2.1107  0.6086
 6216SOL    HW219548   4.855   4.486   2.778  1.0617 -1.2672 -0.7070
 6217SOL     OW19549   2.854   2.534   1.134  0.2029 -0.2043  0.3315
 6217SOL    HW119550   2.882   2.468   1.064 -1.5206 -1.2966  0.6204
 6217SOL    HW219551   2.821   2.618   1.089 -1.0198 -0.9445 -0.2231
 6218SOL     OW19552   4.171   4.483   0.061  1.0815  0.1533  0.2588
 6218SOL    HW119553   4.104   4.439   0.121  0.6888  0.8408  0.3374
 6218SOL    HW219554   4.124   4.547   0.000  1.4921 -0.4251 -0.6887
 6219SOL     OW19555   0.796   1.372   6.605  0.0734 -0.5079 -0.3401
 6219SOL    HW119556   0.890   1.350   6.580  0.1683  0.6672 -1.1042
 6219SOL    HW219557   0.737   1.366   6.524 -0.7200 -2.1823  0.3162
 6220SOL     OW19558   5.297   2.564   0.953 -0.4082 -0.7146  0.2668
 6220SOL    HW119559   5.352   2.535   0.874  0.4207  1.8814 -0.2010
 6220SOL    HW219560   5.357   2.584   1.030 -0.9655 -0.4684  0.6420
 6221SOL     OW19561   5.530   3.787   6.289 -0.6129 -0.2423  0.2189
 6221SOL    HW119562   5.495   3.847   6.362 -0.2749 -0.3818  0.4948
 6221SOL    HW219563   5.576   3.709   6.330 -0.2386 -0.2129 -0.1463
 6222SOL     OW19564   1.008   0.879   2.626  0.5245 -0.1717 -0.4780
 6222SOL    HW119565   1.080   0.942   2.655  0.4385 -0.8013  1.2417
 6222SOL    HW219566   1.048   0.789   2.606  0.0701 -1.2863  2.9352
 6223SOL     OW19567   1.036   2.916   4.471 -0.3235 -0.5002  0.1152
 6223SOL    HW119568   1.062   2.995   4.415  0.2823 -1.3269 -0.7903
 6223SOL    HW219569   0.948   2.934   4.514 -1.7414 -0.5429 -2.5477
 6224SOL     OW19570   4.234   1.992   0.153  0.0490 -0.2523 -0.2730
 6224SOL    HW119571   4.237   2.092   0.151  0.8855 -0.2793 -1.8598
 6224SOL    HW219572   4.178   1.962   0.230 -1.9009  1.4638 -0.9200
 6225SOL     OW19573   1.755   6.472   5.816 -0.3665 -0.6151  0.1810
 6225SOL    HW119574   1.762   6.374   5.837  0.3023 -0.3940  1.0017
 6225SOL    HW219575   1.759   6.525   5.900 -1.4092  0.1038 -0.1938
 6226SOL     OW19576   6.240   2.608   5.867 -0.3284 -0.2705  0.9862
 6226SOL    HW119577   6.277   2.615   5.960 -0.3750  1.6989  0.9115
 6226SOL    HW219578   6.292   2.668   5.806 -1.2221 -0.4048  0.0696
 6227SOL     OW19579   3.034   3.840   4.518 -0.0512 -0.2999  0.3436
 6227SOL    HW119580   3.031   3.799   4.426  1.1325 -2.6414  1.2694
 6227SOL    HW219581   3.094   3.920   4.517 -1.2121  0.6365 -1.1881
 6228SOL     OW19582   4.239   1.127   3.373  0.1057 -0.4245 -0.1547
 6228SOL    HW119583   4.209   1.071   3.450 -0.2030  0.2404  0.2170
 6228SOL    HW219584   4.205   1.087   3.288 -0.9173 -0.2906  0.1775
 6229SOL     OW19585   0.292   3.451   1.381  0.1238  0.2193  0.3395
 6229SOL    HW119586   0.200   3.417   1.366 -0.3337  1.9900 -1.1298
 6229SOL    HW219587   0.289   3.544   1.418  1.3521 -0.3877  2.1676
 6230SOL     OW19588   1.880   0.498   1.196  0.5959  0.5312  0.1666
 6230SOL    HW119589   1.949   0.508   1.124  1.0255  0.0406  0.4970
 6230SOL    HW219590   1.795   0.541   1.168  0.8580  0.6180 -0.5012
 6231SOL     OW19591   6.955   3.597   0.305 -0.0573 -0.2625  0.0320
 6231SOL    HW119592   6.958   3.521   0.371 -1.1898  0.0136  0.4167
 6231SOL    HW219593   6.863   3.605   0.267 -0.3068  1.7111  0.9334
 6232SOL     OW19594   6.374   2.684   6.680  0.0907 -0.2356 -0.2715
 6232SOL    HW119595   6.381   2.597   6.631 -0.4759 -1.5997  1.9019
 6232SOL    HW219596   6.459   2.699   6.732  0.2729  0.6483 -0.8061
 6233SOL     OW19597   0.353   1.310   2.739 -0.1449  0.0729 -0.0092
 6233SOL    HW119598   0.426   1.373   2.766  0.4657  0.3467 -2.1357
 6233SOL    HW219599   0.267   1.361   2.728 -0.0150  0.2578 -0.1758
 6234SOL     OW19600   7.013   6.985   5.606  0.5433 -0.1115 -0.1998
 6234SOL    HW119601   7.092   7.046   5.614 -0.9178  1.7091  1.3966
 6234SOL    HW219602   6.983   6.956   5.697 -3.2799  3.0019 -0.2034
 6235SOL     OW19603   0.406   0.148   1.728 -0.1655 -0.3016 -0.1227
 6235SOL    HW119604   0.386   0.050   1.728  1.0058 -0.6556  2.6226
 6235SOL    HW219605   0.494   0.163   1.683 -0.7352 -0.3778 -1.2860
 6236SOL     OW19606   0.618   4.569   0.307  0.1152  0.4259 -0.1609
 6236SOL    HW119607   0.519   4.579   0.304 -0.0446 -0.7309  0.6900
 6236SOL    HW219608   0.645   4.531   0.395  1.1949 -0.5137 -0.8635
 6237SOL     OW19609   3.390   0.472   1.167 -0.4388 -0.3222 -0.0062
 6237SOL    HW119610   3.420   0.400   1.104  0.1686  0.9265 -1.1972
 6237SOL    HW219611   3.304   0.444   1.210  0.3213 -2.2006  0.3829
 6238SOL     OW19612   2.333   6.702   5.400 -0.2317  0.4074  0.0453
 6238SOL    HW119613   2.243   6.669   5.372 -1.0917  0.7564  2.2381
 6238SOL    HW219614   2.391   6.624   5.423 -0.1220  0.2057 -0.8624
 6239SOL     OW19615   5.143   6.155   2.742 -0.4816  0.2518  0.1622
 6239SOL    HW119616   5.075   6.157   2.668 -3.1545  0.0192  2.4200
 6239SOL    HW219617   5.154   6.061   2.775 -0.4439  0.5255  0.9613
 6240SOL     OW19618   4.079   3.212   5.219 -0.6533  0.1147 -0.0232
 6240SOL    HW119619   4.049   3.121   5.247 -0.7244  0.1565  0.0362
 6240SOL    HW219620   4.024   3.243   5.141 -0.6323  0.1095 -0.0404
 6241SOL     OW19621   2.625   0.030   3.037  0.6550  0.4660  0.2779
 6241SOL    HW119622   2.593   0.119   3.068  0.0912  0.4859 -0.3327
 6241SOL    HW219623   2.556  -0.039   3.056  2.2640 -0.4408  3.4755
 6242SOL     OW19624   1.993   2.682   3.723 -0.0807 -0.1535 -0.1500
 6242SOL    HW119625   1.987   2.648   3.817 -0.8244  0.4501  0.0280
 6242SOL    HW219626   2.071   2.745   3.716 -0.7399  0.7511  0.3854
 6243SOL     OW19627   5.011   0.879   5.246  0.2209 -0.0738 -0.3304
 6243SOL    HW119628   5.011   0.958   5.185 -1.2737  1.0653  1.0439
 6243SOL    HW219629   4.947   0.810   5.213 -0.4201  0.4447 -0.1816
 6244SOL     OW19630   5.389   5.180   2.924 -0.0039  0.0744 -0.3141
 6244SOL    HW119631   5.476   5.219   2.954 -0.0437  0.6752 -0.9561
 6244SOL    HW219632   5.323   5.254   2.910  0.2007 -0.0800 -2.4696
 6245SOL     OW19633   0.836   4.315   4.605  0.1461 -0.5494  0.3037
 6245SOL    HW119634   0.888   4.235   4.573  2.7344  0.8080  0.8811
 6245SOL    HW219635   0.865   4.396   4.554 -0.9954  0.3707  1.0771
 6246SOL     OW19636   5.842   6.608   4.835  0.1700  0.7437 -0.2644
 6246SOL    HW119637   5.917   6.546   4.813  0.4601  0.2436  1.8847
 6246SOL    HW219638   5.770   6.558   4.883 -0.8767  1.5288 -0.9666
 6247SOL     OW19639   6.877   5.587   3.200  0.1004 -0.1407  0.2521
 6247SOL    HW119640   6.777   5.589   3.203  0.1343  1.0869  1.2099
 6247SOL    HW219641   6.909   5.647   3.126  0.1354 -0.5495 -0.0675
 6248SOL     OW19642   3.542   2.267   0.241 -0.4015 -0.3674  0.2490
 6248SOL    HW119643   3.547   2.188   0.301  0.8150  0.6135  1.5196
 6248SOL    HW219644   3.448   2.282   0.212 -0.7696 -1.7551  0.6805
 6249SOL     OW19645   6.358   2.874   1.733 -0.3735 -0.0909  0.0435
 6249SOL    HW119646   6.383   2.907   1.642  2.2632 -2.4868 -0.2467
 6249SOL    HW219647   6.385   2.943   1.802  1.8955 -0.0964 -0.7336
 6250SOL     OW19648   6.722   0.918   6.896 -0.3166  0.0166  0.2277
 6250SOL    HW119649   6.649   0.876   6.951  1.0177 -0.3088  1.8065
 6250SOL    HW219650   6.795   0.950   6.956  1.6100 -1.0989 -1.4085
 6251SOL     OW19651   2.722   0.381   6.234  0.2675  0.0047  0.4496
 6251SOL    HW119652   2.682   0.348   6.319 -0.9262  0.2488  0.0045
 6251SOL    HW219653   2.787   0.454   6.254 -1.3598  1.3537  1.0753
 6252SOL     OW19654   2.562   5.276   0.757 -0.6268  0.2728 -0.0175
 6252SOL    HW119655   2.614   5.356   0.724  0.1612 -0.4100 -0.4668
 6252SOL    HW219656   2.465   5.290   0.738 -0.3835  0.6912 -1.0262
 6253SOL     OW19657   3.469   4.856   5.148  0.0860 -0.1875  0.9062
 6253SOL    HW119658   3.490   4.951   5.174  1.7457 -0.3892  0.4167
 6253SOL    HW219659   3.517   4.794   5.210  0.8832 -0.6811 -0.1769
 6254SOL     OW19660   1.848   6.437   0.637 -0.2239  0.4981 -0.1874
 6254SOL    HW119661   1.796   6.372   0.693 -1.1034  2.2547  1.1428
 6254SOL    HW219662   1.944   6.433   0.663 -0.5694  1.0573  1.2645
 6255SOL     OW19663   0.424   2.786   1.423 -0.1342 -0.6967 -0.3569
 6255SOL    HW119664   0.384   2.812   1.510 -0.8415 -2.9686  0.0541
 6255SOL    HW219665   0.518   2.757   1.436  0.2430  0.3765 -0.6100
 6256SOL     OW19666   5.648   6.164   2.099  0.3032  0.2094  0.2054
 6256SOL    HW119667   5.599   6.215   2.028  0.8484  1.6936  0.8670
 6256SOL    HW219668   5.663   6.222   2.178  1.9398 -0.6173  0.5572
 6257SOL     OW19669   3.126   3.567   1.584  0.0676 -0.2449 -0.1335
 6257SOL    HW119670   3.053   3.568   1.652 -1.4794  0.1311 -1.7380
 6257SOL    HW219671   3.164   3.475   1.577 -0.6930 -0.6006  0.2615
 6258SOL     OW19672   3.033   4.830   4.878 -0.4351  0.2401 -0.1541
 6258SOL    HW119673   3.072   4.829   4.971  0.8795  0.6837 -0.6776
 6258SOL    HW219674   2.952   4.771   4.875  0.0946 -0.5803  1.0190
 6259SOL     OW19675   4.001   1.496   5.823  0.2644  0.3740  0.4272
 6259SOL    HW119676   3.955   1.540   5.746  1.7700  0.7158 -0.3194
 6259SOL    HW219677   4.046   1.565   5.879  0.3197  0.0047  0.8397
 6260SOL     OW19678   1.264   1.922   0.762 -0.4177  0.6088  0.0826
 6260SOL    HW119679   1.323   1.915   0.842  0.7487 -1.2989 -0.8890
 6260SOL    HW219680   1.174   1.957   0.791  0.6066  1.9866  1.8454
 6261SOL     OW19681   4.570   5.604   1.414 -0.8017 -0.1247 -0.2740
 6261SOL    HW119682   4.533   5.518   1.379 -0.7078 -0.7485  1.0901
 6261SOL    HW219683   4.645   5.635   1.356 -1.3461 -0.5423 -1.2182
 6262SOL     OW19684   5.978   0.946   1.841 -0.1774  0.0053 -0.2909
 6262SOL    HW119685   5.984   1.016   1.912 -1.5808 -0.0124 -0.1165
 6262SOL    HW219686   6.037   0.869   1.865  0.1539  0.4384  0.3285
 6263SOL     OW19687   1.739   0.304   5.728  0.3928  0.3533 -0.0417
 6263SOL    HW119688   1.679   0.236   5.769 -0.6864  0.2558 -1.6917
 6263SOL    HW219689   1.789   0.262   5.652  0.2878  1.1918 -0.5827
 6264SOL     OW19690   0.003   5.675   2.359 -0.2156  0.6624 -0.3295
 6264SOL    HW119691  -0.089   5.701   2.332 -1.1022 -1.9557 -0.0669
 6264SOL    HW219692   0.021   5.708   2.452 -1.9205 -0.9392  0.6358
 6265SOL     OW19693   4.075   2.600   1.126 -0.1720 -1.2773  0.3729
 6265SOL    HW119694   4.151   2.536   1.139 -1.1140 -2.9000 -1.6287
 6265SOL    HW219695   4.010   2.592   1.201  0.9654 -0.7914  1.4402
 6266SOL     OW19696   4.439   5.055   3.772 -0.1137 -0.0993  0.0400
 6266SOL    HW119697   4.393   5.041   3.860  0.2063  1.7619  0.5532
 6266SOL    HW219698   4.375   5.095   3.707 -0.3156 -1.3646 -0.5701
 6267SOL     OW19699   0.830   1.029   3.306 -0.3739 -0.0341  0.5658
 6267SOL    HW119700   0.890   1.067   3.377 -0.6416  0.3314  0.5977
 6267SOL    HW219701   0.735   1.031   3.338 -0.8262  2.3417 -0.6913
 6268SOL     OW19702   3.086   6.600   0.826  0.4307 -0.3417  0.3942
 6268SOL    HW119703   3.001   6.651   0.811 -0.4449 -2.1785 -1.1369
 6268SOL    HW219704   3.102   6.592   0.925  0.6161  2.7846  0.7417
 6269SOL     OW19705   5.151   6.310   5.998  0.1552  0.4028  0.1571
 6269SOL    HW119706   5.202   6.380   6.047 -2.1269  1.0257  1.8138
 6269SOL    HW219707   5.089   6.353   5.932 -0.7048 -0.0941  0.6286
 6270SOL     OW19708   0.789   6.732   5.853 -0.1372  0.3147 -0.2287
 6270SOL    HW119709   0.763   6.784   5.772 -0.6457  2.0366  0.9778
 6270SOL    HW219710   0.837   6.792   5.917  0.5993 -1.0980  0.5976
 6271SOL     OW19711   5.301   4.408   0.113 -0.4002  0.1801  0.5181
 6271SOL    HW119712   5.286   4.342   0.040  0.7902 -0.3186  0.6947
 6271SOL    HW219713   5.214   4.430   0.157 -0.8090 -1.4108  0.5633
 6272SOL     OW19714   6.684   0.724   6.678  0.0784 -0.2478  0.7107
 6272SOL    HW119715   6.586   0.713   6.659  0.3246  1.6627 -2.4136
 6272SOL    HW219716   6.698   0.801   6.740 -0.3586  2.3039 -2.1486
 6273SOL     OW19717   6.446   2.185   1.602  0.2943 -0.5576 -0.2619
 6273SOL    HW119718   6.505   2.165   1.681  0.7216  0.2544 -0.3634
 6273SOL    HW219719   6.354   2.207   1.633  0.5182 -0.0236  0.0261
 6274SOL     OW19720   2.588   5.092   4.919  0.1010 -0.1555  0.0641
 6274SOL    HW119721   2.623   5.042   4.839  1.5458  1.0169 -0.0769
 6274SOL    HW219722   2.584   5.190   4.898  0.8519  0.2138  1.5423
 6275SOL     OW19723   2.174   4.650   0.116  0.0615 -0.1406 -0.1346
 6275SOL    HW119724   2.236   4.645   0.195 -0.9446  0.4054  0.7100
 6275SOL    HW219725   2.079   4.650   0.148 -0.3905 -1.0138 -1.4111
 6276SOL     OW19726   1.394   5.023   2.707 -0.0551 -0.4012 -0.1155
 6276SOL    HW119727   1.417   4.962   2.632 -0.0654  0.1029 -0.5315
 6276SOL    HW219728   1.455   5.004   2.785 -0.2266 -1.1077 -0.1463
 6277SOL     OW19729   6.073   3.148   1.959 -0.1394  0.2454  0.0395
 6277SOL    HW119730   6.024   3.223   1.915 -1.7353  0.9951  2.8304
 6277SOL    HW219731   6.009   3.072   1.974  0.4608 -0.1550  0.6278
 6278SOL     OW19732   4.671   5.200   0.064  0.4822  0.1729  0.1267
 6278SOL    HW119733   4.740   5.202   0.136  0.1934 -0.3222  0.4222
 6278SOL    HW219734   4.629   5.291   0.057  0.5600  0.2448  0.5365
 6279SOL     OW19735   3.128   5.264   0.564  0.6392  0.1515 -0.1892
 6279SOL    HW119736   3.130   5.167   0.539  0.1356  0.0109  0.2957
 6279SOL    HW219737   3.039   5.303   0.541  0.3355  0.1388  0.9326
 6280SOL     OW19738   6.391   2.452   0.780 -0.2443 -0.5661 -0.0298
 6280SOL    HW119739   6.373   2.520   0.710 -1.0902 -2.0299 -1.2919
 6280SOL    HW219740   6.360   2.487   0.869 -0.2365  0.8497 -0.5607
 6281SOL     OW19741   5.501   3.279   4.895 -0.3079 -0.3527  0.1185
 6281SOL    HW119742   5.529   3.331   4.815 -1.1686  1.0698  0.7015
 6281SOL    HW219743   5.446   3.337   4.955 -0.0412 -1.5045  1.5420
 6282SOL     OW19744   1.186   3.467   5.552 -1.0040 -0.0452 -0.4552
 6282SOL    HW119745   1.256   3.399   5.530 -0.8110 -0.5471  1.4739
 6282SOL    HW219746   1.226   3.559   5.544 -0.3871 -0.2865 -0.2661
 6283SOL     OW19747   1.161   6.896   3.482 -0.4325  0.3091  0.4856
 6283SOL    HW119748   1.187   6.989   3.457  1.0974  0.4873  2.5389
 6283SOL    HW219749   1.101   6.899   3.562  0.3702 -0.4703  1.1381
 6284SOL     OW19750   0.559   5.269   5.812 -0.0150 -0.2080  0.0476
 6284SOL    HW119751   0.632   5.203   5.830 -1.9061 -2.1385  1.1391
 6284SOL    HW219752   0.548   5.280   5.713  1.9732  0.4395 -0.1442
 6285SOL     OW19753   1.635   1.321   3.941  0.8323  0.7253  0.8515
 6285SOL    HW119754   1.596   1.294   4.029 -0.0913  1.1968  0.6041
 6285SOL    HW219755   1.703   1.254   3.913 -0.6807 -0.8329  0.7233
 6286SOL     OW19756   0.637   3.277   4.405 -0.0217  0.3403 -0.3972
 6286SOL    HW119757   0.694   3.294   4.486 -2.3911 -1.6277  1.8353
 6286SOL    HW219758   0.659   3.187   4.368  0.6372  0.9954 -1.6812
 6287SOL     OW19759   3.564   5.748   4.090 -0.0998  0.4822  0.1537
 6287SOL    HW119760   3.657   5.781   4.078  0.3746  0.1511  2.3958
 6287SOL    HW219761   3.559   5.651   4.067 -0.4085  0.9330 -1.8914
 6288SOL     OW19762   4.470   3.828   5.778  0.4013 -0.5052  0.0109
 6288SOL    HW119763   4.518   3.743   5.799  0.6415 -0.1948  0.7612
 6288SOL    HW219764   4.393   3.839   5.841  0.4373 -0.1198 -0.0117
 6289SOL     OW19765   5.047   5.093   4.298  0.1234  0.1786 -0.3426
 6289SOL    HW119766   5.114   5.146   4.246  1.4898  0.4255  1.5534
 6289SOL    HW219767   5.044   5.127   4.392 -2.0225 -0.4547 -0.1329
 6290SOL     OW19768   3.714   6.657   4.275 -1.0919  0.1590 -0.1555
 6290SOL    HW119769   3.792   6.648   4.214 -1.2973  1.7407 -0.7021
 6290SOL    HW219770   3.630   6.660   4.221 -1.3058  1.1763  0.2008
 6291SOL     OW19771   2.883   3.402   3.182 -0.1829 -0.0627 -0.1911
 6291SOL    HW119772   2.924   3.452   3.259  0.6927  0.2137 -0.8199
 6291SOL    HW219773   2.884   3.460   3.101 -1.7431 -0.0965 -0.2649
 6292SOL     OW19774   1.118   3.325   2.566  0.5021 -0.3160  0.1395
 6292SOL    HW119775   1.106   3.315   2.468  0.3674 -0.7822  0.2016
 6292SOL    HW219776   1.187   3.260   2.599 -0.0424 -0.7389  0.4737
 6293SOL     OW19777   4.219   1.065   6.834  0.2208 -0.4792  0.4106
 6293SOL    HW119778   4.130   1.111   6.830  0.8541  0.6694 -1.5030
 6293SOL    HW219779   4.284   1.122   6.885  1.1257  1.1504 -2.3258
 6294SOL     OW19780   3.129   1.348   4.421  0.0184  0.6477 -0.4088
 6294SOL    HW119781   3.059   1.419   4.428 -2.6162 -1.8589  0.0992
 6294SOL    HW219782   3.126   1.306   4.330 -0.7266 -0.9707  0.3308
 6295SOL     OW19783   5.343   3.061   3.111 -0.2225 -0.5682 -0.1585
 6295SOL    HW119784   5.415   3.109   3.060  0.3919 -2.1404 -0.8202
 6295SOL    HW219785   5.267   3.040   3.050 -0.1613 -1.0902 -0.0549
 6296SOL     OW19786   1.642   4.259   0.634  0.1213  0.1886 -0.5745
 6296SOL    HW119787   1.559   4.233   0.683  1.1031  0.5227  1.3736
 6296SOL    HW219788   1.635   4.354   0.605  0.4067  0.6881  0.9384
 6297SOL     OW19789   5.706   1.294   3.561  0.1338  0.0275  0.0985
 6297SOL    HW119790   5.787   1.235   3.565  0.4210  0.4744  1.1425
 6297SOL    HW219791   5.728   1.378   3.513  0.0186 -0.2516 -0.4515
 6298SOL     OW19792   0.354   5.550   1.749  0.0467  0.5362 -0.5743
 6298SOL    HW119793   0.398   5.476   1.700 -1.4756 -0.5073 -0.4205
 6298SOL    HW219794   0.264   5.569   1.709 -1.3625 -0.5032  1.8270
 6299SOL     OW19795   4.574   2.093   2.341 -0.0212 -0.3849 -0.1803
 6299SOL    HW119796   4.614   2.108   2.431  0.4753  0.2403 -0.4971
 6299SOL    HW219797   4.502   2.024   2.347  0.6214 -1.0063  0.5338
 6300SOL     OW19798   3.084   5.419   5.413  0.2715  0.0979  0.0260
 6300SOL    HW119799   2.985   5.405   5.405  0.1821  1.0892 -0.8241
 6300SOL    HW219800   3.131   5.332   5.405 -0.5589 -0.4835  1.1105
 6301SOL     OW19801   3.868   0.088   6.319  0.0885  0.0606 -0.2574
 6301SOL    HW119802   3.911   0.022   6.380  1.7631 -0.4586 -1.8797
 6301SOL    HW219803   3.931   0.164   6.303 -1.1883  1.2874  0.3331
 6302SOL     OW19804   3.857   1.038   5.681  0.2983  0.1217  0.0924
 6302SOL    HW119805   3.919   1.055   5.605 -0.9658  0.0843 -0.9839
 6302SOL    HW219806   3.877   0.949   5.722  1.8346  0.7051  0.6838
 6303SOL     OW19807   1.531   5.039   6.185 -0.1165 -0.4289  0.0487
 6303SOL    HW119808   1.522   4.944   6.215 -1.3639 -0.3145  0.0928
 6303SOL    HW219809   1.470   5.096   6.238  2.0275  0.7542  1.3977
 6304SOL     OW19810   3.743   0.399   2.416  0.0251  0.3471  0.1931
 6304SOL    HW119811   3.770   0.359   2.328  0.6453 -1.6140  1.2275
 6304SOL    HW219812   3.673   0.342   2.458 -0.1157  1.1549  1.0876
 6305SOL     OW19813   2.331   5.938   0.280  0.3942  0.3114  0.2127
 6305SOL    HW119814   2.418   5.950   0.232  0.4170  1.3529  0.4789
 6305SOL    HW219815   2.261   5.908   0.216  1.3395 -2.4245  0.3408
 6306SOL     OW19816   0.622   3.784   4.653 -0.0352  0.6012 -0.0613
 6306SOL    HW119817   0.676   3.867   4.671 -0.1253  0.8168 -0.7283
 6306SOL    HW219818   0.574   3.795   4.566  0.9960 -0.6852 -0.8340
 6307SOL     OW19819   4.094   3.301   3.884  0.1470 -0.1875 -0.0975
 6307SOL    HW119820   4.028   3.234   3.851 -0.4457 -0.1135  0.9082
 6307SOL    HW219821   4.186   3.264   3.874  0.1310  0.2528 -2.8254
 6308SOL     OW19822   1.186   1.603   6.013 -0.1432 -0.7834  0.7625
 6308SOL    HW119823   1.232   1.529   5.963  1.5132  1.0742 -0.6463
 6308SOL    HW219824   1.207   1.595   6.111  3.0603 -0.2526  0.2493
 6309SOL     OW19825   1.406   5.447   4.617  0.3862 -0.1839 -0.0280
 6309SOL    HW119826   1.411   5.511   4.694  2.1926 -0.7074  0.3280
 6309SOL    HW219827   1.497   5.436   4.577  0.1663 -2.6537  0.0165
 6310SOL     OW19828   2.627   5.318   3.379 -0.1430  0.0773  0.4676
 6310SOL    HW119829   2.618   5.276   3.289  0.2183  1.4194 -0.2243
 6310SOL    HW219830   2.705   5.278   3.427  0.2580  0.0157 -0.2212
 6311SOL     OW19831   4.929   0.968   6.910 -0.0411 -0.0783  0.3325
 6311SOL    HW119832   4.894   1.040   6.970 -0.7420  0.3369 -0.5568
 6311SOL    HW219833   5.018   0.996   6.873 -0.5269  0.5424 -0.3765
 6312SOL     OW19834   1.229   6.229   1.828  0.2433  0.5190  0.1478
 6312SOL    HW119835   1.130   6.221   1.836  0.1957  0.3389 -0.5391
 6312SOL    HW219836   1.270   6.235   1.919 -0.3311 -0.2289  0.4659
 6313SOL     OW19837   5.129   6.962   1.701 -0.1955  0.2855  0.4028
 6313SOL    HW119838   5.201   6.947   1.770  0.8762  0.9064 -0.5362
 6313SOL    HW219839   5.135   6.892   1.631 -0.9491 -0.0389  0.6510
 6314SOL     OW19840   1.463   6.128   1.334 -0.5129  0.3801  0.6204
 6314SOL    HW119841   1.463   6.220   1.295 -1.7837 -0.0290 -0.4141
 6314SOL    HW219842   1.461   6.135   1.434  1.5533  1.4496  0.6308
 6315SOL     OW19843   2.403   2.055   3.111 -0.5435 -0.4511  0.8262
 6315SOL    HW119844   2.496   2.069   3.147 -0.1635 -0.7755  0.0098
 6315SOL    HW219845   2.336   2.087   3.177  0.1896  4.0033 -0.2573
 6316SOL     OW19846   3.873   1.056   3.979  0.1894  0.1558  0.0400
 6316SOL    HW119847   3.880   1.012   3.890 -0.7972  0.7215 -0.3333
 6316SOL    HW219848   3.778   1.052   4.010  0.5645 -0.2626  1.1915
 6317SOL     OW19849   4.960   4.609   3.447  0.0007  0.4235  0.7011
 6317SOL    HW119850   5.043   4.591   3.499  1.0802  0.1064 -1.0796
 6317SOL    HW219851   4.980   4.608   3.349 -2.7740 -3.7223 -0.0750
 6318SOL     OW19852   6.535   0.213   4.535 -0.6642  0.4549  0.1323
 6318SOL    HW119853   6.577   0.302   4.554  0.4860  0.2373 -1.2257
 6318SOL    HW219854   6.603   0.152   4.494 -1.8154 -0.5657 -0.3156
 6319SOL     OW19855   4.073   0.958   2.694  0.2780  0.6141 -0.0697
 6319SOL    HW119856   4.116   0.872   2.720  0.2584  0.0750 -1.6885
 6319SOL    HW219857   3.991   0.940   2.640  0.4756  1.6431 -0.7493
 6320SOL     OW19858   5.797   0.827   5.273 -0.0555 -0.3648 -0.1667
 6320SOL    HW119859   5.826   0.808   5.366 -0.8877 -1.5048 -0.1202
 6320SOL    HW219860   5.806   0.744   5.217  0.1271  0.2165 -1.0257
 6321SOL     OW19861   0.019   2.503   6.227  0.5571 -0.7391 -0.0798
 6321SOL    HW119862   0.095   2.448   6.192  0.2550 -0.7917 -0.6670
 6321SOL    HW219863  -0.041   2.528   6.151 -0.5262 -1.4926  0.5034
 6322SOL     OW19864   3.580   1.168   2.601  0.0377 -0.6599  0.2714
 6322SOL    HW119865   3.651   1.099   2.617  2.6077  1.3792 -1.4429
 6322SOL    HW219866   3.615   1.258   2.627 -1.7649  0.5053 -1.1095
 6323SOL     OW19867   3.398   2.959   0.985 -0.0661 -0.5573 -0.2773
 6323SOL    HW119868   3.474   2.980   0.923  0.3119 -0.1129  0.3214
 6323SOL    HW219869   3.435   2.945   1.077 -0.8884  1.4165  0.3908
 6324SOL     OW19870   4.423   2.624   5.542  0.8257  0.5208 -0.4394
 6324SOL    HW119871   4.340   2.676   5.562  1.0298  0.3327  1.0647
 6324SOL    HW219872   4.405   2.526   5.554  1.0554  0.4229 -0.8884
 6325SOL     OW19873   1.909   2.196   2.543 -0.0794 -0.1608 -0.0615
 6325SOL    HW119874   1.979   2.128   2.564  0.3363 -0.6343 -2.6480
 6325SOL    HW219875   1.937   2.249   2.463 -1.6648  1.2228  0.2404
 6326SOL     OW19876   6.391   4.497   6.376  0.3038  0.0467  0.6350
 6326SOL    HW119877   6.452   4.565   6.418 -0.0376  0.6050  0.2405
 6326SOL    HW219878   6.427   4.472   6.286 -0.6443  1.2709 -0.1246
 6327SOL     OW19879   0.557   0.059   3.414  0.2253  0.1920  0.3804
 6327SOL    HW119880   0.538   0.086   3.320 -0.4692 -1.7656 -0.1074
 6327SOL    HW219881   0.514   0.123   3.478  2.5959  2.8743 -0.5172
 6328SOL     OW19882   3.923   5.585   6.128 -0.8529  0.1328 -0.3283
 6328SOL    HW119883   3.964   5.643   6.199 -1.4043 -1.3721  1.2820
 6328SOL    HW219884   3.990   5.570   6.055  0.0411  1.0129  0.2831
 6329SOL     OW19885   0.936   2.123   3.663  0.0138 -0.5983  0.0151
 6329SOL    HW119886   0.995   2.204   3.672 -0.0096 -0.7052  1.3063
 6329SOL    HW219887   0.993   2.041   3.662  0.0378 -0.5899 -1.3100
 6330SOL     OW19888   3.997   1.581   3.467  0.3234 -0.7239  0.1367
 6330SOL    HW119889   3.999   1.484   3.443 -0.1303 -0.4366 -1.1108
 6330SOL    HW219890   4.041   1.634   3.395  0.1303  0.0480  0.5781
 6331SOL     OW19891   6.608   2.893   2.350  0.7944  0.0375  0.4162
 6331SOL    HW119892   6.589   2.989   2.331  0.1234  0.6268  3.5042
 6331SOL    HW219893   6.694   2.866   2.307  0.6460  1.7811 -1.0756
 6332SOL     OW19894   2.752   1.934   2.249 -0.3647  0.2024  1.0346
 6332SOL    HW119895   2.689   1.963   2.321 -0.0391 -0.0051  1.4029
 6332SOL    HW219896   2.836   1.988   2.254 -0.5847  0.6201  0.4151
 6333SOL     OW19897   5.459   0.293   6.303 -0.5086 -0.0648  0.0411
 6333SOL    HW119898   5.402   0.375   6.304  0.8189  0.9398  2.6735
 6333SOL    HW219899   5.543   0.310   6.353  0.9552 -2.3314 -1.4387
 6334SOL     OW19900   2.281   6.552   6.509  0.2428  0.4351  0.0991
 6334SOL    HW119901   2.378   6.567   6.494  0.4852 -0.9997  0.0684
 6334SOL    HW219902   2.243   6.499   6.433  0.1958 -1.8785  1.6466
 6335SOL     OW19903   5.367   2.772   0.373  0.0513 -0.1677 -0.2287
 6335SOL    HW119904   5.330   2.691   0.418 -0.1271 -0.5138 -0.9868
 6335SOL    HW219905   5.298   2.844   0.372  0.0248 -0.1907 -0.0336
 6336SOL     OW19906   0.965   2.997   5.918 -0.0884  0.3585 -0.2337
 6336SOL    HW119907   0.870   2.969   5.905 -0.2554  0.8228 -0.0436
 6336SOL    HW219908   0.970   3.097   5.918  0.4488  0.3328 -0.5821
 6337SOL     OW19909   5.073   5.626   6.579  0.3458  0.1149  0.2398
 6337SOL    HW119910   5.076   5.717   6.537 -0.4482  1.1395  2.2728
 6337SOL    HW219911   5.067   5.557   6.507  2.1322  1.5578 -1.4167
 6338SOL     OW19912   2.846   0.473   4.438 -0.6301 -0.0216 -0.4108
 6338SOL    HW119913   2.895   0.446   4.521  0.2946 -0.5829 -1.1135
 6338SOL    HW219914   2.864   0.570   4.420 -0.5627  0.0198 -0.1333
 6339SOL     OW19915   0.518   4.327   4.015  0.4256 -0.4832  0.3646
 6339SOL    HW119916   0.433   4.368   3.984  0.8471 -0.6923 -1.1385
 6339SOL    HW219917   0.578   4.398   4.053  0.1819 -0.0992  0.0306
 6340SOL     OW19918   2.670   4.779   3.967  0.6093  0.1234 -0.0315
 6340SOL    HW119919   2.656   4.835   4.049  0.7784  0.0077  0.0758
 6340SOL    HW219920   2.758   4.802   3.925  0.3062  0.5342 -0.4586
 6341SOL     OW19921   1.149   5.184   4.842  0.4055  0.0847  0.0026
 6341SOL    HW119922   1.238   5.145   4.818  0.5434  1.0921 -1.2171
 6341SOL    HW219923   1.085   5.168   4.767  0.5845  2.5071 -0.7388
 6342SOL     OW19924   1.953   0.693   3.012  0.0854  0.0473  0.3238
 6342SOL    HW119925   1.918   0.768   2.957  0.5904 -0.2411 -0.4070
 6342SOL    HW219926   2.052   0.686   2.999  0.0822 -0.5685  0.5963
 6343SOL     OW19927   2.141   5.417   0.987  0.6107 -0.2413  0.2784
 6343SOL    HW119928   2.185   5.328   0.999  0.3903 -0.1388  2.0502
 6343SOL    HW219929   2.127   5.460   1.076 -1.0519  0.7059 -0.3906
 6344SOL     OW19930   6.906   1.170   1.859  0.4399 -0.4408  0.0826
 6344SOL    HW119931   6.996   1.164   1.902  0.2789 -1.5225  0.3104
 6344SOL    HW219932   6.916   1.197   1.763  0.8484  1.3754  0.6094
 6345SOL     OW19933   6.356   4.288   3.108  0.1653  0.5254 -0.1473
 6345SOL    HW119934   6.305   4.345   3.173  1.5947  1.4333  0.2307
 6345SOL    HW219935   6.410   4.346   3.047  1.7285 -0.3761  0.2972
 6346SOL     OW19936   0.246   2.486   5.399 -0.1202 -0.1479 -0.6240
 6346SOL    HW119937   0.244   2.570   5.454 -0.0398 -0.0912 -0.7056
 6346SOL    HW219938   0.338   2.447   5.402  0.1299  0.3541 -1.4606
 6347SOL     OW19939   1.784   1.339   4.256 -0.0852  0.0205  0.2866
 6347SOL    HW119940   1.808   1.410   4.190 -0.5156  1.2485  1.4235
 6347SOL    HW219941   1.701   1.292   4.225  1.3856 -1.5251 -1.5816
 6348SOL     OW19942   5.907   3.112   5.188  0.1937  0.6641 -0.1164
 6348SOL    HW119943   5.839   3.130   5.117  1.1329  1.3556 -0.8653
 6348SOL    HW219944   5.897   3.177   5.262  0.9761  1.7548 -0.9305
 6349SOL     OW19945   0.194   0.699   0.222  0.5396  0.2833 -0.1666
 6349SOL    HW119946   0.262   0.773   0.220 -1.5883  2.3779  0.9448
 6349SOL    HW219947   0.105   0.735   0.194 -0.6183 -1.8331  0.6247
 6350SOL     OW19948   1.604   0.254   2.959 -0.1843  0.4106  0.2036
 6350SOL    HW119949   1.665   0.295   2.890  0.5845 -1.8975 -0.5667
 6350SOL    HW219950   1.509   0.263   2.929  0.0430  0.6671 -0.4622
 6351SOL     OW19951   4.297   1.999   2.290  0.3718 -0.1552 -0.6722
 6351SOL    HW119952   4.206   2.023   2.323  0.1014 -1.8834 -0.0820
 6351SOL    HW219953   4.314   2.046   2.203 -1.0606  0.2138 -0.7764
 6352SOL     OW19954   2.674   6.098   3.091  0.4487  0.7637 -0.0130
 6352SOL    HW119955   2.741   6.025   3.080  1.9081  2.0895 -0.1684
 6352SOL    HW219956   2.655   6.111   3.188 -0.3234 -0.2384 -0.0142
 6353SOL     OW19957   3.801   4.170   5.904 -0.3347 -0.1451 -0.2903
 6353SOL    HW119958   3.732   4.236   5.875 -1.1436 -1.2690 -0.9533
 6353SOL    HW219959   3.819   4.181   6.002 -2.0563 -0.3792  0.0690
 6354SOL     OW19960   6.039   3.450   3.303  0.2575  0.1299  0.7798
 6354SOL    HW119961   6.105   3.376   3.319 -0.1748 -0.6586 -0.8876
 6354SOL    HW219962   5.968   3.447   3.374  0.3233 -0.9607  0.8198
 6355SOL     OW19963   0.935   4.673   6.979 -0.3187 -0.0795 -0.1877
 6355SOL    HW119964   1.005   4.701   7.046  0.4101 -0.3460 -0.8180
 6355SOL    HW219965   0.862   4.624   7.026  1.0146 -1.7749  0.2384
 6356SOL     OW19966   5.045   2.405   0.483 -0.5160  0.0207  0.0292
 6356SOL    HW119967   4.957   2.438   0.449 -0.1243  1.2505  0.1714
 6356SOL    HW219968   5.030   2.332   0.550 -1.4066 -0.0313 -0.2199
 6357SOL     OW19969   5.410   2.873   1.873  0.0185  0.0006 -0.3234
 6357SOL    HW119970   5.459   2.920   1.800 -1.0885 -0.2560 -1.2487
 6357SOL    HW219971   5.328   2.830   1.837 -0.7146  0.1050  1.1295
 6358SOL     OW19972   1.347   3.681   5.533 -0.4715  0.2299 -0.0933
 6358SOL    HW119973   1.318   3.756   5.592 -0.4441 -0.3090  0.6212
 6358SOL    HW219974   1.431   3.640   5.570 -2.3898 -2.4584  1.6121
 6359SOL     OW19975   5.498   1.010   4.737 -0.3779  0.4348 -0.9092
 6359SOL    HW119976   5.457   0.962   4.660 -1.1489 -2.6295  1.2051
 6359SOL    HW219977   5.579   1.061   4.706 -0.3940 -1.0142 -3.6327
 6360SOL     OW19978   2.831   1.555   2.685  0.6389 -0.4136 -0.4809
 6360SOL    HW119979   2.790   1.627   2.629  2.9072 -0.3274 -2.1563
 6360SOL    HW219980   2.802   1.466   2.652 -1.2256 -0.3622  0.8490
 6361SOL     OW19981   0.931   2.595   5.817  0.1859  0.1872  0.4608
 6361SOL    HW119982   0.946   2.516   5.877  0.5887 -1.0445 -1.1902
 6361SOL    HW219983   0.925   2.564   5.722 -3.2138  1.7331  0.0471
 6362SOL     OW19984   1.836   4.018   6.732 -0.3944  0.6935 -0.4303
 6362SOL    HW119985   1.811   3.971   6.816  0.3635  0.7567 -0.1599
 6362SOL    HW219986   1.878   4.106   6.754  0.1855  0.5312 -0.8460
 6363SOL     OW19987   2.036   6.009   2.501  0.2090 -0.0622  0.2057
 6363SOL    HW119988   1.940   6.028   2.520 -0.3240 -2.4221  0.2309
 6363SOL    HW219989   2.051   6.007   2.402 -0.1702 -1.2075  0.1488
 6364SOL     OW19990   1.742   3.312   3.936  0.0738 -0.1544 -0.8448
 6364SOL    HW119991   1.763   3.387   3.999 -0.5746  0.4854 -1.3689
 6364SOL    HW219992   1.686   3.347   3.861  0.6404 -0.9552 -1.6498
 6365SOL     OW19993   0.449   3.389   3.946  0.2689  0.0114 -0.0293
 6365SOL    HW119994   0.451   3.311   4.008 -1.3727 -1.2073 -1.3851
 6365SOL    HW219995   0.516   3.457   3.974 -0.3540 -0.4936  2.9982
 6366SOL     OW19996   5.850   5.354   3.214 -0.1622  0.7374 -0.0805
 6366SOL    HW119997   5.894   5.415   3.149 -0.4469  0.1732 -0.8215
 6366SOL    HW219998   5.917   5.322   3.281 -0.0425  1.9623  0.4199
 6367SOL     OW19999   2.833   1.050   3.560  0.3159  0.0256 -0.4033
 6367SOL    HW120000   2.892   1.049   3.479 -0.4514 -0.2503 -0.9723
 6367SOL    HW220001   2.762   1.120   3.548 -0.5926 -0.8830 -0.5746
 6368SOL     OW20002   5.148   2.160   4.360  0.2030 -0.1474  0.7640
 6368SOL    HW120003   5.069   2.123   4.311 -0.4027 -1.1194  2.3815
 6368SOL    HW220004   5.227   2.162   4.299 -1.0880  1.0543 -0.9554
 6369SOL     OW20005   0.897   0.256   6.357 -0.5149 -0.4822  0.2590
 6369SOL    HW120006   0.905   0.262   6.258 -2.3341 -0.4435  0.0746
 6369SOL    HW220007   0.928   0.166   6.388  0.6621 -0.2698 -0.2494
 6370SOL     OW20008   6.271   1.893   4.165 -0.0316  0.1673 -0.0656
 6370SOL    HW120009   6.351   1.912   4.108 -1.3521  3.3950 -1.0647
 6370SOL    HW220010   6.208   1.834   4.115  1.7625 -2.8268  0.9161
 6371SOL     OW20011   5.876   4.587   2.123 -0.2985  0.1587  0.4999
 6371SOL    HW120012   5.874   4.573   2.024 -0.2149  1.0762  0.3552
 6371SOL    HW220013   5.848   4.504   2.170  0.9746 -0.7304 -0.2632
 6372SOL     OW20014   0.215   2.957   2.727  0.0641 -0.9073 -0.5773
 6372SOL    HW120015   0.274   2.968   2.807 -1.5940 -1.9827  0.8787
 6372SOL    HW220016   0.265   2.908   2.656  1.3365 -0.6230  0.0854
 6373SOL     OW20017   5.060   3.826   1.609 -0.3593 -0.1480  0.1439
 6373SOL    HW120018   5.024   3.920   1.612 -0.2629 -0.1261  1.6192
 6373SOL    HW220019   5.011   3.771   1.677  1.0212 -0.6261  0.7730
 6374SOL     OW20020   4.404   2.702   1.350  0.5112  0.3136 -0.1606
 6374SOL    HW120021   4.367   2.730   1.262  0.4919  0.4013 -0.1243
 6374SOL    HW220022   4.330   2.669   1.409  0.6135 -0.4593 -0.4418
 6375SOL     OW20023   6.638   2.789   3.056  0.4334 -0.5200 -0.1831
 6375SOL    HW120024   6.599   2.857   3.118  2.7413 -1.0654  2.0362
 6375SOL    HW220025   6.578   2.708   3.054 -0.8005  0.3658 -0.5082
 6376SOL     OW20026   4.129   0.842   0.070  0.2158 -0.1050 -0.1223
 6376SOL    HW120027   4.177   0.843  -0.018 -1.3815  1.2687 -1.0198
 6376SOL    HW220028   4.125   0.935   0.107 -2.8423  0.1006 -0.7331
 6377SOL     OW20029   1.040   2.019   1.908 -0.1341  0.0928  0.0229
 6377SOL    HW120030   0.983   2.018   1.989 -1.1292  0.7997 -0.6474
 6377SOL    HW220031   1.069   2.113   1.889  0.5485 -0.1426 -0.1290
 6378SOL     OW20032   6.654   5.693   3.459 -0.4468  0.2819  0.0488
 6378SOL    HW120033   6.591   5.659   3.528 -1.2697  2.6802  0.5929
 6378SOL    HW220034   6.631   5.655   3.370 -2.1253  0.4384  0.3925
 6379SOL     OW20035   2.621   0.713   6.800  0.6498 -0.8982 -0.1976
 6379SOL    HW120036   2.657   0.648   6.866  1.5613  1.1503  1.4196
 6379SOL    HW220037   2.685   0.789   6.789 -1.6401  1.2315  0.2828
 6380SOL     OW20038   1.691   3.673   6.437 -0.1389 -0.2547 -1.0642
 6380SOL    HW120039   1.631   3.632   6.367 -0.2009  0.5851 -1.5091
 6380SOL    HW220040   1.647   3.754   6.475  0.6360  0.2643 -1.2661
 6381SOL     OW20041   1.745   4.630   0.048 -0.2369 -0.2355  0.3451
 6381SOL    HW120042   1.667   4.692   0.044 -1.3648 -0.8954  5.1692
 6381SOL    HW220043   1.818   4.672   0.103 -0.2533 -2.2878  2.0644
 6382SOL     OW20044   3.937   0.301   3.801  0.2569  0.5683 -0.4085
 6382SOL    HW120045   3.967   0.291   3.706  1.1920 -2.2010  0.0745
 6382SOL    HW220046   4.017   0.302   3.861 -0.2509 -3.5581  0.6666
 6383SOL     OW20047   2.482   1.486   3.521  0.2001  0.2045  0.2597
 6383SOL    HW120048   2.426   1.563   3.552  1.1676  0.5191  1.3137
 6383SOL    HW220049   2.560   1.520   3.468  0.3834 -0.0791  0.3425
 6384SOL     OW20050   6.174   3.067   2.287 -0.3323  0.0585 -0.8263
 6384SOL    HW120051   6.129   2.979   2.300  0.0548 -0.2457 -1.5315
 6384SOL    HW220052   6.107   3.134   2.254 -0.4152 -0.2199 -1.2196
 6385SOL     OW20053   0.043   2.057   1.400  0.4340  0.5882 -0.3043
 6385SOL    HW120054   0.112   2.015   1.342 -0.1674 -1.2602  0.2443
 6385SOL    HW220055   0.062   2.036   1.496 -1.7643 -1.4884 -0.2195
 6386SOL     OW20056   4.131   3.547   6.216  0.2042  0.0160 -0.3574
 6386SOL    HW120057   4.034   3.552   6.240 -0.0630  0.3260 -1.4548
 6386SOL    HW220058   4.163   3.636   6.184  1.2365  0.3068  1.3226
 6387SOL     OW20059   6.194   6.446   4.950  0.1515 -0.3765 -0.3904
 6387SOL    HW120060   6.134   6.451   4.870 -1.0698  1.9876  0.5651
 6387SOL    HW220061   6.168   6.367   5.006 -0.4587 -0.7584 -1.1910
 6388SOL     OW20062   6.952   5.136   0.892 -0.0246  0.0341  0.1896
 6388SOL    HW120063   7.050   5.116   0.888 -0.1020 -0.2887 -0.1719
 6388SOL    HW220064   6.919   5.160   0.801 -0.1748  0.6810  0.4107
 6389SOL     OW20065   6.747   6.827   0.234  0.3862 -0.0477 -0.0466
 6389SOL    HW120066   6.666   6.874   0.269 -1.0151 -0.1394 -2.9114
 6389SOL    HW220067   6.827   6.886   0.244 -0.5602  1.2246  0.1925
 6390SOL     OW20068   0.120   2.975   4.295  0.0369 -0.4888  0.1719
 6390SOL    HW120069   0.042   2.919   4.267  1.0481 -1.4290 -0.8977
 6390SOL    HW220070   0.100   3.071   4.280 -1.2303 -0.6486  0.7413
 6391SOL     OW20071   0.195   6.524   3.786  0.4868 -0.3015 -0.4957
 6391SOL    HW120072   0.255   6.568   3.720 -1.7798 -0.6994 -2.9991
 6391SOL    HW220073   0.183   6.428   3.761 -1.8547 -0.0176 -0.6852
 6392SOL     OW20074   4.163   1.129   2.464  0.3297 -0.2783 -0.4711
 6392SOL    HW120075   4.227   1.113   2.540  1.5662 -0.4294 -1.5194
 6392SOL    HW220076   4.155   1.047   2.409 -1.3012 -0.4674  0.0051
 6393SOL     OW20077   5.157   5.192   1.033 -0.1787 -0.4188 -0.2724
 6393SOL    HW120078   5.097   5.255   1.082  0.4037  0.7444 -1.0256
 6393SOL    HW220079   5.183   5.231   0.945 -0.2689 -1.9778 -1.0258
 6394SOL     OW20080   6.465   5.272   0.570  0.3008  0.0221  0.0780
 6394SOL    HW120081   6.433   5.281   0.476 -1.3149  0.7863  0.6597
 6394SOL    HW220082   6.399   5.218   0.623  0.5210  0.6745  1.0608
 6395SOL     OW20083   2.221   5.772   4.001  0.0180 -0.1621 -0.3551
 6395SOL    HW120084   2.246   5.727   4.087 -0.0340  0.4755 -0.0021
 6395SOL    HW220085   2.187   5.704   3.937 -1.6845 -0.4115  0.7589
 6396SOL     OW20086   0.836   5.027   0.767  0.2272  0.5567 -0.2374
 6396SOL    HW120087   0.775   5.050   0.843  0.3850 -1.6744  0.6517
 6396SOL    HW220088   0.798   4.949   0.716  1.1785  0.6581 -1.1371
 6397SOL     OW20089   5.302   2.865   4.325 -0.4900  0.1510 -0.0859
 6397SOL    HW120090   5.235   2.906   4.264  0.0657 -1.3967 -1.8344
 6397SOL    HW220091   5.348   2.789   4.278  0.1174 -0.9925  2.2014
 6398SOL     OW20092   5.965   6.131   5.523 -0.8336  0.3809  0.1459
 6398SOL    HW120093   5.887   6.131   5.585  0.2469 -1.0873  1.5980
 6398SOL    HW220094   6.049   6.150   5.575 -0.0582  0.5745 -1.1304
 6399SOL     OW20095   4.109   2.216   5.509  0.2153 -0.2453 -0.3099
 6399SOL    HW120096   4.106   2.117   5.493  1.0606 -0.2104 -0.7630
 6399SOL    HW220097   4.163   2.259   5.437 -0.5706  0.6130 -0.3936
 6400SOL     OW20098   0.135   6.356   2.482 -0.5162  0.3644  0.3430
 6400SOL    HW120099   0.064   6.333   2.416 -0.2153 -0.4209  0.2850
 6400SOL    HW220100   0.199   6.421   2.441  0.7185 -1.5038 -0.8259
 6401SOL     OW20101   5.028   5.721   2.889  0.2835 -0.0677 -0.0190
 6401SOL    HW120102   4.968   5.801   2.898  0.3430  0.0235 -0.4113
 6401SOL    HW220103   5.079   5.707   2.974  1.9484  1.6552 -0.6689
 6402SOL     OW20104   1.559   4.257   4.603 -0.5379  0.3920  0.1556
 6402SOL    HW120105   1.567   4.213   4.693  1.2357  2.6447  1.2046
 6402SOL    HW220106   1.463   4.283   4.588 -0.5106  2.3514  2.6818
 6403SOL     OW20107   0.055   4.718   4.726 -0.8911  0.0438 -0.3531
 6403SOL    HW120108   0.112   4.745   4.649  0.5281 -0.4845  0.4609
 6403SOL    HW220109   0.053   4.791   4.794 -0.9175 -0.0582 -0.2431
 6404SOL     OW20110   3.338   0.155   0.300 -0.6607  0.4592 -0.5488
 6404SOL    HW120111   3.375   0.178   0.210 -0.4355  1.0446 -0.3153
 6404SOL    HW220112   3.335   0.238   0.357 -0.6670  0.0720  0.0274
 6405SOL     OW20113   6.788   2.435   3.397 -0.5584  0.0071 -0.8240
 6405SOL    HW120114   6.692   2.461   3.405 -0.7953 -0.4478 -1.9775
 6405SOL    HW220115   6.804   2.394   3.307  0.4238 -1.1264 -0.1643
 6406SOL     OW20116   2.342   1.335   2.261 -0.4392  0.3769  0.4592
 6406SOL    HW120117   2.422   1.337   2.201  0.3207  0.9292  1.4593
 6406SOL    HW220118   2.370   1.354   2.355 -2.0107  2.5626  0.5588
 6407SOL     OW20119   2.246   0.190   2.859 -0.2877  0.2689 -0.2871
 6407SOL    HW120120   2.207   0.120   2.919 -1.5917  0.9876 -0.2717
 6407SOL    HW220121   2.276   0.268   2.914 -0.6316  0.5417 -0.4863
 6408SOL     OW20122   1.183   6.307   6.514 -0.2150  0.7295 -0.1028
 6408SOL    HW120123   1.124   6.266   6.584 -0.0088 -1.9445 -1.3715
 6408SOL    HW220124   1.216   6.396   6.547  0.3709 -0.6218  3.4761
 6409SOL     OW20125   0.329   4.020   3.111  0.0892 -0.4585  0.0160
 6409SOL    HW120126   0.261   4.064   3.171 -0.0224 -0.7940  0.1379
 6409SOL    HW220127   0.421   4.048   3.139 -0.0483  1.5651 -1.3697
 6410SOL     OW20128   1.761   0.678   5.953 -0.4813  0.1153  0.5016
 6410SOL    HW120129   1.731   0.746   6.020 -0.4954 -1.0356  1.6909
 6410SOL    HW220130   1.681   0.631   5.915 -0.5170  1.1587 -0.7957
 6411SOL     OW20131   1.172   2.043   3.977  0.2744 -0.0964 -0.1748
 6411SOL    HW120132   1.171   2.021   4.075  2.3446 -0.8312 -0.2871
 6411SOL    HW220133   1.226   2.125   3.962 -1.7652  1.2467 -0.5245
 6412SOL     OW20134   3.492   0.906   0.714 -0.0879 -0.5731 -0.0970
 6412SOL    HW120135   3.563   0.933   0.780 -0.1353  1.4623 -0.8387
 6412SOL    HW220136   3.406   0.950   0.737 -0.6522 -1.5041 -0.3464
 6413SOL     OW20137   5.966   4.050   4.286 -0.2763  0.2435  0.1443
 6413SOL    HW120138   5.959   3.970   4.344 -0.4785  2.2608  3.1040
 6413SOL    HW220139   5.875   4.090   4.272 -0.1359  0.2070 -0.9784
 6414SOL     OW20140   1.246   6.626   6.339  0.7670 -0.8959 -0.1615
 6414SOL    HW120141   1.164   6.569   6.339 -0.7594  1.1705 -0.4199
 6414SOL    HW220142   1.326   6.571   6.314 -0.4781 -3.0248  0.3359
 6415SOL     OW20143   1.468   1.823   3.852  0.5522 -0.0069 -0.0613
 6415SOL    HW120144   1.512   1.901   3.895  0.9956  0.6807 -1.6852
 6415SOL    HW220145   1.388   1.796   3.906  0.5339  1.4033  0.6691
 6416SOL     OW20146   2.104   1.228   5.438  0.0378 -0.1680 -0.0303
 6416SOL    HW120147   2.029   1.280   5.479 -0.5439 -0.6824 -0.4240
 6416SOL    HW220148   2.140   1.163   5.504  1.4843  1.4262  0.8311
 6417SOL     OW20149   3.729   2.882   1.017  0.1809 -0.3002  0.0325
 6417SOL    HW120150   3.718   2.789   0.983 -1.2916  0.5483 -2.0333
 6417SOL    HW220151   3.686   2.946   0.953 -0.1981  1.6935  2.1540
 6418SOL     OW20152   5.897   5.455   6.822 -0.1982  0.3727 -0.3991
 6418SOL    HW120153   5.914   5.384   6.891  0.7121 -1.1602 -2.0866
 6418SOL    HW220154   5.902   5.545   6.865  0.0235 -0.5179  1.5722
 6419SOL     OW20155   1.963   1.486   6.201 -0.2930  0.7812  0.2272
 6419SOL    HW120156   1.880   1.505   6.148 -0.1004  1.0109  0.0092
 6419SOL    HW220157   2.024   1.427   6.148  0.1238  1.4261 -0.0075
 6420SOL     OW20158   1.005   3.809   2.728  0.3380  0.0016 -0.5965
 6420SOL    HW120159   1.026   3.771   2.818 -0.6599  0.2573 -0.2419
 6420SOL    HW220160   0.978   3.736   2.666 -1.4533  0.0769  0.0481
 6421SOL     OW20161   5.210   0.095   3.008 -0.1662 -0.1274  0.8825
 6421SOL    HW120162   5.137   0.062   3.068 -1.1842 -1.6216 -1.0244
 6421SOL    HW220163   5.253   0.017   2.962  0.7640  0.9224 -0.1085
 6422SOL     OW20164   4.590   2.541   3.275 -0.0346 -0.7877  0.0965
 6422SOL    HW120165   4.525   2.476   3.235 -1.0750  0.0784  0.3330
 6422SOL    HW220166   4.572   2.550   3.373  0.4210 -0.5072  0.1598
 6423SOL     OW20167   2.802   5.124   3.711  0.3819  1.0777  0.8040
 6423SOL    HW120168   2.740   5.166   3.777 -1.8340  1.4028 -1.3268
 6423SOL    HW220169   2.864   5.194   3.675  1.1313  1.0413  1.9684
 6424SOL     OW20170   6.714   5.099   5.121 -0.0575  0.3580  0.3686
 6424SOL    HW120171   6.716   5.046   5.036 -0.2235  0.7867  0.0961
 6424SOL    HW220172   6.624   5.092   5.162  0.0958 -0.0529  0.6414
 6425SOL     OW20173   6.263   6.346   1.876  0.0084 -0.3062  0.3642
 6425SOL    HW120174   6.194   6.284   1.839 -0.1054  1.0012 -1.7782
 6425SOL    HW220175   6.324   6.376   1.804 -0.2385  2.4244  1.1624
 6426SOL     OW20176   6.207   3.744   4.227 -0.3659  0.1136 -0.1170
 6426SOL    HW120177   6.225   3.842   4.228 -0.3804  0.1164 -0.1373
 6426SOL    HW220178   6.118   3.725   4.267  0.6600 -0.0935  2.2490
 6427SOL     OW20179   3.588   2.909   2.833  0.3181 -0.7293  0.3277
 6427SOL    HW120180   3.660   2.973   2.808 -1.1525  1.4137  1.2870
 6427SOL    HW220181   3.527   2.894   2.756 -0.6537  0.9304  0.7300
 6428SOL     OW20182   6.197   1.860   0.440 -0.5253  0.1237 -0.2779
 6428SOL    HW120183   6.281   1.909   0.466 -0.6365 -0.9319  2.2565
 6428SOL    HW220184   6.119   1.923   0.445 -0.0345  0.9289 -1.9790
 6429SOL     OW20185   2.759   0.689   0.365  0.3291  0.0829  0.6545
 6429SOL    HW120186   2.718   0.779   0.374 -1.0784 -0.4819  0.1678
 6429SOL    HW220187   2.780   0.671   0.269 -1.1260 -0.8015  0.4704
 6430SOL     OW20188   6.054   0.236   4.951  0.3611  0.4883 -0.0541
 6430SOL    HW120189   6.086   0.313   4.897 -1.2252  0.8493 -0.5491
 6430SOL    HW220190   6.068   0.150   4.901  0.1051  0.6874 -0.4699
 6431SOL     OW20191   4.262   3.531   0.298  0.2362 -0.3707 -0.3535
 6431SOL    HW120192   4.228   3.521   0.392 -0.5954 -1.8662 -0.7886
 6431SOL    HW220193   4.288   3.626   0.283  1.0710 -0.2249  1.6111
 6432SOL     OW20194   4.951   3.526   5.425  0.2899 -0.1610 -0.6027
 6432SOL    HW120195   4.879   3.517   5.356 -0.0859 -0.2102 -0.2056
 6432SOL    HW220196   4.910   3.535   5.515  0.7712  0.4089 -0.4346
 6433SOL     OW20197   1.867   6.641   0.890 -0.0804  0.2646 -0.1339
 6433SOL    HW120198   1.768   6.643   0.898 -0.3456  0.5095 -2.6037
 6433SOL    HW220199   1.894   6.558   0.841  0.7429  1.0722 -1.0998
 6434SOL     OW20200   3.081   5.086   5.150  0.3163 -0.2461  0.1354
 6434SOL    HW120201   2.982   5.092   5.161  0.1892  0.8299 -1.2578
 6434SOL    HW220202   3.107   4.990   5.138 -0.9381 -0.3651 -2.2578
 6435SOL     OW20203   4.957   1.075   0.678 -0.0246 -0.1822  0.0227
 6435SOL    HW120204   4.911   1.154   0.718  0.0793  0.5617 -1.2915
 6435SOL    HW220205   4.921   0.991   0.720 -1.7442  0.4416 -0.1290
 6436SOL     OW20206   0.667   3.291   2.949  0.4354 -0.0313 -0.1671
 6436SOL    HW120207   0.651   3.193   2.936  2.3369 -0.5358  0.9516
 6436SOL    HW220208   0.713   3.328   2.868  0.9529 -0.3861 -0.0430
 6437SOL     OW20209   1.216   1.127   0.069  0.6114 -0.0609 -0.9688
 6437SOL    HW120210   1.272   1.139  -0.013  0.9689  0.5424 -0.6439
 6437SOL    HW220211   1.274   1.131   0.150  0.2683 -0.7410 -0.6882
 6438SOL     OW20212   6.159   1.149   0.294 -0.3377 -0.4873  0.5932
 6438SOL    HW120213   6.093   1.082   0.326 -0.4935 -0.0259  1.2479
 6438SOL    HW220214   6.217   1.178   0.370 -0.3099  0.1654  0.3286
 6439SOL     OW20215   0.026   0.781   2.229  0.0547 -0.0891 -0.1164
 6439SOL    HW120216   0.120   0.814   2.240 -0.8901  3.3018 -1.0171
 6439SOL    HW220217  -0.029   0.851   2.185 -3.2916 -1.4062  1.5987
 6440SOL     OW20218   3.446   0.208   0.061  0.1242  0.1620  0.4654
 6440SOL    HW120219   3.407   0.249  -0.021 -1.2229 -3.7584 -1.0380
 6440SOL    HW220220   3.536   0.170   0.041 -0.2000 -0.7984  0.7679
 6441SOL     OW20221   0.127   1.783   2.795  0.2884  0.3022  0.6477
 6441SOL    HW120222   0.102   1.789   2.891 -2.6431  1.7504 -0.0698
 6441SOL    HW220223   0.056   1.827   2.740  1.4034 -1.2670 -2.2531
 6442SOL     OW20224   2.909   3.140   5.682  0.0997  0.6848 -0.0123
 6442SOL    HW120225   2.891   3.238   5.676 -0.1923  0.5905 -0.7905
 6442SOL    HW220226   2.891   3.097   5.593  0.1250 -0.0898  0.3473
 6443SOL     OW20227   6.522   3.318   3.258  0.6642  0.3579  0.4831
 6443SOL    HW120228   6.437   3.303   3.307  0.2174  1.2089 -0.0098
 6443SOL    HW220229   6.508   3.386   3.186  2.3867  2.6524  2.1556
 6444SOL     OW20230   6.108   3.292   6.871 -0.1193  0.1333  0.3392
 6444SOL    HW120231   6.124   3.229   6.947 -0.0543  0.4438  0.5863
 6444SOL    HW220232   6.043   3.251   6.806  0.4876 -0.4890  0.1222
 6445SOL     OW20233   3.374   3.109   3.847  0.8197 -0.3050 -0.2354
 6445SOL    HW120234   3.368   3.057   3.761  1.7057 -1.5372  0.4104
 6445SOL    HW220235   3.323   3.060   3.918  0.7155  0.3147  0.1172
 6446SOL     OW20236   4.089   1.595   6.370 -0.2594 -0.8355  0.3654
 6446SOL    HW120237   4.045   1.568   6.284  0.6329 -0.5262 -0.2064
 6446SOL    HW220238   4.090   1.518   6.433 -0.9766 -1.0520  0.1254
 6447SOL     OW20239   6.120   3.582   1.680  0.1994 -0.1293  0.0296
 6447SOL    HW120240   6.077   3.516   1.618 -1.1725 -0.5162  1.3508
 6447SOL    HW220241   6.179   3.534   1.745  0.2802  0.0975  0.1273
 6448SOL     OW20242   3.620   3.996   0.794 -0.6146  0.0403  0.9250
 6448SOL    HW120243   3.673   4.075   0.827  0.8436 -0.6754  0.3878
 6448SOL    HW220244   3.577   3.951   0.872  1.5679 -0.7547  1.7479
 6449SOL     OW20245   3.202   5.534   1.058  0.1156 -0.8720  0.0232
 6449SOL    HW120246   3.209   5.616   1.001  0.4707 -0.9806 -0.0939
 6449SOL    HW220247   3.118   5.485   1.035  0.0114 -0.6571 -0.0616
 6450SOL     OW20248   0.674   2.981   7.021  0.0431  0.2658 -0.1029
 6450SOL    HW120249   0.723   3.068   7.020 -0.1334  0.3814  0.4523
 6450SOL    HW220250   0.582   2.996   7.058  0.3522 -0.3144  0.9455
 6451SOL     OW20251   4.123   1.412   1.745 -0.4566  0.0124 -0.4918
 6451SOL    HW120252   4.034   1.415   1.791 -0.0424 -0.9808  0.3985
 6451SOL    HW220253   4.147   1.318   1.723  0.9134  0.1366  0.3510
 6452SOL     OW20254   4.867   3.749   2.567 -0.5843  0.2563 -0.0368
 6452SOL    HW120255   4.880   3.706   2.478 -0.9669  2.0014 -0.9788
 6452SOL    HW220256   4.867   3.679   2.638  2.5172 -0.9515 -1.0560
 6453SOL     OW20257   2.864   5.169   5.884 -0.5102 -0.1133 -0.4264
 6453SOL    HW120258   2.897   5.119   5.804 -0.6096 -0.0206 -0.5255
 6453SOL    HW220259   2.931   5.161   5.958 -0.2792  0.0375 -0.6149
 6454SOL     OW20260   6.013   2.831   2.360  0.0756 -0.4377  0.0192
 6454SOL    HW120261   5.966   2.810   2.446  1.3211 -1.8251  0.3878
 6454SOL    HW220262   5.952   2.885   2.302 -1.3896 -0.8582  1.1058
 6455SOL     OW20263   5.598   2.349   3.590 -0.3017  0.2587  0.5433
 6455SOL    HW120264   5.631   2.280   3.655  1.6218  1.1680  0.6001
 6455SOL    HW220265   5.603   2.312   3.497 -2.5853 -0.8648  0.7981
 6456SOL     OW20266   0.679   0.158   2.573 -0.2107 -0.3355 -0.2548
 6456SOL    HW120267   0.601   0.117   2.526  0.1963 -1.3651 -0.0411
 6456SOL    HW220268   0.709   0.239   2.522 -1.5007  0.1629 -0.2617
 6457SOL     OW20269   5.050   0.823   1.434  0.0328 -0.0035 -0.0386
 6457SOL    HW120270   5.069   0.915   1.468 -2.5524 -0.0680  1.8526
 6457SOL    HW220271   5.067   0.756   1.507  0.0208 -0.8117 -0.7584
 6458SOL     OW20272   6.867   2.794   3.198  0.0721 -0.8068 -0.1891
 6458SOL    HW120273   6.778   2.780   3.156 -0.9291  0.8109  1.2551
 6458SOL    HW220274   6.938   2.785   3.128 -1.1870 -2.1280 -1.3687
 6459SOL     OW20275   0.648   1.646   3.688  0.2530 -0.2548  0.1408
 6459SOL    HW120276   0.725   1.709   3.700  0.4798 -0.4028 -0.4703
 6459SOL    HW220277   0.607   1.626   3.777 -0.2580  1.2903  0.2889
 6460SOL     OW20278   0.762   1.153   6.366 -0.3316 -0.2787 -0.5210
 6460SOL    HW120279   0.834   1.089   6.339 -0.4471 -0.1242 -1.2132
 6460SOL    HW220280   0.793   1.247   6.348 -0.6676 -0.2077 -0.7288
 6461SOL     OW20281   4.191   4.639   0.900 -0.5639  0.5082  0.3197
 6461SOL    HW120282   4.177   4.574   0.825 -2.1913  0.5586  0.5467
 6461SOL    HW220283   4.242   4.594   0.974  1.7127  0.6773 -1.0645
 6462SOL     OW20284   2.091   4.641   6.165  0.1463  0.2705 -0.3474
 6462SOL    HW120285   2.065   4.691   6.083 -0.8586  1.3210  0.5782
 6462SOL    HW220286   2.011   4.596   6.204  0.8480 -1.2420 -0.5988
 6463SOL     OW20287   5.570   3.219   1.777  0.7665  0.1346  0.0313
 6463SOL    HW120288   5.588   3.316   1.790 -0.5582  0.0341  3.4339
 6463SOL    HW220289   5.476   3.206   1.744  0.4450 -0.0247  0.9932
 6464SOL     OW20290   1.494   0.068   3.604 -0.5632 -0.5998 -0.5542
 6464SOL    HW120291   1.434  -0.011   3.589  2.6298 -3.8971  2.0898
 6464SOL    HW220292   1.446   0.136   3.659 -2.6093 -1.9287 -0.5538
 6465SOL     OW20293   3.158   1.098   3.034  0.5663 -0.4931 -0.0146
 6465SOL    HW120294   3.180   1.160   2.958 -0.7582  0.0096 -0.0232
 6465SOL    HW220295   3.064   1.064   3.022  0.8178 -1.4625  0.6958
 6466SOL     OW20296   4.198   2.019   6.133  0.3435 -0.1927  0.6139
 6466SOL    HW120297   4.284   2.007   6.082  0.8149  0.7749  1.1498
 6466SOL    HW220298   4.140   2.085   6.086 -0.2595 -1.0657  0.0941
 6467SOL     OW20299   2.727   1.992   1.979  0.5864  0.6627 -0.4818
 6467SOL    HW120300   2.725   1.975   2.078  0.3489 -0.1239 -0.6156
 6467SOL    HW220301   2.634   2.003   1.946  0.6548  0.6826 -0.6667
 6468SOL     OW20302   1.585   6.117   6.367 -0.2647  0.4406 -0.1377
 6468SOL    HW120303   1.487   6.140   6.372  0.1142  2.0705  0.3930
 6468SOL    HW220304   1.627   6.126   6.457  0.3158 -0.6778 -0.2731
 6469SOL     OW20305   3.751   0.327   3.227 -0.6184  0.1312 -0.1205
 6469SOL    HW120306   3.752   0.427   3.228 -0.2467  0.1349 -0.5484
 6469SOL    HW220307   3.777   0.294   3.136 -0.6752 -0.3567  0.0344
 6470SOL     OW20308   6.981   0.518   6.994 -0.8479 -0.1515 -0.2522
 6470SOL    HW120309   7.016   0.478   7.078 -0.1518 -0.6212 -0.7564
 6470SOL    HW220310   6.973   0.448   6.924 -1.3431  0.2508 -0.6110
 6471SOL     OW20311   0.612   1.392   5.027 -0.5362  0.5493  0.5596
 6471SOL    HW120312   0.699   1.439   5.044 -0.4831  0.1983  1.2914
 6471SOL    HW220313   0.543   1.459   5.003  0.4650  0.6557 -2.4746
 6472SOL     OW20314   0.603   0.593   3.600 -0.0946  0.1912  0.4287
 6472SOL    HW120315   0.649   0.679   3.579  0.0769  0.0954  0.4046
 6472SOL    HW220316   0.608   0.532   3.520  1.6812 -0.6658  1.1292
 6473SOL     OW20317   3.282   6.393   5.062  0.0203 -0.8712 -0.5674
 6473SOL    HW120318   3.304   6.436   4.975 -0.9678 -1.0960 -0.9367
 6473SOL    HW220319   3.312   6.298   5.061  0.5949 -0.6929 -0.4166
 6474SOL     OW20320   3.619   4.865   5.617 -0.0767  0.1238 -0.1699
 6474SOL    HW120321   3.569   4.780   5.633 -2.0036  1.5586  2.2089
 6474SOL    HW220322   3.717   4.847   5.617 -0.4469 -2.1055  0.0131
 6475SOL     OW20323   5.970   3.911   2.797 -0.3411 -0.5072  0.5453
 6475SOL    HW120324   6.007   3.974   2.866 -1.3488 -1.4443  2.0063
 6475SOL    HW220325   5.975   3.954   2.707 -0.5546  1.4710  1.4146
 6476SOL     OW20326   3.285   0.230   5.234  0.1853 -0.3712 -0.2601
 6476SOL    HW120327   3.384   0.216   5.222  0.1244 -0.1975 -1.0013
 6476SOL    HW220328   3.239   0.217   5.147 -0.7266 -2.5565  0.4914
 6477SOL     OW20329   0.718   4.174   2.355 -0.4371 -0.5399  0.0527
 6477SOL    HW120330   0.798   4.186   2.414  0.5723  0.9567 -1.5135
 6477SOL    HW220331   0.690   4.263   2.320 -0.5023 -1.4353 -2.3282
 6478SOL     OW20332   4.672   4.524   1.931  0.7291  0.4843  1.1932
 6478SOL    HW120333   4.762   4.499   1.897  1.2057  0.5684  2.3684
 6478SOL    HW220334   4.641   4.457   1.999 -0.7436 -0.3589 -0.2319
 6479SOL     OW20335   3.160   4.891   3.718 -0.0823  0.7560 -0.1727
 6479SOL    HW120336   3.150   4.922   3.623  1.0382  0.6118 -0.3486
 6479SOL    HW220337   3.254   4.906   3.748  0.0656 -0.9504  0.2874
 6480SOL     OW20338   6.178   2.431   6.462 -0.0947 -0.6956  0.4077
 6480SOL    HW120339   6.152   2.494   6.388 -1.0511 -0.7178  0.7086
 6480SOL    HW220340   6.107   2.362   6.473  0.8085 -1.6672  0.2827
 6481SOL     OW20341   3.683   2.600   0.984  0.7883 -0.0809  0.4815
 6481SOL    HW120342   3.759   2.646   1.030  2.3778 -1.6502 -0.4023
 6481SOL    HW220343   3.718   2.517   0.939 -1.1972 -0.0657 -1.2148
 6482SOL     OW20344   0.196   2.885   4.543 -0.2097 -0.0820  0.5454
 6482SOL    HW120345   0.218   2.787   4.540 -0.2386 -0.0768  0.1469
 6482SOL    HW220346   0.166   2.915   4.453  1.0717  0.5940  0.3234
 6483SOL     OW20347   6.776   4.185   5.016 -0.0822 -0.2934 -0.1117
 6483SOL    HW120348   6.793   4.156   5.110 -1.0097 -1.7000 -0.3570
 6483SOL    HW220349   6.838   4.137   4.954 -0.6922 -0.7375 -0.3870
 6484SOL     OW20350   4.462   2.348   5.498  0.1719 -0.1254  0.2296
 6484SOL    HW120351   4.385   2.310   5.447  0.1222  1.0977 -0.6489
 6484SOL    HW220352   4.541   2.357   5.438  0.2190  1.0220  0.4473
 6485SOL     OW20353   1.824   1.901   4.439 -0.0822  0.4519 -0.1537
 6485SOL    HW120354   1.733   1.882   4.478 -0.6583  2.1315 -0.6084
 6485SOL    HW220355   1.885   1.825   4.461 -1.3268 -0.2813  0.9959
 6486SOL     OW20356   1.118   6.012   5.099 -0.2854 -0.8833 -0.2177
 6486SOL    HW120357   1.071   6.069   5.167 -1.1512 -1.9531  0.1057
 6486SOL    HW220358   1.184   6.068   5.049 -1.0283  0.3736  0.1659
 6487SOL     OW20359   1.312   3.717   3.755  0.5132 -0.2144 -0.0919
 6487SOL    HW120360   1.387   3.695   3.692  0.0358 -0.8142 -0.4654
 6487SOL    HW220361   1.346   3.776   3.828  1.4220 -0.7320 -0.0810
 6488SOL     OW20362   2.426   6.405   5.678  0.1533  0.3608  0.0566
 6488SOL    HW120363   2.386   6.447   5.759  1.0598  1.8199 -0.2150
 6488SOL    HW220364   2.383   6.316   5.661 -2.2392  1.4127  0.3085
 6489SOL     OW20365   3.917   4.012   4.495 -0.3586  0.9475 -0.3054
 6489SOL    HW120366   3.821   4.007   4.465 -0.6964 -0.6574  0.9374
 6489SOL    HW220367   3.966   3.932   4.461 -0.2761  0.0940  1.6959
 6490SOL     OW20368   1.911   1.001   6.093  0.3212 -0.2334  0.6247
 6490SOL    HW120369   1.924   1.094   6.129 -0.3128 -0.3642  1.2137
 6490SOL    HW220370   1.817   0.990   6.061  1.3529  0.5300 -3.0816
 6491SOL     OW20371   1.000   1.307   1.983 -0.0261  0.5031 -0.4498
 6491SOL    HW120372   0.979   1.403   2.003  1.2734  0.9603 -1.1666
 6491SOL    HW220373   1.039   1.264   2.064  0.8387  1.0361 -0.5668
 6492SOL     OW20374   2.928   3.658   3.628 -0.3757 -0.0212 -0.6385
 6492SOL    HW120375   2.829   3.647   3.620 -0.4500  0.7939 -0.9892
 6492SOL    HW220376   2.960   3.615   3.713 -1.0726 -0.0416 -0.3803
 6493SOL     OW20377   0.393   1.661   6.969 -0.5380  0.3643  0.2485
 6493SOL    HW120378   0.302   1.626   6.947 -1.3474  1.2640  1.9607
 6493SOL    HW220379   0.412   1.645   7.066  0.4871  1.5605  0.2684
 6494SOL     OW20380   1.283   0.749   2.765 -0.0871 -0.3941  0.2767
 6494SOL    HW120381   1.246   0.725   2.676  0.2965 -1.5658  0.4150
 6494SOL    HW220382   1.260   0.844   2.786 -1.7092 -0.6266 -0.2874
 6495SOL     OW20383   5.549   2.097   4.223 -0.0280 -0.0856  0.0919
 6495SOL    HW120384   5.516   2.089   4.317  1.1715 -0.1207  0.5354
 6495SOL    HW220385   5.649   2.086   4.222 -0.0687 -0.5206 -1.2454
 6496SOL     OW20386   4.573   2.415   1.779  0.3422 -0.4872 -0.1228
 6496SOL    HW120387   4.486   2.373   1.754 -0.0240  0.8834 -1.2592
 6496SOL    HW220388   4.564   2.460   1.868 -0.6604  1.1054 -0.9877
 6497SOL     OW20389   0.282   5.935   1.332 -0.0623  0.0262  0.3601
 6497SOL    HW120390   0.275   5.835   1.331  1.9375 -0.1585 -0.1123
 6497SOL    HW220391   0.278   5.970   1.239  0.1381  0.2916  0.4504
 6498SOL     OW20392   6.978   3.549   3.653 -0.6525  0.0743  0.2608
 6498SOL    HW120393   6.954   3.521   3.746 -0.4021  1.0598  0.6340
 6498SOL    HW220394   7.059   3.499   3.622 -1.5394 -1.2945  0.0120
 6499SOL     OW20395   1.615   2.702   4.347 -0.0537 -0.3238  0.6286
 6499SOL    HW120396   1.597   2.752   4.262  0.3627 -2.0118 -0.4831
 6499SOL    HW220397   1.533   2.651   4.374 -0.4219  0.7478  1.6787
 6500SOL     OW20398   0.415   4.318   3.359  0.1959 -0.9774 -0.0467
 6500SOL    HW120399   0.480   4.357   3.294  0.2395  0.2811  0.6944
 6500SOL    HW220400   0.409   4.379   3.439 -3.4117  0.0912 -0.9446
 6501SOL     OW20401   6.105   1.899   1.552  0.3858 -0.3021 -0.1438
 6501SOL    HW120402   6.044   1.901   1.472 -0.8158 -0.8688  0.7308
 6501SOL    HW220403   6.196   1.870   1.523 -0.1573 -0.9890 -1.2459
 6502SOL     OW20404   5.639   2.751   6.124  0.2142 -0.5987  0.1026
 6502SOL    HW120405   5.712   2.762   6.192 -1.2698 -0.7425  1.7904
 6502SOL    HW220406   5.625   2.654   6.106 -0.5389 -0.6526  0.9218
 6503SOL     OW20407   0.640   2.880   5.289  0.5445 -0.3192  0.0641
 6503SOL    HW120408   0.614   2.976   5.301 -1.0322 -0.7666  0.5167
 6503SOL    HW220409   0.651   2.837   5.379  0.9547 -0.6349 -0.1357
 6504SOL     OW20410   5.281   5.801   6.788  0.0581  0.0301  0.7546
 6504SOL    HW120411   5.231   5.774   6.705  1.7114 -1.0130  0.0478
 6504SOL    HW220412   5.253   5.892   6.816 -1.0639  0.1060 -0.5322
 6505SOL     OW20413   6.111   3.277   6.381 -0.2397 -0.0682  0.1283
 6505SOL    HW120414   6.191   3.289   6.439  0.4444 -0.9368 -0.5950
 6505SOL    HW220415   6.047   3.351   6.396  0.7352  0.6815  0.6789
 6506SOL     OW20416   0.304   3.423   2.127  0.4428 -0.0130  0.3603
 6506SOL    HW120417   0.268   3.479   2.052  1.3784 -1.6423 -1.4029
 6506SOL    HW220418   0.248   3.342   2.138  1.0256 -0.3996  0.5530
 6507SOL     OW20419   5.181   4.651   6.284 -0.0312  0.1740 -0.3647
 6507SOL    HW120420   5.266   4.693   6.316  0.0163 -0.1594 -0.0506
 6507SOL    HW220421   5.133   4.609   6.362  0.0367 -0.5598 -0.7130
 6508SOL     OW20422   0.241   6.147   2.630  0.4650  0.1253 -0.3675
 6508SOL    HW120423   0.197   6.223   2.582 -0.5299  0.3666  0.8474
 6508SOL    HW220424   0.203   6.060   2.598  2.4623  0.0040 -2.6268
 6509SOL     OW20425   4.322   2.342   6.233 -0.0544 -0.1501 -0.2114
 6509SOL    HW120426   4.363   2.299   6.313 -0.8756 -0.0059  0.2911
 6509SOL    HW220427   4.353   2.294   6.151  1.0969 -0.0589  0.1526
 6510SOL     OW20428   5.476   6.118   5.661  0.0010  0.2432 -0.5774
 6510SOL    HW120429   5.404   6.185   5.639  0.4829  0.2752 -2.2158
 6510SOL    HW220430   5.433   6.030   5.683 -0.5751  0.3019 -1.3925
 6511SOL     OW20431   2.353   6.814   6.544  0.3138 -0.2771  0.1616
 6511SOL    HW120432   2.324   6.754   6.470  1.6097 -1.1536  0.3334
 6511SOL    HW220433   2.352   6.763   6.631  1.1938  0.0009  0.3470
 6512SOL     OW20434   4.250   0.384   6.938 -0.3907  0.4501  0.5749
 6512SOL    HW120435   4.195   0.304   6.915  2.2239 -1.0483 -1.0035
 6512SOL    HW220436   4.284   0.427   6.854  1.4981  0.7781  1.4457
 6513SOL     OW20437   2.528   5.776   1.283 -0.4679  0.0847  0.4692
 6513SOL    HW120438   2.533   5.712   1.206  0.4940  0.4086  0.2421
 6513SOL    HW220439   2.433   5.803   1.298 -0.7597 -0.5816 -0.1079
 6514SOL     OW20440   5.627   0.450   5.291 -0.2078  0.0582 -0.0270
 6514SOL    HW120441   5.638   0.535   5.241  0.0603 -0.3269 -0.6333
 6514SOL    HW220442   5.678   0.377   5.245  1.8152  0.1234  1.9318
 6515SOL     OW20443   1.183   4.729   4.064 -0.7683 -0.1306 -0.9879
 6515SOL    HW120444   1.158   4.750   4.158 -4.0196 -0.4690 -1.6684
 6515SOL    HW220445   1.161   4.807   4.005 -0.8433 -0.7260 -1.7647
 6516SOL     OW20446   0.192   4.131   0.194  0.4085 -0.2370 -0.2150
 6516SOL    HW120447   0.140   4.063   0.245 -0.2933  0.0634 -0.5232
 6516SOL    HW220448   0.136   4.169   0.121  1.2969 -0.4360 -1.0263
 6517SOL     OW20449   0.407   3.253   0.215  0.2017  0.0361 -0.2171
 6517SOL    HW120450   0.416   3.259   0.314  1.4275 -0.5685 -0.2784
 6517SOL    HW220451   0.418   3.344   0.175 -1.4118  0.4718  0.2592
 6518SOL     OW20452   0.969   0.754   3.436 -0.0586  0.1916 -0.4571
 6518SOL    HW120453   1.019   0.670   3.415 -0.4392 -1.2746  3.6475
 6518SOL    HW220454   1.018   0.806   3.505 -1.5339  1.5962 -0.4126
 6519SOL     OW20455   0.995   0.433   4.150  0.8819  0.3819 -0.5091
 6519SOL    HW120456   1.061   0.392   4.086 -0.8431  0.0847 -2.1947
 6519SOL    HW220457   0.912   0.459   4.100 -1.2634 -1.3841  1.8803
 6520SOL     OW20458   6.147   0.360   5.159  0.4406 -0.1148 -0.1419
 6520SOL    HW120459   6.114   0.453   5.144  0.6326  0.2003  1.2486
 6520SOL    HW220460   6.106   0.299   5.091 -1.3152  0.6271  0.1924
 6521SOL     OW20461   6.349   2.611   5.388  0.6202 -0.0588  0.1556
 6521SOL    HW120462   6.347   2.512   5.373  1.7620 -0.2962  1.3360
 6521SOL    HW220463   6.259   2.642   5.418  0.7176 -1.1030  1.6647
 6522SOL     OW20464   3.100   4.269   5.818  0.3252  0.0050 -0.7265
 6522SOL    HW120465   3.066   4.338   5.755 -1.4630  0.2070  0.3764
 6522SOL    HW220466   3.063   4.286   5.909  3.6086  0.3256  0.6831
 6523SOL     OW20467   4.188   6.756   6.969 -0.3476 -0.0799  0.1228
 6523SOL    HW120468   4.212   6.777   7.064 -0.5985 -0.7960  0.3519
 6523SOL    HW220469   4.144   6.667   6.965  0.9264 -0.6982 -0.8409
 6524SOL     OW20470   2.601   2.092   3.428  0.8961  0.4070 -0.8684
 6524SOL    HW120471   2.618   2.068   3.333 -0.3522 -0.2994 -0.9309
 6524SOL    HW220472   2.504   2.110   3.442  0.9185 -0.3020  0.4365
 6525SOL     OW20473   6.335   2.826   5.714 -0.3759 -0.6877  0.0065
 6525SOL    HW120474   6.317   2.924   5.715  0.6594 -0.4592  2.0674
 6525SOL    HW220475   6.419   2.808   5.662 -2.0453 -0.8724 -2.8138
 6526SOL     OW20476   2.296   0.214   0.198 -0.1880 -0.2876  0.1051
 6526SOL    HW120477   2.214   0.220   0.254 -0.4643 -0.4538 -0.2845
 6526SOL    HW220478   2.301   0.124   0.155  0.3190 -0.3642  0.3122
 6527SOL     OW20479   0.871   3.565   2.373  0.5272 -0.6743 -0.3992
 6527SOL    HW120480   0.776   3.597   2.371  1.4096  2.1166 -0.8839
 6527SOL    HW220481   0.900   3.554   2.468  0.1353 -0.2562 -0.2279
 6528SOL     OW20482   5.283   1.443   5.977 -0.0446  0.2567  0.8581
 6528SOL    HW120483   5.246   1.350   5.974 -0.5047  0.4461  0.4635
 6528SOL    HW220484   5.237   1.495   6.049 -0.0871  0.2995  0.8006
 6529SOL     OW20485   0.021   3.098   2.391 -0.1093  0.1372 -0.1179
 6529SOL    HW120486  -0.014   3.039   2.464 -1.5785 -0.8547 -1.5764
 6529SOL    HW220487   0.119   3.082   2.380  0.6341  1.7594  2.9268
 6530SOL     OW20488   1.529   1.466   3.358 -0.3891  0.2968  0.2070
 6530SOL    HW120489   1.472   1.408   3.417 -0.8791  1.8812  1.3553
 6530SOL    HW220490   1.610   1.496   3.408 -0.0569  0.4815 -0.4246
 6531SOL     OW20491   4.996   4.349   6.198 -0.2896  0.6479 -0.2326
 6531SOL    HW120492   4.938   4.269   6.183  1.3155 -0.3552 -1.4786
 6531SOL    HW220493   5.016   4.393   6.110 -0.1317  1.6783  0.3035
 6532SOL     OW20494   1.279   6.419   1.070 -0.0901 -0.4772 -0.0610
 6532SOL    HW120495   1.239   6.329   1.054  1.7852 -1.2827 -0.4444
 6532SOL    HW220496   1.237   6.486   1.008 -0.4941 -1.3827 -0.7845
 6533SOL     OW20497   3.890   3.826   6.341 -0.1283 -0.5142  0.2153
 6533SOL    HW120498   3.794   3.820   6.366 -0.2985  0.8560 -0.0480
 6533SOL    HW220499   3.945   3.837   6.424 -0.4002  0.7402  0.2492
 6534SOL     OW20500   6.340   2.812   1.405  0.1408  0.8254  0.6052
 6534SOL    HW120501   6.440   2.818   1.407  0.1443  0.6625  0.8537
 6534SOL    HW220502   6.301   2.905   1.407  0.3050  0.9489 -0.7125
 6535SOL     OW20503   4.853   4.840   4.907 -0.6232 -0.1017 -0.2489
 6535SOL    HW120504   4.952   4.844   4.899 -0.6394  1.8974  0.0060
 6535SOL    HW220505   4.818   4.760   4.859  0.9848  0.0024 -1.6566
 6536SOL     OW20506   1.241   4.123   4.680 -0.8113 -0.3095  0.2417
 6536SOL    HW120507   1.300   4.043   4.689  0.8844  0.9412  0.8126
 6536SOL    HW220508   1.196   4.141   4.768  0.3992  0.4980  0.7277
 6537SOL     OW20509   1.010   4.233   2.507  0.1673  0.2420 -0.2457
 6537SOL    HW120510   1.079   4.283   2.558  0.0024  3.5915 -2.9375
 6537SOL    HW220511   1.055   4.168   2.445  0.4961 -1.5690  1.7908
 6538SOL     OW20512   1.502   3.204   4.722  0.0170  0.1233  0.4378
 6538SOL    HW120513   1.440   3.283   4.715  0.1441  0.1269 -0.8201
 6538SOL    HW220514   1.457   3.124   4.683  0.8700  0.1728 -0.6896
 6539SOL     OW20515   6.954   1.264   1.274 -0.1398 -0.5596 -0.2159
 6539SOL    HW120516   6.935   1.173   1.237 -1.0520 -0.6111  0.3504
 6539SOL    HW220517   6.876   1.324   1.257  0.5750  0.2062 -0.8392
 6540SOL     OW20518   4.753   1.967   0.338 -0.2561 -0.1039  0.2030
 6540SOL    HW120519   4.679   1.913   0.296 -0.7722  0.3657  0.4961
 6540SOL    HW220520   4.728   1.989   0.432  0.0764  0.4120  0.1717
 6541SOL     OW20521   4.934   0.506   2.036 -0.3592  0.4474 -0.6791
 6541SOL    HW120522   4.901   0.558   1.957 -1.1018  2.4238  0.8477
 6541SOL    HW220523   5.027   0.535   2.059 -0.7045  0.9974  0.0647
 6542SOL     OW20524   6.954   3.489   3.933  0.3664  0.1349 -0.0080
 6542SOL    HW120525   6.898   3.565   3.966  0.0653 -0.1383  0.1211
 6542SOL    HW220526   7.043   3.491   3.977  0.0686 -0.0622  0.6054
 6543SOL     OW20527   5.459   3.431   3.217 -0.2241 -0.1892  0.2890
 6543SOL    HW120528   5.490   3.364   3.149  0.3334  0.1049  0.2447
 6543SOL    HW220529   5.371   3.403   3.253 -0.8767  0.0078 -1.0757
 6544SOL     OW20530   3.043   5.968   3.316 -0.2642  0.9000  0.1422
 6544SOL    HW120531   2.975   6.030   3.277  0.7915  2.0879  0.1302
 6544SOL    HW220532   3.084   5.913   3.244 -1.0518  0.3175  0.1239
 6545SOL     OW20533   4.064   5.357   6.870 -0.3824 -0.4340  0.9229
 6545SOL    HW120534   4.142   5.316   6.917 -0.5591 -0.3409  1.3028
 6545SOL    HW220535   4.018   5.420   6.932 -0.8147 -0.5578  0.7303
 6546SOL     OW20536   4.190   2.776   5.571  0.6613  0.0016  0.9293
 6546SOL    HW120537   4.133   2.740   5.497 -0.0279 -2.3389  2.4776
 6546SOL    HW220538   4.183   2.875   5.574  0.6236  0.1781 -2.0098
 6547SOL     OW20539   5.500   5.358   0.993  0.1611 -0.0848 -0.3408
 6547SOL    HW120540   5.492   5.324   1.087 -0.2642  1.4838  0.2249
 6547SOL    HW220541   5.566   5.434   0.991 -1.3659  1.2745 -0.8815
 6548SOL     OW20542   1.228   3.078   3.508  0.2270 -0.2105 -0.6266
 6548SOL    HW120543   1.302   3.143   3.520  1.1872 -1.1905 -1.0770
 6548SOL    HW220544   1.177   3.100   3.425  0.2606  0.2197 -0.5368
 6549SOL     OW20545   4.795   6.196   3.065 -0.1878  0.2785  0.5295
 6549SOL    HW120546   4.720   6.249   3.104 -0.3021  0.3260  0.2543
 6549SOL    HW220547   4.872   6.256   3.045 -0.5555  0.4667 -0.3821
 6550SOL     OW20548   6.148   6.713   2.427 -0.1613  0.0050  0.2844
 6550SOL    HW120549   6.086   6.645   2.388  0.5590 -0.3526 -0.2639
 6550SOL    HW220550   6.207   6.670   2.496 -0.8551  0.4528  1.1683
 6551SOL     OW20551   2.893   3.966   1.157  0.2625  0.5214 -0.2308
 6551SOL    HW120552   2.914   3.988   1.252 -0.5927 -0.9739  0.3176
 6551SOL    HW220553   2.915   3.871   1.138 -0.6276  0.4888 -1.2223
 6552SOL     OW20554   1.460   6.085   2.122 -0.1634  0.1910  0.9812
 6552SOL    HW120555   1.460   6.087   2.222  1.4336 -2.5008  1.1306
 6552SOL    HW220556   1.434   5.994   2.090  0.0397  0.7888 -1.0482
 6553SOL     OW20557   6.824   2.425   1.452 -0.0144 -0.1050  0.4283
 6553SOL    HW120558   6.923   2.417   1.464 -0.1695 -0.3055  1.7425
 6553SOL    HW220559   6.779   2.357   1.509 -0.9692  1.1575  1.2166
 6554SOL     OW20560   2.839   0.177   5.920  0.0049 -0.1353 -0.4021
 6554SOL    HW120561   2.783   0.121   5.980 -0.1066  0.0328 -0.3492
 6554SOL    HW220562   2.898   0.118   5.865  0.2740 -0.2785  0.0350
 6555SOL     OW20563   5.844   2.502   4.896  0.2551 -0.7169 -0.0379
 6555SOL    HW120564   5.749   2.527   4.876  0.3811  0.9066  1.1165
 6555SOL    HW220565   5.849   2.454   4.984  0.4229 -1.5699 -0.5044
 6556SOL     OW20566   4.305   2.331   2.266  0.2755  0.2445 -0.0482
 6556SOL    HW120567   4.325   2.276   2.185 -0.3754  1.0009 -0.7456
 6556SOL    HW220568   4.356   2.417   2.261 -0.1334  0.4987  0.0927
 6557SOL     OW20569   1.973   6.947   2.931 -0.1813  0.2818 -0.5555
 6557SOL    HW120570   1.982   6.851   2.955 -0.0253 -0.3452 -2.8348
 6557SOL    HW220571   1.918   6.995   3.000 -1.1238 -1.6676  0.1032
 6558SOL     OW20572   4.423   4.420   0.562  0.2550  0.1538  0.4914
 6558SOL    HW120573   4.516   4.434   0.594  2.1445  0.0011 -4.1568
 6558SOL    HW220574   4.377   4.353   0.621  2.6321  0.9396  3.4898
 6559SOL     OW20575   1.208   2.614   4.186 -0.2380 -0.1231 -0.1334
 6559SOL    HW120576   1.229   2.708   4.159 -1.4346  0.4046  0.7002
 6559SOL    HW220577   1.236   2.552   4.113 -1.2751  1.0655 -1.6091
 6560SOL     OW20578   4.421   3.858   0.738 -0.2294  0.4714  0.0170
 6560SOL    HW120579   4.443   3.934   0.800 -1.5742 -0.8523  2.2636
 6560SOL    HW220580   4.483   3.782   0.757 -0.3669  0.2084 -0.5924
 6561SOL     OW20581   3.863   5.732   6.457  0.0498  0.7655  0.8588
 6561SOL    HW120582   3.878   5.810   6.518 -0.4507  1.2076  0.4261
 6561SOL    HW220583   3.949   5.709   6.411  0.4395  0.4139  1.7297
 6562SOL     OW20584   5.223   3.305   1.179  0.2412 -0.7786 -0.1802
 6562SOL    HW120585   5.212   3.405   1.179  0.0287 -0.7767 -1.5309
 6562SOL    HW220586   5.311   3.281   1.139  0.5786 -1.1279  0.7437
 6563SOL     OW20587   5.136   5.930   5.171  0.1302  0.0864  0.0211
 6563SOL    HW120588   5.108   5.846   5.125  0.2671  0.7177 -1.2482
 6563SOL    HW220589   5.056   5.977   5.208  0.1157 -0.9388  1.3830
 6564SOL     OW20590   5.960   4.395   3.079  0.3587 -0.0828  0.3050
 6564SOL    HW120591   5.970   4.403   3.178  1.1122  1.3825  0.1330
 6564SOL    HW220592   5.994   4.478   3.035  0.3686 -0.8580 -1.2127
 6565SOL     OW20593   5.657   0.032   2.209  0.0336 -0.2119  0.1268
 6565SOL    HW120594   5.753   0.013   2.232 -0.0007 -2.5655 -1.3085
 6565SOL    HW220595   5.598  -0.028   2.264 -0.4033 -1.0209 -1.1770
 6566SOL     OW20596   4.404   5.942   3.755 -0.3460 -0.1772  0.4652
 6566SOL    HW120597   4.486   5.888   3.774  0.0028  0.1582 -0.0641
 6566SOL    HW220598   4.413   6.032   3.798 -0.9143 -0.5132  1.3230
 6567SOL     OW20599   5.078   0.567   0.292 -0.4098  0.7795  0.5346
 6567SOL    HW120600   5.006   0.626   0.254  1.1267  1.5995 -1.3140
 6567SOL    HW220601   5.048   0.471   0.288 -1.2757  1.0712 -0.5129
 6568SOL     OW20602   5.118   1.353   0.886  0.6407 -1.1778 -0.4463
 6568SOL    HW120603   5.180   1.366   0.808  0.8122 -2.0376 -0.4704
 6568SOL    HW220604   5.134   1.262   0.925 -0.1319 -1.1309 -0.0181
 6569SOL     OW20605   1.180   3.459   5.835  0.0338 -0.6095  0.1570
 6569SOL    HW120606   1.180   3.553   5.869  0.2140 -0.2037 -0.9200
 6569SOL    HW220607   1.177   3.460   5.735  0.0071 -1.7538  0.1359
 6570SOL     OW20608   4.141   6.571   2.614 -0.7665 -0.1512 -0.4208
 6570SOL    HW120609   4.231   6.573   2.658 -1.3209  2.1564  0.7631
 6570SOL    HW220610   4.071   6.545   2.681 -1.2675  0.6074 -0.6287
 6571SOL     OW20611   2.045   5.762   1.185 -0.0368  0.2322 -0.1227
 6571SOL    HW120612   2.047   5.674   1.232  1.5389 -0.0790 -0.6953
 6571SOL    HW220613   2.003   5.831   1.243  0.5837 -0.4512  1.1620
 6572SOL     OW20614   0.436   6.558   3.959 -0.1430 -0.1129 -0.3480
 6572SOL    HW120615   0.490   6.578   3.877 -0.9053 -0.0327 -0.8458
 6572SOL    HW220616   0.371   6.485   3.938  1.3693 -1.9238  0.9217
 6573SOL     OW20617   1.104   1.290   3.060  0.6742 -0.1324 -0.8138
 6573SOL    HW120618   1.142   1.249   3.144 -0.2210 -0.2043 -0.4324
 6573SOL    HW220619   1.012   1.254   3.045  0.1905  1.1190 -0.9255
 6574SOL     OW20620   1.431   5.165   2.308 -0.0773  0.3102 -0.8933
 6574SOL    HW120621   1.386   5.080   2.333 -1.5142  1.8538  2.4795
 6574SOL    HW220622   1.524   5.165   2.346 -0.7970  0.9626  1.0024
 6575SOL     OW20623   3.204   6.731   3.295  0.1282 -0.4610 -0.0520
 6575SOL    HW120624   3.221   6.820   3.251 -1.3558 -0.6152 -0.9767
 6575SOL    HW220625   3.228   6.658   3.231 -0.0346 -0.7132  0.1766
 6576SOL     OW20626   3.113   6.964   6.582 -0.4530 -0.2194 -0.0114
 6576SOL    HW120627   3.117   6.920   6.671 -3.1063 -1.3500 -0.3690
 6576SOL    HW220628   3.141   7.060   6.591  1.2095 -0.7985  1.6017
 6577SOL     OW20629   2.540   0.583   2.577 -0.1124  0.3725 -0.2841
 6577SOL    HW120630   2.579   0.552   2.490  0.7129  0.5355  0.0233
 6577SOL    HW220631   2.588   0.665   2.608  0.2646 -0.2401  0.8142
 6578SOL     OW20632   2.520   5.349   3.091 -0.2112 -0.0503  0.0669
 6578SOL    HW120633   2.529   5.445   3.120 -1.0005  0.1817 -0.4121
 6578SOL    HW220634   2.501   5.346   2.993  0.1469 -0.7197  0.0160
 6579SOL     OW20635   6.735   0.751   3.990 -0.6437  0.0159 -0.0231
 6579SOL    HW120636   6.775   0.720   4.076 -2.2596  2.4248  1.7585
 6579SOL    HW220637   6.783   0.833   3.959 -0.3475 -0.5949 -1.2428
 6580SOL     OW20638   3.582   1.083   5.711 -0.1445  0.4430 -0.6297
 6580SOL    HW120639   3.549   1.120   5.624 -0.2414 -1.3531 -1.4112
 6580SOL    HW220640   3.677   1.053   5.701 -0.8712 -2.0197 -0.9273
 6581SOL     OW20641   0.745   1.731   6.749 -0.4561  0.2099  0.5461
 6581SOL    HW120642   0.794   1.768   6.828  0.5999 -1.5452  0.7532
 6581SOL    HW220643   0.810   1.711   6.675 -1.1805  0.0398 -0.0578
 6582SOL     OW20644   0.079   6.922   1.151  0.5503  0.3576  0.7456
 6582SOL    HW120645   0.144   6.878   1.213  1.7402  1.7999  0.5510
 6582SOL    HW220646  -0.009   6.933   1.199  0.9328 -0.1134  1.5790
 6583SOL     OW20647   5.469   5.806   1.137 -0.3791  0.2835 -0.7356
 6583SOL    HW120648   5.441   5.863   1.214  0.0890 -1.5807  0.8660
 6583SOL    HW220649   5.388   5.775   1.087 -1.0547 -1.7451  1.4391
 6584SOL     OW20650   1.998   2.728   1.655 -0.0919 -0.0253 -0.0708
 6584SOL    HW120651   1.946   2.651   1.618  0.4115 -0.2694 -0.2807
 6584SOL    HW220652   2.095   2.703   1.662 -0.1985 -0.1029  1.6987
 6585SOL     OW20653   0.801   5.020   6.489 -0.2578  0.3784 -0.2961
 6585SOL    HW120654   0.718   4.978   6.525  0.5959 -1.8751 -0.7570
 6585SOL    HW220655   0.881   4.971   6.524  1.1739  3.9995  2.2080
 6586SOL     OW20656   4.185   2.656   6.583  0.1522 -0.5006  0.0397
 6586SOL    HW120657   4.214   2.720   6.512 -2.0559 -1.4205 -1.8262
 6586SOL    HW220658   4.102   2.690   6.627  0.6730 -0.6586  1.1677
 6587SOL     OW20659   2.237   2.953   0.060  0.0188 -0.4732 -0.3941
 6587SOL    HW120660   2.222   2.939   0.158  0.0197  0.5728 -0.2325
 6587SOL    HW220661   2.159   2.917   0.008 -0.3794 -0.2742  0.0562
 6588SOL     OW20662   6.814   3.194   6.150  0.3100 -0.0996 -0.2136
 6588SOL    HW120663   6.784   3.200   6.055  1.3398  0.8699 -0.4972
 6588SOL    HW220664   6.818   3.098   6.178 -4.0549 -0.3776  0.2248
 6589SOL     OW20665   1.401   7.005   2.624 -0.1296  0.1533  0.4740
 6589SOL    HW120666   1.401   6.963   2.714  0.3357 -0.7761  0.0582
 6589SOL    HW220667   1.492   7.041   2.603 -0.1026 -0.0693  0.1902
 6590SOL     OW20668   2.017   6.388   3.521  0.0776  0.3087  0.1566
 6590SOL    HW120669   1.946   6.429   3.577 -0.3366  2.3118 -1.6867
 6590SOL    HW220670   1.975   6.332   3.449  0.5955 -2.0993  1.5995
 6591SOL     OW20671   6.858   6.057   2.859 -0.0182 -0.7042  0.4174
 6591SOL    HW120672   6.884   5.974   2.908 -0.6309 -0.3897  1.3003
 6591SOL    HW220673   6.937   6.118   2.853  0.0089 -0.6263  1.2966
 6592SOL     OW20674   4.604   6.777   2.618  0.3001 -0.3045 -0.3799
 6592SOL    HW120675   4.687   6.807   2.665  0.7954 -1.7438 -0.2800
 6592SOL    HW220676   4.613   6.797   2.520  1.2197 -1.3144 -0.5308
 6593SOL     OW20677   2.519   2.447   2.797 -0.3082  0.0287  0.2532
 6593SOL    HW120678   2.540   2.489   2.709  0.9039  0.8731  0.9234
 6593SOL    HW220679   2.432   2.482   2.831 -0.7739 -0.2859 -0.5739
 6594SOL     OW20680   2.978   2.817   5.657  0.1422 -0.2978 -0.7610
 6594SOL    HW120681   2.966   2.837   5.560 -0.1031  0.6406 -0.5432
 6594SOL    HW220682   3.037   2.886   5.698 -0.1152 -0.4385 -0.1408
 6595SOL     OW20683   1.209   2.948   5.771  0.1443  0.4332 -0.4395
 6595SOL    HW120684   1.203   3.035   5.722 -1.1669  0.7017  0.1329
 6595SOL    HW220685   1.140   2.946   5.844  0.8966 -0.6394  0.2893
 6596SOL     OW20686   6.655   6.534   2.920 -0.6146 -0.0577 -0.2627
 6596SOL    HW120687   6.558   6.556   2.908 -0.2729  2.1380  0.5014
 6596SOL    HW220688   6.664   6.450   2.974 -2.1037  0.2968  0.5998
 6597SOL     OW20689   0.902   4.944   3.958 -0.3807  0.4183  0.0379
 6597SOL    HW120690   0.942   4.992   3.881 -0.0070 -0.7112 -0.4828
 6597SOL    HW220691   0.956   4.962   4.041  1.0455 -0.8237 -0.5846
 6598SOL     OW20692   0.793   4.678   3.948  0.1994 -0.0496  0.6322
 6598SOL    HW120693   0.725   4.674   3.875  0.8704  0.4954 -0.0332
 6598SOL    HW220694   0.835   4.769   3.950  0.8407 -0.3485  1.0945
 6599SOL     OW20695   6.234   5.443   6.084 -0.3806 -0.1202  0.2245
 6599SOL    HW120696   6.258   5.365   6.142 -1.2336 -0.9103 -0.4493
 6599SOL    HW220697   6.281   5.434   5.996 -0.3763  0.2074  0.1932
 6600SOL     OW20698   4.505   6.313   4.866 -0.0749  0.2939  0.5912
 6600SOL    HW120699   4.463   6.316   4.776  0.4860 -1.7104  0.2068
 6600SOL    HW220700   4.434   6.304   4.936 -0.5403  2.3614  0.4315
 6601SOL     OW20701   2.211   2.526   2.601 -0.5959 -0.5032  0.9324
 6601SOL    HW120702   2.166   2.471   2.672  0.1538 -2.5375 -0.1051
 6601SOL    HW220703   2.182   2.494   2.511  0.5697  0.2157  0.2787
 6602SOL     OW20704   1.547   5.562   0.007  0.3573  0.0904  0.3802
 6602SOL    HW120705   1.589   5.653   0.009  1.2230 -0.2639  3.7875
 6602SOL    HW220706   1.618   5.493  -0.008  0.6660 -0.2829  3.0196
 6603SOL     OW20707   0.790   0.721   4.771  0.1845  0.5136 -0.1018
 6603SOL    HW120708   0.753   0.674   4.851 -0.5637 -0.2794 -0.8785
 6603SOL    HW220709   0.721   0.720   4.698  1.6719 -0.9286 -1.5864
 6604SOL     OW20710   1.035   0.031   5.111  0.6257 -0.2540 -0.1021
 6604SOL    HW120711   1.026   0.032   5.012  1.2652  0.4694 -0.1646
 6604SOL    HW220712   1.008  -0.058   5.147 -1.8753  0.1869 -0.6991
 6605SOL     OW20713   6.427   6.084   1.606  0.1238  0.3160  0.1339
 6605SOL    HW120714   6.487   6.021   1.656 -1.0547 -0.6925  0.3144
 6605SOL    HW220715   6.427   6.059   1.509 -2.2224 -1.5823  0.5485
 6606SOL     OW20716   2.461   4.971   3.469 -0.0019  0.7878  0.0607
 6606SOL    HW120717   2.443   5.039   3.398 -2.9206 -0.1484 -0.2369
 6606SOL    HW220718   2.467   4.880   3.429 -3.4769 -0.0076  0.9683
 6607SOL     OW20719   5.411   3.587   6.108  0.1083 -0.1925 -0.1408
 6607SOL    HW120720   5.435   3.628   6.196 -0.5545 -0.6419  0.2532
 6607SOL    HW220721   5.493   3.547   6.067  0.5607  0.6313 -0.0617
 6608SOL     OW20722   0.338   0.458   5.835 -0.6757 -0.3242 -0.3368
 6608SOL    HW120723   0.420   0.495   5.791 -1.5330  0.7068 -1.1152
 6608SOL    HW220724   0.340   0.358   5.830  1.8761 -0.5191  2.1521
 6609SOL     OW20725   3.790   1.775   5.042  0.8805 -0.1027 -0.6584
 6609SOL    HW120726   3.711   1.835   5.029  1.2797  0.4410 -0.6161
 6609SOL    HW220727   3.859   1.823   5.097  1.3911 -0.4341 -1.0098
 6610SOL     OW20728   4.076   5.482   1.725  0.1633  0.1236  0.2158
 6610SOL    HW120729   4.000   5.506   1.786  0.0990 -1.6749  0.9091
 6610SOL    HW220730   4.063   5.388   1.693 -0.6907  1.4245 -3.9171
 6611SOL     OW20731   4.846   3.080   3.688 -0.4781 -0.3791  0.4811
 6611SOL    HW120732   4.847   3.043   3.781  0.9035 -0.7178  0.3423
 6611SOL    HW220733   4.901   3.163   3.684 -1.4069  0.2467  0.1880
 6612SOL     OW20734   5.814   2.001   5.947 -0.3298  0.1573  0.0884
 6612SOL    HW120735   5.821   2.032   6.042 -1.5795  2.0798 -0.3935
 6612SOL    HW220736   5.718   1.989   5.923  0.0258 -2.2184 -0.4155
 6613SOL     OW20737   3.913   1.631   5.611  0.2373 -0.1095 -0.8430
 6613SOL    HW120738   3.952   1.569   5.543  0.9594 -0.2773 -0.2788
 6613SOL    HW220739   3.815   1.641   5.594  0.2428 -0.8578 -1.3556
 6614SOL     OW20740   4.569   5.561   2.862  0.2841  0.8574  0.3646
 6614SOL    HW120741   4.665   5.534   2.853  0.9540  3.2083 -0.0615
 6614SOL    HW220742   4.521   5.493   2.918  2.0431 -0.6460  0.1464
 6615SOL     OW20743   2.049   5.051   0.271 -0.1827  0.8035  0.3665
 6615SOL    HW120744   2.066   5.093   0.182 -0.9919 -0.7900 -0.5765
 6615SOL    HW220745   1.954   5.065   0.297 -0.5864 -0.7490 -0.1710
 6616SOL     OW20746   4.552   1.457   5.652  0.3200  0.2958  0.4502
 6616SOL    HW120747   4.603   1.433   5.569  0.3757 -0.6983  0.7622
 6616SOL    HW220748   4.457   1.479   5.627  0.0508 -1.0539  0.2309
 6617SOL     OW20749   3.334   0.657   4.775 -0.1918  0.5265 -0.2181
 6617SOL    HW120750   3.385   0.604   4.842 -0.8608 -0.1124 -0.2050
 6617SOL    HW220751   3.313   0.748   4.812 -0.1267  0.3531  0.2406
 6618SOL     OW20752   0.377   2.786   2.579 -0.6435  0.4797 -0.1593
 6618SOL    HW120753   0.351   2.692   2.602 -0.2884 -0.0719 -1.8623
 6618SOL    HW220754   0.382   2.796   2.479  0.6780  1.9448  0.0123
 6619SOL     OW20755   5.248   1.836   3.630 -0.1961 -0.8320 -0.5905
 6619SOL    HW120756   5.344   1.811   3.644  0.0873 -0.7451 -2.1185
 6619SOL    HW220757   5.228   1.921   3.679  0.4030 -1.0357  0.0195
 6620SOL     OW20758   2.161   3.509   1.677 -0.4188  0.6384 -0.1983
 6620SOL    HW120759   2.203   3.436   1.623  0.6356  1.4342 -0.4781
 6620SOL    HW220760   2.207   3.516   1.765 -1.2227  0.2714  0.2636
 6621SOL     OW20761   5.062   3.122   5.871 -0.1610 -0.1512  0.1479
 6621SOL    HW120762   5.074   3.210   5.916 -1.3146  0.4344 -0.6422
 6621SOL    HW220763   5.125   3.055   5.911 -0.5127  0.5546  1.9965
 6622SOL     OW20764   5.535   4.558   2.254  0.0174  0.3129 -0.4076
 6622SOL    HW120765   5.545   4.474   2.201  0.6247  0.3808 -0.3993
 6622SOL    HW220766   5.509   4.633   2.193  0.8243  0.4156 -0.6283
 6623SOL     OW20767   2.060   5.622   5.786  0.0281  0.6203 -0.2033
 6623SOL    HW120768   2.001   5.656   5.712  1.0983 -0.2284 -1.5029
 6623SOL    HW220769   2.075   5.524   5.774  0.8537  0.6212  0.6957
 6624SOL     OW20770   6.911   0.782   3.703  0.0520  0.4499 -0.1816
 6624SOL    HW120771   6.962   0.705   3.665 -2.2282 -1.1047 -0.2977
 6624SOL    HW220772   6.875   0.838   3.628 -2.2653 -1.1441 -0.3526
 6625SOL     OW20773   6.795   2.676   5.121  0.2004  0.0473 -0.0820
 6625SOL    HW120774   6.861   2.698   5.192  0.1401 -0.3767  0.1076
 6625SOL    HW220775   6.702   2.688   5.157  0.1651 -0.6573  0.0727
 6626SOL     OW20776   4.527   5.993   5.559 -0.0625  0.5471  0.2195
 6626SOL    HW120777   4.562   5.908   5.598  1.9420  1.4487  0.5384
 6626SOL    HW220778   4.445   5.975   5.506  1.2991 -1.8832 -1.2483
 6627SOL     OW20779   0.833   5.184   2.779 -0.7145  0.1697  0.0174
 6627SOL    HW120780   0.913   5.242   2.764 -1.3576  0.4590 -2.9377
 6627SOL    HW220781   0.861   5.088   2.785 -0.1379  0.1829 -1.7779
 6628SOL     OW20782   3.383   5.607   4.434 -0.5790  0.2344  0.2898
 6628SOL    HW120783   3.374   5.707   4.437  1.1452  0.5562 -2.0649
 6628SOL    HW220784   3.474   5.581   4.468 -1.0428 -0.5752  0.9574
 6629SOL     OW20785   5.635   0.347   0.489 -0.2806  0.1841  0.0044
 6629SOL    HW120786   5.647   0.260   0.537 -0.5295 -0.9905 -1.9664
 6629SOL    HW220787   5.719   0.371   0.442  0.1436  1.6244  1.4063
 6630SOL     OW20788   2.937   6.578   1.108 -0.0193  0.7220 -0.3477
 6630SOL    HW120789   2.876   6.590   1.186  0.9812  0.7525  0.4436
 6630SOL    HW220790   2.948   6.481   1.088  1.1301  0.6160  0.7038
 6631SOL     OW20791   2.824   3.418   5.692  0.6151 -0.4014  0.4219
 6631SOL    HW120792   2.854   3.466   5.609  1.3532 -1.8079 -0.1554
 6631SOL    HW220793   2.890   3.434   5.766 -0.1479  1.0182  0.8287
 6632SOL     OW20794   6.858   1.958   1.046  0.2496  0.3606  0.3828
 6632SOL    HW120795   6.926   1.887   1.062 -0.0197 -0.6186 -2.3075
 6632SOL    HW220796   6.901   2.036   1.000 -0.0114  0.6931  0.6990
 6633SOL     OW20797   3.196   4.093   6.627 -0.7714  0.1516 -0.3647
 6633SOL    HW120798   3.277   4.058   6.675 -1.0392  0.9428  0.7191
 6633SOL    HW220799   3.126   4.022   6.623 -1.2495  0.4350  1.6677
 6634SOL     OW20800   4.273   3.936   6.801 -0.0249 -0.7235 -1.0233
 6634SOL    HW120801   4.196   3.985   6.843 -0.4352 -0.3466 -2.1686
 6634SOL    HW220802   4.252   3.920   6.704  1.0285 -1.2809 -1.1640
 6635SOL     OW20803   6.115   5.706   1.346 -0.1807 -0.0380  0.4412
 6635SOL    HW120804   6.131   5.682   1.250 -1.0968 -0.3019  0.3465
 6635SOL    HW220805   6.032   5.661   1.378  0.9737 -1.2596  1.8393
 6636SOL     OW20806   3.536   5.623   0.310  0.3433 -0.0568 -0.5010
 6636SOL    HW120807   3.472   5.690   0.272  0.3066  2.3405  3.2460
 6636SOL    HW220808   3.508   5.531   0.282 -2.0019  1.1949 -2.6882
 6637SOL     OW20809   0.544   0.846   0.711  0.0462 -0.1706  0.0631
 6637SOL    HW120810   0.501   0.908   0.645 -0.6792  0.2019  0.8765
 6637SOL    HW220811   0.494   0.759   0.712 -0.0810 -0.0931  0.2969
 6638SOL     OW20812   3.570   2.968   3.959 -0.6520 -0.9592  0.1837
 6638SOL    HW120813   3.626   2.906   3.905  1.8323  0.4045  1.0629
 6638SOL    HW220814   3.520   3.031   3.899 -0.0146 -1.1725 -0.5732
 6639SOL     OW20815   5.281   4.714   1.801  0.5881  0.1837  0.1369
 6639SOL    HW120816   5.221   4.780   1.847  0.6076  0.5406 -0.3442
 6639SOL    HW220817   5.295   4.742   1.706  0.3397 -0.6874 -0.1632
 6640SOL     OW20818   5.932   3.395   6.188  0.3578 -0.5398  0.2471
 6640SOL    HW120819   5.933   3.439   6.277  0.4272 -1.8047  0.9046
 6640SOL    HW220820   6.004   3.325   6.185  0.9871  0.1311 -1.1500
 6641SOL     OW20821   2.441   0.933   6.720  0.0208  0.6459  0.2403
 6641SOL    HW120822   2.482   0.854   6.766  1.3188  1.6091  0.8012
 6641SOL    HW220823   2.511   1.003   6.706 -1.1459  1.7755 -0.0875
 6642SOL     OW20824   1.453   6.683   2.413 -0.0492  0.0748 -0.0091
 6642SOL    HW120825   1.509   6.671   2.331  0.7398 -1.8028  0.7394
 6642SOL    HW220826   1.505   6.730   2.484  0.3821 -1.0467  0.4444
 6643SOL     OW20827   3.911   5.892   6.041 -0.3044 -0.0164 -0.5232
 6643SOL    HW120828   3.860   5.856   6.118 -2.5267 -0.5299 -2.1171
 6643SOL    HW220829   3.936   5.987   6.059 -2.0685  0.3402  0.2777
 6644SOL     OW20830   0.295   5.460   3.345  0.0926  0.8724 -0.0986
 6644SOL    HW120831   0.371   5.523   3.361  0.2009  0.9238 -0.7954
 6644SOL    HW220832   0.209   5.508   3.361  0.1127  1.7000 -2.1306
 6645SOL     OW20833   0.031   3.729   3.006 -0.1235 -0.3739 -0.0056
 6645SOL    HW120834   0.103   3.786   2.965 -1.3804  1.3744  0.1249
 6645SOL    HW220835   0.045   3.634   2.978  1.0175  0.2364 -1.7175
 6646SOL     OW20836   3.954   1.460   6.199  0.6361  0.0964  0.2159
 6646SOL    HW120837   3.887   1.396   6.236 -1.3602  1.7158 -0.4321
 6646SOL    HW220838   3.967   1.443   6.102  0.0337  0.6976  0.0222
 6647SOL     OW20839   5.092   5.375   2.628  0.4946  0.2509 -0.1302
 6647SOL    HW120840   5.093   5.448   2.559  1.1180  0.2794 -0.0918
 6647SOL    HW220841   5.080   5.287   2.583 -0.7104  0.4057 -0.1437
 6648SOL     OW20842   2.047   4.999   6.383  0.7785  0.6541  0.1362
 6648SOL    HW120843   2.009   4.925   6.438  0.5226  0.2106 -0.6346
 6648SOL    HW220844   2.002   5.002   6.294  1.1465  1.4084 -0.0356
 6649SOL     OW20845   0.357   2.294   5.852  0.0042 -0.1038  0.3370
 6649SOL    HW120846   0.333   2.232   5.778  0.3098 -0.6119  0.6529
 6649SOL    HW220847   0.307   2.269   5.935 -0.6847  0.7461  0.1958
 6650SOL     OW20848   2.958   1.939   6.252 -0.1332 -0.5677 -0.2637
 6650SOL    HW120849   2.954   2.017   6.314  0.7853 -2.0924  1.8462
 6650SOL    HW220850   3.044   1.941   6.200 -0.1299 -0.1838 -0.2440
 6651SOL     OW20851   1.720   2.812   0.968  0.0979  0.7250  0.0560
 6651SOL    HW120852   1.711   2.844   1.062 -0.2200  3.1485 -0.7483
 6651SOL    HW220853   1.730   2.712   0.968  1.1899  0.7611  2.6919
 6652SOL     OW20854   6.841   3.449   2.200 -0.0576  0.3477  0.7319
 6652SOL    HW120855   6.903   3.496   2.138 -1.1982  1.2771  0.2733
 6652SOL    HW220856   6.891   3.420   2.282  1.1562  0.2997 -0.0047
 6653SOL     OW20857   6.084   3.163   0.110 -0.1272 -0.4176 -0.3387
 6653SOL    HW120858   6.094   3.255   0.148 -0.3661 -0.2878 -0.5840
 6653SOL    HW220859   6.032   3.105   0.172  0.6731 -0.6105  0.1700
 6654SOL     OW20860   6.731   4.956   3.823 -0.9491 -0.0082 -0.0269
 6654SOL    HW120861   6.716   5.019   3.899 -3.5618 -0.3800 -0.1189
 6654SOL    HW220862   6.744   4.864   3.859  6.5409  0.6596  0.3789
 6655SOL     OW20863   0.991   6.545   6.491 -0.2219 -0.5194  0.4334
 6655SOL    HW120864   1.009   6.507   6.401  0.3227  1.7289 -0.4756
 6655SOL    HW220865   0.920   6.491   6.537  1.0749 -3.0497 -0.3660
 6656SOL     OW20866   5.293   0.895   2.382 -0.0973  0.4128  0.0934
 6656SOL    HW120867   5.362   0.824   2.369  0.5671  0.7726  1.3546
 6656SOL    HW220868   5.310   0.970   2.318  1.2674  0.8773  0.9252
 6657SOL     OW20869   4.895   1.675   3.358 -0.4955  0.0769 -0.0918
 6657SOL    HW120870   4.975   1.732   3.376 -0.9580  0.4920  0.7505
 6657SOL    HW220871   4.838   1.718   3.287  0.1526 -0.3562 -0.8834
 6658SOL     OW20872   6.528   6.843   4.018  0.3538 -0.1170 -0.2568
 6658SOL    HW120873   6.464   6.804   4.085 -3.6416 -1.0105 -4.1274
 6658SOL    HW220874   6.571   6.769   3.966  1.9089  0.5771 -0.0010
 6659SOL     OW20875   0.819   3.526   4.003  0.0501 -0.0040 -0.3500
 6659SOL    HW120876   0.748   3.461   4.029  0.6709 -0.7088 -0.4034
 6659SOL    HW220877   0.850   3.575   4.085 -0.5136  0.3341 -0.3323
 6660SOL     OW20878   0.497   5.304   3.252 -0.5848  0.1743 -0.6519
 6660SOL    HW120879   0.528   5.368   3.181  0.1275  0.4111 -0.1416
 6660SOL    HW220880   0.411   5.337   3.291  0.2942  1.4185  0.3343
 6661SOL     OW20881   3.127   5.473   4.327  0.3216 -0.2536  0.0474
 6661SOL    HW120882   3.064   5.545   4.355  0.3569 -1.2043  2.9228
 6661SOL    HW220883   3.220   5.498   4.353  0.6452 -0.4437 -0.8787
 6662SOL     OW20884   2.697   6.545   4.097 -0.3154  0.3146  0.3728
 6662SOL    HW120885   2.626   6.514   4.034 -1.1288  1.1513  0.8538
 6662SOL    HW220886   2.782   6.495   4.078 -1.0765 -0.8738 -0.0551
 6663SOL     OW20887   1.268   3.401   6.188 -0.4734 -0.5189  1.1683
 6663SOL    HW120888   1.252   3.348   6.271 -3.6429 -0.1958  0.8834
 6663SOL    HW220889   1.313   3.344   6.120  1.8580 -0.8970  2.9013
 6664SOL     OW20890   2.122   5.986   1.774 -0.2764  0.7351  0.4433
 6664SOL    HW120891   2.104   6.040   1.856 -1.8647  1.0879 -0.1096
 6664SOL    HW220892   2.185   6.036   1.715  1.3834  0.2044  1.6896
 6665SOL     OW20893   2.074   4.946   5.223 -0.1801  0.1668 -0.0544
 6665SOL    HW120894   2.091   4.849   5.242 -1.0505  0.1861  0.8872
 6665SOL    HW220895   2.159   4.997   5.230  0.7987 -0.8529 -2.9288
 6666SOL     OW20896   5.394   5.881   4.176  0.1714  0.2739 -0.1746
 6666SOL    HW120897   5.477   5.936   4.164 -1.0080  2.0344 -0.7553
 6666SOL    HW220898   5.325   5.936   4.224 -1.5171 -0.2240 -1.9247
 6667SOL     OW20899   6.213   6.807   6.329 -0.0215  0.1485  0.4942
 6667SOL    HW120900   6.301   6.769   6.298 -0.5620 -0.1597 -0.7504
 6667SOL    HW220901   6.158   6.831   6.249 -1.5002 -0.6760  1.2282
 6668SOL     OW20902   6.535   5.098   1.755  0.6664 -0.2337 -0.3295
 6668SOL    HW120903   6.475   5.068   1.681 -0.5045  1.2560 -0.0307
 6668SOL    HW220904   6.550   5.196   1.747  2.2712 -0.4137  0.2044
 6669SOL     OW20905   2.031   1.467   2.380  0.2339 -0.3728 -0.1619
 6669SOL    HW120906   1.994   1.541   2.437  2.1556  0.4977  0.0219
 6669SOL    HW220907   2.108   1.424   2.428  0.0888 -1.5129 -0.9207
 6670SOL     OW20908   3.039   3.082   0.160 -0.1268 -0.1003 -0.1428
 6670SOL    HW120909   3.102   3.093   0.237  0.3677 -0.5751 -0.4730
 6670SOL    HW220910   2.945   3.078   0.194  0.0736 -0.1221  0.4190
 6671SOL     OW20911   5.677   6.006   0.591 -0.0969  0.0969  0.2990
 6671SOL    HW120912   5.706   6.009   0.495 -0.8031 -0.9648  0.0322
 6671SOL    HW220913   5.719   5.927   0.636  0.4648  0.7506  0.9667
 6672SOL     OW20914   1.668   4.133   0.903 -0.7202  0.1747  1.2378
 6672SOL    HW120915   1.748   4.075   0.918  0.3920  1.5291  0.7398
 6672SOL    HW220916   1.695   4.230   0.910 -2.1239  0.6764  0.1855
 6673SOL     OW20917   5.369   2.262   3.731 -0.2065 -0.0744 -0.3246
 6673SOL    HW120918   5.407   2.312   3.653 -0.2856  0.1201 -0.2395
 6673SOL    HW220919   5.443   2.216   3.780 -0.3156 -1.3820 -1.3365
 6674SOL     OW20920   6.072   3.634   0.403 -0.0033  0.4711  0.3138
 6674SOL    HW120921   6.146   3.691   0.367  0.1218 -1.6169 -3.2425
 6674SOL    HW220922   6.105   3.581   0.481  1.8410  0.6224 -0.3187
 6675SOL     OW20923   5.238   3.212   6.245  0.3891  0.2599  0.7503
 6675SOL    HW120924   5.249   3.136   6.309 -0.0293 -1.4933 -1.1599
 6675SOL    HW220925   5.293   3.195   6.163 -0.4607  1.5494 -0.1226
 6676SOL     OW20926   0.945   1.468   3.784  0.1047 -0.5528 -0.4632
 6676SOL    HW120927   0.974   1.543   3.724  0.7450  0.6877  1.3354
 6676SOL    HW220928   0.846   1.464   3.786  0.0702 -0.4365 -1.3784
 6677SOL     OW20929   1.231   1.861   0.083 -0.4775 -0.1550  0.8887
 6677SOL    HW120930   1.185   1.809   0.154  0.1155 -1.0866  0.6167
 6677SOL    HW220931   1.233   1.957   0.108 -2.1115 -0.1539  1.1341
 6678SOL     OW20932   0.872   5.661   1.030 -0.1694 -0.5027 -0.0819
 6678SOL    HW120933   0.891   5.564   1.040 -0.4895 -0.4388  1.2726
 6678SOL    HW220934   0.898   5.710   1.113 -1.8081  0.2701  0.0313
 6679SOL     OW20935   3.044   2.241   4.678 -0.1358  0.2972 -0.2972
 6679SOL    HW120936   3.013   2.183   4.753 -3.0321  0.2160 -1.4341
 6679SOL    HW220937   3.072   2.330   4.713 -2.6107  0.7048  0.8454
 6680SOL     OW20938   5.511   6.309   5.915 -0.4251 -0.1847  0.5820
 6680SOL    HW120939   5.414   6.300   5.940 -1.5762  2.2707 -2.3968
 6680SOL    HW220940   5.531   6.251   5.836  0.2401  0.1518  0.4955
 6681SOL     OW20941   2.932   5.212   6.972  0.0446 -0.4425 -0.0996
 6681SOL    HW120942   3.031   5.226   6.973 -0.1005  0.8296 -0.9560
 6681SOL    HW220943   2.904   5.178   6.882 -0.2192 -1.6387  0.4092
 6682SOL     OW20944   4.105   5.385   1.171  0.1143  0.0031 -0.2224
 6682SOL    HW120945   4.095   5.288   1.152  1.0500 -0.7702  2.7911
 6682SOL    HW220946   4.042   5.413   1.243  2.2434  0.7427  1.4582
 6683SOL     OW20947   5.568   1.848   0.061 -0.2350  0.0095 -0.5224
 6683SOL    HW120948   5.621   1.770   0.094  1.1142  0.7945 -0.7270
 6683SOL    HW220949   5.551   1.838  -0.037 -0.8072 -0.4371 -0.3764
 6684SOL     OW20950   3.250   4.553   0.263 -0.6759  0.5543 -0.2757
 6684SOL    HW120951   3.320   4.583   0.198 -0.6451  0.9673 -0.0509
 6684SOL    HW220952   3.280   4.468   0.307 -1.7596 -1.1286 -2.5781
 6685SOL     OW20953   4.204   3.087   1.659 -0.5351  0.5512 -0.3483
 6685SOL    HW120954   4.293   3.059   1.692 -0.6193  0.2626 -0.3630
 6685SOL    HW220955   4.214   3.135   1.572 -0.4471 -0.0159 -0.6534
 6686SOL     OW20956   6.311   6.122   5.322  0.5069  0.1268 -0.2051
 6686SOL    HW120957   6.238   6.055   5.339 -1.1143  1.5014 -1.4136
 6686SOL    HW220958   6.373   6.086   5.252 -1.0300  0.3261 -1.7188
 6687SOL     OW20959   6.291   2.638   0.961  0.1323 -0.3002 -0.2081
 6687SOL    HW120960   6.252   2.598   1.044  1.7910  0.4229  0.9957
 6687SOL    HW220961   6.370   2.694   0.986  0.7688 -0.1776 -2.3155
 6688SOL     OW20962   2.967   5.589   1.746 -0.0466  0.1172  0.5823
 6688SOL    HW120963   3.021   5.551   1.671  1.4737 -0.1694  1.7725
 6688SOL    HW220964   2.884   5.632   1.709  0.7593  0.1786 -1.2641
 6689SOL     OW20965   2.314   4.868   5.810 -0.4838 -0.8553 -0.1358
 6689SOL    HW120966   2.412   4.858   5.824 -0.1979  0.5777 -0.9496
 6689SOL    HW220967   2.271   4.778   5.814  1.1966 -1.8243 -2.0679
 6690SOL     OW20968   0.220   2.287   5.086  0.4768  0.1849 -0.3276
 6690SOL    HW120969   0.225   2.380   5.122  0.6858 -0.0196  0.1939
 6690SOL    HW220970   0.267   2.225   5.149  0.6283 -0.2257 -0.8329
 6691SOL     OW20971   1.260   0.980   2.424 -0.0556 -0.3951 -0.0433
 6691SOL    HW120972   1.357   1.006   2.423  0.6196 -2.6981 -0.4729
 6691SOL    HW220973   1.244   0.913   2.496 -1.2338 -0.4441 -0.3298
 6692SOL     OW20974   6.113   5.092   0.884  0.1068  0.6897 -0.1846
 6692SOL    HW120975   6.028   5.042   0.898  1.8672 -2.0457  1.6977
 6692SOL    HW220976   6.144   5.081   0.789 -0.2502 -0.6905 -0.1580
 6693SOL     OW20977   3.044   0.514   5.038  0.1954  0.3106  0.4170
 6693SOL    HW120978   3.086   0.425   5.017 -1.0945 -0.6486  1.6330
 6693SOL    HW220979   3.007   0.511   5.131 -0.8549  1.7460  0.0716
 6694SOL     OW20980   3.069   3.479   1.132  0.0574  0.7478 -0.2570
 6694SOL    HW120981   3.168   3.482   1.150 -0.0165 -1.2734  0.7713
 6694SOL    HW220982   3.028   3.407   1.187 -1.6503  0.0480 -2.3205
 6695SOL     OW20983   2.209   6.425   7.022 -0.2852 -0.0954 -0.4399
 6695SOL    HW120984   2.274   6.491   7.061 -0.4662 -0.7810  1.0824
 6695SOL    HW220985   2.256   6.367   6.956  0.0556  1.0240 -1.2133
 6696SOL     OW20986   3.467   3.257   4.455 -0.5743  0.6613 -0.1558
 6696SOL    HW120987   3.521   3.250   4.539 -0.6729 -3.8040 -0.2619
 6696SOL    HW220988   3.519   3.308   4.386  2.1290 -0.6412  0.7876
 6697SOL     OW20989   3.840   1.865   3.173  0.0508  0.0434 -0.0348
 6697SOL    HW120990   3.901   1.804   3.123  1.5220 -0.9647  2.7951
 6697SOL    HW220991   3.777   1.812   3.229  0.7227  1.0425  1.7625
 6698SOL     OW20992   3.144   4.150   1.760 -0.5942 -0.3569  0.3004
 6698SOL    HW120993   3.050   4.134   1.732 -0.2337 -2.3844  0.1135
 6698SOL    HW220994   3.190   4.062   1.775  0.6591  0.5814  2.4382
 6699SOL     OW20995   1.686   4.491   5.340 -0.0819 -0.8734  0.2315
 6699SOL    HW120996   1.663   4.458   5.248 -0.7150 -1.0570  0.4471
 6699SOL    HW220997   1.614   4.553   5.371  1.5145  1.5230 -0.5443
 6700SOL     OW20998   5.959   3.242   0.391  0.0001  0.0673 -0.3832
 6700SOL    HW120999   5.905   3.317   0.428  1.1201  0.7542 -0.0972
 6700SOL    HW221000   6.019   3.276   0.318 -0.7094 -0.8872 -1.4510
 6701SOL     OW21001   4.794   6.453   2.175  0.3501 -0.3900  0.7686
 6701SOL    HW121002   4.711   6.470   2.122  0.3775 -1.2614  0.4252
 6701SOL    HW221003   4.874   6.484   2.124  0.2899 -0.2112  0.7838
 6702SOL     OW21004   2.635   3.062   1.702  0.3530 -0.0701 -0.1647
 6702SOL    HW121005   2.620   2.994   1.630 -1.8182 -0.0008  0.1673
 6702SOL    HW221006   2.722   3.043   1.749  0.3819 -1.8597 -0.8920
 6703SOL     OW21007   1.405   1.208   0.349  0.1079  0.2899  0.1807
 6703SOL    HW121008   1.359   1.295   0.331 -0.3001 -0.1193 -0.8205
 6703SOL    HW221009   1.496   1.209   0.309 -0.5764 -0.3978 -1.4800
 6704SOL     OW21010   1.834   2.543   0.342 -0.5984 -0.0374  0.1575
 6704SOL    HW121011   1.859   2.631   0.301 -3.3732  0.6477 -0.2652
 6704SOL    HW221012   1.841   2.471   0.273  1.4664 -0.1843  0.4458
 6705SOL     OW21013   6.265   3.319   2.064 -0.0262 -0.3584  0.3173
 6705SOL    HW121014   6.191   3.382   2.086  1.2486  1.3033  0.0295
 6705SOL    HW221015   6.228   3.243   2.009 -1.3705  0.8925 -0.5963
 6706SOL     OW21016   6.631   6.046   3.202 -0.1869 -0.0486  0.8637
 6706SOL    HW121017   6.659   5.979   3.134 -2.2084 -0.4267  0.3361
 6706SOL    HW221018   6.640   6.007   3.293  0.2276 -0.4214  0.6647
 6707SOL     OW21019   5.611   0.185   2.688 -0.2984  0.1628 -0.5186
 6707SOL    HW121020   5.660   0.272   2.682  0.0218  0.2397  2.0453
 6707SOL    HW221021   5.519   0.200   2.722 -0.7399 -0.4034 -1.4010
 6708SOL     OW21022   6.564   2.059   0.675  0.3592  0.6096 -0.2864
 6708SOL    HW121023   6.605   2.139   0.631  0.1542  0.4134 -0.8359
 6708SOL    HW221024   6.476   2.086   0.715 -0.0581  0.4898 -1.1133
 6709SOL     OW21025   0.653   3.663   3.624 -0.5370 -0.0746  0.3515
 6709SOL    HW121026   0.661   3.741   3.562  0.0934 -0.5710 -0.2077
 6709SOL    HW221027   0.740   3.649   3.671 -0.6386 -0.4601  0.4254
 6710SOL     OW21028   3.363   0.315   0.753 -0.0947 -0.1002 -0.5413
 6710SOL    HW121029   3.384   0.238   0.692  0.0385  0.7067 -1.5293
 6710SOL    HW221030   3.309   0.383   0.704 -0.5651  0.2692  0.4466
 6711SOL     OW21031   3.288   5.490   6.946  0.4754 -0.3566  0.0847
 6711SOL    HW121032   3.378   5.483   6.989  0.3785 -1.8001  0.0836
 6711SOL    HW221033   3.294   5.459   6.851  0.2378  0.8221 -0.3368
 6712SOL     OW21034   6.109   5.315   1.109 -0.3878  0.3250  0.5874
 6712SOL    HW121035   6.191   5.364   1.079 -1.3321  1.6096 -0.0107
 6712SOL    HW221036   6.128   5.217   1.113  0.4189  0.2785 -2.2156
 6713SOL     OW21037   2.936   6.509   4.917 -0.0631  0.3069  0.1927
 6713SOL    HW121038   2.965   6.550   4.831 -1.7072 -0.0154 -0.5458
 6713SOL    HW221039   2.906   6.415   4.901  1.4713 -0.4515  1.4776
 6714SOL     OW21040   5.459   2.420   0.718 -0.4096 -0.2239  0.2217
 6714SOL    HW121041   5.483   2.330   0.679 -0.8399  0.3350 -1.4095
 6714SOL    HW221042   5.531   2.486   0.696 -1.2182  0.3791 -0.6993
 6715SOL     OW21043   2.881   1.177   1.747  0.7645  0.3684  0.0398
 6715SOL    HW121044   2.920   1.256   1.699  0.8020 -0.0704 -0.6746
 6715SOL    HW221045   2.947   1.142   1.813  0.5081  1.3140  0.8244
 6716SOL     OW21046   5.491   0.005   0.406  0.3429 -0.2840  0.1418
 6716SOL    HW121047   5.548   0.031   0.484  1.4922 -1.8064 -0.1504
 6716SOL    HW221048   5.546  -0.045   0.339 -1.1366 -1.0628 -0.5502
 6717SOL     OW21049   3.348   0.646   6.881  0.4091 -0.2714  0.0645
 6717SOL    HW121050   3.272   0.645   6.946 -0.3799  1.3223 -0.7948
 6717SOL    HW221051   3.417   0.712   6.910  1.6122 -1.8530  0.9481
 6718SOL     OW21052   3.926   0.298   2.221 -0.2863  0.1307 -0.2809
 6718SOL    HW121053   3.938   0.275   2.124  0.5629 -0.3490 -0.0744
 6718SOL    HW221054   4.016   0.307   2.264 -0.6611  0.3872  0.4541
 6719SOL     OW21055   0.469   6.910   5.324 -0.0471  0.0927  0.0859
 6719SOL    HW121056   0.379   6.941   5.292  0.3935  0.3512 -0.9396
 6719SOL    HW221057   0.501   6.970   5.397 -0.8336 -0.1817  0.6719
 6720SOL     OW21058   3.595   5.081   5.434 -0.4521  0.2951  0.5938
 6720SOL    HW121059   3.565   5.080   5.339  1.8410  0.3743 -0.1899
 6720SOL    HW221060   3.615   4.987   5.463  0.7103  0.4495  0.3344
 6721SOL     OW21061   1.030   3.361   0.123 -0.3354  0.8145  0.6926
 6721SOL    HW121062   1.102   3.398   0.065 -1.5839  0.3902 -1.2152
 6721SOL    HW221063   1.028   3.261   0.114 -2.2622  0.9295 -0.7168
 6722SOL     OW21064   6.383   3.171   6.538 -0.3349 -0.1203  0.1701
 6722SOL    HW121065   6.330   3.247   6.576 -1.4550  0.2950 -2.0181
 6722SOL    HW221066   6.439   3.205   6.462 -0.0397 -1.2871 -0.1562
 6723SOL     OW21067   2.521   2.080   6.091  0.7158 -0.2838  0.0097
 6723SOL    HW121068   2.549   2.119   6.179  2.3541 -0.3824 -0.4329
 6723SOL    HW221069   2.587   2.010   6.064 -0.6678 -1.4037 -0.5337
 6724SOL     OW21070   2.435   1.531   1.555  0.1773 -0.8692  0.1148
 6724SOL    HW121071   2.464   1.454   1.612  0.2206 -0.5495  0.5281
 6724SOL    HW221072   2.340   1.517   1.527 -0.1992 -0.5188  1.1503
 6725SOL     OW21073   6.454   1.859   3.553 -0.0054 -0.4800  0.2240
 6725SOL    HW121074   6.421   1.810   3.634  0.3526 -1.5961 -0.2841
 6725SOL    HW221075   6.463   1.957   3.574  0.4400 -0.8077  1.6362
 6726SOL     OW21076   5.796   6.457   4.255 -0.1092  0.5776  0.1532
 6726SOL    HW121077   5.853   6.514   4.314 -0.8825  0.8322  0.6867
 6726SOL    HW221078   5.750   6.514   4.187  0.9841  0.2474 -0.8855
 6727SOL     OW21079   6.324   5.874   5.542  0.2147  0.2541 -0.3463
 6727SOL    HW121080   6.237   5.872   5.494  0.1631  0.3083 -0.2550
 6727SOL    HW221081   6.309   5.900   5.637  0.4671  1.3988 -0.6149
 6728SOL     OW21082   3.495   1.181   4.702  0.2058 -0.0333  0.3842
 6728SOL    HW121083   3.587   1.178   4.741  0.9313 -0.1250 -1.2715
 6728SOL    HW221084   3.483   1.265   4.650 -0.6234 -0.0699  0.5001
 6729SOL     OW21085   3.734   1.793   1.833  0.6155  0.0042  0.1098
 6729SOL    HW121086   3.779   1.781   1.745 -2.1484  0.5046 -1.4768
 6729SOL    HW221087   3.710   1.889   1.845 -1.0431 -0.4208  0.3540
 6730SOL     OW21088   2.606   1.547   6.873 -0.0688 -0.2242  0.6912
 6730SOL    HW121089   2.634   1.635   6.912  0.9102 -0.7365  1.1861
 6730SOL    HW221090   2.520   1.558   6.824 -1.6246  0.3783  3.3762
 6731SOL     OW21091   1.659   6.538   6.971  0.6940 -0.7282  0.3644
 6731SOL    HW121092   1.711   6.501   6.894  0.4957 -2.5513  1.0672
 6731SOL    HW221093   1.571   6.491   6.978 -0.0433  0.6480  0.6566
 6732SOL     OW21094   5.544   3.810   2.200  0.6316  0.4605  0.1009
 6732SOL    HW121095   5.537   3.779   2.295  1.1792 -0.5077 -0.1630
 6732SOL    HW221096   5.640   3.825   2.177  0.4492  1.3697 -0.0968
 6733SOL     OW21097   4.838   5.778   6.437  0.1419 -0.6873  0.2085
 6733SOL    HW121098   4.918   5.823   6.477 -0.6522  0.2757  0.7541
 6733SOL    HW221099   4.755   5.820   6.472 -0.6188 -1.7212 -0.2989
 6734SOL     OW21100   5.725   1.403   4.512  0.1674  0.0505  0.0825
 6734SOL    HW121101   5.733   1.475   4.580 -0.9025 -0.1075  0.3818
 6734SOL    HW221102   5.716   1.314   4.558  0.7353 -0.2007 -0.2761
 6735SOL     OW21103   6.373   3.334   3.545 -0.0032 -0.0393 -0.6359
 6735SOL    HW121104   6.457   3.382   3.520 -1.1298  2.3877  0.0160
 6735SOL    HW221105   6.312   3.396   3.592 -2.2722 -1.7075 -1.2262
 6736SOL     OW21106   2.326   4.191   2.030 -0.3984 -0.2288  0.0908
 6736SOL    HW121107   2.286   4.197   2.122 -0.0356 -2.3946  0.4548
 6736SOL    HW221108   2.405   4.128   2.033  0.7033  1.0233 -1.3696
 6737SOL     OW21109   2.584   2.264   0.492  0.2498 -0.3906  0.5471
 6737SOL    HW121110   2.550   2.278   0.585  0.2699  0.5205  0.4238
 6737SOL    HW221111   2.680   2.291   0.487  0.2071 -0.2890  0.2283
 6738SOL     OW21112   2.486   5.643   3.108 -0.0896  0.1835 -0.1332
 6738SOL    HW121113   2.496   5.741   3.121  3.3833 -0.3125  2.0477
 6738SOL    HW221114   2.555   5.610   3.043  0.8387 -1.1739  1.4716
 6739SOL     OW21115   0.958   2.068   2.163  0.2029  0.3454  0.4029
 6739SOL    HW121116   0.987   2.024   2.248  0.1895  1.5060  1.0299
 6739SOL    HW221117   0.988   2.164   2.163 -0.0299  0.4365 -0.7857
 6740SOL     OW21118   0.300   6.435   4.241 -0.7320 -0.4556 -0.2618
 6740SOL    HW121119   0.284   6.387   4.155  2.4005  0.3876 -1.4826
 6740SOL    HW221120   0.294   6.534   4.225 -1.0633 -0.3023  0.7484
 6741SOL     OW21121   4.820   1.160   0.054  0.1678 -0.3761 -0.7203
 6741SOL    HW121122   4.851   1.254   0.040  2.4256 -1.1666 -1.3746
 6741SOL    HW221123   4.821   1.139   0.151  0.8814 -0.1051 -0.6636
 6742SOL     OW21124   5.303   5.183   3.387 -0.1961  0.0608 -0.1647
 6742SOL    HW121125   5.336   5.095   3.354  1.2720  0.1236  1.0205
 6742SOL    HW221126   5.313   5.187   3.487 -2.1576  0.8053  0.0521
 6743SOL     OW21127   3.576   3.862   0.161  0.0308 -0.0947  0.0905
 6743SOL    HW121128   3.538   3.928   0.096 -1.8686 -0.8997  0.3451
 6743SOL    HW221129   3.513   3.850   0.237  1.3578 -0.6072  1.1476
 6744SOL     OW21130   6.044   2.995   5.493  0.1582  0.0791  0.2155
 6744SOL    HW121131   6.128   3.048   5.505  1.3050 -1.4262 -0.8284
 6744SOL    HW221132   5.966   3.058   5.490  1.4278  1.7085 -0.7784
 6745SOL     OW21133   5.863   0.908   4.658  0.0633  0.1899 -0.3663
 6745SOL    HW121134   5.901   0.897   4.750  3.3661 -0.9520 -1.6943
 6745SOL    HW221135   5.775   0.861   4.651 -2.2082  3.3807  3.0788
 6746SOL     OW21136   3.524   1.611   3.088 -0.0387  0.5972 -0.5269
 6746SOL    HW121137   3.485   1.703   3.098 -0.7875  0.6117 -2.9870
 6746SOL    HW221138   3.472   1.560   3.020  1.3066 -1.1528 -0.3103
 6747SOL     OW21139   0.685   5.335   0.518 -0.1737 -0.7058  0.1281
 6747SOL    HW121140   0.598   5.375   0.490 -0.0487 -0.4616  0.0859
 6747SOL    HW221141   0.735   5.401   0.574  0.0303 -0.8063  0.0647
 6748SOL     OW21142   2.389   1.075   5.457 -0.1318  0.1901 -0.0925
 6748SOL    HW121143   2.422   1.080   5.363  1.9870 -0.6582  0.5484
 6748SOL    HW221144   2.450   1.128   5.516  1.0102 -2.5420  1.3626
 6749SOL     OW21145   5.835   5.066   7.014 -0.1911  0.0413  0.6219
 6749SOL    HW121146   5.889   4.986   7.039  0.7435 -0.3180 -2.1296
 6749SOL    HW221147   5.772   5.042   6.940 -0.5480  1.6347  0.3591
 6750SOL     OW21148   4.039   1.482   2.860 -0.3974 -0.1442 -0.2745
 6750SOL    HW121149   4.065   1.385   2.859  2.6781  0.5459  1.4894
 6750SOL    HW221150   4.025   1.513   2.766 -0.4715 -2.0520 -0.9354
 6751SOL     OW21151   5.594   0.707   2.081  0.1426 -0.3781 -0.3717
 6751SOL    HW121152   5.674   0.743   2.033  0.4847 -1.7292 -0.8387
 6751SOL    HW221153   5.525   0.780   2.089  1.2811  0.7142 -0.2181
 6752SOL     OW21154   2.908   0.136   3.179  0.2639  0.5452  0.2432
 6752SOL    HW121155   2.936   0.150   3.274 -0.4661  0.1811  0.5149
 6752SOL    HW221156   2.854   0.053   3.172  0.2465  0.6162 -0.4785
 6753SOL     OW21157   4.030   2.966   5.331  0.4013  0.0154 -0.7272
 6753SOL    HW121158   4.062   2.872   5.329  0.7643 -0.0928  3.0108
 6753SOL    HW221159   3.934   2.968   5.357  0.1232  0.6794 -1.7507
 6754SOL     OW21160   4.352   5.419   1.031  0.1929  0.1349 -0.1733
 6754SOL    HW121161   4.384   5.327   1.007  0.6969  0.1268  0.4902
 6754SOL    HW221162   4.262   5.412   1.076 -0.7786  0.1550 -2.0009
 6755SOL     OW21163   2.260   6.819   2.723  0.2103 -0.0791  0.2085
 6755SOL    HW121164   2.201   6.785   2.797  1.5390  1.0107  1.8656
 6755SOL    HW221165   2.356   6.816   2.753  0.9216 -0.8387 -2.0168
 6756SOL     OW21166   1.850   3.016   6.680  0.1948  0.3003 -0.2860
 6756SOL    HW121167   1.811   3.108   6.691 -1.1982 -0.2787 -0.1507
 6756SOL    HW221168   1.796   2.951   6.734  1.1223 -0.6195 -0.4365
 6757SOL     OW21169   2.021   2.074   0.262  0.2417  0.0526 -0.3056
 6757SOL    HW121170   2.025   2.076   0.362 -0.6930  0.5255 -0.2639
 6757SOL    HW221171   2.055   2.161   0.226 -0.1886  0.2031 -0.3577
 6758SOL     OW21172   0.239   1.777   0.599  0.3477  0.1044 -0.1370
 6758SOL    HW121173   0.166   1.795   0.533  0.9766 -0.3376 -0.9750
 6758SOL    HW221174   0.223   1.688   0.643 -0.1359  0.4535  0.4059
 6759SOL     OW21175   0.236   3.897   2.868 -0.0717  0.0371 -0.0434
 6759SOL    HW121176   0.301   3.942   2.806  1.6008 -1.6998  0.3795
 6759SOL    HW221177   0.255   3.924   2.962  0.1189 -0.5919  0.0982
 6760SOL     OW21178   5.760   2.301   3.987 -0.0264  0.1235 -0.0526
 6760SOL    HW121179   5.787   2.394   3.960 -1.1504  0.4504 -0.0889
 6760SOL    HW221180   5.783   2.287   4.084  2.4373 -0.4621 -0.6462
 6761SOL     OW21181   5.100   1.989   2.306 -0.2770  0.1124  0.3409
 6761SOL    HW121182   5.008   1.954   2.288 -0.4369  0.5756  0.2397
 6761SOL    HW221183   5.168   1.924   2.270 -0.5434 -0.5969  1.0756
 6762SOL     OW21184   6.803   3.866   4.311 -0.5330 -0.1935  0.1116
 6762SOL    HW121185   6.747   3.884   4.392 -0.0664  0.4228  0.3051
 6762SOL    HW221186   6.766   3.788   4.262 -1.2760 -0.0925  0.4996
 6763SOL     OW21187   4.425   6.800   4.996 -0.8083 -0.0721 -0.2662
 6763SOL    HW121188   4.384   6.847   5.074 -0.2052  0.4430 -0.2513
 6763SOL    HW221189   4.372   6.718   4.974 -0.7306 -0.4768  0.9819
 6764SOL     OW21190   1.397   5.749   1.163  0.2144  0.1991 -0.2636
 6764SOL    HW121191   1.355   5.833   1.197  1.0652  0.3865  0.3432
 6764SOL    HW221192   1.337   5.672   1.184 -0.0393  0.5146  0.1997
 6765SOL     OW21193   5.860   4.641   3.684  0.2037 -0.5444 -0.1222
 6765SOL    HW121194   5.806   4.701   3.744  1.2861  0.2784  0.0695
 6765SOL    HW221195   5.935   4.602   3.736  1.0492  0.0313 -0.8845
 6766SOL     OW21196   4.524   6.377   6.673 -0.3034  0.0348  0.3127
 6766SOL    HW121197   4.585   6.383   6.594 -0.5880  0.4363  0.1218
 6766SOL    HW221198   4.459   6.453   6.671  0.1348  0.4647  1.3036
 6767SOL     OW21199   2.257   1.880   0.386 -0.4057  0.0122 -0.3805
 6767SOL    HW121200   2.261   1.847   0.291  0.0736 -0.7655 -0.1042
 6767SOL    HW221201   2.238   1.803   0.447 -2.6004  0.7926  0.0104
 6768SOL     OW21202   1.385   1.721   1.201  0.0522  0.3175 -0.2943
 6768SOL    HW121203   1.399   1.734   1.103 -0.7642  0.9029 -0.3444
 6768SOL    HW221204   1.295   1.757   1.227 -0.7019 -1.7983  0.2745
 6769SOL     OW21205   4.162   1.637   0.731 -0.2295  0.4921 -0.1605
 6769SOL    HW121206   4.123   1.712   0.784 -0.2203  0.2391  0.2099
 6769SOL    HW221207   4.121   1.550   0.760  1.2094  0.1132  0.8657
 6770SOL     OW21208   0.525   2.195   2.368 -0.1423 -0.1850 -0.2416
 6770SOL    HW121209   0.581   2.216   2.448  0.5228 -1.5137 -0.3315
 6770SOL    HW221210   0.575   2.217   2.284  1.3459 -3.5831 -0.4025
 6771SOL     OW21211   4.958   2.659   2.230  0.5337 -0.4685 -0.2844
 6771SOL    HW121212   4.889   2.701   2.171  1.7374  0.3778 -1.1360
 6771SOL    HW221213   4.987   2.572   2.191  0.0777 -0.7506 -0.0069
 6772SOL     OW21214   3.133   6.828   2.998  0.1688  0.6672 -0.3847
 6772SOL    HW121215   3.046   6.808   3.043  0.4481  1.8417  0.7301
 6772SOL    HW221216   3.115   6.869   2.909 -0.4114  0.3440 -0.4263
 6773SOL     OW21217   5.871   3.579   0.699 -0.9821  0.2289  0.6569
 6773SOL    HW121218   5.951   3.620   0.742 -1.0333  0.8296  0.1969
 6773SOL    HW221219   5.810   3.652   0.666 -0.1155 -0.1398 -1.9974
 6774SOL     OW21220   6.501   3.047   6.835 -0.4437 -0.1751 -0.1564
 6774SOL    HW121221   6.413   3.065   6.879 -0.6456  1.7057 -1.2214
 6774SOL    HW221222   6.503   3.091   6.745  2.2676  1.4299  0.5856
 6775SOL     OW21223   2.870   4.673   1.192 -0.5989 -0.0140  0.2559
 6775SOL    HW121224   2.858   4.636   1.284  2.6643  2.5582  1.9357
 6775SOL    HW221225   2.799   4.740   1.173 -0.8856 -0.0277  1.2334
 6776SOL     OW21226   2.120   4.069   6.804  0.4754 -0.3883 -0.6235
 6776SOL    HW121227   2.073   4.061   6.891 -0.3514 -0.9321 -1.1147
 6776SOL    HW221228   2.121   4.165   6.775 -0.1914 -0.3569 -0.5398
 6777SOL     OW21229   3.910   4.932   5.088  0.4593  0.1449 -0.0909
 6777SOL    HW121230   3.991   4.875   5.075  0.5996  0.4711 -0.7107
 6777SOL    HW221231   3.863   4.943   5.001  0.6261  1.2471 -0.0611
 6778SOL     OW21232   0.452   4.042   2.762 -0.5789  0.2770 -0.3452
 6778SOL    HW121233   0.510   4.122   2.747 -0.7536  0.4207 -0.2697
 6778SOL    HW221234   0.503   3.971   2.810  0.1428 -0.3823 -2.0183
 6779SOL     OW21235   0.052   3.017   6.919 -0.1761 -0.1447  0.4223
 6779SOL    HW121236  -0.031   2.974   6.955  0.5381 -0.7846  1.3473
 6779SOL    HW221237   0.092   3.076   6.989 -1.3040  2.3581 -0.9275
 6780SOL     OW21238   3.157   0.108   2.078 -0.2109 -0.2159 -0.3178
 6780SOL    HW121239   3.195   0.019   2.051  0.4557  0.0900 -0.4151
 6780SOL    HW221240   3.058   0.099   2.092 -0.0677 -1.1018  0.2280
 6781SOL     OW21241   0.400   0.703   5.556 -0.3290 -0.3905  0.0174
 6781SOL    HW121242   0.479   0.643   5.562  0.1681  0.0659 -1.4625
 6781SOL    HW221243   0.349   0.683   5.473 -1.3118 -0.1326  0.5465
 6782SOL     OW21244   2.143   0.747   4.175  0.1117 -0.0640 -0.3423
 6782SOL    HW121245   2.066   0.718   4.232  0.4030  0.1868  0.1842
 6782SOL    HW221246   2.214   0.788   4.232  1.0820 -1.1951 -0.6775
 6783SOL     OW21247   6.879   0.531   6.643  0.2979  0.1682  0.3664
 6783SOL    HW121248   6.884   0.490   6.552  2.8571  1.4023 -0.1283
 6783SOL    HW221249   6.818   0.610   6.639  0.9285  0.6351 -0.4821
 6784SOL     OW21250   4.050   5.120   6.720 -0.0586 -0.5199  0.0419
 6784SOL    HW121251   3.999   5.077   6.645 -0.1165  0.8900 -0.7668
 6784SOL    HW221252   3.997   5.197   6.755 -0.0301 -1.1570  1.5649
 6785SOL     OW21253   5.274   5.749   0.893 -0.0243  0.0530 -0.4445
 6785SOL    HW121254   5.330   5.786   0.818  0.6970 -0.2280 -0.0631
 6785SOL    HW221255   5.227   5.667   0.862 -0.1886  0.2627 -0.7578
 6786SOL     OW21256   0.456   1.182   0.718  0.1801  0.3650  0.1507
 6786SOL    HW121257   0.443   1.121   0.639  1.0676  1.6135 -1.0199
 6786SOL    HW221258   0.433   1.134   0.802  1.7051 -1.8791 -0.6344
 6787SOL     OW21259   1.416   1.931   0.990 -0.2830 -0.4364  0.1709
 6787SOL    HW121260   1.363   2.003   1.034  0.0910 -0.4116  0.5944
 6787SOL    HW221261   1.512   1.960   0.982 -0.3681 -0.3910 -0.7736
 6788SOL     OW21262   2.012   3.555   1.438  0.6423 -0.4589 -0.0147
 6788SOL    HW121263   1.984   3.646   1.408 -0.7735 -0.8004  0.1822
 6788SOL    HW221264   2.028   3.556   1.537 -2.5960 -1.0717  0.6440
 6789SOL     OW21265   0.633   5.814   4.218 -0.0879 -0.0845  0.5318
 6789SOL    HW121266   0.686   5.873   4.279 -0.7405 -1.3084  2.3686
 6789SOL    HW221267   0.574   5.754   4.272 -2.9286  0.7635 -1.3809
 6790SOL     OW21268   0.396   3.225   1.279  0.0823 -0.6208  0.3594
 6790SOL    HW121269   0.493   3.248   1.276  0.4319 -1.7155  1.9790
 6790SOL    HW221270   0.348   3.294   1.334  0.4541 -1.5268  1.8861
 6791SOL     OW21271   3.044   2.274   1.458 -0.2601  0.4463  0.3791
 6791SOL    HW121272   3.033   2.176   1.476  0.5686  0.1247 -0.7773
 6791SOL    HW221273   3.082   2.318   1.540 -0.2132 -0.2732  0.7625
 6792SOL     OW21274   0.115   5.734   0.132 -0.3019  0.8676 -0.2536
 6792SOL    HW121275   0.059   5.677   0.072 -0.5115  0.3478  0.4224
 6792SOL    HW221276   0.211   5.726   0.104 -0.2557 -0.2824  0.1726
 6793SOL     OW21277   6.984   3.349   6.807 -0.2091 -0.1451  0.0919
 6793SOL    HW121278   7.001   3.251   6.815 -0.8278 -0.2303  0.4265
 6793SOL    HW221279   7.036   3.385   6.730 -0.6933 -0.9141 -0.6154
 6794SOL     OW21280   5.402   5.972   5.287 -0.0070  0.4465 -0.4503
 6794SOL    HW121281   5.414   5.926   5.375  2.0824  0.4728 -0.6849
 6794SOL    HW221282   5.327   5.929   5.237 -0.1610 -0.6276  0.6631
 6795SOL     OW21283   3.056   0.664   1.219  0.1177  0.3981  0.0583
 6795SOL    HW121284   3.058   0.633   1.314  2.4535 -1.7793 -0.5960
 6795SOL    HW221285   3.139   0.717   1.200  0.0643  0.1174 -0.9749
 6796SOL     OW21286   5.242   2.043   2.566 -0.2620  0.4477  0.3267
 6796SOL    HW121287   5.178   2.016   2.495  1.3205 -1.4926 -0.4585
 6796SOL    HW221288   5.327   2.075   2.524  1.1871 -1.9621  1.2422
 6797SOL     OW21289   4.206   3.041   1.112  0.6189  0.2366 -0.0998
 6797SOL    HW121290   4.137   2.971   1.095 -0.0512  0.5399  1.2820
 6797SOL    HW221291   4.275   3.038   1.039 -1.5205  0.7944 -2.3016
 6798SOL     OW21292   0.216   4.514   2.727 -0.1870 -0.2613  0.4258
 6798SOL    HW121293   0.173   4.604   2.724 -1.1644 -0.7378 -0.5920
 6798SOL    HW221294   0.159   4.452   2.780 -1.0920 -1.0426 -1.3908
 6799SOL     OW21295   5.014   0.707   5.628 -0.0130 -0.2133  0.2694
 6799SOL    HW121296   5.023   0.657   5.715  3.3176 -2.9131 -1.3681
 6799SOL    HW221297   4.989   0.643   5.556  2.0377  0.8675 -1.5209
 6800SOL     OW21298   1.533   4.101   0.393  0.2535 -0.5796 -0.2825
 6800SOL    HW121299   1.509   4.194   0.363 -0.1583 -1.6061 -3.5958
 6800SOL    HW221300   1.567   4.104   0.487  0.3302  2.9163 -0.2794
 6801SOL     OW21301   6.719   0.948   3.191 -0.5821 -0.0111 -0.4175
 6801SOL    HW121302   6.817   0.966   3.180 -0.4347 -0.2167  0.4626
 6801SOL    HW221303   6.684   0.904   3.109  0.2689 -0.7440 -0.4052
 6802SOL     OW21304   1.032   4.523   6.769 -0.2239  0.0055  0.3535
 6802SOL    HW121305   1.017   4.560   6.860  1.5108  0.2100  0.5858
 6802SOL    HW221306   1.037   4.423   6.773 -0.2404  0.0101  0.4698
 6803SOL     OW21307   4.789   4.209   0.830 -0.0524 -0.2837  0.0664
 6803SOL    HW121308   4.752   4.294   0.792  1.9022  1.7474  2.3608
 6803SOL    HW221309   4.717   4.159   0.877 -1.1612  0.2808 -0.9888
 6804SOL     OW21310   3.320   0.255   4.037  0.3914 -0.2016 -0.2237
 6804SOL    HW121311   3.387   0.327   4.054  0.7738 -0.2981 -1.2222
 6804SOL    HW221312   3.312   0.240   3.938  2.2761 -3.3355 -0.0293
 6805SOL     OW21313   6.068   6.991   4.846  0.4961  0.2545 -0.4366
 6805SOL    HW121314   6.128   6.928   4.798 -0.7521 -0.8045 -0.6375
 6805SOL    HW221315   6.056   6.961   4.941  0.6062  0.6848 -0.2840
 6806SOL     OW21316   6.390   0.890   2.328 -0.6590 -0.0590 -0.2129
 6806SOL    HW121317   6.325   0.927   2.262 -0.4210  0.6708 -0.0430
 6806SOL    HW221318   6.358   0.908   2.421 -1.4222 -1.8327 -0.1010
 6807SOL     OW21319   1.596   3.521   0.555  0.4399 -0.3453  0.1243
 6807SOL    HW121320   1.652   3.512   0.637  0.3392  1.3795  0.4090
 6807SOL    HW221321   1.598   3.615   0.523 -0.5070 -0.7342 -1.1662
 6808SOL     OW21322   6.003   3.517   6.448  0.0316  0.7521  0.7140
 6808SOL    HW121323   6.062   3.587   6.408 -0.4088 -0.0367 -1.4444
 6808SOL    HW221324   5.941   3.559   6.514  1.0802  2.0512  0.9011
 6809SOL     OW21325   3.316   3.542   1.240 -0.4255  0.3859 -0.1867
 6809SOL    HW121326   3.340   3.513   1.333 -0.6313  2.1103  0.4381
 6809SOL    HW221327   3.399   3.568   1.191 -0.2788 -0.8490 -0.6311
 6810SOL     OW21328   0.949   6.196   1.814  0.2127  0.1200  0.3386
 6810SOL    HW121329   0.941   6.283   1.765 -1.6046 -0.9067 -1.3583
 6810SOL    HW221330   0.874   6.188   1.880  1.2960  0.4707  1.6650
 6811SOL     OW21331   7.013   4.425   0.252  0.9310 -0.3685 -0.0942
 6811SOL    HW121332   7.045   4.345   0.303  0.4118 -0.5605 -0.0619
 6811SOL    HW221333   7.023   4.409   0.154 -0.2436 -0.9534 -0.1381
 6812SOL     OW21334   3.200   3.913   3.242 -0.7486 -0.6706 -0.0149
 6812SOL    HW121335   3.124   3.895   3.305 -1.1051  2.1068  0.4591
 6812SOL    HW221336   3.286   3.905   3.291 -0.7386 -2.8026 -0.2998
 6813SOL     OW21337   4.034   1.412   2.161 -0.2081 -0.1814 -0.4129
 6813SOL    HW121338   4.048   1.318   2.131  0.0998  0.5019 -2.6153
 6813SOL    HW221339   4.045   1.474   2.083  0.6875  1.7949  1.1841
 6814SOL     OW21340   2.411   3.656   1.642 -0.4296 -0.2918  0.0619
 6814SOL    HW121341   2.413   3.586   1.713 -0.3363  0.4775  0.8285
 6814SOL    HW221342   2.317   3.669   1.611 -0.5127 -0.4142  0.2612
 6815SOL     OW21343   2.945   6.105   6.978  0.0115 -0.1115 -0.1609
 6815SOL    HW121344   2.887   6.147   6.908 -0.4228  2.5846  1.6812
 6815SOL    HW221345   2.902   6.021   7.011 -0.1702 -1.0022 -2.4667
 6816SOL     OW21346   2.133   3.972   1.113 -0.1734 -0.2636  0.0450
 6816SOL    HW121347   2.036   3.982   1.136 -0.4079 -0.0354 -0.9569
 6816SOL    HW221348   2.182   3.930   1.189 -0.9252  0.2674  0.8336
 6817SOL     OW21349   5.571   0.685   5.104 -0.2600  0.0815  0.4552
 6817SOL    HW121350   5.575   0.779   5.070 -1.4571  1.0251  2.6590
 6817SOL    HW221351   5.482   0.645   5.081 -0.1874 -0.0924  0.4743
 6818SOL     OW21352   2.053   6.190   1.945 -0.1885 -0.0350  0.8978
 6818SOL    HW121353   1.974   6.174   2.004  0.4081 -1.3127  1.3796
 6818SOL    HW221354   2.136   6.191   2.000  0.5610 -2.8679 -0.0221
 6819SOL     OW21355   3.752   1.465   2.947 -0.2859  0.0610  0.3293
 6819SOL    HW121356   3.784   1.539   2.888  0.8517  0.1099  0.9855
 6819SOL    HW221357   3.681   1.500   3.008 -0.9827  0.1753 -0.5233
 6820SOL     OW21358   6.736   3.210   2.871  0.5150  1.2347 -0.1090
 6820SOL    HW121359   6.724   3.303   2.903 -1.0084  0.5134  1.6199
 6820SOL    HW221360   6.659   3.154   2.901  2.5410 -1.1384  1.1054
 6821SOL     OW21361   1.913   2.798   3.412 -0.1175  0.2447 -0.4890
 6821SOL    HW121362   1.960   2.720   3.372  0.7372  1.0356 -1.0655
 6821SOL    HW221363   1.941   2.809   3.507 -2.5711 -1.9770  0.6114
 6822SOL     OW21364   3.062   2.347   6.231  0.1387 -0.0185  0.0790
 6822SOL    HW121365   2.982   2.291   6.211  0.7777 -0.4912 -1.2377
 6822SOL    HW221366   3.044   2.442   6.203 -0.9659  0.5372  2.3702
 6823SOL     OW21367   3.757   3.622   2.637 -0.6318 -0.7002 -0.0852
 6823SOL    HW121368   3.680   3.636   2.575  0.3258  1.5903 -0.8541
 6823SOL    HW221369   3.837   3.592   2.584  0.4116  2.0166 -0.2232
 6824SOL     OW21370   5.635   3.993   0.528 -0.1384 -0.2262  0.8935
 6824SOL    HW121371   5.682   4.072   0.489 -1.0366  0.2798  0.8055
 6824SOL    HW221372   5.588   3.943   0.456 -3.3073  1.7272  1.4375
 6825SOL     OW21373   4.176   0.575   0.151  0.7499 -0.6807 -0.2126
 6825SOL    HW121374   4.190   0.674   0.148 -2.3006 -0.1582 -0.0814
 6825SOL    HW221375   4.194   0.535   0.061 -0.7494  0.4906 -1.0754
 6826SOL     OW21376   0.132   3.831   3.957  0.2440 -0.2075 -0.1152
 6826SOL    HW121377   0.075   3.819   4.038 -0.7544 -2.1511 -1.0392
 6826SOL    HW221378   0.211   3.770   3.962  0.7874  0.4723 -0.1213
 6827SOL     OW21379   5.260   6.040   6.437  0.0697 -0.1461  0.1405
 6827SOL    HW121380   5.310   6.093   6.506 -2.9723  1.6100  1.2116
 6827SOL    HW221381   5.305   6.051   6.349  0.5551  2.9883  0.6340
 6828SOL     OW21382   2.041   1.842   3.265  0.4381 -0.6385  0.0952
 6828SOL    HW121383   2.078   1.854   3.357  0.2329 -1.0185  0.2327
 6828SOL    HW221384   2.089   1.766   3.220  0.9043 -0.1144 -0.3129
 6829SOL     OW21385   5.229   0.137   3.653  0.2974 -0.1076  1.0879
 6829SOL    HW121386   5.208   0.235   3.648 -0.7909 -0.3714  0.1536
 6829SOL    HW221387   5.176   0.088   3.585  1.7592 -1.2212  0.7045
 6830SOL     OW21388   6.347   1.547   3.967 -0.5970  0.0328  0.5103
 6830SOL    HW121389   6.256   1.585   3.986 -0.9700 -0.9781  0.8646
 6830SOL    HW221390   6.337   1.468   3.907  0.0591 -0.0466  0.5046
 6831SOL     OW21391   0.566   0.027   5.871 -0.3813 -0.1225  0.3530
 6831SOL    HW121392   0.540  -0.065   5.900  1.5738 -0.7104  0.3306
 6831SOL    HW221393   0.640   0.061   5.928 -2.0090  2.0662  1.3032
 6832SOL     OW21394   2.770   3.383   0.163 -0.7377 -0.0165  0.1459
 6832SOL    HW121395   2.687   3.381   0.108 -1.8088  0.6087  1.6734
 6832SOL    HW221396   2.847   3.411   0.106 -1.5077 -0.8731 -1.3635
 6833SOL     OW21397   5.968   5.503   6.030  0.4388 -0.3875 -1.1912
 6833SOL    HW121398   5.955   5.535   6.124 -0.7673 -1.2552 -1.0381
 6833SOL    HW221399   6.061   5.469   6.019 -0.0935 -2.5451  0.4223
 6834SOL     OW21400   2.642   5.655   2.880  0.5398 -0.1987  0.3700
 6834SOL    HW121401   2.651   5.567   2.833 -0.3554 -0.4672  0.6760
 6834SOL    HW221402   2.599   5.722   2.820  0.9633 -0.0488  0.2324
 6835SOL     OW21403   4.481   0.771   6.606  0.0121  0.4549 -0.6502
 6835SOL    HW121404   4.447   0.865   6.595  0.5247  0.4763 -2.2888
 6835SOL    HW221405   4.530   0.743   6.524  0.8205 -0.8819  0.2392
 6836SOL     OW21406   3.422   0.041   1.051  0.1476  0.6064  0.0880
 6836SOL    HW121407   3.337   0.045   0.997  0.4005 -1.0673 -0.4982
 6836SOL    HW221408   3.417  -0.036   1.114  0.7255  1.2873  0.9786
 6837SOL     OW21409   2.819   2.779   0.992 -0.3330  0.2888 -0.0099
 6837SOL    HW121410   2.751   2.783   0.918 -1.1562  1.7085  0.7609
 6837SOL    HW221411   2.909   2.756   0.954 -1.1556 -1.3085 -1.0988
 6838SOL     OW21412   2.403   5.949   6.415 -0.0571 -0.2942 -0.2034
 6838SOL    HW121413   2.478   5.960   6.351 -0.2449  0.3935 -0.3113
 6838SOL    HW221414   2.343   5.875   6.385 -0.1719  0.0565 -0.8515
 6839SOL     OW21415   5.342   1.381   0.412 -0.0609  0.1334 -0.1823
 6839SOL    HW121416   5.260   1.332   0.442  0.8430 -2.3299 -1.4486
 6839SOL    HW221417   5.315   1.462   0.359 -1.6816 -0.4166 -0.2415
 6840SOL     OW21418   1.653   2.590   6.018  0.3796 -0.2504 -0.5476
 6840SOL    HW121419   1.740   2.568   5.974  0.3978  0.7056 -0.9994
 6840SOL    HW221420   1.578   2.553   5.963  0.5155 -2.5408  0.6851
 6841SOL     OW21421   7.014   2.653   5.959  0.2494  0.4532 -0.1954
 6841SOL    HW121422   7.104   2.609   5.964  0.3699  0.7709  0.7968
 6841SOL    HW221423   7.025   2.752   5.970 -0.3460  0.3412  1.7812
 6842SOL     OW21424   2.778   6.846   4.058 -0.4103  0.2142 -0.5248
 6842SOL    HW121425   2.742   6.938   4.078 -0.8152 -0.0417 -0.0446
 6842SOL    HW221426   2.718   6.778   4.099 -0.1885 -0.2746 -1.0065
 6843SOL     OW21427   4.507   0.371   0.002  0.1960  0.4927  0.7071
 6843SOL    HW121428   4.538   0.413  -0.082 -1.7495 -1.5274 -1.1586
 6843SOL    HW221429   4.408   0.356  -0.002  0.4980 -2.6613  1.8871
 6844SOL     OW21430   4.290   6.699   3.822  0.1920  0.4316  0.1109
 6844SOL    HW121431   4.193   6.674   3.831  0.8704 -2.6005  0.1256
 6844SOL    HW221432   4.298   6.781   3.766 -2.3741  0.9915  0.4023
 6845SOL     OW21433   5.696   3.418   3.360  0.1956  0.3244 -0.6653
 6845SOL    HW121434   5.710   3.319   3.362  1.6044  0.4874  1.3478
 6845SOL    HW221435   5.604   3.439   3.326 -1.8182 -1.9354  2.8010
 6846SOL     OW21436   2.047   3.625   6.646 -0.0384  1.0436 -0.1547
 6846SOL    HW121437   2.094   3.677   6.718  0.6130  2.3289 -1.4481
 6846SOL    HW221438   1.974   3.681   6.608 -0.5490  0.2732 -0.3165
 6847SOL     OW21439   6.017   3.693   5.584  0.0068  0.6567 -0.1120
 6847SOL    HW121440   6.113   3.676   5.604 -0.0542  1.0184  0.5127
 6847SOL    HW221441   6.007   3.722   5.489  0.0678 -3.1148 -1.4101
 6848SOL     OW21442   6.637   4.527   4.249  0.6562 -0.0569 -0.3640
 6848SOL    HW121443   6.581   4.609   4.245 -0.1093 -0.5498  0.0822
 6848SOL    HW221444   6.584   4.448   4.217  1.4196 -0.3639 -0.9167
 6849SOL     OW21445   3.988   6.703   6.252 -0.1628 -0.2252 -0.4003
 6849SOL    HW121446   4.062   6.757   6.211 -1.5001  0.1372 -2.5063
 6849SOL    HW221447   4.008   6.606   6.243  1.3305 -0.1582  1.6146
 6850SOL     OW21448   4.743   2.737   3.965  0.3702  0.8423  0.9018
 6850SOL    HW121449   4.776   2.679   3.891  1.0794  1.4134  0.7557
 6850SOL    HW221450   4.729   2.830   3.931 -3.2180  0.2863  0.4834
 6851SOL     OW21451   1.574   0.932   3.117 -0.1849 -0.0952 -0.7285
 6851SOL    HW121452   1.665   0.935   3.075  0.0531  0.3798 -0.1984
 6851SOL    HW221453   1.505   0.960   3.051  0.0841 -0.1982 -1.0547
 6852SOL     OW21454   2.774   5.235   2.603 -0.3113 -0.2926  0.4476
 6852SOL    HW121455   2.745   5.151   2.649 -0.2551 -0.2201  0.6162
 6852SOL    HW221456   2.727   5.244   2.515 -0.9340 -0.0824  0.7990
 6853SOL     OW21457   5.592   4.650   6.215 -0.0019  0.1827 -0.2871
 6853SOL    HW121458   5.556   4.703   6.292 -0.2729  1.3259 -1.1710
 6853SOL    HW221459   5.547   4.680   6.130  1.1824 -0.1757 -1.0587
 6854SOL     OW21460   4.199   6.370   4.434 -0.4371  0.0472  0.3227
 6854SOL    HW121461   4.109   6.326   4.436 -1.2041  1.5667  0.4810
 6854SOL    HW221462   4.188   6.469   4.431  1.2420  0.3040  1.1853
 6855SOL     OW21463   4.457   5.411   4.875  0.1716  0.2549  0.2607
 6855SOL    HW121464   4.462   5.338   4.942 -0.5712 -0.1152 -0.0787
 6855SOL    HW221465   4.419   5.493   4.917  1.0060  0.4619  0.6411
 6856SOL     OW21466   1.118   3.541   0.340  0.3810  0.9298 -0.3454
 6856SOL    HW121467   1.167   3.618   0.299 -2.0919  2.3141 -0.8988
 6856SOL    HW221468   1.061   3.497   0.270 -0.2490  0.2846  0.5548
 6857SOL     OW21469   1.129   3.906   5.408 -0.2301 -0.6484 -0.5905
 6857SOL    HW121470   1.112   3.847   5.329 -2.6881 -1.4130  0.4017
 6857SOL    HW221471   1.082   3.868   5.488 -1.2344  2.2102  0.2980
 6858SOL     OW21472   2.497   3.542   0.561 -0.4220  0.1732 -0.1546
 6858SOL    HW121473   2.478   3.628   0.609 -1.4558 -0.2649  0.2449
 6858SOL    HW221474   2.530   3.474   0.627 -2.5620 -0.6624  0.1272
 6859SOL     OW21475   2.621   2.210   3.908  0.4137 -0.3815  0.4626
 6859SOL    HW121476   2.555   2.282   3.887  0.9973 -0.0535 -0.3020
 6859SOL    HW221477   2.588   2.122   3.872  0.6498 -0.1149 -0.4175
 6860SOL     OW21478   1.121   4.851   1.582  0.0396 -0.5213  0.0314
 6860SOL    HW121479   1.141   4.812   1.492 -0.3150 -0.0449 -0.2556
 6860SOL    HW221480   1.161   4.943   1.589  2.8975 -1.7470  1.5359
 6861SOL     OW21481   6.053   5.160   5.402  0.1943 -0.1958 -0.1602
 6861SOL    HW121482   6.012   5.198   5.485  1.0192 -0.0718  0.2040
 6861SOL    HW221483   6.048   5.060   5.405 -0.8502 -0.1627 -0.5298
 6862SOL     OW21484   0.970   4.560   0.593  0.5186  0.1687 -0.1788
 6862SOL    HW121485   0.957   4.619   0.673 -0.1709 -0.4238  0.1591
 6862SOL    HW221486   0.884   4.515   0.570  0.5281  0.8676 -1.7036
 6863SOL     OW21487   6.983   6.961   5.252 -0.1651 -0.1604  0.1521
 6863SOL    HW121488   6.944   6.906   5.326 -0.3966 -0.3132 -0.0842
 6863SOL    HW221489   7.042   7.032   5.291  1.9749 -1.9618  0.4271
 6864SOL     OW21490   0.805   3.296   5.557 -0.1214  0.3383  0.0006
 6864SOL    HW121491   0.731   3.323   5.619  0.2117  1.0451  0.0987
 6864SOL    HW221492   0.839   3.206   5.584  0.4554  0.9042  1.2746
 6865SOL     OW21493   2.924   1.637   6.587  0.0829  0.2527  0.3621
 6865SOL    HW121494   2.896   1.719   6.638 -0.8421 -0.7732  1.5825
 6865SOL    HW221495   3.021   1.619   6.604 -0.5485 -1.0377  3.3323
 6866SOL     OW21496   6.407   3.397   1.832  0.2827  0.2410  0.0024
 6866SOL    HW121497   6.448   3.480   1.869 -0.2776  0.5146  0.0129
 6866SOL    HW221498   6.369   3.342   1.907 -0.4596  0.5813 -0.1275
 6867SOL     OW21499   0.853   4.842   2.175 -0.4846  0.5493  0.5235
 6867SOL    HW121500   0.796   4.853   2.093 -3.4501  0.3997  2.3869
 6867SOL    HW221501   0.904   4.926   2.191  1.0077  0.2237 -1.9677
 6868SOL     OW21502   1.426   5.912   5.667  0.0618 -0.4392 -0.4387
 6868SOL    HW121503   1.407   5.898   5.570  1.2377  0.0315 -0.7532
 6868SOL    HW221504   1.421   6.009   5.688  0.0109 -0.5203 -0.0708
 6869SOL     OW21505   3.307   1.832   5.904 -0.1340  0.4706 -0.0221
 6869SOL    HW121506   3.371   1.854   5.978  0.3334  0.8051 -0.5241
 6869SOL    HW221507   3.223   1.884   5.916 -0.4383 -0.1890  0.8054
 6870SOL     OW21508   0.340   3.626   6.598  0.3058  0.1880 -0.9712
 6870SOL    HW121509   0.397   3.705   6.622  2.8320 -1.6281 -0.6297
 6870SOL    HW221510   0.311   3.580   6.682  1.4115 -0.9357 -1.1828
 6871SOL     OW21511   6.275   4.617   1.631  0.4681  0.3223  0.1877
 6871SOL    HW121512   6.224   4.537   1.598 -0.3129  0.3426  1.2723
 6871SOL    HW221513   6.373   4.598   1.629  0.2696 -0.9463  1.0764
 6872SOL     OW21514   2.733   2.364   3.332 -0.0617  0.1956  0.0675
 6872SOL    HW121515   2.721   2.379   3.234  0.9573 -0.8244 -0.2450
 6872SOL    HW221516   2.668   2.295   3.364 -0.8429  1.0139  0.2607
 6873SOL     OW21517   0.176   2.646   3.678 -0.3428  0.1225 -0.2891
 6873SOL    HW121518   0.107   2.688   3.737  0.2841 -0.8900  1.2338
 6873SOL    HW221519   0.267   2.667   3.713  0.1656  1.3802 -2.2345
 6874SOL     OW21520   4.824   3.910   2.998  0.7432 -0.2939  0.2346
 6874SOL    HW121521   4.824   3.958   2.909  0.4378  1.1349  0.9669
 6874SOL    HW221522   4.749   3.945   3.054  0.2009 -2.0234  0.6453
 6875SOL     OW21523   1.038   3.516   1.172  0.2119 -0.2052  0.6997
 6875SOL    HW121524   0.970   3.522   1.099 -1.3331 -0.9549  1.9986
 6875SOL    HW221525   1.093   3.599   1.173  0.4190 -0.2602 -1.4118
 6876SOL     OW21526   3.336   6.594   4.886  0.8515 -0.6545 -0.2558
 6876SOL    HW121527   3.317   6.677   4.938 -2.9029 -1.3192 -0.3232
 6876SOL    HW221528   3.409   6.613   4.820  1.2350  2.0869  0.8088
 6877SOL     OW21529   3.032   4.798   1.938  0.3333 -0.0799  0.6214
 6877SOL    HW121530   2.960   4.731   1.958 -0.0124  0.8647  2.8819
 6877SOL    HW221531   3.072   4.778   1.849  0.9229 -3.8870  1.5711
 6878SOL     OW21532   2.249   6.443   3.064  0.2339  0.1812 -0.5155
 6878SOL    HW121533   2.271   6.354   3.103  1.3293 -0.0417 -1.5743
 6878SOL    HW221534   2.151   6.446   3.041  0.0231 -0.4416  0.2685
 6879SOL     OW21535   1.251   2.106   2.749  0.0695 -0.4132 -0.0440
 6879SOL    HW121536   1.333   2.123   2.803  0.3374  0.1197 -0.6012
 6879SOL    HW221537   1.197   2.033   2.792 -0.3849  0.8582  1.6288
 6880SOL     OW21538   2.300   6.120   5.698 -0.1334 -0.5233 -0.1799
 6880SOL    HW121539   2.368   6.049   5.712  2.0365  1.4185 -0.2393
 6880SOL    HW221540   2.276   6.124   5.601  0.7857 -0.2969 -0.4077
 6881SOL     OW21541   2.480   3.206   6.779 -0.2619  0.1546 -0.8106
 6881SOL    HW121542   2.457   3.292   6.734 -1.7524 -1.0958 -2.5975
 6881SOL    HW221543   2.420   3.193   6.858 -0.3930  0.5291 -0.8478
 6882SOL     OW21544   3.291   5.580   5.475 -0.4979 -0.4176  0.9822
 6882SOL    HW121545   3.212   5.537   5.432 -0.2188 -1.2089  1.2479
 6882SOL    HW221546   3.375   5.540   5.439  0.0484  3.0110 -2.2181
 6883SOL     OW21547   6.115   1.232   5.310  0.1992 -0.8138  0.0410
 6883SOL    HW121548   6.160   1.309   5.266  0.6117 -1.3883 -0.5691
 6883SOL    HW221549   6.183   1.180   5.363 -0.3375  0.0123  1.5924
 6884SOL     OW21550   0.964   3.582   4.256  0.0851 -0.1326  0.0782
 6884SOL    HW121551   0.989   3.672   4.219  0.5145 -0.3531 -0.1794
 6884SOL    HW221552   0.934   3.593   4.351  0.6652  0.2198  0.2337
 6885SOL     OW21553   5.600   3.383   4.629 -0.5937 -0.4178  0.2910
 6885SOL    HW121554   5.610   3.464   4.687 -0.3995 -0.3059  0.1016
 6885SOL    HW221555   5.689   3.341   4.615 -0.7679 -0.9808  0.8358
 6886SOL     OW21556   6.212   1.572   5.868  0.3656  0.6700 -0.2921
 6886SOL    HW121557   6.251   1.537   5.953 -0.3252  0.7252  0.0530
 6886SOL    HW221558   6.115   1.549   5.864  0.7249 -0.7935 -1.8345
 6887SOL     OW21559   3.226   5.433   5.197 -0.2005  0.2683 -0.4261
 6887SOL    HW121560   3.228   5.521   5.149 -1.0281 -0.3852 -1.7145
 6887SOL    HW221561   3.154   5.435   5.267 -1.6379 -0.0439 -1.8453
 6888SOL     OW21562   5.764   3.475   0.000  0.6592 -0.0623  0.2520
 6888SOL    HW121563   5.831   3.526   0.054  1.6847  1.2262 -2.1360
 6888SOL    HW221564   5.732   3.397   0.054  3.0055  0.0690  2.0144
 6889SOL     OW21565   1.049   2.967   0.271  0.2565  0.7151  0.5140
 6889SOL    HW121566   0.954   2.937   0.280  0.6713 -0.7671  0.3317
 6889SOL    HW221567   1.063   3.004   0.179  0.2658 -0.8166 -0.1402
 6890SOL     OW21568   4.534   4.495   2.209  0.4025  0.7590  0.3391
 6890SOL    HW121569   4.530   4.426   2.137  1.2029  0.4338  0.5928
 6890SOL    HW221570   4.446   4.542   2.215 -0.2935 -0.4910  0.4052
 6891SOL     OW21571   2.497   2.515   2.538  0.0481 -0.1341  0.2588
 6891SOL    HW121572   2.524   2.476   2.450 -1.9704 -0.4807 -0.2395
 6891SOL    HW221573   2.399   2.531   2.539  0.2383  1.1569  1.9695
 6892SOL     OW21574   3.498   2.146   2.827  0.4148  0.1381  0.6159
 6892SOL    HW121575   3.411   2.129   2.874  0.2119 -1.4995 -0.2597
 6892SOL    HW221576   3.574   2.138   2.891 -0.0582  2.1479  1.5197
 6893SOL     OW21577   5.677   4.016   0.202  0.2982  0.3491 -0.4232
 6893SOL    HW121578   5.680   4.095   0.262 -1.4797  0.2112 -0.1092
 6893SOL    HW221579   5.631   4.040   0.117 -1.4688 -0.6410  0.2087
 6894SOL     OW21580   5.765   4.812   0.444  0.2882 -0.4015  0.0135
 6894SOL    HW121581   5.845   4.762   0.414  0.3566  0.1606 -0.7560
 6894SOL    HW221582   5.793   4.887   0.505  0.6089  1.1058 -1.8696
 6895SOL     OW21583   1.888   6.929   0.014 -0.5380  0.0595  0.4179
 6895SOL    HW121584   1.903   6.831   0.026  1.2536  0.3249  0.6103
 6895SOL    HW221585   1.807   6.944  -0.043 -0.0872 -1.5679 -0.7076
 6896SOL     OW21586   3.216   1.539   4.767  0.5696  0.0907  0.2663
 6896SOL    HW121587   3.269   1.617   4.735  2.4046 -0.7868  1.0590
 6896SOL    HW221588   3.269   1.455   4.755 -1.1803 -1.0095 -0.1474
 6897SOL     OW21589   5.342   4.618   5.039  0.4664  0.0259  0.3593
 6897SOL    HW121590   5.279   4.634   5.115 -0.7781 -0.5845 -0.5055
 6897SOL    HW221591   5.380   4.526   5.047  0.0675 -0.1702  0.0837
 6898SOL     OW21592   3.283   2.384   1.100  0.6038  0.3148  0.0165
 6898SOL    HW121593   3.332   2.470   1.087  0.3758  0.9026  2.6051
 6898SOL    HW221594   3.197   2.402   1.148  1.3624 -1.4965  2.1971
 6899SOL     OW21595   3.986   5.959   2.602  0.0970 -0.2062  0.1459
 6899SOL    HW121596   4.038   5.887   2.555  0.1467  0.2629 -0.5379
 6899SOL    HW221597   4.018   5.968   2.696 -0.4034 -1.5758  0.4805
 6900SOL     OW21598   0.676   4.354   5.038 -0.5003 -0.5356  0.0281
 6900SOL    HW121599   0.630   4.428   4.989  0.1195  1.0710  1.7929
 6900SOL    HW221600   0.767   4.340   4.999 -0.0585  0.6503  0.5786
 6901SOL     OW21601   6.182   4.966   0.357  0.5363  0.1259  0.1100
 6901SOL    HW121602   6.129   5.033   0.305 -0.8239  0.4837  1.8410
 6901SOL    HW221603   6.219   4.897   0.295 -2.6126 -0.5971 -1.1497
 6902SOL     OW21604   5.482   6.855   5.471 -0.0342  0.2545 -0.0566
 6902SOL    HW121605   5.472   6.941   5.521  0.3713  1.0692 -1.3038
 6902SOL    HW221606   5.473   6.873   5.373  1.2127 -0.9323 -0.4197
 6903SOL     OW21607   0.939   4.563   6.498 -0.1666 -0.0027 -0.4356
 6903SOL    HW121608   0.992   4.576   6.582 -2.4990 -0.2987  1.1548
 6903SOL    HW221609   0.975   4.624   6.427  3.0371 -1.0416  0.1096
 6904SOL     OW21610   0.226   6.217   6.375 -0.5611 -0.3801 -0.1384
 6904SOL    HW121611   0.276   6.214   6.288 -1.0358 -1.4909 -0.3931
 6904SOL    HW221612   0.164   6.295   6.376  2.4117  2.1656  0.9079
 6905SOL     OW21613   5.099   5.615   0.007 -0.2443  0.5133  0.5304
 6905SOL    HW121614   5.128   5.571  -0.078 -0.5899  0.9754  0.1713
 6905SOL    HW221615   5.172   5.676   0.039  0.0311  0.0676  0.7599
 6906SOL     OW21616   2.758   1.137   5.043  0.0146 -0.4113  0.1693
 6906SOL    HW121617   2.749   1.077   5.123 -0.2716  1.1247  1.3304
 6906SOL    HW221618   2.809   1.219   5.069  1.6660 -0.7489 -1.7515
 6907SOL     OW21619   1.370   1.655   0.714 -0.0255 -0.1330  0.2466
 6907SOL    HW121620   1.331   1.743   0.743  0.3228  0.0881  0.0541
 6907SOL    HW221621   1.410   1.665   0.623  2.6763  0.3113  1.4065
 6908SOL     OW21622   3.511   2.981   6.823  0.5077  0.0483  0.1468
 6908SOL    HW121623   3.562   3.029   6.894 -1.1282  1.9001  0.1506
 6908SOL    HW221624   3.500   3.041   6.744  1.7124 -1.7334 -1.4632
 6909SOL     OW21625   5.467   4.483   1.149  0.4672  0.0823  0.1781
 6909SOL    HW121626   5.483   4.502   1.246  2.1895  3.6981 -0.6693
 6909SOL    HW221627   5.386   4.533   1.118  2.8510  3.4016 -1.2456
 6910SOL     OW21628   1.693   3.448   4.488 -0.2053  0.0230  0.2627
 6910SOL    HW121629   1.621   3.480   4.426  1.8589  1.4769 -1.5131
 6910SOL    HW221630   1.667   3.469   4.582 -1.8754  0.9273 -0.3512
 6911SOL     OW21631   2.776   5.594   6.079  0.1304 -0.2393 -0.1971
 6911SOL    HW121632   2.760   5.690   6.102 -2.8148 -0.3697 -1.4018
 6911SOL    HW221633   2.824   5.588   5.992  0.1674  0.1311 -0.2018
 6912SOL     OW21634   2.332   5.237   0.066  0.5360  0.0613  0.0354
 6912SOL    HW121635   2.384   5.200   0.143 -1.6062 -0.3038  1.4260
 6912SOL    HW221636   2.275   5.165   0.027  0.1443  0.7087 -0.6122
 6913SOL     OW21637   4.810   6.954   6.018  0.1951  0.0920  0.2763
 6913SOL    HW121638   4.900   6.928   5.984 -0.2318 -0.3490 -0.5549
 6913SOL    HW221639   4.747   6.963   5.941  0.3588  4.0047  0.4367
 6914SOL     OW21640   0.504   4.280   1.897 -0.1579 -0.3336  0.3346
 6914SOL    HW121641   0.521   4.291   1.799  0.2930 -1.3342  0.2857
 6914SOL    HW221642   0.512   4.368   1.943 -1.1552  0.2874 -0.6418
 6915SOL     OW21643   1.952   1.577   2.791 -0.0481  0.0633  0.2310
 6915SOL    HW121644   1.938   1.670   2.826 -1.8463 -0.2096  0.3167
 6915SOL    HW221645   2.028   1.534   2.840  1.6480  1.8873 -0.6576
 6916SOL     OW21646   4.838   1.834   6.839  0.6897 -0.3251  0.4009
 6916SOL    HW121647   4.937   1.824   6.823  0.7626  0.7243  0.1347
 6916SOL    HW221648   4.790   1.835   6.751  0.4450 -0.7089  0.5261
 6917SOL     OW21649   4.883   5.881   0.587  0.6493 -0.3229 -0.0683
 6917SOL    HW121650   4.853   5.853   0.678 -0.9975  2.7136  0.4576
 6917SOL    HW221651   4.835   5.827   0.518 -0.6480 -0.4034  0.8618
 6918SOL     OW21652   0.612   3.028   2.925  0.4345  0.6048 -0.2061
 6918SOL    HW121653   0.575   2.951   2.977  0.2459  0.5381 -0.4388
 6918SOL    HW221654   0.627   3.000   2.830  1.5855  0.4698  0.0036
 6919SOL     OW21655   6.542   0.429   3.105 -0.2851  0.1564 -0.5717
 6919SOL    HW121656   6.587   0.339   3.103 -0.9500 -0.2302  0.8513
 6919SOL    HW221657   6.588   0.488   3.170 -0.2119  0.6616 -1.0756
 6920SOL     OW21658   4.892   0.408   6.037 -0.1342 -0.1567  0.1898
 6920SOL    HW121659   4.843   0.321   6.041  0.5459 -0.5745 -0.3369
 6920SOL    HW221660   4.955   0.415   6.114 -0.4884  0.0639  0.4655
 6921SOL     OW21661   5.437   1.215   3.584  0.7565  0.8149  0.4824
 6921SOL    HW121662   5.523   1.265   3.588  1.1661  0.3395 -1.4696
 6921SOL    HW221663   5.449   1.131   3.532 -1.2202  1.5418 -1.2990
 6922SOL     OW21664   3.412   5.466   3.704  0.2648 -0.3704 -0.0570
 6922SOL    HW121665   3.396   5.441   3.799 -1.0610  1.0551  0.1348
 6922SOL    HW221666   3.325   5.484   3.659  0.9783  0.9449 -0.9786
 6923SOL     OW21667   4.583   6.054   2.917 -0.3355  0.2558 -0.1501
 6923SOL    HW121668   4.673   6.087   2.943 -0.4739  1.7641 -1.4549
 6923SOL    HW221669   4.593   5.972   2.860  0.0976 -0.7152  1.2716
 6924SOL     OW21670   1.320   6.138   6.819  0.1496  0.1171  0.1550
 6924SOL    HW121671   1.334   6.075   6.896 -0.3833  0.4393  0.5166
 6924SOL    HW221672   1.224   6.139   6.793  0.0172  1.3486  0.6470
 6925SOL     OW21673   4.990   6.635   6.223 -0.1338 -0.4545  0.0383
 6925SOL    HW121674   4.961   6.664   6.315  0.3154 -1.4519  0.5117
 6925SOL    HW221675   4.930   6.563   6.190  0.5674 -1.1330  0.1901
 6926SOL     OW21676   1.301   2.688   2.117 -0.2196 -0.2853 -0.9132
 6926SOL    HW121677   1.369   2.740   2.066  2.3836 -1.2705  1.2856
 6926SOL    HW221678   1.300   2.720   2.212 -4.3725  1.0203 -1.1901
 6927SOL     OW21679   4.686   0.238   0.151 -0.1948  0.8529  0.4486
 6927SOL    HW121680   4.777   0.279   0.159  3.1274 -4.9309 -1.6919
 6927SOL    HW221681   4.640   0.276   0.070  0.6757  3.1253  0.9302
 6928SOL     OW21682   5.962   3.393   1.883 -0.4921  0.2657  0.3972
 6928SOL    HW121683   6.014   3.463   1.932 -0.6572  2.1713 -1.9453
 6928SOL    HW221684   5.901   3.437   1.816  0.5385 -2.1030 -2.3271
 6929SOL     OW21685   6.236   5.552   2.265  0.1637 -0.3651 -0.0530
 6929SOL    HW121686   6.250   5.458   2.295  0.7930 -0.9587 -2.0711
 6929SOL    HW221687   6.165   5.595   2.321  0.0150 -1.9620  1.0279
 6930SOL     OW21688   0.588   0.856   0.106 -0.0802 -0.6075  0.3543
 6930SOL    HW121689   0.578   0.885   0.011 -0.5986 -0.9216  0.3130
 6930SOL    HW221690   0.639   0.771   0.110 -1.9001 -1.7630  0.1806
 6931SOL     OW21691   3.323   2.867   1.805 -0.2966 -0.9014 -0.4022
 6931SOL    HW121692   3.310   2.799   1.733  0.1099 -1.6628  0.2178
 6931SOL    HW221693   3.410   2.849   1.852  1.4765  1.9447 -2.2434
 6932SOL     OW21694   5.641   5.501   0.287  0.0571  0.0457  0.7109
 6932SOL    HW121695   5.546   5.500   0.255 -0.2224  0.6467  1.4879
 6932SOL    HW221696   5.656   5.425   0.350  0.4797 -0.8606 -0.4465
 6933SOL     OW21697   2.249   4.833   6.753  0.1131  0.0430 -0.2342
 6933SOL    HW121698   2.228   4.927   6.781  0.9414 -0.0346  0.7138
 6933SOL    HW221699   2.348   4.823   6.743 -0.0760 -0.3107 -1.9313
 6934SOL     OW21700   3.714   3.871   5.966  0.0086 -0.0421  0.2904
 6934SOL    HW121701   3.737   3.962   5.933 -0.9519  0.2349  0.3667
 6934SOL    HW221702   3.797   3.815   5.969  0.2940  0.1935 -1.7236
 6935SOL     OW21703   4.029   5.112   1.098  0.8202 -0.1663 -0.7005
 6935SOL    HW121704   4.002   5.072   1.186  1.0933  0.9758 -0.0839
 6935SOL    HW221705   3.965   5.081   1.027 -1.2163  1.2182  0.4234
 6936SOL     OW21706   0.768   2.304   3.024 -0.1341  0.4576  0.2564
 6936SOL    HW121707   0.802   2.376   2.963  0.5637 -0.1225 -0.0676
 6936SOL    HW221708   0.827   2.224   3.016 -1.8854 -0.8075 -0.7280
 6937SOL     OW21709   5.274   6.804   0.898  0.0167 -0.0343  0.2823
 6937SOL    HW121710   5.331   6.761   0.967  1.7331  0.2887 -0.8666
 6937SOL    HW221711   5.240   6.892   0.931  0.4963 -0.0584  0.8369
 6938SOL     OW21712   6.524   1.190   4.524  0.5620 -0.5503 -0.9535
 6938SOL    HW121713   6.544   1.168   4.620 -0.0470 -1.2176 -0.9776
 6938SOL    HW221714   6.600   1.160   4.467  0.7314 -0.5488 -0.7334
 6939SOL     OW21715   0.002   4.253   2.301  0.0246 -0.2059 -0.5342
 6939SOL    HW121716  -0.080   4.198   2.317  0.1638 -0.8074 -1.7653
 6939SOL    HW221717  -0.025   4.348   2.281 -0.3848 -0.4084 -0.9797
 6940SOL     OW21718   5.275   0.255   6.749  0.1544  0.3756  0.4369
 6940SOL    HW121719   5.352   0.210   6.795  1.6709  0.8510 -1.4920
 6940SOL    HW221720   5.259   0.211   6.661 -1.5621  0.5461  0.6435
 6941SOL     OW21721   3.202   3.490   2.462  0.6026 -0.1214  0.1009
 6941SOL    HW121722   3.108   3.459   2.451 -0.0174  2.3259 -2.7277
 6941SOL    HW221723   3.261   3.438   2.400  0.8459 -0.5186  0.6580
 6942SOL     OW21724   2.131   6.969   2.538 -0.2992 -0.3045 -0.1218
 6942SOL    HW121725   2.066   7.031   2.582 -1.7449 -2.4688  0.9565
 6942SOL    HW221726   2.195   6.933   2.606  0.4922 -0.0498 -0.7202
 6943SOL     OW21727   3.171   4.192   0.416  0.0352 -0.0927 -0.2048
 6943SOL    HW121728   3.252   4.250   0.405  1.3854 -2.2855 -3.3621
 6943SOL    HW221729   3.192   4.119   0.481  0.3930 -0.2446 -0.4813
 6944SOL     OW21730   0.485   4.380   1.618 -0.6285 -0.0237 -0.5675
 6944SOL    HW121731   0.415   4.402   1.551  0.0908  2.0742 -0.7057
 6944SOL    HW221732   0.575   4.381   1.574 -0.1933  0.8745  0.3103
 6945SOL     OW21733   6.363   2.179   0.806  0.7363 -0.8373  0.0928
 6945SOL    HW121734   6.373   2.278   0.795 -0.0668 -0.8333 -0.7452
 6945SOL    HW221735   6.271   2.152   0.777  0.2623 -1.5722  2.1581
 6946SOL     OW21736   2.575   6.853   4.611 -0.1437 -0.0929 -0.2397
 6946SOL    HW121737   2.500   6.912   4.640 -0.8404 -1.9560  2.1113
 6946SOL    HW221738   2.539   6.777   4.557  0.6453  1.1168 -2.5824
 6947SOL     OW21739   4.310   4.673   0.506 -0.0266 -0.1033 -0.4737
 6947SOL    HW121740   4.330   4.577   0.487 -0.5061 -0.0788 -1.1556
 6947SOL    HW221741   4.395   4.722   0.525  0.2004 -0.7042  0.0964
 6948SOL     OW21742   0.187   6.599   3.268  0.6826 -0.3970  0.0601
 6948SOL    HW121743   0.128   6.642   3.200  0.0319  0.3225  1.0651
 6948SOL    HW221744   0.132   6.563   3.343  1.3516 -1.6317 -0.0050
 6949SOL     OW21745   2.367   2.572   3.715 -0.3105 -0.0895 -0.4793
 6949SOL    HW121746   2.422   2.569   3.632 -0.1960  0.8537 -0.4432
 6949SOL    HW221747   2.338   2.666   3.733 -1.4433 -0.4815 -0.1739
 6950SOL     OW21748   3.982   6.985   5.761  0.0852  0.2419  0.1121
 6950SOL    HW121749   3.910   7.020   5.821  1.9117  0.2606  2.4434
 6950SOL    HW221750   3.951   6.900   5.718 -1.6264  0.7091  0.3432
 6951SOL     OW21751   6.433   5.516   5.490  0.0870  0.8901  0.4618
 6951SOL    HW121752   6.444   5.604   5.443 -0.3370 -0.5944 -2.6647
 6951SOL    HW221753   6.512   5.499   5.549  1.8156  1.9356 -1.4208
 6952SOL     OW21754   1.711   0.385   2.422 -0.3791 -0.5104  0.3492
 6952SOL    HW121755   1.778   0.325   2.465  1.5244  2.5561  2.0478
 6952SOL    HW221756   1.632   0.397   2.482 -0.1075 -0.2642  0.6622
 6953SOL     OW21757   3.944   6.255   1.084 -0.2426  0.1123 -0.0603
 6953SOL    HW121758   3.928   6.353   1.072 -0.4194  0.0349 -0.5019
 6953SOL    HW221759   3.894   6.205   1.013  1.5755 -0.1807 -1.1980
 6954SOL     OW21760   1.641   4.392   7.013  0.0449 -0.1030 -0.3462
 6954SOL    HW121761   1.637   4.353   6.921 -0.0746 -0.5833 -0.1406
 6954SOL    HW221762   1.679   4.485   7.008  1.9187 -0.8290 -0.6643
 6955SOL     OW21763   4.268   6.623   2.979  0.1118 -0.2934 -0.1557
 6955SOL    HW121764   4.289   6.622   2.882 -1.8646  2.5990 -0.7616
 6955SOL    HW221765   4.271   6.530   3.016  3.8124 -1.1636 -2.2128
 6956SOL     OW21766   5.679   6.755   6.977  0.1066  0.2505 -0.0475
 6956SOL    HW121767   5.674   6.848   6.941 -0.9242  0.0834 -0.3752
 6956SOL    HW221768   5.608   6.699   6.935 -0.8115 -0.0924  1.8256
 6957SOL     OW21769   5.528   4.827   6.403 -0.2911 -0.1861  0.5139
 6957SOL    HW121770   5.562   4.759   6.468  2.9274  0.0568 -0.7110
 6957SOL    HW221771   5.534   4.918   6.445  2.7094  0.0873 -0.2535
 6958SOL     OW21772   3.022   3.524   3.374 -0.7034 -0.4164 -0.1282
 6958SOL    HW121773   3.017   3.558   3.468 -0.4909 -0.2298 -0.1834
 6958SOL    HW221774   3.087   3.448   3.369  0.0015  0.1868 -0.3018
 6959SOL     OW21775   6.900   2.659   4.484 -0.0692 -1.1622 -0.3470
 6959SOL    HW121776   6.829   2.591   4.504 -0.8001  0.0750  1.5724
 6959SOL    HW221777   6.895   2.733   4.552  0.6850  0.8391 -2.3482
 6960SOL     OW21778   2.395   4.332   1.815  0.2131 -0.0865 -0.2393
 6960SOL    HW121779   2.364   4.287   1.899  1.1205  0.0217  0.1708
 6960SOL    HW221780   2.432   4.264   1.752  0.3242 -0.0708 -0.1913
 6961SOL     OW21781   1.780   3.498   5.950 -0.4365  0.0537  0.2120
 6961SOL    HW121782   1.794   3.432   6.023 -0.2974 -1.0898 -0.8045
 6961SOL    HW221783   1.857   3.492   5.886 -1.3283 -0.1367 -0.8768
 6962SOL     OW21784   0.342   0.231   6.468 -0.2146  0.9551 -0.3670
 6962SOL    HW121785   0.305   0.194   6.383 -0.6867 -1.3381  0.7596
 6962SOL    HW221786   0.276   0.217   6.541  1.7916 -0.9752  1.2106
 6963SOL     OW21787   3.666   5.294   0.850 -0.1272  0.3875 -0.2021
 6963SOL    HW121788   3.740   5.228   0.834 -0.1212  0.4497 -0.4450
 6963SOL    HW221789   3.703   5.387   0.847  0.4186  0.3841  2.9846
 6964SOL     OW21790   1.101   0.024   6.300 -0.4411 -0.1544 -0.4029
 6964SOL    HW121791   1.055   0.015   6.388 -0.1061  1.0976 -0.0878
 6964SOL    HW221792   1.200   0.030   6.315 -0.3603 -0.2080 -0.8913
 6965SOL     OW21793   0.923   3.643   0.526 -0.1079 -0.1977  0.0775
 6965SOL    HW121794   0.982   3.590   0.464 -0.6745  1.1966 -1.7424
 6965SOL    HW221795   0.881   3.582   0.593  2.1627 -1.4541  0.4395
 6966SOL     OW21796   1.374   6.230   2.734  0.3657  0.3418  0.3833
 6966SOL    HW121797   1.396   6.313   2.683  1.6759  0.6627  1.4236
 6966SOL    HW221798   1.352   6.254   2.828 -1.6134 -0.2865  0.1411
 6967SOL     OW21799   4.530   2.021   5.427 -0.0700 -1.1035  0.1350
 6967SOL    HW121800   4.497   1.928   5.411  1.6796 -1.8210  0.4285
 6967SOL    HW221801   4.492   2.057   5.512 -1.9707 -0.9243 -0.7531
 6968SOL     OW21802   2.499   6.479   3.307 -0.6841 -0.8790 -0.0547
 6968SOL    HW121803   2.593   6.497   3.334 -0.8247  0.3997 -0.3614
 6968SOL    HW221804   2.440   6.479   3.388 -0.5745 -0.6746  0.0247
 6969SOL     OW21805   3.538   1.808   2.727 -0.4162 -0.7698 -0.7817
 6969SOL    HW121806   3.476   1.745   2.774  2.0515 -1.3316  1.9691
 6969SOL    HW221807   3.524   1.900   2.762  1.4377 -1.1917  1.2544
 6970SOL     OW21808   2.941   6.417   5.949  0.0196  0.0830 -0.4114
 6970SOL    HW121809   2.979   6.325   5.949 -0.7981 -0.3406  2.3541
 6970SOL    HW221810   2.841   6.412   5.950 -0.0385  1.0058 -0.6675
 6971SOL     OW21811   4.091   3.613   6.648 -0.0741 -0.0058 -0.3522
 6971SOL    HW121812   4.160   3.576   6.586 -1.1354 -0.1028 -1.5007
 6971SOL    HW221813   4.059   3.540   6.709 -0.1762 -0.3039 -0.7622
 6972SOL     OW21814   5.167   3.896   4.502  0.9146  0.5928 -0.3905
 6972SOL    HW121815   5.179   3.800   4.527  0.8350  1.0210  1.4417
 6972SOL    HW221816   5.071   3.922   4.515  0.9607  0.9544 -0.7607
 6973SOL     OW21817   2.174   0.638   1.636 -0.1034 -0.0584  0.2904
 6973SOL    HW121818   2.105   0.682   1.693 -1.6131 -1.0140 -0.7308
 6973SOL    HW221819   2.144   0.638   1.540  1.0108 -1.0679 -0.0875
 6974SOL     OW21820   3.053   3.188   3.110  0.4039 -0.1594 -0.2815
 6974SOL    HW121821   3.133   3.248   3.110 -0.8609  1.6416  0.6521
 6974SOL    HW221822   2.999   3.205   3.028 -1.9044  2.9509  1.6212
 6975SOL     OW21823   0.986   6.253   5.940  0.2274 -0.4035  0.2749
 6975SOL    HW121824   0.896   6.208   5.946  1.3008 -2.7339 -0.0615
 6975SOL    HW221825   1.039   6.231   6.022  0.7231  0.4475  0.1821
 6976SOL     OW21826   5.596   3.021   6.010  0.3198  0.3020  0.7261
 6976SOL    HW121827   5.603   2.925   6.040 -1.8864  0.2523  1.2725
 6976SOL    HW221828   5.504   3.037   5.974  2.0499  0.9637 -4.1114
 6977SOL     OW21829   4.777   4.167   2.137 -0.1423 -0.5488  0.1495
 6977SOL    HW121830   4.694   4.216   2.112 -0.3051 -1.3479 -0.9460
 6977SOL    HW221831   4.767   4.070   2.114  1.7157 -0.3858 -1.5986
 6978SOL     OW21832   5.164   4.550   0.796  0.0519 -0.5866 -0.2425
 6978SOL    HW121833   5.228   4.475   0.813 -0.2169 -0.6464  0.5585
 6978SOL    HW221834   5.071   4.514   0.793 -0.1907 -0.1596  1.2707
 6979SOL     OW21835   1.652   3.914   1.748  0.0591  0.3955 -0.4316
 6979SOL    HW121836   1.638   3.859   1.665 -1.4455 -2.3964  1.4899
 6979SOL    HW221837   1.618   4.007   1.733 -0.9345 -0.2599 -2.6823
 6980SOL     OW21838   3.212   0.934   3.480  0.0280 -0.0508  0.4509
 6980SOL    HW121839   3.248   0.915   3.389  0.2153  0.7464  0.3523
 6980SOL    HW221840   3.284   0.920   3.548  0.5041  1.3685  0.2709
 6981SOL     OW21841   2.943   2.951   6.574  0.4303 -0.1408  0.0918
 6981SOL    HW121842   2.847   2.928   6.594 -0.3153  1.0568 -1.7984
 6981SOL    HW221843   2.962   3.044   6.606  0.0757  0.6877 -1.9704
 6982SOL     OW21844   0.650   2.600   4.966  0.2127 -0.2278 -0.4474
 6982SOL    HW121845   0.724   2.650   4.920 -1.9699  3.2697 -0.5902
 6982SOL    HW221846   0.604   2.542   4.900 -0.2364  1.4670 -1.6942
 6983SOL     OW21847   5.288   0.509   6.323 -0.3918  0.1368 -0.3141
 6983SOL    HW121848   5.261   0.561   6.242  2.5362  2.1156 -0.1996
 6983SOL    HW221849   5.292   0.570   6.402  2.3807 -0.3042  0.0019
 6984SOL     OW21850   0.264   2.283   2.391  0.1427 -0.4797  0.0977
 6984SOL    HW121851   0.363   2.293   2.377 -0.2149  3.5650 -0.5583
 6984SOL    HW221852   0.222   2.249   2.306  0.6165  1.3166 -0.8954
 6985SOL     OW21853   0.025   4.301   7.010  0.2140 -0.5862  0.2759
 6985SOL    HW121854  -0.049   4.355   6.970  1.8842  1.0431 -0.7804
 6985SOL    HW221855   0.100   4.294   6.945  0.6595 -3.0475  0.9390
 6986SOL     OW21856   2.953   6.158   5.381  0.6368  0.1017  0.0169
 6986SOL    HW121857   2.933   6.239   5.326  3.2298 -0.0437 -1.3108
 6986SOL    HW221858   2.998   6.090   5.324 -1.9184 -2.5730  0.9723
 6987SOL     OW21859   5.111   2.780   5.499 -1.2892 -0.8831 -0.5192
 6987SOL    HW121860   5.025   2.798   5.547 -1.0494 -1.8835  0.3140
 6987SOL    HW221861   5.181   2.756   5.566  0.0701  1.3927 -1.0270
 6988SOL     OW21862   3.150   1.008   6.935  0.3674 -0.7073 -0.0023
 6988SOL    HW121863   3.096   1.086   6.965  0.3730 -0.8584  0.4054
 6988SOL    HW221864   3.169   1.016   6.837 -0.0309 -0.4380 -0.0574
 6989SOL     OW21865   5.969   5.610   0.915  0.0662 -0.0119  0.4859
 6989SOL    HW121866   5.876   5.630   0.885 -0.2238 -1.4633  0.3148
 6989SOL    HW221867   6.018   5.560   0.843  0.4737 -0.5812  1.1350
 6990SOL     OW21868   3.197   4.052   2.843  0.5348 -0.1411  0.6213
 6990SOL    HW121869   3.221   4.132   2.897  1.7148  0.0773 -0.1741
 6990SOL    HW221870   3.281   4.005   2.815  0.0432  0.3019 -1.8231
 6991SOL     OW21871   6.279   4.764   4.080 -0.1801 -0.4045  0.0799
 6991SOL    HW121872   6.259   4.736   3.986 -0.7916  0.4270 -0.0441
 6991SOL    HW221873   6.197   4.753   4.137 -0.7114  1.8510 -0.1530
 6992SOL     OW21874   0.537   0.637   6.624 -0.5954  0.0087 -0.1970
 6992SOL    HW121875   0.456   0.612   6.676 -0.1477  1.1605  1.1300
 6992SOL    HW221876   0.614   0.653   6.687  0.5230 -0.5340 -1.3731
 6993SOL     OW21877   5.312   0.248   2.120 -0.2927 -0.3682 -0.4196
 6993SOL    HW121878   5.302   0.318   2.190 -0.9522 -0.9691  0.0959
 6993SOL    HW221879   5.295   0.158   2.159 -1.2148 -0.6717 -1.4638
 6994SOL     OW21880   1.586   0.275   4.519 -0.1317 -0.0495  0.0392
 6994SOL    HW121881   1.680   0.264   4.488 -0.0315  1.7109 -0.4169
 6994SOL    HW221882   1.538   0.188   4.513  0.9963 -0.6143 -1.3456
 6995SOL     OW21883   1.900   4.563   2.125 -0.1102  0.2505 -0.3753
 6995SOL    HW121884   1.968   4.606   2.065 -1.3533  1.1475 -1.2031
 6995SOL    HW221885   1.946   4.501   2.189  1.4627  0.7835 -0.9368
 6996SOL     OW21886   1.201   1.716   6.698 -0.6912 -0.5187 -0.1701
 6996SOL    HW121887   1.200   1.731   6.797 -1.1564 -1.0530 -0.0928
 6996SOL    HW221888   1.236   1.798   6.653  1.1456 -0.8645  0.5370
 6997SOL     OW21889   5.859   4.743   6.839  0.0168 -0.3001  0.3256
 6997SOL    HW121890   5.928   4.815   6.832  1.2721 -1.5060 -0.1825
 6997SOL    HW221891   5.828   4.718   6.748 -0.3603 -0.4437  0.4927
 6998SOL     OW21892   1.091   1.917   2.859 -0.1699 -0.4793 -0.3866
 6998SOL    HW121893   1.081   1.819   2.876  2.9292 -0.7615  0.3521
 6998SOL    HW221894   1.047   1.968   2.933 -1.0608 -1.3016 -0.3278
 6999SOL     OW21895   5.751   2.927   6.776  0.2687 -0.2622  0.0803
 6999SOL    HW121896   5.808   2.995   6.730 -0.8373  2.0391  1.8711
 6999SOL    HW221897   5.798   2.892   6.856 -0.0954  0.2868  0.5446
 7000SOL     OW21898   4.912   6.090   3.342  0.4895 -0.3193  0.2801
 7000SOL    HW121899   4.863   6.003   3.335  1.1669 -0.6861 -0.0253
 7000SOL    HW221900   4.903   6.141   3.256  1.5168 -0.8719 -0.1746
 7001SOL     OW21901   0.086   1.300   2.051  0.2067  1.1720  0.0208
 7001SOL    HW121902   0.149   1.298   2.128  1.5795 -0.7604 -1.0502
 7001SOL    HW221903   0.135   1.274   1.967 -1.4230  2.3075 -1.3612
 7002SOL     OW21904   0.370   5.092   3.540 -0.3215 -0.1909  0.2252
 7002SOL    HW121905   0.343   5.083   3.444  0.0070  0.1844  0.0938
 7002SOL    HW221906   0.302   5.047   3.598 -0.0055 -1.3078 -0.2413
 7003SOL     OW21907   7.022   4.907   2.143 -0.5597  0.2732 -0.5460
 7003SOL    HW121908   6.946   4.851   2.110 -0.7702 -0.0197  0.4034
 7003SOL    HW221909   6.986   4.989   2.188 -0.4080 -0.5169  1.1134
 7004SOL     OW21910   0.181   5.713   5.421  0.1085  0.2797 -0.2248
 7004SOL    HW121911   0.248   5.690   5.492 -0.0900 -0.2954 -0.2215
 7004SOL    HW221912   0.126   5.791   5.451 -0.4656 -0.4205  0.5717
 7005SOL     OW21913   0.754   0.157   6.040 -0.4210  0.0386 -0.0518
 7005SOL    HW121914   0.829   0.223   6.043 -2.8893  3.2240 -1.9759
 7005SOL    HW221915   0.694   0.171   6.119 -1.0826  0.3657 -0.5922
 7006SOL     OW21916   6.269   6.860   4.462 -0.8827  0.1651  0.2141
 7006SOL    HW121917   6.222   6.799   4.399 -1.1650  0.4936  0.1086
 7006SOL    HW221918   6.273   6.952   4.424  0.1517  0.0686  0.0656
 7007SOL     OW21919   4.374   1.031   6.605  0.1529  0.0185  0.6675
 7007SOL    HW121920   4.312   1.031   6.527  0.5285  2.8146  0.2575
 7007SOL    HW221921   4.321   1.033   6.690 -0.2532 -1.4768  0.4816
 7008SOL     OW21922   6.880   5.590   2.762 -0.1148  0.1125 -0.4311
 7008SOL    HW121923   6.966   5.547   2.733  1.0657  1.2321  1.2123
 7008SOL    HW221924   6.816   5.519   2.791  0.9706 -0.6703  0.1222
 7009SOL     OW21925   3.064   5.653   2.168  0.0242  0.2485 -0.4211
 7009SOL    HW121926   3.109   5.735   2.201  1.4448 -0.5975 -0.1809
 7009SOL    HW221927   3.101   5.627   2.079 -2.9208  1.8217 -2.2416
 7010SOL     OW21928   0.071   5.288   3.458  0.3744  0.5805  0.2164
 7010SOL    HW121929   0.101   5.199   3.492  0.7981 -0.5750 -2.8427
 7010SOL    HW221930   0.151   5.343   3.432  0.0837 -0.0818 -2.2748
 7011SOL     OW21931   4.188   6.640   5.512 -0.1818 -0.0761 -0.3063
 7011SOL    HW121932   4.165   6.550   5.475 -0.7730 -0.0514 -0.0036
 7011SOL    HW221933   4.104   6.691   5.530 -0.0630 -0.7094  2.6472
 7012SOL     OW21934   0.959   2.117   0.821 -0.1069  0.1317 -0.1693
 7012SOL    HW121935   0.911   2.204   0.831 -0.4574 -0.2077  1.3464
 7012SOL    HW221936   0.951   2.085   0.726 -3.0373 -0.0082  0.0348
 7013SOL     OW21937   0.932   5.631   6.434  0.0335 -0.0821 -0.2351
 7013SOL    HW121938   0.899   5.708   6.379  1.1200  0.3405 -0.3318
 7013SOL    HW221939   1.013   5.591   6.390 -0.4042 -1.1653 -0.0845
 7014SOL     OW21940   6.483   4.465   2.448  0.3371  0.4545  0.1842
 7014SOL    HW121941   6.458   4.442   2.354  0.7413 -0.5089  0.3000
 7014SOL    HW221942   6.428   4.411   2.511  0.0452  1.1243  0.5084
 7015SOL     OW21943   6.548   3.562   3.416 -0.2603  0.1655  0.1619
 7015SOL    HW121944   6.526   3.531   3.323 -0.8049  0.4717  0.1878
 7015SOL    HW221945   6.512   3.654   3.430 -1.8839 -0.5947  1.3055
 7016SOL     OW21946   2.224   5.166   2.290 -0.2562  0.4932 -0.0416
 7016SOL    HW121947   2.277   5.152   2.206  0.5183  2.7324  0.0204
 7016SOL    HW221948   2.130   5.138   2.274  0.1391 -0.2065 -1.2964
 7017SOL     OW21949   4.666   4.985   4.250  0.2708  0.0256  0.1683
 7017SOL    HW121950   4.613   5.056   4.296 -2.1201 -0.5146 -1.5523
 7017SOL    HW221951   4.690   5.015   4.158  1.0988 -0.5979  0.1654
 7018SOL     OW21952   5.241   1.188   3.872  0.5494 -0.7972 -0.7981
 7018SOL    HW121953   5.216   1.263   3.811 -1.8692 -0.9010 -0.0123
 7018SOL    HW221954   5.299   1.224   3.945 -1.3926  0.5932  0.1504
 7019SOL     OW21955   5.216   6.634   3.302 -0.2423  0.3648  0.3367
 7019SOL    HW121956   5.273   6.628   3.220  1.3741  0.0327  1.4418
 7019SOL    HW221957   5.182   6.543   3.325 -2.1331  0.6958 -0.8782
 7020SOL     OW21958   0.284   2.539   1.550  0.1274 -0.1587 -0.0283
 7020SOL    HW121959   0.263   2.637   1.551 -0.0151 -0.1339 -1.6717
 7020SOL    HW221960   0.381   2.527   1.528 -0.0340 -0.3863 -0.6289
 7021SOL     OW21961   1.149   3.124   0.788 -0.2886  0.8919 -0.2516
 7021SOL    HW121962   1.149   3.101   0.691 -0.3599  1.8225 -0.4801
 7021SOL    HW221963   1.233   3.092   0.830 -0.3569  0.2850 -0.5666
 7022SOL     OW21964   4.748   2.065   0.595  0.1715 -0.0218  0.6318
 7022SOL    HW121965   4.701   2.001   0.655 -1.6966  1.2588  0.6151
 7022SOL    HW221966   4.804   2.128   0.649  0.3987 -0.3911  0.8224
 7023SOL     OW21967   1.778   4.075   1.464 -0.0087 -1.0322  1.1794
 7023SOL    HW121968   1.867   4.087   1.508 -0.3436 -1.5720  2.0204
 7023SOL    HW221969   1.706   4.093   1.531 -0.5365 -0.5020  0.4754
 7024SOL     OW21970   2.983   3.197   3.414 -0.5066  0.2143 -0.0644
 7024SOL    HW121971   2.919   3.255   3.465 -0.1882  0.8020 -0.3190
 7024SOL    HW221972   2.970   3.212   3.316 -0.0106  0.3023 -0.1160
 7025SOL     OW21973   3.542   0.478   0.144  0.4811  0.4143  0.5343
 7025SOL    HW121974   3.641   0.485   0.137  0.5677  0.3052  1.5014
 7025SOL    HW221975   3.515   0.381   0.139  0.3249  0.5002 -0.6977
 7026SOL     OW21976   2.203   2.940   0.651  0.2648  0.6580 -0.4430
 7026SOL    HW121977   2.295   2.918   0.682  0.1263  2.1965  1.2359
 7026SOL    HW221978   2.150   2.977   0.727 -2.5194 -2.2692 -0.7208
 7027SOL     OW21979   2.110   6.541   4.545 -0.0779  0.1068  0.0090
 7027SOL    HW121980   2.047   6.526   4.621  0.9112 -0.3894  0.7599
 7027SOL    HW221981   2.129   6.454   4.500  0.0081  0.2600 -0.2505
 7028SOL     OW21982   4.020   6.940   3.486 -0.2186  0.3005  0.2020
 7028SOL    HW121983   4.110   6.936   3.443  0.6338  0.0366  1.9070
 7028SOL    HW221984   3.961   7.003   3.435  1.0442  0.7503 -0.7516
 7029SOL     OW21985   2.486   3.780   5.342 -0.0414  0.5058  0.1432
 7029SOL    HW121986   2.484   3.861   5.283  0.2886  1.1305  0.9622
 7029SOL    HW221987   2.475   3.808   5.437 -0.6077 -0.4918  0.3817
 7030SOL     OW21988   4.939   2.166   4.912 -0.4181 -0.0064 -0.5105
 7030SOL    HW121989   4.923   2.265   4.921  0.4126  0.1090 -0.2827
 7030SOL    HW221990   4.966   2.129   5.000  1.1996 -0.0791 -1.0077
 7031SOL     OW21991   4.199   5.886   0.197  0.1825  0.1268  0.1807
 7031SOL    HW121992   4.218   5.788   0.195  1.1717  0.2898 -2.1355
 7031SOL    HW221993   4.133   5.909   0.125 -1.3890  0.9781  1.8047
 7032SOL     OW21994   4.594   1.825   2.922  0.3022  0.2238 -0.1770
 7032SOL    HW121995   4.592   1.733   2.882  0.4110  0.7460 -1.4403
 7032SOL    HW221996   4.518   1.878   2.884  0.0906  0.5880  0.7429
 7033SOL     OW21997   1.241   0.672   4.814  0.0537  0.1163 -0.0755
 7033SOL    HW121998   1.255   0.766   4.781 -0.9669 -0.1440 -1.3249
 7033SOL    HW221999   1.166   0.670   4.880  0.8610  0.3427  0.8764
 7034SOL     OW22000   5.495   0.106   1.979 -0.1144 -0.3342 -0.0169
 7034SOL    HW122001   5.417   0.165   1.998  0.8894  1.8952 -2.2336
 7034SOL    HW222002   5.571   0.132   2.038 -0.2651 -0.8036  0.3920
 7035SOL     OW22003   3.330   1.050   1.712  0.1084 -0.5854  0.5996
 7035SOL    HW122004   3.403   0.982   1.703  0.2658 -0.4309  0.7092
 7035SOL    HW222005   3.264   1.019   1.781 -0.3806 -1.1256 -0.0873
 7036SOL     OW22006   2.790   6.660   3.819 -0.0451 -0.1026  0.1878
 7036SOL    HW122007   2.774   6.745   3.769  0.1584  0.1584  0.5610
 7036SOL    HW222008   2.806   6.681   3.916 -1.4030 -0.6688  0.5616
 7037SOL     OW22009   0.450   1.166   4.971  0.1010 -0.8786 -0.1086
 7037SOL    HW122010   0.495   1.086   4.930  0.2568 -2.0766  2.2620
 7037SOL    HW222011   0.517   1.237   4.988  0.8407 -1.9350  1.6724
 7038SOL     OW22012   2.932   3.526   6.181  0.1853  0.2332  0.5857
 7038SOL    HW122013   2.880   3.461   6.236  0.7014  0.0866  0.9094
 7038SOL    HW222014   2.869   3.586   6.131 -0.2980 -0.5540  0.2285
 7039SOL     OW22015   0.860   4.474   4.309  0.4436  0.7836  0.3003
 7039SOL    HW122016   0.853   4.570   4.336  3.6655  1.5146 -0.9617
 7039SOL    HW222017   0.889   4.469   4.213  1.4239 -1.3891  0.6491
 7040SOL     OW22018   3.465   0.550   4.533  0.1232 -0.2301 -0.3966
 7040SOL    HW122019   3.393   0.553   4.463  0.9185 -0.6035 -1.2541
 7040SOL    HW222020   3.469   0.638   4.580 -1.3523 -0.4347  0.1497
 7041SOL     OW22021   2.150   0.967   2.402 -0.2204  0.4116 -0.1327
 7041SOL    HW122022   2.085   0.942   2.329 -0.3011  0.2039  0.0100
 7041SOL    HW222023   2.127   0.917   2.485 -0.1105  0.6308  0.0284
 7042SOL     OW22024   5.294   0.876   2.856 -0.1718  0.2404  0.1351
 7042SOL    HW122025   5.328   0.784   2.837 -1.3233 -0.2543  0.4165
 7042SOL    HW222026   5.338   0.911   2.939  2.4457  1.1369 -1.4862
 7043SOL     OW22027   2.513   6.332   3.608  0.0473  0.1736 -0.4516
 7043SOL    HW122028   2.488   6.411   3.663  0.5952 -0.0382  0.1190
 7043SOL    HW222029   2.433   6.298   3.559 -0.8615 -0.6008  1.4572
 7044SOL     OW22030   6.706   6.298   3.089  0.5738 -0.4335  0.2126
 7044SOL    HW122031   6.678   6.209   3.124  1.0406 -1.7129 -2.3959
 7044SOL    HW222032   6.806   6.306   3.094  0.6265 -0.5319 -0.5183
 7045SOL     OW22033   0.056   5.892   2.571 -0.0076  0.5810 -0.2909
 7045SOL    HW122034   0.078   5.821   2.638  2.8370  1.5942 -0.0124
 7045SOL    HW222035  -0.040   5.917   2.578  0.0274  0.1651  2.9272
 7046SOL     OW22036   3.405   0.934   5.397 -0.4494 -0.2255  0.1236
 7046SOL    HW122037   3.359   0.943   5.309 -0.9780 -0.3760  0.3804
 7046SOL    HW222038   3.442   1.023   5.424 -1.2136  0.0651  0.2446
 7047SOL     OW22039   1.591   1.773   6.236 -0.7113 -0.0970 -0.5813
 7047SOL    HW122040   1.605   1.772   6.336  1.7852  0.7876 -0.8587
 7047SOL    HW222041   1.507   1.822   6.215 -0.9063  0.3594  1.0677
 7048SOL     OW22042   0.065   6.900   4.532 -0.1775  0.1223 -0.2300
 7048SOL    HW122043   0.129   6.826   4.513 -0.5461  0.1003 -1.4196
 7048SOL    HW222044   0.098   6.984   4.490 -0.9042  0.1169 -0.8298
 7049SOL     OW22045   4.521   1.197   1.400  0.3250 -0.0208  0.2233
 7049SOL    HW122046   4.517   1.296   1.394 -0.0290 -0.0649 -0.2811
 7049SOL    HW222047   4.531   1.158   1.309  0.0265 -0.4678  0.3772
 7050SOL     OW22048   3.113   5.588   0.257  0.4055 -0.2115 -0.2793
 7050SOL    HW122049   3.158   5.537   0.330 -0.1821 -0.9159 -0.4021
 7050SOL    HW222050   3.174   5.662   0.226 -0.3542  1.9178  2.7931
 7051SOL     OW22051   2.647   0.850   2.475 -0.4185  0.4511  0.2274
 7051SOL    HW122052   2.574   0.911   2.445 -0.3411  0.3331 -0.1978
 7051SOL    HW222053   2.696   0.813   2.396 -1.0909 -0.9393  0.4187
 7052SOL     OW22054   6.981   1.543   4.339  0.3977  0.1905 -0.5964
 7052SOL    HW122055   6.925   1.624   4.352 -1.9743 -0.9190 -2.9730
 7052SOL    HW222056   7.075   1.570   4.319  0.4659  2.1526  1.9004
 7053SOL     OW22057   2.419   1.257   3.799 -0.1535 -0.4675 -0.3250
 7053SOL    HW122058   2.419   1.353   3.825 -0.4045 -0.3261 -0.8469
 7053SOL    HW222059   2.334   1.235   3.751 -0.4836 -1.1529  0.5368
 7054SOL     OW22060   6.557   0.008   0.275  0.3483 -0.6833  0.2215
 7054SOL    HW122061   6.556   0.040   0.181 -0.6868 -1.6118 -0.1027
 7054SOL    HW222062   6.588   0.082   0.335  1.0573 -0.0963 -0.8320
 7055SOL     OW22063   1.995   1.938   5.803  0.0306 -0.5473  0.1409
 7055SOL    HW122064   1.898   1.932   5.780  0.4948 -0.5856 -2.0389
 7055SOL    HW222065   2.044   1.860   5.765  0.8309 -0.9959  1.9573
 7056SOL     OW22066   5.757   1.539   0.950 -0.0096  0.2185  0.6892
 7056SOL    HW122067   5.703   1.471   0.999  0.4137 -0.2926  0.4550
 7056SOL    HW222068   5.813   1.590   1.015  1.3509 -1.1745  0.6612
 7057SOL     OW22069   1.520   5.732   4.466 -0.5017  0.1364  0.4765
 7057SOL    HW122070   1.436   5.680   4.477 -0.3588 -0.1442  0.2753
 7057SOL    HW222071   1.498   5.825   4.439 -0.7157 -0.6109 -2.2465
 7058SOL     OW22072   6.820   1.038   6.221 -0.4153 -0.3326  0.2937
 7058SOL    HW122073   6.810   0.975   6.298 -1.4372 -2.2666 -1.3291
 7058SOL    HW222074   6.916   1.040   6.193  0.0369  0.6487  1.7553
 7059SOL     OW22075   4.011   1.378   5.509  0.5848  0.1407  0.1642
 7059SOL    HW122076   3.937   1.324   5.549  1.6215 -1.2015  0.3761
 7059SOL    HW222077   4.024   1.351   5.414 -0.0049  1.2823 -0.2556
 7060SOL     OW22078   4.317   6.809   2.418 -0.0413  0.6221  0.5502
 7060SOL    HW122079   4.256   6.837   2.492 -0.5153 -1.5485  1.0485
 7060SOL    HW222080   4.406   6.783   2.457  0.0793  0.5464  0.2282
 7061SOL     OW22081   2.372   2.742   4.507  0.7188 -0.1462  0.1994
 7061SOL    HW122082   2.373   2.789   4.595 -0.3631 -0.8369  0.5954
 7061SOL    HW222083   2.456   2.689   4.496 -0.6401 -3.0726  2.5114
 7062SOL     OW22084   4.119   1.152   3.121  0.7662  0.0103 -0.0820
 7062SOL    HW122085   4.154   1.237   3.082 -0.5123  0.0854 -1.1519
 7062SOL    HW222086   4.039   1.122   3.069  0.5071 -1.2495  0.9806
 7063SOL     OW22087   1.969   6.301   3.204  0.1354 -0.1153  0.2249
 7063SOL    HW122088   1.907   6.223   3.207  0.0314 -0.2108 -2.0461
 7063SOL    HW222089   1.993   6.320   3.108  1.0384  1.9499  0.8059
 7064SOL     OW22090   4.691   1.762   5.055  0.6933  0.3399 -0.0116
 7064SOL    HW122091   4.638   1.824   4.996  0.5809 -0.8067 -1.1627
 7064SOL    HW222092   4.668   1.780   5.151 -5.0605 -2.6657 -0.3673
 7065SOL     OW22093   3.671   4.015   4.343  0.2655 -0.6159 -0.8020
 7065SOL    HW122094   3.600   4.073   4.382  0.4881 -1.2896  0.7051
 7065SOL    HW222095   3.636   3.968   4.262 -0.9673 -0.8165 -0.1767
 7066SOL     OW22096   5.680   1.077   6.673  0.1801 -0.3516 -0.6287
 7066SOL    HW122097   5.682   1.175   6.656  1.5497 -0.6071 -2.2525
 7066SOL    HW222098   5.661   1.029   6.587  1.3307 -1.5490 -0.2393
 7067SOL     OW22099   2.010   4.125   0.362 -0.0691  0.0454  0.4660
 7067SOL    HW122100   2.019   4.048   0.425 -0.6476  0.4738  1.0885
 7067SOL    HW222101   1.939   4.186   0.395  0.3563  0.8285 -0.0445
 7068SOL     OW22102   6.153   2.710   4.230 -0.6569  0.6228  0.0336
 7068SOL    HW122103   6.073   2.735   4.175 -1.0810  0.3202  0.5024
 7068SOL    HW222104   6.150   2.612   4.250  0.3504  0.4133 -0.7716
 7069SOL     OW22105   5.026   4.896   4.516 -0.1614 -0.0413 -0.1405
 7069SOL    HW122106   5.004   4.930   4.425 -0.1819 -0.9363 -0.4707
 7069SOL    HW222107   5.072   4.969   4.568  2.1371 -0.2970 -1.6929
 7070SOL     OW22108   1.637   1.400   5.546  0.0199  0.5590 -0.1494
 7070SOL    HW122109   1.713   1.398   5.611 -0.6601  0.9821  0.6860
 7070SOL    HW222110   1.659   1.343   5.467  1.2586  0.7933  0.0064
 7071SOL     OW22111   6.697   1.369   5.072 -0.2833  0.6053 -0.1926
 7071SOL    HW122112   6.641   1.387   5.153  0.7225  1.1250  0.4078
 7071SOL    HW222113   6.643   1.317   5.005 -1.0646 -0.0215  0.8886
 7072SOL     OW22114   5.375   4.208   6.704  0.2020  0.3997  0.4612
 7072SOL    HW122115   5.463   4.163   6.694 -0.1955 -0.6892  1.5720
 7072SOL    HW222116   5.386   4.307   6.690  1.3048  0.1206 -0.8458
 7073SOL     OW22117   4.993   0.912   4.417 -0.9000  0.1733 -0.5162
 7073SOL    HW122118   4.896   0.923   4.395 -0.8897  0.4857 -0.4163
 7073SOL    HW222119   5.020   0.818   4.402 -0.4975  0.6700 -3.3956
 7074SOL     OW22120   6.096   3.394   5.451  0.5087  0.2830 -0.3936
 7074SOL    HW122121   6.134   3.485   5.468 -0.3913  0.4508  0.8620
 7074SOL    HW222122   6.170   3.328   5.441  1.1475  0.9011  0.1378
 7075SOL     OW22123   2.292   3.033   6.469 -0.3683 -0.4915  0.0989
 7075SOL    HW122124   2.336   3.119   6.442 -1.6142  0.3197  0.5762
 7075SOL    HW222125   2.271   2.979   6.387 -0.6231  0.1892 -0.2898
 7076SOL     OW22126   0.340   1.875   1.948 -0.2610 -0.2476  0.4516
 7076SOL    HW122127   0.241   1.864   1.958 -0.5857 -0.2452 -2.0125
 7076SOL    HW222128   0.386   1.832   2.025 -2.1367 -1.5057  0.9595
 7077SOL     OW22129   0.371   4.072   4.080 -0.4771 -0.8438  0.1981
 7077SOL    HW122130   0.405   3.990   4.033  0.2154 -1.1810  1.2517
 7077SOL    HW222131   0.436   4.147   4.067 -0.6884 -0.6973 -0.0416
 7078SOL     OW22132   4.031   6.753   0.600  0.3692  0.2379 -0.8356
 7078SOL    HW122133   4.083   6.830   0.636 -1.7604  0.9038  1.1035
 7078SOL    HW222134   4.014   6.687   0.673 -0.7076 -0.3973 -1.6198
 7079SOL     OW22135   2.623   0.754   4.623  0.4996  0.2561 -0.0861
 7079SOL    HW122136   2.687   0.764   4.547 -0.6192 -2.4093 -1.4965
 7079SOL    HW222137   2.665   0.696   4.693 -0.2391 -1.3473 -0.9325
 7080SOL     OW22138   4.025   1.102   4.761  0.1132  0.3500 -0.0489
 7080SOL    HW122139   4.088   1.172   4.795  1.8736 -1.3953  0.4018
 7080SOL    HW222140   4.065   1.055   4.683 -0.4894 -0.9900  0.4209
 7081SOL     OW22141   0.293   3.564   6.321 -0.1405 -1.1716 -0.3741
 7081SOL    HW122142   0.313   3.569   6.419 -0.2398 -0.1149 -0.3900
 7081SOL    HW222143   0.371   3.601   6.270  0.0469 -2.0168 -0.7193
 7082SOL     OW22144   1.570   2.887   2.536  0.8089 -0.4038  0.7178
 7082SOL    HW122145   1.499   2.853   2.597  1.3662 -1.2602  0.9165
 7082SOL    HW222146   1.628   2.953   2.584  1.6935 -1.6144  1.3819
 7083SOL     OW22147   5.572   1.872   2.701  0.4889 -0.2216 -0.0968
 7083SOL    HW122148   5.590   1.851   2.798 -0.2940  2.5852  0.7558
 7083SOL    HW222149   5.637   1.941   2.669  0.2049 -0.5030 -1.3325
 7084SOL     OW22150   6.958   5.638   6.971  0.2237 -0.5213  0.2246
 7084SOL    HW122151   6.919   5.701   6.903 -0.3572 -0.5569  0.5163
 7084SOL    HW222152   7.026   5.580   6.927  0.0947 -0.3123 -0.2570
 7085SOL     OW22153   0.173   2.314   2.641  0.7769 -0.0336 -0.1070
 7085SOL    HW122154   0.220   2.318   2.554  1.3087  0.6414  0.2002
 7085SOL    HW222155   0.075   2.331   2.627  1.2938  3.4776 -0.2389
 7086SOL     OW22156   6.051   1.633   4.554  0.7514 -0.0881  0.9376
 7086SOL    HW122157   5.960   1.674   4.563  0.1269 -0.7984 -1.4662
 7086SOL    HW222158   6.071   1.579   4.636 -2.1489 -2.0307  0.5162
 7087SOL     OW22159   5.522   2.952   3.867 -1.0094  0.2699  0.0582
 7087SOL    HW122160   5.427   2.983   3.860 -1.0475  0.0130 -0.6309
 7087SOL    HW222161   5.523   2.852   3.868 -0.5834  0.1129 -3.3627
 7088SOL     OW22162   4.588   5.833   5.806 -0.3606  0.3346  0.2073
 7088SOL    HW122163   4.576   5.928   5.835 -1.0299  0.2045  0.3710
 7088SOL    HW222164   4.685   5.810   5.807 -0.2520  0.7995  0.8581
 7089SOL     OW22165   2.939   5.996   1.264  0.3252  0.5318  0.5158
 7089SOL    HW122166   2.847   6.035   1.254  0.8069  1.8880  1.0378
 7089SOL    HW222167   2.935   5.897   1.251 -0.5139  0.9405 -3.8616
 7090SOL     OW22168   4.340   0.426   2.592 -0.5726  0.0797  0.5908
 7090SOL    HW122169   4.278   0.426   2.513 -1.3658 -0.7977  1.1890
 7090SOL    HW222170   4.289   0.456   2.673 -0.7369 -2.3900  1.4621
 7091SOL     OW22171   0.752   6.761   0.739 -0.1374 -0.3455  0.0994
 7091SOL    HW122172   0.808   6.831   0.784  0.9567 -0.4423 -1.0599
 7091SOL    HW222173   0.657   6.770   0.770  0.3020  0.5187  1.2892
 7092SOL     OW22174   2.877   2.413   6.498  0.2681  0.1387 -0.1887
 7092SOL    HW122175   2.863   2.375   6.406  1.6054 -0.3314 -0.2169
 7092SOL    HW222176   2.821   2.362   6.564  1.0452 -1.0346 -0.4177
 7093SOL     OW22177   4.982   4.028   1.136 -0.3789  0.4141 -0.6480
 7093SOL    HW122178   5.053   4.024   1.206 -0.7065 -0.0293 -0.3394
 7093SOL    HW222179   5.001   4.104   1.074  0.3043  0.3702 -0.5039
 7094SOL     OW22180   1.602   1.981   5.397 -0.1785  0.2514  0.4783
 7094SOL    HW122181   1.651   2.059   5.435 -1.4539  0.3029  2.1067
 7094SOL    HW222182   1.639   1.896   5.435  0.5711  0.0858 -0.5646
 7095SOL     OW22183   4.602   4.594   0.225  0.5316 -0.5858  0.2069
 7095SOL    HW122184   4.553   4.651   0.290  1.7465  0.5550  0.1742
 7095SOL    HW222185   4.695   4.630   0.212  0.6688 -1.3839 -1.3654
 7096SOL     OW22186   0.417   6.663   0.453  0.8861  0.8756 -1.0882
 7096SOL    HW122187   0.352   6.639   0.381  1.4220  1.7334 -1.8774
 7096SOL    HW222188   0.373   6.651   0.543  0.3896 -0.7286 -1.5201
 7097SOL     OW22189   5.186   2.177   0.699 -0.1804  0.3467  0.0488
 7097SOL    HW122190   5.274   2.204   0.659 -0.6140  1.1551 -0.3839
 7097SOL    HW222191   5.186   2.198   0.797 -0.7173  2.5485 -0.3775
 7098SOL     OW22192   3.607   6.323   4.430 -0.0058  0.7391 -0.2721
 7098SOL    HW122193   3.677   6.393   4.445  1.0654 -0.4829  0.7720
 7098SOL    HW222194   3.577   6.325   4.335  1.3297  1.4053 -0.7072
 7099SOL     OW22195   2.949   1.137   3.824 -0.2925  0.7538  0.0716
 7099SOL    HW122196   2.889   1.103   3.751 -0.8679  0.0788  0.8362
 7099SOL    HW222197   2.906   1.217   3.867 -0.3727  0.6225  0.2374
 7100SOL     OW22198   7.014   3.572   2.046 -0.3889  0.3130  0.3077
 7100SOL    HW122199   7.048   3.653   2.093 -1.0400  0.3932  0.6514
 7100SOL    HW222200   7.073   3.551   1.968 -0.0163  0.9112  0.4274
 7101SOL     OW22201   3.499   0.131   5.577 -0.5821  0.3838  0.3429
 7101SOL    HW122202   3.558   0.167   5.649  1.0885 -1.4780 -0.0360
 7101SOL    HW222203   3.518   0.034   5.563 -0.9271  0.6547 -2.5257
 7102SOL     OW22204   3.826   1.234   1.150 -0.4366  0.0643  0.3004
 7102SOL    HW122205   3.785   1.280   1.228 -1.1193 -1.6039  0.9579
 7102SOL    HW222206   3.824   1.135   1.164  0.4058 -0.2267 -1.3529
 7103SOL     OW22207   3.750   6.191   2.410  0.0889  0.0322  0.0875
 7103SOL    HW122208   3.744   6.099   2.447  2.9232  0.2685  1.4336
 7103SOL    HW222209   3.773   6.187   2.313 -1.0948 -0.6355 -0.1829
 7104SOL     OW22210   6.642   3.289   3.676 -0.4428  0.5358  0.1207
 7104SOL    HW122211   6.673   3.335   3.593 -2.8296 -1.7562 -2.2697
 7104SOL    HW222212   6.720   3.269   3.735  1.3803  2.0523 -1.6433
 7105SOL     OW22213   3.163   3.056   5.007  0.8480 -0.2916  0.4725
 7105SOL    HW122214   3.202   3.141   4.973 -0.3164  0.4990  1.0700
 7105SOL    HW222215   3.100   3.018   4.939  0.8328 -0.3115  0.4972
 7106SOL     OW22216   3.231   3.308   1.526  0.5469 -0.4538 -0.0924
 7106SOL    HW122217   3.295   3.251   1.577  2.2098  0.9750 -0.4740
 7106SOL    HW222218   3.166   3.249   1.477  0.1121 -1.8887  2.0751
 7107SOL     OW22219   3.350   0.573   6.288  0.7679  0.2919  0.0610
 7107SOL    HW122220   3.291   0.522   6.351  0.2909  1.8568  0.9262
 7107SOL    HW222221   3.313   0.566   6.195  0.2637 -0.2598  0.2989
 7108SOL     OW22222   4.461   5.496   3.719 -0.9392 -0.2673 -0.4406
 7108SOL    HW122223   4.530   5.426   3.740 -0.3824  0.5337  0.4681
 7108SOL    HW222224   4.423   5.479   3.628 -0.6520 -1.6153 -0.3280
 7109SOL     OW22225   2.480   6.046   6.901  0.1828 -0.1003 -0.1492
 7109SOL    HW122226   2.488   6.140   6.934  1.5706 -0.1390 -0.3243
 7109SOL    HW222227   2.563   5.995   6.923 -0.4290 -1.2176 -0.3151
 7110SOL     OW22228   2.276   6.821   4.780  0.2775  0.0876  0.7350
 7110SOL    HW122229   2.349   6.868   4.829 -0.5207 -0.0693  2.0986
 7110SOL    HW222230   2.288   6.722   4.790  1.1766 -0.0207 -0.9942
 7111SOL     OW22231   3.047   6.862   4.038  0.1017 -0.1889 -0.0026
 7111SOL    HW122232   3.072   6.792   3.971 -1.0002  0.8409 -1.5457
 7111SOL    HW222233   2.950   6.854   4.059  0.0113  0.7481 -0.0426
 7112SOL     OW22234   2.579   5.068   4.443 -0.8260  0.6545 -0.2211
 7112SOL    HW122235   2.491   5.090   4.486 -0.1732 -1.6453  2.6150
 7112SOL    HW222236   2.642   5.144   4.455 -1.2235  0.7604  1.4696
 7113SOL     OW22237   1.228   5.290   4.479  0.3379 -0.4126  0.5478
 7113SOL    HW122238   1.267   5.364   4.534  1.4782 -1.0921  0.6905
 7113SOL    HW222239   1.294   5.215   4.473  0.0196 -0.5843 -1.2776
 7114SOL     OW22240   5.896   4.889   0.843  0.1448  0.3564 -0.0424
 7114SOL    HW122241   5.957   4.812   0.824  0.0625  0.4918 -0.9427
 7114SOL    HW222242   5.801   4.859   0.834  0.1010  0.9165 -2.1762
 7115SOL     OW22243   6.281   6.636   0.348 -0.3493  0.4195 -0.4151
 7115SOL    HW122244   6.263   6.727   0.387 -1.5710  0.7906 -1.7740
 7115SOL    HW222245   6.320   6.646   0.257 -0.0339 -0.4309 -0.3790
 7116SOL     OW22246   6.797   3.845   5.574  0.0963  0.4655 -0.1966
 7116SOL    HW122247   6.831   3.834   5.481  0.8227  2.1202 -0.1649
 7116SOL    HW222248   6.875   3.852   5.637 -0.3693  0.6877  0.3646
 7117SOL     OW22249   1.513   0.119   3.185 -0.4457  0.2061 -0.1544
 7117SOL    HW122250   1.543   0.149   3.094  0.4918 -1.0034 -0.2608
 7117SOL    HW222251   1.444   0.183   3.219 -1.5145  0.1776 -2.1043
 7118SOL     OW22252   5.193   4.442   5.755  0.1203 -0.0794 -0.3884
 7118SOL    HW122253   5.155   4.532   5.776 -1.5963 -0.8899  0.2108
 7118SOL    HW222254   5.155   4.374   5.818  2.0589 -1.1041 -0.2537
 7119SOL     OW22255   3.964   6.430   4.766  0.0940 -0.9602  0.2947
 7119SOL    HW122256   4.018   6.497   4.714  0.9635 -1.6910  0.2421
 7119SOL    HW222257   3.870   6.463   4.774  0.4906  0.2539  0.2351
 7120SOL     OW22258   4.784   1.661   0.754  0.1176 -0.7554 -0.2689
 7120SOL    HW122259   4.787   1.564   0.729 -1.5360 -1.5848  2.3812
 7120SOL    HW222260   4.841   1.676   0.835  0.9081  0.6763 -1.0482
 7121SOL     OW22261   1.063   1.078   4.116 -0.1866  0.2247 -0.3877
 7121SOL    HW122262   0.968   1.110   4.110  0.4523  2.4996  0.7875
 7121SOL    HW222263   1.064   0.978   4.106 -2.2916  0.3563 -4.2793
 7122SOL     OW22264   2.717   0.417   5.919  0.2895  0.6213 -0.3222
 7122SOL    HW122265   2.627   0.407   5.961  0.3274 -0.6816 -0.5040
 7122SOL    HW222266   2.772   0.337   5.941  1.6569  1.7016  0.3497
 7123SOL     OW22267   6.779   4.362   3.589  0.0100  0.2871  0.0981
 7123SOL    HW122268   6.690   4.349   3.546 -0.1250 -2.1259  0.9784
 7123SOL    HW222269   6.838   4.285   3.568  1.5058  1.2813  0.5068
 7124SOL     OW22270   0.463   2.123   0.825 -0.2043  0.0712 -0.1986
 7124SOL    HW122271   0.424   2.063   0.895 -0.6254  0.0916 -0.4149
 7124SOL    HW222272   0.400   2.130   0.748  0.0161  0.4856 -0.3434
 7125SOL     OW22273   1.897   0.097   3.151 -0.1126 -0.7184 -0.0395
 7125SOL    HW122274   1.988   0.126   3.180 -0.4885  0.2235  0.2470
 7125SOL    HW222275   1.845   0.176   3.118 -0.8379 -1.2312 -0.1659
 7126SOL     OW22276   5.729   5.315   1.760  0.0325 -0.1762  0.0411
 7126SOL    HW122277   5.736   5.286   1.665 -0.0690 -0.7716  0.2122
 7126SOL    HW222278   5.686   5.405   1.764 -1.3776 -0.7841 -0.3983
 7127SOL     OW22279   1.158   5.161   6.456 -0.3728  0.5183  0.3439
 7127SOL    HW122280   1.079   5.197   6.407 -0.4976 -0.8922 -0.5586
 7127SOL    HW222281   1.170   5.064   6.433  1.4913  0.6434  0.6083
 7128SOL     OW22282   1.902   2.219   6.948  0.0188  0.6124 -0.1420
 7128SOL    HW122283   1.926   2.154   6.876  1.1557  0.6589  0.1830
 7128SOL    HW222284   1.814   2.263   6.925 -0.2222 -0.2379 -0.8920
 7129SOL     OW22285   6.195   1.603   1.545 -0.0536  0.4999 -0.7522
 7129SOL    HW122286   6.225   1.523   1.493  0.3232 -0.0413  0.2851
 7129SOL    HW222287   6.272   1.641   1.596 -0.2449  1.4909 -1.1706
 7130SOL     OW22288   1.522   6.135   5.409  0.7561 -0.6880  0.2749
 7130SOL    HW122289   1.458   6.183   5.468  1.8531  3.1034 -1.2901
 7130SOL    HW222290   1.615   6.150   5.443  1.2714  0.1448 -1.4081
 7131SOL     OW22291   4.602   0.715   4.268  0.3434 -0.3551  0.2231
 7131SOL    HW122292   4.661   0.678   4.340 -0.7993  0.3769  1.5745
 7131SOL    HW222293   4.604   0.653   4.189  0.0788 -2.2283  1.6188
 7132SOL     OW22294   6.187   3.664   1.203  0.2828  0.0427 -0.3514
 7132SOL    HW122295   6.111   3.673   1.139 -1.0960  0.0261  1.2267
 7132SOL    HW222296   6.208   3.754   1.242 -0.3291 -0.2704  0.7422
 7133SOL     OW22297   2.989   6.598   3.412 -0.2996  0.0120  0.3316
 7133SOL    HW122298   3.024   6.569   3.502 -0.7667  0.0583  0.5320
 7133SOL    HW222299   3.064   6.633   3.357 -0.3889  2.4139  1.6348
 7134SOL     OW22300   6.388   6.626   2.913  0.3119 -0.0290 -0.0150
 7134SOL    HW122301   6.370   6.594   2.820 -0.6452  0.3365  0.0334
 7134SOL    HW222302   6.315   6.595   2.974  0.2759  0.7766  0.3664
 7135SOL     OW22303   2.349   2.942   0.972 -0.0926  0.4193 -0.2630
 7135SOL    HW122304   2.417   3.014   0.984  0.5107 -0.0742 -0.6732
 7135SOL    HW222305   2.265   2.981   0.935 -0.8064  1.3945  2.1976
 7136SOL     OW22306   3.826   0.687   2.933  0.1518  0.3905  0.0513
 7136SOL    HW122307   3.785   0.606   2.891  1.4921 -0.1173 -0.3406
 7136SOL    HW222308   3.832   0.673   3.032 -0.0974  0.2234  0.0435
 7137SOL     OW22309   2.923   2.774   1.343 -0.3974  0.0989 -0.1796
 7137SOL    HW122310   3.009   2.741   1.302 -0.4614 -0.8528  0.4139
 7137SOL    HW222311   2.944   2.850   1.405 -0.4173  2.3544 -2.7093
 7138SOL     OW22312   3.057   4.104   0.976 -0.2585  0.0953  0.8631
 7138SOL    HW122313   3.013   4.094   0.886  2.3871 -0.1731 -0.4842
 7138SOL    HW222314   3.014   4.041   1.041 -2.0133  0.0485 -0.2778
 7139SOL     OW22315   6.180   5.728   1.062 -0.3299 -0.7537  0.2800
 7139SOL    HW122316   6.095   5.723   1.010  0.4721 -0.3495 -1.1236
 7139SOL    HW222317   6.248   5.666   1.023  0.2312 -0.5913  0.9687
 7140SOL     OW22318   5.683   3.133   0.050  0.5347  0.1927 -0.0266
 7140SOL    HW122319   5.662   3.182   0.134 -2.2136  0.5616 -0.8033
 7140SOL    HW222320   5.722   3.043   0.072  0.1280  0.3914  1.6192
 7141SOL     OW22321   2.782   0.362   0.923 -0.1399 -0.0680  0.2055
 7141SOL    HW122322   2.878   0.376   0.897 -0.2130  0.9254  0.4239
 7141SOL    HW222323   2.736   0.309   0.852  0.4843 -0.2288 -0.0834
 7142SOL     OW22324   4.503   1.093   4.540  0.0585 -0.6038 -0.2070
 7142SOL    HW122325   4.461   1.180   4.515 -1.2570 -1.2779 -0.4120
 7142SOL    HW222326   4.491   1.077   4.638  0.3795 -0.5143 -0.1524
 7143SOL     OW22327   1.595   3.915   6.860  0.5914 -0.0945 -0.2937
 7143SOL    HW122328   1.604   3.932   6.958  1.1081 -0.4265 -0.2771
 7143SOL    HW222329   1.504   3.880   6.840  0.7870 -0.9242  0.2124
 7144SOL     OW22330   5.523   2.671   3.867 -0.4700 -0.6441 -0.4032
 7144SOL    HW122331   5.440   2.616   3.878  0.1213 -1.6409 -0.8014
 7144SOL    HW222332   5.592   2.618   3.818  0.2271  0.3603 -0.5409
 7145SOL     OW22333   4.584   3.709   1.039  0.4147 -0.2102  0.0520
 7145SOL    HW122334   4.640   3.723   0.957  4.4210  0.1404  2.5618
 7145SOL    HW222335   4.593   3.615   1.070 -0.8716 -0.2807  0.2453
 7146SOL     OW22336   2.924   0.049   5.694  0.5144  0.4620 -0.0882
 7146SOL    HW122337   2.947  -0.047   5.678 -1.5621 -0.0960  0.0241
 7146SOL    HW222338   2.848   0.076   5.635  1.2197  2.1398 -0.2917
 7147SOL     OW22339   4.590   4.361   2.757  0.1010  0.8291  0.2994
 7147SOL    HW122340   4.501   4.393   2.725 -0.2247  0.9100  1.2592
 7147SOL    HW222341   4.592   4.362   2.857  0.7876 -0.2454  0.3117
 7148SOL     OW22342   5.738   1.873   6.391  0.1592  0.0816 -0.1844
 7148SOL    HW122343   5.746   1.832   6.483 -0.5163  0.7671  0.1856
 7148SOL    HW222344   5.662   1.831   6.342  0.4385 -0.1911 -0.3959
 7149SOL     OW22345   5.038   4.672   5.805 -0.5068 -0.1437  0.0954
 7149SOL    HW122346   4.972   4.710   5.741  0.8313 -0.4629 -1.5466
 7149SOL    HW222347   5.070   4.744   5.867 -2.7006 -0.0954  1.2626
 7150SOL     OW22348   4.124   4.223   6.065 -0.2594 -0.0556 -1.1689
 7150SOL    HW122349   4.029   4.221   6.098  0.4177  0.1285  0.9561
 7150SOL    HW222350   4.166   4.311   6.090  0.4253 -0.0373 -2.3011
 7151SOL     OW22351   1.590   6.662   0.510 -0.6545  0.2229 -0.1931
 7151SOL    HW122352   1.546   6.724   0.575 -0.2483  0.0087  0.2954
 7151SOL    HW222353   1.546   6.572   0.514  1.3438 -0.7814  2.1498
 7152SOL     OW22354   0.752   1.796   1.921 -0.6109  0.2321  0.1698
 7152SOL    HW122355   0.661   1.783   1.881 -2.3698 -2.4741  4.3353
 7152SOL    HW222356   0.749   1.871   1.987  0.2408  0.2497  0.1993
 7153SOL     OW22357   3.286   6.906   0.330 -0.1219 -0.9015 -0.4925
 7153SOL    HW122358   3.367   6.853   0.306  0.3896  0.1608 -1.1504
 7153SOL    HW222359   3.295   7.000   0.297 -1.5216 -0.6998 -0.3877
 7154SOL     OW22360   2.371   1.278   4.430 -0.7374  0.2148 -0.2695
 7154SOL    HW122361   2.356   1.272   4.528 -0.7124  1.3166 -0.1819
 7154SOL    HW222362   2.407   1.191   4.396  1.4598  0.5153  1.0882
 7155SOL     OW22363   3.871   0.995   2.191  0.6505  0.2889  0.8102
 7155SOL    HW122364   3.960   1.020   2.153  0.7174 -0.3908  0.5007
 7155SOL    HW222365   3.861   1.037   2.281  0.2305  2.4039 -0.1799
 7156SOL     OW22366   6.360   5.066   0.115 -0.0444 -0.0113 -0.7228
 7156SOL    HW122367   6.390   5.134   0.048  1.0792  0.4451  0.2093
 7156SOL    HW222368   6.373   5.102   0.208 -1.6740 -0.5849 -0.2394
 7157SOL     OW22369   4.595   4.970   6.043  0.3023  0.1268 -0.0927
 7157SOL    HW122370   4.579   4.878   6.080 -0.6289  1.1333  2.2211
 7157SOL    HW222371   4.508   5.020   6.042  1.0210  1.4029 -0.0318
 7158SOL     OW22372   4.768   1.211   1.567 -0.3240  0.3267 -0.2128
 7158SOL    HW122373   4.750   1.300   1.610  0.1397 -0.2234  1.1958
 7158SOL    HW222374   4.687   1.182   1.516 -0.5129  1.5110 -0.6224
 7159SOL     OW22375   1.787   5.830   2.099  0.0395 -0.1067  0.2404
 7159SOL    HW122376   1.697   5.824   2.056  0.4764  1.6294 -1.0357
 7159SOL    HW222377   1.858   5.833   2.028  1.0547 -0.5566  1.1965
 7160SOL     OW22378   6.232   0.968   2.102  0.5515 -0.5798  1.2036
 7160SOL    HW122379   6.178   0.885   2.096  0.7552 -0.6393 -0.4047
 7160SOL    HW222380   6.176   1.046   2.073  1.6172 -0.8375 -2.0313
 7161SOL     OW22381   3.446   4.088   3.983  0.0610  0.0216  0.3502
 7161SOL    HW122382   3.532   4.074   3.933 -0.8563 -2.1183 -0.7662
 7161SOL    HW222383   3.369   4.078   3.920 -1.0508  0.6026  1.5838
 7162SOL     OW22384   1.525   5.276   3.006 -0.0998  0.1399  0.0439
 7162SOL    HW122385   1.556   5.265   3.100 -0.5566 -0.4471  0.1266
 7162SOL    HW222386   1.485   5.190   2.973 -0.2306  0.4331 -0.5786
 7163SOL     OW22387   1.916   0.658   2.417  0.0456  0.6035 -0.1590
 7163SOL    HW122388   1.928   0.576   2.473 -0.1967  0.2454 -0.6231
 7163SOL    HW222389   1.944   0.638   2.323 -0.0943  1.0337 -0.2937
 7164SOL     OW22390   1.103   6.817   6.138 -0.1960 -0.1810 -0.5495
 7164SOL    HW122391   1.117   6.897   6.197 -0.6165  0.7553 -1.6675
 7164SOL    HW222392   1.006   6.808   6.117  0.0729  0.3470 -2.1829
 7165SOL     OW22393   5.927   0.064   0.868 -0.0733  0.0663  0.3752
 7165SOL    HW122394   5.937   0.079   0.770  0.4781  0.1283  0.4396
 7165SOL    HW222395   5.876   0.140   0.909  0.7481  0.6556  0.3321
 7166SOL     OW22396   4.986   6.054   0.094 -0.4791  0.6467  0.4595
 7166SOL    HW122397   5.051   6.021   0.161 -1.7016  0.0413  1.3837
 7166SOL    HW222398   4.921   5.982   0.071  0.5991  0.4187 -2.3320
 7167SOL     OW22399   4.630   1.434   5.372  0.3615 -0.4571 -0.5945
 7167SOL    HW122400   4.684   1.351   5.382 -1.6147 -1.9424 -1.4989
 7167SOL    HW222401   4.578   1.430   5.287 -0.5826  1.2282 -0.1511
 7168SOL     OW22402   1.489   2.191   1.728  0.2162 -0.5874 -0.2986
 7168SOL    HW122403   1.482   2.274   1.783 -3.8642 -1.1231  0.2493
 7168SOL    HW222404   1.481   2.111   1.787 -1.9071 -1.2218 -1.3686
 7169SOL     OW22405   2.179   4.381   6.480  0.4315  0.0511 -0.3056
 7169SOL    HW122406   2.178   4.411   6.575  0.1967 -0.4985 -0.1325
 7169SOL    HW222407   2.184   4.461   6.420 -1.9093  0.5683  0.0903
 7170SOL     OW22408   4.244   1.546   1.509 -0.2576  0.3456  0.1174
 7170SOL    HW122409   4.205   1.506   1.592  4.2725 -1.7381  1.5958
 7170SOL    HW222410   4.306   1.620   1.535 -0.8491  1.5531 -1.7609
 7171SOL     OW22411   6.855   2.947   0.083  0.7252 -0.0062 -0.0408
 7171SOL    HW122412   6.783   2.936   0.151  1.3654 -1.1736  0.4774
 7171SOL    HW222413   6.815   2.980  -0.003 -0.2163  0.6062  0.6192
 7172SOL     OW22414   6.963   1.962   5.438  0.8445  0.4705 -0.4567
 7172SOL    HW122415   7.017   1.951   5.355  0.8605 -0.1251 -0.3766
 7172SOL    HW222416   6.868   1.938   5.420  1.5105 -3.9011  0.5793
 7173SOL     OW22417   6.032   6.541   6.031 -0.5442 -0.5877  0.0273
 7173SOL    HW122418   6.022   6.629   6.077 -2.7158 -1.7276  1.9848
 7173SOL    HW222419   5.998   6.548   5.937  0.2887  0.8785 -0.1861
 7174SOL     OW22420   6.613   4.360   2.136  0.1714  0.2751  0.3372
 7174SOL    HW122421   6.592   4.267   2.166 -1.7317  0.6860  0.3643
 7174SOL    HW222422   6.530   4.405   2.104  0.8780  2.2786  1.1464
 7175SOL     OW22423   6.508   4.329   5.037  0.0114  0.0839 -0.2028
 7175SOL    HW122424   6.575   4.263   5.068 -0.6456 -0.1312  0.8250
 7175SOL    HW222425   6.418   4.285   5.029 -0.5827  0.9630  1.1543
 7176SOL     OW22426   5.599   2.327   6.310 -0.0019  0.8142  0.2256
 7176SOL    HW122427   5.506   2.291   6.299  0.9036 -1.6222 -0.1383
 7176SOL    HW222428   5.628   2.370   6.224 -0.0208 -0.4656 -0.4536
 7177SOL     OW22429   1.315   3.263   4.409  0.1366  0.3802  0.3578
 7177SOL    HW122430   1.266   3.270   4.495  0.9769 -1.9171  1.0981
 7177SOL    HW222431   1.363   3.349   4.391  0.4901  0.6960  2.5312
 7178SOL     OW22432   6.489   2.991   4.450  0.1066 -0.1839 -0.3415
 7178SOL    HW122433   6.581   3.021   4.475  0.4647 -0.5567 -1.1578
 7178SOL    HW222434   6.462   2.913   4.505 -0.0404  0.4063  0.4380
 7179SOL     OW22435   5.164   0.436   5.508  0.1716 -0.1362 -0.9663
 7179SOL    HW122436   5.232   0.416   5.578 -0.2463  0.7334 -0.2910
 7179SOL    HW222437   5.192   0.517   5.456 -0.9769  1.0824  0.2311
 7180SOL     OW22438   2.479   5.877   3.274 -0.2159 -0.7079 -0.1768
 7180SOL    HW122439   2.531   5.963   3.272  1.0198 -1.4631 -1.7018
 7180SOL    HW222440   2.387   5.896   3.311  0.6569  0.8846  1.3697
 7181SOL     OW22441   1.698   2.147   5.595  0.4593 -0.1046 -0.1042
 7181SOL    HW122442   1.710   2.069   5.657  1.5608  1.4940  1.8264
 7181SOL    HW222443   1.787   2.174   5.558  0.1842  0.5694 -0.2877
 7182SOL     OW22444   0.381   3.798   3.300  0.4358  0.3756 -0.4042
 7182SOL    HW122445   0.384   3.834   3.206  1.5855  0.1539 -0.4617
 7182SOL    HW222446   0.313   3.725   3.305 -0.1348  0.8569 -0.8880
 7183SOL     OW22447   1.644   5.571   0.497  0.0975  0.1180  0.1952
 7183SOL    HW122448   1.715   5.541   0.561  1.8749  0.9148 -1.3023
 7183SOL    HW222449   1.571   5.618   0.547  1.3669  0.6199  1.6472
 7184SOL     OW22450   1.560   6.059   4.170  0.6457  0.2400  0.4620
 7184SOL    HW122451   1.636   6.114   4.135  0.5954 -0.6283 -1.1041
 7184SOL    HW222452   1.564   5.968   4.130 -0.2009 -0.4086  1.7730
 7185SOL     OW22453   3.857   6.666   5.032  0.0498  0.1224  0.0617
 7185SOL    HW122454   3.831   6.671   4.935  0.6398 -0.6800 -0.1442
 7185SOL    HW222455   3.953   6.641   5.040 -0.2345 -0.7594  0.8683
 7186SOL     OW22456   5.348   0.921   5.793 -0.6746  0.0879  0.3332
 7186SOL    HW122457   5.315   0.960   5.707 -0.1535  1.5007  0.7379
 7186SOL    HW222458   5.440   0.956   5.812 -0.6751 -0.4203  1.3268
 7187SOL     OW22459   2.647   0.504   4.253 -0.1452  0.3751  0.2183
 7187SOL    HW122460   2.717   0.497   4.324 -0.7838  0.6346  0.8894
 7187SOL    HW222461   2.666   0.437   4.181 -0.2208 -0.8352  1.2853
 7188SOL     OW22462   3.938   4.466   6.653 -0.2374 -0.5128 -0.1539
 7188SOL    HW122463   3.940   4.565   6.668  1.4788 -0.7972  2.0229
 7188SOL    HW222464   4.008   4.441   6.586  3.7934 -0.6453  3.5903
 7189SOL     OW22465   5.850   2.058   3.451  0.0284 -0.0942  0.3842
 7189SOL    HW122466   5.913   2.008   3.510  0.0296 -0.4053  0.1242
 7189SOL    HW222467   5.853   2.018   3.359  0.6277  0.8860 -0.0408
 7190SOL     OW22468   5.892   6.436   1.817 -0.2514  0.0129  0.4889
 7190SOL    HW122469   5.867   6.435   1.720  1.0573 -1.4392  0.1237
 7190SOL    HW222470   5.881   6.344   1.855  0.5658  0.2631  1.3658
 7191SOL     OW22471   5.418   1.538   4.398  0.0066 -0.2609 -0.6084
 7191SOL    HW122472   5.448   1.485   4.319  1.1437 -2.3174  1.0804
 7191SOL    HW222473   5.364   1.480   4.459  3.2478 -0.4193  2.4910
 7192SOL     OW22474   0.943   4.940   5.806  0.1261  0.2916 -0.3721
 7192SOL    HW122475   0.948   4.970   5.710 -1.3071 -0.0950 -0.6009
 7192SOL    HW222476   0.916   4.844   5.809 -1.3081  0.6862  0.4167
 7193SOL     OW22477   5.545   2.374   3.176  0.0075 -0.2948 -0.1798
 7193SOL    HW122478   5.474   2.324   3.226 -0.9421  1.2942  0.1260
 7193SOL    HW222479   5.634   2.331   3.193 -0.6788 -1.4450  0.6268
 7194SOL     OW22480   2.833   3.249   1.440 -0.4241  0.0207 -0.1286
 7194SOL    HW122481   2.757   3.313   1.454 -0.6755 -0.2686 -0.1766
 7194SOL    HW222482   2.806   3.157   1.468  0.6902  0.3223  2.1424
 7195SOL     OW22483   1.412   3.557   5.998  0.6555 -0.5139  0.2040
 7195SOL    HW122484   1.397   3.500   5.917 -4.1557  1.1647 -0.4106
 7195SOL    HW222485   1.361   3.519   6.075  0.8190  0.7172  0.9432
 7196SOL     OW22486   3.612   3.953   2.595  0.3598  0.4130  0.2810
 7196SOL    HW122487   3.671   4.023   2.555 -0.1937  0.9849  0.4591
 7196SOL    HW222488   3.521   3.957   2.552  0.2692 -0.0815  0.4133
 7197SOL     OW22489   2.140   3.660   4.439 -0.1288  0.0459 -0.3239
 7197SOL    HW122490   2.154   3.741   4.495  1.0014  1.0735 -1.9768
 7197SOL    HW222491   2.065   3.606   4.475 -0.1071  1.1851  1.5314
 7198SOL     OW22492   0.604   2.933   1.109 -0.3370  0.4496  0.0979
 7198SOL    HW122493   0.546   2.931   1.191 -1.4349  1.1949 -0.6328
 7198SOL    HW222494   0.647   3.023   1.102 -0.2683  0.3955 -0.1585
 7199SOL     OW22495   0.195   1.171   1.823  0.0133  0.5970 -0.0931
 7199SOL    HW122496   0.171   1.099   1.887 -1.2335  0.4862 -0.6486
 7199SOL    HW222497   0.149   1.155   1.736  0.5356  1.5105 -0.5527
 7200SOL     OW22498   2.589   2.666   1.246 -0.3579 -0.1507 -0.4186
 7200SOL    HW122499   2.558   2.640   1.337 -1.4550  0.2963 -0.6400
 7200SOL    HW222500   2.686   2.643   1.235 -0.7956 -2.5296 -0.0075
 7201SOL     OW22501   0.346   5.491   2.942  0.2061 -0.3925  0.2162
 7201SOL    HW122502   0.398   5.520   3.023  0.1714 -2.2702  0.9773
 7201SOL    HW222503   0.249   5.490   2.963 -0.0876  1.9564 -0.8285
 7202SOL     OW22504   4.294   2.766   6.326  0.1030 -0.3985  0.2807
 7202SOL    HW122505   4.235   2.718   6.261 -0.2393 -0.9032  0.9464
 7202SOL    HW222506   4.389   2.747   6.306  0.1324  1.2618 -1.4651
 7203SOL     OW22507   2.594   0.498   2.106 -0.4257  0.0711  0.3264
 7203SOL    HW122508   2.510   0.532   2.148 -0.3575 -0.8407  1.2227
 7203SOL    HW222509   2.571   0.429   2.037 -0.5338  1.5191 -1.1626
 7204SOL     OW22510   0.977   0.983   1.878  0.0967 -0.7431  0.4794
 7204SOL    HW122511   0.911   0.981   1.804 -0.5617  0.1296  1.0171
 7204SOL    HW222512   1.022   1.073   1.880 -0.0652 -0.6670  1.2561
 7205SOL     OW22513   1.580   3.074   5.963  0.2120  0.9413 -0.0263
 7205SOL    HW122514   1.499   3.121   5.999 -0.7394 -0.6045 -0.0537
 7205SOL    HW222515   1.608   3.003   6.028  0.9621  0.8129 -0.4825
 7206SOL     OW22516   2.446   2.605   1.485  0.5004  0.6742  0.7977
 7206SOL    HW122517   2.418   2.659   1.564 -1.8132  0.5250  0.1571
 7206SOL    HW222518   2.408   2.513   1.491 -0.7972  1.0229 -1.0158
 7207SOL     OW22519   0.448   1.208   5.931 -0.2827  0.1704 -1.0479
 7207SOL    HW122520   0.364   1.218   5.878 -0.8832 -2.7911 -0.8382
 7207SOL    HW222521   0.435   1.247   6.022 -1.1683  0.4365 -1.2789
 7208SOL     OW22522   4.135   0.814   5.345 -0.7572 -0.4558  0.2367
 7208SOL    HW122523   4.127   0.891   5.408 -0.3554  0.1603 -0.4521
 7208SOL    HW222524   4.172   0.845   5.257  0.9301 -1.6979  0.4529
 7209SOL     OW22525   1.645   2.012   3.974 -0.5457  0.1961 -0.6236
 7209SOL    HW122526   1.693   1.964   4.047 -0.9713  0.5656 -0.0804
 7209SOL    HW222527   1.592   2.087   4.014 -2.2829 -0.7317 -1.0685
 7210SOL     OW22528   3.506   1.160   3.351  0.1898  0.6807  1.0173
 7210SOL    HW122529   3.559   1.213   3.417 -1.6396  0.4870  2.6969
 7210SOL    HW222530   3.412   1.192   3.349 -0.3894 -0.9453  0.2947
 7211SOL     OW22531   4.641   5.125   5.519 -0.5619 -0.1341 -0.6228
 7211SOL    HW122532   4.551   5.125   5.562 -1.3860  1.5171 -2.2052
 7211SOL    HW222533   4.648   5.202   5.456  1.5767 -0.8684 -1.3831
 7212SOL     OW22534   5.447   4.743   0.406 -0.0343 -0.2515  0.6641
 7212SOL    HW122535   5.463   4.770   0.501  2.6286  0.8136  0.0038
 7212SOL    HW222536   5.501   4.661   0.385 -1.0509 -0.8197  0.1974
 7213SOL     OW22537   2.136   0.290   2.156  0.3030  0.2432 -0.3539
 7213SOL    HW122538   2.150   0.226   2.231 -1.6966 -1.2839 -1.1568
 7213SOL    HW222539   2.038   0.309   2.146  0.6955  2.0439 -1.2934
 7214SOL     OW22540   0.956   0.683   6.114 -0.5833  0.3527  0.3010
 7214SOL    HW122541   0.885   0.639   6.169 -0.2718 -1.2400 -0.5042
 7214SOL    HW222542   0.917   0.711   6.026 -0.3748  0.0310  0.1020
 7215SOL     OW22543   5.663   1.787   2.942 -0.6301  0.1770 -0.0728
 7215SOL    HW122544   5.674   1.779   3.041  2.5040  2.2548 -0.1196
 7215SOL    HW222545   5.718   1.718   2.897 -0.1719  0.7136 -0.3473
 7216SOL     OW22546   1.992   5.575   4.465 -0.2976  0.2665 -0.1225
 7216SOL    HW122547   1.953   5.579   4.373 -0.9566  0.4283  0.1584
 7216SOL    HW222548   1.947   5.502   4.517 -1.3575  1.4598  0.7111
 7217SOL     OW22549   0.997   3.293   4.127 -0.6378  0.2164  0.2077
 7217SOL    HW122550   0.996   3.381   4.174  2.6409  0.6989 -0.3780
 7217SOL    HW222551   0.911   3.281   4.078 -1.3588  2.8837  0.6433
 7218SOL     OW22552   4.972   3.735   6.665  0.0537 -0.5521  0.2333
 7218SOL    HW122553   5.070   3.723   6.674  0.0841 -0.1246  0.5110
 7218SOL    HW222554   4.943   3.814   6.719 -0.3562 -0.3278 -0.3014
 7219SOL     OW22555   2.909   4.741   2.248 -0.1492  0.1773  0.0100
 7219SOL    HW122556   2.859   4.819   2.209 -0.6936 -0.2928 -0.2379
 7219SOL    HW222557   2.923   4.672   2.177 -1.1049 -0.6681  0.6153
 7220SOL     OW22558   0.115   4.145   3.630  0.0097  0.2023  0.1473
 7220SOL    HW122559   0.171   4.119   3.709  2.9603  1.7443 -1.2994
 7220SOL    HW222560   0.044   4.076   3.616  2.6133 -2.9229  1.0489
 7221SOL     OW22561   3.805   4.473   6.149  0.2174 -0.1356  0.6760
 7221SOL    HW122562   3.760   4.507   6.066  1.4254  0.2903  0.1708
 7221SOL    HW222563   3.891   4.523   6.163  0.7331 -1.1931  1.3905
 7222SOL     OW22564   0.260   6.965   3.012 -0.8541  0.2339  0.0599
 7222SOL    HW122565   0.311   7.039   2.969  2.0254 -2.7174 -2.0311
 7222SOL    HW222566   0.282   6.962   3.109 -0.2811  1.4765 -0.0077
 7223SOL     OW22567   3.820   3.035   1.251  0.1007  0.8813 -0.1533
 7223SOL    HW122568   3.768   2.979   1.186  0.9116  0.5451 -0.5336
 7223SOL    HW222569   3.813   2.996   1.343  0.1976  0.4687 -0.3173
 7224SOL     OW22570   5.708   2.098   2.582  0.2217  0.6045 -0.2962
 7224SOL    HW122571   5.697   2.186   2.628 -2.0123  1.4728 -2.3121
 7224SOL    HW222572   5.726   2.113   2.485  0.1748 -1.1835 -0.6152
 7225SOL     OW22573   2.497   0.247   6.783 -0.0580 -0.0316  0.3930
 7225SOL    HW122574   2.482   0.172   6.719 -0.5660  1.7576 -1.6812
 7225SOL    HW222575   2.410   0.290   6.807  0.2809  0.3298  1.0298
 7226SOL     OW22576   0.837   6.445   1.308 -0.8527  0.0156 -0.4966
 7226SOL    HW122577   0.906   6.377   1.335 -0.9369  0.7345  1.7205
 7226SOL    HW222578   0.880   6.535   1.299 -1.2656  0.2233 -0.4047
 7227SOL     OW22579   1.861   6.809   2.179  0.1346  0.2810 -0.0173
 7227SOL    HW122580   1.856   6.806   2.079 -0.2439 -1.7493  0.0294
 7227SOL    HW222581   1.952   6.782   2.209  0.1370  0.5327  0.2086
 7228SOL     OW22582   1.654   2.815   1.241 -0.2623 -0.1762  0.9035
 7228SOL    HW122583   1.582   2.858   1.295 -0.2029  0.2807  0.6183
 7228SOL    HW222584   1.742   2.828   1.287 -0.2085  0.2329  0.6846
 7229SOL     OW22585   7.020   6.017   4.012  0.0732  0.1418 -0.2625
 7229SOL    HW122586   6.983   6.106   3.985 -1.0035 -0.3524 -0.4680
 7229SOL    HW222587   7.059   5.972   3.931 -0.6992 -0.1822 -0.4641
 7230SOL     OW22588   3.183   6.750   4.283 -0.6096  0.3730 -0.4378
 7230SOL    HW122589   3.152   6.823   4.221 -0.9296  0.7475  0.1515
 7230SOL    HW222590   3.109   6.683   4.294  0.4519 -1.3122 -2.7928
 7231SOL     OW22591   4.734   1.366   0.343  0.4698 -0.3355 -0.0864
 7231SOL    HW122592   4.709   1.445   0.287  0.8829 -1.0633 -1.3247
 7231SOL    HW222593   4.693   1.284   0.305  0.7442 -0.8513  0.7007
 7232SOL     OW22594   4.791   6.457   3.269 -0.5890  0.6790 -0.5214
 7232SOL    HW122595   4.702   6.422   3.237 -0.8124 -0.8146  1.5268
 7232SOL    HW222596   4.862   6.431   3.204 -1.1569 -1.4176 -0.3981
 7233SOL     OW22597   6.840   5.011   4.547 -0.4117  0.3586 -0.0043
 7233SOL    HW122598   6.838   5.101   4.504  0.8265 -0.2282 -1.3737
 7233SOL    HW222599   6.922   4.962   4.519 -0.4551 -0.7642  1.6596
 7234SOL     OW22600   6.206   2.404   3.687 -0.0892 -0.0520  0.2603
 7234SOL    HW122601   6.235   2.499   3.680  0.6814 -0.4153 -2.8335
 7234SOL    HW222602   6.127   2.387   3.628  0.5999 -1.5940 -0.2889
 7235SOL     OW22603   1.191   4.905   2.163  0.0579  0.1379  0.0793
 7235SOL    HW122604   1.169   4.966   2.240  0.3036 -0.4191  0.5953
 7235SOL    HW222605   1.113   4.902   2.101 -0.5860 -0.2696  0.8785
 7236SOL     OW22606   1.949   1.484   4.096  0.1080 -0.0844  0.1916
 7236SOL    HW122607   2.047   1.507   4.102  0.2034 -0.7679  1.7339
 7236SOL    HW222608   1.927   1.457   4.002  1.4029  0.0567 -0.1803
 7237SOL     OW22609   5.082   0.446   6.721 -0.5346 -0.1453 -0.3799
 7237SOL    HW122610   5.167   0.397   6.740  0.5403  1.2452 -1.3694
 7237SOL    HW222611   5.034   0.466   6.806  1.0993  0.7049  0.3800
 7238SOL     OW22612   5.198   3.178   2.061 -0.2344 -0.2912  0.2812
 7238SOL    HW122613   5.188   3.127   2.146 -0.3570  0.6327  0.8359
 7238SOL    HW222614   5.287   3.223   2.059  0.2951 -1.3150 -0.6614
 7239SOL     OW22615   0.321   4.636   3.196  0.3515 -0.4602  0.5736
 7239SOL    HW122616   0.405   4.634   3.249  0.5253  2.5451  0.5958
 7239SOL    HW222617   0.343   4.657   3.100 -0.3500  0.8000  0.6664
 7240SOL     OW22618   0.571   2.464   5.829 -0.2016  0.3293  0.3536
 7240SOL    HW122619   0.665   2.429   5.828 -0.0325  0.6884  1.6734
 7240SOL    HW222620   0.507   2.389   5.811  0.2477 -0.3451  1.4712
 7241SOL     OW22621   0.407   0.553   0.666 -0.0403  0.1807 -0.1735
 7241SOL    HW122622   0.346   0.613   0.615  0.5409  0.5670 -0.4252
 7241SOL    HW222623   0.355   0.477   0.704 -0.6999  0.5795 -0.2625
 7242SOL     OW22624   1.404   1.132   3.744  0.4983  0.0306  0.2646
 7242SOL    HW122625   1.347   1.147   3.825  0.4018 -0.1869  0.2393
 7242SOL    HW222626   1.498   1.115   3.772  0.1085 -2.1576  0.4963
 7243SOL     OW22627   0.523   3.785   4.942  0.1575 -0.2109  0.4212
 7243SOL    HW122628   0.593   3.844   4.902 -0.2259 -0.9534 -1.4884
 7243SOL    HW222629   0.434   3.810   4.905 -0.1330 -1.3568  0.3125
 7244SOL     OW22630   6.374   1.460   6.538 -0.1919 -0.2775 -0.3835
 7244SOL    HW122631   6.413   1.518   6.467  0.1670 -0.1557 -0.0903
 7244SOL    HW222632   6.277   1.443   6.518 -0.4257  0.8133 -0.2339
 7245SOL     OW22633   2.720   3.110   0.676 -0.7403 -0.1497  0.3312
 7245SOL    HW122634   2.811   3.107   0.719 -0.3384 -1.9353 -0.5491
 7245SOL    HW222635   2.713   3.037   0.608 -0.8382  3.2601 -3.7484
 7246SOL     OW22636   2.958   6.704   4.693  0.0186 -0.2391 -0.5248
 7246SOL    HW122637   3.037   6.745   4.739 -0.3774 -0.8357  0.7337
 7246SOL    HW222638   2.874   6.733   4.740 -0.3699 -1.1881 -0.6089
 7247SOL     OW22639   2.949   1.358   5.136  0.0792  0.2830 -0.2984
 7247SOL    HW122640   3.014   1.401   5.073 -0.8246  1.1857 -0.6431
 7247SOL    HW222641   2.975   1.378   5.230  0.4536  0.4060 -0.4276
 7248SOL     OW22642   2.641   1.251   3.585 -0.3374 -0.1128  0.3333
 7248SOL    HW122643   2.612   1.214   3.673 -0.7559  1.6891  1.0030
 7248SOL    HW222644   2.561   1.268   3.528 -0.2242  0.3841  0.3145
 7249SOL     OW22645   6.082   4.863   2.663  0.4066 -0.2524 -0.0645
 7249SOL    HW122646   6.008   4.825   2.607  0.4962  2.0532 -1.8695
 7249SOL    HW222647   6.043   4.904   2.746 -0.2242 -0.0658 -0.4458
 7250SOL     OW22648   5.257   5.070   4.925 -0.4357  0.1398  0.2193
 7250SOL    HW122649   5.302   5.150   4.887 -0.8270  0.4676  0.4384
 7250SOL    HW222650   5.322   5.016   4.978  0.2653 -0.6064 -1.3156
 7251SOL     OW22651   0.824   6.198   3.965  0.4119 -0.5004 -0.5255
 7251SOL    HW122652   0.744   6.241   4.006  2.3251  0.2693  2.7618
 7251SOL    HW222653   0.819   6.099   3.978  0.0819 -0.4326 -0.1322
 7252SOL     OW22654   2.919   3.855   4.854 -0.3923  0.2423 -0.4290
 7252SOL    HW122655   2.900   3.851   4.756 -0.1278  0.6560 -0.5029
 7252SOL    HW222656   2.890   3.770   4.898 -0.1502 -0.1009 -0.9285
 7253SOL     OW22657   0.760   4.372   0.547 -0.4820  0.3112  0.8811
 7253SOL    HW122658   0.822   4.300   0.518 -0.7860  1.4780 -3.2490
 7253SOL    HW222659   0.670   4.332   0.568  0.1856 -0.7883  1.7596
 7254SOL     OW22660   6.360   5.144   3.524 -0.7046  0.0336  0.2294
 7254SOL    HW122661   6.448   5.169   3.483  0.2603 -1.2377  1.4696
 7254SOL    HW222662   6.375   5.094   3.609 -2.6453  0.2681  0.7587
 7255SOL     OW22663   4.519   2.585   3.535 -0.4147 -0.1474 -0.2034
 7255SOL    HW122664   4.487   2.595   3.630 -3.0542  0.7155 -1.0956
 7255SOL    HW222665   4.593   2.650   3.518  0.8870 -1.0774  1.5119
 7256SOL     OW22666   2.032   5.632   6.062  0.4828 -0.2801  0.4633
 7256SOL    HW122667   2.118   5.667   6.099  2.6032 -4.4090  0.0088
 7256SOL    HW222668   2.040   5.620   5.964 -1.3991  1.0322  0.0986
 7257SOL     OW22669   6.588   1.593   4.053 -0.2508  0.0025 -0.7867
 7257SOL    HW122670   6.641   1.533   3.994 -0.1699 -0.6394 -0.0793
 7257SOL    HW222671   6.490   1.584   4.032 -0.2156 -0.1705 -0.8756
 7258SOL     OW22672   6.394   2.535   3.292  0.3638  0.2708  0.4471
 7258SOL    HW122673   6.382   2.446   3.336  2.5421 -0.8812 -1.0341
 7258SOL    HW222674   6.429   2.521   3.199  2.5792  2.6572  0.7869
 7259SOL     OW22675   0.886   2.776   4.824  0.1127 -0.8090 -0.3214
 7259SOL    HW122676   0.901   2.707   4.752  2.5906 -1.0525  0.3412
 7259SOL    HW222677   0.870   2.865   4.781 -2.0136 -1.5327 -1.1764
 7260SOL     OW22678   5.883   3.324   1.057  0.0553 -0.0228 -0.0808
 7260SOL    HW122679   5.941   3.243   1.065 -1.2458 -0.9170  0.7440
 7260SOL    HW222680   5.836   3.323   0.969  0.2895 -0.0003 -0.2048
 7261SOL     OW22681   0.862   3.512   0.923  0.0741 -0.2138 -0.1466
 7261SOL    HW122682   0.890   3.603   0.892 -1.7673 -0.3057 -2.3692
 7261SOL    HW222683   0.924   3.443   0.884  3.4354  0.0632  4.0215
 7262SOL     OW22684   5.516   2.466   5.389  0.0675  0.7664  0.3350
 7262SOL    HW122685   5.602   2.415   5.380  0.4948  1.2023  1.7288
 7262SOL    HW222686   5.440   2.408   5.359  0.7661  0.1453 -0.2973
 7263SOL     OW22687   6.867   5.983   1.052 -0.5495  0.1059  0.3725
 7263SOL    HW122688   6.949   5.994   0.996  0.1907 -0.7462  1.2648
 7263SOL    HW222689   6.792   5.948   0.995  0.3315 -1.2388  0.0027
 7264SOL     OW22690   5.976   2.011   0.471 -0.3189  0.2417 -0.6070
 7264SOL    HW122691   5.896   1.974   0.517  0.1646  0.0630  0.1142
 7264SOL    HW222692   5.948   2.059   0.388 -1.2618  0.8666  0.0469
 7265SOL     OW22693   5.276   4.397   4.204  0.2604  0.3006 -0.2749
 7265SOL    HW122694   5.250   4.489   4.232  0.0603  0.0330  0.4410
 7265SOL    HW222695   5.244   4.331   4.273  1.1305 -0.2219 -0.3619
 7266SOL     OW22696   6.703   1.177   3.934  0.3000  0.5263 -0.2316
 7266SOL    HW122697   6.780   1.140   3.882 -1.2504 -0.8672 -1.6840
 7266SOL    HW222698   6.693   1.274   3.915  1.0544  0.4833 -0.8908
 7267SOL     OW22699   6.687   6.825   6.324 -0.1113  0.6884  0.4461
 7267SOL    HW122700   6.703   6.740   6.274  1.1415  0.8941  0.4747
 7267SOL    HW222701   6.667   6.898   6.259 -1.0747  0.4113  0.4144
 7268SOL     OW22702   6.734   5.888   3.861 -0.3080  0.0671  0.7063
 7268SOL    HW122703   6.750   5.919   3.954 -2.1228  0.4140  0.9428
 7268SOL    HW222704   6.635   5.881   3.845 -0.0150 -1.6393 -0.6503
 7269SOL     OW22705   2.017   6.271   0.122  0.1477 -0.4887 -0.3348
 7269SOL    HW122706   1.969   6.325   0.191  1.6374  0.7205 -0.1959
 7269SOL    HW222707   2.104   6.315   0.100  0.6922 -2.0201 -1.3919
 7270SOL     OW22708   0.120   1.782   4.438 -0.2914 -0.1438  0.0255
 7270SOL    HW122709   0.091   1.752   4.530 -0.8805  0.4387  0.0405
 7270SOL    HW222710   0.170   1.709   4.393  0.0389 -0.4253  0.8324
 7271SOL     OW22711   0.650   5.277   2.955 -0.6067 -0.1044  0.2261
 7271SOL    HW122712   0.711   5.232   2.891 -0.5047 -1.5128  1.2584
 7271SOL    HW222713   0.687   5.366   2.981  0.2058 -0.2695 -0.3486
 7272SOL     OW22714   5.194   5.905   2.534 -0.4953  0.0033 -0.8192
 7272SOL    HW122715   5.134   5.985   2.533  1.0735  1.2368 -0.3224
 7272SOL    HW222716   5.220   5.883   2.628  0.1034 -0.2922 -1.0454
 7273SOL     OW22717   5.120   2.888   4.537  0.5184 -0.7140  0.4233
 7273SOL    HW122718   5.167   2.866   4.451  0.2913  0.8887 -0.1471
 7273SOL    HW222719   5.142   2.982   4.563 -1.7242 -0.1886  0.5715
 7274SOL     OW22720   0.637   5.084   5.432  0.8757 -0.5724 -0.0500
 7274SOL    HW122721   0.687   5.165   5.461  2.2411 -1.8474  1.3268
 7274SOL    HW222722   0.701   5.016   5.396 -0.0704 -1.5452  0.0402
 7275SOL     OW22723   0.793   1.402   2.659 -0.1745  0.0193  0.0162
 7275SOL    HW122724   0.813   1.468   2.732  0.9434  1.6560 -1.6668
 7275SOL    HW222725   0.713   1.434   2.607  1.3193  1.0581 -1.8120
 7276SOL     OW22726   3.902   5.620   4.623  0.7451 -0.4022  0.0885
 7276SOL    HW122727   3.897   5.539   4.680  2.3593 -0.6156 -0.0285
 7276SOL    HW222728   3.926   5.699   4.680 -1.3413  0.1250  0.2924
 7277SOL     OW22729   5.503   1.272   6.424  0.3661 -0.3002  0.0936
 7277SOL    HW122730   5.527   1.303   6.332  1.7504 -2.8687 -0.5342
 7277SOL    HW222731   5.434   1.200   6.417  1.4538 -1.4672  0.8929
 7278SOL     OW22732   3.093   3.985   2.311  0.2730  0.0884  0.2888
 7278SOL    HW122733   3.122   3.980   2.407 -0.5528  0.1885  0.5575
 7278SOL    HW222734   3.155   4.044   2.261  0.2949  0.6379  0.9392
 7279SOL     OW22735   1.482   5.705   0.287 -0.1542  0.0164 -0.2213
 7279SOL    HW122736   1.535   5.760   0.222  0.0130  1.2685  0.9407
 7279SOL    HW222737   1.542   5.674   0.361 -0.3625 -1.3228 -0.5834
 7280SOL     OW22738   6.138   5.713   6.538 -1.0753  0.0461  0.5584
 7280SOL    HW122739   6.149   5.637   6.473 -1.1663  1.9078 -1.7981
 7280SOL    HW222740   6.213   5.712   6.603  1.3573  0.2728 -2.0293
 7281SOL     OW22741   3.307   2.919   0.054 -0.6382  0.0928 -0.3800
 7281SOL    HW122742   3.223   2.906   0.107 -1.0419 -0.0306 -1.0355
 7281SOL    HW222743   3.357   2.997   0.090 -0.9789  0.1025  0.0895
 7282SOL     OW22744   6.209   4.077   1.870 -0.4352 -0.2469 -0.0229
 7282SOL    HW122745   6.265   3.995   1.862  0.3250  0.1839  0.7170
 7282SOL    HW222746   6.117   4.052   1.899 -0.7122 -0.9835 -1.4423
 7283SOL     OW22747   2.767   1.562   2.976 -0.2754  0.3419 -0.2980
 7283SOL    HW122748   2.831   1.567   2.900  0.7635  1.5456  0.6129
 7283SOL    HW222749   2.678   1.531   2.942  1.0968 -2.9004 -1.3568
 7284SOL     OW22750   0.139   4.419   3.579 -0.8653  0.0728  0.5276
 7284SOL    HW122751   0.121   4.329   3.619  1.1450 -0.2794  0.7443
 7284SOL    HW222752   0.235   4.442   3.590 -1.1484  1.8742 -0.3345
 7285SOL     OW22753   6.171   4.468   1.922  0.1629 -0.4113  0.1790
 7285SOL    HW122754   6.102   4.416   1.973 -0.2549  0.2285  0.2839
 7285SOL    HW222755   6.148   4.467   1.824  0.9598 -1.6316 -0.0192
 7286SOL     OW22756   2.089   0.712   0.511  0.2642  0.0625  0.1133
 7286SOL    HW122757   2.053   0.804   0.523  1.1737  0.3698  0.6175
 7286SOL    HW222758   2.086   0.687   0.414 -0.5161  0.3878  0.0433
 7287SOL     OW22759   1.223   3.711   6.392 -0.2747 -0.8145 -0.3482
 7287SOL    HW122760   1.308   3.729   6.341 -0.5031 -1.0003 -0.7956
 7287SOL    HW222761   1.153   3.679   6.330 -0.7670 -0.3819 -0.0236
 7288SOL     OW22762   3.754   0.540   4.734 -0.4394  0.4466  0.4688
 7288SOL    HW122763   3.725   0.489   4.652 -0.2472  0.1680  0.5726
 7288SOL    HW222764   3.746   0.638   4.716  0.6599  0.4131 -0.2746
 7289SOL     OW22765   5.919   1.093   3.490  0.2186 -0.2543  0.0886
 7289SOL    HW122766   6.016   1.103   3.470 -0.0670  1.3607 -0.6629
 7289SOL    HW222767   5.884   1.010   3.446  1.4024 -1.3235  1.0714
 7290SOL     OW22768   0.901   6.066   5.285 -0.8675  0.4565  0.5222
 7290SOL    HW122769   0.859   6.005   5.352 -0.4707 -1.0330 -0.5395
 7290SOL    HW222770   0.844   6.069   5.203  0.0680  0.0346 -0.1492
 7291SOL     OW22771   3.024   1.997   1.026 -0.1353  0.3968  0.3406
 7291SOL    HW122772   3.017   2.017   1.123 -2.8298  1.1542  0.0756
 7291SOL    HW222773   2.964   1.921   1.002  2.4017 -1.5226 -0.3871
 7292SOL     OW22774   2.547   1.940   3.772 -0.4706  0.4097  0.4279
 7292SOL    HW122775   2.596   1.876   3.832 -0.7052 -0.1035  0.0821
 7292SOL    HW222776   2.613   2.001   3.728 -0.3945  1.6835  2.1884
 7293SOL     OW22777   1.330   1.934   5.429 -0.2192 -0.3934 -0.7551
 7293SOL    HW122778   1.428   1.922   5.445 -0.2245 -0.5505 -0.8364
 7293SOL    HW222779   1.286   1.844   5.421 -1.0054 -0.5073  2.9451
 7294SOL     OW22780   2.539   4.299   0.045  0.3482 -0.4316  0.0564
 7294SOL    HW122781   2.610   4.345  -0.008 -0.9469  0.2663 -1.1290
 7294SOL    HW222782   2.561   4.201   0.053  2.2169  0.0298  1.0772
 7295SOL     OW22783   1.249   0.971   1.657  0.8387  0.7767 -0.3010
 7295SOL    HW122784   1.194   0.925   1.587  0.2902  2.3683 -0.9449
 7295SOL    HW222785   1.209   0.954   1.747 -0.0402  0.9718 -0.6490
 7296SOL     OW22786   1.799   5.429   3.333 -0.1968  0.4757  0.0868
 7296SOL    HW122787   1.833   5.498   3.269  1.4608  0.1773  0.5940
 7296SOL    HW222788   1.842   5.341   3.313 -0.2006  0.2214  1.1467
 7297SOL     OW22789   3.151   6.272   6.334  1.1244 -0.6664 -0.0507
 7297SOL    HW122790   3.179   6.368   6.342  2.4254 -0.9928 -0.5409
 7297SOL    HW222791   3.144   6.232   6.425 -0.4174  0.1430  0.2271
 7298SOL     OW22792   5.937   5.531   5.559 -0.0006  0.6953  0.0487
 7298SOL    HW122793   5.894   5.565   5.643  0.5963  0.3909  0.4875
 7298SOL    HW222794   5.895   5.576   5.480 -0.9897  0.5467  0.4649
 7299SOL     OW22795   6.453   2.637   0.123 -0.7873  0.0321  0.7333
 7299SOL    HW122796   6.433   2.555   0.068 -2.2357 -0.9707  2.6424
 7299SOL    HW222797   6.551   2.639   0.144 -0.5899 -0.7537 -0.0397
 7300SOL     OW22798   6.003   5.053   2.868  0.0061 -0.5667 -0.2945
 7300SOL    HW122799   6.046   5.132   2.824  0.6231 -1.8417 -2.1268
 7300SOL    HW222800   5.903   5.063   2.863  0.0202 -1.0200 -2.8250
 7301SOL     OW22801   6.441   0.118   3.318 -0.1277  0.1222  0.4627
 7301SOL    HW122802   6.411   0.023   3.314  3.1347 -1.0492  0.7768
 7301SOL    HW222803   6.496   0.140   3.237 -0.4355  1.6103  0.6176
 7302SOL     OW22804   1.449   3.091   1.279  0.4121  0.3086  0.3417
 7302SOL    HW122805   1.439   3.159   1.352 -0.0052 -1.0765  1.6149
 7302SOL    HW222806   1.437   3.136   1.191 -0.0449  1.8570  1.1495
 7303SOL     OW22807   3.969   1.828   7.001 -0.2233  0.5737  0.1256
 7303SOL    HW122808   3.926   1.770   7.071  0.5070  0.3292  0.3768
 7303SOL    HW222809   4.067   1.836   7.020 -0.0725  0.7433 -0.7167
 7304SOL     OW22810   4.022   5.699   0.416 -0.2477 -0.3279  0.0625
 7304SOL    HW122811   4.095   5.662   0.358  0.9281  2.0231 -0.0456
 7304SOL    HW222812   3.954   5.744   0.359 -1.5106 -1.9307  0.2220
 7305SOL     OW22813   4.844   0.909   6.623  0.4139 -0.0348 -0.2153
 7305SOL    HW122814   4.895   0.971   6.563  0.6370 -0.7166 -0.7578
 7305SOL    HW222815   4.862   0.933   6.718  0.8099  0.4815 -0.4113
 7306SOL     OW22816   5.514   4.536   1.888  0.7277  0.0444 -0.0723
 7306SOL    HW122817   5.424   4.576   1.870  0.4890 -0.7989 -0.8273
 7306SOL    HW222818   5.504   4.457   1.948  0.9413 -0.1760 -0.3244
 7307SOL     OW22819   4.746   7.012   2.984 -0.7674  0.0389 -0.1247
 7307SOL    HW122820   4.670   7.074   2.965 -2.0072 -1.1481  0.7089
 7307SOL    HW222821   4.733   6.971   3.074  2.0511  1.4428  1.0626
 7308SOL     OW22822   1.496   2.298   4.082 -0.9964 -0.4175  0.3401
 7308SOL    HW122823   1.402   2.329   4.064 -1.3305 -0.7378  1.4328
 7308SOL    HW222824   1.525   2.331   4.172 -1.7639 -3.9707  2.1052
 7309SOL     OW22825   4.532   0.089   6.894 -0.1268 -0.2847  0.9168
 7309SOL    HW122826   4.576   0.008   6.856 -1.3013 -0.3050 -0.5042
 7309SOL    HW222827   4.599   0.164   6.900 -0.0962  0.1261 -2.5353
 7310SOL     OW22828   1.894   3.850   2.796  0.2917  0.0566  0.2860
 7310SOL    HW122829   1.942   3.831   2.710 -1.0838 -2.4243 -0.0463
 7310SOL    HW222830   1.949   3.818   2.873  0.4570 -0.0147  0.1395
 7311SOL     OW22831   1.914   1.677   2.511 -0.5045 -0.3568  0.1137
 7311SOL    HW122832   1.876   1.768   2.525  0.5051  0.0563  0.2000
 7311SOL    HW222833   1.873   1.614   2.578  0.1077  0.4142  1.2327
 7312SOL     OW22834   0.059   1.865   5.909  0.2862  0.0159 -0.0053
 7312SOL    HW122835  -0.023   1.876   5.853 -0.7129 -3.6247  0.5303
 7312SOL    HW222836   0.128   1.813   5.859  1.1236  0.4928  0.6194
 7313SOL     OW22837   3.489   1.963   6.829 -0.5111  0.3567  0.1462
 7313SOL    HW122838   3.506   1.902   6.752  1.8044 -0.6667  1.3465
 7313SOL    HW222839   3.508   2.057   6.802  0.5811 -0.0222 -0.4804
 7314SOL     OW22840   6.639   1.753   4.258 -0.2993 -0.1148 -0.3343
 7314SOL    HW122841   6.622   1.703   4.172  4.2788 -1.9946 -0.4436
 7314SOL    HW222842   6.645   1.850   4.238 -2.2167 -0.1745 -1.5221
 7315SOL     OW22843   5.891   0.631   3.413  0.5948 -0.0961 -0.5191
 7315SOL    HW122844   5.976   0.643   3.464  0.6612  0.4957 -0.7616
 7315SOL    HW222845   5.851   0.542   3.435 -1.7541  1.7311  4.1059
 7316SOL     OW22846   3.251   3.825   5.943 -0.5921  0.2958 -0.4155
 7316SOL    HW122847   3.229   3.883   6.021 -0.5808  1.6549 -1.3637
 7316SOL    HW222848   3.224   3.872   5.859  0.4275 -0.6130 -1.2855
 7317SOL     OW22849   4.034   1.225   2.793 -0.3546  0.1840 -0.6101
 7317SOL    HW122850   3.952   1.201   2.844 -0.5616 -0.5156 -1.2626
 7317SOL    HW222851   4.075   1.142   2.754  1.0676  0.4112  0.2906
 7318SOL     OW22852   1.254   1.369   1.126 -0.0872 -0.2685 -0.5542
 7318SOL    HW122853   1.299   1.285   1.156  0.4826  0.0644 -0.4581
 7318SOL    HW222854   1.319   1.423   1.073 -0.5611 -0.0533 -0.9134
 7319SOL     OW22855   5.628   3.542   6.393 -0.2460 -0.1951  0.3410
 7319SOL    HW122856   5.660   3.449   6.377  1.7288  0.7612 -1.8694
 7319SOL    HW222857   5.683   3.584   6.464  0.0913 -0.1395  0.0486
 7320SOL     OW22858   2.426   4.321   1.033  0.0363 -0.0664 -0.0405
 7320SOL    HW122859   2.450   4.278   1.120  0.9331 -0.8757 -0.6717
 7320SOL    HW222860   2.416   4.251   0.963  1.7576  0.7587 -1.1543
 7321SOL     OW22861   3.204   1.209   5.407  0.0628 -0.5100 -0.0044
 7321SOL    HW122862   3.200   1.296   5.357 -0.0076 -0.8433 -0.5872
 7321SOL    HW222863   3.117   1.193   5.454  0.6014  0.4693  1.3729
 7322SOL     OW22864   1.648   2.173   2.715  0.1122 -0.3416 -0.2174
 7322SOL    HW122865   1.576   2.153   2.648  0.3892 -1.0860 -0.3085
 7322SOL    HW222866   1.737   2.174   2.669  0.1281  0.9630 -0.1749
 7323SOL     OW22867   2.010   1.431   1.853  0.3363  0.6490 -0.6392
 7323SOL    HW122868   2.046   1.438   1.946  1.9176  0.8226 -1.2410
 7323SOL    HW222869   2.033   1.514   1.802  0.1005  0.2530 -1.3991
 7324SOL     OW22870   5.118   0.639   1.658  0.0773 -0.2478  0.9695
 7324SOL    HW122871   5.208   0.638   1.614  0.8912 -0.7393  2.5625
 7324SOL    HW222872   5.114   0.567   1.727 -1.6981 -0.4925  0.6520
 7325SOL     OW22873   5.701   0.344   6.433  0.2404 -0.5510 -0.1521
 7325SOL    HW122874   5.707   0.246   6.414 -0.5064 -0.7986  0.7990
 7325SOL    HW222875   5.769   0.369   6.503 -0.5088 -0.6828  0.6414
 7326SOL     OW22876   1.814   6.740   5.265  0.0759 -0.2079  0.1271
 7326SOL    HW122877   1.776   6.831   5.247 -0.2993 -0.0492  1.6123
 7326SOL    HW222878   1.909   6.750   5.294  0.3415 -0.3844 -0.6442
 7327SOL     OW22879   6.802   2.004   6.954  0.5365 -0.1782  0.3329
 7327SOL    HW122880   6.739   2.049   6.891  1.0294 -1.1279 -0.8770
 7327SOL    HW222881   6.886   1.979   6.906  0.0783 -2.8908  0.7760
 7328SOL     OW22882   3.431   6.711   6.475 -0.3996  0.0693 -0.5281
 7328SOL    HW122883   3.444   6.672   6.566 -2.2392  0.1520 -0.1847
 7328SOL    HW222884   3.451   6.641   6.406  0.2629 -0.2224 -0.0571
 7329SOL     OW22885   4.261   4.649   1.431  0.1119  0.1760 -0.5655
 7329SOL    HW122886   4.349   4.678   1.394 -0.2807 -0.5436 -2.1430
 7329SOL    HW222887   4.267   4.553   1.459 -0.1547  0.1396 -0.6311
 7330SOL     OW22888   2.932   1.348   0.750  1.0471 -0.6696 -0.4341
 7330SOL    HW122889   2.876   1.378   0.827  0.5031 -1.6359 -0.4314
 7330SOL    HW222890   2.932   1.418   0.679  0.7664 -0.1755  0.0466
 7331SOL     OW22891   4.455   6.824   3.205  1.1124 -0.1758  0.0559
 7331SOL    HW122892   4.427   6.819   3.109 -1.1956  0.2905  0.6539
 7331SOL    HW222893   4.555   6.833   3.210  1.1702  1.3041 -2.3300
 7332SOL     OW22894   2.727   5.417   5.759 -0.4314  0.3167 -0.0898
 7332SOL    HW122895   2.741   5.325   5.795 -0.6870  0.5939  0.7390
 7332SOL    HW222896   2.797   5.478   5.798 -1.2969  0.8196  0.7051
 7333SOL     OW22897   0.582   2.055   4.514  0.2242 -0.1703 -0.4596
 7333SOL    HW122898   0.533   2.050   4.427 -3.1230  1.4362  1.1562
 7333SOL    HW222899   0.633   2.141   4.519 -0.5234  0.2770 -0.4087
 7334SOL     OW22900   3.585   4.792   6.916 -0.2406 -0.3790  0.3560
 7334SOL    HW122901   3.654   4.725   6.945 -0.6120 -0.8943  0.0526
 7334SOL    HW222902   3.626   4.883   6.914  1.0081 -0.9261 -1.7540
 7335SOL     OW22903   2.314   2.790   3.076 -0.0526 -0.2101  0.2453
 7335SOL    HW122904   2.317   2.691   3.082  2.1329 -0.1467  0.8686
 7335SOL    HW222905   2.302   2.817   2.980  0.4143 -1.0712 -0.0660
 7336SOL     OW22906   1.810   6.489   3.666  0.2462  0.5342  0.3681
 7336SOL    HW122907   1.745   6.540   3.609  0.3031  0.1751 -0.0168
 7336SOL    HW222908   1.798   6.517   3.761  2.1850  3.4135 -0.1128
 7337SOL     OW22909   1.719   3.002   1.683 -0.2541 -0.4851 -0.0793
 7337SOL    HW122910   1.747   2.951   1.765  0.5045  0.5354  0.3171
 7337SOL    HW222911   1.619   3.013   1.684 -0.2231 -0.0716  0.9868
 7338SOL     OW22912   1.089   1.581   1.080 -0.0340 -0.2221  0.2659
 7338SOL    HW122913   1.157   1.508   1.087  1.4007  0.5162 -3.3126
 7338SOL    HW222914   1.129   1.667   1.109 -0.2836 -0.1866  0.5066
 7339SOL     OW22915   5.744   5.473   2.751  0.0633 -0.1277  0.6968
 7339SOL    HW122916   5.723   5.570   2.742  0.3518  0.0370  1.6413
 7339SOL    HW222917   5.746   5.430   2.661 -0.1848  0.7139  0.2827
 7340SOL     OW22918   0.885   7.011   1.964  0.1824 -0.2551  0.1742
 7340SOL    HW122919   0.869   7.085   1.899 -0.7351 -0.5449  0.0499
 7340SOL    HW222920   0.975   6.972   1.949  0.5450  0.6246  0.0277
 7341SOL     OW22921   6.055   2.805   6.153 -0.0744  0.3617  0.7410
 7341SOL    HW122922   5.985   2.875   6.164  1.0242  1.7050 -0.4579
 7341SOL    HW222923   6.128   2.821   6.220  1.0743  1.5385 -0.7446
 7342SOL     OW22924   0.244   1.285   1.033  0.3124  0.1956 -0.3434
 7342SOL    HW122925   0.339   1.260   1.052  0.3703  0.9923  0.5366
 7342SOL    HW222926   0.228   1.379   1.063 -0.6859  0.1726 -0.7447
 7343SOL     OW22927   2.625   3.957   1.167  0.0276 -0.9457  0.1514
 7343SOL    HW122928   2.585   4.035   1.215  0.0615  0.2475 -1.6845
 7343SOL    HW222929   2.719   3.978   1.142  0.0102 -1.5584 -0.4503
 7344SOL     OW22930   3.127   2.032   5.840  0.9767  0.3955 -0.6837
 7344SOL    HW122931   3.135   2.130   5.818 -1.0300  0.4737 -1.2658
 7344SOL    HW222932   3.085   1.984   5.763 -1.1807 -0.2944  0.8043
 7345SOL     OW22933   3.834   2.938   5.717 -0.4816 -0.2635 -0.2814
 7345SOL    HW122934   3.839   3.022   5.662  0.3441  1.2741  1.9984
 7345SOL    HW222935   3.834   2.859   5.656 -0.0188  1.3221 -2.4844
 7346SOL     OW22936   5.077   0.281   3.300 -0.0699 -0.2734 -0.1353
 7346SOL    HW122937   5.172   0.299   3.323 -0.3042  0.3903  0.3406
 7346SOL    HW222938   5.023   0.269   3.384 -0.8228  1.6223 -0.3085
 7347SOL     OW22939   0.045   3.381   1.342  0.4647 -0.4341 -0.0564
 7347SOL    HW122940   0.017   3.288   1.367 -0.5588 -0.3669 -0.8908
 7347SOL    HW222941   0.031   3.394   1.244  1.1552  0.4169 -0.0475
 7348SOL     OW22942   0.096   4.394   4.279 -0.7882  0.1630 -0.0342
 7348SOL    HW122943   0.142   4.345   4.353 -1.4013  0.3845  0.5051
 7348SOL    HW222944   0.088   4.334   4.200  0.3271  0.0869 -0.1107
 7349SOL     OW22945   4.159   5.762   1.115  0.3357 -0.1070 -0.3338
 7349SOL    HW122946   4.229   5.804   1.173  0.5241 -0.7133 -0.1160
 7349SOL    HW222947   4.181   5.666   1.100 -0.5067 -0.3294 -0.1903
 7350SOL     OW22948   2.828   1.155   6.394 -0.3108 -0.7376 -0.1481
 7350SOL    HW122949   2.884   1.225   6.351 -1.0818 -0.4073 -0.6369
 7350SOL    HW222950   2.797   1.187   6.484  0.9889 -1.2758  0.5118
 7351SOL     OW22951   5.801   3.804   4.722 -0.0370  0.2098  0.5832
 7351SOL    HW122952   5.796   3.798   4.623 -2.4197  2.6530  0.4461
 7351SOL    HW222953   5.760   3.722   4.763 -1.8176  0.4992 -0.5246
 7352SOL     OW22954   4.573   1.781   2.553 -0.2715  0.8706 -0.0002
 7352SOL    HW122955   4.504   1.830   2.606  0.0557 -1.0973  2.4316
 7352SOL    HW222956   4.531   1.742   2.471 -1.9636  0.2281  1.1219
 7353SOL     OW22957   6.986   1.010   6.559  1.0467  0.1287  0.1003
 7353SOL    HW122958   6.925   0.932   6.547  1.3007  0.1363 -1.3887
 7353SOL    HW222959   7.067   0.999   6.501  1.0549  1.5257 -0.1850
 7354SOL     OW22960   2.977   1.616   5.393 -0.3989  0.1524  0.1007
 7354SOL    HW122961   2.974   1.604   5.492 -1.9391 -0.8068 -0.0272
 7354SOL    HW222962   3.070   1.603   5.360  0.1494  0.5891  1.4294
 7355SOL     OW22963   0.396   4.155   0.383 -0.2067 -0.0363 -0.6583
 7355SOL    HW122964   0.391   4.057   0.400  0.7402 -0.3309 -1.9850
 7355SOL    HW222965   0.345   4.178   0.301 -2.2120  0.9361  0.7653
 7356SOL     OW22966   3.001   5.335   6.603  0.1515 -0.2914 -0.1628
 7356SOL    HW122967   3.010   5.248   6.652 -0.0797 -0.5054 -0.4981
 7356SOL    HW222968   3.065   5.336   6.526  0.3135 -0.0699 -0.0259
 7357SOL     OW22969   3.616   5.934   1.798 -0.1526  0.1404  0.3573
 7357SOL    HW122970   3.570   6.016   1.763  0.2633  0.6549  0.9898
 7357SOL    HW222971   3.563   5.853   1.773  0.1270  0.4809 -1.4417
 7358SOL     OW22972   4.960   2.637   3.252  0.5016 -0.3045 -0.0404
 7358SOL    HW122973   5.009   2.557   3.286  1.3351  0.0719 -0.3287
 7358SOL    HW222974   4.924   2.619   3.161  0.9033 -0.2691 -0.2064
 7359SOL     OW22975   4.188   2.170   4.116  0.0547 -0.1423  0.1874
 7359SOL    HW122976   4.236   2.222   4.046 -0.4317  0.0632  0.0086
 7359SOL    HW222977   4.237   2.179   4.204 -0.0262  0.6002  0.1568
 7360SOL     OW22978   2.147   3.634   5.390  0.2888  0.4661 -0.6639
 7360SOL    HW122979   2.178   3.674   5.304  2.3705 -0.1072 -0.2197
 7360SOL    HW222980   2.203   3.554   5.412 -0.9622 -0.0903  0.6597
 7361SOL     OW22981   4.621   5.268   3.784  0.3839 -0.3012 -0.3627
 7361SOL    HW122982   4.567   5.186   3.805  1.5880 -1.1372 -0.4171
 7361SOL    HW222983   4.699   5.274   3.846  0.4840  0.6406 -0.5619
 7362SOL     OW22984   4.255   4.991   6.900 -0.2595  0.7420 -0.1111
 7362SOL    HW122985   4.201   5.028   6.825 -0.0972  0.7887 -0.2050
 7362SOL    HW222986   4.249   5.052   6.979  0.6218  1.3796 -0.5098
 7363SOL     OW22987   4.506   1.074   1.095  0.1456 -0.0135 -0.2545
 7363SOL    HW122988   4.426   1.128   1.068  0.1918 -0.4492 -1.2881
 7363SOL    HW222989   4.588   1.110   1.049  0.4803  0.1650  0.4685
 7364SOL     OW22990   3.589   6.161   1.347  0.0473  0.2350 -0.1186
 7364SOL    HW122991   3.568   6.144   1.251 -1.3658  0.0713  0.1939
 7364SOL    HW222992   3.560   6.253   1.372  0.3806  0.2669  0.1662
 7365SOL     OW22993   4.604   5.250   1.701  0.6564 -0.4084 -0.0136
 7365SOL    HW122994   4.694   5.250   1.658  0.9406 -1.4538  0.5464
 7365SOL    HW222995   4.533   5.237   1.632  0.9720 -0.1758 -0.3857
 7366SOL     OW22996   2.642   0.160   4.790 -0.3260 -0.1712  0.2262
 7366SOL    HW122997   2.736   0.155   4.824 -0.3644  1.5175  0.6809
 7366SOL    HW222998   2.641   0.197   4.698 -0.6682  3.3372  1.4871
 7367SOL     OW22999   3.517   2.338   6.691  0.0148  0.0435  0.0936
 7367SOL    HW123000   3.422   2.309   6.680 -0.3683  1.5506 -0.9260
 7367SOL    HW223001   3.521   2.438   6.691  1.4394  0.0380  1.8614
 7368SOL     OW23002   2.925   3.305   2.898  0.3670  0.1617 -0.3615
 7368SOL    HW123003   2.893   3.359   2.976 -0.9125 -0.7592 -0.2190
 7368SOL    HW223004   2.946   3.366   2.822 -2.4872  0.8333 -0.7113
 7369SOL     OW23005   1.525   2.040   1.989  0.0302 -0.0384 -0.0807
 7369SOL    HW123006   1.618   2.018   1.961  0.4411  0.5024  0.8133
 7369SOL    HW223007   1.467   1.959   1.979  0.3365 -0.0994 -1.6351
 7370SOL     OW23008   2.550   1.251   5.627 -0.6152 -0.0363  0.2979
 7370SOL    HW123009   2.601   1.205   5.699  2.4032  1.0635 -0.9913
 7370SOL    HW223010   2.538   1.348   5.651  0.9129  0.4710 -0.8610
 7371SOL     OW23011   3.163   6.449   4.327  0.1243  0.1379 -0.0590
 7371SOL    HW123012   3.257   6.453   4.360  0.5222  2.2710 -1.1920
 7371SOL    HW223013   3.101   6.471   4.402  0.8071  2.0729  0.0161
 7372SOL     OW23014   5.338   0.181   2.725  0.5507 -0.4875 -0.1531
 7372SOL    HW123015   5.306   0.196   2.818  0.5094 -0.9966 -0.0805
 7372SOL    HW223016   5.279   0.229   2.661  0.5643 -0.1558  0.0787
 7373SOL     OW23017   3.647   1.472   4.792  0.4806 -0.2047 -0.0035
 7373SOL    HW123018   3.731   1.518   4.761  0.1343 -0.9636 -2.3039
 7373SOL    HW223019   3.569   1.509   4.741 -1.0179  1.8849  3.4231
 7374SOL     OW23020   2.364   1.391   5.204 -0.3391 -0.1228  0.5130
 7374SOL    HW123021   2.408   1.451   5.271 -0.6690  0.3406  0.3212
 7374SOL    HW223022   2.373   1.296   5.233 -0.4341  0.0709  1.1879
 7375SOL     OW23023   2.885   0.682   2.491  0.0101  0.2931  0.0501
 7375SOL    HW123024   2.875   0.769   2.539 -2.4101 -0.5777  1.2838
 7375SOL    HW223025   2.857   0.693   2.395 -0.5900  0.7906  0.2790
 7376SOL     OW23026   2.946   3.661   1.404 -0.1189  0.5060 -0.1756
 7376SOL    HW123027   2.967   3.667   1.307 -1.2422 -0.7545 -0.5253
 7376SOL    HW223028   3.010   3.599   1.448 -1.8360 -1.9206 -0.8932
 7377SOL     OW23029   3.627   3.635   0.523  0.2723 -0.1740 -0.0237
 7377SOL    HW123030   3.642   3.612   0.619 -1.2095  1.5401  0.6873
 7377SOL    HW223031   3.657   3.729   0.507  0.2125 -0.3414 -1.1705
 7378SOL     OW23032   2.937   1.927   3.761 -0.0890  0.1665  0.0667
 7378SOL    HW123033   2.906   1.975   3.679  1.8799  1.1390 -0.1470
 7378SOL    HW223034   2.869   1.857   3.785 -0.3543 -0.7454 -2.8517
 7379SOL     OW23035   2.144   1.699   1.129 -0.1001 -0.2586  0.1992
 7379SOL    HW123036   2.166   1.626   1.063 -1.4120 -0.1851 -0.3359
 7379SOL    HW223037   2.198   1.780   1.107  1.2087 -0.9625  0.6572
 7380SOL     OW23038   6.966   3.128   5.331 -0.3210  0.0346 -0.5763
 7380SOL    HW123039   7.009   3.063   5.393 -0.6160  2.1549  2.0021
 7380SOL    HW223040   6.911   3.079   5.264 -0.3150 -2.3642  1.0760
 7381SOL     OW23041   3.661   2.584   1.764 -0.3131 -0.1838 -0.3265
 7381SOL    HW123042   3.635   2.494   1.798  0.1962 -0.0997  0.2991
 7381SOL    HW223043   3.636   2.654   1.831  1.3157 -0.0816  0.2197
 7382SOL     OW23044   5.467   1.584   5.033  0.4080  0.0463 -0.0198
 7382SOL    HW123045   5.476   1.521   4.956 -0.7609 -0.9142  0.5894
 7382SOL    HW223046   5.407   1.543   5.103  1.0357  1.0954  1.1785
 7383SOL     OW23047   2.103   6.545   1.535 -0.1059 -0.2815  0.2619
 7383SOL    HW123048   2.097   6.645   1.534 -0.3555 -0.2955  0.2890
 7383SOL    HW223049   2.064   6.510   1.620 -0.5156 -0.4312  0.0182
 7384SOL     OW23050   5.351   0.234   0.386  0.1453  0.1423 -0.3542
 7384SOL    HW123051   5.394   0.322   0.407  0.0389  0.0323  0.3473
 7384SOL    HW223052   5.417   0.160   0.400  0.2681  0.1125 -1.0525
 7385SOL     OW23053   4.125   4.893   1.621 -0.0205 -0.0436  0.0168
 7385SOL    HW123054   4.126   4.884   1.521  0.4227  0.8366 -0.0603
 7385SOL    HW223055   4.104   4.804   1.662  0.8033 -0.6421 -0.8287
 7386SOL     OW23056   0.855   0.378   0.451 -0.4819  0.2999  0.2489
 7386SOL    HW123057   0.849   0.476   0.429 -0.7409  0.3844  0.6845
 7386SOL    HW223058   0.778   0.353   0.510 -0.5291 -0.2122 -0.0290
 7387SOL     OW23059   0.524   4.282   0.599  0.4036  0.4117 -0.3970
 7387SOL    HW123060   0.477   4.219   0.537  0.0701  0.0740  0.1884
 7387SOL    HW223061   0.496   4.263   0.694 -0.2943  1.9259 -0.2726
 7388SOL     OW23062   6.757   6.632   2.140  0.1434  0.8527 -0.3714
 7388SOL    HW123063   6.682   6.652   2.077  0.6576  0.2613 -1.1883
 7388SOL    HW223064   6.727   6.562   2.206 -0.7112  2.1612  0.6842
 7389SOL     OW23065   6.802   2.800   1.129 -0.6084 -0.5532 -0.4330
 7389SOL    HW123066   6.799   2.891   1.171 -0.1006 -0.2279 -1.0821
 7389SOL    HW223067   6.713   2.756   1.139 -1.2052  0.4629 -1.0772
 7390SOL     OW23068   2.108   1.447   2.114 -0.1561 -0.3825  0.0271
 7390SOL    HW123069   2.200   1.428   2.148  0.9352  1.2143 -1.8302
 7390SOL    HW223070   2.050   1.476   2.191  0.8906 -1.3142  1.2097
 7391SOL     OW23071   3.700   3.050   2.433 -0.2890  0.7576  0.1596
 7391SOL    HW123072   3.622   3.099   2.471 -0.2439  0.1800  1.0081
 7391SOL    HW223073   3.783   3.073   2.485  0.0123  0.9403 -0.3900
 7392SOL     OW23074   2.794   6.702   5.579 -0.2743  0.6508 -0.1876
 7392SOL    HW123075   2.868   6.745   5.631 -0.5254  1.6489 -0.6192
 7392SOL    HW223076   2.755   6.770   5.516  0.0437 -0.5148 -1.6975
 7393SOL     OW23077   0.557   5.103   4.134  0.4025 -0.1547 -0.0058
 7393SOL    HW123078   0.520   5.094   4.042 -0.0824  2.6341 -0.1594
 7393SOL    HW223079   0.654   5.124   4.129  0.4205 -0.2044  0.1329
 7394SOL     OW23080   1.228   2.068   5.215 -0.0544  0.0570 -0.2753
 7394SOL    HW123081   1.255   2.049   5.310 -0.5672 -1.1965 -0.3691
 7394SOL    HW223082   1.191   2.161   5.209  0.2636  0.2562  0.6880
 7395SOL     OW23083   2.125   3.213   3.356 -0.1838 -0.6155  0.0236
 7395SOL    HW123084   2.037   3.250   3.329  0.7900  0.7672 -1.4614
 7395SOL    HW223085   2.164   3.160   3.281  1.0918  0.4736 -0.1431
 7396SOL     OW23086   3.257   4.105   1.186 -1.3129 -0.6099 -0.1643
 7396SOL    HW123087   3.299   4.095   1.276 -0.3336 -0.2293 -0.5738
 7396SOL    HW223088   3.219   4.197   1.177  1.1316  0.3767 -1.1682
 7397SOL     OW23089   4.858   4.476   5.059 -0.1280  0.8518  0.3097
 7397SOL    HW123090   4.906   4.472   5.147  2.3208  0.5178 -0.9525
 7397SOL    HW223091   4.774   4.529   5.069  0.4119  1.3506  2.7003
 7398SOL     OW23092   2.143   5.728   2.586  0.8342  0.3469  0.2400
 7398SOL    HW123093   2.127   5.806   2.525 -0.2639 -0.0063  0.0455
 7398SOL    HW223094   2.121   5.643   2.538  0.5306  0.0244  0.9315
 7399SOL     OW23095   5.147   3.179   4.599  0.0433 -0.5406 -0.0471
 7399SOL    HW123096   5.209   3.154   4.674  0.9498  0.5243 -0.4059
 7399SOL    HW223097   5.073   3.236   4.635 -0.4983 -1.4464  0.3085
 7400SOL     OW23098   4.314   0.152   5.080  0.1140 -0.5210 -0.6319
 7400SOL    HW123099   4.324   0.150   5.180 -2.1670  1.1492 -0.2977
 7400SOL    HW223100   4.226   0.112   5.055 -0.7007  1.7773 -1.6718
 7401SOL     OW23101   2.400   2.381   3.350  0.0598  0.1593  0.1546
 7401SOL    HW123102   2.404   2.290   3.391  2.1311 -1.2946 -2.8890
 7401SOL    HW223103   2.444   2.447   3.411  0.9475 -1.4050  1.2827
 7402SOL     OW23104   1.924   3.075   5.165  0.2358 -0.0923  0.6308
 7402SOL    HW123105   1.909   3.066   5.066  2.8469  1.1930  0.0447
 7402SOL    HW223106   2.020   3.093   5.183 -0.3432  0.7459  3.3626
 7403SOL     OW23107   2.313   4.870   4.463 -0.0189  0.0192 -0.4023
 7403SOL    HW123108   2.340   4.920   4.545  0.2649 -2.5030  1.1580
 7403SOL    HW223109   2.213   4.861   4.460 -0.0753  0.7269 -0.7360
 7404SOL     OW23110   4.392   3.395   1.663  0.1483  0.3445 -0.0124
 7404SOL    HW123111   4.356   3.315   1.710 -1.1758  0.5689 -0.6137
 7404SOL    HW223112   4.355   3.478   1.704  0.5142  0.6072 -0.2087
 7405SOL     OW23113   2.328   6.015   3.901  0.2934  0.0975  0.1097
 7405SOL    HW123114   2.414   6.024   3.951  0.3810 -1.6669  0.3523
 7405SOL    HW223115   2.279   5.934   3.933 -1.3498  0.9156 -0.2166
 7406SOL     OW23116   6.279   0.436   4.336 -0.1756 -0.0810 -0.4529
 7406SOL    HW123117   6.375   0.430   4.310 -0.3155 -0.4673 -0.8769
 7406SOL    HW223118   6.227   0.361   4.295 -0.5976 -0.0797  0.0553
 7407SOL     OW23119   0.359   4.695   0.620  0.1566  0.1542 -0.6974
 7407SOL    HW123120   0.371   4.675   0.718  0.7220 -1.4117 -1.0515
 7407SOL    HW223121   0.262   4.691   0.597  0.1826 -1.9567 -0.6411
 7408SOL     OW23122   1.950   4.503   5.410  0.2307 -0.0787 -0.3553
 7408SOL    HW123123   1.861   4.494   5.366 -0.3273 -0.3154  0.7767
 7408SOL    HW223124   1.988   4.412   5.427 -1.0865 -0.1875  2.5817
 7409SOL     OW23125   5.034   4.104   0.151 -0.0895 -0.4269  0.3859
 7409SOL    HW123126   5.024   4.141   0.243 -1.6181 -0.8364  0.4162
 7409SOL    HW223127   5.091   4.022   0.154  0.5350  0.0106  0.8278
 7410SOL     OW23128   1.142   1.335   1.729 -0.0711 -1.1692 -0.0874
 7410SOL    HW123129   1.116   1.323   1.633  1.6052 -0.6806 -0.6542
 7410SOL    HW223130   1.063   1.321   1.788 -0.8008 -3.1396 -1.4257
 7411SOL     OW23131   1.685   1.940   5.780 -0.0855 -0.8357 -0.4700
 7411SOL    HW123132   1.642   1.851   5.766  0.5599 -1.2536  0.0993
 7411SOL    HW223133   1.633   1.992   5.847  0.1244 -1.2240  0.0013
 7412SOL     OW23134   4.217   0.051   5.831 -0.4632  0.1740  0.3161
 7412SOL    HW123135   4.130   0.005   5.816 -0.2007 -0.0809 -0.5088
 7412SOL    HW223136   4.210   0.146   5.799 -0.6564  0.3660  0.9294
 7413SOL     OW23137   3.961   4.894   2.298  0.4946  0.5692  0.1887
 7413SOL    HW123138   3.861   4.892   2.294  0.4513 -1.1361  1.0320
 7413SOL    HW223139   3.992   4.987   2.317 -1.1092  0.7240  2.5293
 7414SOL     OW23140   1.554   1.809   4.453 -0.3071  0.0872 -0.7461
 7414SOL    HW123141   1.584   1.714   4.461  0.0649  0.2699  0.2545
 7414SOL    HW223142   1.466   1.820   4.499 -0.4765  0.1811 -1.0873
 7415SOL     OW23143   1.204   1.746   5.042 -0.5318 -0.5892  0.0772
 7415SOL    HW123144   1.189   1.841   5.014  0.3370 -0.3299  0.4824
 7415SOL    HW223145   1.217   1.689   4.961  0.4946 -0.0924 -0.1198
 7416SOL     OW23146   1.220   1.200   3.303  0.5567 -0.4747 -0.0534
 7416SOL    HW123147   1.270   1.241   3.379  0.8720 -0.7557 -0.1055
 7416SOL    HW223148   1.125   1.183   3.331  0.4885  0.0498  0.0483
 7417SOL     OW23149   0.917   0.230   4.805  0.0958  0.3825  0.3967
 7417SOL    HW123150   0.966   0.251   4.720 -1.1520 -1.7037 -0.9454
 7417SOL    HW223151   0.936   0.135   4.831  0.0855  0.8558  2.2310
 7418SOL     OW23152   1.363   3.232   5.983  0.1505  0.0583 -0.4545
 7418SOL    HW123153   1.301   3.163   6.019 -0.0831  0.1097 -0.7548
 7418SOL    HW223154   1.318   3.283   5.910  0.7478 -0.3047 -1.0859
 7419SOL     OW23155   5.389   3.180   5.464 -0.0911 -0.5119  0.0750
 7419SOL    HW123156   5.447   3.262   5.465  0.5213 -0.9375  0.0242
 7419SOL    HW223157   5.447   3.098   5.459 -0.7064 -0.9394 -0.2171
 7420SOL     OW23158   6.397   4.721   2.544  0.2959 -0.2113  0.0137
 7420SOL    HW123159   6.479   4.777   2.550  0.8488 -0.6901 -2.0116
 7420SOL    HW223160   6.423   4.626   2.526 -0.6481 -0.9908  2.4090
 7421SOL     OW23161   6.555   4.337   2.894  0.3706 -0.2928 -0.7002
 7421SOL    HW123162   6.602   4.410   2.945  1.7011 -0.4000 -1.7272
 7421SOL    HW223163   6.614   4.256   2.890 -0.3923 -0.8450 -1.0327
 7422SOL     OW23164   5.435   3.306   2.077  0.4037  0.3480  0.0465
 7422SOL    HW123165   5.497   3.338   2.006 -1.3353  1.9205 -0.8155
 7422SOL    HW223166   5.480   3.314   2.166  1.3153  1.8199 -0.5149
 7423SOL     OW23167   5.546   1.307   4.283 -0.1559  0.3725 -0.4451
 7423SOL    HW123168   5.601   1.353   4.354 -4.5822  2.0050  2.3103
 7423SOL    HW223169   5.555   1.208   4.293  1.6970  0.5606  0.2546
 7424SOL     OW23170   5.726   0.599   4.319  0.3501 -0.0166  0.7252
 7424SOL    HW123171   5.650   0.576   4.259 -0.6763 -1.4220  2.4490
 7424SOL    HW223172   5.748   0.696   4.309  0.1289 -0.1580 -1.7271
 7425SOL     OW23173   3.426   6.915   0.724  0.0405  0.0600  0.2033
 7425SOL    HW123174   3.485   6.994   0.709  0.8697 -0.1459  2.1683
 7425SOL    HW223175   3.352   6.940   0.787  1.0914 -1.0181  1.9590
 7426SOL     OW23176   2.356   1.370   5.997 -0.4554 -0.6011 -0.2293
 7426SOL    HW123177   2.283   1.378   5.930  0.1324 -0.0743 -0.8198
 7426SOL    HW223178   2.374   1.273   6.016 -1.3738 -0.7317  0.0142
 7427SOL     OW23179   2.741   0.587   4.800 -0.1284  0.0504 -0.3050
 7427SOL    HW123180   2.803   0.524   4.753 -0.8232 -0.1167 -1.0275
 7427SOL    HW223181   2.748   0.574   4.898 -1.0460 -1.9391 -0.4655
 7428SOL     OW23182   3.358   5.996   6.340 -0.0136  0.3342  1.1794
 7428SOL    HW123183   3.414   5.918   6.368 -0.3948 -0.0326  0.9364
 7428SOL    HW223184   3.290   6.016   6.411 -1.6138 -1.2038  0.1769
 7429SOL     OW23185   0.233   6.254   4.038  0.5956  0.1551 -0.6020
 7429SOL    HW123186   0.138   6.280   4.056  1.0513 -0.5940  4.0377
 7429SOL    HW223187   0.245   6.157   4.056  2.7579  0.7982  1.9732
 7430SOL     OW23188   5.348   5.171   3.638  0.4743 -0.0448 -0.1649
 7430SOL    HW123189   5.410   5.203   3.710  2.2867 -2.7880 -0.3812
 7430SOL    HW223190   5.270   5.124   3.680 -0.2453  1.2722  0.0342
 7431SOL     OW23191   1.774   3.506   4.139 -0.6919 -0.0180  0.1279
 7431SOL    HW123192   1.783   3.481   4.235 -0.7616 -1.0443 -0.1167
 7431SOL    HW223193   1.787   3.605   4.128  1.4214 -0.1605  0.9109
 7432SOL     OW23194   3.568   1.075   3.745 -0.1511 -0.4578 -0.3401
 7432SOL    HW123195   3.612   1.078   3.656 -1.0763  1.4331 -0.7921
 7432SOL    HW223196   3.557   1.168   3.780 -0.0995 -1.1346  1.6226
 7433SOL     OW23197   2.503   1.200   0.902  0.8186 -0.2919  0.2675
 7433SOL    HW123198   2.463   1.135   0.838  1.7307 -2.5501  1.8602
 7433SOL    HW223199   2.549   1.273   0.852 -0.8159 -0.4640 -1.5853
 7434SOL     OW23200   4.883   0.085   4.757 -0.2604  0.4110 -0.6133
 7434SOL    HW123201   4.897   0.105   4.854 -0.6577 -0.1756 -0.4319
 7434SOL    HW223202   4.967   0.044   4.720 -0.4194 -0.2138 -0.2906
 7435SOL     OW23203   5.046   0.815   2.495  0.6405 -0.5207 -0.1700
 7435SOL    HW123204   5.131   0.807   2.445 -0.2638 -1.1770 -1.6613
 7435SOL    HW223205   4.986   0.739   2.472  0.0714 -0.7195  1.7386
 7436SOL     OW23206   4.529   3.914   0.149 -0.5677 -0.3045 -0.6902
 7436SOL    HW123207   4.593   3.982   0.113  1.2342 -2.3791 -1.6124
 7436SOL    HW223208   4.557   3.823   0.119 -3.1785 -1.4449  0.0912
 7437SOL     OW23209   3.231   3.735   0.887  0.3149  0.1730 -0.3009
 7437SOL    HW123210   3.134   3.746   0.868  0.2263  2.4238  1.0931
 7437SOL    HW223211   3.252   3.770   0.978  1.8968 -3.4255  0.9456
 7438SOL     OW23212   3.586   0.229   2.619 -0.6820 -0.0494 -0.2543
 7438SOL    HW123213   3.552   0.201   2.708  0.1389  0.1559  0.1313
 7438SOL    HW223214   3.517   0.285   2.573 -1.1854 -0.3167  0.1613
 7439SOL     OW23215   0.354   6.000   0.043 -0.3794  0.4564 -0.2095
 7439SOL    HW123216   0.317   5.987   0.135  0.2487  1.3649  0.1808
 7439SOL    HW223217   0.446   6.037   0.048  0.4203 -1.2689 -1.1850
 7440SOL     OW23218   5.098   3.351   6.048 -0.0095 -0.2514 -0.3789
 7440SOL    HW123219   5.151   3.321   6.127  1.5213  0.7611 -0.9666
 7440SOL    HW223220   5.080   3.449   6.056  0.6513 -0.0207 -1.5336
 7441SOL     OW23221   4.985   1.568   4.370  0.1612  0.0679  0.1775
 7441SOL    HW123222   5.028   1.484   4.401  2.0766  0.1488 -1.9459
 7441SOL    HW223223   4.964   1.561   4.272 -2.1017  1.1317  0.5155
 7442SOL     OW23224   6.983   1.955   4.865 -0.6752  0.0307  0.3477
 7442SOL    HW123225   6.995   1.936   4.767  0.9777  0.8536  0.3447
 7442SOL    HW223226   7.000   2.052   4.882 -0.4328 -0.2082  1.5254
 7443SOL     OW23227   6.930   2.903   4.642  0.5397  0.0684 -0.0379
 7443SOL    HW123228   6.877   2.957   4.575  1.1146 -0.4892 -0.9548
 7443SOL    HW223229   7.019   2.947   4.657  0.3356  0.3044  0.5387
 7444SOL     OW23230   1.012   1.131   6.050  0.6555 -0.2219 -0.0724
 7444SOL    HW123231   1.002   1.042   6.096 -0.5352 -1.7887 -3.0600
 7444SOL    HW223232   1.099   1.172   6.076  2.0345 -3.0437  0.2478
 7445SOL     OW23233   1.591   0.673   1.061  0.4957  0.0205 -0.1139
 7445SOL    HW123234   1.626   0.764   1.037  0.4349  0.0460 -0.1071
 7445SOL    HW223235   1.591   0.663   1.160  0.9369 -0.1610 -0.1300
 7446SOL     OW23236   4.640   2.695   2.505  0.6829 -0.9341 -0.5809
 7446SOL    HW123237   4.584   2.673   2.426 -0.4108 -0.5834  0.0717
 7446SOL    HW223238   4.689   2.613   2.536  2.0756 -0.8115 -2.3084
 7447SOL     OW23239   0.821   4.764   1.092 -0.4912 -0.0674  0.6128
 7447SOL    HW123240   0.734   4.810   1.073  0.1782  1.9398  2.1311
 7447SOL    HW223241   0.816   4.717   1.180 -0.7642 -2.0485 -0.3827
 7448SOL     OW23242   5.696   6.215   6.102  0.5144 -0.2788  0.4234
 7448SOL    HW123243   5.629   6.241   6.032 -0.2911 -0.0080  1.2741
 7448SOL    HW223244   5.684   6.118   6.126 -0.1760 -0.0083  1.2065
 7449SOL     OW23245   6.474   3.253   6.090 -0.2185  0.1223 -0.4931
 7449SOL    HW123246   6.532   3.286   6.016 -0.2794  0.9080 -0.1954
 7449SOL    HW223247   6.387   3.221   6.053 -0.3447  0.7419 -0.7428
 7450SOL     OW23248   5.073   2.971   6.141  0.9052 -0.3603 -0.1470
 7450SOL    HW123249   5.148   2.908   6.159  1.8077  1.3873  2.6915
 7450SOL    HW223250   5.099   3.064   6.166 -2.0766  0.3874  0.6500
 7451SOL     OW23251   5.861   5.952   2.550 -0.1420  0.4513 -0.0391
 7451SOL    HW123252   5.811   5.954   2.463  1.2639 -3.9234 -1.2110
 7451SOL    HW223253   5.959   5.960   2.533  0.2772 -1.8896  0.8364
 7452SOL     OW23254   4.783   6.439   5.628  0.5518 -0.7593  0.3562
 7452SOL    HW123255   4.822   6.457   5.537  3.8481 -1.0685  1.5882
 7452SOL    HW223256   4.775   6.525   5.678 -2.7431 -0.3496 -0.6138
 7453SOL     OW23257   5.672   5.605   4.875  0.5329 -0.0881 -0.0630
 7453SOL    HW123258   5.658   5.580   4.779  0.0056 -1.2268  0.2875
 7453SOL    HW223259   5.760   5.569   4.907 -0.0834 -1.2725  0.3544
 7454SOL     OW23260   2.737   1.789   6.951 -0.0891  0.4412 -0.2528
 7454SOL    HW123261   2.761   1.878   6.990 -2.6680  1.8847 -1.6759
 7454SOL    HW223262   2.803   1.764   6.881  0.3491  1.5204 -0.2497
 7455SOL     OW23263   6.174   2.698   3.289  0.0302  0.2091 -0.0284
 7455SOL    HW123264   6.230   2.615   3.285  0.9845  0.8182  0.3354
 7455SOL    HW223265   6.133   2.706   3.379 -0.4599 -0.1143 -0.2193
 7456SOL     OW23266   2.457   4.645   4.399 -0.1822  0.4002  0.2690
 7456SOL    HW123267   2.392   4.574   4.426 -0.7196  0.4527 -0.8324
 7456SOL    HW223268   2.411   4.734   4.400  0.7748  0.9557  2.7581
 7457SOL     OW23269   0.348   6.346   2.901  0.6266  0.3701  0.8869
 7457SOL    HW123270   0.438   6.325   2.864 -0.5029  1.2724 -2.7380
 7457SOL    HW223271   0.329   6.443   2.889 -1.8369 -0.2586 -1.0505
 7458SOL     OW23272   1.768   0.901   4.057  0.3175 -0.0450  0.3841
 7458SOL    HW123273   1.822   0.973   4.101 -0.7205  2.0818 -1.5830
 7458SOL    HW223274   1.688   0.881   4.115 -0.0950  1.4076  0.3788
 7459SOL     OW23275   0.549   1.991   1.788 -0.2716 -0.0544  0.1886
 7459SOL    HW123276   0.616   2.025   1.854 -0.5405  1.0860 -0.0915
 7459SOL    HW223277   0.468   1.959   1.836 -0.1344 -0.0018  0.4575
 7460SOL     OW23278   1.371   5.966   0.011 -0.6003  0.1144 -0.0254
 7460SOL    HW123279   1.447   5.954   0.074 -0.2275  0.3710 -0.4229
 7460SOL    HW223280   1.317   5.882   0.008  0.0405 -0.2976 -0.2376
 7461SOL     OW23281   0.946   6.147   0.007  0.4465  0.6031 -0.0641
 7461SOL    HW123282   0.985   6.228   0.050 -0.9086  0.8788  0.7001
 7461SOL    HW223283   0.961   6.067   0.066 -1.4117  0.9813  0.9895
 7462SOL     OW23284   1.504   5.932   6.756 -0.3789  0.1595 -0.1206
 7462SOL    HW123285   1.579   5.967   6.700 -0.5022 -0.0468 -0.4167
 7462SOL    HW223286   1.432   6.001   6.762 -0.0020  0.5083  0.4843
 7463SOL     OW23287   3.430   5.371   0.259  0.2225 -0.3484  0.1994
 7463SOL    HW123288   3.454   5.382   0.163 -0.8867 -0.9808 -0.1702
 7463SOL    HW223289   3.337   5.404   0.275 -0.5254 -2.4155  0.5113
 7464SOL     OW23290   6.696   6.038   5.188 -0.1144  0.6193 -0.0140
 7464SOL    HW123291   6.648   6.122   5.162 -0.4263  0.5123  0.1962
 7464SOL    HW223292   6.628   5.968   5.211  0.1455  0.3722 -0.0005
 7465SOL     OW23293   3.405   5.550   0.663 -0.1918 -0.0632 -0.1610
 7465SOL    HW123294   3.348   5.497   0.726  0.7756 -0.4243  0.4367
 7465SOL    HW223295   3.365   5.641   0.650 -1.9295 -0.9129 -1.2723
 7466SOL     OW23296   6.948   1.674   6.087 -0.3339 -0.3696  0.4459
 7466SOL    HW123297   6.958   1.744   6.016  0.0848 -0.1113  0.7595
 7466SOL    HW223298   6.864   1.622   6.070  0.6164 -1.4444 -1.2247
 7467SOL     OW23299   0.737   0.667   6.848 -0.9411  0.1702  0.9551
 7467SOL    HW123300   0.689   0.753   6.827 -2.0439 -0.7316 -0.3782
 7467SOL    HW223301   0.822   0.662   6.795 -0.0636  1.1032  2.2081
 7468SOL     OW23302   6.828   2.785   5.630  0.2174  0.1118  0.0737
 7468SOL    HW123303   6.738   2.805   5.590  0.7625 -0.1310 -1.3346
 7468SOL    HW223304   6.876   2.719   5.572  1.2327  0.0884  0.9146
 7469SOL     OW23305   5.878   2.459   0.674 -0.0139  0.5609 -0.2025
 7469SOL    HW123306   5.910   2.521   0.746  2.3127  1.4839 -1.9003
 7469SOL    HW223307   5.830   2.511   0.604 -0.9224 -0.0971 -0.0921
 7470SOL     OW23308   6.744   4.648   3.375 -0.0420  0.5169 -0.2483
 7470SOL    HW123309   6.838   4.622   3.400 -0.9883 -2.0338  0.9852
 7470SOL    HW223310   6.686   4.647   3.456 -1.6063 -0.2529 -1.3153
 7471SOL     OW23311   6.537   6.835   4.748 -0.1360 -0.8913  0.3729
 7471SOL    HW123312   6.475   6.907   4.718 -0.1446 -1.1222 -0.1800
 7471SOL    HW223313   6.529   6.756   4.687  1.1282 -0.7062 -0.0604
 7472SOL     OW23314   6.606   0.118   3.757 -0.2542 -1.0016 -0.4577
 7472SOL    HW123315   6.674   0.045   3.760 -0.0158 -0.8206 -1.2591
 7472SOL    HW223316   6.652   0.207   3.746 -0.4859 -0.6227  1.3740
 7473SOL     OW23317   6.357   6.641   2.613 -0.1449 -0.2476  0.1570
 7473SOL    HW123318   6.402   6.555   2.636  0.3151  0.2495  1.1646
 7473SOL    HW223319   6.413   6.718   2.643 -0.8473  0.4038 -0.1506
 7474SOL     OW23320   3.268   1.907   1.255 -0.1793  0.4889 -0.0447
 7474SOL    HW123321   3.272   1.923   1.156  0.7492 -0.0424 -0.0950
 7474SOL    HW223322   3.172   1.907   1.284 -0.5314 -0.5371 -1.1394
 7475SOL     OW23323   4.743   2.330   2.814  0.2748  0.2557 -0.4115
 7475SOL    HW123324   4.750   2.235   2.845  0.2235  0.5457  0.5098
 7475SOL    HW223325   4.740   2.391   2.893  1.8712  1.1463 -0.9937
 7476SOL     OW23326   2.622   1.686   2.254 -0.1923  0.5844 -0.3255
 7476SOL    HW123327   2.673   1.770   2.238  0.5746  0.3366  0.6549
 7476SOL    HW223328   2.552   1.701   2.324 -0.4881  0.5671 -0.6169
 7477SOL     OW23329   1.023   3.551   4.664 -0.2111 -1.1534  0.1831
 7477SOL    HW123330   1.116   3.581   4.640 -1.3395  0.1902 -3.1657
 7477SOL    HW223331   0.977   3.623   4.716 -0.0309 -0.9451  0.0573
 7478SOL     OW23332   4.110   1.316   5.986 -0.4760 -0.4966 -0.5322
 7478SOL    HW123333   4.198   1.342   6.026  0.1673 -1.6490 -1.1353
 7478SOL    HW223334   4.086   1.382   5.914 -1.5112  1.4256  1.4491
 7479SOL     OW23335   5.522   4.065   7.004 -0.0873 -0.6180 -0.1319
 7479SOL    HW123336   5.441   4.122   7.007  0.1144 -0.3639  0.7551
 7479SOL    HW223337   5.553   4.056   6.909 -0.8791 -0.3497 -0.4244
 7480SOL     OW23338   3.379   5.064   1.765  0.0254  0.6700  0.4628
 7480SOL    HW123339   3.369   5.164   1.760 -0.3324  0.6978  1.5176
 7480SOL    HW223340   3.414   5.039   1.855 -0.3638 -0.1944  0.3770
 7481SOL     OW23341   0.865   4.708   5.885  0.5516  0.2121 -0.1170
 7481SOL    HW123342   0.892   4.621   5.927  0.1487  0.4188  0.5954
 7481SOL    HW223343   0.776   4.697   5.840 -0.5395  0.7356  1.7600
 7482SOL     OW23344   3.540   2.060   2.172 -0.1367 -0.3236 -0.0968
 7482SOL    HW123345   3.570   2.128   2.106 -1.6648 -0.3506 -0.8650
 7482SOL    HW223346   3.484   1.991   2.126 -2.2842  0.3233  1.3976
 7483SOL     OW23347   4.936   0.042   5.019 -0.0331  0.4887  0.1645
 7483SOL    HW123348   4.852  -0.003   4.989 -0.3015  0.4485  0.9465
 7483SOL    HW223349   4.916   0.099   5.099  0.8832 -0.3592  1.0278
 7484SOL     OW23350   1.270   5.991   5.906  0.0445 -0.7229  0.0355
 7484SOL    HW123351   1.294   5.940   5.823 -0.0747 -1.7066  0.5854
 7484SOL    HW223352   1.196   5.943   5.954  0.2098 -0.2499  0.7870
 7485SOL     OW23353   4.130   0.315   3.206  0.2122 -0.6123  0.0543
 7485SOL    HW123354   4.134   0.217   3.221  0.2118 -0.3336  2.2304
 7485SOL    HW223355   4.068   0.335   3.130 -0.1644 -2.2493 -0.1023
 7486SOL     OW23356   6.348   6.676   1.518 -0.1831  0.3588  0.0604
 7486SOL    HW123357   6.385   6.714   1.602  1.8730 -2.5898  0.6612
 7486SOL    HW223358   6.408   6.699   1.441  0.4630 -0.6830  0.2370
 7487SOL     OW23359   4.792   6.850   2.779 -0.3354 -0.6350 -0.0186
 7487SOL    HW123360   4.775   6.929   2.838  0.2110 -0.5952  0.0900
 7487SOL    HW223361   4.818   6.771   2.835 -0.0980 -0.6765 -0.1865
 7488SOL     OW23362   0.731   1.690   4.893 -0.4058  0.3257  0.4438
 7488SOL    HW123363   0.761   1.691   4.988 -0.4037  1.8997  0.4546
 7488SOL    HW223364   0.632   1.707   4.889 -0.3549  0.5420  0.1416
 7489SOL     OW23365   5.793   4.676   1.288  0.3248  0.1307  0.0462
 7489SOL    HW123366   5.863   4.726   1.339 -0.8347  0.1004  1.7425
 7489SOL    HW223367   5.785   4.583   1.324  0.4971 -0.3895 -1.2044
 7490SOL     OW23368   3.138   0.219   3.034  0.2420 -0.7388  0.0067
 7490SOL    HW123369   3.218   0.193   3.088 -0.9143 -1.0343  1.6562
 7490SOL    HW223370   3.055   0.183   3.077 -0.9728  1.2337 -0.5352
 7491SOL     OW23371   4.600   1.970   0.962  0.2552 -0.0578 -0.3235
 7491SOL    HW123372   4.556   1.881   0.972  2.2481 -1.3146 -1.9522
 7491SOL    HW223373   4.549   2.026   0.897 -0.8666 -0.0676  0.5188
 7492SOL     OW23374   1.532   0.400   6.081  0.3603  0.2077 -0.0209
 7492SOL    HW123375   1.566   0.307   6.069 -0.8461 -0.2435 -0.0439
 7492SOL    HW223376   1.523   0.444   5.992 -0.8583 -0.3258 -0.1854
 7493SOL     OW23377   6.666   4.944   6.254 -0.2756 -0.3112  0.3141
 7493SOL    HW123378   6.737   4.888   6.213  0.1205 -0.5715  1.3191
 7493SOL    HW223379   6.584   4.890   6.268 -0.0218 -0.5457  0.9272
 7494SOL     OW23380   5.380   1.503   0.790 -0.3968  0.2878 -0.5910
 7494SOL    HW123381   5.398   1.415   0.835 -0.4905 -1.5963 -3.8651
 7494SOL    HW223382   5.466   1.551   0.776 -0.0547 -0.3557 -0.7425
 7495SOL     OW23383   2.518   2.412   5.396 -0.4386 -0.5701 -0.0429
 7495SOL    HW123384   2.440   2.437   5.338  0.1663  0.0172 -0.6131
 7495SOL    HW223385   2.513   2.314   5.416 -1.5886 -0.4510  0.3356
 7496SOL     OW23386   6.361   4.980   2.704 -0.3602 -0.2211 -0.4815
 7496SOL    HW123387   6.378   4.935   2.791 -0.6268 -0.5075 -0.5739
 7496SOL    HW223388   6.280   4.940   2.661 -0.8112  0.5793 -0.4030
 7497SOL     OW23389   0.961   5.713   1.298  0.1344 -0.0631  0.1295
 7497SOL    HW123390   1.047   5.764   1.301  0.3164 -0.4002  0.8096
 7497SOL    HW223391   0.948   5.664   1.384  0.5241 -2.0805 -0.9038
 7498SOL     OW23392   3.868   6.386   3.205  0.5071  0.2499  0.2149
 7498SOL    HW123393   3.826   6.477   3.197 -0.6372 -0.0695  1.9528
 7498SOL    HW223394   3.929   6.371   3.128 -0.5892  1.8063 -1.0356
 7499SOL     OW23395   4.080   2.180   2.353 -0.3185  0.0894  0.1182
 7499SOL    HW123396   4.143   2.256   2.337 -0.7230  0.2986 -0.5056
 7499SOL    HW223397   4.083   2.153   2.450  1.1424 -0.2814 -0.0173
 7500SOL     OW23398   5.044   6.778   2.417  0.4644 -0.2020 -0.2698
 7500SOL    HW123399   5.059   6.762   2.514 -1.0508 -1.4765 -0.1976
 7500SOL    HW223400   5.085   6.704   2.364  3.4741  1.7296 -0.8627
 7501SOL     OW23401   6.765   3.471   2.908 -0.2389 -0.4816 -0.0250
 7501SOL    HW123402   6.717   3.555   2.933 -1.0080 -0.6802 -0.7786
 7501SOL    HW223403   6.837   3.493   2.842  0.4509 -0.2435  0.7833
 7502SOL     OW23404   4.504   5.178   5.034  0.2111 -0.1153 -0.3654
 7502SOL    HW123405   4.593   5.159   5.074  0.3897  1.7030  0.2205
 7502SOL    HW223406   4.432   5.155   5.101  0.1969 -1.7948 -0.9243
 7503SOL     OW23407   1.148   4.223   1.485 -0.2244 -0.0939  0.3132
 7503SOL    HW123408   1.247   4.237   1.481 -0.3638  0.8855 -0.0118
 7503SOL    HW223409   1.105   4.303   1.526 -0.7897 -1.0070  1.5670
 7504SOL     OW23410   0.634   6.066   3.225  0.1897  0.0248  0.3022
 7504SOL    HW123411   0.548   6.056   3.174  0.4906 -0.9806 -0.0146
 7504SOL    HW223412   0.622   6.029   3.317  0.8517 -2.0250 -0.3839
 7505SOL     OW23413   6.091   1.314   3.864  0.3298  0.0605 -0.5607
 7505SOL    HW123414   6.145   1.350   3.788 -0.1545 -2.2988 -2.1492
 7505SOL    HW223415   6.004   1.277   3.829  0.4519 -1.8741  0.9638
 7506SOL     OW23416   3.887   0.973   3.715  0.0033 -0.5156  0.3145
 7506SOL    HW123417   3.861   0.941   3.624  0.7924 -3.3732  0.9890
 7506SOL    HW223418   3.963   0.918   3.749  0.9891  1.7197  1.9838
 7507SOL     OW23419   6.518   3.671   4.753 -0.0939  0.0056 -0.1040
 7507SOL    HW123420   6.551   3.704   4.842 -2.7654  1.3375  0.4871
 7507SOL    HW223421   6.594   3.630   4.703  1.8334  0.6075  2.1411
 7508SOL     OW23422   0.647   5.093   0.141  0.5089  0.3006 -0.5562
 7508SOL    HW123423   0.712   5.115   0.214 -1.9462  1.3226  1.4752
 7508SOL    HW223424   0.679   5.134   0.055  3.2499 -0.5243 -0.0339
 7509SOL     OW23425   6.393   3.857   5.459  0.0944  0.0563  0.6795
 7509SOL    HW123426   6.464   3.825   5.397 -0.2280 -1.4981  1.0600
 7509SOL    HW223427   6.420   3.837   5.554 -0.9063 -0.7268  0.8194
 7510SOL     OW23428   3.536   2.901   5.027 -0.3227 -0.3104  0.3764
 7510SOL    HW123429   3.604   2.974   5.033 -0.2121 -0.1359 -1.9939
 7510SOL    HW223430   3.485   2.910   4.942 -2.3780 -1.2749  1.4458
 7511SOL     OW23431   4.820   5.276   1.530 -0.0001 -0.2495  0.3528
 7511SOL    HW123432   4.907   5.269   1.579  0.8134  0.7064 -0.8808
 7511SOL    HW223433   4.781   5.367   1.544  0.8704  0.5181 -1.6420
 7512SOL     OW23434   1.277   0.426   5.065 -0.2847  0.2093  0.1553
 7512SOL    HW123435   1.285   0.508   5.008  0.1482 -0.4677 -0.7847
 7512SOL    HW223436   1.181   0.400   5.073 -0.2992 -0.0970 -0.8862
 7513SOL     OW23437   2.599   5.811   3.575  0.3963 -0.3176 -0.0220
 7513SOL    HW123438   2.628   5.906   3.567 -0.0089 -0.1855  0.0366
 7513SOL    HW223439   2.591   5.771   3.483  1.1262 -0.4694 -0.0195
 7514SOL     OW23440   1.858   5.618   4.247 -0.2598 -0.1742 -0.4787
 7514SOL    HW123441   1.911   5.613   4.162 -1.3244 -0.6379 -1.1394
 7514SOL    HW223442   1.783   5.551   4.244  0.1798 -0.7804  1.1913
 7515SOL     OW23443   6.694   5.039   4.839 -0.1947 -0.1179  0.5466
 7515SOL    HW123444   6.740   4.997   4.761 -0.0921  0.9724  0.0018
 7515SOL    HW223445   6.595   5.032   4.827 -0.1824  0.3285  0.1461
 7516SOL     OW23446   0.601   0.506   5.579  0.0333 -0.5248  0.5991
 7516SOL    HW123447   0.617   0.532   5.675 -2.0509 -0.0235  0.8586
 7516SOL    HW223448   0.606   0.406   5.571 -1.9013 -0.7528  1.7192
 7517SOL     OW23449   1.156   3.179   5.636 -0.0660  0.3022  0.0928
 7517SOL    HW123450   1.101   3.232   5.701 -1.4897  0.8695 -1.4886
 7517SOL    HW223451   1.096   3.140   5.566  1.3456 -0.7897 -0.5561
 7518SOL     OW23452   4.324   2.293   2.541 -0.9018 -0.1896  0.2629
 7518SOL    HW123453   4.393   2.351   2.584  0.3447 -1.7511  0.4517
 7518SOL    HW223454   4.307   2.325   2.448  0.9097 -0.4191 -0.1807
 7519SOL     OW23455   4.973   6.536   4.472 -0.3195 -0.7351 -0.3310
 7519SOL    HW123456   4.897   6.536   4.537  0.6414  3.1718  1.0540
 7519SOL    HW223457   4.969   6.453   4.417 -2.2975 -3.4064  3.3769
 7520SOL     OW23458   1.291   0.024   1.978 -0.3275 -0.0583 -0.2888
 7520SOL    HW123459   1.209  -0.032   1.972 -0.8631  0.7478 -0.7632
 7520SOL    HW223460   1.297   0.066   2.069 -0.7016  0.2518 -0.4029
 7521SOL     OW23461   4.350   1.186   5.459 -0.0277  0.0802  0.2330
 7521SOL    HW123462   4.348   1.232   5.370  2.9970  2.1598  1.1008
 7521SOL    HW223463   4.398   1.099   5.450 -1.7845 -0.8478 -0.5556
 7522SOL     OW23464   1.753   6.209   5.527  0.4540  0.3165 -0.5969
 7522SOL    HW123465   1.780   6.300   5.495 -0.9893  0.8142 -0.4411
 7522SOL    HW223466   1.797   6.191   5.616  1.5041  0.4464 -1.0704
 7523SOL     OW23467   4.390   6.279   5.474 -0.2527 -0.0496 -0.0603
 7523SOL    HW123468   4.458   6.346   5.445  0.0607  0.1548  1.1185
 7523SOL    HW223469   4.336   6.316   5.549  0.1288 -1.2219  0.8159
 7524SOL     OW23470   1.531   0.106   5.086  0.0007 -0.3319  0.2798
 7524SOL    HW123471   1.557   0.202   5.095  0.5610 -0.4827  0.3530
 7524SOL    HW223472   1.549   0.076   4.992  0.0963 -0.4358  0.3299
 7525SOL     OW23473   4.804   5.759   0.359 -0.0206 -0.0349 -0.5482
 7525SOL    HW123474   4.736   5.799   0.298  1.1940  1.4619 -0.9850
 7525SOL    HW223475   4.851   5.684   0.311 -0.6053 -0.3663 -0.6210
 7526SOL     OW23476   2.206   3.896   2.143  0.0500  0.2961 -0.1586
 7526SOL    HW123477   2.271   3.871   2.071  0.0306  0.4935 -0.2440
 7526SOL    HW223478   2.116   3.913   2.103 -0.6133 -2.0245  0.1680
 7527SOL     OW23479   5.629   4.377   4.984  0.2821  0.3965  0.3280
 7527SOL    HW123480   5.616   4.297   4.926 -1.7257  0.8354  0.1036
 7527SOL    HW223481   5.726   4.398   4.991  0.6875 -0.7680 -1.3695
 7528SOL     OW23482   5.778   2.283   5.765 -0.2328 -0.0400  0.4156
 7528SOL    HW123483   5.734   2.359   5.812 -2.8959 -0.8245 -0.6501
 7528SOL    HW223484   5.774   2.296   5.666  0.4154 -0.9709  0.2430
 7529SOL     OW23485   5.640   1.278   2.162 -0.4598  0.7154  0.5372
 7529SOL    HW123486   5.726   1.310   2.201 -0.8065  1.6687  0.5386
 7529SOL    HW223487   5.579   1.248   2.235  0.2469 -0.9669  0.4747
 7530SOL     OW23488   4.992   0.978   0.378 -0.3521 -0.4837  0.0329
 7530SOL    HW123489   4.948   1.062   0.409 -0.7118 -0.8932  0.6564
 7530SOL    HW223490   4.925   0.903   0.375 -0.2461 -0.5452 -1.4156
 7531SOL     OW23491   6.008   3.074   2.893 -0.2662 -1.1242  0.3753
 7531SOL    HW123492   6.103   3.042   2.903 -0.5386 -1.6850  1.3606
 7531SOL    HW223493   5.946   2.997   2.907 -0.8696 -1.0202 -1.4548
 7532SOL     OW23494   5.476   5.954   0.238 -0.0307  0.1820  0.2229
 7532SOL    HW123495   5.545   6.002   0.184 -0.2024 -0.5874 -0.7098
 7532SOL    HW223496   5.520   5.892   0.302  0.1533 -0.8840 -0.9099
 7533SOL     OW23497   4.753   2.818   1.788 -0.4629 -0.5931 -0.7555
 7533SOL    HW123498   4.675   2.762   1.760 -1.0030 -1.2773  1.8742
 7533SOL    HW223499   4.723   2.912   1.806 -0.7537 -0.8849  0.3720
 7534SOL     OW23500   5.947   0.091   2.928  0.4599 -0.0691  0.0927
 7534SOL    HW123501   6.018   0.038   2.882  0.2973 -1.1162  1.0036
 7534SOL    HW223502   5.929   0.175   2.877  1.7049 -0.2284 -0.6339
 7535SOL     OW23503   3.071   0.207   4.965  0.3765 -0.0568 -0.1687
 7535SOL    HW123504   3.015   0.146   4.909  0.8349 -0.5612 -0.0899
 7535SOL    HW223505   3.121   0.270   4.905 -2.1127  2.0997 -0.1639
 7536SOL     OW23506   6.325   0.302   3.476  0.6638  0.4636  0.0930
 7536SOL    HW123507   6.372   0.252   3.404  0.9175  1.8917 -0.7734
 7536SOL    HW223508   6.366   0.393   3.486 -1.3829  1.4700 -0.1403
 7537SOL     OW23509   0.802   6.514   2.230  0.4289  0.3906 -0.1135
 7537SOL    HW123510   0.776   6.525   2.134 -0.7915  2.9933  0.4288
 7537SOL    HW223511   0.723   6.485   2.283  1.4385 -2.5264 -0.0125
 7538SOL     OW23512   2.185   2.426   2.301  0.1500 -0.0458 -0.4119
 7538SOL    HW123513   2.087   2.424   2.281 -0.3895 -0.6041  1.9827
 7538SOL    HW223514   2.224   2.512   2.270 -1.2211  0.4325 -0.8794
 7539SOL     OW23515   1.648   5.500   4.470  0.8947 -0.3323  0.1741
 7539SOL    HW123516   1.613   5.592   4.452  1.7162 -0.0659 -0.1031
 7539SOL    HW223517   1.624   5.440   4.393 -0.5054 -0.6128  0.8043
 7540SOL     OW23518   4.786   5.340   4.889  0.0617 -0.0538  0.4617
 7540SOL    HW123519   4.840   5.259   4.910  1.1467  0.4608 -0.2743
 7540SOL    HW223520   4.692   5.313   4.866  0.4879 -1.1289 -0.0776
 7541SOL     OW23521   5.290   4.259   0.761 -0.2197  0.7751  0.3613
 7541SOL    HW123522   5.204   4.209   0.757 -0.1970  0.8117 -1.2452
 7541SOL    HW223523   5.323   4.261   0.855 -1.6052  0.1498  0.8871
 7542SOL     OW23524   5.713   6.439   5.052  0.0343  0.3034 -0.0804
 7542SOL    HW123525   5.762   6.358   5.086 -0.0786  0.5881  0.7803
 7542SOL    HW223526   5.616   6.416   5.041  0.0653  0.2192 -0.1827
 7543SOL     OW23527   3.319   0.923   4.844  0.4419  0.2360  0.3482
 7543SOL    HW123528   3.298   1.017   4.819 -0.3899  0.1255  0.5989
 7543SOL    HW223529   3.243   0.884   4.896  1.2180 -0.2377  1.1594
 7544SOL     OW23530   6.436   1.079   3.398  0.3472  0.0222  0.4105
 7544SOL    HW123531   6.462   1.130   3.316 -1.2773  1.2719  0.6183
 7544SOL    HW223532   6.492   1.109   3.475  0.0791  0.7946  0.3155
 7545SOL     OW23533   2.429   4.593   0.722 -0.4132 -0.5446  0.2332
 7545SOL    HW123534   2.370   4.526   0.677 -1.9911  1.8521 -1.5531
 7545SOL    HW223535   2.513   4.605   0.668 -2.1863  2.1330 -2.2203
 7546SOL     OW23536   3.715   1.794   6.874 -0.5374 -0.7934  0.0262
 7546SOL    HW123537   3.640   1.861   6.881 -0.4986 -0.7213 -0.2206
 7546SOL    HW223538   3.793   1.826   6.928  0.2226  0.3855 -1.6698
 7547SOL     OW23539   4.769   0.293   2.134 -0.1222 -0.3281  0.1041
 7547SOL    HW123540   4.715   0.271   2.216  0.4770  1.2678  0.9792
 7547SOL    HW223541   4.745   0.385   2.103  1.3865  0.0246 -0.0753
 7548SOL     OW23542   3.369   4.157   5.316  0.3074  0.0710 -0.2954
 7548SOL    HW123543   3.410   4.149   5.225  0.2010 -4.0949 -0.1973
 7548SOL    HW223544   3.439   4.142   5.385 -0.0261  0.8154  0.2057
 7549SOL     OW23545   4.758   3.073   6.016 -0.0873 -0.6646  0.7427
 7549SOL    HW123546   4.750   3.007   5.941  1.1089  0.6762 -0.6256
 7549SOL    HW223547   4.849   3.068   6.056  0.3358  0.7840 -0.0009
 7550SOL     OW23548   0.531   4.123   4.418  0.2578 -0.5241  0.3351
 7550SOL    HW123549   0.585   4.051   4.374 -0.3451 -0.3381 -0.7528
 7550SOL    HW223550   0.568   4.212   4.391  0.9053 -0.4060  1.5513
 7551SOL     OW23551   5.293   2.626   5.330  0.4112 -0.3022 -0.9670
 7551SOL    HW123552   5.229   2.685   5.379  1.2067 -0.3129  0.1066
 7551SOL    HW223553   5.372   2.605   5.388  1.5019 -0.1276 -2.3135
 7552SOL     OW23554   0.495   4.578   4.189 -0.9868  0.3486  0.0189
 7552SOL    HW123555   0.402   4.558   4.157 -1.3631  2.6425 -0.5053
 7552SOL    HW223556   0.511   4.677   4.183  1.4438  0.0117  0.2483
 7553SOL     OW23557   5.127   6.965   6.607 -0.0290 -0.7828  0.0550
 7553SOL    HW123558   5.123   6.968   6.707 -0.3090  0.7830  0.0281
 7553SOL    HW223559   5.218   6.935   6.579 -0.1607 -1.9318  0.7545
 7554SOL     OW23560   5.948   1.632   0.559  0.1513 -0.3673  0.1248
 7554SOL    HW123561   5.953   1.588   0.469  1.1818  1.3027 -0.6845
 7554SOL    HW223562   5.881   1.706   0.557  1.6301  1.0343  0.0507
 7555SOL     OW23563   3.868   6.742   5.638 -0.4015 -0.1737  0.0339
 7555SOL    HW123564   3.880   6.666   5.574 -1.5476 -0.7529  0.4816
 7555SOL    HW223565   3.843   6.706   5.728  3.0116  0.4500  1.4225
 7556SOL     OW23566   0.858   6.242   0.675  0.0487  0.3840  0.4496
 7556SOL    HW123567   0.841   6.330   0.630 -0.9574  0.5132  1.0612
 7556SOL    HW223568   0.852   6.169   0.608  0.8466  0.7657 -0.0564
 7557SOL     OW23569   4.942   2.112   6.935 -0.3293  0.1951  0.3039
 7557SOL    HW123570   5.021   2.089   6.878 -0.6197 -0.6274  0.2211
 7557SOL    HW223571   4.933   2.046   7.009 -0.5424  0.6786  0.7146
 7558SOL     OW23572   0.932   3.054   5.493 -0.0467  0.4583  0.6868
 7558SOL    HW123573   0.903   3.069   5.398  0.5775  4.7410  0.9578
 7558SOL    HW223574   1.006   2.987   5.495  0.4385  0.7721 -1.9920
 7559SOL     OW23575   3.544   0.913   4.344 -0.3011 -0.4651  0.3749
 7559SOL    HW123576   3.621   0.855   4.371 -0.0864 -0.2069  0.3228
 7559SOL    HW223577   3.489   0.936   4.424  1.0328  1.3237  0.8357
 7560SOL     OW23578   6.041   6.934   5.890 -0.6802  0.2625 -0.0813
 7560SOL    HW123579   5.978   6.866   5.854 -0.5436 -0.4868  1.0420
 7560SOL    HW223580   6.093   6.975   5.815 -0.1762 -1.4626 -0.7085
 7561SOL     OW23581   5.292   1.427   5.224 -0.0073 -0.0800 -0.9333
 7561SOL    HW123582   5.346   1.349   5.193 -0.9332 -0.7240 -0.9548
 7561SOL    HW223583   5.212   1.395   5.275 -0.7414  0.8151 -1.4796
 7562SOL     OW23584   2.389   4.339   4.010  0.3853 -0.2009 -0.1105
 7562SOL    HW123585   2.333   4.328   4.093 -0.0888  0.2200 -0.3644
 7562SOL    HW223586   2.456   4.412   4.025 -1.2743  1.5962 -0.8661
 7563SOL     OW23587   2.210   5.590   3.294 -0.2943  0.2386  0.7049
 7563SOL    HW123588   2.271   5.557   3.366  1.2588  2.3369  0.4581
 7563SOL    HW223589   2.227   5.538   3.210  0.1718 -0.1049  1.0027
 7564SOL     OW23590   5.882   6.718   5.321 -0.2172  0.4692 -0.0738
 7564SOL    HW123591   5.791   6.690   5.290  0.2698 -1.4439  0.0822
 7564SOL    HW223592   5.943   6.638   5.322  0.8025  1.1783  2.1944
 7565SOL     OW23593   4.683   3.072   6.425 -0.0597  0.2902 -0.3424
 7565SOL    HW123594   4.776   3.109   6.435  0.9451 -2.1441  0.0705
 7565SOL    HW223595   4.633   3.087   6.510  0.8938 -0.6867  0.4252
 7566SOL     OW23596   4.391   5.463   2.317  0.2305  0.2791  0.0482
 7566SOL    HW123597   4.430   5.462   2.409  0.9747  0.4082 -0.2636
 7566SOL    HW223598   4.327   5.386   2.307 -0.8440  1.0006  1.0869
 7567SOL     OW23599   4.100   2.004   3.353  0.4741 -0.3840  0.2654
 7567SOL    HW123600   4.155   2.073   3.307 -0.1091  1.0090  1.5886
 7567SOL    HW223601   4.005   2.010   3.322  0.2642 -0.0554  0.9535
 7568SOL     OW23602   5.244   5.208   6.582 -0.5056  0.3200  0.4232
 7568SOL    HW123603   5.335   5.250   6.582 -1.2891  2.1301  1.2222
 7568SOL    HW223604   5.194   5.236   6.500 -0.9938  0.9227  0.9083
 7569SOL     OW23605   3.423   5.245   6.512  0.4791 -0.1021  0.1402
 7569SOL    HW123606   3.450   5.299   6.433  0.1052 -0.6366 -0.3651
 7569SOL    HW223607   3.399   5.153   6.482 -1.6118  0.2553  0.5853
 7570SOL     OW23608   5.427   3.694   4.106 -0.4918  0.0052  0.6639
 7570SOL    HW123609   5.393   3.764   4.169  1.0378  0.4928  0.9899
 7570SOL    HW223610   5.371   3.611   4.114 -1.6421  0.7967  1.0728
 7571SOL     OW23611   6.058   2.468   3.997 -0.0428 -0.0145 -0.3314
 7571SOL    HW123612   6.002   2.501   3.921  0.8635 -0.8212 -1.3859
 7571SOL    HW223613   6.051   2.531   4.073 -1.5578  0.4338 -0.8142
 7572SOL     OW23614   4.008   5.692   2.074 -0.6927 -0.2575  0.1445
 7572SOL    HW123615   3.993   5.721   1.979 -1.2975 -1.5234 -0.1712
 7572SOL    HW223616   4.003   5.592   2.079  0.0498 -0.2528  1.3969
 7573SOL     OW23617   5.918   5.971   6.391  0.2347  0.1641 -0.8211
 7573SOL    HW123618   5.917   5.905   6.466  1.4350  2.2293  1.1403
 7573SOL    HW223619   5.996   5.954   6.331 -0.2994 -1.0312 -1.2102
 7574SOL     OW23620   6.423   2.861   2.804 -0.6687  0.3314 -0.1373
 7574SOL    HW123621   6.476   2.802   2.743 -2.4549 -0.6243 -0.8364
 7574SOL    HW223622   6.375   2.805   2.871 -2.9389  0.8595 -1.2269
 7575SOL     OW23623   5.775   5.708   6.517 -0.5699  0.0099 -0.7412
 7575SOL    HW123624   5.820   5.751   6.595 -0.9366 -1.9510  0.6237
 7575SOL    HW223625   5.677   5.731   6.519 -0.7929 -0.9384  0.0699
 7576SOL     OW23626   6.507   4.672   1.236 -0.6673  0.8028  0.5481
 7576SOL    HW123627   6.527   4.681   1.334 -2.3914  0.9158  0.9097
 7576SOL    HW223628   6.530   4.580   1.206  2.6316  1.5676  0.3404
 7577SOL     OW23629   2.097   1.288   6.831  0.8958 -0.4644 -0.0575
 7577SOL    HW123630   2.181   1.275   6.885  0.0642  3.5786  2.7025
 7577SOL    HW223631   2.021   1.243   6.877  0.7383  0.3139  0.4810
 7578SOL     OW23632   0.119   5.438   2.680  0.5577  0.5350 -0.1718
 7578SOL    HW123633   0.195   5.386   2.721  0.0501  0.1407  0.2743
 7578SOL    HW223634   0.036   5.382   2.681  0.6222  0.3420 -2.1517
 7579SOL     OW23635   6.580   2.639   1.173 -0.1666 -0.2023 -0.3667
 7579SOL    HW123636   6.578   2.670   1.268  2.4251 -0.0682 -0.2878
 7579SOL    HW223637   6.515   2.564   1.161 -1.9525  1.0372  0.9781
 7580SOL     OW23638   1.581   4.633   3.713  0.2203  0.3508  0.1989
 7580SOL    HW123639   1.567   4.664   3.619  2.5701 -1.3589 -0.8227
 7580SOL    HW223640   1.648   4.693   3.758  1.0297 -0.3110 -0.1060
 7581SOL     OW23641   0.204   1.183   2.553  0.0075  0.2887  0.2653
 7581SOL    HW123642   0.270   1.223   2.617  0.9191  1.1715 -1.1434
 7581SOL    HW223643   0.168   1.098   2.590  1.0721  0.3871  1.6043
 7582SOL     OW23644   4.624   1.503   3.918 -0.3743 -0.8184  0.5456
 7582SOL    HW123645   4.714   1.504   3.874 -0.4734  3.2970  0.0307
 7582SOL    HW223646   4.552   1.498   3.848 -0.5309  0.1560  0.6287
 7583SOL     OW23647   5.664   4.748   2.712 -0.3573  0.5974  0.2492
 7583SOL    HW123648   5.749   4.698   2.692 -0.6168  0.4200 -0.4469
 7583SOL    HW223649   5.621   4.710   2.793 -0.1457  0.2047  0.1791
 7584SOL     OW23650   3.670   7.020   2.763  0.0583 -0.7353 -0.9021
 7584SOL    HW123651   3.693   7.073   2.682 -0.7934 -1.1439 -1.4262
 7584SOL    HW223652   3.575   6.989   2.757  0.5177 -2.3262 -0.6222
 7585SOL     OW23653   0.022   0.987   0.331 -0.2399 -0.3760 -0.6802
 7585SOL    HW123654   0.085   1.044   0.278 -0.7856 -0.0460 -0.9796
 7585SOL    HW223655   0.065   0.960   0.417  0.8249 -1.2753 -1.4703
 7586SOL     OW23656   1.676   0.747   2.528 -0.3395 -0.2390  0.5832
 7586SOL    HW123657   1.620   0.790   2.457 -2.6253 -1.4929  1.5393
 7586SOL    HW223658   1.738   0.681   2.486 -0.4752  0.2263 -0.3742
 7587SOL     OW23659   2.480   1.980   1.419  0.6514  0.0041  0.4472
 7587SOL    HW123660   2.523   2.056   1.369  1.0263 -0.7114 -0.3492
 7587SOL    HW223661   2.490   1.896   1.366  1.2024 -0.8273  1.8089
 7588SOL     OW23662   1.219   3.757   4.942  0.5957  0.3320  0.1550
 7588SOL    HW123663   1.303   3.703   4.951  1.2379  1.4261  1.0547
 7588SOL    HW223664   1.147   3.715   4.998  1.0554  0.3225  0.7563
 7589SOL     OW23665   0.301   0.787   2.345 -0.1965  0.6195  0.7273
 7589SOL    HW123666   0.380   0.837   2.380  0.7599 -0.9137  0.8565
 7589SOL    HW223667   0.239   0.766   2.421 -1.1927  2.5565  0.4978
 7590SOL     OW23668   0.018   2.330   0.020  0.0802  0.0131 -0.4059
 7590SOL    HW123669  -0.034   2.305  -0.062 -1.8741  0.2345  0.7088
 7590SOL    HW223670   0.083   2.257   0.041 -1.1514 -1.2362 -0.7459
 7591SOL     OW23671   3.960   1.011   6.591  0.4653  0.1305 -0.0052
 7591SOL    HW123672   3.871   0.968   6.604  0.1265  0.5964 -0.6886
 7591SOL    HW223673   3.990   1.054   6.675  1.4990 -2.6420  1.1822
 7592SOL     OW23674   4.706   5.687   6.104  0.1316  0.0590 -0.0140
 7592SOL    HW123675   4.762   5.733   6.035 -0.5154  0.2279 -0.4304
 7592SOL    HW223676   4.766   5.638   6.167  0.7369 -0.0158 -0.6325
 7593SOL     OW23677   6.992   2.563   5.682  0.3941 -0.5044 -0.2967
 7593SOL    HW123678   7.003   2.615   5.767  0.6281 -0.7757 -0.1584
 7593SOL    HW223679   7.069   2.500   5.671 -0.0149 -1.0089 -0.3286
 7594SOL     OW23680   0.922   0.918   0.999 -0.1354  0.5878  0.4456
 7594SOL    HW123681   0.940   0.934   0.902 -0.7723 -1.5332 -0.0883
 7594SOL    HW223682   0.986   0.850   1.034 -2.2468 -1.5642  0.4290
 7595SOL     OW23683   5.080   3.714   5.069  0.1696 -0.1892 -0.1615
 7595SOL    HW123684   4.985   3.694   5.046  0.1630 -1.7393  1.0022
 7595SOL    HW223685   5.090   3.715   5.169  1.3291  0.2080 -0.2665
 7596SOL     OW23686   1.445   6.374   3.481  0.0948  0.2011  0.3527
 7596SOL    HW123687   1.392   6.405   3.401  1.1144  0.4166 -0.2599
 7596SOL    HW223688   1.498   6.451   3.517  0.4031 -0.1404  0.6301
 7597SOL     OW23689   2.379   6.255   1.420  0.3488  0.3436 -0.1688
 7597SOL    HW123690   2.431   6.200   1.485 -0.6804 -0.1341  0.2704
 7597SOL    HW223691   2.415   6.349   1.420  0.8205  0.1750  0.5629
 7598SOL     OW23692   5.116   2.083   0.415 -0.2724  0.0953 -0.1371
 7598SOL    HW123693   5.162   2.075   0.503 -0.4593  0.9101  0.0487
 7598SOL    HW223694   5.181   2.116   0.347  0.2788 -2.0095 -0.6957
 7599SOL     OW23695   2.552   2.727   6.178  0.7893  0.3677 -0.8961
 7599SOL    HW123696   2.557   2.699   6.082  1.5724 -1.2226 -0.4181
 7599SOL    HW223697   2.493   2.663   6.228  3.1559 -0.9526  0.3685
 7600SOL     OW23698   2.623   6.823   5.774  0.1510 -0.3728 -0.2997
 7600SOL    HW123699   2.687   6.760   5.730 -0.3231 -0.3724 -0.9999
 7600SOL    HW223700   2.531   6.809   5.736 -0.3715 -0.7132  1.0320
 7601SOL     OW23701   4.279   5.375   0.048 -0.2122 -0.1124  0.2243
 7601SOL    HW123702   4.245   5.288   0.082  1.0682 -1.1604 -1.0126
 7601SOL    HW223703   4.322   5.361  -0.042  1.3088  1.5218  0.6295
 7602SOL     OW23704   0.031   2.040   0.582 -0.3141  0.3969 -0.4491
 7602SOL    HW123705  -0.038   2.112   0.584 -2.2397 -1.3329  0.2290
 7602SOL    HW223706   0.009   1.975   0.509  0.4774 -0.2871 -0.0941
 7603SOL     OW23707   2.596   6.859   5.131 -0.0031 -0.2028  0.5434
 7603SOL    HW123708   2.599   6.760   5.113 -0.6357 -0.7758  3.1982
 7603SOL    HW223709   2.528   6.901   5.072 -0.0220 -1.4216 -0.3490
 7604SOL     OW23710   2.442   1.920   4.203 -0.1463 -0.1216  0.6593
 7604SOL    HW123711   2.525   1.951   4.248 -0.2886  0.7452  0.3414
 7604SOL    HW223712   2.383   1.874   4.270  0.0589  0.3214  1.1541
 7605SOL     OW23713   1.722   6.982   5.221  1.0081  0.8026 -0.6542
 7605SOL    HW123714   1.812   7.018   5.195  0.7948  0.1004 -2.4956
 7605SOL    HW223715   1.651   7.047   5.195  0.7047 -0.3904 -3.0150
 7606SOL     OW23716   4.890   0.991   3.604 -0.3211  0.1919  0.2734
 7606SOL    HW123717   4.968   0.963   3.548 -0.7448 -0.8269  0.1790
 7606SOL    HW223718   4.814   0.927   3.590 -0.8496  0.6268  1.0913
 7607SOL     OW23719   2.083   6.871   6.290 -0.0743 -0.6971 -0.0698
 7607SOL    HW123720   2.025   6.822   6.356  0.5571 -2.7857 -0.9862
 7607SOL    HW223721   2.138   6.939   6.338  1.3565 -3.0484  1.8294
 7608SOL     OW23722   5.956   3.892   0.487 -0.7687 -0.6367  0.2597
 7608SOL    HW123723   5.981   3.795   0.485  0.6197 -0.3065  0.6212
 7608SOL    HW223724   5.876   3.907   0.428  0.2371 -1.6555 -1.4508
 7609SOL     OW23725   6.305   2.617   4.463  0.3521 -0.1098 -0.2133
 7609SOL    HW123726   6.399   2.648   4.471  0.7493 -0.9825 -1.2938
 7609SOL    HW223727   6.249   2.689   4.421  0.9943 -0.3402 -1.5109
 7610SOL     OW23728   3.639   0.356   6.773 -0.2443 -0.0053  0.1736
 7610SOL    HW123729   3.708   0.421   6.803 -1.6741  1.5428  0.2239
 7610SOL    HW223730   3.668   0.313   6.687  0.1866  1.6204 -0.5151
 7611SOL     OW23731   4.148   3.996   0.415 -0.4507  0.0503  0.0520
 7611SOL    HW123732   4.197   4.083   0.407  1.4940 -0.8347  1.6050
 7611SOL    HW223733   4.198   3.925   0.366  1.4047 -1.4139  3.6799
 7612SOL     OW23734   4.210   1.398   3.062 -0.5814  0.6044 -0.1467
 7612SOL    HW123735   4.278   1.420   2.993 -0.2532 -0.4620 -0.1876
 7612SOL    HW223736   4.126   1.449   3.044  0.0557  1.6165 -0.3338
 7613SOL     OW23737   0.992   1.733   3.337  0.1647 -0.1832 -0.2142
 7613SOL    HW123738   1.069   1.672   3.318 -0.1476 -0.6740  0.0783
 7613SOL    HW223739   1.011   1.823   3.298  0.8922 -0.2924 -0.1304
 7614SOL     OW23740   0.406   3.972   0.641 -0.5295  0.2061 -0.1632
 7614SOL    HW123741   0.390   3.873   0.632  0.0577  0.0401  0.5594
 7614SOL    HW223742   0.490   3.988   0.694  0.0258  1.0861 -1.2646
 7615SOL     OW23743   5.072   1.944   5.636 -0.2843 -0.1592 -0.6080
 7615SOL    HW123744   5.033   2.036   5.633  0.1471 -0.0045 -1.7932
 7615SOL    HW223745   5.066   1.909   5.730  2.0437  2.1649  0.5492
 7616SOL     OW23746   5.380   5.096   2.646  0.5344 -0.3002  0.0603
 7616SOL    HW123747   5.316   5.138   2.711  0.8084 -0.0337  0.1624
 7616SOL    HW223748   5.373   4.997   2.652 -0.1967 -0.2744 -0.2547
 7617SOL     OW23749   5.300   5.577   1.713 -0.4092 -0.2367  0.3254
 7617SOL    HW123750   5.252   5.648   1.764  1.6274  2.6299 -1.4565
 7617SOL    HW223751   5.244   5.547   1.636 -0.7401  0.5027  0.2699
 7618SOL     OW23752   1.269   3.292   0.422 -0.2332 -0.2283 -0.0191
 7618SOL    HW123753   1.228   3.317   0.334 -1.0667 -0.1282  0.3897
 7618SOL    HW223754   1.363   3.263   0.407  0.4236  2.0316 -0.6582
 7619SOL     OW23755   1.508   1.862   4.974 -0.5792  0.3080 -0.3442
 7619SOL    HW123756   1.505   1.947   5.026 -0.1632  1.1950 -1.7452
 7619SOL    HW223757   1.600   1.847   4.939 -0.9739  0.0353 -1.3082
 7620SOL     OW23758   3.542   3.596   1.086 -0.0309 -0.8866 -0.5914
 7620SOL    HW123759   3.582   3.593   0.994  1.1126 -0.9454 -0.1086
 7620SOL    HW223760   3.610   3.566   1.153 -0.6066 -0.1138  0.3624
 7621SOL     OW23761   6.028   5.283   2.442  0.1286 -0.6611 -0.2701
 7621SOL    HW123762   6.123   5.259   2.420 -0.0971 -1.6704 -0.1867
 7621SOL    HW223763   5.971   5.273   2.360 -0.1241 -1.2691 -0.0265
 7622SOL     OW23764   4.196   5.073   0.698 -0.7290  0.0898 -0.0761
 7622SOL    HW123765   4.142   5.150   0.732 -0.2669  0.1420  0.5636
 7622SOL    HW223766   4.187   4.995   0.760  1.5417  0.7612  1.2462
 7623SOL     OW23767   3.062   5.829   0.468  0.0919 -0.1979  0.5768
 7623SOL    HW123768   3.062   5.730   0.472 -1.2669 -0.3419 -1.4652
 7623SOL    HW223769   3.000   5.866   0.538  1.2520 -0.6845  1.9167
 7624SOL     OW23770   6.638   2.956   1.864  0.7734  0.4529  0.1260
 7624SOL    HW123771   6.565   2.987   1.925  0.5876  0.5950 -0.1646
 7624SOL    HW223772   6.634   3.008   1.779  0.4649 -0.3572 -0.3684
 7625SOL     OW23773   5.797   0.557   5.964  0.7044 -0.0836  0.5425
 7625SOL    HW123774   5.770   0.461   5.960  0.2300  0.0787 -1.3619
 7625SOL    HW223775   5.886   0.569   5.921  0.1779  0.4706 -0.4554
 7626SOL     OW23776   5.984   1.972   6.919 -0.1859 -0.0975  0.7445
 7626SOL    HW123777   6.008   2.057   6.966  0.6309  0.0503  0.0996
 7626SOL    HW223778   5.893   1.980   6.878  0.1606  0.7248  0.1162
 7627SOL     OW23779   3.942   2.472   0.932 -0.5797  0.3087  0.1831
 7627SOL    HW123780   3.968   2.507   0.842  0.1192  0.2922  0.3737
 7627SOL    HW223781   3.991   2.524   1.002  2.0907 -2.3088  0.4308
 7628SOL     OW23782   3.503   0.985   1.208 -0.0651 -0.5268 -0.0941
 7628SOL    HW123783   3.600   0.972   1.188  0.2405  1.7891 -0.4213
 7628SOL    HW223784   3.494   1.024   1.300 -0.6224 -0.0803 -0.3360
 7629SOL     OW23785   6.744   2.056   4.293 -0.5051 -0.1202  0.2027
 7629SOL    HW123786   6.646   2.071   4.295 -0.2492  2.2268 -0.9732
 7629SOL    HW223787   6.789   2.118   4.357  0.3782  1.1006 -1.5174
 7630SOL     OW23788   1.603   0.603   5.112  0.1588  0.8961  0.6053
 7630SOL    HW123789   1.582   0.631   5.018  1.8710 -1.8674 -0.6975
 7630SOL    HW223790   1.682   0.655   5.146  0.4298  0.9039 -0.0326
 7631SOL     OW23791   3.454   0.689   5.131  0.3715 -0.1623 -0.7337
 7631SOL    HW123792   3.550   0.715   5.145  0.1023  0.4458  0.0567
 7631SOL    HW223793   3.448   0.626   5.054  1.0651  2.0593 -2.7235
 7632SOL     OW23794   6.146   5.566   0.476  0.2883 -0.0663 -0.0147
 7632SOL    HW123795   6.141   5.581   0.575  1.7060 -1.4411  0.3224
 7632SOL    HW223796   6.239   5.587   0.445  0.4871 -1.6852 -0.6266
 7633SOL     OW23797   6.619   0.513   6.184  0.3171 -0.3920 -0.0434
 7633SOL    HW123798   6.547   0.513   6.254  0.0742 -1.7622 -0.2600
 7633SOL    HW223799   6.606   0.591   6.123 -0.4935 -0.1576  0.4097
 7634SOL     OW23800   1.946   2.430   0.572  0.5095  0.2244  0.3809
 7634SOL    HW123801   1.979   2.508   0.625  0.1004  0.6406  0.0418
 7634SOL    HW223802   1.910   2.463   0.484  0.7425 -0.3981  0.0438
 7635SOL     OW23803   1.658   5.471   3.966 -0.2428 -0.0751  0.4574
 7635SOL    HW123804   1.603   5.388   3.955  1.4678 -1.1609 -0.3327
 7635SOL    HW223805   1.652   5.526   3.883 -0.2801 -0.0978  0.4448
 7636SOL     OW23806   2.976   3.649   5.537  0.0418  0.1045  0.0687
 7636SOL    HW123807   2.975   3.652   5.437  0.1875  0.0741  0.0655
 7636SOL    HW223808   3.070   3.658   5.569  0.0212 -0.1143  0.1946
 7637SOL     OW23809   6.250   4.030   4.210 -0.1523  0.3306  0.1046
 7637SOL    HW123810   6.165   4.082   4.214  0.4287  1.4816 -1.3293
 7637SOL    HW223811   6.288   4.036   4.117  2.1395  0.9459  1.0158
 7638SOL     OW23812   1.624   5.427   1.340  0.2455  0.2110 -0.2659
 7638SOL    HW123813   1.549   5.363   1.357  0.9058 -0.6493 -0.5088
 7638SOL    HW223814   1.593   5.521   1.357 -0.7982 -0.1527 -0.1046
 7639SOL     OW23815   0.721   0.306   1.405  0.1283 -0.6731 -0.3462
 7639SOL    HW123816   0.638   0.293   1.351 -1.8996  2.5886  1.6702
 7639SOL    HW223817   0.774   0.382   1.367 -0.5620  0.6676  1.2523
 7640SOL     OW23818   1.898   0.007   0.266 -0.5838 -0.2560 -0.0978
 7640SOL    HW123819   1.878  -0.037   0.178  0.3977 -0.8291 -0.0529
 7640SOL    HW223820   1.814   0.048   0.302 -1.3906 -1.4764 -0.4877
 7641SOL     OW23821   5.707   4.102   2.860  0.2068  0.1185  0.2656
 7641SOL    HW123822   5.728   4.033   2.930  2.4271  0.8701  0.4183
 7641SOL    HW223823   5.693   4.190   2.904 -0.4493  0.1989 -0.0977
 7642SOL     OW23824   0.090   2.689   3.416 -0.4834 -0.3444  0.3551
 7642SOL    HW123825   0.008   2.745   3.406  0.8624  1.5941 -0.5233
 7642SOL    HW223826   0.131   2.707   3.506 -0.3499 -0.3349  0.2922
 7643SOL     OW23827   5.025   2.299   2.948 -0.2939 -0.5651 -0.2173
 7643SOL    HW123828   5.107   2.258   2.989  0.0217  0.9022  0.6795
 7643SOL    HW223829   4.962   2.326   3.021 -1.8092 -2.0610 -0.9014
 7644SOL     OW23830   4.798   2.478   0.381 -0.8039 -0.2965  0.2475
 7644SOL    HW123831   4.763   2.540   0.311  0.0821 -0.7074 -0.5843
 7644SOL    HW223832   4.794   2.384   0.348 -1.9683 -0.6877  1.4269
 7645SOL     OW23833   2.708   4.311   5.718  0.0108 -0.2562 -0.8607
 7645SOL    HW123834   2.723   4.258   5.801  0.3861 -1.2219 -1.5181
 7645SOL    HW223835   2.621   4.284   5.676  0.6965 -1.1842 -1.7639
 7646SOL     OW23836   2.238   3.273   1.553 -0.3842 -0.1319 -0.3267
 7646SOL    HW123837   2.197   3.183   1.539  0.6464 -0.5375 -0.8640
 7646SOL    HW223838   2.333   3.262   1.584 -0.8039  0.7824  1.3745
 7647SOL     OW23839   2.351   1.746   4.422  0.1880 -0.4560 -0.2016
 7647SOL    HW123840   2.450   1.729   4.428  0.0404 -1.7931 -1.2794
 7647SOL    HW223841   2.318   1.778   4.511  1.6017  0.1440  0.1431
 7648SOL     OW23842   2.094   1.907   2.726  0.7167 -0.4075  0.1314
 7648SOL    HW123843   2.085   1.966   2.646  2.2959  1.1550  1.0404
 7648SOL    HW223844   2.169   1.842   2.711  0.2406 -0.9165 -0.0968
 7649SOL     OW23845   5.998   2.494   5.865  0.9540 -1.0151  0.1719
 7649SOL    HW123846   6.091   2.529   5.853  0.4003  0.0394 -1.4250
 7649SOL    HW223847   5.993   2.402   5.826  1.0591 -0.6130 -0.8177
 7650SOL     OW23848   3.781   6.933   1.589  0.0004  0.6190  0.2407
 7650SOL    HW123849   3.851   6.863   1.595 -1.1996 -0.5249  1.2404
 7650SOL    HW223850   3.803   7.009   1.650  0.8069  0.6878 -0.1289
 7651SOL     OW23851   4.242   5.636   4.326  0.0289  0.5451  0.2410
 7651SOL    HW123852   4.212   5.626   4.232  1.7659 -0.9399 -0.2297
 7651SOL    HW223853   4.232   5.548   4.374 -0.4697  1.1779  1.3366
 7652SOL     OW23854   0.491   6.224   4.673 -0.0582 -0.0912 -0.5130
 7652SOL    HW123855   0.511   6.286   4.748 -0.1007  0.0776 -0.6408
 7652SOL    HW223856   0.492   6.274   4.586  1.2456 -0.5243 -0.7601
 7653SOL     OW23857   1.541   2.172   6.722  0.3885  0.2888  0.4754
 7653SOL    HW123858   1.522   2.160   6.625  0.4090 -0.7848  0.5914
 7653SOL    HW223859   1.526   2.085   6.770 -0.4975  1.0183  1.5825
 7654SOL     OW23860   0.493   2.793   3.351 -0.0820  0.4083 -0.3005
 7654SOL    HW123861   0.423   2.746   3.405 -2.1898  2.0637 -1.4273
 7654SOL    HW223862   0.478   2.892   3.356  1.3478  0.7354 -1.7228
 7655SOL     OW23863   3.352   2.066   2.354 -0.1430  0.5141  0.1681
 7655SOL    HW123864   3.396   2.085   2.442  2.8810 -3.9488 -0.0125
 7655SOL    HW223865   3.420   2.074   2.280 -1.2875 -0.4967 -1.0531
 7656SOL     OW23866   0.702   3.325   6.433  0.2357  0.0049  0.0818
 7656SOL    HW123867   0.777   3.320   6.366  1.6190 -1.1241  1.6154
 7656SOL    HW223868   0.734   3.288   6.521 -1.6202  1.1151  1.2864
 7657SOL     OW23869   1.278   4.823   4.778 -0.9186 -0.2253 -0.3080
 7657SOL    HW123870   1.339   4.902   4.775 -1.0596 -0.1502 -1.3257
 7657SOL    HW223871   1.321   4.745   4.732 -0.9598 -0.6283  0.3174
 7658SOL     OW23872   3.634   0.632   6.702 -0.2429  0.0459  0.0292
 7658SOL    HW123873   3.601   0.538   6.706 -0.1394 -0.1156 -2.0923
 7658SOL    HW223874   3.727   0.633   6.667 -0.3299  0.9615 -0.1942
 7659SOL     OW23875   4.366   4.388   5.501  0.2613 -0.1331  0.4423
 7659SOL    HW123876   4.276   4.345   5.512 -0.3224  1.0162  0.3140
 7659SOL    HW223877   4.399   4.419   5.590 -0.2712  0.9657  0.2812
 7660SOL     OW23878   6.553   6.615   4.592  0.8246 -0.1233  0.2174
 7660SOL    HW123879   6.620   6.541   4.597 -0.7574 -1.7941 -1.6012
 7660SOL    HW223880   6.562   6.664   4.506 -0.3437 -0.4851 -0.1359
 7661SOL     OW23881   3.707   1.749   5.893 -0.7572  0.0470  0.2828
 7661SOL    HW123882   3.769   1.743   5.971 -0.5913  1.3576  0.2596
 7661SOL    HW223883   3.647   1.669   5.893  0.2432 -0.7323  0.8788
 7662SOL     OW23884   3.435   6.721   2.734 -0.3418 -0.5625  0.4238
 7662SOL    HW123885   3.531   6.708   2.710 -0.4992  0.2202 -0.6918
 7662SOL    HW223886   3.413   6.818   2.733 -1.0760 -0.7116  0.9885
 7663SOL     OW23887   6.291   6.103   6.558 -0.2155  0.0909  0.1782
 7663SOL    HW123888   6.293   6.127   6.461  0.6110  0.1951  0.2153
 7663SOL    HW223889   6.342   6.017   6.572  0.0765  0.3259  0.5802
 7664SOL     OW23890   3.995   0.434   3.012  0.0237 -0.1358  0.5567
 7664SOL    HW123891   3.925   0.386   2.960  0.2475 -0.8442  0.8964
 7664SOL    HW223892   3.951   0.489   3.084 -0.2668  0.6473 -0.2040
 7665SOL     OW23893   3.484   1.625   4.623 -0.2858  0.1507  0.1902
 7665SOL    HW123894   3.452   1.716   4.652  0.5011  0.5162 -0.0423
 7665SOL    HW223895   3.576   1.634   4.585 -0.6220 -0.5937 -0.8194
 7666SOL     OW23896   4.443   6.139   3.928 -0.3065  0.4464  0.4514
 7666SOL    HW123897   4.383   6.130   4.008 -1.3510  0.0315 -0.3508
 7666SOL    HW223898   4.537   6.152   3.959 -0.3056 -2.0721  1.7914
 7667SOL     OW23899   5.179   6.165   1.138  0.2831 -0.3253  0.0471
 7667SOL    HW123900   5.261   6.145   1.191  0.0909  2.7484  1.6970
 7667SOL    HW223901   5.192   6.248   1.085 -2.1478  1.1487  1.5352
 7668SOL     OW23902   1.645   5.257   0.576  0.3328  0.1337  0.0730
 7668SOL    HW123903   1.647   5.231   0.479 -0.0799  0.2645  0.0283
 7668SOL    HW223904   1.730   5.302   0.600 -0.5385  2.4274 -0.8816
 7669SOL     OW23905   1.967   4.839   6.015  0.1182  0.4797  0.1584
 7669SOL    HW123906   1.915   4.842   5.930 -0.5149  0.7271  0.5373
 7669SOL    HW223907   1.917   4.891   6.085 -0.3889 -1.3584  1.2212
 7670SOL     OW23908   0.498   6.302   6.504 -0.3101 -0.6212  0.0143
 7670SOL    HW123909   0.429   6.292   6.432 -1.1151 -2.5590  0.9677
 7670SOL    HW223910   0.457   6.345   6.584 -0.0007 -0.4001  0.0550
 7671SOL     OW23911   5.669   0.390   2.025  0.0893 -0.3534 -0.3345
 7671SOL    HW123912   5.698   0.366   2.118 -0.2248 -1.9858 -0.6353
 7671SOL    HW223913   5.571   0.414   2.026  0.8514  3.3573  0.3563
 7672SOL     OW23914   0.078   6.031   1.517 -0.3785  0.5340 -0.5948
 7672SOL    HW123915   0.012   5.959   1.493  0.8062 -0.9567  0.4165
 7672SOL    HW223916   0.168   6.009   1.479  0.1441  1.1830  0.2178
 7673SOL     OW23917   1.733   5.626   5.258 -0.0889 -0.3099 -0.2601
 7673SOL    HW123918   1.686   5.624   5.346  1.0446  0.8068  0.4073
 7673SOL    HW223919   1.792   5.706   5.254  1.1942 -1.2730 -1.3607
 7674SOL     OW23920   3.406   1.543   6.480 -0.1868 -0.3839  0.0259
 7674SOL    HW123921   3.442   1.488   6.556  1.2868  0.4313 -0.0487
 7674SOL    HW223922   3.480   1.560   6.414 -1.6106 -1.7678 -2.0371
 7675SOL     OW23923   4.711   6.784   4.309 -0.2425  0.0987  0.2897
 7675SOL    HW123924   4.662   6.861   4.349 -0.5556  0.2557 -0.3897
 7675SOL    HW223925   4.664   6.699   4.331 -1.3869  0.3275 -1.1833
 7676SOL     OW23926   3.548   3.890   4.125 -0.5250  0.2631 -0.3441
 7676SOL    HW123927   3.494   3.954   4.070  0.2114 -0.0560 -1.4797
 7676SOL    HW223928   3.488   3.843   4.189 -1.5029  0.3543 -1.1629
 7677SOL     OW23929   5.552   4.577   0.872  0.3450  0.2564 -0.4360
 7677SOL    HW123930   5.543   4.666   0.915  0.9656  0.6714 -1.1476
 7677SOL    HW223931   5.596   4.513   0.936 -0.1705  0.4364  0.1002
 7678SOL     OW23932   1.335   2.445   5.616 -0.1093 -0.6036  0.0864
 7678SOL    HW123933   1.279   2.425   5.696  0.7455 -0.0473  0.8408
 7678SOL    HW223934   1.414   2.500   5.643  1.2313 -1.9954 -0.8125
 7679SOL     OW23935   2.094   5.937   2.969  0.5802  0.2352  0.1959
 7679SOL    HW123936   2.154   5.893   2.903  1.3165  1.3126  0.1178
 7679SOL    HW223937   2.010   5.966   2.924  1.3653  1.5860 -0.4706
 7680SOL     OW23938   6.948   0.306   3.098  0.7842  0.4269  0.2660
 7680SOL    HW123939   6.913   0.212   3.097 -0.0856  0.7497 -0.1806
 7680SOL    HW223940   7.038   0.308   3.054  0.6941 -0.1487  0.0376
 7681SOL     OW23941   4.445   4.326   5.825 -0.4482  0.2588  0.6765
 7681SOL    HW123942   4.374   4.257   5.827 -1.1211  0.9155 -0.0045
 7681SOL    HW223943   4.531   4.286   5.793 -0.6711 -0.3870  0.8830
 7682SOL     OW23944   3.820   1.462   1.560  0.3277 -0.1033  0.2982
 7682SOL    HW123945   3.830   1.466   1.660  0.8242  1.1265  0.2224
 7682SOL    HW223946   3.870   1.383   1.525 -0.5050 -0.9968  1.0892
 7683SOL     OW23947   1.501   0.918   4.197 -0.2446 -0.4438 -0.0777
 7683SOL    HW123948   1.409   0.958   4.192  0.2761  1.3847  2.8298
 7683SOL    HW223949   1.509   0.864   4.281  1.7472  0.6207  0.4585
 7684SOL     OW23950   5.580   4.500   0.125 -0.4476  0.5104 -0.6139
 7684SOL    HW123951   5.635   4.417   0.128  0.7374  1.2873  0.0729
 7684SOL    HW223952   5.483   4.476   0.129 -0.1239 -0.8271 -0.3134
 7685SOL     OW23953   2.470   1.249   6.304 -0.1944 -0.1488 -0.0108
 7685SOL    HW123954   2.378   1.238   6.266 -1.3200 -0.4740  2.5678
 7685SOL    HW223955   2.535   1.194   6.252 -1.7321 -1.1452 -0.9597
 7686SOL     OW23956   4.806   0.445   4.692  0.3400 -0.5217  0.1200
 7686SOL    HW123957   4.762   0.384   4.758  0.7800 -1.5411 -0.4973
 7686SOL    HW223958   4.757   0.438   4.604 -0.3311  0.9254  0.3632
 7687SOL     OW23959   0.730   3.807   1.846 -0.3541  0.3367  0.1617
 7687SOL    HW123960   0.719   3.741   1.772 -2.2238  1.6280 -0.7810
 7687SOL    HW223961   0.644   3.854   1.862  1.1462  3.3753 -0.0324
 7688SOL     OW23962   2.617   1.148   6.619 -1.1996 -0.4023 -0.1694
 7688SOL    HW123963   2.619   1.235   6.669  1.1559 -0.5216  0.0520
 7688SOL    HW223964   2.578   1.162   6.528 -1.9483  0.6185  0.2936
 7689SOL     OW23965   5.766   0.756   1.860  0.4942  0.0508 -0.3645
 7689SOL    HW123966   5.828   0.833   1.851 -0.2947  0.9863  1.6250
 7689SOL    HW223967   5.678   0.778   1.816  0.0844  0.5419  0.6666
 7690SOL     OW23968   6.159   5.408   0.253  0.0314 -0.8292  0.4660
 7690SOL    HW123969   6.202   5.473   0.190 -1.0212  0.3344  0.9001
 7690SOL    HW223970   6.157   5.448   0.345 -1.6695 -0.9705  0.5129
 7691SOL     OW23971   5.068   4.156   3.518  0.0862 -0.1780  0.5182
 7691SOL    HW123972   5.098   4.066   3.488  0.9704  0.2551  0.0848
 7691SOL    HW223973   5.008   4.146   3.597  0.2971 -1.1326  0.5684
 7692SOL     OW23974   3.263   1.460   1.847 -0.2094  0.2161  0.1665
 7692SOL    HW123975   3.204   1.382   1.827  0.5655 -0.6839  1.2752
 7692SOL    HW223976   3.215   1.523   1.909 -0.7205  0.4932 -0.4937
 7693SOL     OW23977   1.618   1.677   6.897  0.5489 -0.2406  0.2949
 7693SOL    HW123978   1.519   1.674   6.914  0.4615  1.6079  0.3023
 7693SOL    HW223979   1.653   1.767   6.921  1.6073  0.3979 -3.1447
 7694SOL     OW23980   6.885   2.106   5.176  0.8925  0.5755 -0.2916
 7694SOL    HW123981   6.881   2.183   5.111 -0.2460 -0.9122 -2.1001
 7694SOL    HW223982   6.970   2.055   5.163  0.5087  0.0732 -0.9087
 7695SOL     OW23983   5.532   0.544   1.676 -0.2453 -0.1676 -0.0579
 7695SOL    HW123984   5.512   0.451   1.643 -1.6377 -0.4211  1.4111
 7695SOL    HW223985   5.510   0.551   1.773  0.8651  1.4271  0.1272
 7696SOL     OW23986   6.815   1.426   6.810  0.2032  0.9359  0.3282
 7696SOL    HW123987   6.764   1.389   6.887  0.2428 -2.3952 -1.0644
 7696SOL    HW223988   6.751   1.449   6.736  0.4164 -0.8540 -0.4812
 7697SOL     OW23989   3.675   1.867   1.011  0.2029  0.1722 -0.1474
 7697SOL    HW123990   3.621   1.849   1.093 -2.4165  0.4770 -1.7034
 7697SOL    HW223991   3.642   1.950   0.966  0.6292 -0.7297 -2.2450
 7698SOL     OW23992   0.034   1.530   0.115  0.1134 -0.6272  0.4252
 7698SOL    HW123993   0.078   1.523   0.026  0.9443 -1.6182  0.8955
 7698SOL    HW223994   0.009   1.625   0.132 -0.6985 -0.5297 -1.1544
 7699SOL     OW23995   3.337   3.649   0.195  0.2321 -0.4461  0.1406
 7699SOL    HW123996   3.378   3.586   0.261  1.4041  0.1069 -0.0471
 7699SOL    HW223997   3.239   3.657   0.214  0.6801  0.3814  2.3866
 7700SOL     OW23998   5.995   4.929   3.321 -0.3339 -0.0881 -0.1626
 7700SOL    HW123999   5.949   4.841   3.336 -0.4931 -0.2713 -1.5640
 7700SOL    HW224000   5.961   4.995   3.387 -1.4623 -0.6488 -0.1445
 7701SOL     OW24001   0.738   2.617   6.372 -0.1218 -0.1998 -0.2270
 7701SOL    HW124002   0.817   2.665   6.409 -0.8558  0.1811  0.8999
 7701SOL    HW224003   0.753   2.519   6.378  0.8535 -0.1483 -1.3708
 7702SOL     OW24004   4.793   0.731   6.999 -0.1667  0.2680  0.3242
 7702SOL    HW124005   4.861   0.802   6.977 -0.8498  0.8029 -0.1066
 7702SOL    HW224006   4.705   0.756   6.959 -0.3335 -1.0141 -0.1514
 7703SOL     OW24007   0.214   0.958   3.109  0.0936  0.0978  0.0744
 7703SOL    HW124008   0.261   0.891   3.167 -1.1393 -0.2419  0.7298
 7703SOL    HW224009   0.272   0.982   3.032  0.6462 -1.6064 -0.0866
 7704SOL     OW24010   0.414   1.772   1.407 -0.2345  0.3971  0.0019
 7704SOL    HW124011   0.344   1.810   1.346  0.8110 -1.0000 -2.2086
 7704SOL    HW224012   0.453   1.846   1.462 -2.5538  1.4024  0.4383
 7705SOL     OW24013   1.950   5.341   0.800  0.4443 -0.1463  0.6036
 7705SOL    HW124014   1.972   5.376   0.891 -3.6588 -0.0491  1.7561
 7705SOL    HW224015   1.867   5.285   0.805  1.9497 -3.0488 -2.6097
 7706SOL     OW24016   4.158   3.430   2.776 -0.2331  0.3397  0.3624
 7706SOL    HW124017   4.221   3.367   2.820  0.7134  0.8017 -0.2955
 7706SOL    HW224018   4.129   3.500   2.841 -0.0039  0.1667  0.6514
 7707SOL     OW24019   6.288   0.548   6.657 -0.1842 -0.5915 -0.0909
 7707SOL    HW124020   6.308   0.612   6.731 -0.0832  0.3799 -0.9532
 7707SOL    HW224021   6.207   0.579   6.607  0.6045 -0.4309 -1.3070
 7708SOL     OW24022   1.488   1.371   5.771 -0.7514  1.0154  0.0328
 7708SOL    HW124023   1.529   1.446   5.823 -0.4636  1.6578 -1.0758
 7708SOL    HW224024   1.529   1.368   5.680 -2.8672  1.4470 -0.9992
 7709SOL     OW24025   6.770   5.809   6.815 -0.2406 -0.1272 -0.2138
 7709SOL    HW124026   6.677   5.845   6.802 -0.4512 -1.3157 -2.3095
 7709SOL    HW224027   6.835   5.884   6.814 -0.9816  0.5253 -0.9595
 7710SOL     OW24028   1.485   2.979   0.557  0.1478 -0.0031  0.0125
 7710SOL    HW124029   1.470   3.078   0.560 -0.5622 -0.1175  0.4704
 7710SOL    HW224030   1.460   2.939   0.646 -0.6753 -0.7345 -0.5339
 7711SOL     OW24031   6.505   5.930   4.876  0.5738  0.3572 -0.2747
 7711SOL    HW124032   6.530   5.943   4.780 -1.6975  1.4578 -0.7925
 7711SOL    HW224033   6.565   5.862   4.918  1.1656 -0.6697 -2.6574
 7712SOL     OW24034   0.832   5.897   4.824  0.4362  0.3210  0.6866
 7712SOL    HW124035   0.740   5.923   4.793 -0.2098 -1.3031  1.1354
 7712SOL    HW224036   0.893   5.976   4.816 -0.6351  1.0378 -0.9952
 7713SOL     OW24037   2.328   4.639   0.352 -0.6363  0.2151  0.2334
 7713SOL    HW124038   2.323   4.736   0.327  0.0849 -0.1004 -1.2835
 7713SOL    HW224039   2.415   4.622   0.399 -1.1123  0.4333  1.2202
 7714SOL     OW24040   0.070   0.717   2.499  0.4002 -0.1853  0.3893
 7714SOL    HW124041   0.034   0.711   2.406  2.0441 -1.5375 -0.2221
 7714SOL    HW224042   0.034   0.641   2.554  1.6388 -1.0880 -0.0047
 7715SOL     OW24043   1.477   3.577   0.052 -0.0692 -0.0049 -0.0361
 7715SOL    HW124044   1.515   3.658   0.007 -0.4561  0.5625  0.6269
 7715SOL    HW224045   1.447   3.602   0.144  2.8514 -1.6454  1.4918
 7716SOL     OW24046   0.271   6.642   7.019  0.2971  0.3355 -0.4769
 7716SOL    HW124047   0.215   6.720   6.990 -0.9781 -0.2358  0.3778
 7716SOL    HW224048   0.368   6.666   7.009  0.0785  3.1855  2.4434
 7717SOL     OW24049   0.320   3.268   0.542 -0.6569  0.1320 -0.3851
 7717SOL    HW124050   0.418   3.286   0.532 -0.8986  2.1064  0.2484
 7717SOL    HW224051   0.305   3.195   0.608  0.3743  0.2076 -0.0614
 7718SOL     OW24052   0.980   4.075   2.961  0.0898  0.2738 -0.0918
 7718SOL    HW124053   0.956   4.163   2.920 -0.6595  0.9239  1.6911
 7718SOL    HW224054   0.899   4.034   3.003  1.2764  0.9830  3.1820
 7719SOL     OW24055   0.585   4.203   5.280 -0.5375 -0.1282 -0.3958
 7719SOL    HW124056   0.641   4.262   5.223 -1.1453 -0.0792 -0.9589
 7719SOL    HW224057   0.578   4.241   5.372 -0.1510  0.1744 -0.4910
 7720SOL     OW24058   5.942   1.160   5.815 -0.7573  0.1135 -0.3796
 7720SOL    HW124059   5.933   1.063   5.794 -1.7312  0.1677 -0.2681
 7720SOL    HW224060   5.888   1.213   5.750 -0.1544  0.5927 -0.4962
 7721SOL     OW24061   1.362   1.342   2.268 -0.6065 -0.1081  0.0915
 7721SOL    HW124062   1.419   1.423   2.283  1.7083 -1.5335 -0.4970
 7721SOL    HW224063   1.325   1.310   2.356  1.3747 -0.4031  0.8590
 7722SOL     OW24064   1.139   5.343   3.640  0.2588 -0.4429  0.0916
 7722SOL    HW124065   1.222   5.399   3.645  1.1994 -1.7395 -0.6074
 7722SOL    HW224066   1.080   5.365   3.718  1.0591  0.7799  0.3866
 7723SOL     OW24067   5.034   3.174   6.743 -0.2672 -0.4483 -0.1118
 7723SOL    HW124068   5.072   3.264   6.720  0.1772 -0.4746  0.4951
 7723SOL    HW224069   4.934   3.178   6.738 -0.4570  0.9580  2.8709
 7724SOL     OW24070   2.008   4.222   3.206  0.5460 -0.2557  0.0656
 7724SOL    HW124071   1.999   4.316   3.239 -0.2178 -0.5868  0.8721
 7724SOL    HW224072   2.086   4.215   3.144  1.7419  0.5187  1.4307
 7725SOL     OW24073   6.378   1.855   2.142 -0.1619 -0.6011 -0.4813
 7725SOL    HW124074   6.407   1.789   2.212 -0.4737 -0.8955 -0.6299
 7725SOL    HW224075   6.403   1.820   2.051 -1.9578 -1.3922 -0.7025
 7726SOL     OW24076   0.164   2.339   0.420 -0.0374  0.4115  0.0264
 7726SOL    HW124077   0.158   2.267   0.351 -1.2895  0.5700 -0.0512
 7726SOL    HW224078   0.110   2.418   0.391  0.1130  0.8128  0.8018
 7727SOL     OW24079   5.478   3.627   2.920 -0.1041  0.3395  0.0670
 7727SOL    HW124080   5.509   3.721   2.932  1.1720 -0.1270  0.5797
 7727SOL    HW224081   5.421   3.621   2.838  2.0338  1.0674 -1.5688
 7728SOL     OW24082   1.245   4.163   4.299  0.2057  0.1042  0.4242
 7728SOL    HW124083   1.315   4.096   4.322  0.6999  0.6625  0.5526
 7728SOL    HW224084   1.287   4.242   4.256 -0.2815  0.6697  0.9777
 7729SOL     OW24085   4.914   3.286   2.441  0.3371 -0.2117 -0.4586
 7729SOL    HW124086   4.896   3.226   2.363 -0.1711  0.2356 -0.6914
 7729SOL    HW224087   4.913   3.382   2.410 -0.3983 -0.0042  0.1963
 7730SOL     OW24088   3.381   4.274   5.945 -0.2815  0.7419 -0.1844
 7730SOL    HW124089   3.357   4.213   6.020  2.4343  1.3535  1.3234
 7730SOL    HW224090   3.301   4.288   5.887 -1.9604 -1.3310  1.4330
 7731SOL     OW24091   5.899   6.074   0.312  0.4026 -0.7876 -0.2581
 7731SOL    HW124092   5.970   6.029   0.365  1.2361 -0.1677 -0.8180
 7731SOL    HW224093   5.894   6.034   0.220  1.0131  0.0957 -0.6921
 7732SOL     OW24094   5.998   0.722   0.576  0.1140  0.1454 -0.7337
 7732SOL    HW124095   5.905   0.737   0.610  0.0945  0.7962 -1.0658
 7732SOL    HW224096   6.020   0.624   0.581 -0.4018  0.0516 -0.1851
 7733SOL     OW24097   6.117   5.172   1.944  0.0050  0.2854  0.1536
 7733SOL    HW124098   6.067   5.086   1.933  4.5211 -2.3764 -2.7462
 7733SOL    HW224099   6.102   5.229   1.863  0.0191  0.4383  0.2590
 7734SOL     OW24100   3.105   4.632   5.267 -0.3788 -1.0072 -0.2781
 7734SOL    HW124101   3.022   4.593   5.226  0.0353 -1.2515 -0.9007
 7734SOL    HW224102   3.160   4.560   5.309 -0.8886 -0.7365  0.9034
 7735SOL     OW24103   6.542   0.251   6.784  0.2086  0.3995 -0.5533
 7735SOL    HW124104   6.612   0.183   6.759 -0.6867 -0.9278  0.3842
 7735SOL    HW224105   6.587   0.333   6.818  1.3956 -0.9816  1.4967
 7736SOL     OW24106   2.447   3.058   5.644 -0.0053 -0.2275  0.1101
 7736SOL    HW124107   2.522   3.117   5.675 -2.6431  2.5734  1.7174
 7736SOL    HW224108   2.422   2.995   5.717  2.2180 -3.0298 -1.3007
 7737SOL     OW24109   5.642   5.704   6.203 -0.3983 -0.0915 -0.4723
 7737SOL    HW124110   5.637   5.682   6.300  2.4078 -0.1307 -0.2442
 7737SOL    HW224111   5.656   5.620   6.150  3.7770  0.2485 -0.2353
 7738SOL     OW24112   2.600   5.037   0.063 -0.2093  0.3877 -0.3628
 7738SOL    HW124113   2.579   5.103   0.135  2.6228  0.0336  0.9592
 7738SOL    HW224114   2.618   5.085  -0.023 -2.5355  0.9026 -0.6266
 7739SOL     OW24115   2.030   1.649   1.674 -0.1012 -0.3627 -0.1353
 7739SOL    HW124116   2.002   1.744   1.658  0.0501  0.3193  3.0456
 7739SOL    HW224117   2.050   1.605   1.586 -0.1485  2.5249 -1.7132
 7740SOL     OW24118   3.308   0.015   4.583  0.0162 -0.1678  0.0237
 7740SOL    HW124119   3.288   0.082   4.513  1.4497  0.3911  0.1236
 7740SOL    HW224120   3.385  -0.042   4.555 -1.1160 -1.7542 -0.0295
 7741SOL     OW24121   2.490   4.209   5.880  0.9872 -0.1843  0.1929
 7741SOL    HW124122   2.396   4.178   5.876  1.3494 -1.2261 -1.9816
 7741SOL    HW224123   2.494   4.302   5.917 -0.7729 -0.4406  1.0857
 7742SOL     OW24124   4.193   6.346   5.672 -0.6819  0.4089  0.4155
 7742SOL    HW124125   4.232   6.267   5.718  1.4840  0.9115 -0.4111
 7742SOL    HW224126   4.113   6.318   5.620  0.8138 -1.6004 -0.9743
 7743SOL     OW24127   5.636   1.619   5.437  0.5877 -0.1922  0.3109
 7743SOL    HW124128   5.713   1.663   5.483  1.7369 -1.9100  0.1292
 7743SOL    HW224129   5.669   1.539   5.386 -1.1222 -0.1733 -0.9153
 7744SOL     OW24130   1.147   6.820   5.292  0.4133  0.6103 -0.5008
 7744SOL    HW124131   1.197   6.758   5.352 -1.4458 -0.2315  0.2396
 7744SOL    HW224132   1.201   6.903   5.278  1.9318 -0.1940  0.3600
 7745SOL     OW24133   1.097   6.167   6.170 -0.5127  0.2508  0.2793
 7745SOL    HW124134   1.156   6.182   6.250 -0.7156 -2.7228  1.0841
 7745SOL    HW224135   1.069   6.071   6.167 -3.1005  0.9719 -1.6349
 7746SOL     OW24136   1.189   0.831   1.435  0.6447  0.4798  0.4969
 7746SOL    HW124137   1.126   0.821   1.358  1.1645  0.9076  0.0024
 7746SOL    HW224138   1.228   0.742   1.459  2.0305  0.6126 -1.0820
 7747SOL     OW24139   0.532   4.527   6.393  0.4703  0.0624 -0.0491
 7747SOL    HW124140   0.549   4.512   6.491 -0.4777 -0.4029  0.0555
 7747SOL    HW224141   0.619   4.542   6.346  1.0891 -1.3139  0.5994
 7748SOL     OW24142   2.977   1.015   5.260  0.2975  0.3702  0.0292
 7748SOL    HW124143   3.072   0.989   5.246  0.7959  1.8433  0.5563
 7748SOL    HW224144   2.952   1.087   5.196  0.6245  2.4973  2.1758
 7749SOL     OW24145   3.255   3.491   3.970 -0.7127 -0.2364  0.1825
 7749SOL    HW124146   3.171   3.501   3.916  0.2162  2.1859 -0.9366
 7749SOL    HW224147   3.238   3.520   4.064 -1.2970 -0.4428  0.1455
 7750SOL     OW24148   5.706   3.842   5.984 -0.0445 -0.3192 -0.3546
 7750SOL    HW124149   5.755   3.814   5.901  0.0953 -0.8790 -0.0933
 7750SOL    HW224150   5.661   3.762   6.023 -0.6651  0.0789 -0.2567
 7751SOL     OW24151   6.503   1.643   4.463 -0.6210 -0.2993 -0.0226
 7751SOL    HW124152   6.579   1.675   4.407 -0.8145 -0.3243 -0.2984
 7751SOL    HW224153   6.425   1.705   4.452 -0.6338 -0.2583  0.2796
 7752SOL     OW24154   6.233   5.213   4.305 -0.2903  0.5676  0.3553
 7752SOL    HW124155   6.172   5.261   4.242  0.2776  0.8209 -0.0084
 7752SOL    HW224156   6.184   5.137   4.348 -0.8627  0.7784  0.0821
 7753SOL     OW24157   3.836   6.356   4.149  0.4714  0.0781  0.2877
 7753SOL    HW124158   3.764   6.324   4.087 -0.2889  1.4123  0.4361
 7753SOL    HW224159   3.844   6.456   4.143  1.4313  0.0813  1.2234
 7754SOL     OW24160   5.958   6.773   0.915  0.1684 -0.5966 -0.4801
 7754SOL    HW124161   5.972   6.734   0.824  2.7261 -0.8090 -0.0467
 7754SOL    HW224162   5.936   6.871   0.906 -1.0232 -0.9191 -1.3453
 7755SOL     OW24163   2.019   1.669   4.485 -0.4572 -0.2307  0.5595
 7755SOL    HW124164   2.084   1.632   4.419 -0.2599  1.5118 -0.2855
 7755SOL    HW224165   2.064   1.680   4.574  1.2869  3.0975 -0.5501
 7756SOL     OW24166   3.417   7.002   2.654  0.2776 -0.0569 -0.2266
 7756SOL    HW124167   3.381   7.002   2.561 -1.4468 -0.0894  0.3969
 7756SOL    HW224168   3.347   7.038   2.716  1.6096  0.5341  0.9812
 7757SOL     OW24169   3.537   6.873   5.899 -0.4131 -0.5905 -0.4393
 7757SOL    HW124170   3.444   6.884   5.935 -0.4317  1.1281 -0.9301
 7757SOL    HW224171   3.541   6.792   5.841 -1.2751 -1.4007  0.5969
 7758SOL     OW24172   0.586   3.350   5.731 -0.3807  0.3306 -0.2443
 7758SOL    HW124173   0.550   3.434   5.771 -0.7837  0.4468 -0.8418
 7758SOL    HW224174   0.511   3.288   5.708 -0.0207 -1.5800  3.0364
 7759SOL     OW24175   2.205   1.483   5.563 -0.1943 -0.0394  0.2931
 7759SOL    HW124176   2.146   1.404   5.580 -1.0457  0.3489 -0.7361
 7759SOL    HW224177   2.236   1.480   5.468 -0.8633  1.2595  0.0190
 7760SOL     OW24178   5.850   4.545   2.754 -0.1234 -0.2612  0.4177
 7760SOL    HW124179   5.905   4.561   2.836 -0.7278  0.2345  0.7336
 7760SOL    HW224180   5.903   4.490   2.689 -0.2456 -2.1395  1.8287
 7761SOL     OW24181   2.255   6.697   0.857 -0.0479 -0.3759 -0.1393
 7761SOL    HW124182   2.217   6.610   0.826  0.1686 -1.2877  1.9290
 7761SOL    HW224183   2.200   6.772   0.823 -3.7548 -1.5935  2.4955
 7762SOL     OW24184   3.619   1.884   0.249 -0.3370 -0.0011  0.1385
 7762SOL    HW124185   3.623   1.784   0.245 -0.2728  0.0452 -1.3698
 7762SOL    HW224186   3.530   1.915   0.216  0.7968  0.5473 -2.6412
 7763SOL     OW24187   0.391   0.669   1.765 -0.0102 -0.2680 -0.3380
 7763SOL    HW124188   0.345   0.710   1.844  4.3610 -0.2282  2.5356
 7763SOL    HW224189   0.418   0.742   1.702 -0.6344  0.1153 -0.1751
 7764SOL     OW24190   3.995   3.358   3.384  0.1758  0.1752 -0.0622
 7764SOL    HW124191   4.042   3.371   3.297 -1.0833  0.9089 -0.6623
 7764SOL    HW224192   4.062   3.341   3.456  1.3886  1.6699 -0.7858
 7765SOL     OW24193   0.075   6.005   2.264 -0.5672 -0.8870  0.0843
 7765SOL    HW124194   0.073   5.981   2.361 -0.0122 -0.6759  0.1507
 7765SOL    HW224195   0.124   5.934   2.213 -0.4618 -0.7720  0.0253
 7766SOL     OW24196   6.426   0.346   6.561  0.0912 -0.0759 -0.5804
 7766SOL    HW124197   6.484   0.297   6.625 -1.8778 -1.1036  0.5218
 7766SOL    HW224198   6.369   0.412   6.611 -0.4662  0.1380 -1.4614
 7767SOL     OW24199   3.016   5.553   2.537 -0.7269  0.1532 -0.1860
 7767SOL    HW124200   2.961   5.637   2.535 -1.2272 -0.1761 -2.1861
 7767SOL    HW224201   3.055   5.537   2.447  0.7435 -0.8992  0.5991
 7768SOL     OW24202   4.620   5.852   0.970 -1.1083  0.3304  0.2190
 7768SOL    HW124203   4.569   5.767   0.955  0.9274 -1.1997  1.4692
 7768SOL    HW224204   4.605   5.883   1.064 -0.8055  0.6207  0.1719
 7769SOL     OW24205   6.700   1.600   1.023 -0.8380  0.8330  0.1775
 7769SOL    HW124206   6.646   1.520   0.997 -0.4890  0.7167 -0.2135
 7769SOL    HW224207   6.762   1.624   0.948  1.2425 -0.3934  1.4257
 7770SOL     OW24208   2.548   6.084   4.302 -0.1577  0.0847 -0.5276
 7770SOL    HW124209   2.606   6.083   4.384 -0.8739 -1.4046  0.0215
 7770SOL    HW224210   2.605   6.083   4.220  0.5974 -0.1894 -0.0132
 7771SOL     OW24211   2.150   2.037   6.549 -0.5876  0.1434 -0.0886
 7771SOL    HW124212   2.131   2.134   6.530 -0.2675  0.0471 -0.9296
 7771SOL    HW224213   2.216   2.002   6.483  0.5030 -0.2418  1.1603
 7772SOL     OW24214   6.342   2.659   3.668 -0.5362 -0.4344  0.3726
 7772SOL    HW124215   6.350   2.633   3.764  1.4658  1.2281  0.7284
 7772SOL    HW224216   6.267   2.724   3.657 -1.7703 -1.7877  0.4948
 7773SOL     OW24217   3.568   3.604   4.885 -0.2697  0.0017  0.3897
 7773SOL    HW124218   3.616   3.531   4.934 -1.7171 -0.3469  1.3476
 7773SOL    HW224219   3.531   3.670   4.950  0.7352  1.4483 -0.4514
 7774SOL     OW24220   3.278   1.051   0.828 -0.4938  0.4376  0.3297
 7774SOL    HW124221   3.311   1.101   0.908  0.4280  0.6850 -0.1896
 7774SOL    HW224222   3.197   0.999   0.853 -1.6704  2.4223  0.8148
 7775SOL     OW24223   4.901   1.190   2.719  0.0965 -0.1090 -0.3880
 7775SOL    HW124224   4.845   1.217   2.798  0.7403  0.0837  0.0121
 7775SOL    HW224225   4.990   1.235   2.725  0.4933 -0.8379 -0.7343
 7776SOL     OW24226   4.374   3.197   5.669  0.0753 -0.1209  0.1208
 7776SOL    HW124227   4.420   3.200   5.757  0.3396 -1.5204  0.0560
 7776SOL    HW224228   4.405   3.274   5.612  3.8639 -1.9342 -0.6217
 7777SOL     OW24229   2.793   6.459   6.984  0.3994 -0.3153 -0.0087
 7777SOL    HW124230   2.856   6.494   7.053  1.8891 -1.5587 -0.6846
 7777SOL    HW224231   2.718   6.410   7.030  1.4129 -1.1982  0.7494
 7778SOL     OW24232   5.557   5.842   6.882  0.5077  1.0564 -1.1771
 7778SOL    HW124233   5.619   5.774   6.920  0.2557  2.9710  3.2629
 7778SOL    HW224234   5.464   5.806   6.882  0.2298  1.5117  2.0575
 7779SOL     OW24235   2.733   1.872   0.537  0.0231  0.2539 -0.3061
 7779SOL    HW124236   2.766   1.864   0.631 -0.6520 -0.3984 -0.1137
 7779SOL    HW224237   2.641   1.912   0.537 -0.7827 -1.5286 -0.5252
 7780SOL     OW24238   0.221   0.134   4.432 -0.1901  0.4156  0.2095
 7780SOL    HW124239   0.272   0.167   4.352 -0.0325  1.5785  0.7551
 7780SOL    HW224240   0.286   0.103   4.501 -0.2688  0.6184  0.3755
 7781SOL     OW24241   0.279   2.851   5.242 -0.2027 -0.2039 -0.3599
 7781SOL    HW124242   0.292   2.947   5.267  0.4646 -0.5239  0.5933
 7781SOL    HW224243   0.359   2.819   5.192 -0.2284 -0.3907 -0.2811
 7782SOL     OW24244   2.068   3.410   6.838 -0.2389  0.1072 -0.1463
 7782SOL    HW124245   2.034   3.490   6.789  2.0176  1.1035 -0.2211
 7782SOL    HW224246   2.013   3.394   6.920 -1.7608  0.6750 -1.0268
 7783SOL     OW24247   2.420   5.371   6.190 -0.0170 -0.1525  0.1702
 7783SOL    HW124248   2.372   5.288   6.161  0.0577  0.2017 -1.0111
 7783SOL    HW224249   2.519   5.359   6.178 -0.0078  0.1163 -0.0298
 7784SOL     OW24250   0.148   2.777   6.762 -0.2385 -0.0921 -0.8469
 7784SOL    HW124251   0.109   2.697   6.809  0.4113 -1.9171 -3.2106
 7784SOL    HW224252   0.098   2.859   6.789 -1.3662 -1.3554  1.1874
 7785SOL     OW24253   2.991   6.169   3.118  0.6866  0.0078 -0.4602
 7785SOL    HW124254   3.059   6.173   3.045  0.6592 -0.5578 -0.5277
 7785SOL    HW224255   2.913   6.227   3.095  0.5265 -0.4247 -1.0462
 7786SOL     OW24256   2.637   5.768   5.158 -0.8230  0.1516 -0.0955
 7786SOL    HW124257   2.737   5.758   5.164 -0.9316 -1.3045 -0.3820
 7786SOL    HW224258   2.612   5.798   5.066 -0.5946  1.7341  0.3219
 7787SOL     OW24259   2.129   2.338   4.715  0.0077  0.3319  0.5741
 7787SOL    HW124260   2.149   2.432   4.690 -0.0413  0.3690  0.6736
 7787SOL    HW224261   2.061   2.300   4.652  0.1211  0.3212  0.4564
 7788SOL     OW24262   0.909   1.823   2.349 -0.2793 -0.1343  0.0323
 7788SOL    HW124263   0.953   1.908   2.379 -0.4521  0.6649 -1.8336
 7788SOL    HW224264   0.812   1.827   2.371 -0.3893  0.4012 -0.5061
 7789SOL     OW24265   3.624   5.891   2.751  0.2656  0.1771  0.0899
 7789SOL    HW124266   3.636   5.922   2.845  1.3522 -0.2776  0.1103
 7789SOL    HW224267   3.537   5.842   2.743 -0.3313  1.1191  0.6002
 7790SOL     OW24268   1.394   5.084   4.418  0.3402 -0.5135  0.2432
 7790SOL    HW124269   1.340   5.007   4.453 -0.7722 -0.3541 -1.0116
 7790SOL    HW224270   1.428   5.061   4.327  0.9947  0.0449  0.3430
 7791SOL     OW24271   4.766   5.573   3.961 -0.5304 -0.3264 -0.7235
 7791SOL    HW124272   4.772   5.478   3.992  1.2164 -0.3050 -0.9069
 7791SOL    HW224273   4.857   5.606   3.936 -0.9927  1.6358  0.0110
 7792SOL     OW24274   3.235   6.532   6.340 -0.1862 -0.1497  0.1773
 7792SOL    HW124275   3.263   6.589   6.263 -2.7384  0.9466 -0.0508
 7792SOL    HW224276   3.153   6.571   6.382 -0.3356 -2.1080  1.8621
 7793SOL     OW24277   6.928   2.168   5.628 -0.5255  0.1838  0.4491
 7793SOL    HW124278   6.959   2.095   5.567 -0.4688 -2.0090  2.9691
 7793SOL    HW224279   6.993   2.245   5.622  0.5372 -0.7596 -0.7736
 7794SOL     OW24280   2.383   5.226   4.537 -0.2425 -0.0769  0.0145
 7794SOL    HW124281   2.397   5.293   4.464  0.4025 -0.1228  0.0939
 7794SOL    HW224282   2.285   5.204   4.543 -0.2288 -0.6769 -1.3866
 7795SOL     OW24283   0.829   3.528   5.183 -0.5675  0.1010  0.4633
 7795SOL    HW124284   0.889   3.468   5.236 -1.8151 -2.6465 -0.9724
 7795SOL    HW224285   0.766   3.576   5.244 -0.6776 -1.4396  1.6194
 7796SOL     OW24286   3.701   3.993   3.477  0.6165 -0.3014 -0.2788
 7796SOL    HW124287   3.671   3.991   3.382 -0.7732 -0.9158  0.1433
 7796SOL    HW224288   3.621   3.987   3.537  1.5227 -0.7286  0.9269
 7797SOL     OW24289   6.965   6.772   3.444 -0.3673  0.3417 -0.3953
 7797SOL    HW124290   6.892   6.751   3.510 -0.3474 -0.3896 -0.5931
 7797SOL    HW224291   7.048   6.796   3.494 -0.2994 -0.3909 -0.1390
 7798SOL     OW24292   2.513   2.724   0.373  0.4766  0.1970  0.3114
 7798SOL    HW124293   2.447   2.736   0.447  2.0977  1.3666  1.6346
 7798SOL    HW224294   2.505   2.632   0.335 -2.6700  0.6164 -0.3901
 7799SOL     OW24295   5.829   5.707   0.211  0.1999 -0.7031 -0.0940
 7799SOL    HW124296   5.814   5.714   0.310  1.0753  0.1649 -0.0065
 7799SOL    HW224297   5.768   5.638   0.173 -0.6008 -0.5933  0.9464
 7800SOL     OW24298   6.575   4.534   6.810 -0.1867 -0.1870 -0.2901
 7800SOL    HW124299   6.535   4.610   6.861 -0.4201 -0.6059  0.1607
 7800SOL    HW224300   6.540   4.447   6.846  2.2387 -0.6567  1.1810
 7801SOL     OW24301   2.683   1.006   1.717  0.4665 -0.1521 -0.5065
 7801SOL    HW124302   2.599   1.042   1.756 -0.2797 -1.7831 -0.5075
 7801SOL    HW224303   2.758   1.069   1.734 -0.4881  0.6948  0.6999
 7802SOL     OW24304   5.266   2.712   2.225 -0.0467  0.3867 -0.1009
 7802SOL    HW124305   5.249   2.807   2.199 -1.0468  0.8532  2.0409
 7802SOL    HW224306   5.270   2.704   2.325  0.3958 -1.7749 -0.2270
 7803SOL     OW24307   2.415   5.586   6.340  0.1778  0.1328 -0.6044
 7803SOL    HW124308   2.355   5.661   6.311 -1.3805 -0.0708  1.8340
 7803SOL    HW224309   2.410   5.511   6.274 -1.9108  0.3328 -0.7184
 7804SOL     OW24310   5.416   2.527   2.973  0.3444  0.0393  0.6058
 7804SOL    HW124311   5.444   2.598   3.038  1.1177  0.0918  0.2273
 7804SOL    HW224312   5.433   2.437   3.013 -0.6545  0.0448  1.0937
 7805SOL     OW24313   5.104   3.509   1.790 -0.0920  0.4465 -0.3021
 7805SOL    HW124314   5.144   3.462   1.712  1.1626 -0.7585  1.0222
 7805SOL    HW224315   5.176   3.538   1.852 -1.1445  0.0235  1.1645
 7806SOL     OW24316   4.656   3.567   6.779  0.0889 -0.3467 -0.1338
 7806SOL    HW124317   4.737   3.569   6.837  0.5614  0.1163 -0.7951
 7806SOL    HW224318   4.666   3.634   6.705  0.2818 -2.1044 -1.7772
 7807SOL     OW24319   6.632   3.317   5.566  0.3507 -0.2179  0.3870
 7807SOL    HW124320   6.663   3.346   5.657  0.0310 -1.2773  0.8513
 7807SOL    HW224321   6.709   3.317   5.503  0.8414 -0.6788  0.9743
 7808SOL     OW24322   0.150   3.102   6.291  0.0383  1.5187 -0.3433
 7808SOL    HW124323   0.182   3.125   6.382  1.3030  2.0311 -0.8968
 7808SOL    HW224324   0.051   3.089   6.293  0.3332 -1.4016  1.6824
 7809SOL     OW24325   1.848   4.290   6.762  0.4653 -0.0102 -0.0799
 7809SOL    HW124326   1.877   4.377   6.803 -0.5376  0.0847  0.4626
 7809SOL    HW224327   1.813   4.307   6.670 -1.4369  0.4678  0.6861
 7810SOL     OW24328   5.048   1.070   5.035  0.3155  0.0180  0.2008
 7810SOL    HW124329   5.033   1.168   5.024 -0.5312 -0.2243 -1.0919
 7810SOL    HW224330   5.043   1.025   4.945  1.6510 -1.0910  0.6395
 7811SOL     OW24331   5.509   4.351   3.725 -0.3324 -0.0389  0.2513
 7811SOL    HW124332   5.546   4.412   3.654  3.1182 -0.2996  1.6454
 7811SOL    HW224333   5.498   4.402   3.810 -1.2528 -0.4989  0.4212
 7812SOL     OW24334   2.097   2.736   4.533 -0.0715 -0.3751  0.6311
 7812SOL    HW124335   2.195   2.723   4.513  0.2461 -1.4606  2.6402
 7812SOL    HW224336   2.052   2.775   4.453  1.4383 -2.5854 -1.4695
 7813SOL     OW24337   6.611   0.868   5.755  0.1133  0.3241  0.4190
 7813SOL    HW124338   6.669   0.928   5.701 -1.1529  0.8192 -0.4389
 7813SOL    HW224339   6.574   0.796   5.697  0.2257 -0.2579  1.0554
 7814SOL     OW24340   5.954   2.427   3.493  0.5421  0.3352 -0.3856
 7814SOL    HW124341   5.901   2.350   3.528  0.3328  0.6756  0.0494
 7814SOL    HW224342   6.021   2.394   3.426  1.7695 -0.4960  1.1749
 7815SOL     OW24343   6.238   2.790   6.377  0.0142  0.4853 -0.5451
 7815SOL    HW124344   6.258   2.712   6.318  0.1394 -0.0328  0.1746
 7815SOL    HW224345   6.323   2.838   6.398  0.1914 -0.2559  0.4852
 7816SOL     OW24346   1.256   3.684   4.563 -0.0313  0.3954  0.0584
 7816SOL    HW124347   1.304   3.755   4.614 -0.9134  1.1721 -0.1822
 7816SOL    HW224348   1.208   3.724   4.485 -0.9449 -0.3900  0.1985
 7817SOL     OW24349   6.613   3.839   5.272 -0.1277  0.0340 -0.5893
 7817SOL    HW124350   6.606   3.817   5.174 -0.4723  1.0908 -0.8102
 7817SOL    HW224351   6.673   3.918   5.284  1.7453 -1.4522  0.2664
 7818SOL     OW24352   4.984   6.107   6.096 -0.0657 -0.0971  0.2706
 7818SOL    HW124353   4.893   6.111   6.056 -0.5456  1.0901  1.4493
 7818SOL    HW224354   5.037   6.187   6.068  0.5164 -0.5914 -0.0999
 7819SOL     OW24355   1.180   2.300   1.638  0.2144  0.0832 -0.3272
 7819SOL    HW124356   1.260   2.241   1.632  0.2517  0.1866 -0.9131
 7819SOL    HW224357   1.163   2.323   1.733  0.4807 -0.4861 -0.1337
 7820SOL     OW24358   3.777   1.346   5.757 -0.5410 -0.6277  0.1851
 7820SOL    HW124359   3.837   1.367   5.834 -2.0797 -1.8253  1.7733
 7820SOL    HW224360   3.711   1.276   5.784 -0.9801 -1.2598 -2.3138
 7821SOL     OW24361   3.254   5.380   0.807  0.2295 -0.4409 -0.1178
 7821SOL    HW124362   3.235   5.300   0.749  0.9167 -0.8120  0.1551
 7821SOL    HW224363   3.170   5.408   0.852  0.2110 -1.8241  0.7841
 7822SOL     OW24364   2.126   6.624   3.355  0.0499 -0.1595 -0.4813
 7822SOL    HW124365   2.066   6.548   3.382 -0.8503  1.0427  1.0874
 7822SOL    HW224366   2.199   6.634   3.424  0.0623  0.4987 -0.5892
 7823SOL     OW24367   1.376   4.780   4.433 -0.5815  0.3373 -0.2729
 7823SOL    HW124368   1.285   4.765   4.393  0.2608 -2.6430 -1.3848
 7823SOL    HW224369   1.446   4.750   4.368  0.9999 -1.5896  2.1140
 7824SOL     OW24370   1.386   3.309   5.456  0.2742  0.3047  0.1346
 7824SOL    HW124371   1.356   3.218   5.429  0.0137  0.4467 -0.0690
 7824SOL    HW224372   1.474   3.329   5.413 -0.7110  1.0079 -1.6737
 7825SOL     OW24373   2.250   2.411   5.305  0.2774 -0.0668 -0.3115
 7825SOL    HW124374   2.156   2.446   5.300  0.0746 -0.5728 -0.1051
 7825SOL    HW224375   2.281   2.386   5.214  0.9193  1.9046 -0.6773
 7826SOL     OW24376   0.522   2.418   1.462 -0.0374  0.0771  0.3315
 7826SOL    HW124377   0.621   2.406   1.468  0.0943  1.2377  0.6177
 7826SOL    HW224378   0.486   2.359   1.389  1.3005  1.9505 -1.9840
 7827SOL     OW24379   6.619   6.177   2.822  0.0160 -0.2787  0.0097
 7827SOL    HW124380   6.693   6.119   2.855 -0.7613 -1.3335 -0.0481
 7827SOL    HW224381   6.556   6.197   2.897  0.7585  1.3030  0.2638
 7828SOL     OW24382   6.397   3.051   2.003  0.7621  0.1014  0.4616
 7828SOL    HW124383   6.298   3.052   1.991  0.8913  0.2549 -0.6826
 7828SOL    HW224384   6.419   3.076   2.097 -0.2872 -0.1608  0.7942
 7829SOL     OW24385   3.173   3.390   0.572 -0.4096 -0.2427 -0.3585
 7829SOL    HW124386   3.124   3.380   0.485  0.8396 -1.3042 -0.9598
 7829SOL    HW224387   3.182   3.301   0.616 -1.4868  0.3426  1.1574
 7830SOL     OW24388   2.064   5.417   5.072  0.1712  0.4107 -0.1432
 7830SOL    HW124389   2.041   5.423   4.975  2.4168  3.4396 -0.6068
 7830SOL    HW224390   2.163   5.423   5.084 -0.1094  1.1228  2.4096
 7831SOL     OW24391   2.766   1.449   2.332  0.6898  0.4322  0.1726
 7831SOL    HW124392   2.706   1.523   2.304 -0.8764 -0.3335  1.2897
 7831SOL    HW224393   2.861   1.473   2.314  0.1709  2.3943 -0.1276
 7832SOL     OW24394   6.232   4.257   4.970 -0.3963  0.0897  0.1699
 7832SOL    HW124395   6.228   4.167   4.927 -3.6443  0.8113 -1.3217
 7832SOL    HW224396   6.176   4.257   5.053  0.0638  0.5996  0.4884
 7833SOL     OW24397   0.319   1.103   2.912  0.2494  0.0897 -0.3829
 7833SOL    HW124398   0.337   1.154   2.828 -1.1154 -0.1057 -0.8200
 7833SOL    HW224399   0.283   1.166   2.981  0.0670  0.0096 -0.4035
 7834SOL     OW24400   0.224   1.553   4.315 -0.3389 -0.4552  0.0846
 7834SOL    HW124401   0.304   1.569   4.257  0.8966 -2.0193  1.2549
 7834SOL    HW224402   0.234   1.465   4.361 -2.4161 -0.3482  0.8370
 7835SOL     OW24403   1.620   1.495   5.953  0.4854 -0.4234 -0.1333
 7835SOL    HW124404   1.683   1.567   5.985 -0.2503  0.4004 -0.5064
 7835SOL    HW224405   1.588   1.442   6.032  1.1954 -0.4907  0.1226
 7836SOL     OW24406   4.069   3.816   6.121  0.1427 -1.1010  0.2849
 7836SOL    HW124407   4.159   3.858   6.112 -1.1566  1.4040 -2.9121
 7836SOL    HW224408   4.027   3.846   6.206  1.5614 -0.8053  0.9230
 7837SOL     OW24409   6.713   6.797   5.283 -0.2190  0.0503  0.3244
 7837SOL    HW124410   6.660   6.736   5.341 -0.8541 -0.1844 -0.4850
 7837SOL    HW224411   6.663   6.815   5.199  0.0978  1.4414  0.4089
 7838SOL     OW24412   3.849   5.823   1.869 -0.3153 -0.0195  0.0927
 7838SOL    HW124413   3.920   5.891   1.888 -1.0192  1.9392 -3.4590
 7838SOL    HW224414   3.762   5.870   1.851 -1.4652 -2.0697 -0.0384
 7839SOL     OW24415   6.444   3.807   5.719  0.7321  0.6308 -0.3392
 7839SOL    HW124416   6.457   3.899   5.757  1.5644  1.2842 -2.0880
 7839SOL    HW224417   6.362   3.766   5.759  2.5644  0.3997  3.6489
 7840SOL     OW24418   1.261   4.532   3.772 -0.0426 -0.8777  0.4883
 7840SOL    HW124419   1.352   4.533   3.730 -0.2000  0.4851  0.1520
 7840SOL    HW224420   1.271   4.520   3.871  0.4268 -1.8894  0.3403
 7841SOL     OW24421   3.850   2.110   6.115  0.4494  0.3437  0.0950
 7841SOL    HW124422   3.827   2.089   6.210  0.1948  0.2430  0.0127
 7841SOL    HW224423   3.916   2.186   6.112  1.0807 -0.1817  0.3817
 7842SOL     OW24424   4.830   0.692   2.763 -0.5335  0.1329 -0.1397
 7842SOL    HW124425   4.847   0.698   2.665 -2.9550  1.2628 -0.5567
 7842SOL    HW224426   4.903   0.740   2.813  0.0619  0.6353 -1.4590
 7843SOL     OW24427   5.664   6.974   2.532 -0.0442  0.8198  0.1353
 7843SOL    HW124428   5.606   7.033   2.588  0.3929  0.4477  1.0117
 7843SOL    HW224429   5.757   7.012   2.529  0.1452  0.3910  0.3892
 7844SOL     OW24430   4.515   5.918   0.484 -0.8457 -0.6767 -0.5665
 7844SOL    HW124431   4.565   5.987   0.432 -1.0476 -0.3440 -0.3190
 7844SOL    HW224432   4.422   5.950   0.502 -1.0749 -1.1825 -0.8008
 7845SOL     OW24433   3.861   1.373   1.887 -0.5706 -0.1999  0.0791
 7845SOL    HW124434   3.830   1.286   1.925 -0.0815 -0.0027  0.9430
 7845SOL    HW224435   3.798   1.446   1.913 -0.6718 -0.2000 -0.1647
 7846SOL     OW24436   1.913   3.589   0.663  0.2744  0.9052  0.1523
 7846SOL    HW124437   1.911   3.536   0.579 -0.5459 -0.5642  1.0633
 7846SOL    HW224438   2.003   3.581   0.706 -0.0796 -0.4549  0.6886
 7847SOL     OW24439   5.366   2.381   2.715  0.1421 -0.2005  0.9405
 7847SOL    HW124440   5.279   2.333   2.727 -0.1197  0.4233  1.5980
 7847SOL    HW224441   5.382   2.442   2.793  1.6031 -0.9582  1.2653
 7848SOL     OW24442   2.736   5.882   6.973  0.4040  0.0956 -0.2286
 7848SOL    HW124443   2.736   5.804   7.036  0.0588  0.7659  0.6173
 7848SOL    HW224444   2.703   5.852   6.883  0.7152 -0.8312 -0.0475
 7849SOL     OW24445   6.453   3.579   6.261  0.0819 -0.1775  0.5672
 7849SOL    HW124446   6.538   3.622   6.291  0.8500 -2.0185  1.2147
 7849SOL    HW224447   6.455   3.482   6.285 -1.5154 -0.6218 -0.8898
 7850SOL     OW24448   0.684   0.874   2.217 -0.5171  0.0078  0.4347
 7850SOL    HW124449   0.614   0.893   2.286 -0.7036  0.3308  0.1625
 7850SOL    HW224450   0.767   0.840   2.261  0.0192  1.9406  0.9992
 7851SOL     OW24451   0.739   5.437   1.460 -0.1225 -0.5644 -0.0533
 7851SOL    HW124452   0.839   5.435   1.461 -0.0562  0.8245  2.0258
 7851SOL    HW224453   0.707   5.475   1.373  1.3130  1.8293  0.3803
 7852SOL     OW24454   4.759   2.224   0.274 -0.2611 -0.1671  0.6125
 7852SOL    HW124455   4.784   2.138   0.319 -0.8926  0.4865  2.3373
 7852SOL    HW224456   4.665   2.219   0.242  0.1757 -0.6173 -0.6438
 7853SOL     OW24457   5.051   3.399   0.958  0.4447 -0.1823  0.8555
 7853SOL    HW124458   4.978   3.453   0.998  0.3287  0.5112 -0.2384
 7853SOL    HW224459   5.062   3.314   1.009 -0.8524 -0.1131  1.2717
 7854SOL     OW24460   5.638   3.540   5.418 -0.2003 -0.0889  0.1323
 7854SOL    HW124461   5.546   3.542   5.457  0.0761 -1.0004  0.8818
 7854SOL    HW224462   5.649   3.459   5.360 -0.4303  0.9716 -1.4489
 7855SOL     OW24463   5.596   0.495   3.778  0.0169 -0.9084  0.3720
 7855SOL    HW124464   5.516   0.435   3.774 -2.2471  1.9361 -0.5518
 7855SOL    HW224465   5.605   0.533   3.869 -1.4729  0.9036 -0.1861
 7856SOL     OW24466   2.173   4.818   4.844 -0.1492  0.0326  0.4536
 7856SOL    HW124467   2.191   4.792   4.939 -0.5397  0.6162  0.6907
 7856SOL    HW224468   2.190   4.916   4.832  2.6843 -0.5141 -0.7631
 7857SOL     OW24469   5.753   4.385   6.717  0.3649 -0.1904  0.4779
 7857SOL    HW124470   5.820   4.420   6.651 -0.8439  0.9729 -0.1685
 7857SOL    HW224471   5.763   4.435   6.804 -0.1455  0.5156  0.1402
 7858SOL     OW24472   0.703   3.987   6.368 -0.7563  0.0174  0.2590
 7858SOL    HW124473   0.706   3.970   6.466 -2.2924  1.4896  0.6079
 7858SOL    HW224474   0.733   3.906   6.319 -1.6832 -1.3941  1.9154
 7859SOL     OW24475   4.922   3.449   6.557 -0.2499  0.0449  0.2468
 7859SOL    HW124476   4.958   3.443   6.650  1.2552  0.4042 -0.2884
 7859SOL    HW224477   4.969   3.523   6.508  0.0332 -1.0875 -1.2497
 7860SOL     OW24478   4.327   6.848   5.247  0.0555 -0.1890 -0.4367
 7860SOL    HW124479   4.254   6.799   5.296  0.1844  1.2800  1.3617
 7860SOL    HW224480   4.355   6.927   5.302  2.1308  0.0009 -1.6979
 7861SOL     OW24481   2.711   6.098   4.804 -0.0651  0.5502  0.2004
 7861SOL    HW124482   2.788   6.038   4.826  0.4540  1.2014  0.2179
 7861SOL    HW224483   2.630   6.070   4.855 -0.1419 -0.7962 -0.6042
 7862SOL     OW24484   2.863   4.641   1.466 -0.0697 -0.1185 -0.7030
 7862SOL    HW124485   2.818   4.559   1.503 -0.8844  0.3964 -0.5166
 7862SOL    HW224486   2.961   4.637   1.484 -0.5257  0.5545  2.4199
 7863SOL     OW24487   4.859   4.258   3.202 -0.2661  0.7009  0.2450
 7863SOL    HW124488   4.925   4.183   3.200  1.1671  1.8958  0.4726
 7863SOL    HW224489   4.807   4.255   3.288  0.0366  0.1787  0.4122
 7864SOL     OW24490   4.790   4.053   0.037  0.1199 -0.2341 -0.2639
 7864SOL    HW124491   4.752   4.144   0.021  1.7913  0.7207  0.8751
 7864SOL    HW224492   4.886   4.062   0.066  0.6676 -2.4263 -1.2434
 7865SOL     OW24493   6.244   5.165   5.677 -0.4081 -0.3716 -0.2464
 7865SOL    HW124494   6.161   5.205   5.717  0.5151 -0.4418  1.8818
 7865SOL    HW224495   6.260   5.075   5.717 -0.2677 -1.1652 -1.9993
 7866SOL     OW24496   1.924   0.578   0.132  0.0962 -0.2060 -0.1292
 7866SOL    HW124497   1.933   0.479   0.120 -0.1618 -0.1525 -0.8007
 7866SOL    HW224498   1.897   0.620   0.045  1.2007  0.5795 -0.1113
 7867SOL     OW24499   5.661   5.537   3.668 -0.1764 -0.4917  0.3957
 7867SOL    HW124500   5.731   5.604   3.692  2.3859 -4.0372  4.3866
 7867SOL    HW224501   5.700   5.468   3.608 -1.5118 -0.5715 -0.4140
 7868SOL     OW24502   3.660   6.431   1.561 -0.2681 -0.1091 -0.3307
 7868SOL    HW124503   3.709   6.444   1.647 -0.9202 -1.3433  0.2544
 7868SOL    HW224504   3.563   6.450   1.574 -0.1236  1.3405 -1.2342
 7869SOL     OW24505   4.695   5.228   6.144  0.2756  0.0609 -0.2284
 7869SOL    HW124506   4.603   5.214   6.108  0.3667  0.3350 -0.5840
 7869SOL    HW224507   4.721   5.151   6.201 -0.2871  0.1222  0.1170
 7870SOL     OW24508   4.740   6.169   5.695  0.2297 -0.2036  0.4217
 7870SOL    HW124509   4.697   6.126   5.616  2.1789  0.1910 -0.9518
 7870SOL    HW224510   4.756   6.266   5.675  0.8893 -0.1345  1.2321
 7871SOL     OW24511   0.254   2.520   1.912  0.0282 -0.2320 -0.1343
 7871SOL    HW124512   0.277   2.424   1.928  1.2743 -0.1788 -1.4249
 7871SOL    HW224513   0.182   2.526   1.844  1.3347 -0.2366 -1.5628
 7872SOL     OW24514   2.413   5.320   3.557 -0.2553  0.7383  0.2054
 7872SOL    HW124515   2.434   5.402   3.610  0.5878  0.6602  0.0057
 7872SOL    HW224516   2.488   5.301   3.494 -1.9677  1.8237 -2.3037
 7873SOL     OW24517   5.907   1.119   0.597 -0.0346  0.2332 -0.9477
 7873SOL    HW124518   5.869   1.138   0.507 -0.6941 -2.9600 -1.4649
 7873SOL    HW224519   5.925   1.021   0.606  3.7380  0.8937  0.9955
 7874SOL     OW24520   6.465   3.739   1.043 -0.0750  0.2289 -0.2831
 7874SOL    HW124521   6.440   3.693   1.129  1.4398 -1.0156 -0.4684
 7874SOL    HW224522   6.560   3.717   1.020 -0.2122  1.1910 -1.8906
 7875SOL     OW24523   3.820   3.310   0.584  0.2912 -0.0211 -0.6578
 7875SOL    HW124524   3.887   3.272   0.520  3.3635  0.9685  1.7282
 7875SOL    HW224525   3.841   3.406   0.601 -0.1466 -0.3313  2.0483
 7876SOL     OW24526   1.217   6.827   2.463  0.2294  0.1035  0.6634
 7876SOL    HW124527   1.270   6.896   2.512  0.3031 -0.6479  1.6621
 7876SOL    HW224528   1.276   6.750   2.439  0.2178  0.4990 -0.7147
 7877SOL     OW24529   6.392   1.710   3.260 -0.5818  0.6445 -0.2649
 7877SOL    HW124530   6.474   1.714   3.317 -0.7981  0.7517  0.0420
 7877SOL    HW224531   6.418   1.704   3.163 -0.2101 -0.3606 -0.1119
 7878SOL     OW24532   0.404   3.641   1.721 -0.7404  0.0221 -0.0787
 7878SOL    HW124533   0.463   3.691   1.784 -0.9734  0.0211  0.1401
 7878SOL    HW224534   0.459   3.579   1.665 -0.8139 -2.2090  2.1571
 7879SOL     OW24535   2.724   6.811   2.416  0.0170  0.7426 -0.5514
 7879SOL    HW124536   2.807   6.864   2.397  0.8723 -1.0011 -1.8977
 7879SOL    HW224537   2.745   6.736   2.478 -0.3292 -0.2018 -1.5375
 7880SOL     OW24538   1.689   5.173   1.120  0.6893 -0.0479  0.2919
 7880SOL    HW124539   1.673   5.161   1.022  0.6486 -0.7804  0.3854
 7880SOL    HW224540   1.784   5.152   1.142  0.9788  1.1354  0.2559
 7881SOL     OW24541   5.471   3.594   3.766  0.0857 -0.3921 -0.6190
 7881SOL    HW124542   5.486   3.685   3.726  1.0786  0.1363  0.9043
 7881SOL    HW224543   5.404   3.545   3.710 -1.8651  1.9369 -0.4717
 7882SOL     OW24544   2.739   2.982   1.182  0.1048 -0.2467 -0.1037
 7882SOL    HW124545   2.719   2.955   1.277 -3.0338 -1.0739 -0.8610
 7882SOL    HW224546   2.757   2.900   1.128  0.3581  0.0870 -0.5266
 7883SOL     OW24547   6.924   0.696   4.879  0.1009 -0.7943 -0.0608
 7883SOL    HW124548   7.014   0.702   4.836 -0.3108  0.9429 -0.7902
 7883SOL    HW224549   6.854   0.716   4.811 -0.8132 -1.6234  0.6137
 7884SOL     OW24550   2.206   1.578   4.087 -0.4703 -0.4806  0.4036
 7884SOL    HW124551   2.204   1.534   4.177 -1.2626 -0.0681  0.5962
 7884SOL    HW224552   2.281   1.540   4.034  0.1878 -0.5296  1.3418
 7885SOL     OW24553   5.053   4.164   0.815 -0.0662  0.4569  0.5774
 7885SOL    HW124554   4.954   4.169   0.803 -0.3103 -0.1158  2.1276
 7885SOL    HW224555   5.080   4.222   0.892  0.9326  1.3199 -0.4019
 7886SOL     OW24556   5.358   5.113   1.679 -0.6001 -0.1813  0.3538
 7886SOL    HW124557   5.374   5.130   1.776 -0.1090 -0.4928  0.3288
 7886SOL    HW224558   5.427   5.161   1.625 -0.2851 -0.7912  0.2061
 7887SOL     OW24559   2.308   2.137   0.291 -0.1748  0.0006 -0.2867
 7887SOL    HW124560   2.408   2.138   0.283 -0.2324 -0.6287 -1.1967
 7887SOL    HW224561   2.279   2.053   0.337 -0.3032  0.0991 -0.1840
 7888SOL     OW24562   3.503   2.443   5.732 -0.1957  0.1554  1.0690
 7888SOL    HW124563   3.480   2.487   5.818 -1.3784 -1.5502  1.6795
 7888SOL    HW224564   3.589   2.393   5.743  0.1997  0.7874  0.9198
 7889SOL     OW24565   6.572   6.459   3.338 -0.2457  0.0469 -0.0884
 7889SOL    HW124566   6.648   6.395   3.350 -0.7515 -0.0936  3.3451
 7889SOL    HW224567   6.594   6.523   3.265  0.8780 -3.0947 -2.7529
 7890SOL     OW24568   1.847   3.593   3.173 -0.0498 -0.3512  0.0749
 7890SOL    HW124569   1.931   3.547   3.144  0.8296  0.6763  0.8930
 7890SOL    HW224570   1.790   3.612   3.093 -0.4272 -2.7444 -0.3081
 7891SOL     OW24571   1.684   5.142   2.413 -0.3058 -0.5569  0.1100
 7891SOL    HW124572   1.776   5.107   2.395 -0.4634 -0.3989 -1.1134
 7891SOL    HW224573   1.643   5.091   2.488  0.6428 -0.8726  0.4297
 7892SOL     OW24574   1.869   2.487   5.860 -0.0954  0.2968 -0.2599
 7892SOL    HW124575   1.905   2.394   5.863 -1.3577 -0.2110 -0.3703
 7892SOL    HW224576   1.849   2.512   5.765  0.7629  0.9018 -0.2937
 7893SOL     OW24577   5.757   1.118   6.922  0.2005 -0.5991  0.2139
 7893SOL    HW124578   5.728   1.100   6.828  1.9124  1.5310 -0.8150
 7893SOL    HW224579   5.824   1.048   6.950 -0.2119 -1.1628 -0.1898
 7894SOL     OW24580   2.448   0.045   1.950  0.2326  0.7694 -0.4386
 7894SOL    HW124581   2.404   0.089   1.871 -3.0095 -0.8748  0.3052
 7894SOL    HW224582   2.398   0.067   2.033  2.0653  0.3744  0.8350
 7895SOL     OW24583   6.603   1.047   5.299 -0.3324 -0.3812 -0.1123
 7895SOL    HW124584   6.607   0.960   5.250  2.5452  0.2954 -1.3237
 7895SOL    HW224585   6.688   1.061   5.349 -0.8360  1.6149  0.2891
 7896SOL     OW24586   4.034   4.199   5.187 -0.6782  0.3879  0.0911
 7896SOL    HW124587   4.108   4.266   5.189  0.3274 -0.6222 -1.2512
 7896SOL    HW224588   4.046   4.132   5.260 -0.4465  0.4200  0.0829
 7897SOL     OW24589   1.324   5.487   6.757 -0.0364  0.0912  0.0209
 7897SOL    HW124590   1.314   5.501   6.856  1.6596  0.6271  0.1495
 7897SOL    HW224591   1.365   5.569   6.716  0.7153 -0.7155 -0.8790
 7898SOL     OW24592   4.222   2.202   3.225  0.7891  0.2809  0.3151
 7898SOL    HW124593   4.290   2.131   3.209 -0.5112 -1.0675  0.5878
 7898SOL    HW224594   4.250   2.258   3.304  1.2497 -0.6866  0.8568
 7899SOL     OW24595   6.890   2.563   0.596  0.0800 -0.1336  0.0327
 7899SOL    HW124596   6.874   2.583   0.693  1.4536  1.1181  0.0431
 7899SOL    HW224597   6.827   2.617   0.540 -0.6778 -0.8152  0.2073
 7900SOL     OW24598   0.253   5.342   6.521 -0.0448  0.9492 -0.2881
 7900SOL    HW124599   0.291   5.403   6.591  0.9259 -0.0097  0.0539
 7900SOL    HW224600   0.326   5.316   6.457 -0.0535 -0.9723  0.4084
 7901SOL     OW24601   0.027   0.534   6.154 -0.2166  0.0704  0.0176
 7901SOL    HW124602  -0.030   0.551   6.074 -0.1424 -0.8180 -0.2312
 7901SOL    HW224603   0.102   0.600   6.156 -0.9156  0.8882  0.0412
 7902SOL     OW24604   4.152   4.030   0.951 -0.4108  0.0422 -0.0135
 7902SOL    HW124605   4.154   3.984   0.862 -2.1596 -2.0691  0.9775
 7902SOL    HW224606   4.218   3.987   1.013 -2.8978 -2.1282  1.2974
 7903SOL     OW24607   6.537   4.371   0.856  0.5601 -0.0890 -0.3028
 7903SOL    HW124608   6.467   4.338   0.793 -0.2011  2.1732 -0.7285
 7903SOL    HW224609   6.620   4.395   0.806  0.8766 -0.7019 -0.0844
 7904SOL     OW24610   3.906   5.699   2.758 -0.6286  0.2976  0.4060
 7904SOL    HW124611   3.815   5.736   2.742 -0.4420  0.3940 -0.5131
 7904SOL    HW224612   3.956   5.757   2.821 -0.1886  1.8977 -1.3280
 7905SOL     OW24613   4.414   2.263   0.501 -0.2650  0.0440  0.5256
 7905SOL    HW124614   4.359   2.297   0.425 -0.2000 -0.1958  0.3693
 7905SOL    HW224615   4.388   2.169   0.522  0.9974 -0.5490 -0.4335
 7906SOL     OW24616   4.502   0.310   5.939  0.0596 -0.1667 -0.0071
 7906SOL    HW124617   4.468   0.329   5.847  1.3757  2.0733 -0.1154
 7906SOL    HW224618   4.526   0.397   5.984 -0.2928 -1.2154  2.3637
 7907SOL     OW24619   1.951   1.429   3.805  0.4752 -0.2403  0.1113
 7907SOL    HW124620   1.990   1.353   3.858  0.8088 -0.4435 -0.4229
 7907SOL    HW224621   1.874   1.395   3.751  0.9692 -0.3229 -0.5504
 7908SOL     OW24622   2.451   1.097   4.256  0.1776  0.0207  0.1810
 7908SOL    HW124623   2.419   1.002   4.255 -0.5411  0.1736 -2.9585
 7908SOL    HW224624   2.550   1.099   4.239  0.1822 -0.1536  0.1837
 7909SOL     OW24625   3.568   4.942   4.424  0.1913 -0.1961 -0.6391
 7909SOL    HW124626   3.492   4.927   4.362  0.1824 -0.7815 -0.4955
 7909SOL    HW224627   3.561   5.033   4.465 -0.2694 -0.1396 -0.8426
 7910SOL     OW24628   3.283   3.572   5.860 -0.4347 -0.2465 -0.0978
 7910SOL    HW124629   3.259   3.664   5.890 -0.7002  0.1129 -1.3479
 7910SOL    HW224630   3.382   3.557   5.872 -0.6410 -0.4219  1.6482
 7911SOL     OW24631   0.178   5.516   0.817  0.2499  0.0984 -0.2397
 7911SOL    HW124632   0.250   5.535   0.884  0.6294 -1.9640 -0.0118
 7911SOL    HW224633   0.100   5.474   0.863  1.1116 -2.7874 -1.1961
 7912SOL     OW24634   6.289   3.723   5.001  0.1889  0.4139  0.1302
 7912SOL    HW124635   6.207   3.733   4.944 -1.1974  2.4197  2.2871
 7912SOL    HW224636   6.330   3.813   5.016  2.5127 -0.4928 -0.4300
 7913SOL     OW24637   6.417   3.030   0.330  0.3397  0.4664  0.2387
 7913SOL    HW124638   6.344   2.971   0.294  1.4789 -1.0779  0.3357
 7913SOL    HW224639   6.384   3.078   0.411 -0.8426  0.5222 -0.2508
 7914SOL     OW24640   5.697   4.600   0.627 -0.4685  0.0794 -0.3916
 7914SOL    HW124641   5.695   4.696   0.601  1.3121  0.3384  0.2451
 7914SOL    HW224642   5.679   4.592   0.725  0.9021 -0.0600 -0.1343
 7915SOL     OW24643   5.009   1.846   4.413  0.0877  0.2900 -0.1934
 7915SOL    HW124644   4.997   1.748   4.393  0.0125  0.4386 -0.8980
 7915SOL    HW224645   5.071   1.856   4.491 -1.2069 -0.3680  0.9825
 7916SOL     OW24646   5.247   3.968   5.798  0.1087 -0.0142 -0.0101
 7916SOL    HW124647   5.346   3.962   5.807  0.0714  0.5260  0.8685
 7916SOL    HW224648   5.219   3.925   5.712  1.2160  0.8168 -0.8326
 7917SOL     OW24649   2.915   3.199   4.918  0.6111  0.0433 -0.1292
 7917SOL    HW124650   2.832   3.160   4.958  0.1051  1.7306  0.5136
 7917SOL    HW224651   2.938   3.284   4.965  1.3367  0.8662 -1.9098
 7918SOL     OW24652   6.905   6.950   2.794 -0.0508 -0.1001 -0.1471
 7918SOL    HW124653   6.879   6.859   2.762 -1.1870 -0.5042  1.7627
 7918SOL    HW224654   6.842   7.018   2.757  0.3448 -0.1621 -0.9655
 7919SOL     OW24655   5.107   4.445   2.613  0.4753 -0.1886 -0.6130
 7919SOL    HW124656   5.069   4.524   2.661  1.3765  0.7900 -1.4465
 7919SOL    HW224657   5.052   4.424   2.532  1.0516  0.5571 -1.2233
 7920SOL     OW24658   0.412   6.220   3.413  0.1257  0.3653  0.2527
 7920SOL    HW124659   0.445   6.127   3.399 -1.2874 -0.3431  1.3854
 7920SOL    HW224660   0.368   6.253   3.330 -1.1298 -0.7643  0.4274
 7921SOL     OW24661   3.242   5.415   6.695 -0.2491 -0.4105 -0.0294
 7921SOL    HW124662   3.287   5.333   6.659  0.1436  0.6437 -2.1005
 7921SOL    HW224663   3.148   5.419   6.660 -0.8011 -0.7688  1.3642
 7922SOL     OW24664   0.057   6.373   5.179  0.2189 -0.1707  0.2279
 7922SOL    HW124665  -0.017   6.315   5.213  1.6961 -1.9978  0.5066
 7922SOL    HW224666   0.100   6.329   5.100  1.1369  0.7169  0.2133
 7923SOL     OW24667   3.069   0.588   3.534  0.1345  0.1362 -0.1383
 7923SOL    HW124668   3.003   0.661   3.555  0.1513 -0.0035  0.4039
 7923SOL    HW224669   3.137   0.582   3.607 -0.6555 -1.3246  0.5173
 7924SOL     OW24670   3.926   6.633   4.098 -0.0935 -0.2249 -0.4428
 7924SOL    HW124671   3.923   6.733   4.099 -0.3907 -0.2318 -0.5204
 7924SOL    HW224672   4.020   6.603   4.083 -0.1812  0.0523 -1.6535
 7925SOL     OW24673   0.620   2.059   6.507 -0.0325 -0.3819  0.5141
 7925SOL    HW124674   0.688   2.081   6.437 -1.6320 -1.1644 -1.3778
 7925SOL    HW224675   0.529   2.065   6.467 -1.0380 -0.4840  2.6773
 7926SOL     OW24676   2.982   0.825   3.059  0.7515  0.5079  0.3532
 7926SOL    HW124677   2.989   0.728   3.084 -1.4823 -0.6950 -2.9650
 7926SOL    HW224678   3.022   0.838   2.968 -0.8264  2.2343 -0.1418
 7927SOL     OW24679   2.403   5.745   4.456  0.2196 -0.4164  0.4222
 7927SOL    HW124680   2.309   5.775   4.442  0.0108 -1.2243  0.0671
 7927SOL    HW224681   2.447   5.732   4.367  0.9034  0.6679  0.5834
 7928SOL     OW24682   1.265   6.702   2.849 -0.3236 -0.8352  0.1294
 7928SOL    HW124683   1.327   6.778   2.870  1.1250 -2.0944  0.5867
 7928SOL    HW224684   1.173   6.737   2.833  0.2735  0.9889  0.5120
 7929SOL     OW24685   4.716   3.756   5.338  0.8080  0.1245  0.6861
 7929SOL    HW124686   4.628   3.804   5.334  1.1270  0.8431  1.7078
 7929SOL    HW224687   4.718   3.683   5.270 -1.1716 -0.9246  1.6897
 7930SOL     OW24688   4.128   5.053   3.187  0.1548  0.6698 -0.4998
 7930SOL    HW124689   4.147   5.034   3.283 -1.3919 -0.3780 -0.3674
 7930SOL    HW224690   4.130   4.967   3.136 -3.0024  0.5719 -0.6457
 7931SOL     OW24691   2.329   3.751   5.981 -0.1861 -0.1545 -0.5011
 7931SOL    HW124692   2.319   3.842   5.941 -1.6924  0.9783  2.1422
 7931SOL    HW224693   2.263   3.741   6.056  0.3708 -3.2192 -0.3107
 7932SOL     OW24694   6.941   5.950   0.450  0.4109 -0.5942 -0.0817
 7932SOL    HW124695   6.852   5.976   0.412 -0.4971 -3.1250  0.1283
 7932SOL    HW224696   6.942   5.971   0.548 -0.3624 -1.4562  0.1237
 7933SOL     OW24697   6.053   0.100   0.236  0.1381  0.3843 -0.2799
 7933SOL    HW124698   6.001   0.063   0.158 -0.4897  0.6092  0.0211
 7933SOL    HW224699   6.130   0.153   0.202  0.1607  0.0648 -0.7411
 7934SOL     OW24700   2.892   4.283   6.723 -0.2392 -0.1936 -0.4136
 7934SOL    HW124701   2.939   4.351   6.779  1.2155 -0.7553 -0.9042
 7934SOL    HW224702   2.846   4.217   6.784 -0.3009  0.2992  0.0837
 7935SOL     OW24703   6.508   6.730   1.301 -0.0214 -0.3175 -0.0563
 7935SOL    HW124704   6.474   6.775   1.218  0.0066  1.4902  0.8653
 7935SOL    HW224705   6.604   6.706   1.289  1.0146  3.0099  0.5393
 7936SOL     OW24706   4.254   4.685   2.703 -0.1488 -0.2654 -0.3934
 7936SOL    HW124707   4.198   4.763   2.675  1.7583  0.9059 -1.1423
 7936SOL    HW224708   4.281   4.632   2.623  0.8919 -0.0300 -0.2204
 7937SOL     OW24709   6.392   5.453   6.526 -0.1262 -0.2655  0.5265
 7937SOL    HW124710   6.489   5.477   6.519 -0.6317  2.0965  0.8713
 7937SOL    HW224711   6.379   5.361   6.490  2.1021 -0.3155 -0.3684
 7938SOL     OW24712   4.815   4.482   5.549  0.2066 -0.2683 -0.1877
 7938SOL    HW124713   4.860   4.568   5.573  0.9525  0.0420 -2.4722
 7938SOL    HW224714   4.794   4.431   5.632  0.6670  1.6542  1.1633
 7939SOL     OW24715   0.214   1.180   6.949  0.2741 -0.3093  0.7722
 7939SOL    HW124716   0.294   1.141   6.904  0.5147  0.4085  0.5697
 7939SOL    HW224717   0.135   1.177   6.887  0.8883  1.7943 -0.2174
 7940SOL     OW24718   2.046   3.964   0.770  0.3181  0.1503  0.3348
 7940SOL    HW124719   2.106   3.888   0.794 -0.5226 -0.3112  1.0313
 7940SOL    HW224720   1.965   3.962   0.828 -0.3908  0.7487 -0.5994
 7941SOL     OW24721   1.572   7.000   6.518  0.1899 -0.3862 -0.2634
 7941SOL    HW124722   1.506   6.979   6.445 -1.5522  2.7328  0.2287
 7941SOL    HW224723   1.596   6.915   6.566 -2.5574 -1.8545 -1.2259
 7942SOL     OW24724   0.092   6.760   2.559 -0.5909  0.1180 -0.8563
 7942SOL    HW124725   0.136   6.813   2.632  0.1094 -0.1019 -1.1039
 7942SOL    HW224726   0.037   6.687   2.599 -0.5279  0.2397 -0.5422
 7943SOL     OW24727   5.605   1.851   1.045 -0.4683 -0.4648 -0.3573
 7943SOL    HW124728   5.600   1.879   1.141 -2.3821  0.2848 -0.6221
 7943SOL    HW224729   5.669   1.775   1.035  1.1626  0.6246  1.2069
 7944SOL     OW24730   1.773   4.329   2.395 -0.2950 -0.4403 -1.1179
 7944SOL    HW124731   1.870   4.334   2.372  0.2128 -1.0947  0.6658
 7944SOL    HW224732   1.759   4.261   2.467 -1.5804  1.8450  0.9903
 7945SOL     OW24733   4.432   4.954   2.227  0.2537  0.2125 -0.4283
 7945SOL    HW124734   4.372   4.875   2.209  0.2929 -0.1313  0.8228
 7945SOL    HW224735   4.433   4.973   2.325 -0.1990  2.1551 -0.7632
 7946SOL     OW24736   2.251   3.090   5.468  0.5337 -0.6313 -0.4759
 7946SOL    HW124737   2.289   3.162   5.411  0.3467 -1.7779 -2.1382
 7946SOL    HW224738   2.322   3.054   5.529  1.2096 -0.4906 -1.1701
 7947SOL     OW24739   3.302   1.619   5.487  0.0455 -0.4401 -1.0833
 7947SOL    HW124740   3.332   1.689   5.421 -0.2025 -0.8665 -1.6617
 7947SOL    HW224741   3.300   1.658   5.579  0.0813  0.2617 -1.3740
 7948SOL     OW24742   6.986   6.539   0.111  0.5334  0.1830  0.0295
 7948SOL    HW124743   7.007   6.611   0.045  0.2277 -0.4861 -0.8081
 7948SOL    HW224744   7.023   6.452   0.079 -0.1535 -0.2673  0.4362
 7949SOL     OW24745   5.069   3.932   6.226  0.1733 -0.6053  0.1156
 7949SOL    HW124746   5.167   3.949   6.236 -0.2239  0.9509  1.9611
 7949SOL    HW224747   5.018   3.991   6.289 -1.9123 -2.0895 -0.0727
 7950SOL     OW24748   1.869   6.017   3.181 -0.9780  0.2211  0.5214
 7950SOL    HW124749   1.932   6.027   3.258 -0.4620 -3.0502  0.6525
 7950SOL    HW224750   1.794   5.955   3.206 -0.3154 -1.6680 -1.7960
 7951SOL     OW24751   2.558   2.698   5.909 -0.3729  0.5624 -0.7240
 7951SOL    HW124752   2.564   2.606   5.872  1.5084  0.2689  0.1646
 7951SOL    HW224753   2.604   2.762   5.848 -0.9073  0.7787 -0.9063
 7952SOL     OW24754   0.407   3.118   5.379 -0.0830 -0.0406 -0.0124
 7952SOL    HW124755   0.354   3.104   5.462 -0.2295 -0.6362 -0.2070
 7952SOL    HW224756   0.356   3.177   5.316 -0.4140 -0.4269 -0.1051
 7953SOL     OW24757   2.065   2.430   3.615  0.3825  0.2413 -0.2298
 7953SOL    HW124758   2.145   2.395   3.663  1.4960 -1.0365 -2.7944
 7953SOL    HW224759   2.052   2.527   3.638  2.0470  0.2088  1.0207
 7954SOL     OW24760   5.339   5.626   5.676  0.6873 -0.2834 -0.0750
 7954SOL    HW124761   5.345   5.527   5.687  0.9286 -0.1157  1.8090
 7954SOL    HW224762   5.367   5.670   5.762  0.6967  1.4211 -0.9094
 7955SOL     OW24763   0.935   6.389   0.891  0.1841  0.1847  0.3526
 7955SOL    HW124764   0.877   6.333   0.832 -1.1542  0.3544  1.4512
 7955SOL    HW224765   1.008   6.333   0.930 -0.4105 -0.5112  0.4821
 7956SOL     OW24766   0.522   0.122   3.135 -0.6025 -0.0143 -0.7579
 7956SOL    HW124767   0.609   0.160   3.101 -1.3008  1.8781 -0.5533
 7956SOL    HW224768   0.457   0.114   3.060 -1.2961  1.7108 -0.3877
 7957SOL     OW24769   1.199   1.835   6.307 -0.3079  0.3038  0.1408
 7957SOL    HW124770   1.223   1.854   6.211 -0.4704  1.0051  0.2341
 7957SOL    HW224771   1.100   1.829   6.316 -0.2649 -1.9005 -0.1135
 7958SOL     OW24772   3.837   5.694   5.090  0.0074  0.2796 -0.0932
 7958SOL    HW124773   3.769   5.748   5.140  0.8497  1.0715  0.2182
 7958SOL    HW224774   3.903   5.755   5.046  1.2957 -0.4911  0.7120
 7959SOL     OW24775   6.462   4.617   0.507  0.4677  0.0391  0.0075
 7959SOL    HW124776   6.387   4.602   0.571  0.4865  0.1044  0.0443
 7959SOL    HW224777   6.549   4.594   0.551  0.4830  0.1136  0.0152
 7960SOL     OW24778   3.307   0.972   0.314 -1.1080 -0.5249 -0.0033
 7960SOL    HW124779   3.213   0.947   0.291 -0.3174 -1.8983 -2.0174
 7960SOL    HW224780   3.363   0.972   0.231  0.5966  0.7392  1.0702
 7961SOL     OW24781   1.934   5.906   6.791 -0.0667  0.3224 -0.8586
 7961SOL    HW124782   1.998   5.830   6.785 -1.8504 -1.3301 -0.0449
 7961SOL    HW224783   1.929   5.939   6.885 -0.5877  0.2740 -0.8666
 7962SOL     OW24784   1.600   6.520   1.082  0.1345 -0.2130  0.3634
 7962SOL    HW124785   1.587   6.613   1.047  1.0856 -0.1724  0.0910
 7962SOL    HW224786   1.520   6.464   1.059  0.2044  0.1453 -0.7756
 7963SOL     OW24787   6.817   3.060   1.188  0.4560  0.5339  0.2772
 7963SOL    HW124788   6.729   3.106   1.185  0.9876  1.5691 -0.0685
 7963SOL    HW224789   6.882   3.108   1.128  1.0280 -0.6974 -0.1311
 7964SOL     OW24790   5.683   6.505   1.344 -0.3402 -0.0188 -0.0750
 7964SOL    HW124791   5.716   6.551   1.262 -0.9922 -0.6814 -0.7275
 7964SOL    HW224792   5.760   6.482   1.403  0.2578 -0.6158 -1.0709
 7965SOL     OW24793   5.107   3.884   0.795 -0.1593 -0.4130 -0.4045
 7965SOL    HW124794   5.089   3.983   0.794 -0.4523 -0.4512  0.2888
 7965SOL    HW224795   5.115   3.851   0.701  1.4318  0.5282 -0.6481
 7966SOL     OW24796   6.460   5.005   5.196 -0.3396 -0.0456  0.1627
 7966SOL    HW124797   6.432   5.055   5.277 -1.6857  0.4963 -0.5998
 7966SOL    HW224798   6.410   4.919   5.189 -0.9882  0.3782 -0.6012
 7967SOL     OW24799   4.324   6.149   2.954  0.2240 -0.1074  0.4377
 7967SOL    HW124800   4.258   6.109   3.017  0.3504 -0.5817  0.2751
 7967SOL    HW224801   4.414   6.110   2.971  1.5655  3.6935  3.7591
 7968SOL     OW24802   3.290   1.276   3.212  0.3081  0.5982 -0.2068
 7968SOL    HW124803   3.234   1.227   3.146  1.5016 -0.3353 -0.5740
 7968SOL    HW224804   3.307   1.369   3.180 -1.0144  0.9006 -0.0727
 7969SOL     OW24805   4.244   0.345   3.465  0.3933 -0.0402 -0.2846
 7969SOL    HW124806   4.210   0.322   3.374  1.6046 -0.6335 -0.6014
 7969SOL    HW224807   4.344   0.350   3.464  0.3903  0.7815  0.8277
 7970SOL     OW24808   5.373   3.497   5.494 -0.0972  0.3571 -0.0654
 7970SOL    HW124809   5.324   3.489   5.407 -0.0093  0.7984 -0.1605
 7970SOL    HW224810   5.336   3.574   5.546  0.5593  0.7721 -0.1917
 7971SOL     OW24811   5.077   2.741   0.928 -0.0361  0.5518 -0.1223
 7971SOL    HW124812   5.159   2.685   0.922  1.0867  2.0370  0.6313
 7971SOL    HW224813   5.075   2.807   0.852  0.5928  1.8998  0.9830
 7972SOL     OW24814   5.516   6.310   1.876 -0.4024  0.1574  0.1247
 7972SOL    HW124815   5.472   6.358   1.952  1.3304  2.2721 -0.1144
 7972SOL    HW224816   5.529   6.373   1.800  1.5843 -0.7996 -0.4033
 7973SOL     OW24817   6.432   4.181   6.267 -0.4598 -0.1204 -0.4329
 7973SOL    HW124818   6.423   4.213   6.362  1.2653  0.4229 -0.4294
 7973SOL    HW224819   6.343   4.147   6.236 -1.2380  0.3531  1.1312
 7974SOL     OW24820   4.998   1.334   5.323  0.1175  0.0481 -0.6486
 7974SOL    HW124821   4.993   1.344   5.224 -0.1092 -0.8998 -0.7403
 7974SOL    HW224822   4.920   1.281   5.355 -0.9985  2.1341  0.3051
 7975SOL     OW24823   2.145   1.735   5.654 -0.8850 -0.3162  0.2329
 7975SOL    HW124824   2.156   1.785   5.569  1.8012  0.4623  0.9371
 7975SOL    HW224825   2.163   1.638   5.639  1.1358  0.0372  0.1358
 7976SOL     OW24826   1.621   5.583   5.514 -0.4932  0.1472 -0.1263
 7976SOL    HW124827   1.602   5.496   5.558 -1.7558  0.9760  1.0542
 7976SOL    HW224828   1.627   5.655   5.583  0.5005  1.0204 -1.0718
 7977SOL     OW24829   4.482   6.135   1.680 -0.3288 -0.0369 -0.6584
 7977SOL    HW124830   4.556   6.166   1.619 -0.7002  2.5554  0.0662
 7977SOL    HW224831   4.407   6.097   1.626  0.7614 -1.0239 -1.5291
 7978SOL     OW24832   4.463   3.158   6.578  0.2643  0.0842 -0.3458
 7978SOL    HW124833   4.438   3.252   6.604  1.4515  0.3230 -0.0148
 7978SOL    HW224834   4.403   3.127   6.505 -0.1276  1.1195 -0.4818
 7979SOL     OW24835   2.786   1.184   2.908  0.7705  0.0802  0.5267
 7979SOL    HW124836   2.750   1.239   2.984  1.0908  1.1511 -0.0695
 7979SOL    HW224837   2.777   1.087   2.929 -2.4818  0.2416  0.4343
 7980SOL     OW24838   5.835   5.033   0.585 -0.4605 -0.2877 -0.4888
 7980SOL    HW124839   5.912   5.086   0.548 -0.1574 -0.4234 -0.0601
 7980SOL    HW224840   5.862   4.992   0.672 -1.0840 -0.1921 -0.2498
 7981SOL     OW24841   1.788   5.107   2.016 -0.1835  0.0014 -0.0731
 7981SOL    HW124842   1.862   5.150   2.068  0.5486  2.3292 -2.7678
 7981SOL    HW224843   1.739   5.042   2.075  3.8109 -1.5587  1.9245
 7982SOL     OW24844   5.202   3.411   0.295 -0.4394 -0.4395  0.2593
 7982SOL    HW124845   5.226   3.339   0.230 -0.5533 -1.1047  0.9455
 7982SOL    HW224846   5.109   3.443   0.276  0.2893  0.9488 -1.3087
 7983SOL     OW24847   5.661   2.598   3.626  0.1702 -0.9581 -0.0853
 7983SOL    HW124848   5.613   2.662   3.565 -0.8669 -1.9974 -0.3993
 7983SOL    HW224849   5.637   2.505   3.601 -0.3412 -1.4197  1.9823
 7984SOL     OW24850   3.767   0.970   2.658  0.5549 -0.8630 -0.6612
 7984SOL    HW124851   3.764   0.962   2.757  1.0654 -0.0374 -0.5693
 7984SOL    HW224852   3.742   0.883   2.616 -0.6540 -0.9398  0.1753
 7985SOL     OW24853   1.643   1.393   0.632  0.1261 -0.4245  0.1297
 7985SOL    HW124854   1.645   1.456   0.709  0.3442  0.5003 -0.6092
 7985SOL    HW224855   1.641   1.445   0.547  0.0031 -1.4255 -0.4958
 7986SOL     OW24856   4.608   1.759   7.000 -0.2325  0.1524  0.2478
 7986SOL    HW124857   4.550   1.793   6.926 -0.3021  3.9939  1.8160
 7986SOL    HW224858   4.701   1.792   6.987 -0.0142  0.0049  1.3256
 7987SOL     OW24859   6.232   3.140   4.319  0.4259  0.6281 -0.1444
 7987SOL    HW124860   6.306   3.075   4.335  0.6700  0.6315 -1.1789
 7987SOL    HW224861   6.166   3.136   4.394  1.3997  0.5252  0.7207
 7988SOL     OW24862   3.328   6.915   4.818  0.6341  0.1920  0.0730
 7988SOL    HW124863   3.316   6.989   4.751  1.0173  1.6642  1.5475
 7988SOL    HW224864   3.241   6.896   4.863  1.1154  2.1767  2.0423
 7989SOL     OW24865   3.516   1.059   4.099  0.3595 -0.1421 -0.0551
 7989SOL    HW124866   3.501   1.035   4.195 -0.0518 -0.9259 -0.3103
 7989SOL    HW224867   3.554   0.980   4.051 -0.6237 -0.1528 -0.8247
 7990SOL     OW24868   0.230   2.590   5.108  0.3241  0.8087 -0.3401
 7990SOL    HW124869   0.161   2.614   5.040 -0.1530 -0.0097 -0.1542
 7990SOL    HW224870   0.221   2.650   5.188  0.5255  1.4010 -0.7564
 7991SOL     OW24871   0.250   4.067   3.855  0.0373 -0.7655  0.2077
 7991SOL    HW124872   0.298   4.103   3.935 -1.2500  0.8511  0.3177
 7991SOL    HW224873   0.212   3.978   3.876  2.6368 -1.9799  0.2174
 7992SOL     OW24874   2.381   6.353   6.816  0.4034 -0.4307 -0.4057
 7992SOL    HW124875   2.334   6.434   6.780 -1.7167 -0.8929  1.1015
 7992SOL    HW224876   2.392   6.286   6.743  2.0175  1.0830 -1.6297
 7993SOL     OW24877   0.622   0.547   5.854  0.1046 -0.3612 -0.6689
 7993SOL    HW124878   0.643   0.641   5.879  0.2752 -0.2999 -1.0299
 7993SOL    HW224879   0.707   0.493   5.851 -0.0857 -0.7455  0.3941
 7994SOL     OW24880   5.007   1.092   1.645  0.1356 -0.7495 -0.4275
 7994SOL    HW124881   5.002   1.004   1.691  1.0325  0.4957  2.2701
 7994SOL    HW224882   4.917   1.116   1.608  0.0997 -3.1469 -2.0855
 7995SOL     OW24883   3.271   5.403   4.580  0.5473 -0.0926  0.5076
 7995SOL    HW124884   3.302   5.484   4.532 -2.0637 -0.8104 -2.7098
 7995SOL    HW224885   3.228   5.429   4.666  1.3291  1.7121  0.3827
 7996SOL     OW24886   4.273   6.566   4.963  0.5184 -0.4211 -0.4604
 7996SOL    HW124887   4.317   6.481   4.992 -0.1207  0.1550  2.6250
 7996SOL    HW224888   4.209   6.596   5.035  0.2380  2.3262 -1.7255
 7997SOL     OW24889   3.613   2.463   0.043  0.1515 -0.4356  0.0505
 7997SOL    HW124890   3.684   2.426  -0.018 -0.3580 -1.9454  0.3320
 7997SOL    HW224891   3.635   2.439   0.138 -0.8641 -1.1945  0.1168
 7998SOL     OW24892   5.111   5.170   1.420  0.1697  0.2708 -0.2162
 7998SOL    HW124893   5.117   5.088   1.476 -0.4484 -1.3183 -2.3553
 7998SOL    HW224894   5.027   5.168   1.366  1.3890  0.9937 -2.2456
 7999SOL     OW24895   0.368   0.930   0.262 -0.0139  0.1835  1.0118
 7999SOL    HW124896   0.325   1.020   0.248  0.8330  0.8417  2.4373
 7999SOL    HW224897   0.440   0.916   0.194  1.8164  1.8837  2.4847
 8000SOL     OW24898   1.055   1.441   5.361  0.1334  0.5628  0.3296
 8000SOL    HW124899   1.099   1.387   5.433 -0.2398  0.8972  0.8186
 8000SOL    HW224900   0.959   1.416   5.355  0.1243  0.6606  0.0585
 8001SOL     OW24901   0.500   5.366   1.618 -0.1701 -0.4242  0.3562
 8001SOL    HW124902   0.581   5.390   1.564 -1.2534 -0.1138 -1.1832
 8001SOL    HW224903   0.508   5.271   1.650  0.3245 -0.7472 -0.6822
 8002SOL     OW24904   0.862   2.873   4.186 -0.8086  0.4291 -0.3021
 8002SOL    HW124905   0.882   2.781   4.220 -0.4639  1.5806  2.9384
 8002SOL    HW224906   0.944   2.929   4.191 -1.3653  1.3080 -0.8452
 8003SOL     OW24907   3.599   5.230   3.980 -0.1725  0.3326 -0.2517
 8003SOL    HW124908   3.609   5.218   4.079  0.4585  0.5962 -0.2790
 8003SOL    HW224909   3.533   5.163   3.945 -1.8653  1.4607  0.6264
 8004SOL     OW24910   2.165   3.999   3.639  0.4831  0.0025 -0.0354
 8004SOL    HW124911   2.182   3.918   3.582 -2.1247 -1.6409  1.3732
 8004SOL    HW224912   2.133   4.074   3.581  0.6486 -0.7056 -1.0681
 8005SOL     OW24913   2.941   6.939   1.424  0.1702 -0.5097 -0.3881
 8005SOL    HW124914   2.878   6.975   1.356 -1.4172  0.1873  1.3433
 8005SOL    HW224915   2.954   7.007   1.496  2.9167 -0.6637 -0.6478
 8006SOL     OW24916   0.838   5.509   0.158 -0.5830  0.5777 -0.6284
 8006SOL    HW124917   0.828   5.590   0.216 -1.0160 -0.6328  1.0853
 8006SOL    HW224918   0.752   5.491   0.111 -0.9162  0.3717  0.0408
 8007SOL     OW24919   6.135   6.018   4.889 -0.2173  0.0569 -0.5823
 8007SOL    HW124920   6.161   6.073   4.810 -1.4109  0.8910 -0.4130
 8007SOL    HW224921   6.117   6.078   4.967 -0.8772 -0.6185 -0.2035
 8008SOL     OW24922   6.101   0.108   5.311 -0.2643 -0.2297 -0.3800
 8008SOL    HW124923   6.095   0.200   5.273 -0.9405  0.2856  0.9063
 8008SOL    HW224924   6.182   0.061   5.274 -0.3057  0.6060 -1.5877
 8009SOL     OW24925   5.315   0.466   5.172 -0.6155 -0.2052 -0.4355
 8009SOL    HW124926   5.320   0.538   5.241 -0.6955 -0.4755 -0.1436
 8009SOL    HW224927   5.385   0.397   5.190 -0.8965 -0.4811 -0.3848
 8010SOL     OW24928   1.249   2.609   6.653  0.2730  1.3032  0.3371
 8010SOL    HW124929   1.229   2.676   6.581  0.4223  0.0229 -0.9375
 8010SOL    HW224930   1.329   2.554   6.626  0.0078  0.4559  1.2352
 8011SOL     OW24931   1.660   2.580   1.975  0.0446  0.2747 -0.3048
 8011SOL    HW124932   1.595   2.656   1.965 -0.4229 -0.2674 -1.5953
 8011SOL    HW224933   1.692   2.577   2.070 -0.5470  1.5721 -0.0255
 8012SOL     OW24934   1.213   4.773   2.492  0.0430  0.4806  0.3982
 8012SOL    HW124935   1.302   4.730   2.509 -0.4533 -0.8750 -0.3348
 8012SOL    HW224936   1.226   4.872   2.483  1.0977  0.6805  3.0138
 8013SOL     OW24937   6.464   6.376   2.673 -0.5471 -1.0318 -0.4648
 8013SOL    HW124938   6.446   6.335   2.583  0.5584 -1.1622 -0.6303
 8013SOL    HW224939   6.511   6.310   2.731  0.8090 -0.1959 -0.5705
 8014SOL     OW24940   1.471   0.138   4.115  0.2833  0.6558  0.0770
 8014SOL    HW124941   1.473   0.222   4.170 -1.7290  1.4608 -0.9455
 8014SOL    HW224942   1.554   0.132   4.059  0.5347  1.8958  0.2948
 8015SOL     OW24943   1.339   3.921   1.024 -0.1676  0.2534 -0.5619
 8015SOL    HW124944   1.260   3.879   1.069  1.2477 -1.4553  0.4597
 8015SOL    HW224945   1.363   3.869   0.942  0.2869  0.3422 -0.4922
 8016SOL     OW24946   4.272   0.434   0.360  0.3745  0.1908 -0.4849
 8016SOL    HW124947   4.242   0.339   0.371 -0.0835  0.5409  1.6870
 8016SOL    HW224948   4.222   0.476   0.284 -1.2283 -0.6188  0.0721
 8017SOL     OW24949   0.249   4.336   4.671 -0.2209 -0.3078 -0.1602
 8017SOL    HW124950   0.177   4.375   4.728 -1.1338 -0.1999 -1.3542
 8017SOL    HW224951   0.281   4.406   4.606 -2.9854 -1.8341 -3.4279
 8018SOL     OW24952   3.271   1.945   5.053 -0.3510  0.0350  0.5802
 8018SOL    HW124953   3.258   2.036   5.014 -0.0840 -0.2241 -0.1325
 8018SOL    HW224954   3.351   1.901   5.010 -0.6455 -0.6419  0.7102
 8019SOL     OW24955   1.712   4.074   2.053  0.5489  0.9452 -0.0603
 8019SOL    HW124956   1.679   4.008   1.986  0.1567  1.1481 -0.0660
 8019SOL    HW224957   1.686   4.167   2.025  5.2283  1.7769 -2.7327
 8020SOL     OW24958   5.905   3.962   6.123 -0.2228  0.3266  0.1858
 8020SOL    HW124959   5.834   3.901   6.087  1.8032 -1.6413 -0.7195
 8020SOL    HW224960   5.905   4.047   6.072 -0.0613 -0.8264 -1.8608
 8021SOL     OW24961   0.907   0.970   0.706  0.1361  0.6695 -0.5339
 8021SOL    HW124962   0.889   0.891   0.648  0.4242  1.6421 -1.9970
 8021SOL    HW224963   0.822   1.020   0.723 -0.1293 -0.1784  0.7842
 8022SOL     OW24964   5.628   6.546   0.956 -0.2776 -0.2187  0.4643
 8022SOL    HW124965   5.682   6.591   1.027  0.0323 -1.4151  1.0219
 8022SOL    HW224966   5.531   6.554   0.977 -0.2211  0.0656  0.6229
 8023SOL     OW24967   6.293   6.345   3.180  0.6897 -0.3680  0.0830
 8023SOL    HW124968   6.335   6.432   3.206  0.5952 -1.2611  3.7014
 8023SOL    HW224969   6.194   6.350   3.195  0.5756 -0.8670 -0.4778
 8024SOL     OW24970   4.057   5.227   5.135  0.2438 -0.5076 -0.8781
 8024SOL    HW124971   4.017   5.317   5.157  1.0714 -0.1597 -0.7559
 8024SOL    HW224972   4.007   5.156   5.184  0.8288  0.0819  0.6745
 8025SOL     OW24973   2.903   5.054   0.171  0.8428  0.0661  0.1836
 8025SOL    HW124974   2.896   5.099   0.082  0.7569 -0.1450  0.0825
 8025SOL    HW224975   2.832   4.983   0.178  0.5000  0.4442  0.6280
 8026SOL     OW24976   1.522   4.240   6.754 -0.2357  0.1433  0.1530
 8026SOL    HW124977   1.605   4.186   6.742  0.3893  1.3554 -1.1568
 8026SOL    HW224978   1.452   4.184   6.799  0.5841 -1.5485 -0.6066
 8027SOL     OW24979   3.543   1.415   5.667 -0.5294 -0.8117  0.3878
 8027SOL    HW124980   3.498   1.471   5.736 -0.0006  1.3433 -0.9446
 8027SOL    HW224981   3.636   1.394   5.698 -0.9942 -1.7113  1.2529
 8028SOL     OW24982   5.541   4.422   5.233  0.0876  0.0262  0.3127
 8028SOL    HW124983   5.560   4.413   5.135  1.3252  0.8222  0.4551
 8028SOL    HW224984   5.559   4.335   5.279  0.1632 -0.1621 -0.0744
 8029SOL     OW24985   3.660   5.588   5.718 -0.1706  0.2863 -0.1010
 8029SOL    HW124986   3.642   5.669   5.774  1.0237  0.2246  0.4174
 8029SOL    HW224987   3.574   5.542   5.697 -0.7951  1.2553  0.2496
 8030SOL     OW24988   6.619   5.130   3.981 -0.5908 -0.4644  0.0772
 8030SOL    HW124989   6.651   5.075   4.058  3.1057  2.2480  0.7790
 8030SOL    HW224990   6.594   5.222   4.013 -0.7163  0.1627 -1.7035
 8031SOL     OW24991   3.733   5.915   2.493 -0.4338 -0.2208  0.4587
 8031SOL    HW124992   3.691   5.912   2.583 -1.3593  2.1444  0.1824
 8031SOL    HW224993   3.832   5.929   2.502 -0.4726 -0.3222  1.0838
 8032SOL     OW24994   5.853   5.731   3.702  0.1747  0.2461  0.3054
 8032SOL    HW124995   5.874   5.820   3.661  0.4585  0.2889  0.5439
 8032SOL    HW224996   5.938   5.682   3.722  0.1222  0.9106  2.3664
 8033SOL     OW24997   6.402   1.775   0.064 -0.3155  0.1443 -0.2841
 8033SOL    HW124998   6.417   1.858   0.011  0.8499  0.6773  0.8165
 8033SOL    HW224999   6.427   1.695   0.009 -1.6108  0.4899 -1.4072
 8034SOL     OW25000   5.494   6.883   3.924 -0.3614  0.3348 -0.0797
 8034SOL    HW125001   5.426   6.881   3.998 -1.5633 -2.1747 -1.1228
 8034SOL    HW225002   5.515   6.977   3.900 -1.6205  1.1966  1.9478
 8035SOL     OW25003   5.533   6.889   5.165 -0.0496 -0.3344 -0.2408
 8035SOL    HW125004   5.438   6.860   5.164 -0.2760  0.2966  0.9401
 8035SOL    HW225005   5.592   6.811   5.190 -0.1341 -0.9609 -1.8808
 8036SOL     OW25006   2.673   5.093   1.876  0.1629  0.3899  0.4652
 8036SOL    HW125007   2.701   5.001   1.900 -1.7697 -0.5933 -0.7887
 8036SOL    HW225008   2.693   5.110   1.779 -2.1469  0.1160 -0.1314
 8037SOL     OW25009   2.178   3.879   6.432  0.3374  0.2440  0.0905
 8037SOL    HW125010   2.084   3.901   6.456 -0.0979 -2.3974  1.0649
 8037SOL    HW225011   2.234   3.962   6.438 -1.8719  1.8635 -0.5064
 8038SOL     OW25012   6.218   2.005   3.405  0.2663 -0.2673  0.4156
 8038SOL    HW125013   6.275   1.925   3.385 -1.4254 -1.4884  0.2816
 8038SOL    HW225014   6.164   1.987   3.487 -0.3766  0.6146  0.1911
 8039SOL     OW25015   4.275   6.928   3.685 -0.0815  0.0090  0.3900
 8039SOL    HW125016   4.276   7.021   3.721  0.7406 -0.0636  0.5820
 8039SOL    HW225017   4.237   6.928   3.593 -1.1327  0.3625  0.8108
 8040SOL     OW25018   0.164   4.995   0.293 -0.7822 -0.2158 -0.1322
 8040SOL    HW125019   0.203   4.994   0.202  0.7778 -0.2806  0.5161
 8040SOL    HW225020   0.235   4.976   0.361 -2.1560 -1.4970  1.0230
 8041SOL     OW25021   4.854   1.878   2.281  0.6650  0.1078 -0.2810
 8041SOL    HW125022   4.764   1.862   2.241  1.0970  1.3595 -1.8928
 8041SOL    HW225023   4.895   1.791   2.306 -0.6950 -0.5332 -0.2029
 8042SOL     OW25024   3.784   3.926   2.981 -0.2034  0.4928 -0.1759
 8042SOL    HW125025   3.743   4.015   2.959  1.2316  1.1368 -0.3938
 8042SOL    HW225026   3.828   3.931   3.070 -0.2943 -0.0810 -0.0938
 8043SOL     OW25027   3.938   6.896   5.426 -0.7855  0.3490  0.2196
 8043SOL    HW125028   3.881   6.896   5.344 -0.3099 -1.5297 -0.1405
 8043SOL    HW225029   3.895   6.840   5.497  0.2363 -0.4800  0.2045
 8044SOL     OW25030   2.760   2.187   6.603  0.1381 -0.3766 -0.4570
 8044SOL    HW125031   2.662   2.187   6.584  0.2523  0.3276 -1.0991
 8044SOL    HW225032   2.776   2.160   6.698 -0.7184  0.1362 -0.1586
 8045SOL     OW25033   5.673   4.002   2.612  0.3053  0.9504  0.1142
 8045SOL    HW125034   5.586   3.953   2.606 -0.3626  1.8494  1.7451
 8045SOL    HW225035   5.684   4.038   2.704  1.0386  3.3225 -0.8246
 8046SOL     OW25036   5.320   5.137   6.045  0.1464  0.2218 -0.2566
 8046SOL    HW125037   5.342   5.103   5.953 -0.2228 -0.0912 -0.2346
 8046SOL    HW225038   5.357   5.229   6.057  0.8222 -0.0231 -0.4611
 8047SOL     OW25039   1.946   5.280   4.002 -0.0831 -0.0992 -0.2817
 8047SOL    HW125040   1.849   5.280   3.976 -0.1528  0.7319 -0.0348
 8047SOL    HW225041   1.958   5.326   4.090  0.4623 -0.7739  0.0089
 8048SOL     OW25042   5.909   6.201   5.229  0.1050 -0.2177  0.6215
 8048SOL    HW125043   5.831   6.149   5.195  0.2030 -0.3819  0.6451
 8048SOL    HW225044   5.925   6.178   5.325  2.5023 -3.1201 -0.3048
 8049SOL     OW25045   0.646   5.109   0.943 -0.2101  0.5426 -0.1769
 8049SOL    HW125046   0.626   5.201   0.910 -0.1730 -0.0943 -2.0838
 8049SOL    HW225047   0.696   5.115   1.029  1.4725  2.3630 -1.2018
 8050SOL     OW25048   2.459   2.127   0.976 -0.7509  0.1150  1.0761
 8050SOL    HW125049   2.387   2.195   0.959 -1.4259 -0.9542 -0.7141
 8050SOL    HW225050   2.535   2.170   1.024 -1.8763  1.6935  1.5312
 8051SOL     OW25051   3.710   2.111   2.999 -0.6688  0.2027  0.1496
 8051SOL    HW125052   3.778   2.150   2.936 -1.8488  0.0366 -1.2859
 8051SOL    HW225053   3.751   2.036   3.050  0.2015  0.0465 -0.7463
 8052SOL     OW25054   2.407   2.692   2.320  0.1909 -0.4280  0.1116
 8052SOL    HW125055   2.487   2.712   2.377  0.0222  1.6237 -0.3163
 8052SOL    HW225056   2.438   2.648   2.236  0.8155 -0.1932  0.2103
 8053SOL     OW25057   3.356   3.277   2.332 -0.5213 -0.1737 -0.0624
 8053SOL    HW125058   3.455   3.285   2.344 -0.4954 -1.7793  1.0002
 8053SOL    HW225059   3.330   3.181   2.329 -2.1286  0.2231  0.2983
 8054SOL     OW25060   0.500   5.579   3.940  0.5872 -0.0831  0.2800
 8054SOL    HW125061   0.449   5.665   3.939 -0.6149 -0.7864 -1.1226
 8054SOL    HW225062   0.584   5.589   3.887 -0.3117 -0.1803 -1.2229
 8055SOL     OW25063   0.400   6.927   5.645 -0.1683 -0.1558 -0.3099
 8055SOL    HW125064   0.494   6.929   5.680  0.5195 -3.3484 -1.6513
 8055SOL    HW225065   0.354   6.844   5.677 -1.5377 -0.1365 -2.0806
 8056SOL     OW25066   5.012   0.883   1.851  0.0842 -0.0227 -0.3530
 8056SOL    HW125067   5.027   0.785   1.840  1.6565  0.0502  0.7370
 8056SOL    HW225068   4.964   0.900   1.937  0.6114  0.1951 -0.0957
 8057SOL     OW25069   3.560   5.386   2.507  0.4973  0.2185 -0.4559
 8057SOL    HW125070   3.483   5.339   2.463  0.4850 -0.5475  0.3687
 8057SOL    HW225071   3.555   5.372   2.606  1.5868  0.3298 -0.3793
 8058SOL     OW25072   3.058   6.159   3.608  0.4536  0.3143  0.3716
 8058SOL    HW125073   3.156   6.176   3.620 -0.1330  2.8691  2.0424
 8058SOL    HW225074   3.026   6.206   3.526  0.0860  2.0935  1.4900
 8059SOL     OW25075   1.792   3.172   4.681  0.3151 -0.0259 -0.4367
 8059SOL    HW125076   1.805   3.125   4.593  0.5334  0.4521 -0.6612
 8059SOL    HW225077   1.694   3.185   4.696  0.1485 -1.7669  0.2778
 8060SOL     OW25078   0.315   0.464   2.422 -0.1858 -0.3461  0.2124
 8060SOL    HW125079   0.354   0.524   2.491 -0.6289  0.4106 -0.1855
 8060SOL    HW225080   0.254   0.397   2.466 -0.2339 -0.0595  0.5857
 8061SOL     OW25081   0.057   6.229   2.875 -0.5729  0.8921  0.5883
 8061SOL    HW125082   0.004   6.314   2.881 -0.3232  1.0422  0.7077
 8061SOL    HW225083   0.151   6.251   2.848 -0.5301  0.6448  0.5338
 8062SOL     OW25084   0.055   4.586   5.366  0.1827 -0.2969  0.4649
 8062SOL    HW125085   0.095   4.665   5.412  0.4794 -2.2061  3.8155
 8062SOL    HW225086  -0.044   4.597   5.360  0.2764  0.5468  0.3647
 8063SOL     OW25087   2.156   3.281   0.270 -0.2718  0.5377  0.4004
 8063SOL    HW125088   2.175   3.251   0.176 -2.1991  0.4573  0.0015
 8063SOL    HW225089   2.241   3.314   0.312  1.2310 -2.0205 -0.3848
 8064SOL     OW25090   6.994   3.713   6.836 -0.4909 -0.1167 -0.5473
 8064SOL    HW125091   7.016   3.643   6.903 -1.2376  0.3272  0.1776
 8064SOL    HW225092   6.931   3.676   6.767  0.3580 -0.6012 -1.0715
 8065SOL     OW25093   5.235   5.270   4.175  0.3416 -0.2514  0.0393
 8065SOL    HW125094   5.219   5.361   4.138  0.6425 -0.4497 -0.5934
 8065SOL    HW225095   5.320   5.270   4.228 -0.3527  0.1569  1.1827
 8066SOL     OW25096   2.583   0.191   1.422  0.7398  0.1135 -0.6462
 8066SOL    HW125097   2.582   0.106   1.369  1.2639 -0.3813  0.1131
 8066SOL    HW225098   2.496   0.238   1.412  0.9605  0.2411 -2.2605
 8067SOL     OW25099   5.083   2.854   3.702 -0.3918  0.1022 -0.0437
 8067SOL    HW125100   4.985   2.857   3.721 -0.0663 -0.8621  2.2249
 8067SOL    HW225101   5.101   2.794   3.625 -1.4982 -0.9798  0.5115
 8068SOL     OW25102   0.084   4.921   5.983 -0.0335  0.1087 -0.1985
 8068SOL    HW125103   0.120   4.879   6.067 -1.6523  2.4585  1.8122
 8068SOL    HW225104   0.151   4.912   5.910  2.3410 -0.2667  1.8946
 8069SOL     OW25105   6.183   0.861   5.510 -0.4683 -0.1759 -0.0886
 8069SOL    HW125106   6.241   0.790   5.551 -0.1221 -1.1764 -2.1620
 8069SOL    HW225107   6.240   0.938   5.482 -0.2843 -0.6195 -0.9877
 8070SOL     OW25108   3.181   5.717   1.289  0.7640 -0.0972 -0.4124
 8070SOL    HW125109   3.261   5.777   1.291 -0.0335  0.9780  0.7102
 8070SOL    HW225110   3.208   5.626   1.257  2.4861  0.1450  0.2757
 8071SOL     OW25111   3.764   4.804   6.427 -0.2095 -0.0277  0.4277
 8071SOL    HW125112   3.740   4.721   6.478 -0.4696 -0.1328  0.1344
 8071SOL    HW225113   3.726   4.799   6.335  0.6040 -0.0146  0.0872
 8072SOL     OW25114   4.888   1.129   6.470  0.0728  0.0262 -0.5943
 8072SOL    HW125115   4.874   1.110   6.373  1.6380 -0.1283 -0.8315
 8072SOL    HW225116   4.800   1.143   6.515 -0.6934 -0.1358 -1.9809
 8073SOL     OW25117   3.705   6.294   5.683 -0.3678  0.8510  0.0639
 8073SOL    HW125118   3.674   6.205   5.717  0.6418  0.3304 -0.3429
 8073SOL    HW225119   3.665   6.367   5.740 -0.5716  0.1072  0.8990
 8074SOL     OW25120   2.649   3.602   0.334  0.6063  0.1253 -0.0594
 8074SOL    HW125121   2.717   3.540   0.294  0.8330  0.9419 -0.9896
 8074SOL    HW225122   2.605   3.558   0.412  1.3067 -0.9010 -0.2248
 8075SOL     OW25123   6.433   2.394   1.242 -0.0831  0.3004 -0.2503
 8075SOL    HW125124   6.360   2.421   1.179 -0.2900 -0.5557 -0.3846
 8075SOL    HW225125   6.468   2.304   1.216  3.5990  2.1276 -2.5197
 8076SOL     OW25126   5.320   1.187   4.877  0.2473 -0.6161  0.1653
 8076SOL    HW125127   5.387   1.133   4.826 -0.6971 -0.1662 -1.6381
 8076SOL    HW225128   5.350   1.196   4.972  2.4043 -0.9578 -0.4239
 8077SOL     OW25129   1.434   0.559   0.626  0.3486 -0.0152 -0.0638
 8077SOL    HW125130   1.396   0.650   0.605  0.4264  0.1893  0.6298
 8077SOL    HW225131   1.434   0.546   0.725 -0.1646 -0.9995 -0.1866
 8078SOL     OW25132   2.175   2.325   6.920 -0.4105 -0.1467  0.1923
 8078SOL    HW125133   2.079   2.301   6.908 -1.0574  1.9446  0.7296
 8078SOL    HW225134   2.231   2.272   6.856 -1.6641 -2.7908  1.1523
 8079SOL     OW25135   1.505   1.299   2.725 -0.3273 -0.1221  0.3086
 8079SOL    HW125136   1.551   1.249   2.650 -2.1867  1.1587 -1.8139
 8079SOL    HW225137   1.499   1.396   2.702 -2.2047  0.0904  1.4545
 8080SOL     OW25138   2.043   4.349   0.871 -0.1047  0.4317  0.4509
 8080SOL    HW125139   1.958   4.348   0.923  0.3763  0.9111  1.2626
 8080SOL    HW225140   2.022   4.341   0.773 -1.0446  0.0386  0.6734
 8081SOL     OW25141   3.658   6.393   4.764 -0.1654  0.5054  0.2593
 8081SOL    HW125142   3.616   6.483   4.763 -0.0710  0.5531 -0.4452
 8081SOL    HW225143   3.588   6.323   4.774 -0.0813  0.7031  2.8889
 8082SOL     OW25144   4.838   3.987   2.725  0.5145 -0.2622 -0.1610
 8082SOL    HW125145   4.777   4.049   2.676  1.2803  0.0534 -0.7453
 8082SOL    HW225146   4.847   3.901   2.674  0.1274 -0.5251  0.2085
 8083SOL     OW25147   4.669   2.737   2.955 -0.5050 -0.4577 -0.4155
 8083SOL    HW125148   4.584   2.740   2.901 -1.7439  0.2175  1.4556
 8083SOL    HW225149   4.730   2.810   2.925 -0.8697 -0.5200 -1.3503
 8084SOL     OW25150   6.367   6.748   0.099  0.0264  0.2168 -0.3052
 8084SOL    HW125151   6.346   6.825   0.159 -1.4052  0.0096 -0.4952
 8084SOL    HW225152   6.338   6.770   0.006 -0.2103 -0.4629 -0.3992
 8085SOL     OW25153   5.057   1.965   1.261 -0.1088 -0.4169 -0.6124
 8085SOL    HW125154   5.058   1.946   1.360  2.0122  1.6195 -0.1741
 8085SOL    HW225155   4.965   1.993   1.234 -0.6920 -0.8686  0.7950
 8086SOL     OW25156   3.968   1.109   6.108  0.1796  0.1168 -0.6125
 8086SOL    HW125157   3.932   1.138   6.196  0.8548 -1.9166  0.4215
 8086SOL    HW225158   4.031   1.178   6.073  1.8380 -0.0542  1.7623
 8087SOL     OW25159   2.259   2.924   1.752 -0.0308 -0.7309 -0.0543
 8087SOL    HW125160   2.234   3.020   1.767  0.7968 -0.4957 -0.1210
 8087SOL    HW225161   2.238   2.871   1.834  0.9626 -0.1821  0.5728
 8088SOL     OW25162   3.277   0.884   3.212 -0.2901 -0.7382 -0.7489
 8088SOL    HW125163   3.221   0.958   3.174 -1.2687 -1.2855 -0.3815
 8088SOL    HW225164   3.321   0.834   3.137  1.3258  0.9039 -0.9745
 8089SOL     OW25165   3.599   2.634   0.274  0.0726 -0.2598  0.0188
 8089SOL    HW125166   3.664   2.592   0.338 -1.4014 -0.5567  1.4083
 8089SOL    HW225167   3.541   2.699   0.324 -1.2036 -0.5847 -0.9898
 8090SOL     OW25168   5.919   1.655   3.663 -0.3056 -0.1765  0.7859
 8090SOL    HW125169   5.850   1.654   3.590  0.3319 -1.8853  0.1504
 8090SOL    HW225170   5.874   1.648   3.752 -1.0118  0.3848  0.4853
 8091SOL     OW25171   5.035   4.623   0.233 -0.2629 -0.6747 -0.4787
 8091SOL    HW125172   4.994   4.588   0.149 -2.6066 -0.5645  0.5549
 8091SOL    HW225173   5.023   4.558   0.307 -1.0673  0.5354  0.5021
 8092SOL     OW25174   1.070   0.917   3.143  0.0846 -0.2369  0.2548
 8092SOL    HW125175   1.163   0.947   3.167  0.6330 -0.2664 -1.6569
 8092SOL    HW225176   1.010   0.927   3.223  1.5907  0.3169  1.3681
 8093SOL     OW25177   4.558   0.199   0.584 -0.4930 -0.1688 -0.6954
 8093SOL    HW125178   4.489   0.259   0.623  0.2019  0.3960 -0.3111
 8093SOL    HW225179   4.608   0.154   0.658 -0.2055 -0.2936 -0.9652
 8094SOL     OW25180   0.451   3.392   6.510  0.0299  0.4183 -0.6229
 8094SOL    HW125181   0.538   3.408   6.462  0.9118  1.7462  1.2493
 8094SOL    HW225182   0.423   3.477   6.556 -1.8250 -0.2345 -0.4828
 8095SOL     OW25183   6.295   1.710   5.443  0.5066 -0.6466  0.1177
 8095SOL    HW125184   6.348   1.738   5.363  1.7487 -1.3778  0.6587
 8095SOL    HW225185   6.203   1.684   5.414  1.0334 -1.2063 -1.1332
 8096SOL     OW25186   2.473   6.369   0.232 -0.0488  0.5230 -0.6322
 8096SOL    HW125187   2.398   6.317   0.275  0.0907  0.0164 -0.9989
 8096SOL    HW225188   2.485   6.456   0.281  0.3394 -0.1952  0.5741
 8097SOL     OW25189   5.105   1.279   2.231 -0.2917 -0.8563 -0.1570
 8097SOL    HW125190   5.034   1.257   2.298 -0.6633 -0.1153 -0.2970
 8097SOL    HW225191   5.151   1.364   2.257  0.7257 -1.4517  0.0621
 8098SOL     OW25192   1.958   5.575   4.000 -0.8428 -0.0622  0.4035
 8098SOL    HW125193   1.879   5.516   3.980  1.5801 -3.2036 -0.9884
 8098SOL    HW225194   2.039   5.535   3.957  1.6193  2.7454  2.1174
 8099SOL     OW25195   5.637   4.762   4.516 -0.0457  0.2210 -0.3820
 8099SOL    HW125196   5.663   4.670   4.545 -1.9796 -0.1928  0.2290
 8099SOL    HW225197   5.539   4.763   4.497  0.2142  1.8296 -1.7546
 8100SOL     OW25198   6.059   5.826   0.214 -0.0417 -0.3098 -0.1441
 8100SOL    HW125199   6.068   5.854   0.310 -1.4269  0.6516 -0.2656
 8100SOL    HW225200   5.977   5.770   0.203 -0.3618  0.2805 -0.8882
 8101SOL     OW25201   2.424   6.643   4.503  0.0951 -0.8470 -0.4999
 8101SOL    HW125202   2.326   6.662   4.495 -0.0860 -1.8748 -0.8344
 8101SOL    HW225203   2.449   6.570   4.440  0.6905 -1.9558  0.9499
 8102SOL     OW25204   0.797   0.278   3.827  0.6609  0.0410 -0.3155
 8102SOL    HW125205   0.830   0.185   3.813  1.5063  0.2384  0.2769
 8102SOL    HW225206   0.850   0.341   3.772 -0.1514  0.1432 -0.9936
 8103SOL     OW25207   3.388   1.135   2.133 -0.0608  0.2451 -0.1842
 8103SOL    HW125208   3.421   1.222   2.096  0.5555 -0.0251 -0.2725
 8103SOL    HW225209   3.294   1.147   2.165 -0.9308  0.2791 -2.5806
 8104SOL     OW25210   2.510   4.122   6.249  0.2527  0.1550 -0.4043
 8104SOL    HW125211   2.452   4.108   6.329  1.1142  0.2831  0.2668
 8104SOL    HW225212   2.524   4.036   6.202 -0.9218  0.2187 -0.9002
 8105SOL     OW25213   0.427   2.111   4.746  0.1261  0.5921 -0.5736
 8105SOL    HW125214   0.337   2.133   4.708  1.1596  2.6343 -2.0113
 8105SOL    HW225215   0.485   2.073   4.674 -0.2929 -3.4192  0.9197
 8106SOL     OW25216   0.500   3.314   1.951 -0.6773 -0.1093  0.1946
 8106SOL    HW125217   0.575   3.376   1.928 -0.1601 -0.8710 -0.1817
 8106SOL    HW225218   0.458   3.344   2.037  0.2346  0.1513  0.5636
 8107SOL     OW25219   3.509   6.716   5.669  0.2487  0.5291 -0.0872
 8107SOL    HW125220   3.524   6.740   5.573  2.3668 -1.1063 -0.2260
 8107SOL    HW225221   3.459   6.630   5.675  0.0145  0.6878  0.2797
 8108SOL     OW25222   5.528   3.812   5.703  0.5455 -0.0771  0.5294
 8108SOL    HW125223   5.560   3.718   5.719  1.2318  0.0148 -0.2409
 8108SOL    HW225224   5.523   3.860   5.791 -0.7201 -1.0965  1.0557
 8109SOL     OW25225   0.262   3.867   6.252 -0.1244  0.0163 -0.3795
 8109SOL    HW125226   0.170   3.897   6.229 -0.2091  0.3079  0.3053
 8109SOL    HW225227   0.325   3.891   6.179 -0.8269 -1.4615 -1.5224
 8110SOL     OW25228   1.974   6.680   1.136  0.5555 -0.1863 -0.2765
 8110SOL    HW125229   1.908   6.647   1.069  0.3798  3.0272 -1.8919
 8110SOL    HW225230   2.044   6.611   1.150 -0.5688 -1.8256 -2.1631
 8111SOL     OW25231   2.151   4.678   4.088 -0.0111 -0.8069  0.6860
 8111SOL    HW125232   2.106   4.623   4.158 -1.6084 -0.1211  0.2438
 8111SOL    HW225233   2.239   4.710   4.123 -0.7074 -0.5875  2.3483
 8112SOL     OW25234   4.173   0.005   5.537 -0.5283  0.1129 -0.4467
 8112SOL    HW125235   4.177   0.026   5.635  0.7095  2.1986 -0.8891
 8112SOL    HW225236   4.080  -0.024   5.513 -0.8901 -0.2930  1.3033
 8113SOL     OW25237   3.621   1.433   0.465  0.6510  0.1847 -0.2271
 8113SOL    HW125238   3.683   1.466   0.535  1.1194 -0.6094 -0.2476
 8113SOL    HW225239   3.601   1.336   0.481 -0.4118  0.3655 -0.3502
 8114SOL     OW25240   2.292   1.824   3.857 -0.3611  0.0004  0.8076
 8114SOL    HW125241   2.227   1.770   3.911  0.7592 -0.5348  1.6577
 8114SOL    HW225242   2.349   1.878   3.919  0.0814  0.3853  0.0753
 8115SOL     OW25243   4.038   1.794   0.940  0.2110  0.4306  0.0182
 8115SOL    HW125244   3.979   1.869   0.910  0.5235  0.7520  0.1934
 8115SOL    HW225245   4.108   1.830   1.002 -0.9969 -0.3543  1.9239
 8116SOL     OW25246   0.321   5.911   6.435 -0.2059  0.3545 -0.1138
 8116SOL    HW125247   0.398   5.868   6.388 -0.7711 -0.2754 -0.4830
 8116SOL    HW225248   0.320   6.009   6.415  1.4453  0.6914  1.2031
 8117SOL     OW25249   2.105   1.588   5.082 -0.0717 -0.5047  0.5612
 8117SOL    HW125250   2.136   1.680   5.107 -0.3306 -0.0751 -0.6035
 8117SOL    HW225251   2.185   1.531   5.061  0.1352 -0.8115  2.0681
 8118SOL     OW25252   6.676   4.302   4.622  0.0047 -0.2089  0.5538
 8118SOL    HW125253   6.744   4.295   4.549  1.6661  0.9108  1.9220
 8118SOL    HW225254   6.611   4.374   4.598  2.8518  3.0524  1.7911
 8119SOL     OW25255   1.283   0.524   3.852 -0.0941 -0.1950  0.0338
 8119SOL    HW125256   1.350   0.522   3.778 -0.1617 -0.7450 -0.0201
 8119SOL    HW225257   1.309   0.593   3.920  0.7827 -0.7236  0.2513
 8120SOL     OW25258   4.131   5.161   0.144 -0.1777  0.8893 -0.1746
 8120SOL    HW125259   4.156   5.132   0.237  0.9236  1.5325 -0.2460
 8120SOL    HW225260   4.040   5.127   0.122 -0.2633  0.3174  0.9632
 8121SOL     OW25261   0.581   6.298   4.083 -0.0046  0.0492  0.7653
 8121SOL    HW125262   0.499   6.253   4.118  0.0905 -0.1101  0.7837
 8121SOL    HW225263   0.594   6.384   4.132 -0.4810  0.3562  0.3605
 8122SOL     OW25264   6.982   5.837   1.780  0.2897 -0.0478  0.0389
 8122SOL    HW125265   6.904   5.794   1.734 -0.0773 -0.5988  1.1503
 8122SOL    HW225266   6.951   5.914   1.834  0.6243  0.1646 -0.0659
 8123SOL     OW25267   0.736   6.740   4.819 -0.5071 -0.4252  0.1250
 8123SOL    HW125268   0.702   6.709   4.907  0.8372 -0.7734  0.5477
 8123SOL    HW225269   0.709   6.675   4.748  1.1686 -1.9523  0.7990
 8124SOL     OW25270   1.630   6.634   3.475 -0.1685  0.3358 -0.3704
 8124SOL    HW125271   1.630   6.613   3.377 -0.1236 -1.1534 -0.0822
 8124SOL    HW225272   1.552   6.693   3.496 -1.8751 -1.6065 -0.8985
 8125SOL     OW25273   6.563   5.698   2.576 -0.3180  0.0647 -0.5864
 8125SOL    HW125274   6.476   5.742   2.600 -0.6577 -0.5449 -0.6740
 8125SOL    HW225275   6.550   5.599   2.570  0.6077 -0.1369  0.3679
 8126SOL     OW25276   0.760   4.389   2.164  0.0321  0.1418  0.1066
 8126SOL    HW125277   0.850   4.422   2.193  0.2492 -1.7365  1.7821
 8126SOL    HW225278   0.693   4.462   2.176  1.2584  1.4939 -0.9557
 8127SOL     OW25279   2.485   4.913   0.567 -0.0365 -0.7972  0.2163
 8127SOL    HW125280   2.446   4.928   0.658  0.6406  2.2617  0.1229
 8127SOL    HW225281   2.414   4.921   0.498 -0.0836 -0.0709  0.3364
 8128SOL     OW25282   5.382   2.420   0.279  0.3278  0.5670  0.1270
 8128SOL    HW125283   5.469   2.374   0.299 -0.9138 -1.6370  0.8769
 8128SOL    HW225284   5.340   2.449   0.365 -1.9743 -3.0340  0.4272
 8129SOL     OW25285   6.176   2.108   5.115 -0.0168  0.1562  0.0087
 8129SOL    HW125286   6.183   2.134   5.211 -0.4188 -0.1886  0.1308
 8129SOL    HW225287   6.266   2.119   5.072  0.5007 -0.9823  0.7475
 8130SOL     OW25288   0.531   6.934   0.276  0.1079 -0.4841 -0.4401
 8130SOL    HW125289   0.615   6.953   0.225  0.3939 -0.3296  0.0888
 8130SOL    HW225290   0.554   6.899   0.367 -0.3973  0.0161 -0.1201
 8131SOL     OW25291   3.199   1.443   5.292 -0.2092 -0.4740  0.5136
 8131SOL    HW125292   3.204   1.486   5.203  0.1514 -0.9001  0.3222
 8131SOL    HW225293   3.252   1.496   5.358 -0.8228  0.0691  0.5725
 8132SOL     OW25294   6.620   4.652   6.441 -0.2350 -0.0095 -0.1069
 8132SOL    HW125295   6.667   4.730   6.483 -0.3086  0.2796 -0.5445
 8132SOL    HW225296   6.676   4.615   6.367 -0.0254 -0.6269  0.3579
 8133SOL     OW25297   3.139   4.951   3.422 -1.2072  0.3951 -0.3304
 8133SOL    HW125298   3.094   4.863   3.406 -3.6829  1.0342  2.1585
 8133SOL    HW225299   3.071   5.024   3.419  0.2925  1.8862  0.3612
 8134SOL     OW25300   2.091   3.279   4.079  0.0113 -0.5030  0.4115
 8134SOL    HW125301   2.086   3.378   4.088 -1.0046 -0.6492  1.7065
 8134SOL    HW225302   2.118   3.238   4.166  0.9438 -1.3388 -0.2472
 8135SOL     OW25303   4.327   5.460   3.233  0.1933  0.5272  0.5671
 8135SOL    HW125304   4.376   5.544   3.208 -1.0696  0.8901 -0.8891
 8135SOL    HW225305   4.229   5.474   3.218 -0.2827 -0.4822  2.5154
 8136SOL     OW25306   2.351   6.137   1.176  1.4627 -0.5762  0.1549
 8136SOL    HW125307   2.334   6.145   1.274  1.4735  0.3858  0.0906
 8136SOL    HW225308   2.313   6.050   1.142 -2.3982  0.8531  0.2389
 8137SOL     OW25309   2.475   1.824   5.783  0.0965 -0.2895 -0.1746
 8137SOL    HW125310   2.377   1.821   5.799  0.2727 -0.2853  0.9703
 8137SOL    HW225311   2.514   1.904   5.829  0.9452 -1.4650  1.2167
 8138SOL     OW25312   6.997   1.909   4.241  0.7944 -0.4954  0.0512
 8138SOL    HW125313   7.027   1.887   4.334 -1.4304 -2.6324  0.3674
 8138SOL    HW225314   6.921   1.973   4.245  0.2198 -1.1421 -0.2066
 8139SOL     OW25315   2.253   2.389   0.165  0.0448  0.2316  0.5591
 8139SOL    HW125316   2.217   2.364   0.076 -1.4854  0.5655  1.0560
 8139SOL    HW225317   2.259   2.308   0.223 -1.1036  0.3533  0.8678
 8140SOL     OW25318   4.970   5.424   1.033  0.1216 -0.5020  0.1414
 8140SOL    HW125319   4.873   5.414   1.056  0.2274 -0.3624  0.6465
 8140SOL    HW225320   4.983   5.405   0.935 -1.1144  3.7055 -1.0412
 8141SOL     OW25321   5.505   0.577   0.200 -0.2007 -0.8279 -0.3058
 8141SOL    HW125322   5.467   0.515   0.132 -0.1682 -2.0109  0.7203
 8141SOL    HW225323   5.441   0.587   0.276 -2.3159  3.9088 -2.2750
 8142SOL     OW25324   0.861   6.189   6.471  0.1143  0.1952 -0.1324
 8142SOL    HW125325   0.959   6.174   6.486  0.2597  0.2945 -0.8906
 8142SOL    HW225326   0.835   6.279   6.506 -0.1589 -0.6403  1.9103
 8143SOL     OW25327   5.674   4.005   1.863 -0.5171 -0.4800  0.4804
 8143SOL    HW125328   5.720   3.920   1.840 -0.6671 -0.6344  0.7415
 8143SOL    HW225329   5.603   4.024   1.795  0.0831 -0.1156 -0.0581
 8144SOL     OW25330   0.530   4.906   6.613 -0.3561 -0.5678  0.5276
 8144SOL    HW125331   0.527   4.866   6.705  1.4640 -2.2759 -0.0948
 8144SOL    HW225332   0.444   4.955   6.596 -1.7228 -2.1905  2.2620
 8145SOL     OW25333   6.350   4.819   0.747 -0.2555  0.0465  0.1787
 8145SOL    HW125334   6.448   4.802   0.758 -0.2142  0.0471 -0.1819
 8145SOL    HW225335   6.302   4.733   0.733 -0.1966  0.1136 -0.4748
 8146SOL     OW25336   5.518   1.716   5.809  0.1208 -0.1003 -0.6117
 8146SOL    HW125337   5.545   1.811   5.795 -0.4802  0.0128 -1.0673
 8146SOL    HW225338   5.474   1.681   5.726 -0.4009 -0.5171 -0.1756
 8147SOL     OW25339   0.183   1.844   5.613 -0.5717  0.2012 -0.1210
 8147SOL    HW125340   0.189   1.766   5.674 -0.0566  0.1567 -0.2264
 8147SOL    HW225341   0.093   1.845   5.568 -1.5168  1.0153  1.6653
 8148SOL     OW25342   5.404   5.554   6.658  0.1515  0.2926 -0.0621
 8148SOL    HW125343   5.329   5.594   6.711 -1.1684 -3.8635  1.6281
 8148SOL    HW225344   5.484   5.543   6.718  0.4552  0.3147 -0.4625
 8149SOL     OW25345   2.241   6.947   5.345  0.7553 -0.0820  0.4724
 8149SOL    HW125346   2.288   6.859   5.338 -1.4518 -1.3045 -0.0480
 8149SOL    HW225347   2.303   7.020   5.318  2.2413 -1.6153 -0.4735
 8150SOL     OW25348   1.410   1.461   0.900 -0.2808  0.0304  0.0858
 8150SOL    HW125349   1.508   1.443   0.897  0.3069  2.8259 -0.3897
 8150SOL    HW225350   1.385   1.523   0.826 -2.2184  0.1567  0.7789
 8151SOL     OW25351   6.513   5.599   4.133  0.2446  0.3322 -0.6259
 8151SOL    HW125352   6.518   5.502   4.156  1.1333  0.2534 -1.1130
 8151SOL    HW225353   6.605   5.633   4.112  0.0545  1.4899  0.3622
 8152SOL     OW25354   4.153   1.327   4.410  0.4498 -0.8747 -0.3436
 8152SOL    HW125355   4.241   1.331   4.458  0.3063 -1.3389 -0.0369
 8152SOL    HW225356   4.167   1.347   4.313  1.0101 -1.6552 -0.4363
 8153SOL     OW25357   0.687   0.862   1.392 -0.0809  0.1708  0.0869
 8153SOL    HW125358   0.698   0.785   1.329  0.5572  0.2080  0.1452
 8153SOL    HW225359   0.732   0.942   1.355  0.0701  0.2638  0.4713
 8154SOL     OW25360   2.666   1.143   3.858  0.4205  0.2960  0.2845
 8154SOL    HW125361   2.692   1.095   3.942  0.3647  0.6969  0.5339
 8154SOL    HW225362   2.588   1.203   3.876  0.3352  0.2962 -0.0803
 8155SOL     OW25363   1.978   4.787   2.616 -0.1027 -0.3169  0.2117
 8155SOL    HW125364   1.926   4.841   2.682  0.3784 -1.4866  1.6193
 8155SOL    HW225365   1.926   4.706   2.591  0.2988 -0.6036  0.2820
 8156SOL     OW25366   6.432   3.605   1.344 -0.2206  0.2453  0.8712
 8156SOL    HW125367   6.465   3.686   1.391  1.1669  0.2534 -0.0531
 8156SOL    HW225368   6.339   3.621   1.309 -0.2012  1.1942  1.2406
 8157SOL     OW25369   0.264   2.147   6.566 -0.0922  0.4542 -0.2898
 8157SOL    HW125370   0.251   2.126   6.469  0.8154 -1.0613 -0.1157
 8157SOL    HW225371   0.174   2.159   6.610 -0.5508  0.0107 -1.0846
 8158SOL     OW25372   4.933   4.440   5.930 -0.0429  0.2247 -0.5519
 8158SOL    HW125373   4.991   4.521   5.922  0.9801 -0.6486 -4.0689
 8158SOL    HW225374   4.845   4.466   5.970  2.1587  1.8063  3.9364
 8159SOL     OW25375   1.639   5.345   4.239  0.2161  0.5489 -0.1722
 8159SOL    HW125376   1.610   5.367   4.146  0.0776  1.7779  0.1383
 8159SOL    HW225377   1.710   5.275   4.236 -1.4762 -1.2421 -1.0438
 8160SOL     OW25378   6.253   6.593   0.788 -0.2271 -0.2476 -0.5019
 8160SOL    HW125379   6.178   6.571   0.850 -0.7269  2.4966 -0.0207
 8160SOL    HW225380   6.215   6.611   0.697  0.2612 -1.9561 -1.0897
 8161SOL     OW25381   5.555   1.331   6.127 -0.1865 -0.1525 -1.1092
 8161SOL    HW125382   5.580   1.422   6.092 -1.1010 -0.1508 -1.7781
 8161SOL    HW225383   5.638   1.275   6.136  0.1421  0.0307 -2.7486
 8162SOL     OW25384   0.518   6.712   6.626 -0.3955  0.7170 -0.0887
 8162SOL    HW125385   0.589   6.695   6.695  0.5889  1.3833 -0.9168
 8162SOL    HW225386   0.550   6.679   6.537 -1.2736  0.7185 -0.4100
 8163SOL     OW25387   5.217   4.866   5.966  0.3140  0.0673  0.3757
 8163SOL    HW125388   5.248   4.935   5.901 -1.2219  0.5789  0.1624
 8163SOL    HW225389   5.191   4.910   6.052 -1.7220 -0.0647 -0.1232
 8164SOL     OW25390   6.816   0.206   0.042  0.0627 -0.2290  0.2212
 8164SOL    HW125391   6.839   0.256  -0.041 -1.4847 -0.8885 -0.6512
 8164SOL    HW225392   6.721   0.226   0.068  0.0010 -1.2876  0.8837
 8165SOL     OW25393   1.502   2.792   0.761 -0.5725  0.5423 -0.1133
 8165SOL    HW125394   1.547   2.834   0.840 -1.0321 -1.0509  1.0653
 8165SOL    HW225395   1.467   2.702   0.788  2.8358 -1.9763 -3.1600
 8166SOL     OW25396   1.313   1.814   4.568 -0.2830  0.1696  0.3157
 8166SOL    HW125397   1.237   1.768   4.522 -0.4040 -0.5336  1.1806
 8166SOL    HW225398   1.278   1.896   4.613 -0.9316 -1.0198  2.1125
 8167SOL     OW25399   5.615   1.220   5.481 -0.6202 -0.0464 -0.5282
 8167SOL    HW125400   5.712   1.218   5.456 -0.7858 -1.1555 -1.1970
 8167SOL    HW225401   5.572   1.135   5.451 -2.3662  1.4492 -2.5820
 8168SOL     OW25402   3.023   6.688   6.458  0.3960  0.1832 -0.2919
 8168SOL    HW125403   3.014   6.759   6.529  1.1248  0.6126 -0.6182
 8168SOL    HW225404   2.998   6.726   6.369 -0.4189 -0.3292 -0.2962
 8169SOL     OW25405   4.643   4.088   1.363 -0.1203 -0.1904  0.0948
 8169SOL    HW125406   4.554   4.132   1.375  0.1190  0.3078  0.0413
 8169SOL    HW225407   4.642   4.032   1.280  0.1653  1.2056 -0.8860
 8170SOL     OW25408   1.545   4.057   2.317 -0.2817  0.1890 -0.2990
 8170SOL    HW125409   1.610   4.064   2.242 -0.6882  2.5688 -0.5081
 8170SOL    HW225410   1.593   4.075   2.404 -0.1518 -0.8405 -0.1435
 8171SOL     OW25411   1.427   2.192   6.463 -0.2162  0.4294 -0.1449
 8171SOL    HW125412   1.507   2.157   6.415 -0.0058 -0.4390  0.8004
 8171SOL    HW225413   1.354   2.212   6.397  0.1355 -0.5093 -0.8311
 8172SOL     OW25414   2.093   3.714   3.948  1.1035  0.1872  0.3946
 8172SOL    HW125415   2.138   3.655   4.015 -0.6287  0.2485  1.6770
 8172SOL    HW225416   2.089   3.668   3.860  0.5874 -1.2705  1.1487
 8173SOL     OW25417   5.451   1.784   2.454 -0.4406 -0.0515  0.2011
 8173SOL    HW125418   5.480   1.802   2.548  1.0263 -0.3938 -0.1650
 8173SOL    HW225419   5.528   1.748   2.402 -1.0189  0.8594 -1.3493
 8174SOL     OW25420   2.195   6.215   5.123 -0.3109  0.0750 -0.1856
 8174SOL    HW125421   2.144   6.179   5.045  0.0995 -1.4962  0.2403
 8174SOL    HW225422   2.210   6.142   5.190  2.0259  0.6120 -0.0472
 8175SOL     OW25423   6.739   4.609   5.409  1.0611 -0.2975 -0.6796
 8175SOL    HW125424   6.672   4.683   5.402  1.0182 -0.3428 -0.7562
 8175SOL    HW225425   6.751   4.567   5.319  2.0683  0.4723 -0.9204
 8176SOL     OW25426   1.045   4.757   0.188 -0.5805  0.3082 -0.2137
 8176SOL    HW125427   0.978   4.767   0.261  0.1423  0.0860  0.4944
 8176SOL    HW225428   1.134   4.735   0.227 -0.1060  0.5169 -1.1435
 8177SOL     OW25429   3.790   1.709   2.787  0.0083 -0.9993 -0.3053
 8177SOL    HW125430   3.872   1.766   2.783  0.9696 -2.3409 -0.6397
 8177SOL    HW225431   3.712   1.760   2.751  0.3062  0.8938  1.5427
 8178SOL     OW25432   1.011   6.402   0.083 -0.0144 -0.6126  0.5015
 8178SOL    HW125433   1.099   6.390   0.130  0.7217  1.1444 -0.3536
 8178SOL    HW225434   0.943   6.433   0.148  0.1576 -1.2924  1.0272
 8179SOL     OW25435   6.623   1.228   3.014 -0.1540 -0.0115  0.3109
 8179SOL    HW125436   6.579   1.163   2.952  0.3301  1.0493 -1.1820
 8179SOL    HW225437   6.703   1.184   3.056 -0.6875 -0.8500  0.4876
 8180SOL     OW25438   6.269   5.813   0.048  0.3874  0.1542  0.6640
 8180SOL    HW125439   6.189   5.821   0.107 -1.4660  0.7235 -1.7415
 8180SOL    HW225440   6.310   5.904   0.035  0.0378  0.2411  0.1349
 8181SOL     OW25441   3.101   1.300   1.076  0.1159 -0.4404 -0.0233
 8181SOL    HW125442   3.100   1.349   0.989  2.8305 -1.6765 -0.8579
 8181SOL    HW225443   3.119   1.203   1.059 -2.6966 -1.4041  1.7420
 8182SOL     OW25444   1.036   2.623   6.244 -0.2090  0.2042  0.2966
 8182SOL    HW125445   1.094   2.652   6.320  0.5524  2.2461 -0.9845
 8182SOL    HW225446   1.047   2.686   6.167 -1.6852 -1.2327 -1.1852
 8183SOL     OW25447   6.752   6.958   5.485 -0.4496 -0.1502  0.2999
 8183SOL    HW125448   6.751   6.893   5.409 -1.2307 -1.1141  1.1100
 8183SOL    HW225449   6.846   6.970   5.518 -0.3264 -1.0952  0.3196
 8184SOL     OW25450   0.866   4.187   1.402  0.4217  0.3310 -0.1068
 8184SOL    HW125451   0.785   4.141   1.437 -0.1399  0.8505 -0.7104
 8184SOL    HW225452   0.948   4.139   1.434 -0.1223 -0.3049  0.3486
 8185SOL     OW25453   6.989   6.250   0.032 -0.3169  0.9361 -0.1411
 8185SOL    HW125454   7.068   6.264  -0.027 -0.7207  0.8420 -0.7210
 8185SOL    HW225455   6.999   6.164   0.082 -1.2467 -0.4926 -2.2402
 8186SOL     OW25456   6.389   4.924   6.362  0.1685  0.3439 -0.8311
 8186SOL    HW125457   6.369   4.874   6.446 -0.2275  1.1739 -0.4174
 8186SOL    HW225458   6.361   4.870   6.283 -2.9139  1.0164 -0.3258
 8187SOL     OW25459   2.655   0.687   6.456  0.0804 -0.1750 -0.1674
 8187SOL    HW125460   2.588   0.731   6.396  0.3734  1.1787  0.4700
 8187SOL    HW225461   2.607   0.640   6.530 -0.3111 -2.1866 -1.5858
 8188SOL     OW25462   2.548   2.553   3.499 -0.6069  0.1701 -0.0527
 8188SOL    HW125463   2.614   2.560   3.424 -0.2137 -0.4297  0.2300
 8188SOL    HW225464   2.590   2.507   3.577 -1.1519  0.3863  0.3784
 8189SOL     OW25465   4.585   4.581   5.027 -0.0429  0.4647  0.0188
 8189SOL    HW125466   4.486   4.581   5.034  0.0038 -0.7132  0.9660
 8189SOL    HW225467   4.616   4.667   4.985 -1.3427  1.6573  1.3839
 8190SOL     OW25468   5.794   3.400   2.166 -0.1965 -0.0971 -0.3406
 8190SOL    HW125469   5.821   3.338   2.240 -0.8580  0.6347  0.5363
 8190SOL    HW225470   5.810   3.355   2.078  1.2932 -0.7245  0.2003
 8191SOL     OW25471   4.951   5.400   1.953  0.8462  0.4524 -0.0986
 8191SOL    HW125472   4.876   5.407   2.019 -0.7580  2.5981 -1.9672
 8191SOL    HW225473   5.035   5.435   1.994  0.1456  0.7422  1.1475
 8192SOL     OW25474   0.863   4.547   3.669 -0.0147  0.0186 -0.3620
 8192SOL    HW125475   0.769   4.530   3.700  0.3644 -1.0918  0.2202
 8192SOL    HW225476   0.914   4.461   3.668  0.2532  0.1049 -3.3004
 8193SOL     OW25477   0.691   5.361   5.529 -0.1271 -0.0574  0.9283
 8193SOL    HW125478   0.676   5.442   5.472 -3.7177  0.1878  1.9361
 8193SOL    HW225479   0.725   5.389   5.618 -3.1383  0.7716  1.9557
 8194SOL     OW25480   3.298   0.188   1.394  0.2354 -0.3174  0.1268
 8194SOL    HW125481   3.244   0.234   1.323  1.3752  0.6394 -0.1575
 8194SOL    HW225482   3.275   0.227   1.483 -1.6757 -1.9659  0.4272
 8195SOL     OW25483   0.339   0.789   3.315  0.3396 -0.8665  0.1879
 8195SOL    HW125484   0.311   0.785   3.410  0.2496  0.6184  0.2370
 8195SOL    HW225485   0.437   0.771   3.308  0.4517 -0.4380  0.6266
 8196SOL     OW25486   3.726   1.412   1.309 -0.0479  0.3806 -0.2572
 8196SOL    HW125487   3.740   1.455   1.219  0.3691  1.1495  0.1584
 8196SOL    HW225488   3.759   1.474   1.380  0.5526 -0.6313  0.3730
 8197SOL     OW25489   4.869   2.538   0.803 -0.3241  0.2572 -1.1004
 8197SOL    HW125490   4.857   2.593   0.721 -1.7662  0.4236 -0.8064
 8197SOL    HW225491   4.927   2.587   0.868  1.6654 -0.2981 -2.3697
 8198SOL     OW25492   1.089   6.360   2.178  0.0780  0.4399  0.0512
 8198SOL    HW125493   1.016   6.293   2.173  0.5498 -0.0254 -0.8872
 8198SOL    HW225494   1.050   6.452   2.180 -0.5840  0.1631  1.6272
 8199SOL     OW25495   4.492   2.301   0.232 -0.3999  0.0274  1.0661
 8199SOL    HW125496   4.511   2.270   0.325 -2.0627  1.0957  1.7970
 8199SOL    HW225497   4.395   2.288   0.211 -0.5531  1.9832  0.3559
 8200SOL     OW25498   6.219   2.573   1.438 -0.1285  0.0778  0.2280
 8200SOL    HW125499   6.286   2.507   1.473 -0.3208 -1.0115 -1.3671
 8200SOL    HW225500   6.252   2.666   1.454  0.5908 -0.3917  1.6582
 8201SOL     OW25501   1.305   6.710   5.788 -0.4198  0.1185  0.6432
 8201SOL    HW125502   1.365   6.657   5.727 -0.9740 -0.0568  0.2340
 8201SOL    HW225503   1.223   6.737   5.737 -0.1602  1.3411  0.8675
 8202SOL     OW25504   0.504   6.200   2.587  0.3907 -0.3303  0.3462
 8202SOL    HW125505   0.414   6.172   2.619 -0.6000  0.0466 -1.9031
 8202SOL    HW225506   0.495   6.243   2.497  2.7661  0.2036  0.3084
 8203SOL     OW25507   2.094   3.704   6.166 -0.2970 -0.2962 -0.1169
 8203SOL    HW125508   2.056   3.616   6.193 -0.2636 -0.2248  0.1751
 8203SOL    HW225509   2.129   3.751   6.248  0.3478 -0.3303 -0.3744
 8204SOL     OW25510   4.105   3.555   1.466  0.2495  0.4816  0.1465
 8204SOL    HW125511   4.016   3.517   1.439 -1.1887  3.3411  0.4741
 8204SOL    HW225512   4.177   3.514   1.411 -1.2883 -1.6115 -0.4395
 8205SOL     OW25513   1.419   3.223   1.510 -0.5966  0.0876  0.6335
 8205SOL    HW125514   1.438   3.141   1.564  0.8849 -0.0669 -0.0608
 8205SOL    HW225515   1.464   3.302   1.553 -1.2079  0.3613  0.7766
 8206SOL     OW25516   2.886   1.815   0.756  0.2007  0.0954 -0.5196
 8206SOL    HW125517   2.907   1.736   0.815  1.1842 -0.7881 -1.9908
 8206SOL    HW225518   2.817   1.872   0.801 -0.7366 -1.7231  0.4894
 8207SOL     OW25519   3.606   2.878   5.838  0.0305  0.2741  0.7385
 8207SOL    HW125520   3.615   2.807   5.907  0.0832  2.2649  2.9192
 8207SOL    HW225521   3.694   2.892   5.792  0.6418  0.4169  1.8984
 8208SOL     OW25522   0.475   0.890   1.556 -0.0983 -0.9767 -0.0105
 8208SOL    HW125523   0.513   0.977   1.588 -0.0623 -0.5036 -1.2423
 8208SOL    HW225524   0.541   0.844   1.497 -0.7220 -1.0207 -0.7038
 8209SOL     OW25525   0.694   7.012   4.109  0.0963  0.1543 -0.2195
 8209SOL    HW125526   0.742   6.925   4.125 -0.1680 -0.4621 -2.3651
 8209SOL    HW225527   0.745   7.087   4.151  0.2846 -1.0186  1.7656
 8210SOL     OW25528   2.128   4.342   1.850  0.1277  0.0207  0.1231
 8210SOL    HW125529   2.217   4.322   1.807 -0.2964  2.0146 -1.8639
 8210SOL    HW225530   2.107   4.439   1.840 -1.2034  0.0941  2.7626
 8211SOL     OW25531   3.538   3.122   0.047  0.0864  0.4120  0.6289
 8211SOL    HW125532   3.605   3.056   0.083 -0.7502 -1.8274 -1.6474
 8211SOL    HW225533   3.584   3.182  -0.018  0.6715  1.6429  2.1009
 8212SOL     OW25534   0.854   1.232   3.103 -0.0811  0.1375 -0.1799
 8212SOL    HW125535   0.812   1.221   3.013 -1.2013  0.2342  0.3092
 8212SOL    HW225536   0.843   1.148   3.155 -1.9949  0.9792  0.8704
 8213SOL     OW25537   6.860   5.314   1.639 -0.0696  0.7258 -0.3824
 8213SOL    HW125538   6.926   5.296   1.711 -0.2823  1.6953  0.0774
 8213SOL    HW225539   6.908   5.343   1.556  0.0958  1.4881 -0.0312
 8214SOL     OW25540   5.127   3.698   4.184 -0.4173 -0.6840 -0.4637
 8214SOL    HW125541   5.195   3.750   4.236  0.2117  0.6634 -2.5248
 8214SOL    HW225542   5.118   3.606   4.224 -0.8904  0.6241  2.7292
 8215SOL     OW25543   4.860   5.845   5.509  0.3906  0.1718 -0.2676
 8215SOL    HW125544   4.952   5.806   5.518  0.1272 -0.1264  1.2458
 8215SOL    HW225545   4.794   5.787   5.557 -0.0661  2.2328  1.7338
 8216SOL     OW25546   5.563   2.896   5.123  0.0061  0.3231  0.4769
 8216SOL    HW125547   5.585   2.845   5.206  1.0656  0.3155  0.2067
 8216SOL    HW225548   5.468   2.925   5.126 -1.0878 -2.8358  0.0383
 8217SOL     OW25549   0.443   5.732   0.591 -0.3456  0.1339  0.0479
 8217SOL    HW125550   0.345   5.712   0.598 -0.5083 -0.4390 -2.6857
 8217SOL    HW225551   0.466   5.808   0.651 -2.0378 -0.9307  2.2026
 8218SOL     OW25552   0.385   0.863   6.921 -0.3774  0.0476 -0.1425
 8218SOL    HW125553   0.472   0.897   6.884  0.9518  0.1187  2.7504
 8218SOL    HW225554   0.351   0.789   6.863  0.7398  1.0824 -2.2349
 8219SOL     OW25555   3.393   1.173   1.051 -0.2281 -0.1650 -0.2828
 8219SOL    HW125556   3.384   1.254   1.109 -0.5307  0.0950 -0.6803
 8219SOL    HW225557   3.437   1.099   1.102 -1.9195 -0.4772  0.8047
 8220SOL     OW25558   3.968   3.923   2.459  0.0379 -0.3144 -0.2619
 8220SOL    HW125559   3.979   4.009   2.408  0.2465 -0.1515  0.0524
 8220SOL    HW225560   3.954   3.944   2.556 -0.2182 -0.6269 -0.2322
 8221SOL     OW25561   5.095   0.664   3.586  0.3077 -0.0395  0.3396
 8221SOL    HW125562   4.999   0.657   3.562  0.3400  0.2489  0.1201
 8221SOL    HW225563   5.106   0.730   3.661  0.5342  1.3848 -0.9127
 8222SOL     OW25564   4.411   1.746   1.108  0.4499  0.7489  0.4830
 8222SOL    HW125565   4.379   1.671   1.166 -0.1486  0.3913 -0.2857
 8222SOL    HW225566   4.350   1.825   1.119  1.4144  1.3497  1.7314
 8223SOL     OW25567   6.626   5.172   5.914  1.0870 -0.2747  0.3615
 8223SOL    HW125568   6.717   5.130   5.915  0.7291 -1.1095 -0.7292
 8223SOL    HW225569   6.591   5.174   5.821 -0.3955 -0.7845  0.8810
 8224SOL     OW25570   0.510   1.476   3.548  0.4708  0.2410 -0.2658
 8224SOL    HW125571   0.443   1.530   3.497  0.4904 -0.4543 -1.0367
 8224SOL    HW225572   0.550   1.533   3.620 -0.9153  0.6781  0.1893
 8225SOL     OW25573   3.693   6.442   5.930 -0.6557 -0.4034  0.4345
 8225SOL    HW125574   3.624   6.474   5.994  1.6155  1.6661  2.0162
 8225SOL    HW225575   3.751   6.518   5.902 -0.9080 -1.4006 -3.4324
 8226SOL     OW25576   4.866   0.951   1.242 -0.4280 -0.1275  0.2640
 8226SOL    HW125577   4.829   1.036   1.280 -1.5361 -0.2526 -0.4997
 8226SOL    HW225578   4.912   0.900   1.314 -1.8398 -0.0078  1.2939
 8227SOL     OW25579   5.799   1.444   5.299  0.0404  0.3945 -0.1951
 8227SOL    HW125580   5.856   1.454   5.218  1.1917 -1.3132  0.3301
 8227SOL    HW225581   5.856   1.452   5.381 -0.6007 -0.4689  0.3645
 8228SOL     OW25582   0.041   3.078   3.946  0.0487 -0.5900 -0.2505
 8228SOL    HW125583   0.074   3.101   4.037 -0.3891  0.1739 -0.2687
 8228SOL    HW225584   0.043   2.979   3.933 -0.1536 -0.7257  0.6902
 8229SOL     OW25585   1.961   5.042   1.147  0.0317 -0.5509  0.3161
 8229SOL    HW125586   2.055   5.072   1.135 -0.1367  0.1731  0.6818
 8229SOL    HW225587   1.929   4.995   1.064  0.8282 -1.1408  0.3402
 8230SOL     OW25588   5.175   1.374   3.664  0.4409 -0.1287  0.0140
 8230SOL    HW125589   5.237   1.325   3.603  2.5229  0.6785  1.3757
 8230SOL    HW225590   5.124   1.443   3.612 -1.1005 -2.3163 -1.5466
 8231SOL     OW25591   3.987   5.070   1.387 -0.1415  0.1837 -0.3348
 8231SOL    HW125592   3.927   5.029   1.456  0.2739 -0.9266 -0.6052
 8231SOL    HW225593   4.069   5.013   1.377  1.5117  2.1928  0.7949
 8232SOL     OW25594   4.778   6.875   0.416 -0.1066 -0.3821  0.3529
 8232SOL    HW125595   4.871   6.845   0.437 -0.4016 -1.1290  0.6242
 8232SOL    HW225596   4.782   6.954   0.355  0.6914 -1.5534 -1.2061
 8233SOL     OW25597   0.708   0.569   5.330 -0.6279 -0.3033  0.1780
 8233SOL    HW125598   0.658   0.541   5.413 -1.7694  0.9296 -0.0421
 8233SOL    HW225599   0.666   0.526   5.250 -0.1381 -0.7309  0.1470
 8234SOL     OW25600   3.374   3.385   0.841  0.1236 -0.2103 -0.0397
 8234SOL    HW125601   3.441   3.347   0.777 -0.1868 -1.6183  0.4179
 8234SOL    HW225602   3.371   3.484   0.832  2.1571 -0.1210 -0.1893
 8235SOL     OW25603   2.433   3.592   1.306 -0.4073 -0.1865  0.1838
 8235SOL    HW125604   2.349   3.539   1.292 -0.5521 -0.6341  2.3306
 8235SOL    HW225605   2.409   3.686   1.329 -0.3132 -0.2101  0.3813
 8236SOL     OW25606   6.636   5.472   0.613  0.5369 -0.0325 -0.6652
 8236SOL    HW125607   6.676   5.467   0.522 -0.5503 -0.2780 -1.1440
 8236SOL    HW225608   6.575   5.394   0.627  0.4221  0.1927  0.1427
 8237SOL     OW25609   5.554   5.935   3.714 -0.1062  0.1952 -0.4250
 8237SOL    HW125610   5.577   5.852   3.765  0.7602 -1.2010 -2.9044
 8237SOL    HW225611   5.637   5.976   3.677 -0.6958  1.0765 -0.7996
 8238SOL     OW25612   1.498   4.106   6.425  0.3876 -0.2944  0.4229
 8238SOL    HW125613   1.503   4.163   6.343  1.1996  0.2017  0.8089
 8238SOL    HW225614   1.417   4.047   6.420 -1.8215  2.4919  1.0519
 8239SOL     OW25615   5.867   1.743   6.641  0.3851 -0.2018  0.1655
 8239SOL    HW125616   5.935   1.689   6.690 -1.2568 -1.7813  0.8432
 8239SOL    HW225617   5.852   1.830   6.688  2.6000  0.6433 -0.5739
 8240SOL     OW25618   4.060   3.658   3.532 -0.2730  0.4415 -0.1398
 8240SOL    HW125619   4.023   3.749   3.517 -0.1701  0.2361 -1.8178
 8240SOL    HW225620   4.032   3.598   3.457  0.4411 -0.6645  0.4544
 8241SOL     OW25621   3.326   4.756   0.757 -0.6923 -0.3120  0.1021
 8241SOL    HW125622   3.301   4.778   0.663 -0.6542 -0.1410  0.1317
 8241SOL    HW225623   3.373   4.834   0.798  0.2970 -0.7806 -0.0999
 8242SOL     OW25624   0.141   5.908   4.741 -0.5008 -0.3659  0.1419
 8242SOL    HW125625   0.049   5.934   4.768 -0.6761 -1.0981  0.2573
 8242SOL    HW225626   0.167   5.957   4.657 -1.2120 -0.5882 -0.2118
 8243SOL     OW25627   4.636   3.131   5.581  0.6330 -0.2855  0.1179
 8243SOL    HW125628   4.651   3.111   5.484 -1.9475  2.7369 -1.0985
 8243SOL    HW225629   4.539   3.154   5.595  1.4233  1.8333  2.8816
 8244SOL     OW25630   5.317   1.887   5.001 -0.2616  0.0261  0.0025
 8244SOL    HW125631   5.290   1.829   5.077  0.0285  0.4000  0.3935
 8244SOL    HW225632   5.410   1.864   4.972  0.4635  1.3263  1.1840
 8245SOL     OW25633   5.911   1.841   2.160  0.1211  0.8017  0.0074
 8245SOL    HW125634   5.963   1.821   2.077 -0.7232  0.5326 -0.4645
 8245SOL    HW225635   5.913   1.939   2.179 -1.8836  1.2799 -1.8451
 8246SOL     OW25636   5.774   3.527   5.088  0.0338  0.0764 -0.2476
 8246SOL    HW125637   5.698   3.463   5.080  0.1274  0.1278 -2.0449
 8246SOL    HW225638   5.849   3.485   5.140 -1.3977  0.2542  2.1177
 8247SOL     OW25639   1.696   0.158   0.364  0.5721  0.6761 -0.6317
 8247SOL    HW125640   1.632   0.146   0.440  0.0920 -1.9422 -1.3487
 8247SOL    HW225641   1.672   0.241   0.313 -1.2213  0.6685  0.1194
 8248SOL     OW25642   6.958   4.857   3.596  0.4004 -1.0043  0.0886
 8248SOL    HW125643   6.899   4.882   3.673 -0.1531 -0.8857 -0.3744
 8248SOL    HW225644   6.948   4.759   3.577  1.3863 -1.2839  0.8827
 8249SOL     OW25645   0.743   3.828   4.360  0.5532  0.0979 -0.2339
 8249SOL    HW125646   0.743   3.732   4.390 -0.5792  0.0200 -0.4293
 8249SOL    HW225647   0.806   3.880   4.417 -0.7724 -0.2523  1.6754
 8250SOL     OW25648   3.279   3.362   3.086  0.1511  0.6749 -0.0094
 8250SOL    HW125649   3.240   3.444   3.044 -0.6429  0.6292  0.6121
 8250SOL    HW225650   3.353   3.327   3.029 -1.6207 -0.0422 -1.9998
 8251SOL     OW25651   4.603   2.041   6.179 -0.1949  0.1361 -0.2797
 8251SOL    HW125652   4.676   2.026   6.113  0.8295  2.4730  0.2381
 8251SOL    HW225653   4.614   2.130   6.222 -1.2019 -0.9870  2.5717
 8252SOL     OW25654   3.017   5.014   5.693 -0.0029  0.4339  0.1073
 8252SOL    HW125655   2.959   5.032   5.614  1.3995  0.6800 -0.9078
 8252SOL    HW225656   3.086   4.946   5.669  1.7318  1.9938  0.4443
 8253SOL     OW25657   4.748   5.624   5.605 -0.6223 -0.0850  0.0699
 8253SOL    HW125658   4.756   5.575   5.519  0.6492  0.9045 -0.4159
 8253SOL    HW225659   4.716   5.562   5.677  2.2059 -2.0382 -0.1923
 8254SOL     OW25660   3.181   4.844   5.093  0.2200  0.1803  0.5027
 8254SOL    HW125661   3.281   4.850   5.089  0.4592 -2.6636  0.4617
 8254SOL    HW225662   3.155   4.758   5.136 -2.2548  0.8640  0.5038
 8255SOL     OW25663   3.167   0.064   4.166 -0.6279 -0.2871  0.1333
 8255SOL    HW125664   3.233   0.115   4.111  0.5476 -0.1521  1.5845
 8255SOL    HW225665   3.128  -0.010   4.111  0.8458 -0.4644 -0.7487
 8256SOL     OW25666   6.413   6.574   5.087  0.5695 -0.0044 -0.4503
 8256SOL    HW125667   6.327   6.547   5.043 -0.5464  0.6488  1.2013
 8256SOL    HW225668   6.483   6.590   5.017 -0.6668 -0.4526 -1.8480
 8257SOL     OW25669   6.918   4.036   4.075 -0.0276 -0.1501 -0.3985
 8257SOL    HW125670   7.012   4.063   4.098  0.7797 -1.9543 -1.4111
 8257SOL    HW225671   6.879   4.103   4.011  1.5092 -0.7060 -1.9826
 8258SOL     OW25672   1.949   1.859   0.097 -0.1318  0.0474 -0.3112
 8258SOL    HW125673   1.895   1.804   0.160  0.0417 -0.0191 -0.2177
 8258SOL    HW225674   1.967   1.949   0.138  0.0218 -0.0130 -0.2423
 8259SOL     OW25675   5.415   2.105   2.895 -0.0902  0.0989  0.3073
 8259SOL    HW125676   5.509   2.101   2.928 -0.0638 -0.0308  0.2161
 8259SOL    HW225677   5.412   2.153   2.808 -0.3639  1.8489  1.2359
 8260SOL     OW25678   3.290   5.834   1.616  0.6770  0.1396  0.0551
 8260SOL    HW125679   3.290   5.740   1.582 -0.6098  0.1402 -0.0226
 8260SOL    HW225680   3.378   5.877   1.596  1.0657 -0.8561 -0.4452
 8261SOL     OW25681   5.668   1.955   1.301  0.2964  0.0947 -0.0860
 8261SOL    HW125682   5.606   1.944   1.379 -0.4413 -3.0988 -0.9656
 8261SOL    HW225683   5.762   1.967   1.335  0.0337 -1.4923  1.3717
 8262SOL     OW25684   0.810   2.367   1.327  0.1150 -0.3014  0.4177
 8262SOL    HW125685   0.786   2.430   1.253 -0.8818 -1.1460 -0.0036
 8262SOL    HW225686   0.904   2.384   1.356  1.2291 -1.2432 -2.3659
 8263SOL     OW25687   6.094   3.403   1.273  0.3204  0.3749 -0.1823
 8263SOL    HW125688   6.029   3.388   1.199  0.2747 -1.5228  0.1654
 8263SOL    HW225689   6.133   3.494   1.266 -1.5496  1.1716 -1.0415
 8264SOL     OW25690   2.115   4.932   3.508 -0.3200 -0.4117 -0.0581
 8264SOL    HW125691   2.183   4.999   3.480  0.5113 -1.5899 -0.9795
 8264SOL    HW225692   2.104   4.935   3.607  2.2459 -1.2076  0.3214
 8265SOL     OW25693   1.058   6.677   0.277  0.0105  0.0997 -0.7815
 8265SOL    HW125694   0.979   6.687   0.338 -0.1451  0.2060 -1.0003
 8265SOL    HW225695   1.081   6.579   0.268  0.2546  0.1061 -0.2759
 8266SOL     OW25696   6.349   0.967   4.293  0.3984  0.0779  0.8660
 8266SOL    HW125697   6.307   1.057   4.296 -1.1883 -0.5683 -0.6442
 8266SOL    HW225698   6.377   0.946   4.200 -0.1156 -1.3494  1.0034
 8267SOL     OW25699   2.024   2.746   2.949 -0.8046 -0.3059 -0.3606
 8267SOL    HW125700   2.111   2.769   2.908  0.1081  0.9330  2.0735
 8267SOL    HW225701   1.951   2.798   2.905 -0.3653 -1.3071 -2.3759
 8268SOL     OW25702   1.007   4.893   4.704  0.1533 -0.1919 -0.2063
 8268SOL    HW125703   1.100   4.862   4.725 -0.0534 -0.6788  0.0092
 8268SOL    HW225704   1.010   4.987   4.669  0.5487  0.6088  1.8457
 8269SOL     OW25705   5.856   1.424   2.262 -0.6211 -0.0526  0.1010
 8269SOL    HW125706   5.954   1.437   2.282 -0.3602  0.5066 -1.4359
 8269SOL    HW225707   5.830   1.482   2.185 -2.1682 -0.2406  0.4605
 8270SOL     OW25708   1.653   4.807   5.510 -0.2610  0.2155 -0.1811
 8270SOL    HW125709   1.700   4.736   5.562 -0.4243 -0.7604 -1.3306
 8270SOL    HW225710   1.616   4.876   5.573  0.0264 -0.6369  0.9407
 8271SOL     OW25711   0.298   1.773   2.318  0.5282 -0.5895 -0.2894
 8271SOL    HW125712   0.345   1.724   2.245 -0.0592  0.5078 -1.4364
 8271SOL    HW225713   0.365   1.827   2.370  0.9057 -1.1276 -0.2078
 8272SOL     OW25714   5.462   2.101   2.418  0.1350  0.0881  0.0109
 8272SOL    HW125715   5.538   2.128   2.477 -0.2507 -0.5266  0.8013
 8272SOL    HW225716   5.484   2.015   2.372  0.6561  0.8264 -1.1892
 8273SOL     OW25717   0.802   5.007   6.186  0.0344 -0.0187 -0.3126
 8273SOL    HW125718   0.802   4.969   6.278  0.6418 -1.3089 -0.8226
 8273SOL    HW225719   0.894   5.002   6.147 -0.3109  0.0656 -1.1704
 8274SOL     OW25720   4.844   5.397   2.208  0.4241  0.0003  0.4791
 8274SOL    HW125721   4.939   5.372   2.224  1.0647  1.5825 -0.6489
 8274SOL    HW225722   4.785   5.318   2.230  2.1619 -1.8902 -1.1789
 8275SOL     OW25723   5.018   1.867   5.309  0.0064 -0.2092  0.0791
 8275SOL    HW125724   5.072   1.782   5.310  2.0204  1.0004 -0.0420
 8275SOL    HW225725   5.039   1.920   5.391 -1.7139 -0.0618  0.4684
 8276SOL     OW25726   1.445   6.721   3.795 -0.2213 -0.1793 -0.2454
 8276SOL    HW125727   1.380   6.783   3.838 -0.1187 -0.0187 -0.3170
 8276SOL    HW225728   1.475   6.652   3.861 -0.9418 -0.6436 -0.3937
 8277SOL     OW25729   0.752   2.274   0.326 -0.2336  0.1469 -0.4292
 8277SOL    HW125730   0.748   2.196   0.389 -0.9709  1.4576  1.2327
 8277SOL    HW225731   0.768   2.241   0.233  0.4103 -1.9033  0.3523
 8278SOL     OW25732   1.196   4.173   0.937  0.3903  0.4030  0.2131
 8278SOL    HW125733   1.253   4.250   0.908 -0.0523  1.5141  2.1037
 8278SOL    HW225734   1.253   4.105   0.984  0.5731  0.1906 -0.3075
 8279SOL     OW25735   6.091   0.145   4.549  1.2229  0.2302  0.2357
 8279SOL    HW125736   6.072   0.057   4.593  0.6934 -0.4268 -1.2342
 8279SOL    HW225737   6.176   0.138   4.497  1.7771  0.9561  1.0194
 8280SOL     OW25738   2.122   2.939   6.678 -0.9347 -0.4005 -0.1398
 8280SOL    HW125739   2.170   2.977   6.599 -2.2926  0.3252 -0.6490
 8280SOL    HW225740   2.029   2.975   6.681 -1.2959 -1.3616  1.1098
 8281SOL     OW25741   0.192   6.362   0.985  0.0715 -0.1032  0.6992
 8281SOL    HW125742   0.283   6.332   1.013  0.6863  1.5964  0.6163
 8281SOL    HW225743   0.196   6.456   0.954 -1.3037 -0.7088 -1.5275
 8282SOL     OW25744   5.990   1.999   4.714 -0.2327 -0.1848  0.5086
 8282SOL    HW125745   6.088   1.982   4.728 -0.4530 -1.0175  1.1431
 8282SOL    HW225746   5.946   1.913   4.687 -0.6257  0.4040 -0.7618
 8283SOL     OW25747   1.386   4.015   5.642 -0.3689  0.1498 -0.1415
 8283SOL    HW125748   1.340   3.959   5.710  0.5164  0.9128  1.1292
 8283SOL    HW225749   1.480   3.984   5.629 -0.6389 -0.2430 -1.3497
 8284SOL     OW25750   1.603   3.830   3.906 -0.3780 -0.2658  0.2102
 8284SOL    HW125751   1.599   3.731   3.896 -1.0007 -0.2672  0.3946
 8284SOL    HW225752   1.635   3.871   3.820 -1.5588 -0.5387 -0.3812
 8285SOL     OW25753   3.780   3.304   5.260  0.0813  0.2173 -0.1140
 8285SOL    HW125754   3.819   3.382   5.308 -0.1132  0.9398 -1.0978
 8285SOL    HW225755   3.817   3.300   5.167 -0.9349 -0.0588 -0.5169
 8286SOL     OW25756   4.953   2.764   5.280 -0.2598 -0.3825 -0.4172
 8286SOL    HW125757   5.018   2.769   5.356  0.3477 -3.4334 -0.6097
 8286SOL    HW225758   4.861   2.777   5.314  0.1783  0.6569  0.4213
 8287SOL     OW25759   1.834   0.360   3.726 -0.2764  1.0192 -0.1553
 8287SOL    HW125760   1.781   0.411   3.658  0.6828  0.6833 -1.1689
 8287SOL    HW225761   1.829   0.262   3.706 -1.3286  0.7661  1.2301
 8288SOL     OW25762   2.363   0.528   2.244  0.1597 -0.0448 -0.5371
 8288SOL    HW125763   2.325   0.620   2.241 -0.5718 -0.3583 -2.2598
 8288SOL    HW225764   2.289   0.460   2.245  0.6689 -0.6630  1.5928
 8289SOL     OW25765   0.912   0.224   1.835  0.1724 -0.0347 -0.0609
 8289SOL    HW125766   0.846   0.295   1.809 -0.0263  0.4211  1.5738
 8289SOL    HW225767   1.005   0.259   1.821  0.0785  0.6367  0.8996
 8290SOL     OW25768   0.442   0.348   0.333  0.0815 -0.4735 -0.5004
 8290SOL    HW125769   0.500   0.330   0.254  1.5567 -0.6142  0.5765
 8290SOL    HW225770   0.463   0.439   0.370 -1.1696 -0.0690 -0.7228
 8291SOL     OW25771   4.069   6.837   6.745 -0.1094 -0.5294  0.3735
 8291SOL    HW125772   4.042   6.743   6.724  0.1211 -0.6116  0.4455
 8291SOL    HW225773   4.109   6.841   6.836  1.6229 -0.7113 -0.3358
 8292SOL     OW25774   2.728   5.793   0.723  0.7170  0.0453 -0.2135
 8292SOL    HW125775   2.757   5.809   0.817  0.9679  0.6710 -0.4007
 8292SOL    HW225776   2.628   5.798   0.718  0.7668  1.2591 -0.2101
 8293SOL     OW25777   3.972   5.003   6.977  0.0250 -0.2255 -0.0328
 8293SOL    HW125778   3.997   4.907   6.993 -2.1936 -0.6320  1.3916
 8293SOL    HW225779   4.007   5.032   6.888  1.9055 -1.9173  0.0758
 8294SOL     OW25780   5.446   3.041   0.225  0.0590  0.3491  0.4148
 8294SOL    HW125781   5.439   3.111   0.154  0.7050  0.1441  0.1495
 8294SOL    HW225782   5.533   3.051   0.274  0.4743 -0.7031 -0.0837
 8295SOL     OW25783   4.594   4.968   1.343  0.0504 -0.4464  0.8000
 8295SOL    HW125784   4.625   4.875   1.361 -0.0761 -0.2881  1.9329
 8295SOL    HW225785   4.673   5.027   1.326  0.4572 -0.0549  3.6091
 8296SOL     OW25786   1.360   5.403   4.127 -0.5560 -0.6135  0.4007
 8296SOL    HW125787   1.387   5.490   4.086 -2.0068 -0.1995  0.2862
 8296SOL    HW225788   1.418   5.384   4.206  0.8463 -0.3562 -0.5228
 8297SOL     OW25789   6.818   2.847   3.469  0.0136  0.3592 -0.1139
 8297SOL    HW125790   6.795   2.763   3.519 -1.3148 -0.3076 -1.7596
 8297SOL    HW225791   6.829   2.826   3.372  0.8052  1.9177 -0.3914
 8298SOL     OW25792   6.939   1.609   1.815  0.1815  0.8559  0.2311
 8298SOL    HW125793   6.979   1.577   1.729  0.9341 -0.5338  1.0529
 8298SOL    HW225794   6.899   1.531   1.864  2.5068  0.9786  2.5541
 8299SOL     OW25795   6.023   4.289   2.085 -0.2754  0.2626  0.0073
 8299SOL    HW125796   5.974   4.311   2.169  1.0184 -0.2840  0.9359
 8299SOL    HW225797   5.957   4.265   2.013 -1.4532  1.7945  0.5165
 8300SOL     OW25798   5.747   6.825   6.620 -0.3553 -0.0810 -0.6697
 8300SOL    HW125799   5.745   6.869   6.710  1.3716 -2.8806  0.8759
 8300SOL    HW225800   5.834   6.843   6.576  0.5660 -2.1680  0.1891
 8301SOL     OW25801   1.799   1.554   1.482 -0.4291  0.2969 -0.0446
 8301SOL    HW125802   1.725   1.611   1.448 -0.7966 -0.0880  0.0914
 8301SOL    HW225803   1.770   1.509   1.567 -1.2115 -2.2408 -1.5477
 8302SOL     OW25804   5.850   0.465   4.823  0.5303 -0.3974 -0.4034
 8302SOL    HW125805   5.876   0.488   4.729 -0.2010  2.2023 -0.0327
 8302SOL    HW225806   5.751   0.468   4.832  0.5412 -1.4934  0.2847
 8303SOL     OW25807   1.550   0.804   4.904  0.0708  0.3340  0.2695
 8303SOL    HW125808   1.577   0.812   4.808  0.1505 -0.0877  0.2564
 8303SOL    HW225809   1.597   0.875   4.957  1.9606 -0.9319  0.4013
 8304SOL     OW25810   1.141   3.938   6.885 -0.0256  0.2774  0.1366
 8304SOL    HW125811   1.098   3.871   6.946  1.4151 -0.7468  0.0734
 8304SOL    HW225812   1.083   3.951   6.804  0.0691 -1.5831 -0.2738
 8305SOL     OW25813   2.685   5.205   3.960  0.5063 -0.1622 -0.3011
 8305SOL    HW125814   2.702   5.304   3.953 -1.1476  0.1189 -0.7385
 8305SOL    HW225815   2.596   5.184   3.921  0.3365 -1.6835  0.8150
 8306SOL     OW25816   0.200   3.511   4.051  0.3217  0.3006  0.0532
 8306SOL    HW125817   0.248   3.544   4.132  0.5282  0.2839 -0.0607
 8306SOL    HW225818   0.266   3.494   3.977 -0.0923  2.6240 -0.9318
 8307SOL     OW25819   4.297   6.190   2.688 -0.2831 -0.1506  0.2495
 8307SOL    HW125820   4.203   6.213   2.664 -0.6142 -0.1939  1.4841
 8307SOL    HW225821   4.304   6.173   2.786  0.9115 -0.6523  0.0942
 8308SOL     OW25822   4.456   5.486   6.270 -0.4609  0.1816 -0.2194
 8308SOL    HW125823   4.480   5.583   6.273  2.5266 -0.4110 -1.0349
 8308SOL    HW225824   4.434   5.459   6.177 -1.3604  0.0693  0.0181
 8309SOL     OW25825   5.470   6.807   2.383 -0.3621  0.0887  0.0938
 8309SOL    HW125826   5.416   6.748   2.442 -0.3901  0.5085  0.4944
 8309SOL    HW225827   5.537   6.858   2.437  0.2373 -0.2042 -0.3612
 8310SOL     OW25828   0.710   2.606   0.205  0.1756 -0.1681  0.2989
 8310SOL    HW125829   0.673   2.538   0.142  1.8750 -0.4817 -0.4099
 8310SOL    HW225830   0.680   2.584   0.298  1.7817 -2.7704  0.2987
 8311SOL     OW25831   0.863   0.516   0.791 -0.7513 -0.3954 -0.3940
 8311SOL    HW125832   0.788   0.481   0.735 -1.1283 -1.9578  0.9949
 8311SOL    HW225833   0.828   0.582   0.856  0.0051  3.0884 -3.2046
 8312SOL     OW25834   4.513   6.702   0.007  0.2847 -0.3694 -0.4839
 8312SOL    HW125835   4.461   6.724  -0.076 -1.8369 -0.9682  0.6105
 8312SOL    HW225836   4.497   6.773   0.075 -1.5806 -2.0170  0.9049
 8313SOL     OW25837   3.770   1.643   2.240  0.3089  0.4065  0.2573
 8313SOL    HW125838   3.858   1.662   2.283  1.3128 -0.0929 -1.4617
 8313SOL    HW225839   3.703   1.615   2.309  1.2639  1.5627  1.6884
 8314SOL     OW25840   5.281   6.759   2.903  0.2466 -0.1305 -0.3897
 8314SOL    HW125841   5.366   6.786   2.947  0.4438  1.9532 -1.8993
 8314SOL    HW225842   5.253   6.830   2.839 -2.1220 -1.2217 -0.6694
 8315SOL     OW25843   3.884   1.810   1.596  0.0689  0.3821 -0.0231
 8315SOL    HW125844   3.818   1.760   1.541 -0.5161  1.0546  0.0575
 8315SOL    HW225845   3.873   1.908   1.581  1.1666  0.5027 -0.1451
 8316SOL     OW25846   1.422   2.906   2.914 -0.1928  0.2047  0.3354
 8316SOL    HW125847   1.462   2.864   2.996 -0.6811  1.9389  1.5007
 8316SOL    HW225848   1.383   2.995   2.937  0.6706  1.2838 -2.0259
 8317SOL     OW25849   2.238   2.854   2.015 -0.1925 -0.2011  0.1604
 8317SOL    HW125850   2.180   2.902   2.080 -0.3806 -0.9818  0.5775
 8317SOL    HW225851   2.325   2.831   2.059 -0.1944 -0.4434  0.0384
 8318SOL     OW25852   4.444   2.022   4.027 -0.0476  0.2461 -0.5439
 8318SOL    HW125853   4.444   2.045   4.125  0.8015  0.6670 -0.6398
 8318SOL    HW225854   4.403   2.096   3.975 -1.1556 -0.2815 -0.4503
 8319SOL     OW25855   2.703   1.213   6.157 -0.5559 -0.6629  0.6420
 8319SOL    HW125856   2.761   1.271   6.101 -0.4875  0.1163  1.4884
 8319SOL    HW225857   2.746   1.198   6.246 -1.3906 -0.5400  1.0753
 8320SOL     OW25858   2.970   3.900   6.874  0.3396  0.3409  0.5365
 8320SOL    HW125859   3.048   3.922   6.933  1.1674 -0.3785 -0.2482
 8320SOL    HW225860   2.973   3.802   6.851 -0.8788  0.2792  0.5957
 8321SOL     OW25861   1.019   2.337   5.638 -0.5461 -0.6429 -0.2925
 8321SOL    HW125862   0.944   2.336   5.572  0.7834  0.7427 -1.9208
 8321SOL    HW225863   1.105   2.316   5.592  0.4739  0.7088  0.9017
 8322SOL     OW25864   0.279   0.033   6.996 -0.4539  0.2183  0.4685
 8322SOL    HW125865   0.251   0.032   6.900 -1.1918 -0.3011  0.6855
 8322SOL    HW225866   0.223  -0.030   7.048  0.6989 -0.3709  1.0408
 8323SOL     OW25867   2.183   0.009   3.107 -0.2200  0.0990 -0.1906
 8323SOL    HW125868   2.140  -0.050   3.038 -0.9346 -0.3119  0.5935
 8323SOL    HW225869   2.161  -0.025   3.198  1.2112  0.2914  0.2494
 8324SOL     OW25870   2.167   0.193   2.441  0.9020 -0.0661  0.2204
 8324SOL    HW125871   2.195   0.101   2.469  0.9022  0.4866  2.2276
 8324SOL    HW225872   2.216   0.260   2.496  0.3616  1.1127 -0.7104
 8325SOL     OW25873   3.474   2.224   5.258  0.4632  0.1049 -0.3626
 8325SOL    HW125874   3.553   2.170   5.287  0.1830 -0.0522  0.1278
 8325SOL    HW225875   3.466   2.221   5.159 -0.0302 -1.4776 -0.3092
 8326SOL     OW25876   4.263   3.867   5.259  0.2280 -0.3900  0.1432
 8326SOL    HW125877   4.337   3.835   5.318  0.1312  0.6188  0.8468
 8326SOL    HW225878   4.239   3.796   5.193 -0.4819 -2.0266  2.0908
 8327SOL     OW25879   5.864   1.996   5.616 -0.0345 -0.4749  0.3893
 8327SOL    HW125880   5.955   2.017   5.581 -1.1031 -0.2307 -2.4893
 8327SOL    HW225881   5.861   2.013   5.715  2.8320  0.0641  0.4524
 8328SOL     OW25882   3.055   3.485   0.870  0.9243 -0.3960 -0.1134
 8328SOL    HW125883   3.145   3.522   0.848  0.8607  0.5088  1.0515
 8328SOL    HW225884   3.038   3.494   0.968 -1.5921  2.1901 -0.6488
 8329SOL     OW25885   0.134   4.072   4.223  0.1487  0.1786  0.5593
 8329SOL    HW125886   0.211   4.074   4.159  0.1416 -0.2823  0.5380
 8329SOL    HW225887   0.166   4.096   4.314  0.2072  0.5753  0.4367
 8330SOL     OW25888   3.577   5.104   0.202  0.2723  0.2108 -0.3509
 8330SOL    HW125889   3.517   5.182   0.217 -2.0938 -1.6815  0.7351
 8330SOL    HW225890   3.622   5.081   0.289  1.2971  0.6003 -0.7689
 8331SOL     OW25891   3.901   6.692   0.057 -0.1253  0.2493 -0.1888
 8331SOL    HW125892   3.855   6.727  -0.025 -0.3701 -2.0350 -1.1296
 8331SOL    HW225893   3.984   6.643   0.029  1.0485  1.3953  1.1843
 8332SOL     OW25894   5.150   5.557   2.443  0.0781  0.0135 -0.1060
 8332SOL    HW125895   5.170   5.652   2.417 -0.0756  0.8458  2.5349
 8332SOL    HW225896   5.225   5.498   2.415  1.1183  1.2656 -0.0374
 8333SOL     OW25897   0.392   5.184   1.365 -0.4773 -0.7007 -0.4720
 8333SOL    HW125898   0.341   5.164   1.449  1.3595  2.6231  1.6504
 8333SOL    HW225899   0.478   5.132   1.365  0.4563  0.7654  0.8185
 8334SOL     OW25900   5.195   0.364   1.872  0.0847 -0.5695  0.2869
 8334SOL    HW125901   5.213   0.380   1.775  0.5671 -2.1021  0.0961
 8334SOL    HW225902   5.279   0.334   1.917  0.2952  1.7854  1.5952
 8335SOL     OW25903   6.448   4.967   4.647 -0.2389  0.0481 -0.2484
 8335SOL    HW125904   6.399   5.042   4.601 -0.8125  0.0243  0.3224
 8335SOL    HW225905   6.451   4.888   4.586  0.2778  0.4897 -0.8160
 8336SOL     OW25906   5.603   1.324   1.078 -0.0521 -0.6096 -0.4822
 8336SOL    HW125907   5.521   1.377   1.099  0.5438  0.8526 -1.6651
 8336SOL    HW225908   5.672   1.340   1.149  0.2459  0.5065 -1.0041
 8337SOL     OW25909   0.055   5.081   4.264  0.1462 -0.9222  0.0651
 8337SOL    HW125910   0.019   4.990   4.243 -1.4395 -0.2628 -0.1934
 8337SOL    HW225911   0.084   5.126   4.180 -1.3902 -0.2680 -0.1537
 8338SOL     OW25912   2.519   5.605   3.986 -0.5188  0.0301 -0.1208
 8338SOL    HW125913   2.607   5.557   3.978  0.8094  2.3094 -0.1187
 8338SOL    HW225914   2.523   5.669   4.062 -1.7567  1.0531 -0.8853
 8339SOL     OW25915   5.785   2.177   2.335 -0.1216 -0.2949  0.5644
 8339SOL    HW125916   5.865   2.153   2.281  0.6685  0.2377  1.4578
 8339SOL    HW225917   5.718   2.224   2.277  0.3672 -0.4147 -0.1114
 8340SOL     OW25918   4.690   3.966   1.127  0.0974 -0.2311 -0.3370
 8340SOL    HW125919   4.790   3.975   1.124  0.1041  0.4532  1.1538
 8340SOL    HW225920   4.664   3.873   1.101  1.2758 -1.0272  1.1463
 8341SOL     OW25921   0.590   6.112   6.691 -0.1852  0.3695 -0.5779
 8341SOL    HW125922   0.579   6.174   6.613 -0.0160 -0.1915 -1.0532
 8341SOL    HW225923   0.579   6.164   6.776  3.2454  1.8386 -0.8257
 8342SOL     OW25924   3.024   6.735   1.822 -0.1888 -0.3414  0.3967
 8342SOL    HW125925   3.075   6.694   1.747  0.6994  0.9085  0.2831
 8342SOL    HW225926   2.985   6.663   1.880 -2.4193 -1.3861 -2.1901
 8343SOL     OW25927   1.670   4.608   5.714  0.1657  0.0566  0.0855
 8343SOL    HW125928   1.597   4.654   5.765  1.4452  1.8957  0.3356
 8343SOL    HW225929   1.757   4.618   5.763  1.0449  0.0376 -1.4229
 8344SOL     OW25930   5.798   0.220   5.657  0.0302  0.3636 -0.0640
 8344SOL    HW125931   5.789   0.305   5.604 -0.9817  0.4976  0.2955
 8344SOL    HW225932   5.861   0.158   5.610 -0.1533  0.8333 -0.9525
 8345SOL     OW25933   5.117   3.996   2.796  0.7691  0.4408  0.1271
 8345SOL    HW125934   5.017   3.998   2.791  0.7675 -1.4291 -2.3876
 8345SOL    HW225935   5.155   4.070   2.739  0.8389  0.8130  0.6482
 8346SOL     OW25936   3.090   4.907   6.747  0.2021  0.4407  0.0476
 8346SOL    HW125937   3.054   4.866   6.663 -0.1036  0.3516  0.2195
 8346SOL    HW225938   3.170   4.855   6.777  0.4923  0.6521 -0.3475
 8347SOL     OW25939   4.191   5.296   4.899 -0.2794 -0.1909  0.6550
 8347SOL    HW125940   4.172   5.261   4.991  0.7034 -1.1151  0.5195
 8347SOL    HW225941   4.244   5.381   4.906  1.1398 -1.0707  0.9434
 8348SOL     OW25942   6.991   5.117   6.892 -0.4483  0.0416  0.4192
 8348SOL    HW125943   7.041   5.154   6.815 -0.9625 -0.9811 -0.4415
 8348SOL    HW225944   7.054   5.099   6.968  0.1353  0.6155  0.0808
 8349SOL     OW25945   5.122   3.440   0.701  0.4823 -0.1184 -0.3337
 8349SOL    HW125946   5.070   3.441   0.786  1.9253  0.2702  0.5891
 8349SOL    HW225947   5.083   3.505   0.636  0.9639  1.6329  1.0656
 8350SOL     OW25948   5.369   1.515   3.799 -0.0411  0.1095 -0.4590
 8350SOL    HW125949   5.449   1.455   3.804 -1.4678 -1.7854  2.5248
 8350SOL    HW225950   5.295   1.468   3.751 -0.6024  0.1898  0.3136
 8351SOL     OW25951   2.213   6.546   5.142  0.0682 -0.1818 -0.3536
 8351SOL    HW125952   2.154   6.575   5.217  0.8660  0.8183 -0.0998
 8351SOL    HW225953   2.206   6.446   5.131 -1.2796 -0.1396 -0.0191
 8352SOL     OW25954   6.505   0.208   1.817  0.0047 -0.3466  0.0070
 8352SOL    HW125955   6.515   0.112   1.792  1.6558  0.0510 -1.0234
 8352SOL    HW225956   6.577   0.262   1.773 -0.3430  1.2456  1.2685
 8353SOL     OW25957   5.176   3.231   2.815 -0.4752  0.0834 -0.1600
 8353SOL    HW125958   5.149   3.242   2.719  0.3096  0.1453 -0.3792
 8353SOL    HW225959   5.208   3.137   2.829 -0.0023  0.2546 -0.1038
 8354SOL     OW25960   3.468   1.202   5.486  0.3094  0.0462 -1.1675
 8354SOL    HW125961   3.485   1.272   5.556 -0.2923 -1.3918  0.5038
 8354SOL    HW225962   3.376   1.215   5.449 -0.4698 -0.7775  0.3529
 8355SOL     OW25963   1.808   1.695   5.999 -0.5174  0.0530 -0.1029
 8355SOL    HW125964   1.876   1.732   6.062 -0.5605  0.3429 -0.2265
 8355SOL    HW225965   1.734   1.762   5.986 -0.8532 -0.2803  0.0741
 8356SOL     OW25966   0.731   6.498   4.670 -0.3752  0.1180  0.0932
 8356SOL    HW125967   0.646   6.474   4.716 -0.7346 -0.8334 -1.0223
 8356SOL    HW225968   0.728   6.467   4.575  0.5555  1.5368 -0.4463
 8357SOL     OW25969   2.585   5.028   6.016  0.0355 -0.0307 -0.0626
 8357SOL    HW125970   2.511   5.083   5.976  0.3414  0.9286  0.6334
 8357SOL    HW225971   2.673   5.067   5.989  0.2917 -0.9411 -0.5719
 8358SOL     OW25972   2.280   2.637   5.454  0.2052  0.2396 -0.1564
 8358SOL    HW125973   2.271   2.549   5.409  1.2129 -0.3840  0.8295
 8358SOL    HW225974   2.266   2.710   5.387  1.4133 -0.6555 -1.4292
 8359SOL     OW25975   5.378   4.745   4.000  0.0650  0.3625 -0.2674
 8359SOL    HW125976   5.326   4.733   4.084 -0.4459 -0.4788 -0.6870
 8359SOL    HW225977   5.429   4.831   4.004  0.2332  0.2199  0.9834
 8360SOL     OW25978   2.285   5.588   0.802  0.3252 -0.0792  0.1149
 8360SOL    HW125979   2.243   5.528   0.869 -0.8542  0.2197 -0.3207
 8360SOL    HW225980   2.239   5.576   0.713  1.0199  0.4264 -0.3258
 8361SOL     OW25981   2.325   0.390   1.538 -0.1938  0.1848 -0.7793
 8361SOL    HW125982   2.275   0.418   1.456  1.0081  1.2641 -1.1894
 8361SOL    HW225983   2.361   0.472   1.583  0.6713 -0.5245 -0.1658
 8362SOL     OW25984   1.994   2.148   0.525  0.3773  0.5677 -0.2366
 8362SOL    HW125985   1.945   2.080   0.579  0.7150  0.6983  0.2319
 8362SOL    HW225986   1.961   2.240   0.549  0.1036  0.5891 -0.6830
 8363SOL     OW25987   1.725   3.150   1.310  0.3243  0.3471 -0.3919
 8363SOL    HW125988   1.632   3.115   1.321  0.1005  0.8551 -0.6885
 8363SOL    HW225989   1.782   3.116   1.386  0.4079 -1.6304 -1.2607
 8364SOL     OW25990   1.576   2.809   3.130 -0.2271  0.0139 -0.5472
 8364SOL    HW125991   1.578   2.818   3.229  1.7346 -1.8408 -0.3507
 8364SOL    HW225992   1.629   2.883   3.089  0.7177 -0.4015 -0.0844
 8365SOL     OW25993   0.745   6.321   1.554 -0.1209 -0.0853  0.3772
 8365SOL    HW125994   0.735   6.222   1.553  0.9655 -0.2416  1.9617
 8365SOL    HW225995   0.839   6.346   1.534 -1.0360  0.8536 -3.5260
 8366SOL     OW25996   5.272   6.732   3.527  0.3586 -0.3692 -0.1709
 8366SOL    HW125997   5.346   6.799   3.536  0.8152 -0.9221  0.2561
 8366SOL    HW225998   5.262   6.706   3.431  1.6628 -1.3196 -0.0755
 8367SOL     OW25999   5.324   5.470   3.341 -0.4694  0.0336  0.8325
 8367SOL    HW126000   5.295   5.375   3.350 -1.8644  0.4932  1.4277
 8367SOL    HW226001   5.367   5.483   3.252 -1.6667 -0.8044  0.1110
 8368SOL     OW26002   3.839   5.292   5.940  0.1038 -0.2183 -0.1279
 8368SOL    HW126003   3.833   5.350   5.858  1.0975 -0.5446 -0.4475
 8368SOL    HW226004   3.934   5.266   5.955 -0.1976 -0.9389  0.5985
 8369SOL     OW26005   6.838   1.548   0.393  0.1331 -0.2448  0.1950
 8369SOL    HW126006   6.775   1.563   0.316  0.8840  0.5658 -0.2887
 8369SOL    HW226007   6.785   1.533   0.476 -0.7058  0.3155 -0.2139
 8370SOL     OW26008   3.134   2.996   5.951 -0.5038  0.1662  0.1772
 8370SOL    HW126009   3.054   3.055   5.962 -0.2525  1.9427 -4.8591
 8370SOL    HW226010   3.213   3.039   5.994 -1.4813  0.1286  2.1530
 8371SOL     OW26011   1.557   2.947   5.429 -0.0397 -0.3393  0.2419
 8371SOL    HW126012   1.475   3.003   5.421  0.0994 -0.2196 -0.3997
 8371SOL    HW226013   1.602   2.941   5.340  0.0203 -1.3615  0.3371
 8372SOL     OW26014   0.572   4.761   3.772  0.5140 -0.2132  0.3010
 8372SOL    HW126015   0.518   4.722   3.697  0.5358  0.7087 -0.2124
 8372SOL    HW226016   0.599   4.854   3.748 -0.8314  0.6984  2.1229
 8373SOL     OW26017   6.646   6.748   5.720  0.3098 -0.5666 -0.7965
 8373SOL    HW126018   6.629   6.736   5.817  0.8149 -1.6922 -0.8332
 8373SOL    HW226019   6.613   6.838   5.691  0.4002 -0.1136  0.4597
 8374SOL     OW26020   6.841   3.224   2.009  0.7174  0.0427 -0.3538
 8374SOL    HW126021   6.858   3.265   1.920  0.2908  1.8777  0.3661
 8374SOL    HW226022   6.833   3.296   2.078  0.7878 -1.3145  1.1388
 8375SOL     OW26023   3.615   4.783   6.203 -0.4955 -0.1585 -0.2187
 8375SOL    HW126024   3.631   4.728   6.121 -1.1546  0.2321 -0.6229
 8375SOL    HW226025   3.551   4.857   6.182 -2.7596 -1.5541  1.2140
 8376SOL     OW26026   2.423   1.489   4.960 -0.2750  0.0414 -0.0418
 8376SOL    HW126027   2.511   1.445   4.941  0.4942  1.0559  1.0305
 8376SOL    HW226028   2.394   1.467   5.052 -1.8363 -1.3506 -0.8239
 8377SOL     OW26029   6.212   6.124   2.756 -0.3175  0.3216  0.4553
 8377SOL    HW126030   6.217   6.043   2.814  2.8105  2.7233  3.9985
 8377SOL    HW226031   6.176   6.201   2.808 -2.4678  1.5756 -2.5604
 8378SOL     OW26032   6.539   4.700   3.577  0.7589 -0.5399 -0.6599
 8378SOL    HW126033   6.573   4.707   3.671  0.4463 -0.8688 -0.5182
 8378SOL    HW226034   6.536   4.790   3.535 -0.3764 -0.1928  0.1055
 8379SOL     OW26035   0.153   3.259   1.707  0.3154 -0.8246 -0.7500
 8379SOL    HW126036   0.149   3.168   1.750  0.2511 -0.1795  0.6751
 8379SOL    HW226037   0.245   3.275   1.672  0.5928 -1.0825 -0.1664
 8380SOL     OW26038   0.039   0.039   0.924  0.4866 -0.8644  0.3517
 8380SOL    HW126039   0.049   0.002   1.016  1.4675 -0.3350  0.4727
 8380SOL    HW226040  -0.017   0.122   0.927  0.4796 -0.8732  0.4666
 8381SOL     OW26041   0.987   4.711   5.221 -0.7796  0.2561  0.0390
 8381SOL    HW126042   1.058   4.768   5.179 -1.2975  0.7697 -0.1447
 8381SOL    HW226043   1.029   4.652   5.290  0.2764 -1.2944 -1.8076
 8382SOL     OW26044   3.020   0.203   3.421 -0.3178 -0.3710  0.2412
 8382SOL    HW126045   3.101   0.251   3.387  0.1904 -1.4035 -0.0375
 8382SOL    HW226046   3.046   0.111   3.450 -1.2004 -0.3504  1.1543
 8383SOL     OW26047   3.322   2.617   5.301 -0.2283 -0.0131  0.0490
 8383SOL    HW126048   3.288   2.542   5.244  1.5646 -0.1782 -0.8914
 8383SOL    HW226049   3.294   2.704   5.262  2.0794 -0.0720 -1.9741
 8384SOL     OW26050   0.208   0.484   1.142 -0.4110 -0.1825 -0.6638
 8384SOL    HW126051   0.148   0.418   1.186 -0.6953  0.7428  0.3742
 8384SOL    HW226052   0.252   0.541   1.211 -0.3631  0.8818 -1.5406
 8385SOL     OW26053   6.875   1.984   3.006 -0.0513  0.2656 -0.4316
 8385SOL    HW126054   6.921   2.068   2.976 -1.1317  1.0790  0.1337
 8385SOL    HW226055   6.879   1.978   3.106 -1.4720  0.5393 -0.3429
 8386SOL     OW26056   1.529   4.363   4.066 -0.6497 -0.1284 -0.0495
 8386SOL    HW126057   1.481   4.378   4.152 -0.0984 -1.7190  0.5584
 8386SOL    HW226058   1.626   4.385   4.077 -0.7402  0.5853 -0.5557
 8387SOL     OW26059   1.738   1.871   0.561 -0.4895 -0.2942 -0.0213
 8387SOL    HW126060   1.789   1.850   0.644  0.6456  1.2123 -0.2972
 8387SOL    HW226061   1.687   1.956   0.574 -0.6269 -0.2616 -0.7236
 8388SOL     OW26062   2.075   5.162   0.621 -0.2691 -0.5409 -0.3817
 8388SOL    HW126063   2.039   5.213   0.543 -2.0146 -2.1205 -0.7101
 8388SOL    HW226064   2.042   5.203   0.706 -0.9637 -0.5821 -0.6177
 8389SOL     OW26065   0.767   3.178   2.688 -0.2624  0.4529  0.8807
 8389SOL    HW126066   0.856   3.143   2.658  0.1591  1.3504  1.0554
 8389SOL    HW226067   0.702   3.102   2.692  0.6665 -0.3433  1.4397
 8390SOL     OW26068   4.731   1.803   5.870 -0.0425  0.1532 -0.4932
 8390SOL    HW126069   4.771   1.787   5.779 -0.6834  0.0369 -0.7561
 8390SOL    HW226070   4.650   1.860   5.860 -0.6900 -0.6902 -0.0940
 8391SOL     OW26071   3.298   5.796   0.642 -0.3936  0.7800  0.5539
 8391SOL    HW126072   3.231   5.793   0.568  0.4823 -1.2109 -0.2299
 8391SOL    HW226073   3.320   5.891   0.663 -1.7888  1.4157 -0.6816
 8392SOL     OW26074   6.201   4.526   5.377 -0.6251  0.3747 -0.1505
 8392SOL    HW126075   6.299   4.529   5.396 -0.8198 -0.0625  1.0176
 8392SOL    HW226076   6.167   4.433   5.390 -1.0892  0.3703 -1.2142
 8393SOL     OW26077   5.539   6.013   2.504 -0.1905 -0.0760  0.1501
 8393SOL    HW126078   5.507   5.923   2.534 -0.1260  0.6206  2.4925
 8393SOL    HW226079   5.593   6.003   2.421 -0.7405 -2.1067 -0.0149
 8394SOL     OW26080   4.643   4.730   1.459  0.1979  0.3832  0.3266
 8394SOL    HW126081   4.612   4.634   1.454 -1.2210  0.8463 -0.4572
 8394SOL    HW226082   4.666   4.753   1.553 -1.6300 -0.1119  0.9402
 8395SOL     OW26083   3.365   1.423   6.754  0.3312  0.0309  0.3349
 8395SOL    HW126084   3.430   1.480   6.805  0.1898 -0.7994  1.4833
 8395SOL    HW226085   3.279   1.417   6.806  0.7161 -2.1086  0.7896
 8396SOL     OW26086   3.023   6.193   4.744  0.0316  0.3718  0.5411
 8396SOL    HW126087   3.074   6.125   4.796  0.0640 -0.8916 -1.0575
 8396SOL    HW226088   3.068   6.282   4.750  1.7741 -0.4551  0.1115
 8397SOL     OW26089   5.896   0.331   2.794  0.2912 -0.3226 -0.2376
 8397SOL    HW126090   5.947   0.410   2.828 -0.2762 -0.2682  0.5364
 8397SOL    HW226091   5.836   0.359   2.719  0.3927 -0.0993 -0.2349
 8398SOL     OW26092   5.654   3.450   6.791  0.4679  0.3283 -0.5823
 8398SOL    HW126093   5.602   3.535   6.800 -2.9949 -1.5558 -1.0706
 8398SOL    HW226094   5.704   3.432   6.876  0.7040  2.4300 -0.2245
 8399SOL     OW26095   6.199   1.684   0.233  0.1571  0.7329 -0.1517
 8399SOL    HW126096   6.266   1.716   0.166  1.5418 -1.9330 -0.2017
 8399SOL    HW226097   6.206   1.738   0.317  1.2076  1.5870 -0.7709
 8400SOL     OW26098   2.167   4.266   4.238 -0.1215  0.0509  0.2067
 8400SOL    HW126099   2.099   4.212   4.189  1.7702 -1.3316 -1.0154
 8400SOL    HW226100   2.180   4.229   4.330 -0.1530 -0.4298  0.0174
 8401SOL     OW26101   2.136   0.123   3.754 -0.2106 -0.3625  0.0616
 8401SOL    HW126102   2.235   0.141   3.754 -0.5181  1.5493 -0.6650
 8401SOL    HW226103   2.121   0.025   3.739  1.5763 -0.9519  1.7191
 8402SOL     OW26104   5.094   0.889   6.244  0.3674  0.2829 -0.0730
 8402SOL    HW126105   5.109   0.888   6.342  0.0458 -1.2118 -0.0256
 8402SOL    HW226106   5.002   0.923   6.224 -0.3233 -1.3121  0.2763
 8403SOL     OW26107   1.260   4.356   2.400  0.4884  0.5632 -0.6558
 8403SOL    HW126108   1.319   4.422   2.447  0.2806  0.5142 -0.3158
 8403SOL    HW226109   1.295   4.263   2.414 -0.2854  0.4170  0.5328
 8404SOL     OW26110   2.965   3.407   5.927  0.3229 -0.0092  0.2947
 8404SOL    HW126111   2.983   3.458   6.011 -0.8582  2.1427 -0.6667
 8404SOL    HW226112   2.904   3.330   5.947  1.5257 -0.6359  1.6710
 8405SOL     OW26113   3.237   0.648   6.630 -0.2842  0.3049 -0.5876
 8405SOL    HW126114   3.279   0.670   6.718 -1.0728 -0.8015  0.0908
 8405SOL    HW226115   3.152   0.597   6.645  0.1302 -0.8900 -2.0048
 8406SOL     OW26116   4.537   0.596   5.172  0.2618  0.4080  0.5531
 8406SOL    HW126117   4.549   0.685   5.130 -0.6830  0.7787  1.0453
 8406SOL    HW226118   4.591   0.591   5.256  0.6370  0.3592  0.3117
 8407SOL     OW26119   5.341   5.710   4.690  0.4781  0.6253  0.4818
 8407SOL    HW126120   5.391   5.650   4.628  0.9931  1.0510  0.4726
 8407SOL    HW226121   5.257   5.665   4.721  0.9372 -0.1573  0.6077
 8408SOL     OW26122   4.479   6.410   1.620  0.0595 -0.0419  0.3460
 8408SOL    HW126123   4.458   6.328   1.674 -1.5446  1.4917  2.2084
 8408SOL    HW226124   4.556   6.458   1.662  0.9726 -0.5195 -0.7227
 8409SOL     OW26125   5.577   2.946   1.641 -0.2614 -0.3795 -0.0815
 8409SOL    HW126126   5.531   2.946   1.552  0.7016  0.2974 -0.5916
 8409SOL    HW226127   5.575   3.039   1.679 -0.0962 -0.5331  0.3070
 8410SOL     OW26128   5.963   2.127   2.914  0.0244 -0.1342 -0.2434
 8410SOL    HW126129   6.050   2.100   2.956 -0.8097 -0.3455  1.4630
 8410SOL    HW226130   5.961   2.097   2.819  1.0405 -1.9075  0.2400
 8411SOL     OW26131   1.657   1.089   3.406 -0.1614  0.0589 -0.3338
 8411SOL    HW126132   1.692   1.181   3.424  0.1503  0.0869 -1.0722
 8411SOL    HW226133   1.610   1.088   3.318 -2.2544  0.0790  0.7085
 8412SOL     OW26134   3.255   3.832   1.125  0.9880 -0.4618 -0.3307
 8412SOL    HW126135   3.262   3.778   1.209  1.7226 -0.0307 -0.1113
 8412SOL    HW226136   3.266   3.929   1.147  1.7553 -0.3904 -0.9910
 8413SOL     OW26137   3.402   5.974   6.044  0.1955 -0.1399 -0.2283
 8413SOL    HW126138   3.370   5.982   6.138  1.2968 -0.8141  0.2276
 8413SOL    HW226139   3.339   5.916   5.992 -0.9476  1.0328 -0.1925
 8414SOL     OW26140   1.697   1.311   2.912 -0.2409  0.5152  0.2147
 8414SOL    HW126141   1.614   1.302   2.856 -0.1572  2.5012 -0.2851
 8414SOL    HW226142   1.679   1.374   2.988  0.3871 -0.2503  1.0282
 8415SOL     OW26143   2.634   6.333   4.444 -0.0505 -0.0693  0.1327
 8415SOL    HW126144   2.669   6.333   4.538 -0.7294 -1.2947  0.4065
 8415SOL    HW226145   2.700   6.287   4.385  0.3338  0.6189  0.0113
 8416SOL     OW26146   5.144   1.200   5.894  0.0364  0.3944 -0.3950
 8416SOL    HW126147   5.145   1.190   5.795 -1.5176 -2.0960 -0.2296
 8416SOL    HW226148   5.221   1.150   5.933 -0.2175  0.1119 -0.2582
 8417SOL     OW26149   1.229   1.243   6.156  0.4037 -0.1607  0.1146
 8417SOL    HW126150   1.284   1.242   6.239  0.4861  1.6854  0.1231
 8417SOL    HW226151   1.261   1.315   6.095 -0.8118 -0.2886 -0.7174
 8418SOL     OW26152   5.749   5.206   2.022 -0.0995  0.3794  0.3492
 8418SOL    HW126153   5.751   5.223   1.923  0.9346 -0.8849  0.1269
 8418SOL    HW226154   5.706   5.283   2.068  0.7047  1.6506 -0.9519
 8419SOL     OW26155   5.914   0.811   1.605  0.2511  0.2827 -0.2683
 8419SOL    HW126156   5.863   0.725   1.609  0.3257  0.2515  0.0047
 8419SOL    HW226157   5.955   0.830   1.694 -1.8597  1.8560  0.4711
 8420SOL     OW26158   1.925   6.448   0.369  0.2151 -0.3191 -0.5336
 8420SOL    HW126159   1.909   6.457   0.467 -0.3303 -0.3677 -0.6104
 8420SOL    HW226160   1.846   6.485   0.319  0.6076 -0.0423 -0.9577
 8421SOL     OW26161   3.122   0.458   6.376  0.1116  0.1583  0.1778
 8421SOL    HW126162   3.122   0.387   6.305  0.6679 -0.2730  0.6022
 8421SOL    HW226163   3.031   0.499   6.382 -0.3328 -0.8029  0.2022
 8422SOL     OW26164   4.664   2.351   2.342  0.1255 -0.3215  0.5806
 8422SOL    HW126165   4.720   2.376   2.421 -1.1747 -0.7801  1.6998
 8422SOL    HW226166   4.642   2.253   2.347 -2.2758  0.1747  1.2477
 8423SOL     OW26167   4.688   4.983   6.872  0.0658 -0.9000  0.0212
 8423SOL    HW126168   4.644   4.898   6.903 -0.3334  0.0953  2.3640
 8423SOL    HW226169   4.656   5.060   6.927  0.1121  0.9057 -2.2860
 8424SOL     OW26170   2.120   1.199   4.485  0.4702  0.5815 -0.1212
 8424SOL    HW126171   2.052   1.273   4.479 -0.5679 -0.3751 -0.3944
 8424SOL    HW226172   2.194   1.216   4.420  0.6347  1.7553  0.3428
 8425SOL     OW26173   3.058   3.109   4.695  0.1360  0.0825 -0.8720
 8425SOL    HW126174   2.984   3.091   4.760  0.4939 -1.9173 -0.9804
 8425SOL    HW226175   3.044   3.200   4.654 -1.4398  0.3524  0.1702
 8426SOL     OW26176   3.643   3.669   3.864  0.3048  0.1013  0.6232
 8426SOL    HW126177   3.587   3.587   3.856  0.5948  0.0831 -1.9694
 8426SOL    HW226178   3.725   3.648   3.918 -0.0329 -1.0607  0.7036
 8427SOL     OW26179   3.045   3.360   4.556 -0.0022  0.1615  0.1163
 8427SOL    HW126180   3.138   3.393   4.543  0.4037 -0.7264  0.6366
 8427SOL    HW226181   2.998   3.358   4.468  1.2812 -1.6843 -0.5966
 8428SOL     OW26182   5.596   5.997   6.670 -0.5996 -0.2654  0.3606
 8428SOL    HW126183   5.684   6.044   6.678 -0.3284 -0.1146 -2.5437
 8428SOL    HW226184   5.583   5.937   6.749  1.2733  0.9982  1.7213
 8429SOL     OW26185   3.105   5.684   6.871 -0.0360  0.3630 -0.2868
 8429SOL    HW126186   3.126   5.775   6.908 -1.3300  0.7130 -0.3770
 8429SOL    HW226187   3.184   5.624   6.883  0.7843  1.4513 -0.0789
 8430SOL     OW26188   2.466   6.087   4.957 -0.2509 -0.2140 -0.1783
 8430SOL    HW126189   2.429   5.993   4.957 -1.0790  0.0882  0.7721
 8430SOL    HW226190   2.517   6.102   5.042 -1.3752  0.6475  0.3686
 8431SOL     OW26191   2.085   3.361   4.958 -0.3199  0.7287  0.2469
 8431SOL    HW126192   2.107   3.277   5.008 -2.3600  0.0696  0.1381
 8431SOL    HW226193   2.101   3.346   4.861  1.2489  1.1719  0.4152
 8432SOL     OW26194   6.892   0.330   5.238  0.8584  0.0465 -0.3879
 8432SOL    HW126195   6.928   0.355   5.148  0.7630  0.0899 -0.4141
 8432SOL    HW226196   6.836   0.248   5.230 -0.1294  0.7199 -0.5748
 8433SOL     OW26197   5.558   4.548   6.574  0.3161  0.4665 -0.2327
 8433SOL    HW126198   5.644   4.517   6.615 -0.3689 -1.7573 -0.3426
 8433SOL    HW226199   5.512   4.471   6.530 -1.6251  1.6444 -0.4046
 8434SOL     OW26200   1.665   4.138   4.832 -0.5916 -0.4354  1.0221
 8434SOL    HW126201   1.664   4.047   4.874  0.4311 -0.9694 -0.0657
 8434SOL    HW226202   1.749   4.149   4.780 -1.6315  0.3656 -0.5448
 8435SOL     OW26203   5.762   1.887   0.590  0.2347  0.3818  0.3072
 8435SOL    HW126204   5.773   1.891   0.689 -0.3405 -1.7219  0.5112
 8435SOL    HW226205   5.664   1.887   0.567  0.3626  1.7886 -0.3452
 8436SOL     OW26206   4.512   0.432   3.418  0.0116  0.5336 -1.0974
 8436SOL    HW126207   4.558   0.359   3.368  0.4367 -0.4385  0.6269
 8436SOL    HW226208   4.547   0.521   3.388  0.4532 -0.0186 -2.2756
 8437SOL     OW26209   2.311   0.865   1.407  0.5339 -0.9551  0.4751
 8437SOL    HW126210   2.242   0.808   1.364 -0.2476  0.8552 -0.7629
 8437SOL    HW226211   2.277   0.958   1.417  1.4484 -0.8131  3.2073
 8438SOL     OW26212   1.473   4.649   3.407 -0.2912 -0.0406  0.3494
 8438SOL    HW126213   1.549   4.601   3.363 -0.4090  2.5178 -3.0563
 8438SOL    HW226214   1.389   4.597   3.393  0.1029 -0.5644 -0.1227
 8439SOL     OW26215   0.122   5.166   3.997  0.7795 -0.2279  0.1566
 8439SOL    HW126216   0.218   5.149   3.975  1.1945  1.9769  0.0574
 8439SOL    HW226217   0.075   5.205   3.918  0.6804  1.7916  1.1363
 8440SOL     OW26218   3.527   6.948   3.210 -0.7591 -0.7157  0.2418
 8440SOL    HW126219   3.624   6.957   3.188 -1.2873  0.3665 -1.9376
 8440SOL    HW226220   3.514   6.961   3.308  0.9866  2.1613  0.2065
 8441SOL     OW26221   3.295   4.883   4.786  0.4700  0.1824  0.2253
 8441SOL    HW126222   3.218   4.830   4.821  0.8758 -0.6481 -0.1228
 8441SOL    HW226223   3.292   4.885   4.686  0.9379  0.0823  0.2066
 8442SOL     OW26224   6.452   2.887   6.506  0.6752 -0.0460 -0.4499
 8442SOL    HW126225   6.422   2.827   6.580 -0.2562 -0.0455 -0.8110
 8442SOL    HW226226   6.438   2.982   6.533 -2.3026 -0.0559 -1.6208
 8443SOL     OW26227   2.187   3.108   2.780  0.1324 -0.0704 -0.4707
 8443SOL    HW126228   2.220   3.149   2.695  1.0085 -1.1227 -0.6577
 8443SOL    HW226229   2.088   3.095   2.774  0.1511  0.0731 -1.2416
 8444SOL     OW26230   4.161   0.051   3.234  0.9813  0.3608 -0.2082
 8444SOL    HW126231   4.162  -0.020   3.164 -0.7028 -1.8503  1.8497
 8444SOL    HW226232   4.248   0.051   3.284  0.3460 -1.6479  0.9924
 8445SOL     OW26233   1.762   0.876   0.403  0.4384 -0.0539 -0.3619
 8445SOL    HW126234   1.852   0.905   0.435 -0.5065  1.5491  1.0336
 8445SOL    HW226235   1.721   0.814   0.471 -0.0528  0.3219 -0.3094
 8446SOL     OW26236   5.798   1.571   4.741  0.7648  0.4827 -0.1675
 8446SOL    HW126237   5.820   1.617   4.827 -0.2533  1.9435 -0.6455
 8446SOL    HW226238   5.736   1.495   4.758 -0.0998  1.2795  0.3195
 8447SOL     OW26239   3.642   2.103   0.887  0.0611  0.1897  0.1622
 8447SOL    HW126240   3.553   2.138   0.915 -0.7990 -1.3332 -0.5762
 8447SOL    HW226241   3.712   2.136   0.951 -1.0043  1.4301  0.7301
 8448SOL     OW26242   5.216   0.006   1.041 -0.6051 -0.1763 -0.4364
 8448SOL    HW126243   5.155   0.085   1.049 -0.4968 -0.1821  0.7110
 8448SOL    HW226244   5.261  -0.009   1.129 -1.3540 -2.1082 -0.3292
 8449SOL     OW26245   0.935   3.778   2.205  0.0024 -0.0011 -0.1976
 8449SOL    HW126246   0.938   3.694   2.260  2.7903  0.4491  0.5011
 8449SOL    HW226247   0.841   3.810   2.199 -0.8367 -1.8741  1.5280
 8450SOL     OW26248   1.000   0.904   6.740 -0.3654  0.2972 -0.2983
 8450SOL    HW126249   1.003   0.938   6.834  0.4018  1.3333 -0.6801
 8450SOL    HW226250   0.998   0.804   6.741 -3.3404  0.2452  0.8785
 8451SOL     OW26251   3.750   0.356   0.995  0.2310  0.1782  0.2272
 8451SOL    HW126252   3.767   0.328   1.090  0.7591 -1.1458 -0.2318
 8451SOL    HW226253   3.655   0.336   0.971  0.2159  0.0987  0.3517
 8452SOL     OW26254   4.730   2.956   5.120 -0.1752  0.1881  0.0566
 8452SOL    HW126255   4.823   2.963   5.083 -1.0795  0.6657 -2.3131
 8452SOL    HW226256   4.691   2.867   5.095 -1.6373  1.4185 -2.4118
 8453SOL     OW26257   0.599   5.500   0.005 -0.4156 -0.0938 -0.0143
 8453SOL    HW126258   0.504   5.522   0.029 -0.4033 -0.4850  0.4239
 8453SOL    HW226259   0.635   5.569  -0.057 -0.2897  1.2539  1.5041
 8454SOL     OW26260   6.388   5.372   5.845 -0.2808 -0.1878  0.3732
 8454SOL    HW126261   6.321   5.383   5.772 -1.6951  0.9735  1.7689
 8454SOL    HW226262   6.427   5.280   5.841 -1.0696 -0.4913 -1.2007
 8455SOL     OW26263   2.229   0.959   3.704  0.3462  0.3220  0.8780
 8455SOL    HW126264   2.260   0.940   3.797  2.5313  2.2384  0.6009
 8455SOL    HW226265   2.243   0.878   3.647  2.5964  0.3097  1.3685
 8456SOL     OW26266   5.719   1.092   1.963 -0.0719  0.6654 -0.4865
 8456SOL    HW126267   5.780   1.026   2.007  0.2431  0.7016 -0.8736
 8456SOL    HW226268   5.694   1.163   2.029  1.6058  1.5588 -0.7838
 8457SOL     OW26269   6.168   6.389   3.821  0.2357 -0.8475 -0.1921
 8457SOL    HW126270   6.230   6.466   3.811 -0.0262 -0.4692  0.9243
 8457SOL    HW226271   6.074   6.419   3.805 -0.1037 -0.4102  2.1397
 8458SOL     OW26272   6.750   0.527   2.148  0.1947 -0.5329 -0.2021
 8458SOL    HW126273   6.795   0.510   2.060  0.2092 -1.2854 -0.0543
 8458SOL    HW226274   6.811   0.580   2.206 -0.1441  0.7129 -0.9448
 8459SOL     OW26275   0.287   6.313   3.187 -0.2850  0.3319 -0.5609
 8459SOL    HW126276   0.297   6.334   3.089  1.2530  1.4250 -0.2169
 8459SOL    HW226277   0.222   6.377   3.228 -1.2255 -0.3731 -0.9235
 8460SOL     OW26278   5.836   2.684   5.791 -0.0197  0.0508 -0.0811
 8460SOL    HW126279   5.874   2.777   5.786  0.2405  0.0920  1.7176
 8460SOL    HW226280   5.907   2.622   5.825 -1.3145  0.0491  2.9640
 8461SOL     OW26281   5.827   3.166   6.034  0.6324  0.1574 -0.4248
 8461SOL    HW126282   5.823   3.225   5.953 -1.9515  0.8976  0.1428
 8461SOL    HW226283   5.746   3.108   6.037  0.7874 -0.0182  1.5010
 8462SOL     OW26284   2.118   1.672   6.979 -0.7301 -0.0293  0.1970
 8462SOL    HW126285   2.072   1.638   6.897  1.5094 -0.5939 -0.9114
 8462SOL    HW226286   2.054   1.728   7.032 -2.3623  0.0568 -1.7209
 8463SOL     OW26287   6.651   1.524   1.462 -0.3086 -0.1240 -0.3653
 8463SOL    HW126288   6.576   1.584   1.432 -0.0021  0.3488 -0.1933
 8463SOL    HW226289   6.704   1.495   1.382 -0.8436 -0.6963 -0.5208
 8464SOL     OW26290   4.625   2.760   5.435 -0.5598  0.0859 -0.0183
 8464SOL    HW126291   4.583   2.785   5.348 -0.2112 -1.1092 -0.5446
 8464SOL    HW226292   4.560   2.709   5.490 -0.6375  0.4763  0.2610
 8465SOL     OW26293   2.692   1.340   1.493 -0.1796  0.0443  0.1431
 8465SOL    HW126294   2.789   1.335   1.515  0.0133  0.8543 -0.4676
 8465SOL    HW226295   2.643   1.384   1.569  0.0353  0.2160  0.1831
 8466SOL     OW26296   0.420   4.503   4.536 -0.3075  0.1269  0.2314
 8466SOL    HW126297   0.448   4.460   4.450  2.5563 -1.1649  1.6670
 8466SOL    HW226298   0.463   4.593   4.543  1.0110 -0.5417  1.0648
 8467SOL     OW26299   2.893   5.015   1.019 -0.1148 -0.4169  0.4281
 8467SOL    HW126300   2.971   4.953   1.019  0.6818  0.5404 -0.5977
 8467SOL    HW226301   2.918   5.101   0.974 -2.0826 -0.5145 -1.0168
 8468SOL     OW26302   4.835   2.056   6.036 -0.2787 -0.2061 -0.3990
 8468SOL    HW126303   4.867   2.053   5.941 -1.7756  0.2132 -0.9386
 8468SOL    HW226304   4.914   2.050   6.097  0.6786 -1.0472 -1.6475
 8469SOL     OW26305   3.161   2.724   6.581  0.7149  0.0090 -0.6387
 8469SOL    HW126306   3.167   2.816   6.617  0.0377 -0.6345  1.2477
 8469SOL    HW226307   3.083   2.718   6.518  0.7307  0.6999 -0.7277
 8470SOL     OW26308   1.544   4.482   2.370 -0.0433  0.0422  0.4932
 8470SOL    HW126309   1.512   4.463   2.277 -1.2549  2.1355  0.4164
 8470SOL    HW226310   1.631   4.436   2.385 -0.4119 -1.3420 -1.2421
 8471SOL     OW26311   3.514   6.869   4.490 -0.1565  0.1504 -0.2633
 8471SOL    HW126312   3.612   6.848   4.494 -0.5889 -2.2542 -0.7673
 8471SOL    HW226313   3.482   6.858   4.396 -1.3676 -1.5138  0.3071
 8472SOL     OW26314   0.900   6.624   5.172  0.0224 -0.1499 -0.5529
 8472SOL    HW126315   0.977   6.659   5.119  1.5811 -1.1363  0.9381
 8472SOL    HW226316   0.898   6.669   5.261 -1.3647  0.0911 -0.6800
 8473SOL     OW26317   4.665   6.901   6.501 -0.3423 -0.2141 -0.0585
 8473SOL    HW126318   4.636   6.997   6.508  1.5352  0.3331  0.7302
 8473SOL    HW226319   4.764   6.897   6.495 -0.4350 -2.0999 -0.9925
 8474SOL     OW26320   4.558   1.930   1.944 -0.7892 -0.5997  0.2139
 8474SOL    HW126321   4.584   1.915   1.849 -1.6287 -1.5700  0.1202
 8474SOL    HW226322   4.622   1.881   2.004 -1.3537 -1.5478  0.0594
 8475SOL     OW26323   0.180   2.040   4.008 -0.1093  0.4168 -0.1193
 8475SOL    HW126324   0.257   1.996   3.963  1.1543  1.7456  0.6726
 8475SOL    HW226325   0.133   1.974   4.066  0.5909 -0.3425 -0.4033
 8476SOL     OW26326   6.175   1.075   1.219  0.7351  0.1095  0.6664
 8476SOL    HW126327   6.220   1.157   1.184 -0.0598  0.6123  0.7940
 8476SOL    HW226328   6.236   1.027   1.282  0.8698  1.1143  1.3198
 8477SOL     OW26329   2.995   6.123   6.173 -0.2486  0.0803  0.7384
 8477SOL    HW126330   3.052   6.190   6.221  0.3177 -0.5022  0.9058
 8477SOL    HW226331   2.904   6.121   6.213 -0.7415  1.7773 -0.2005
 8478SOL     OW26332   1.364   0.910   6.006 -0.3705 -0.1779 -0.0656
 8478SOL    HW126333   1.365   0.913   5.906 -2.9979 -0.1402 -0.1651
 8478SOL    HW226334   1.310   0.832   6.036 -0.9216  0.6822  1.2777
 8479SOL     OW26335   0.179   1.737   6.658  0.2453  0.4166  0.2128
 8479SOL    HW126336   0.134   1.648   6.646 -1.0520  0.7513  2.1167
 8479SOL    HW226337   0.239   1.755   6.580  1.0477 -2.4073  0.0512
 8480SOL     OW26338   3.485   6.882   1.855  0.1040  0.0054  0.3812
 8480SOL    HW126339   3.499   6.791   1.816  0.1387  0.1722 -0.0045
 8480SOL    HW226340   3.450   6.943   1.784  0.0799  0.2911  0.6388
 8481SOL     OW26341   5.387   0.516   2.669  0.1689  0.0814  0.0013
 8481SOL    HW126342   5.415   0.532   2.764  1.1177 -1.2589 -0.0252
 8481SOL    HW226343   5.338   0.429   2.663  2.0524 -0.9893 -1.0377
 8482SOL     OW26344   1.233   6.185   0.652 -0.5032  0.1002 -0.7108
 8482SOL    HW126345   1.216   6.115   0.583  0.1779 -0.3513 -0.4253
 8482SOL    HW226346   1.184   6.160   0.736 -0.3393  0.0166 -0.6402
 8483SOL     OW26347   2.489   6.764   2.862 -0.4341  0.1870 -0.4322
 8483SOL    HW126348   2.479   6.693   2.932 -1.9110  0.6277 -0.1767
 8483SOL    HW226349   2.578   6.808   2.872  0.1101 -0.9554  0.0154
 8484SOL     OW26350   0.561   6.070   2.167  0.3966 -0.5801 -0.5226
 8484SOL    HW126351   0.494   6.143   2.182  0.1221 -0.7933 -0.7092
 8484SOL    HW226352   0.513   5.985   2.147  0.7242 -0.7511 -0.5772
 8485SOL     OW26353   3.659   3.656   6.919 -0.4869 -0.3636 -0.3143
 8485SOL    HW126354   3.685   3.702   6.834  1.2569  0.5489  0.6663
 8485SOL    HW226355   3.708   3.569   6.926  0.2148  0.0649  0.2404
 8486SOL     OW26356   0.407   1.311   1.762  0.3567  0.5529  0.6277
 8486SOL    HW126357   0.323   1.261   1.784  0.1441  0.8698  0.5431
 8486SOL    HW226358   0.387   1.380   1.692  0.9406 -0.1725 -0.2751
 8487SOL     OW26359   5.223   6.280   1.910 -0.1819  0.1085 -0.2574
 8487SOL    HW126360   5.274   6.316   1.832  0.6879 -0.6054 -0.0304
 8487SOL    HW226361   5.188   6.189   1.887 -0.6766  0.2604 -0.1184
 8488SOL     OW26362   5.511   4.490   3.998 -0.4586  0.0550 -0.4182
 8488SOL    HW126363   5.462   4.573   3.971  0.6371  0.7704 -0.2602
 8488SOL    HW226364   5.491   4.470   4.094 -0.8350  0.0550 -0.4949
 8489SOL     OW26365   5.469   4.473   1.479  0.2989 -0.5351  0.4453
 8489SOL    HW126366   5.430   4.403   1.538 -2.1200  0.7296  0.4705
 8489SOL    HW226367   5.562   4.493   1.508 -0.2972 -1.0160  2.8936
 8490SOL     OW26368   6.085   5.438   3.392  0.1584  0.5267  0.1320
 8490SOL    HW126369   6.035   5.525   3.391  2.5243  1.9713 -0.3517
 8490SOL    HW226370   6.086   5.401   3.485  1.8487  2.7758  1.1105
 8491SOL     OW26371   3.365   0.564   3.089 -0.0671  0.1663 -0.0601
 8491SOL    HW126372   3.276   0.559   3.136 -0.1578 -0.4079 -0.2932
 8491SOL    HW226373   3.361   0.635   3.018 -0.2190  0.3961  0.1726
 8492SOL     OW26374   5.540   4.048   5.945 -0.3941 -0.2527 -0.5787
 8492SOL    HW126375   5.594   3.968   5.971 -1.0886 -0.9124 -1.1348
 8492SOL    HW226376   5.546   4.116   6.018  1.9007  0.0910 -0.9989
 8493SOL     OW26377   3.545   1.635   5.233  0.2603 -0.1198 -0.3205
 8493SOL    HW126378   3.466   1.693   5.250  0.2732 -0.4380  0.9001
 8493SOL    HW226379   3.629   1.688   5.245  0.2564  0.1939 -1.5255
 8494SOL     OW26380   2.103   5.987   5.815 -0.2814  0.2641 -0.0561
 8494SOL    HW126381   2.054   5.951   5.736 -2.0953 -1.8685  1.8935
 8494SOL    HW226382   2.199   6.004   5.790 -0.1766 -2.5652 -2.1312
 8495SOL     OW26383   1.835   3.924   0.962 -0.2453  0.3093  0.0395
 8495SOL    HW126384   1.830   3.932   1.062  1.8682  0.6158  0.1748
 8495SOL    HW226385   1.802   3.834   0.935  1.3966 -0.7498  1.3165
 8496SOL     OW26386   2.224   0.765   2.117 -0.2566  0.5541  0.3602
 8496SOL    HW126387   2.228   0.782   2.215 -0.3624  0.5647  0.3631
 8496SOL    HW226388   2.226   0.852   2.067 -0.0277  0.5404  0.3468
 8497SOL     OW26389   6.840   5.412   3.482  0.5145 -0.1771  0.6350
 8497SOL    HW126390   6.926   5.364   3.461  0.0500  0.1564 -2.3775
 8497SOL    HW226391   6.817   5.474   3.408 -1.2781  1.3686  2.3781
 8498SOL     OW26392   0.990   6.902   2.335 -0.3204  0.4496  0.3485
 8498SOL    HW126393   0.976   6.828   2.270  0.7886  1.2253 -0.8243
 8498SOL    HW226394   1.074   6.887   2.387 -0.7646  0.2511  1.0162
 8499SOL     OW26395   4.054   4.402   1.179  0.2723  0.3172 -0.3078
 8499SOL    HW126396   3.973   4.450   1.213  0.9107  0.8420  0.4950
 8499SOL    HW226397   4.037   4.304   1.180  0.2915  0.2915  1.6590
 8500SOL     OW26398   1.663   5.799   6.934  0.1105 -0.9082  0.1168
 8500SOL    HW126399   1.604   5.828   6.859  1.3058  0.2554 -0.4072
 8500SOL    HW226400   1.672   5.874   7.000  0.3216 -1.3855  0.6441
 8501SOL     OW26401   1.520   2.672   5.137  0.1441 -0.3803  0.1809
 8501SOL    HW126402   1.572   2.756   5.153 -2.8995  1.9501 -1.2033
 8501SOL    HW226403   1.570   2.614   5.072  2.0335  0.6064  0.6737
 8502SOL     OW26404   0.128   0.262   2.509 -0.5441  0.1017 -0.5618
 8502SOL    HW126405   0.087   0.214   2.432  1.9424 -0.5096 -1.6211
 8502SOL    HW226406   0.058   0.286   2.576 -2.4644 -1.2065 -2.0258
 8503SOL     OW26407   1.178   5.754   2.942  0.0542  0.3016 -0.5015
 8503SOL    HW126408   1.081   5.761   2.922  0.0161  0.8054 -0.1660
 8503SOL    HW226409   1.222   5.696   2.873 -0.4184  0.3540 -0.8560
 8504SOL     OW26410   1.818   0.422   6.110  0.2619 -0.5363 -0.1288
 8504SOL    HW126411   1.760   0.341   6.121 -1.3927  0.7725  1.2124
 8504SOL    HW226412   1.765   0.495   6.068  1.9678 -0.3276 -2.0886
 8505SOL     OW26413   4.889   3.885   4.055 -0.1366 -0.1172 -0.7331
 8505SOL    HW126414   4.983   3.903   4.025 -0.4056  0.4767 -1.2504
 8505SOL    HW226415   4.880   3.909   4.152  0.4854 -1.1038 -0.4151
 8506SOL     OW26416   1.600   6.487   4.650  0.0533  0.9988 -0.1755
 8506SOL    HW126417   1.520   6.545   4.638 -0.2133  0.6202 -0.2276
 8506SOL    HW226418   1.604   6.455   4.745 -2.5628 -2.8875 -1.1498
 8507SOL     OW26419   3.021   2.128   6.463  0.1958  0.4355 -0.4736
 8507SOL    HW126420   2.933   2.148   6.507 -0.6111 -2.1428 -0.7478
 8507SOL    HW226421   3.060   2.212   6.426 -0.6357  2.1839  2.3321
 8508SOL     OW26422   4.955   1.757   5.055 -0.3106 -0.2951  0.4142
 8508SOL    HW126423   4.957   1.788   5.150 -1.3951 -1.0016  0.6916
 8508SOL    HW226424   4.863   1.769   5.018  0.3995  1.1787 -0.9852
 8509SOL     OW26425   5.874   1.698   2.532  0.0778 -0.5238 -0.2208
 8509SOL    HW126426   5.892   1.736   2.623  1.1005  0.6828 -0.8978
 8509SOL    HW226427   5.832   1.608   2.542 -0.3748 -0.1738  1.4382
 8510SOL     OW26428   5.930   0.010   2.206  0.0279  0.0774 -0.0535
 8510SOL    HW126429   6.012   0.067   2.210 -0.2541  0.5881 -1.0803
 8510SOL    HW226430   5.893   0.013   2.113  0.7622 -2.8452 -0.5642
 8511SOL     OW26431   5.113   2.945   0.018  0.3170  0.1767  0.2007
 8511SOL    HW126432   5.085   2.859   0.061  2.4014 -1.1903 -0.9599
 8511SOL    HW226433   5.103   2.936  -0.081 -1.8448  2.2644  0.1550
 8512SOL     OW26434   3.390   0.363   6.872 -0.5560 -0.4829  0.0031
 8512SOL    HW126435   3.477   0.354   6.823  0.0438 -2.2946  1.2533
 8512SOL    HW226436   3.371   0.459   6.889  2.3751 -0.0514  1.5911
 8513SOL     OW26437   5.275   4.769   0.190 -0.3535  0.3204  0.9830
 8513SOL    HW126438   5.195   4.716   0.219  0.7652 -0.9542  1.8339
 8513SOL    HW226439   5.343   4.770   0.263  0.1031  2.0920  0.5820
 8514SOL     OW26440   4.194   2.301   4.718 -0.1260  0.1379  0.0391
 8514SOL    HW126441   4.168   2.362   4.793  0.8402  0.7350 -0.0911
 8514SOL    HW226442   4.115   2.283   4.660 -0.5844  0.7010  0.4841
 8515SOL     OW26443   0.013   1.333   0.328 -0.4773  0.5603 -0.3139
 8515SOL    HW126444   0.004   1.381   0.241 -0.2667  1.8082  0.3294
 8515SOL    HW226445  -0.037   1.383   0.399 -2.8632 -1.8125 -0.1786
 8516SOL     OW26446   5.301   3.765   2.033 -0.2043 -0.5252 -0.2981
 8516SOL    HW126447   5.347   3.715   1.960 -0.6042  0.9936 -1.6520
 8516SOL    HW226448   5.368   3.794   2.101  0.3529 -0.9798 -0.6470
 8517SOL     OW26449   3.065   2.182   0.837 -0.6583  0.2682 -0.6553
 8517SOL    HW126450   3.021   2.268   0.863 -0.3502  0.3090 -0.2427
 8517SOL    HW226451   3.051   2.114   0.909 -0.5948  0.0844 -0.8147
 8518SOL     OW26452   3.903   4.829   5.568  0.6395  0.3493  0.4171
 8518SOL    HW126453   3.973   4.762   5.594 -1.3312 -2.5989 -1.2843
 8518SOL    HW226454   3.884   4.821   5.470 -1.1726  1.9798  0.5705
 8519SOL     OW26455   0.748   5.828   0.009  0.1161 -0.1073 -0.5194
 8519SOL    HW126456   0.806   5.811   0.089 -0.6169 -0.9299 -0.1508
 8519SOL    HW226457   0.789   5.784  -0.071  1.6473  1.9614 -0.9671
 8520SOL     OW26458   3.242   3.640   5.582  0.0694 -0.6175 -0.5638
 8520SOL    HW126459   3.254   3.611   5.677 -0.0082 -0.0981 -0.3905
 8520SOL    HW226460   3.290   3.576   5.521  3.1984  0.9320  0.0376
 8521SOL     OW26461   6.550   1.022   6.167 -0.4113  0.0827 -0.3085
 8521SOL    HW126462   6.513   0.983   6.082 -0.1646  0.6474 -0.6795
 8521SOL    HW226463   6.646   0.997   6.174 -0.4650 -0.0735 -0.1255
 8522SOL     OW26464   1.066   6.804   6.519  0.1083  0.0061 -0.5310
 8522SOL    HW126465   1.153   6.776   6.478  0.4044  0.7258 -0.3929
 8522SOL    HW226466   1.005   6.724   6.525  0.6291 -0.4266 -0.9414
 8523SOL     OW26467   3.381   5.193   5.575  0.4055  0.1146  0.0221
 8523SOL    HW126468   3.299   5.195   5.518  0.3481  0.1381  0.1057
 8523SOL    HW226469   3.453   5.143   5.527 -0.7328 -3.0760  1.3943
 8524SOL     OW26470   0.072   4.072   5.074 -0.4486  0.1711 -0.2854
 8524SOL    HW126471   0.016   4.080   4.992  2.2988  3.1054 -2.1017
 8524SOL    HW226472   0.119   4.158   5.092  1.5750 -1.3358  2.5200
 8525SOL     OW26473   6.212   4.676   1.286 -0.5848 -0.5716 -0.5712
 8525SOL    HW126474   6.291   4.705   1.233 -0.7341  0.3893 -0.2819
 8525SOL    HW226475   6.128   4.707   1.241 -0.7323 -0.2175 -0.0706
 8526SOL     OW26476   3.041   6.240   0.841  0.8660 -0.1089  0.1263
 8526SOL    HW126477   3.046   6.282   0.932  2.6064 -0.7468  0.3772
 8526SOL    HW226478   2.998   6.304   0.777 -2.1360 -0.3453  1.7265
 8527SOL     OW26479   6.601   6.100   6.044 -0.8052  0.5728  0.5785
 8527SOL    HW126480   6.687   6.103   5.993 -0.1712  0.8542  1.6332
 8527SOL    HW226481   6.618   6.123   6.140 -1.7146 -1.3135  1.2497
 8528SOL     OW26482   3.549   1.809   1.263  0.3164  0.2965  0.1197
 8528SOL    HW126483   3.567   1.725   1.313  0.0576  0.3215  0.2603
 8528SOL    HW226484   3.456   1.840   1.282  0.3495  0.5207 -0.0674
 8529SOL     OW26485   0.619   0.074   5.500  0.2132 -0.2979 -0.0278
 8529SOL    HW126486   0.639   0.126   5.583  1.7702 -0.4173 -0.2849
 8529SOL    HW226487   0.705   0.049   5.455 -0.5466  1.9089 -3.0286
 8530SOL     OW26488   3.775   2.934   5.407 -0.1265 -0.1126 -0.0484
 8530SOL    HW126489   3.742   2.839   5.406 -0.8078  0.1127  0.4280
 8530SOL    HW226490   3.703   2.994   5.440  0.5871  0.4644  0.5176
 8531SOL     OW26491   6.109   4.321   4.464  0.4030  0.0255  0.0953
 8531SOL    HW126492   6.075   4.228   4.451 -0.9227  0.6429 -1.1834
 8531SOL    HW226493   6.189   4.336   4.407 -1.2033  0.5511 -2.1683
 8532SOL     OW26494   5.287   0.581   4.093 -0.5566  0.0244 -0.5635
 8532SOL    HW126495   5.219   0.655   4.097  0.9359  1.4251  1.7170
 8532SOL    HW226496   5.375   0.618   4.064  0.2289 -0.8104  0.6417
 8533SOL     OW26497   4.578   0.876   6.879  0.5876 -0.0389 -0.0433
 8533SOL    HW126498   4.546   0.847   6.789  1.2414  1.2030 -0.7064
 8533SOL    HW226499   4.591   0.975   6.879 -1.3915  0.3215  2.0550
 8534SOL     OW26500   4.148   0.881   6.148  0.0977  0.3129 -0.1060
 8534SOL    HW126501   4.070   0.930   6.111  0.0039  0.9658  0.9100
 8534SOL    HW226502   4.175   0.922   6.235 -2.1219 -3.4284  2.6393
 8535SOL     OW26503   4.981   1.335   5.038  0.5986  0.6587  0.5703
 8535SOL    HW126504   4.892   1.334   4.993 -0.3658 -0.1938  2.4144
 8535SOL    HW226505   5.036   1.410   5.001 -0.0932 -0.0201 -2.0237
 8536SOL     OW26506   6.310   3.992   3.477 -0.1796  0.2402 -0.4078
 8536SOL    HW126507   6.358   3.921   3.529  0.1155  0.7008 -0.0505
 8536SOL    HW226508   6.212   3.975   3.482 -0.0586 -1.1962 -1.8388
 8537SOL     OW26509   6.592   1.441   3.592  0.0832  0.0859 -0.1516
 8537SOL    HW126510   6.575   1.531   3.552  2.0756 -0.2552 -1.8951
 8537SOL    HW226511   6.640   1.384   3.527  3.0847 -0.7019  2.5047
 8538SOL     OW26512   2.168   2.607   0.381 -0.0790  0.4414  0.3859
 8538SOL    HW126513   2.142   2.569   0.292  0.9424  2.5235 -0.8715
 8538SOL    HW226514   2.107   2.571   0.451 -1.2162 -0.9051 -1.2071
 8539SOL     OW26515   6.494   2.316   4.054 -0.3428 -0.2255  0.2684
 8539SOL    HW126516   6.455   2.328   4.146 -1.4392 -2.0134  0.0812
 8539SOL    HW226517   6.565   2.246   4.056 -0.5917 -0.5028 -0.2948
 8540SOL     OW26518   3.214   6.021   0.866  0.0419 -0.2518 -0.1541
 8540SOL    HW126519   3.159   6.104   0.868  0.4057 -0.0216  1.5577
 8540SOL    HW226520   3.277   6.025   0.789 -0.8920  0.4155 -0.9125
 8541SOL     OW26521   1.047   1.776   4.425  0.3694  0.0008  0.5313
 8541SOL    HW126522   0.966   1.812   4.472 -0.0935 -0.5027  0.1414
 8541SOL    HW226523   1.043   1.676   4.423 -0.2449  0.0066 -1.5768
 8542SOL     OW26524   4.716   6.873   5.020 -1.0349 -0.0576 -0.3879
 8542SOL    HW126525   4.616   6.861   5.014 -1.1294 -2.7162  3.1960
 8542SOL    HW226526   4.738   6.918   5.106  0.8969 -0.2454 -0.7551
 8543SOL     OW26527   1.357   1.658   6.983 -0.6941  0.1633 -0.3064
 8543SOL    HW126528   1.307   1.573   6.966 -0.0293 -0.6266  1.3836
 8543SOL    HW226529   1.297   1.724   7.028 -0.3706 -0.7135  1.5377
 8544SOL     OW26530   4.802   3.071   4.622 -0.1493 -0.2626  0.0439
 8544SOL    HW126531   4.807   2.973   4.602 -1.1089 -0.5022  0.9007
 8544SOL    HW226532   4.717   3.108   4.585 -0.5234 -0.0887  1.0519
 8545SOL     OW26533   4.455   0.066   5.671  0.2577  0.4802  0.3405
 8545SOL    HW126534   4.470   0.133   5.598 -0.3925 -0.3376 -0.5686
 8545SOL    HW226535   4.383   0.098   5.732 -0.4241  0.3791 -0.3991
 8546SOL     OW26536   1.741   1.977   3.696  0.3813  0.0553  0.3525
 8546SOL    HW126537   1.730   1.995   3.794  1.4573  0.1197  0.4722
 8546SOL    HW226538   1.692   1.893   3.672 -0.7553  0.6014  0.7282
 8547SOL     OW26539   2.361   4.870   4.187  0.1525  0.7532  0.1056
 8547SOL    HW126540   2.341   4.880   4.285 -0.5512  0.5171 -0.0064
 8547SOL    HW226541   2.458   4.850   4.175  0.5289  2.1589  0.6602
 8548SOL     OW26542   6.780   1.305   5.797  0.4904 -0.2261  0.2500
 8548SOL    HW126543   6.793   1.206   5.792  0.1990 -0.4107  2.2976
 8548SOL    HW226544   6.745   1.338   5.710  0.9431 -1.8608 -0.5944
 8549SOL     OW26545   6.730   4.091   3.048  0.3216  0.0389  0.2408
 8549SOL    HW126546   6.643   4.062   3.087  0.3083 -2.2348 -1.3166
 8549SOL    HW226547   6.800   4.023   3.069  0.9857  0.2580 -1.1488
 8550SOL     OW26548   1.528   4.799   0.082 -0.3648 -0.2543  0.1920
 8550SOL    HW126549   1.434   4.765   0.075  0.1521 -1.9840  1.0373
 8550SOL    HW226550   1.561   4.787   0.175  0.6446  0.5221 -0.0446
 8551SOL     OW26551   2.807   3.750   0.132  0.4554 -0.4020 -0.5670
 8551SOL    HW126552   2.768   3.706   0.213 -1.7853  1.4633 -0.5432
 8551SOL    HW226553   2.756   3.722   0.051  0.8268 -0.0453 -0.9305
 8552SOL     OW26554   3.132   6.899   2.252  0.6080 -0.5066 -0.3269
 8552SOL    HW126555   3.147   6.872   2.157  0.1011 -0.4284 -0.4327
 8552SOL    HW226556   3.052   6.959   2.258  0.0779 -1.2561  0.2644
 8553SOL     OW26557   5.157   6.361   6.553  0.5017  0.0515 -0.0177
 8553SOL    HW126558   5.245   6.313   6.557  0.4356 -0.1995 -1.1746
 8553SOL    HW226559   5.104   6.325   6.477 -0.7666 -0.0509  0.8832
 8554SOL     OW26560   1.829   5.140   5.343  0.1377 -0.2706  0.4815
 8554SOL    HW126561   1.740   5.093   5.336 -0.2570  0.6118 -0.6245
 8554SOL    HW226562   1.854   5.178   5.254  0.8375  0.9324  1.1728
 8555SOL     OW26563   0.737   0.427   2.491 -0.4107  0.3838  0.1532
 8555SOL    HW126564   0.672   0.492   2.452  0.6306  1.9926  1.0124
 8555SOL    HW226565   0.830   0.459   2.476  0.2433 -1.8348 -0.9617
 8556SOL     OW26566   0.446   2.276   1.684  0.3147 -0.3666  0.0634
 8556SOL    HW126567   0.529   2.240   1.639 -0.2363 -1.0062 -0.4784
 8556SOL    HW226568   0.414   2.356   1.634  0.2948 -0.4515 -0.0615
 8557SOL     OW26569   0.988   4.860   6.604  0.2169  0.4884  0.0245
 8557SOL    HW126570   0.916   4.827   6.665 -1.5797  1.8853 -1.2673
 8557SOL    HW226571   1.050   4.920   6.656  0.2791 -0.4315  1.0565
 8558SOL     OW26572   1.694   6.281   2.439 -0.3936 -0.2916  0.4374
 8558SOL    HW126573   1.651   6.339   2.508  0.9841 -0.1778  1.2629
 8558SOL    HW226574   1.781   6.323   2.410 -0.3321 -0.9793 -0.4094
 8559SOL     OW26575   1.226   0.672   1.001  0.0564  0.2561  0.2861
 8559SOL    HW126576   1.231   0.574   0.979  2.6400  0.3234  0.2074
 8559SOL    HW226577   1.265   0.725   0.925 -2.0822  1.4793 -0.0535
 8560SOL     OW26578   6.449   1.313   6.961 -0.4952  0.1304  0.7286
 8560SOL    HW126579   6.498   1.246   6.906  1.8129  2.8254 -0.7485
 8560SOL    HW226580   6.452   1.287   7.057  3.3838 -0.2563  0.6468
 8561SOL     OW26581   5.566   5.946   3.184  0.0079  0.9559  0.0741
 8561SOL    HW126582   5.587   5.974   3.277 -0.2555  1.0393  0.1077
 8561SOL    HW226583   5.531   5.853   3.184  0.1332  0.9085  0.0441
 8562SOL     OW26584   3.618   5.787   4.808 -0.2539  0.6076  0.0790
 8562SOL    HW126585   3.591   5.736   4.727  1.8462 -0.4284 -0.0444
 8562SOL    HW226586   3.637   5.724   4.883  1.1949  1.2477  0.2958
 8563SOL     OW26587   1.780   1.904   6.701 -0.1167  0.3670  0.2832
 8563SOL    HW126588   1.708   1.901   6.771  0.5454  0.5449  0.9828
 8563SOL    HW226589   1.866   1.932   6.743  0.5194 -0.4671 -0.4226
 8564SOL     OW26590   1.011   1.488   4.243 -0.2557  0.3963 -0.9270
 8564SOL    HW126591   0.925   1.523   4.280  0.8009  0.0957  2.1153
 8564SOL    HW226592   1.025   1.394   4.275  2.3851  1.3104  0.9498
 8565SOL     OW26593   3.894   0.238   1.689  0.2671  0.1917  0.5415
 8565SOL    HW126594   3.970   0.199   1.637 -1.6046 -2.1277 -0.6991
 8565SOL    HW226595   3.869   0.327   1.650  1.0665  0.0445 -0.3457
 8566SOL     OW26596   1.296   0.899   4.670 -0.1027 -0.6306 -0.1818
 8566SOL    HW126597   1.303   0.988   4.715 -2.1295 -0.2120 -0.5913
 8566SOL    HW226598   1.338   0.904   4.579 -2.0927  0.6076 -1.0926
 8567SOL     OW26599   5.244   3.427   2.321 -0.9557  0.2515  0.4373
 8567SOL    HW126600   5.337   3.399   2.300 -1.3298 -0.1738 -0.7619
 8567SOL    HW226601   5.204   3.473   2.242 -1.6304  0.7911  1.0765
 8568SOL     OW26602   5.612   3.555   1.072 -0.3629 -0.1751 -0.0806
 8568SOL    HW126603   5.519   3.575   1.039 -1.8371 -0.4954  3.4352
 8568SOL    HW226604   5.665   3.640   1.074 -1.5554  0.5812  0.5406
 8569SOL     OW26605   4.780   1.178   4.841  0.0665  0.0281 -0.3399
 8569SOL    HW126606   4.799   1.257   4.783 -0.8630  1.6117  1.3934
 8569SOL    HW226607   4.685   1.180   4.870  0.6089 -0.4186  1.6091
 8570SOL     OW26608   6.208   3.704   5.795 -0.1371 -0.0705  0.1980
 8570SOL    HW126609   6.237   3.767   5.868 -1.0357 -1.4822  1.8529
 8570SOL    HW226610   6.166   3.623   5.836 -1.2778 -0.6343 -1.9373
 8571SOL     OW26611   0.312   3.880   3.536  1.1778  0.1817 -0.6644
 8571SOL    HW126612   0.311   3.867   3.437  0.6385 -0.6217 -0.5581
 8571SOL    HW226613   0.308   3.978   3.556  1.1451  0.3480 -1.4356
 8572SOL     OW26614   1.026   3.496   6.234  0.5356 -0.5118 -0.4826
 8572SOL    HW126615   1.009   3.448   6.320  0.1487  0.5947  0.0680
 8572SOL    HW226616   1.117   3.471   6.200  0.3297 -1.6567 -0.2377
 8573SOL     OW26617   3.657   0.057   0.308 -0.0045 -0.4383  0.7094
 8573SOL    HW126618   3.718  -0.012   0.345  0.7611 -1.0679 -1.5673
 8573SOL    HW226619   3.637   0.037   0.212 -0.4852  2.0046  0.2249
 8574SOL     OW26620   1.623   6.680   5.451 -0.7091  0.1846  0.3923
 8574SOL    HW126621   1.561   6.644   5.381 -2.4663  2.6489  0.5398
 8574SOL    HW226622   1.705   6.718   5.406  0.6541 -2.7791  0.1707
 8575SOL     OW26623   3.498   4.043   5.736 -0.4480  0.6647 -0.2113
 8575SOL    HW126624   3.523   4.067   5.830  0.8302  0.6458 -0.5320
 8575SOL    HW226625   3.457   3.952   5.735  2.2778 -0.6812  0.0153
 8576SOL     OW26626   0.491   6.797   5.947  0.0349  0.1834 -0.1284
 8576SOL    HW126627   0.515   6.774   6.041  0.1443 -1.5545 -0.5610
 8576SOL    HW226628   0.525   6.727   5.885  1.5545  2.1637 -1.6916
 8577SOL     OW26629   6.646   4.828   2.577 -0.1510  0.2086  0.9138
 8577SOL    HW126630   6.713   4.797   2.645  0.7461  1.1835  0.4993
 8577SOL    HW226631   6.665   4.924   2.553  0.0502 -0.3411 -1.3088
 8578SOL     OW26632   5.359   6.213   2.556 -0.4883 -0.3861  0.2477
 8578SOL    HW126633   5.425   6.151   2.513 -1.4072 -0.4121 -1.1940
 8578SOL    HW226634   5.305   6.164   2.624  0.4438 -0.5456  0.8905
 8579SOL     OW26635   0.292   3.489   4.903 -0.4266  0.1627  0.1250
 8579SOL    HW126636   0.365   3.543   4.862  0.5935  1.2334  3.0971
 8579SOL    HW226637   0.229   3.550   4.951 -1.5432 -1.0180  0.2057
 8580SOL     OW26638   1.024   0.481   1.621  0.1017 -0.1997 -0.1563
 8580SOL    HW126639   1.000   0.395   1.666 -0.4298 -0.5406 -1.0586
 8580SOL    HW226640   0.987   0.558   1.674  0.0968 -0.5499  0.3566
 8581SOL     OW26641   2.079   2.090   2.258 -0.0852  0.4318 -0.0037
 8581SOL    HW126642   2.054   2.160   2.191  1.3497  0.1685 -0.8514
 8581SOL    HW226643   2.000   2.030   2.275 -0.8257  1.2299 -0.5191
 8582SOL     OW26644   5.629   4.375   2.685  0.0494  0.1177 -0.1374
 8582SOL    HW126645   5.600   4.297   2.741 -2.7075  0.3193 -1.1162
 8582SOL    HW226646   5.685   4.437   2.740  1.6131 -2.0846  0.8960
 8583SOL     OW26647   6.955   1.106   5.023 -0.2129 -0.2159  0.0150
 8583SOL    HW126648   6.917   1.112   4.931  1.5772 -2.2594 -0.9578
 8583SOL    HW226649   6.932   1.017   5.062  1.4823 -0.5386  0.3350
 8584SOL     OW26650   1.562   3.256   0.449  0.1208 -0.0943  0.6508
 8584SOL    HW126651   1.646   3.206   0.431 -0.0894 -0.2441  0.0811
 8584SOL    HW226652   1.584   3.350   0.474  0.4427  0.0033  0.0225
 8585SOL     OW26653   6.227   1.704   1.122 -0.1856  0.0589  0.3993
 8585SOL    HW126654   6.227   1.804   1.125 -1.4475  0.1334 -0.8855
 8585SOL    HW226655   6.283   1.673   1.046 -0.7123 -0.1605  0.0971
 8586SOL     OW26656   4.086   4.774   2.519 -0.0097 -0.2515  0.4910
 8586SOL    HW126657   4.055   4.814   2.433  3.0697  2.0456  0.2905
 8586SOL    HW226658   4.016   4.787   2.589 -0.5944  2.4225 -0.4720
 8587SOL     OW26659   2.134   3.005   1.522  0.2088 -0.3526 -0.4974
 8587SOL    HW126660   2.184   2.962   1.597  1.8636  0.2778 -1.2067
 8587SOL    HW226661   2.140   2.948   1.441 -0.7736 -0.5658 -0.4409
 8588SOL     OW26662   3.038   1.878   1.382  0.0879 -0.1900 -0.0932
 8588SOL    HW126663   2.964   1.818   1.352  0.0207  0.9533 -2.4691
 8588SOL    HW226664   3.008   1.931   1.462 -1.6148  0.0711 -0.8471
 8589SOL     OW26665   3.973   0.386   4.812 -0.1314 -0.3029 -0.1069
 8589SOL    HW126666   3.896   0.445   4.790 -0.3126  0.0833  1.4352
 8589SOL    HW226667   3.940   0.292   4.825 -0.1305 -0.3933 -0.7360
 8590SOL     OW26668   5.952   5.123   5.146 -0.8032  0.2490  0.0455
 8590SOL    HW126669   5.953   5.149   5.242  2.2424  0.6300  0.0150
 8590SOL    HW226670   5.889   5.181   5.096 -0.5681  1.7359  1.4072
 8591SOL     OW26671   0.647   1.465   6.813 -0.6930  0.3619 -0.1394
 8591SOL    HW126672   0.714   1.434   6.746 -1.6979 -0.3072 -0.8470
 8591SOL    HW226673   0.646   1.565   6.814 -1.1877  0.3887 -1.6658
 8592SOL     OW26674   6.520   3.094   1.166  0.1675  0.1282 -0.2738
 8592SOL    HW126675   6.431   3.141   1.166 -0.8226 -1.6358 -1.6097
 8592SOL    HW226676   6.520   3.024   1.237  1.1711  1.2630  0.8780
 8593SOL     OW26677   2.483   6.482   4.283  0.1132 -0.1739  0.5787
 8593SOL    HW126678   2.566   6.526   4.247  0.9950  0.7142  3.4025
 8593SOL    HW226679   2.509   6.415   4.352 -1.5331  0.1854  1.5972
 8594SOL     OW26680   3.276   3.470   4.513  0.0465  0.3156 -0.2474
 8594SOL    HW126681   3.286   3.518   4.425  0.7353 -0.7230 -0.7579
 8594SOL    HW226682   3.339   3.393   4.516 -1.4722 -0.9572  0.2915
 8595SOL     OW26683   1.551   6.519   2.002  0.0869 -0.3710 -0.4358
 8595SOL    HW126684   1.454   6.495   2.003 -0.0581  0.2076 -0.2728
 8595SOL    HW226685   1.564   6.608   1.958  0.5295 -0.3767 -0.3279
 8596SOL     OW26686   6.133   4.138   2.456  0.1358 -0.3857 -0.3457
 8596SOL    HW126687   6.057   4.073   2.451 -0.9502  0.7136  0.8452
 8596SOL    HW226688   6.208   4.097   2.508 -0.9156 -0.3902  1.2520
 8597SOL     OW26689   2.089   2.220   1.604  0.4307  0.3253  0.3046
 8597SOL    HW126690   2.107   2.127   1.636  2.1530  0.8196  0.8709
 8597SOL    HW226691   1.997   2.248   1.633  0.8549 -0.2805  2.3974
 8598SOL     OW26692   5.768   3.655   1.549  0.4446  0.3348 -0.6936
 8598SOL    HW126693   5.690   3.607   1.509  0.2292  1.0796 -1.1869
 8598SOL    HW226694   5.745   3.751   1.563  0.3476  0.0252  1.7023
 8599SOL     OW26695   0.378   2.681   2.980  0.0318 -0.0809  0.2149
 8599SOL    HW126696   0.459   2.734   3.002  0.5252  0.2301 -2.0911
 8599SOL    HW226697   0.314   2.683   3.057  0.1651  3.5612  0.3749
 8600SOL     OW26698   5.214   2.190   5.777  0.2920 -0.3047 -0.6866
 8600SOL    HW126699   5.306   2.216   5.806  0.4605 -1.7350  0.1212
 8600SOL    HW226700   5.148   2.218   5.847  0.2062 -0.0933 -0.8481
 8601SOL     OW26701   7.002   2.740   3.838  0.0295 -0.1394  0.5830
 8601SOL    HW126702   6.919   2.736   3.783  0.9396 -2.6625 -0.7439
 8601SOL    HW226703   6.982   2.704   3.930 -0.6007  0.5213  0.7229
 8602SOL     OW26704   3.559   6.809   1.458  0.0917  0.4927 -0.3141
 8602SOL    HW126705   3.489   6.769   1.517  1.0015  0.1752  0.5815
 8602SOL    HW226706   3.630   6.852   1.514  0.7362  0.6083 -1.1905
 8603SOL     OW26707   3.398   3.220   1.074 -0.0485 -0.0700  0.4982
 8603SOL    HW126708   3.385   3.299   1.013 -0.4427  1.0387  1.9586
 8603SOL    HW226709   3.378   3.136   1.023 -1.0375  0.8485 -0.7262
 8604SOL     OW26710   3.160   0.627   3.261 -0.5384 -0.0426  0.2449
 8604SOL    HW126711   3.134   0.595   3.352 -0.3482  0.2055  0.3872
 8604SOL    HW226712   3.201   0.718   3.268  1.0342 -0.7105  0.1161
 8605SOL     OW26713   3.574   6.269   3.977 -0.4478 -0.2271  0.0317
 8605SOL    HW126714   3.628   6.254   3.894 -0.8230 -2.0560  0.0661
 8605SOL    HW226715   3.596   6.198   4.044 -2.0515 -0.3657  0.4595
 8606SOL     OW26716   2.766   3.572   6.712  1.0335  0.5715  0.0268
 8606SOL    HW126717   2.791   3.499   6.647 -1.6298  1.0348 -1.6765
 8606SOL    HW226718   2.695   3.629   6.672 -1.8904  0.0372  3.8897
 8607SOL     OW26719   3.417   5.011   0.893  0.1280 -0.2449  0.0743
 8607SOL    HW126720   3.516   5.017   0.881  0.7627 -2.2007  3.2012
 8607SOL    HW226721   3.383   5.096   0.936  0.4307  0.3723 -0.8815
 8608SOL     OW26722   5.903   5.992   2.824 -0.5308  0.2022  0.3867
 8608SOL    HW126723   5.893   5.900   2.864 -0.1020 -0.4610 -0.9671
 8608SOL    HW226724   5.914   5.984   2.725  0.5838  1.6646  0.3572
 8609SOL     OW26725   3.187   5.774   4.813  0.1669  0.6579 -0.1074
 8609SOL    HW126726   3.255   5.710   4.849  1.2346 -0.0563 -3.0889
 8609SOL    HW226727   3.100   5.726   4.801  0.4606  0.2492 -0.6439
 8610SOL     OW26728   1.411   6.207   3.711 -0.5811 -0.3067 -0.6397
 8610SOL    HW126729   1.445   6.275   3.646  0.8370  0.0784  0.4599
 8610SOL    HW226730   1.329   6.164   3.674  0.0149  0.1126 -2.5323
 8611SOL     OW26731   1.950   2.791   5.558 -0.5690  0.1899  0.3769
 8611SOL    HW126732   1.880   2.862   5.570  0.3676  1.2363 -0.2176
 8611SOL    HW226733   2.038   2.825   5.591  0.2313 -0.0820 -1.3523
 8612SOL     OW26734   1.806   3.227   0.343 -0.5961 -0.2928 -0.0604
 8612SOL    HW126735   1.888   3.211   0.397  3.5238  4.0814 -4.0484
 8612SOL    HW226736   1.795   3.152   0.277  0.4699 -0.7438  0.2478
 8613SOL     OW26737   1.786   1.202   0.905  0.1301 -0.1635  0.1328
 8613SOL    HW126738   1.719   1.198   0.979  2.1414  2.2410  2.2610
 8613SOL    HW226739   1.739   1.209   0.817 -2.3549 -0.0698  1.3958
 8614SOL     OW26740   1.068   2.563   3.084  0.5949  0.3564 -0.4436
 8614SOL    HW126741   1.002   2.532   3.152  0.3636  0.5034 -0.6018
 8614SOL    HW226742   1.109   2.649   3.113  1.4302 -0.2144  0.1241
 8615SOL     OW26743   3.965   2.177   5.061  0.4494  0.1359  0.1137
 8615SOL    HW126744   3.969   2.190   5.160  1.4705  2.3696 -0.1719
 8615SOL    HW226745   4.025   2.243   5.016 -0.2380 -0.6234 -2.0306
 8616SOL     OW26746   1.158   4.263   6.034 -0.5806  0.5928 -0.5184
 8616SOL    HW126747   1.191   4.169   6.046 -1.0222  0.3241 -1.3064
 8616SOL    HW226748   1.235   4.324   6.021 -0.1398  0.6918  1.9946
 8617SOL     OW26749   3.238   0.766   0.525 -0.2758  0.3016  0.9875
 8617SOL    HW126750   3.179   0.833   0.480 -0.7669 -0.0132  1.1456
 8617SOL    HW226751   3.321   0.810   0.559  0.9034  0.2904 -1.6419
 8618SOL     OW26752   4.554   1.467   3.472  0.5490 -0.0332 -0.2406
 8618SOL    HW126753   4.468   1.492   3.427 -0.9436 -2.9707  0.7300
 8618SOL    HW226754   4.578   1.373   3.448  1.9963 -0.2303  1.7567
 8619SOL     OW26755   4.792   5.182   5.173 -0.2228 -0.0928 -0.2501
 8619SOL    HW126756   4.881   5.149   5.140 -0.2868 -0.3236 -0.1951
 8619SOL    HW226757   4.806   5.256   5.238 -0.0346 -0.7744  0.4921
 8620SOL     OW26758   4.899   6.789   1.923 -0.6799 -0.0188 -0.3830
 8620SOL    HW126759   4.817   6.828   1.965 -0.7225  0.0621 -0.5363
 8620SOL    HW226760   4.897   6.808   1.825 -0.9433 -0.8442 -0.5430
 8621SOL     OW26761   5.819   0.864   4.336 -0.6200  0.1197 -0.1581
 8621SOL    HW126762   5.893   0.930   4.331 -2.0077  1.6892 -0.9683
 8621SOL    HW226763   5.768   0.876   4.421 -0.8174  0.0334 -0.2631
 8622SOL     OW26764   4.231   4.289   0.376  0.0767 -0.0811 -0.3892
 8622SOL    HW126765   4.301   4.335   0.431 -1.8218  1.8369  0.5285
 8622SOL    HW226766   4.243   4.314   0.280  1.5126 -0.9862 -0.4891
 8623SOL     OW26767   1.007   3.230   1.918  0.2663  0.0008  0.7432
 8623SOL    HW126768   1.091   3.233   1.864 -1.1865 -1.8618 -1.8374
 8623SOL    HW226769   1.022   3.176   2.000  1.5912 -0.3767  0.2750
 8624SOL     OW26770   2.088   5.175   3.778 -0.5584 -0.4315 -0.2645
 8624SOL    HW126771   2.049   5.219   3.859 -0.2613 -0.9254  0.1590
 8624SOL    HW226772   2.160   5.233   3.739  0.1355 -0.7204  0.5448
 8625SOL     OW26773   3.675   1.548   6.411 -0.1301  0.2140 -0.2195
 8625SOL    HW126774   3.705   1.485   6.482  1.8336 -0.7560 -1.8225
 8625SOL    HW226775   3.738   1.625   6.406 -1.6515  1.5782  0.6910
 8626SOL     OW26776   4.113   3.597   4.080  0.3440 -0.2786 -0.7750
 8626SOL    HW126777   4.044   3.645   4.027 -0.3791  1.3514  1.4694
 8626SOL    HW226778   4.204   3.630   4.054 -0.1489  3.8773  1.7748
 8627SOL     OW26779   0.080   0.692   6.646  0.0542  0.3346 -0.4306
 8627SOL    HW126780   0.009   0.622   6.658  1.9755 -1.5993  0.4866
 8627SOL    HW226781   0.136   0.668   6.567  1.4534  0.1196  0.5838
 8628SOL     OW26782   0.499   3.096   6.616 -0.6352 -0.0954 -0.0778
 8628SOL    HW126783   0.521   3.184   6.572 -1.9030  1.3156  1.9554
 8628SOL    HW226784   0.424   3.053   6.567 -0.1902  0.0661 -0.9343
 8629SOL     OW26785   0.264   4.760   4.035  0.3656  0.7461  0.3708
 8629SOL    HW126786   0.244   4.788   3.941  4.2388 -1.5667 -1.3862
 8629SOL    HW226787   0.356   4.789   4.061  0.9049 -1.9617  1.9219
 8630SOL     OW26788   5.924   2.705   3.496 -0.1977  0.3480  0.1613
 8630SOL    HW126789   5.949   2.609   3.483  0.2919  0.3511  1.0114
 8630SOL    HW226790   5.825   2.714   3.497 -0.2498 -0.0484 -0.5946
 8631SOL     OW26791   5.580   5.175   5.693  0.7645 -0.0266  0.2412
 8631SOL    HW126792   5.651   5.200   5.760 -0.5028 -0.1134  1.6725
 8631SOL    HW226793   5.594   5.080   5.665  2.3001  0.5086 -0.9495
 8632SOL     OW26794   4.616   0.678   3.239  0.4028 -0.1161  0.4292
 8632SOL    HW126795   4.535   0.734   3.257  0.2297 -0.2908  0.1924
 8632SOL    HW226796   4.613   0.644   3.145  0.5719 -0.4217  0.5342
 8633SOL     OW26797   5.507   2.662   4.151  1.2141 -0.3046 -0.4603
 8633SOL    HW126798   5.480   2.570   4.179  1.3843 -0.8180 -1.8905
 8633SOL    HW226799   5.504   2.668   4.051  0.2037  1.5677 -0.3419
 8634SOL     OW26800   6.905   3.027   2.155 -0.4430 -0.0380 -0.2844
 8634SOL    HW126801   6.874   3.100   2.094 -0.0285 -0.7931 -1.4322
 8634SOL    HW226802   6.958   3.067   2.230 -2.4838  1.0671  0.6271
 8635SOL     OW26803   5.318   4.491   5.352 -0.0791 -0.3760 -0.0786
 8635SOL    HW126804   5.320   4.457   5.446  1.0180 -1.0317 -0.3229
 8635SOL    HW226805   5.396   4.454   5.301 -1.1863 -0.8514 -1.5202
 8636SOL     OW26806   6.297   5.996   1.130 -0.3066  0.1543  0.4335
 8636SOL    HW126807   6.223   6.042   1.179 -1.4819 -0.8144 -0.3861
 8636SOL    HW226808   6.262   5.913   1.086  1.0713  0.1511 -0.7279
 8637SOL     OW26809   0.761   6.974   0.156 -0.2607 -0.0973 -0.3259
 8637SOL    HW126810   0.777   7.041   0.084  1.7834  0.8378  0.9122
 8637SOL    HW226811   0.847   6.949   0.199 -1.4238 -0.3124  2.0756
 8638SOL     OW26812   2.327   4.927   0.311 -0.3492 -0.5539  0.1037
 8638SOL    HW126813   2.230   4.952   0.305 -0.0525  0.7534  0.5197
 8638SOL    HW226814   2.363   4.912   0.219 -0.8612 -0.7020 -0.0752
 8639SOL     OW26815   5.996   2.829   1.431  1.0042 -0.2069 -0.5385
 8639SOL    HW126816   5.965   2.794   1.519  1.4562 -0.2960 -0.4084
 8639SOL    HW226817   6.094   2.848   1.437  1.1794 -0.8461 -1.2180
 8640SOL     OW26818   5.738   5.078   6.533 -0.0532 -0.0873 -0.0140
 8640SOL    HW126819   5.646   5.117   6.527  0.2520  1.0052  1.6362
 8640SOL    HW226820   5.800   5.147   6.571  1.6863 -0.4579 -2.0213
 8641SOL     OW26821   0.718   3.930   2.239 -0.1596  0.0315 -0.3637
 8641SOL    HW126822   0.719   4.023   2.277 -2.0636 -0.6199  1.4818
 8641SOL    HW226823   0.626   3.893   2.246  1.1516 -3.1941  2.0775
 8642SOL     OW26824   5.641   0.773   0.091  0.0686  0.0981 -0.2284
 8642SOL    HW126825   5.577   0.706   0.128 -0.6499  0.6004 -0.5348
 8642SOL    HW226826   5.641   0.768  -0.009  0.7113 -0.0800 -0.2245
 8643SOL     OW26827   4.568   0.443   0.331  0.7073 -0.0753 -0.8219
 8643SOL    HW126828   4.470   0.426   0.338  0.4986  0.9944 -0.8571
 8643SOL    HW226829   4.606   0.389   0.256 -0.1445  0.5924 -1.7667
 8644SOL     OW26830   4.803   2.305   3.339  0.2700  0.1485 -0.3958
 8644SOL    HW126831   4.721   2.249   3.351  0.1295  0.3272 -0.5386
 8644SOL    HW226832   4.880   2.245   3.314 -0.2962  0.2297 -2.4576
 8645SOL     OW26833   5.047   5.237   2.293  0.1794 -0.2834 -0.4815
 8645SOL    HW126834   5.022   5.171   2.364 -0.1024 -0.2703 -0.5644
 8645SOL    HW226835   5.143   5.260   2.301  0.0773 -0.0471  0.0873
 8646SOL     OW26836   4.978   1.580   1.000 -1.0214  0.3813  0.1188
 8646SOL    HW126837   5.057   1.630   1.035  0.6587 -1.6738 -0.5478
 8646SOL    HW226838   5.008   1.514   0.931 -3.1206 -1.5119  0.9159
 8647SOL     OW26839   5.045   5.608   0.786  0.1804 -0.1026  0.3061
 8647SOL    HW126840   4.982   5.684   0.801  0.3843  0.2884 -0.7562
 8647SOL    HW226841   5.024   5.562   0.700  0.7728 -0.5428  0.3829
 8648SOL     OW26842   4.300   1.502   3.363 -0.3537  0.1216 -0.1979
 8648SOL    HW126843   4.241   1.425   3.390  0.0595 -0.5552 -1.1612
 8648SOL    HW226844   4.244   1.574   3.322 -0.6185 -0.1298 -0.2807
 8649SOL     OW26845   0.483   4.707   5.573 -0.0872  0.0043 -0.0729
 8649SOL    HW126846   0.526   4.677   5.658  1.1910 -1.8373 -1.2770
 8649SOL    HW226847   0.465   4.805   5.577 -0.3659 -0.0995  2.4139
 8650SOL     OW26848   2.535   4.570   4.035  0.2483 -1.1132 -0.4428
 8650SOL    HW126849   2.579   4.648   3.990 -0.5390 -0.2910  0.1645
 8650SOL    HW226850   2.563   4.567   4.131 -1.3365 -0.2839  0.0823
 8651SOL     OW26851   4.870   1.768   5.613 -0.1245 -0.0881 -0.3631
 8651SOL    HW126852   4.915   1.690   5.569 -1.4498 -0.6353 -0.8048
 8651SOL    HW226853   4.919   1.853   5.589  1.3993 -0.7678  0.2201
 8652SOL     OW26854   1.057   3.824   4.125  0.1769  0.4436 -0.7047
 8652SOL    HW126855   1.102   3.848   4.039  0.0173 -0.6028 -1.0905
 8652SOL    HW226856   0.958   3.830   4.114  0.1708  1.8989 -0.1034
 8653SOL     OW26857   0.857   2.045   5.594 -0.3797  0.3218 -0.3147
 8653SOL    HW126858   0.922   2.058   5.670  0.9217  1.4831 -1.5722
 8653SOL    HW226859   0.885   1.965   5.540 -1.0227 -0.2085  0.1184
 8654SOL     OW26860   6.254   0.288   1.510 -0.3044  0.0423 -0.3345
 8654SOL    HW126861   6.201   0.208   1.541  0.1086  0.5552  1.8167
 8654SOL    HW226862   6.229   0.368   1.564  1.6660  0.6271 -0.2107
 8655SOL     OW26863   3.975   5.447   2.920  0.1286 -0.2508 -0.1556
 8655SOL    HW126864   3.923   5.529   2.896 -0.1178 -0.7692 -1.4322
 8655SOL    HW226865   4.030   5.465   3.001 -0.6233  0.8885  0.1170
 8656SOL     OW26866   6.758   1.299   0.179  0.0259  0.1164  0.4468
 8656SOL    HW126867   6.810   1.233   0.125  0.5157 -0.1227  1.1854
 8656SOL    HW226868   6.815   1.379   0.198 -0.9876  1.3811 -1.5475
 8657SOL     OW26869   4.390   5.249   0.783  0.1431  0.5825 -0.2404
 8657SOL    HW126870   4.329   5.196   0.725  1.7299  0.5528 -1.9879
 8657SOL    HW226871   4.388   5.345   0.756 -1.2017  1.1290  1.5819
 8658SOL     OW26872   0.104   2.922   1.490 -0.0094  0.2353  0.4349
 8658SOL    HW126873   0.200   2.912   1.516 -0.1659 -1.4196  0.5058
 8658SOL    HW226874   0.095   2.919   1.390 -0.2043 -2.7268  0.4561
 8659SOL     OW26875   6.267   1.383   1.340 -0.0126  0.0683  0.3889
 8659SOL    HW126876   6.266   1.325   1.421  1.9950 -1.8768 -0.8676
 8659SOL    HW226877   6.359   1.416   1.322 -0.0372 -0.8830 -1.9298
 8660SOL     OW26878   6.151   3.882   0.872 -0.1889  0.9259  0.2304
 8660SOL    HW126879   6.168   3.956   0.938 -0.6592  1.3073 -0.0697
 8660SOL    HW226880   6.218   3.886   0.799  1.2849 -0.4093  1.4237
 8661SOL     OW26881   0.102   3.891   1.944  0.1463  0.4055 -0.0492
 8661SOL    HW126882   0.143   3.930   1.861 -1.1601  1.5181 -0.2132
 8661SOL    HW226883   0.173   3.844   1.997  0.7540 -1.6565 -2.4849
 8662SOL     OW26884   5.448   0.147   1.415 -0.2598  0.2871 -0.4224
 8662SOL    HW126885   5.452   0.056   1.374 -1.8349 -1.4785  2.9300
 8662SOL    HW226886   5.353   0.172   1.433  0.2524  0.3537  2.9447
 8663SOL     OW26887   1.608   4.809   0.362  0.3031 -0.3407 -0.1621
 8663SOL    HW126888   1.657   4.866   0.429  0.2890 -1.7349  1.0843
 8663SOL    HW226889   1.525   4.773   0.404 -0.3461 -0.2661 -1.3572
 8664SOL     OW26890   6.338   6.607   6.626  0.2345 -0.1130 -0.3583
 8664SOL    HW126891   6.421   6.634   6.577 -0.2309 -1.1414 -1.7851
 8664SOL    HW226892   6.291   6.535   6.574 -1.2771  0.0857  0.6839
 8665SOL     OW26893   3.737   5.829   5.324  0.1045  0.7201 -0.3058
 8665SOL    HW126894   3.662   5.873   5.373  0.3330  0.3296  0.3950
 8665SOL    HW226895   3.726   5.730   5.326  0.0571  0.6992 -1.1446
 8666SOL     OW26896   5.069   1.797   5.908 -0.0099 -0.2307 -0.3334
 8666SOL    HW126897   4.978   1.790   5.948  0.3505 -0.6830  0.4185
 8666SOL    HW226898   5.103   1.705   5.887 -0.6817  0.0184 -2.8298
 8667SOL     OW26899   4.928   1.813   2.008  0.4486  0.4188 -0.4106
 8667SOL    HW126900   4.941   1.912   2.014  0.9142  0.4742 -1.9975
 8667SOL    HW226901   4.968   1.779   1.923 -0.2974 -1.0455 -0.2047
 8668SOL     OW26902   6.746   2.310   3.095 -0.4996  0.1138 -0.5057
 8668SOL    HW126903   6.691   2.372   3.039 -1.3165 -0.6105 -0.5116
 8668SOL    HW226904   6.829   2.285   3.044 -0.4700  0.6917 -0.7557
 8669SOL     OW26905   3.797   6.880   5.195 -0.0753 -0.4036  0.3524
 8669SOL    HW126906   3.847   6.825   5.128  1.2582  0.9184  0.2354
 8669SOL    HW226907   3.701   6.888   5.165  0.5732  0.5437 -1.6773
 8670SOL     OW26908   1.532   4.947   2.925  0.1296 -0.0502  0.1408
 8670SOL    HW126909   1.629   4.942   2.948  0.0466  0.2941  0.5796
 8670SOL    HW226910   1.478   4.905   2.998  0.0593 -2.3841 -1.1472
 8671SOL     OW26911   5.969   1.366   2.671 -0.7101  0.5218  0.0308
 8671SOL    HW126912   5.898   1.398   2.608 -0.1627  1.3932 -0.1502
 8671SOL    HW226913   5.980   1.432   2.745 -1.0813 -0.3118  0.8434
 8672SOL     OW26914   2.872   6.094   3.789 -0.3447 -0.9110  0.0558
 8672SOL    HW126915   2.920   6.025   3.843  0.5777 -0.2148  0.1675
 8672SOL    HW226916   2.936   6.135   3.723 -1.1210 -0.8386 -0.6668
 8673SOL     OW26917   0.623   1.580   6.329  0.0443  0.2684 -0.3128
 8673SOL    HW126918   0.564   1.509   6.368 -1.4163  1.2181 -0.7226
 8673SOL    HW226919   0.615   1.664   6.383  0.8282  0.4964 -0.5311
 8674SOL     OW26920   6.743   6.043   1.581 -0.4921 -0.2512 -0.8132
 8674SOL    HW126921   6.749   6.128   1.633  1.2835 -0.7397 -0.1425
 8674SOL    HW226922   6.724   6.064   1.485 -1.6869  0.7819 -0.3771
 8675SOL     OW26923   2.517   0.850   3.985  0.2203  0.0106  0.2519
 8675SOL    HW126924   2.548   0.843   3.890  2.5468 -2.0781  1.0450
 8675SOL    HW226925   2.420   0.827   3.991  0.7325 -3.0082 -1.3276
 8676SOL     OW26926   4.292   6.432   3.164 -0.2158 -0.5379  0.0583
 8676SOL    HW126927   4.267   6.479   3.249  1.5170 -1.7627  1.3294
 8676SOL    HW226928   4.213   6.381   3.130 -1.8390  2.3405 -0.8122
 8677SOL     OW26929   2.634   0.214   0.755 -0.9062  0.1288  0.2058
 8677SOL    HW126930   2.637   0.221   0.655 -0.4864  0.9448  0.2584
 8677SOL    HW226931   2.605   0.123   0.782 -1.7576  0.1349 -0.6647
 8678SOL     OW26932   1.896   1.102   6.929 -0.2692 -0.5665 -0.2612
 8678SOL    HW126933   1.861   1.123   7.020 -1.0838 -0.9853 -0.4735
 8678SOL    HW226934   1.903   1.003   6.919  0.8556 -0.4986 -0.2738
 8679SOL     OW26935   5.362   0.915   4.487  0.1040 -0.4020 -0.3000
 8679SOL    HW126936   5.291   0.983   4.505 -1.6516 -2.8465  3.2230
 8679SOL    HW226937   5.345   0.871   4.398 -2.4593 -0.4672  0.1641
 8680SOL     OW26938   2.621   3.027   6.325 -0.5827  0.2213  0.0613
 8680SOL    HW126939   2.698   3.012   6.263  0.2252  1.6673  0.6613
 8680SOL    HW226940   2.565   3.103   6.291 -0.3964  0.7202  0.8353
 8681SOL     OW26941   4.813   4.139   6.213  0.4884 -0.4365 -0.2251
 8681SOL    HW126942   4.802   4.194   6.296  0.9517  1.0795 -1.1399
 8681SOL    HW226943   4.730   4.085   6.198  0.7736 -1.5129  1.7450
 8682SOL     OW26944   2.463   6.630   3.077  0.1224 -0.1349 -0.1492
 8682SOL    HW126945   2.399   6.555   3.091  1.5700 -1.4378 -0.3020
 8682SOL    HW226946   2.529   6.632   3.152  1.4149 -0.4145 -1.2403
 8683SOL     OW26947   0.707   6.413   2.644 -0.5659 -0.5475 -0.0155
 8683SOL    HW126948   0.647   6.334   2.630  0.0392 -1.1333  0.5779
 8683SOL    HW226949   0.801   6.381   2.660 -0.2319  0.3147 -0.1703
 8684SOL     OW26950   6.607   4.001   6.181 -0.0728 -0.3678  0.4117
 8684SOL    HW126951   6.550   4.075   6.217  0.9106 -0.1081  1.5140
 8684SOL    HW226952   6.702   4.033   6.174  0.2009 -1.2486  0.0426
 8685SOL     OW26953   1.001   2.091   6.536  0.2270  0.4009  0.5492
 8685SOL    HW126954   1.076   2.025   6.527  1.0035  1.4566 -1.2499
 8685SOL    HW226955   0.974   2.097   6.632 -0.9415 -3.6296  0.6759
 8686SOL     OW26956   0.591   3.566   2.321 -0.0669 -0.1833 -0.3359
 8686SOL    HW126957   0.617   3.548   2.226  3.0726  2.2206 -0.0984
 8686SOL    HW226958   0.571   3.664   2.332 -0.7721 -0.4896  1.4263
 8687SOL     OW26959   2.989   5.882   3.616 -0.9432 -0.9962  0.3363
 8687SOL    HW126960   2.970   5.866   3.519  1.7188 -0.1447 -0.4206
 8687SOL    HW226961   3.007   5.979   3.630  0.9464 -1.4236  1.1773
 8688SOL     OW26962   3.217   1.062   6.694  0.1427  0.0820  0.2492
 8688SOL    HW126963   3.211   0.997   6.619  0.2466  0.5232 -0.1509
 8688SOL    HW226964   3.179   1.150   6.665 -0.4687  0.0547  0.9468
 8689SOL     OW26965   4.869   6.583   6.784  0.4337 -0.6461  0.5044
 8689SOL    HW126966   4.869   6.682   6.774 -0.4728 -0.6604  0.2738
 8689SOL    HW226967   4.791   6.555   6.840  0.1873 -1.2908 -0.1369
 8690SOL     OW26968   2.425   0.629   3.767 -0.1554  0.0481  0.0309
 8690SOL    HW126969   2.414   0.594   3.860  0.9177  1.2638  0.6472
 8690SOL    HW226970   2.353   0.592   3.708  0.6993 -2.9076  0.6837
 8691SOL     OW26971   4.196   4.751   6.590 -0.3052 -0.0275 -0.1447
 8691SOL    HW126972   4.208   4.815   6.514 -2.9573 -2.0245 -2.4815
 8691SOL    HW226973   4.268   4.682   6.586 -0.4681 -0.1690 -0.9391
 8692SOL     OW26974   0.653   1.022   3.657  0.0644 -0.0127  0.2261
 8692SOL    HW126975   0.590   1.083   3.705  0.3388 -0.7001  1.4939
 8692SOL    HW226976   0.714   0.978   3.723 -0.9326 -2.6121 -0.4825
 8693SOL     OW26977   5.081   1.749   6.964 -0.0325 -0.2970 -0.5358
 8693SOL    HW126978   5.075   1.658   7.004  2.5666 -1.1001 -1.8114
 8693SOL    HW226979   5.084   1.817   7.037  1.6285 -1.5054  0.5935
 8694SOL     OW26980   5.203   1.986   6.531 -0.4933  0.0185  0.1473
 8694SOL    HW126981   5.113   1.966   6.490  0.2946 -1.2642 -1.0535
 8694SOL    HW226982   5.199   1.969   6.629 -1.0902 -1.9329 -0.1583
 8695SOL     OW26983   3.032   1.798   5.126  0.4821 -0.0820  0.2235
 8695SOL    HW126984   3.012   1.842   5.214 -1.0165 -0.4496  0.0981
 8695SOL    HW226985   3.113   1.840   5.085  0.5743  0.8188  1.2781
 8696SOL     OW26986   2.829   6.242   6.765 -0.6948  0.0681 -0.5130
 8696SOL    HW126987   2.900   6.272   6.702 -2.5362  2.3493 -1.6472
 8696SOL    HW226988   2.798   6.319   6.821 -3.9647 -0.1352 -1.8330
 8697SOL     OW26989   6.819   3.071   5.857  0.2578 -0.0270  0.0056
 8697SOL    HW126990   6.851   3.163   5.835 -0.5977 -0.1580 -1.9735
 8697SOL    HW226991   6.746   3.046   5.795  0.5915 -2.1317  0.3990
 8698SOL     OW26992   5.576   6.336   2.932  0.1009  0.4696 -0.3640
 8698SOL    HW126993   5.574   6.430   2.899  2.4061  1.0999  0.9984
 8698SOL    HW226994   5.618   6.277   2.863  2.0218  1.1939  0.1044
 8699SOL     OW26995   2.144   2.957   3.528  0.0640 -0.2272 -0.6083
 8699SOL    HW126996   2.206   2.922   3.458  0.0931 -1.1438 -0.1444
 8699SOL    HW226997   2.129   3.055   3.514 -1.2648 -0.7012 -2.8885
 8700SOL     OW26998   0.302   2.898   6.565 -0.1899 -0.5927  0.2612
 8700SOL    HW126999   0.281   2.823   6.501 -1.8608 -1.5174  1.8149
 8700SOL    HW227000   0.285   2.868   6.658  0.5782  1.2823  1.0477
 8701SOL     OW27001   1.166   2.339   5.288 -0.5700  0.1675  0.4622
 8701SOL    HW127002   1.108   2.418   5.270 -1.0874 -0.4495 -0.6928
 8701SOL    HW227003   1.261   2.369   5.294 -0.2715  0.5891 -3.3434
 8702SOL     OW27004   6.334   6.345   6.966 -0.3239  0.1443  0.0830
 8702SOL    HW127005   6.260   6.411   6.955  0.0533  0.3123 -1.7757
 8702SOL    HW227006   6.411   6.388   7.012 -0.5023  0.6688 -0.1027
 8703SOL     OW27007   1.636   5.575   2.681  0.1090  0.2886  0.1323
 8703SOL    HW127008   1.683   5.500   2.728 -0.7026 -0.1966  0.1827
 8703SOL    HW227009   1.682   5.593   2.594 -0.2089 -0.8659 -0.2891
 8704SOL     OW27010   0.660   2.142   1.147  0.0200 -0.1298 -0.3044
 8704SOL    HW127011   0.614   2.186   1.223 -0.1703 -2.1918  0.8419
 8704SOL    HW227012   0.743   2.096   1.179  0.7604  0.2241 -1.6233
 8705SOL     OW27013   5.860   1.134   6.381  0.3893 -0.6053  1.0282
 8705SOL    HW127014   5.860   1.212   6.318  0.6130 -1.7078 -0.3809
 8705SOL    HW227015   5.768   1.094   6.384  0.2750 -0.3226  1.7545
 8706SOL     OW27016   4.602   1.144   6.915  0.0727  0.4028 -0.4723
 8706SOL    HW127017   4.680   1.169   6.973 -0.6395  1.1702  0.1858
 8706SOL    HW227018   4.518   1.147   6.969 -0.3731 -0.9679 -1.0230
 8707SOL     OW27019   4.419   3.110   0.611  0.2220 -0.2754  0.1873
 8707SOL    HW127020   4.394   3.104   0.514 -0.2556 -0.6182  0.3244
 8707SOL    HW227021   4.453   3.021   0.642 -0.5542 -0.4433  0.5754
 8708SOL     OW27022   2.820   1.150   2.370 -0.1988 -0.2983  0.0827
 8708SOL    HW127023   2.798   1.237   2.326  0.2737 -0.8727 -1.3515
 8708SOL    HW227024   2.776   1.146   2.460  0.5020  1.7753  0.5723
 8709SOL     OW27025   6.902   5.092   5.874  0.3456  0.3558  0.9002
 8709SOL    HW127026   6.973   5.033   5.912  1.1562  0.3944 -0.5077
 8709SOL    HW227027   6.910   5.095   5.775 -1.4887  0.5540  0.7228
 8710SOL     OW27028   1.848   1.960   4.161  0.0718  0.4400 -0.1790
 8710SOL    HW127029   1.864   1.869   4.122  1.8235  0.9389 -0.7250
 8710SOL    HW227030   1.837   1.952   4.260 -1.2819 -0.5047 -0.3793
 8711SOL     OW27031   1.211   5.581   1.664 -0.1554 -0.3768 -0.6537
 8711SOL    HW127032   1.300   5.540   1.681 -0.6082 -0.5331  1.7137
 8711SOL    HW227033   1.221   5.661   1.605  1.4561 -0.7507 -0.9175
 8712SOL     OW27034   2.096   3.560   4.171 -0.0716  0.2202  0.1341
 8712SOL    HW127035   2.123   3.577   4.266  0.0275  0.6610  0.0319
 8712SOL    HW227036   2.002   3.591   4.156 -0.2364 -0.2534  0.2001
 8713SOL     OW27037   0.863   2.800   3.051 -0.2660  0.2120  0.2118
 8713SOL    HW127038   0.937   2.745   3.013 -0.1872  0.2340  0.3354
 8713SOL    HW227039   0.848   2.776   3.147  0.3815  1.0377  0.5362
 8714SOL     OW27040   0.957   3.042   6.265  0.1772 -0.1979 -0.1301
 8714SOL    HW127041   0.920   3.135   6.256  1.6154  0.6150  1.6734
 8714SOL    HW227042   0.929   3.004   6.353  0.9416 -0.8498 -0.1618
 8715SOL     OW27043   6.013   0.674   1.020  0.3058 -0.0508 -0.7813
 8715SOL    HW127044   5.975   0.729   1.095  0.9386  0.5330 -0.8721
 8715SOL    HW227045   5.942   0.657   0.951  0.0687  0.5653 -0.6960
 8716SOL     OW27046   3.102   1.818   1.701  0.1347 -0.8460  0.2081
 8716SOL    HW127047   3.104   1.821   1.801  0.0145 -0.5624  0.2044
 8716SOL    HW227048   3.034   1.752   1.671  0.0207 -0.7784  0.3151
 8717SOL     OW27049   3.310   4.115   2.170 -0.5707  0.1371  0.0516
 8717SOL    HW127050   3.353   4.194   2.126  0.7299 -1.1672 -1.1213
 8717SOL    HW227051   3.314   4.036   2.108  0.8640 -1.6495  2.2725
 8718SOL     OW27052   6.927   4.297   5.977 -0.7193  0.2980 -0.2007
 8718SOL    HW127053   6.969   4.387   5.971  0.0802 -0.0633 -0.0598
 8718SOL    HW227054   6.968   4.236   5.910 -0.3335 -0.3299  0.5941
 8719SOL     OW27055   1.798   2.544   5.570 -0.8345 -0.0055 -0.2335
 8719SOL    HW127056   1.747   2.523   5.486 -0.1601 -0.7497 -0.4639
 8719SOL    HW227057   1.846   2.631   5.558 -0.9567  0.0252 -0.5178
 8720SOL     OW27058   6.794   5.646   5.440  0.4020  0.2821 -0.3098
 8720SOL    HW127059   6.805   5.691   5.352 -2.2362 -1.1721 -1.5061
 8720SOL    HW227060   6.728   5.698   5.496  1.4401  0.7490  0.5269
 8721SOL     OW27061   6.829   1.601   3.531 -0.2140  0.0887  0.2222
 8721SOL    HW127062   6.859   1.672   3.594 -0.1799 -0.4788  0.8513
 8721SOL    HW227063   6.881   1.517   3.548  1.4160  0.5356 -2.0423
 8722SOL     OW27064   1.504   1.704   0.495  0.0313  0.1894  0.1467
 8722SOL    HW127065   1.505   1.728   0.398  0.1804 -1.4589 -0.2940
 8722SOL    HW227066   1.578   1.751   0.542  0.2805  0.6098 -0.6476
 8723SOL     OW27067   5.371   6.628   0.348  0.1596  0.3278 -0.4057
 8723SOL    HW127068   5.457   6.664   0.310  0.3274  0.0712 -0.2741
 8723SOL    HW227069   5.335   6.558   0.287  0.6397 -0.3714  0.1014
 8724SOL     OW27070   5.718   0.170   4.850  0.0778 -0.2444  0.2517
 8724SOL    HW127071   5.772   0.253   4.837  1.5418 -1.1037  0.6011
 8724SOL    HW227072   5.732   0.136   4.943  1.2600 -2.0503 -0.5398
 8725SOL     OW27073   0.775   6.392   6.609  0.3731 -0.4578 -0.1347
 8725SOL    HW127074   0.686   6.358   6.578 -1.7644  1.6157  3.0614
 8725SOL    HW227075   0.779   6.388   6.709  2.7051  2.1929 -0.0053
 8726SOL     OW27076   5.219   0.260   0.159  0.4883  0.3098 -0.1934
 8726SOL    HW127077   5.249   0.345   0.116  1.3797 -0.0618 -0.3293
 8726SOL    HW227078   5.275   0.242   0.240 -0.4186  0.4085  0.4754
 8727SOL     OW27079   0.361   5.406   2.449  0.3777  0.2556 -0.4933
 8727SOL    HW127080   0.355   5.400   2.549 -1.0144  0.9202 -0.5081
 8727SOL    HW227081   0.421   5.334   2.415 -0.6524 -1.2310  0.6850
 8728SOL     OW27082   4.945   6.274   4.305  0.0533  0.6028  0.2199
 8728SOL    HW127083   5.011   6.237   4.371  2.5910  0.0371 -2.4024
 8728SOL    HW227084   4.888   6.201   4.269  1.3686  0.1221 -0.9936
 8729SOL     OW27085   5.094   5.260   3.092  0.8616  0.5964  0.0280
 8729SOL    HW127086   5.031   5.291   3.163  1.0591 -1.0160  0.9461
 8729SOL    HW227087   5.126   5.168   3.113  2.4074  0.8108 -1.1767
 8730SOL     OW27088   0.153   4.599   1.921  0.1383 -0.3496  0.4237
 8730SOL    HW127089   0.191   4.662   1.989  0.7771 -1.6650  1.3211
 8730SOL    HW227090   0.158   4.506   1.955 -0.4878 -0.9441 -1.0182
 8731SOL     OW27091   2.808   1.306   2.640 -0.3213 -0.1195  0.6955
 8731SOL    HW127092   2.733   1.260   2.591  0.2889  0.0685 -0.4602
 8731SOL    HW227093   2.798   1.291   2.738 -1.2191 -1.0876  0.4786
 8732SOL     OW27094   5.421   4.307   1.678  0.0595  0.5197 -0.2107
 8732SOL    HW127095   5.332   4.269   1.702 -0.0527  0.5101 -0.6383
 8732SOL    HW227096   5.454   4.364   1.753 -0.8242  1.4399 -0.5047
 8733SOL     OW27097   5.669   6.179   2.742  0.0185 -0.3538  0.0971
 8733SOL    HW127098   5.669   6.101   2.804 -3.8619 -0.4231  0.2891
 8733SOL    HW227099   5.612   6.158   2.662 -1.7223  2.3556  0.4706
 8734SOL     OW27100   2.229   5.154   2.562  0.2682  0.4346  0.0208
 8734SOL    HW127101   2.237   5.192   2.469  1.5780 -0.7305 -0.3755
 8734SOL    HW227102   2.302   5.087   2.577 -1.1814 -0.9569  1.1574
 8735SOL     OW27103   1.543   2.580   5.698  0.2149  0.5587 -0.5071
 8735SOL    HW127104   1.619   2.561   5.636 -1.1657 -0.7677 -1.8997
 8735SOL    HW227105   1.528   2.679   5.702  0.0237  0.6870 -2.7918
 8736SOL     OW27106   2.114   5.630   1.531  0.4072  0.0628 -0.4769
 8736SOL    HW127107   2.085   5.725   1.544 -0.0684 -0.2877  1.2510
 8736SOL    HW227108   2.189   5.609   1.593  0.0088 -0.8984 -0.2940
 8737SOL     OW27109   4.480   5.628   5.976  0.3083 -0.1156 -0.1488
 8737SOL    HW127110   4.487   5.695   5.901  0.2542 -0.4601 -0.4673
 8737SOL    HW227111   4.559   5.637   6.036 -0.0986  0.7739  0.2681
 8738SOL     OW27112   1.070   2.033   5.015  0.2234 -0.0695 -0.1363
 8738SOL    HW127113   0.996   1.985   5.063  0.2687  0.5588  0.5854
 8738SOL    HW227114   1.134   2.070   5.082  0.3411  0.7482 -0.6905
 8739SOL     OW27115   0.030   3.551   6.190 -0.3274 -0.4486  0.0032
 8739SOL    HW127116   0.116   3.563   6.240 -0.3954  0.7477 -0.1351
 8739SOL    HW227117  -0.034   3.497   6.245  0.0879 -0.3231  0.6130
 8740SOL     OW27118   2.971   1.598   5.964 -0.6097  0.1877  0.5801
 8740SOL    HW127119   2.913   1.522   5.990 -0.6600  0.2309  0.5932
 8740SOL    HW227120   2.961   1.672   6.030 -2.2771  1.1058 -0.6264
 8741SOL     OW27121   2.985   0.520   2.708  0.0727  0.0128 -0.2818
 8741SOL    HW127122   3.025   0.544   2.797 -0.5624  0.1187 -0.0200
 8741SOL    HW227123   2.974   0.603   2.653 -1.8636  0.3478  0.5168
 8742SOL     OW27124   4.204   5.830   2.459 -0.1921  0.2575 -0.0851
 8742SOL    HW127125   4.287   5.864   2.503  0.1706 -0.9881  0.2144
 8742SOL    HW227126   4.217   5.827   2.360  0.2033 -0.1319 -0.0250
 8743SOL     OW27127   0.980   5.567   2.471  0.7857 -0.4364 -0.4497
 8743SOL    HW127128   1.056   5.632   2.469  0.3163  0.1208 -2.3790
 8743SOL    HW227129   0.898   5.612   2.436 -0.2931 -1.2386  0.9355
 8744SOL     OW27130   3.773   2.089   1.586  0.2821  0.6423 -0.2645
 8744SOL    HW127131   3.736   2.065   1.496 -0.7831 -0.4742  0.4318
 8744SOL    HW227132   3.803   2.184   1.586 -0.0124  0.7519 -1.7006
 8745SOL     OW27133   6.470   2.183   6.165 -0.6229 -0.1666  0.0178
 8745SOL    HW127134   6.383   2.139   6.186  0.2790 -2.3502 -0.4773
 8745SOL    HW227135   6.534   2.166   6.240 -0.2696  0.3521 -0.1660
 8746SOL     OW27136   4.402   2.201   6.016 -0.2142 -0.1638  0.0674
 8746SOL    HW127137   4.461   2.220   5.937 -0.4873  1.0065  0.1343
 8746SOL    HW227138   4.447   2.134   6.075 -0.2630 -1.5180 -1.3610
 8747SOL     OW27139   0.965   4.177   4.179 -0.2083  0.0534 -0.2635
 8747SOL    HW127140   0.918   4.228   4.251  0.1866 -1.8311  1.4113
 8747SOL    HW227141   1.061   4.165   4.204 -0.4793 -2.2222 -0.1807
 8748SOL     OW27142   6.907   0.312   6.811  0.1970 -0.3937 -0.4546
 8748SOL    HW127143   6.888   0.390   6.752 -0.6671 -0.6406 -0.5180
 8748SOL    HW227144   6.864   0.230   6.774  1.2980 -0.9608 -0.5168
 8749SOL     OW27145   4.244   0.031   4.400 -0.1729  0.4910 -0.6401
 8749SOL    HW127146   4.246   0.113   4.457 -3.8430  0.5303 -0.3257
 8749SOL    HW227147   4.235   0.057   4.304 -0.6808  0.4594 -0.6019
 8750SOL     OW27148   2.032   2.123   5.603  0.2481 -0.1485 -0.0741
 8750SOL    HW127149   2.102   2.106   5.534 -0.4510  1.7493 -1.3559
 8750SOL    HW227150   2.023   2.043   5.663  4.3825 -0.0109  1.0253
 8751SOL     OW27151   6.016   0.367   1.392 -0.8250  0.2143 -0.0882
 8751SOL    HW127152   6.109   0.359   1.429 -0.6671 -0.3054 -0.5678
 8751SOL    HW227153   5.998   0.462   1.368 -0.3102  0.2779 -0.2476
 8752SOL     OW27154   3.244   5.024   7.005 -0.0918 -0.0443  0.0921
 8752SOL    HW127155   3.277   5.047   6.914 -0.9878  0.0382 -0.2229
 8752SOL    HW227156   3.222   5.107   7.055 -1.6791 -0.1110 -0.4244
 8753SOL     OW27157   4.277   2.290   5.325  0.1089 -0.1096 -0.6899
 8753SOL    HW127158   4.333   2.232   5.265 -0.1552  0.3347 -1.3740
 8753SOL    HW227159   4.235   2.363   5.271 -2.3160 -1.2608 -0.4916
 8754SOL     OW27160   1.635   2.511   4.921 -0.4330  0.2492 -0.1875
 8754SOL    HW127161   1.593   2.552   4.840 -0.8776 -1.1695 -0.6907
 8754SOL    HW227162   1.719   2.560   4.943 -0.3612  0.7092 -1.4362
 8755SOL     OW27163   1.993   6.844   0.453 -0.4958 -0.0772  0.2858
 8755SOL    HW127164   1.936   6.818   0.531 -0.7284  0.2259  0.2180
 8755SOL    HW227165   1.941   6.904   0.392  0.2874  1.2071  0.8459
 8756SOL     OW27166   1.501   3.415   2.602  0.0346 -0.0814 -0.9015
 8756SOL    HW127167   1.487   3.339   2.538 -2.0258 -0.8139  0.3328
 8756SOL    HW227168   1.448   3.494   2.573  0.4554  0.1691 -1.0032
 8757SOL     OW27169   4.376   0.366   6.422 -0.2250  0.0972  0.2481
 8757SOL    HW127170   4.417   0.455   6.402 -0.2325  0.2691  0.9877
 8757SOL    HW227171   4.430   0.294   6.379 -0.2200  0.4554 -0.3552
 8758SOL     OW27172   6.519   0.240   1.168  0.5044  0.2814  1.0354
 8758SOL    HW127173   6.513   0.302   1.247 -1.8279 -0.3766  1.4762
 8758SOL    HW227174   6.535   0.293   1.085 -1.6609  1.5840  1.3692
 8759SOL     OW27175   5.765   0.467   5.524  0.2587  0.0353  0.0072
 8759SOL    HW127176   5.719   0.461   5.436 -1.3533  2.2268  0.6201
 8759SOL    HW227177   5.850   0.519   5.515  0.2546 -0.0054 -0.2758
 8760SOL     OW27178   3.328   2.154   3.485  0.7052  0.2103  0.5934
 8760SOL    HW127179   3.378   2.127   3.568  0.5973  0.6596  0.8130
 8760SOL    HW227180   3.393   2.167   3.410  1.0184  1.4122  1.0397
 8761SOL     OW27181   2.549   1.580   0.228 -0.3585 -0.2223 -0.2652
 8761SOL    HW127182   2.552   1.480   0.216 -1.8762 -0.3967  0.6176
 8761SOL    HW227183   2.627   1.608   0.285  2.0339 -0.4099 -3.1611
 8762SOL     OW27184   2.639   5.100   1.189  0.0223  1.4532 -0.3669
 8762SOL    HW127185   2.701   5.031   1.153 -3.4709 -2.3625  0.1785
 8762SOL    HW227186   2.665   5.122   1.283  0.5069 -0.1589 -0.0875
 8763SOL     OW27187   4.840   0.686   5.055 -0.2046 -0.9478  0.2387
 8763SOL    HW127188   4.792   0.606   5.092  1.2136 -1.4685  1.0469
 8763SOL    HW227189   4.912   0.655   4.992 -1.2772 -0.1583 -1.4460
 8764SOL     OW27190   3.812   2.014   3.751  0.0814 -0.4064  0.0422
 8764SOL    HW127191   3.718   2.000   3.721 -0.2162 -0.2536  0.8813
 8764SOL    HW227192   3.856   2.084   3.695 -1.3294  1.8975  1.6351
 8765SOL     OW27193   5.573   0.536   4.845 -0.2554  0.4086 -0.3971
 8765SOL    HW127194   5.540   0.628   4.824  0.8533  0.9484  0.1263
 8765SOL    HW227195   5.498   0.471   4.839 -1.5637  1.6656  1.3605
 8766SOL     OW27196   2.685   6.032   2.200 -0.3090  0.3803  0.5878
 8766SOL    HW127197   2.718   6.104   2.139 -0.6722  1.5637  1.7411
 8766SOL    HW227198   2.605   5.987   2.159 -0.9189  1.5674  0.4208
 8767SOL     OW27199   4.130   6.525   1.997 -0.0409 -0.2017  0.4071
 8767SOL    HW127200   4.180   6.458   1.943  1.9696  2.0934 -0.7525
 8767SOL    HW227201   4.183   6.551   2.077 -0.1754  0.9476  0.1429
 8768SOL     OW27202   0.350   1.163   6.685  0.6633 -0.0280  0.9923
 8768SOL    HW127203   0.366   1.259   6.710 -0.9215  0.4747  0.1614
 8768SOL    HW227204   0.317   1.157   6.591  0.0508 -1.3292  1.2643
 8769SOL     OW27205   0.772   0.491   4.016 -0.6809  0.0561  0.2136
 8769SOL    HW127206   0.698   0.485   4.083 -0.9579 -0.5277 -0.1318
 8769SOL    HW227207   0.773   0.408   3.961  1.1738 -0.6075  1.1778
 8770SOL     OW27208   3.943   4.486   0.252  0.2534 -0.3307 -0.3689
 8770SOL    HW127209   3.984   4.561   0.305  1.8554 -0.8489 -0.8079
 8770SOL    HW227210   3.943   4.403   0.308 -2.0597  0.0575  0.3348
 8771SOL     OW27211   0.806   2.382   1.795  0.4105 -0.2356 -0.0040
 8771SOL    HW127212   0.714   2.343   1.802  0.8719 -1.1461  1.1316
 8771SOL    HW227213   0.798   2.479   1.769 -0.8628 -0.3190 -0.0112
 8772SOL     OW27214   5.588   0.764   6.844  0.0806  0.0065  0.2019
 8772SOL    HW127215   5.569   0.705   6.765  0.8399  0.2508 -0.1724
 8772SOL    HW227216   5.640   0.844   6.814 -1.0226  0.9359  0.6840
 8773SOL     OW27217   3.139   1.622   2.030 -0.2887 -0.7114  0.3524
 8773SOL    HW127218   3.214   1.682   2.057  0.6595 -1.5717 -0.3203
 8773SOL    HW227219   3.053   1.674   2.031  0.2767  0.2558  1.2341
 8774SOL     OW27220   2.102   1.177   0.680 -0.0871  0.8258 -0.5408
 8774SOL    HW127221   2.066   1.211   0.767 -0.3391  0.6111 -0.5593
 8774SOL    HW227222   2.054   1.220   0.604 -1.2523 -0.4243 -0.5637
 8775SOL     OW27223   6.045   0.441   4.015  0.1714 -0.1217  0.1725
 8775SOL    HW127224   6.023   0.488   3.930  1.0130  0.3230  0.1962
 8775SOL    HW227225   6.082   0.506   4.081  0.0452 -0.5666  0.6953
 8776SOL     OW27226   4.174   3.539   5.804 -0.1201  0.1024 -0.0664
 8776SOL    HW127227   4.141   3.455   5.849  0.5201  0.4212  1.0358
 8776SOL    HW227228   4.127   3.618   5.844  1.7376  0.5474  1.3814
 8777SOL     OW27229   0.708   5.420   2.135  0.3619 -0.4926  0.1534
 8777SOL    HW127230   0.804   5.406   2.160 -0.1797 -2.1251  1.5171
 8777SOL    HW227231   0.662   5.470   2.209  0.4875  1.9030 -1.2624
 8778SOL     OW27232   6.889   2.227   3.521  0.3597  0.2627 -0.3100
 8778SOL    HW127233   6.836   2.301   3.478  2.3911 -0.4164 -4.4933
 8778SOL    HW227234   6.973   2.265   3.560  0.0415  0.4650  0.1987
 8779SOL     OW27235   2.456   5.899   2.442  0.5373  0.3404  0.2798
 8779SOL    HW127236   2.435   5.862   2.352 -1.9088  1.3366  0.3828
 8779SOL    HW227237   2.489   5.993   2.432  0.2191  0.4677  0.4169
 8780SOL     OW27238   1.158   6.693   5.042  0.0796 -0.2508 -0.2651
 8780SOL    HW127239   1.157   6.753   5.121 -0.0359 -2.4964  1.5395
 8780SOL    HW227240   1.252   6.668   5.020  0.0441 -3.5102  2.4468
 8781SOL     OW27241   1.742   1.524   3.527 -0.0965  0.3328  0.2241
 8781SOL    HW127242   1.779   1.569   3.608 -1.2553 -0.5822  1.2992
 8781SOL    HW227243   1.764   1.426   3.531  1.1389  0.5025 -1.3514
 8782SOL     OW27244   5.389   3.165   1.560 -0.2186  0.1737  0.0124
 8782SOL    HW127245   5.293   3.155   1.584  0.3233 -0.7998  1.8969
 8782SOL    HW227246   5.403   3.132   1.466 -1.8714  1.3678 -0.7153
 8783SOL     OW27247   0.178   5.154   5.645 -0.4351 -0.3816 -0.4358
 8783SOL    HW127248   0.095   5.101   5.659  0.4181 -1.6417 -0.0019
 8783SOL    HW227249   0.164   5.219   5.570 -1.2534 -1.7993 -1.5656
 8784SOL     OW27250   6.049   5.544   4.013  0.1331  0.4068 -0.2238
 8784SOL    HW127251   6.064   5.544   3.914  1.8620  0.0163 -0.0007
 8784SOL    HW227252   5.953   5.526   4.032 -0.4393  1.5496 -1.8466
 8785SOL     OW27253   4.771   4.054   1.840 -0.1002  0.2169  0.2065
 8785SOL    HW127254   4.833   4.018   1.909  0.0009 -0.5818 -0.2910
 8785SOL    HW227255   4.732   4.140   1.872 -0.9364 -0.6936  1.7713
 8786SOL     OW27256   0.870   0.758   0.065 -0.3181  0.3719 -0.0875
 8786SOL    HW127257   0.844   0.743  -0.030  1.4571  2.4018 -0.9786
 8786SOL    HW227258   0.965   0.788   0.069 -0.1021 -0.4330  2.4270
 8787SOL     OW27259   2.769   2.313   2.800  0.4189 -0.0579 -0.0118
 8787SOL    HW127260   2.816   2.301   2.713 -0.0806 -4.0430  0.0784
 8787SOL    HW227261   2.679   2.354   2.783  0.1141 -1.2318 -1.5102
 8788SOL     OW27262   6.669   2.450   6.839 -0.4989 -0.1578 -0.3792
 8788SOL    HW127263   6.589   2.427   6.894 -1.1425  2.2139 -0.1817
 8788SOL    HW227264   6.715   2.530   6.880  1.9944 -1.4401 -0.4874
 8789SOL     OW27265   0.653   0.930   6.846 -0.4928  0.4196 -0.1080
 8789SOL    HW127266   0.685   1.004   6.906 -0.9953  0.0709  0.5959
 8789SOL    HW227267   0.643   0.966   6.753  0.1671  0.9991  0.0334
 8790SOL     OW27268   6.750   0.940   0.729 -0.3018  0.1156  0.4194
 8790SOL    HW127269   6.715   0.947   0.823  0.5585  0.7938  0.7094
 8790SOL    HW227270   6.823   1.007   0.716  0.5158 -0.8904 -0.3263
 8791SOL     OW27271   5.382   6.242   4.478 -0.2610  0.1469  0.6566
 8791SOL    HW127272   5.472   6.214   4.511  0.3809  1.1560 -0.1239
 8791SOL    HW227273   5.393   6.285   4.387 -1.2846  1.7610  1.2486
 8792SOL     OW27274   4.594   6.843   1.476 -0.0763  1.1179 -0.2338
 8792SOL    HW127275   4.545   6.792   1.405  1.1583  0.4077 -0.6045
 8792SOL    HW227276   4.552   6.825   1.565  0.7833 -1.2189 -0.2277
 8793SOL     OW27277   3.658   4.862   3.278  0.3429 -0.5389 -0.0178
 8793SOL    HW127278   3.579   4.831   3.330 -0.7219 -0.9137 -1.7971
 8793SOL    HW227279   3.629   4.923   3.205  1.8520  0.3332  0.0597
 8794SOL     OW27280   1.989   0.883   3.462 -0.3830 -0.1546 -0.2343
 8794SOL    HW127281   2.020   0.795   3.427  2.0630  1.1912 -1.7698
 8794SOL    HW227282   2.030   0.900   3.552  2.5941  1.0344 -1.6745
 8795SOL     OW27283   3.563   0.126   6.263  0.1821 -0.2301 -0.2586
 8795SOL    HW127284   3.655   0.098   6.290  1.6422  0.4322 -4.0156
 8795SOL    HW227285   3.545   0.218   6.300  0.4294 -0.8766  1.5840
 8796SOL     OW27286   4.859   1.522   4.102 -0.1333  0.3818  0.2751
 8796SOL    HW127287   4.766   1.508   4.136  0.3950  0.2294  1.7212
 8796SOL    HW227288   4.869   1.476   4.014 -1.6702  1.1275 -0.3380
 8797SOL     OW27289   1.344   6.206   6.323 -0.0080  0.1720  0.2060
 8797SOL    HW127290   1.285   6.242   6.396 -0.7737  0.4487 -0.5298
 8797SOL    HW227291   1.398   6.280   6.285 -0.2873  0.2120 -0.1198
 8798SOL     OW27292   0.389   4.301   5.845  0.2250 -0.2635 -0.3256
 8798SOL    HW127293   0.369   4.232   5.775  3.6932 -0.9190 -0.8368
 8798SOL    HW227294   0.354   4.390   5.816 -0.9242 -1.0635 -1.4817
 8799SOL     OW27295   4.377   4.601   3.676 -0.4274  0.6085  0.2975
 8799SOL    HW127296   4.371   4.694   3.712  0.3166  0.6533  0.3232
 8799SOL    HW227297   4.393   4.536   3.751  0.1381  0.5895  0.1665
 8800SOL     OW27298   1.994   4.072   4.107  0.1221 -0.5987 -0.2726
 8800SOL    HW127299   1.997   4.039   4.013  2.1931 -0.7397 -0.2031
 8800SOL    HW227300   2.037   4.004   4.167 -1.4271 -0.6380  0.8365
 8801SOL     OW27301   2.849   1.729   4.932 -0.2419  0.2807 -0.6685
 8801SOL    HW127302   2.775   1.726   5.000 -0.5735  1.5797 -0.9443
 8801SOL    HW227303   2.933   1.762   4.974  1.2932 -4.3373  0.5328
 8802SOL     OW27304   6.781   6.331   1.362 -0.4343  0.1614  1.0692
 8802SOL    HW127305   6.748   6.241   1.334 -0.1835 -0.0689  1.5059
 8802SOL    HW227306   6.865   6.321   1.415  0.8862  0.7945 -0.8084
 8803SOL     OW27307   1.944   6.779   6.527  0.8172 -0.1975  0.1011
 8803SOL    HW127308   1.945   6.874   6.558  0.7882 -0.4948  1.0746
 8803SOL    HW227309   1.991   6.722   6.594 -0.3534 -1.0585  0.2238
 8804SOL     OW27310   2.624   2.458   0.878  0.4850  0.9006  0.2076
 8804SOL    HW127311   2.567   2.499   0.949  1.6593  1.8248  0.6526
 8804SOL    HW227312   2.642   2.362   0.899 -0.6063  0.6923  0.2337
 8805SOL     OW27313   0.696   4.643   2.444 -0.1458  0.1874  0.0495
 8805SOL    HW127314   0.786   4.687   2.437 -0.6549  1.5121  1.2408
 8805SOL    HW227315   0.628   4.711   2.470 -1.5242 -0.7899 -0.8772
 8806SOL     OW27316   0.972   4.638   0.867  0.0250  0.4031 -0.0667
 8806SOL    HW127317   0.924   4.699   0.931  2.0459  0.8759  1.0616
 8806SOL    HW227318   0.973   4.546   0.905 -0.2126  0.3349 -0.2232
 8807SOL     OW27319   6.201   5.997   5.799 -0.0300 -0.4024 -0.4750
 8807SOL    HW127320   6.163   5.908   5.820  0.9820 -0.6665  0.3340
 8807SOL    HW227321   6.250   6.032   5.879  0.0610  0.6252 -0.9631
 8808SOL     OW27322   5.588   1.825   1.702  0.3792  0.2443  0.0801
 8808SOL    HW127323   5.671   1.862   1.746 -0.4498 -0.7384  2.6347
 8808SOL    HW227324   5.507   1.864   1.746 -0.5108 -2.5453  1.0960
 8809SOL     OW27325   4.624   5.616   2.000 -0.2659  0.2555  0.1053
 8809SOL    HW127326   4.567   5.604   2.082  1.4888 -0.0866  1.3314
 8809SOL    HW227327   4.619   5.711   1.970 -0.9011  0.3967  0.6311
 8810SOL     OW27328   4.561   1.088   5.641 -0.2311  0.2575 -0.1896
 8810SOL    HW127329   4.648   1.115   5.682 -0.2329 -0.3344  0.2048
 8810SOL    HW227330   4.506   1.170   5.625  0.2689  0.6051 -0.1467
 8811SOL     OW27331   1.422   1.412   5.141  0.0379 -0.6477  0.4272
 8811SOL    HW127332   1.384   1.366   5.221 -0.4993  1.6475  1.5842
 8811SOL    HW227333   1.474   1.492   5.170  0.8437 -0.4103 -1.4848
 8812SOL     OW27334   6.769   0.882   1.314 -0.3470  0.2711  0.1315
 8812SOL    HW127335   6.848   0.821   1.320 -0.7477 -0.3543 -0.7601
 8812SOL    HW227336   6.784   0.949   1.240  0.1877  1.4248  1.2426
 8813SOL     OW27337   0.574   6.490   1.446 -0.2552 -0.0360 -0.0115
 8813SOL    HW127338   0.668   6.457   1.454  0.5604  0.6318 -4.2155
 8813SOL    HW227339   0.511   6.421   1.481  1.6957 -0.7848  2.2866
 8814SOL     OW27340   6.828   1.309   6.262  1.0368 -0.1515  0.5108
 8814SOL    HW127341   6.764   1.334   6.190 -0.2221 -1.3312  1.1693
 8814SOL    HW227342   6.842   1.210   6.262  1.2452 -0.1431  1.6996
 8815SOL     OW27343   1.051   5.825   0.868  0.0640 -0.0301 -0.5516
 8815SOL    HW127344   0.981   5.766   0.910 -1.3191  1.7178 -0.3101
 8815SOL    HW227345   1.141   5.784   0.884 -0.7540 -1.5734  0.4642
 8816SOL     OW27346   4.803   5.669   2.313  0.4854  0.2066  0.3752
 8816SOL    HW127347   4.716   5.697   2.352  0.1260 -0.8631  0.3750
 8816SOL    HW227348   4.798   5.573   2.285  1.0685  0.6301 -1.3254
 8817SOL     OW27349   1.277   6.619   5.442 -0.0920 -0.3577  0.2138
 8817SOL    HW127350   1.219   6.537   5.446  0.4054 -0.6919  0.6878
 8817SOL    HW227351   1.344   6.609   5.369 -0.6488  0.0509 -0.3679
 8818SOL     OW27352   5.372   3.745   3.420 -0.2565  0.4438  0.1486
 8818SOL    HW127353   5.320   3.709   3.342  0.8954  1.6402 -1.2292
 8818SOL    HW227354   5.467   3.713   3.414 -0.4878 -0.7448  1.9801
 8819SOL     OW27355   4.591   6.623   3.039  0.6530 -0.1013  0.0884
 8819SOL    HW127356   4.551   6.689   2.975  0.9294 -0.3158 -0.3132
 8819SOL    HW227357   4.524   6.601   3.110  0.3924  0.2542 -0.0423
 8820SOL     OW27358   1.654   1.014   3.829  0.3668 -0.0901  0.0872
 8820SOL    HW127359   1.718   0.983   3.899  0.2544 -1.1115 -0.2421
 8820SOL    HW227360   1.625   0.936   3.774 -0.9562  0.3963  0.0604
 8821SOL     OW27361   3.225   6.869   6.339  0.4640 -0.3965  0.9399
 8821SOL    HW127362   3.279   6.799   6.386  0.2724 -0.4839  1.0315
 8821SOL    HW227363   3.168   6.917   6.405  0.2602 -0.4577  0.8099
 8822SOL     OW27364   0.384   1.002   5.188  0.1739  0.0900 -0.3594
 8822SOL    HW127365   0.308   1.050   5.232  0.0581 -1.8982  1.7660
 8822SOL    HW227366   0.404   1.045   5.099 -2.2384  1.7404 -0.1818
 8823SOL     OW27367   0.569   0.041   1.122 -0.2020 -0.1711  0.1720
 8823SOL    HW127368   0.542   0.118   1.181  0.0100  0.1004 -0.0796
 8823SOL    HW227369   0.633  -0.018   1.172 -0.7014 -0.4244  0.5189
 8824SOL     OW27370   1.862   2.837   1.405 -0.2074 -0.0879 -0.3261
 8824SOL    HW127371   1.869   2.814   1.502  1.2865  1.1714 -0.0927
 8824SOL    HW227372   1.950   2.822   1.361 -0.9381 -0.8972 -1.5772
 8825SOL     OW27373   1.306   6.661   0.112  0.2118 -0.0368  0.0573
 8825SOL    HW127374   1.264   6.703   0.192  0.0385 -0.1818  0.0433
 8825SOL    HW227375   1.371   6.590   0.141 -1.9413 -2.1529  0.0757
 8826SOL     OW27376   1.629   3.370   0.105  0.3766  0.5239 -0.1185
 8826SOL    HW127377   1.563   3.443   0.091 -0.1757 -0.0735 -0.6965
 8826SOL    HW227378   1.648   3.360   0.202 -3.7871 -2.1977  0.6406
 8827SOL     OW27379   2.262   2.299   3.761 -0.3913 -0.1090  0.6602
 8827SOL    HW127380   2.219   2.248   3.836 -1.7020 -0.0101 -0.0041
 8827SOL    HW227381   2.333   2.359   3.799 -1.7454  0.7429  1.9797
 8828SOL     OW27382   3.432   6.521   4.298 -0.3669 -0.8066 -0.0139
 8828SOL    HW127383   3.422   6.610   4.253 -0.1670 -1.2847 -1.0128
 8828SOL    HW227384   3.496   6.530   4.375  1.2621 -0.5257 -1.3596
 8829SOL     OW27385   6.263   2.904   6.007 -0.0668 -0.0953 -0.0767
 8829SOL    HW127386   6.187   2.851   6.044  0.7909 -2.6988 -1.8278
 8829SOL    HW227387   6.240   2.936   5.915 -0.0519  1.5420  0.4483
 8830SOL     OW27388   1.332   1.562   1.511  0.5384 -0.0628 -0.1749
 8830SOL    HW127389   1.344   1.602   1.420 -0.4671  0.0014 -0.2873
 8830SOL    HW227390   1.242   1.520   1.518  0.8415 -0.6187  0.5915
 8831SOL     OW27391   0.838   1.206   4.438  0.2639  0.7929  0.4716
 8831SOL    HW127392   0.807   1.130   4.381 -0.6528  2.0231 -0.7442
 8831SOL    HW227393   0.927   1.184   4.477  0.3710 -0.5930 -0.4608
 8832SOL     OW27394   1.138   0.563   3.391 -0.1047  0.3136  0.7377
 8832SOL    HW127395   1.165   0.521   3.478  0.3347 -2.6264 -0.6712
 8832SOL    HW227396   1.216   0.611   3.352  0.5261 -0.6420  0.7775
 8833SOL     OW27397   1.697   4.614   6.387  0.2651 -0.8010  0.1132
 8833SOL    HW127398   1.761   4.549   6.346 -0.6606 -1.4319 -0.3405
 8833SOL    HW227399   1.665   4.579   6.475  1.5260  0.1231  0.9913
 8834SOL     OW27400   4.721   2.339   4.099 -0.0010  0.3215  0.5786
 8834SOL    HW127401   4.792   2.390   4.148  0.7498  0.3448 -0.5036
 8834SOL    HW227402   4.763   2.263   4.049 -0.9308 -0.5220  1.0348
 8835SOL     OW27403   6.861   5.975   4.779 -0.0581 -0.2722 -0.4444
 8835SOL    HW127404   6.845   5.877   4.792  0.9268 -0.1937  1.6483
 8835SOL    HW227405   6.831   6.001   4.687  3.1262 -3.2725 -2.5839
 8836SOL     OW27406   2.487   6.550   0.443  0.2729  0.1632 -0.5159
 8836SOL    HW127407   2.539   6.504   0.514 -2.1926 -4.0140 -1.0642
 8836SOL    HW227408   2.414   6.604   0.484 -0.1429 -0.9166  0.1937
 8837SOL     OW27409   1.312   1.334   1.978 -0.4322  1.0906 -0.3909
 8837SOL    HW127410   1.250   1.310   1.903  0.1365  0.3290 -0.6320
 8837SOL    HW227411   1.262   1.333   2.065 -0.2150 -2.4567 -0.1656
 8838SOL     OW27412   5.017   5.332   3.851 -0.2657  0.1799 -0.3199
 8838SOL    HW127413   5.080   5.263   3.813 -0.5771  0.9077 -2.2390
 8838SOL    HW227414   5.068   5.392   3.913  0.0630 -1.5870  1.2206
 8839SOL     OW27415   6.614   0.466   0.714 -0.2336  0.0237  0.0644
 8839SOL    HW127416   6.713   0.451   0.712 -0.3645 -1.1362  1.1087
 8839SOL    HW227417   6.581   0.480   0.621  0.9836  1.0441 -0.2455
 8840SOL     OW27418   4.658   3.471   1.647 -0.0830  0.3756 -0.0385
 8840SOL    HW127419   4.711   3.398   1.688 -0.3189  0.3011  0.1369
 8840SOL    HW227420   4.561   3.445   1.644 -0.0655  0.3683 -0.6653
 8841SOL     OW27421   0.493   1.871   5.264  0.4760  0.5853 -0.3935
 8841SOL    HW127422   0.495   1.906   5.170 -0.2589  0.4599 -0.4567
 8841SOL    HW227423   0.423   1.800   5.272  1.0521  0.0605  0.0669
 8842SOL     OW27424   1.893   3.151   1.515 -0.1775 -0.2500  0.0093
 8842SOL    HW127425   1.987   3.122   1.496  0.4060  0.9961  0.9016
 8842SOL    HW227426   1.851   3.088   1.581  0.3552 -0.2816  0.3212
 8843SOL     OW27427   1.872   1.624   5.724  0.1483  0.2281  0.4297
 8843SOL    HW127428   1.963   1.654   5.694  0.0248 -0.3346 -0.5710
 8843SOL    HW227429   1.863   1.638   5.822  1.5600 -0.3087  0.6605
 8844SOL     OW27430   0.155   2.706   6.397  0.3192 -0.1446 -0.3675
 8844SOL    HW127431   0.169   2.638   6.325 -1.7327 -0.0023 -0.9804
 8844SOL    HW227432   0.080   2.677   6.456  1.4024  0.1691  1.2376
 8845SOL     OW27433   4.728   3.061   1.467 -0.6008  0.1501 -0.2990
 8845SOL    HW127434   4.714   3.097   1.560 -2.5296  2.9221 -1.5286
 8845SOL    HW227435   4.817   3.090   1.434 -0.5192  0.4271  0.1489
 8846SOL     OW27436   1.614   4.946   3.803 -0.4836 -0.1477  0.6014
 8846SOL    HW127437   1.708   4.910   3.803  0.0227  1.1131  0.2044
 8846SOL    HW227438   1.571   4.927   3.715  0.3228  1.4918 -0.1931
 8847SOL     OW27439   3.332   6.214   2.226 -0.0270 -0.2908  0.6406
 8847SOL    HW127440   3.388   6.296   2.214 -1.5466  0.6425 -0.4692
 8847SOL    HW227441   3.368   6.141   2.167 -0.0376  0.3294 -0.1477
 8848SOL     OW27442   1.610   1.024   1.983 -0.2337 -0.2107  0.4065
 8848SOL    HW127443   1.656   0.960   2.045 -0.5863  0.2771  1.1956
 8848SOL    HW227444   1.556   0.972   1.916 -1.9111 -0.7753  2.1034
 8849SOL     OW27445   3.084   6.544   3.712 -0.2832  0.7693 -0.4842
 8849SOL    HW127446   3.096   6.565   3.809 -0.8307 -1.9045  0.2592
 8849SOL    HW227447   3.002   6.488   3.701 -0.1301  0.8960 -2.4766
 8850SOL     OW27448   4.598   2.223   4.922 -0.3168  0.2731  0.1263
 8850SOL    HW127449   4.605   2.135   4.876 -0.3668  0.6112 -0.5429
 8850SOL    HW227450   4.596   2.296   4.854 -1.5575  0.7212  0.6008
 8851SOL     OW27451   2.897   7.020   2.339  0.0864 -0.0882 -0.5413
 8851SOL    HW127452   2.877   7.064   2.427  1.8155  2.0696 -1.1482
 8851SOL    HW227453   2.883   7.086   2.265  0.9730 -1.1342 -1.6800
 8852SOL     OW27454   1.986   1.569   6.462  0.1170 -0.3659  0.8549
 8852SOL    HW127455   1.961   1.532   6.373  1.4307 -0.2865  0.4330
 8852SOL    HW227456   1.948   1.661   6.473 -1.6005 -1.0734  1.1527
 8853SOL     OW27457   2.856   1.659   2.057 -0.8633 -0.5129  0.4842
 8853SOL    HW127458   2.799   1.733   2.022 -2.3386 -0.5363  2.6103
 8853SOL    HW227459   2.811   1.616   2.135  1.5093 -1.4004  1.4806
 8854SOL     OW27460   0.604   2.997   4.784  0.3049 -0.5819 -0.1602
 8854SOL    HW127461   0.619   3.067   4.853 -0.2418  0.1669 -0.7934
 8854SOL    HW227462   0.551   2.922   4.823 -1.8434  0.7935 -0.3136
 8855SOL     OW27463   6.232   4.571   0.662  0.2180 -0.8939 -0.3431
 8855SOL    HW127464   6.238   4.488   0.606  0.0205 -0.7306 -0.6053
 8855SOL    HW227465   6.136   4.598   0.671  0.2943 -0.6142 -0.3720
 8856SOL     OW27466   6.621   5.263   0.009 -0.2340 -0.1503  0.5577
 8856SOL    HW127467   6.640   5.291  -0.086 -1.0510 -1.1919  0.0670
 8856SOL    HW227468   6.689   5.196   0.038 -0.1678 -0.0682  0.5899
 8857SOL     OW27469   5.923   2.940   5.790 -0.3225  0.3331  0.4611
 8857SOL    HW127470   5.961   2.966   5.701  1.6052  0.0385  1.1390
 8857SOL    HW227471   5.905   3.023   5.844  0.0252  0.4683  0.3740
 8858SOL     OW27472   0.279   4.379   6.334  0.2687 -0.1275  0.0770
 8858SOL    HW127473   0.329   4.466   6.336  1.4342 -0.7285 -1.3662
 8858SOL    HW227474   0.334   4.309   6.378 -0.4443 -0.2704  0.7647
 8859SOL     OW27475   0.386   0.621   2.631 -0.1414  0.5061 -0.2194
 8859SOL    HW127476   0.480   0.654   2.631  0.3195 -0.6816 -1.9798
 8859SOL    HW227477   0.323   0.698   2.637  0.9222  1.3056  1.1590
 8860SOL     OW27478   5.157   1.729   1.158 -0.5507 -0.4704  0.0317
 8860SOL    HW127479   5.212   1.709   1.239 -1.0517 -0.7993  0.2950
 8860SOL    HW227480   5.099   1.808   1.175 -0.0387 -0.0113 -0.3096
 8861SOL     OW27481   3.788   0.241   1.237 -0.3722  0.2860 -0.2828
 8861SOL    HW127482   3.710   0.199   1.283 -0.5323  1.3909  0.4936
 8861SOL    HW227483   3.836   0.172   1.183 -1.7659 -0.4559 -0.6285
 8862SOL     OW27484   3.832   6.739   4.749  0.0588  0.1293 -0.4522
 8862SOL    HW127485   3.903   6.793   4.795  0.3102  1.2509 -2.0804
 8862SOL    HW227486   3.810   6.781   4.661 -2.9622  0.0749  0.1728
 8863SOL     OW27487   1.041   4.156   4.509  0.6487 -0.3036 -0.7439
 8863SOL    HW127488   1.088   4.129   4.593 -0.6576  1.4613  0.6276
 8863SOL    HW227489   1.107   4.193   4.444  1.5120 -0.3728  0.0697
 8864SOL     OW27490   4.421   2.069   6.614 -0.0538 -0.2767 -0.1503
 8864SOL    HW127491   4.475   2.028   6.540 -0.2383  0.3971 -0.6644
 8864SOL    HW227492   4.457   2.159   6.635 -1.1295  0.3007 -0.6863
 8865SOL     OW27493   2.752   1.433   0.943  0.3643 -0.1350  0.2924
 8865SOL    HW127494   2.726   1.408   1.036 -2.4245  0.0136 -0.3398
 8865SOL    HW227495   2.670   1.431   0.885  2.2509 -1.9623 -2.5696
 8866SOL     OW27496   0.426   5.805   2.672 -0.0707  0.0878 -0.1081
 8866SOL    HW127497   0.409   5.795   2.574  0.6901  1.3015 -0.3854
 8866SOL    HW227498   0.498   5.741   2.700  0.6690  0.6606 -0.6419
 8867SOL     OW27499   5.665   3.172   3.684 -0.1657  0.1136  0.6191
 8867SOL    HW127500   5.629   3.085   3.719 -2.5593  0.5074 -0.6864
 8867SOL    HW227501   5.610   3.248   3.718 -1.2049  0.6764 -2.0560
 8868SOL     OW27502   0.430   4.798   2.977 -0.5186 -0.0183 -0.3573
 8868SOL    HW127503   0.484   4.871   3.019  0.5195  0.0777 -1.7614
 8868SOL    HW227504   0.335   4.828   2.969 -0.1664  1.0995 -0.6722
 8869SOL     OW27505   4.786   4.623   3.973 -1.1324 -0.2715 -0.1918
 8869SOL    HW127506   4.755   4.549   3.914 -0.1664  0.1780 -1.3103
 8869SOL    HW227507   4.754   4.710   3.936  3.0934  0.4714 -2.7590
 8870SOL     OW27508   0.538   6.636   2.737 -0.1618  0.8209 -0.0512
 8870SOL    HW127509   0.601   6.559   2.726 -0.4011  0.4245  1.2588
 8870SOL    HW227510   0.453   6.605   2.778 -0.1842  1.8234  0.7004
 8871SOL     OW27511   4.177   0.620   3.557  0.3504  0.3325 -0.2878
 8871SOL    HW127512   4.078   0.609   3.553  0.3269  0.3887  0.1458
 8871SOL    HW227513   4.221   0.535   3.526  0.1670 -0.5575  1.7315
 8872SOL     OW27514   6.224   4.330   6.521  0.2035 -0.5762 -0.0505
 8872SOL    HW127515   6.278   4.381   6.454  1.3533  0.1544  1.3723
 8872SOL    HW227516   6.238   4.232   6.507 -0.4482 -0.4913 -1.5403
 8873SOL     OW27517   3.264   1.238   1.528 -0.3031  0.2466 -0.2040
 8873SOL    HW127518   3.286   1.168   1.595  1.0357  0.9227  0.1118
 8873SOL    HW227519   3.348   1.265   1.479 -0.6531  1.9798  0.0675
 8874SOL     OW27520   1.723   5.157   0.847  0.0104  0.0489  0.0134
 8874SOL    HW127521   1.763   5.066   0.851 -2.5470 -1.1382  0.0773
 8874SOL    HW227522   1.679   5.171   0.758 -0.2553  0.9263  0.2714
 8875SOL     OW27523   0.087   2.193   2.156 -0.5081 -0.2582 -0.5541
 8875SOL    HW127524  -0.009   2.203   2.182 -0.6671 -1.1290 -0.7768
 8875SOL    HW227525   0.092   2.158   2.062  0.0153 -0.9410 -0.2730
 8876SOL     OW27526   2.095   6.307   4.402  0.0483  0.5933  0.1060
 8876SOL    HW127527   2.161   6.251   4.352  0.7011 -0.3792  1.9653
 8876SOL    HW227528   2.003   6.292   4.366  0.5028  0.0175 -0.8442
 8877SOL     OW27529   2.265   5.889   1.284 -0.3219  0.4173  0.2159
 8877SOL    HW127530   2.263   5.883   1.384  1.2905  0.5581  0.2745
 8877SOL    HW227531   2.197   5.826   1.246 -0.5300 -0.0910  1.3798
 8878SOL     OW27532   5.997   4.452   0.969 -0.4926  0.4734  0.7205
 8878SOL    HW127533   6.075   4.417   1.020  0.1357  1.3314  0.3848
 8878SOL    HW227534   5.939   4.377   0.939  1.7796 -0.4773 -1.5970
 8879SOL     OW27535   0.237   4.532   2.429  0.3526 -0.2480  0.1599
 8879SOL    HW127536   0.251   4.488   2.517 -1.8895  0.0216  0.6962
 8879SOL    HW227537   0.161   4.597   2.435 -0.3386 -0.7524 -2.1336
 8880SOL     OW27538   4.822   6.048   4.255 -0.0082 -0.2769  0.2268
 8880SOL    HW127539   4.740   6.056   4.311 -1.3449 -0.8835 -1.5860
 8880SOL    HW227540   4.855   5.954   4.257  0.5709 -0.0671  0.8306
 8881SOL     OW27541   4.212   5.094   4.702 -0.0090 -0.3858  0.0826
 8881SOL    HW127542   4.160   5.014   4.731 -0.4470 -0.2593 -0.3331
 8881SOL    HW227543   4.182   5.174   4.753 -0.2704 -0.3009 -0.2011
 8882SOL     OW27544   2.834   1.722   1.283  0.2977  0.2055  0.1700
 8882SOL    HW127545   2.859   1.626   1.294  0.5047  0.5801  4.4957
 8882SOL    HW227546   2.746   1.739   1.326 -0.0250  1.9130 -1.0302
 8883SOL     OW27547   6.828   6.545   6.412  0.5844  0.4668  0.4555
 8883SOL    HW127548   6.834   6.487   6.494  0.1203  1.1336  0.9737
 8883SOL    HW227549   6.732   6.571   6.398  0.6558  0.3173 -0.3341
 8884SOL     OW27550   5.477   2.688   4.905 -1.1095  0.3774  0.2622
 8884SOL    HW127551   5.388   2.661   4.941 -1.3092  1.0007  0.2510
 8884SOL    HW227552   5.538   2.714   4.980  0.6068 -4.2291  0.7610
 8885SOL     OW27553   5.964   4.112   0.648  0.0168  0.1470 -0.0479
 8885SOL    HW127554   5.887   4.124   0.711  1.1186  0.8506  1.1918
 8885SOL    HW227555   5.983   4.014   0.637  0.6590  0.0316  1.7984
 8886SOL     OW27556   1.271   5.038   0.284 -0.1510 -0.2992  0.1857
 8886SOL    HW127557   1.207   5.079   0.349 -0.7209  0.9454 -1.1020
 8886SOL    HW227558   1.291   5.103   0.211  2.6756 -0.6292  0.5675
 8887SOL     OW27559   4.391   1.794   1.485 -0.2352  0.3920 -0.3575
 8887SOL    HW127560   4.448   1.875   1.497  0.4302  0.3022 -2.4762
 8887SOL    HW227561   4.297   1.822   1.464 -0.3003  0.5799  0.1716
 8888SOL     OW27562   2.008   6.789   4.118  0.5842 -0.2959  0.3650
 8888SOL    HW127563   1.987   6.794   4.215 -0.4555  1.1431  0.1115
 8888SOL    HW227564   2.010   6.694   4.088 -1.3389 -0.6765  1.3314
 8889SOL     OW27565   0.371   0.306   5.437  0.1537  0.1478 -0.3236
 8889SOL    HW127566   0.428   0.236   5.393  2.6576  1.8798 -0.0834
 8889SOL    HW227567   0.348   0.377   5.370  0.2249  0.5943  0.1191
 8890SOL     OW27568   0.598   0.235   0.126 -0.5135 -0.4162  0.2114
 8890SOL    HW127569   0.677   0.187   0.164 -0.5456  1.1608  2.5391
 8890SOL    HW227570   0.559   0.182   0.051  1.4433 -2.2736  0.4046
 8891SOL     OW27571   6.416   5.300   0.268 -0.2771  0.4039  0.0450
 8891SOL    HW127572   6.493   5.362   0.257  1.7067 -1.5168  1.9443
 8891SOL    HW227573   6.335   5.338   0.223  1.4428  3.0645 -1.0346
 8892SOL     OW27574   3.592   5.474   2.018  0.1146  0.1199 -0.0513
 8892SOL    HW127575   3.645   5.459   2.101 -1.4303 -2.8888  0.5661
 8892SOL    HW227576   3.522   5.403   2.011 -0.2846  0.6920 -3.5861
 8893SOL     OW27577   0.409   3.809   3.969 -0.1390 -0.0057 -0.1511
 8893SOL    HW127578   0.456   3.731   4.010 -0.3915 -0.7752 -1.2712
 8893SOL    HW227579   0.397   3.793   3.871 -2.0136  0.5242 -0.0509
 8894SOL     OW27580   5.488   3.336   1.022 -0.4661 -0.0785  0.0011
 8894SOL    HW127581   5.561   3.404   1.024 -1.7650  1.3705  0.2452
 8894SOL    HW227582   5.457   3.323   0.928 -0.3836 -0.1448 -0.0169
 8895SOL     OW27583   2.433   4.367   2.273 -0.4578  0.6892  0.0510
 8895SOL    HW127584   2.417   4.268   2.270 -3.2428  0.8970  3.0774
 8895SOL    HW227585   2.392   4.410   2.192 -0.6027 -0.4462 -0.4983
 8896SOL     OW27586   6.604   3.013   3.251 -0.1663  0.2339 -0.0459
 8896SOL    HW127587   6.547   3.064   3.186  1.0522  1.4754 -0.2032
 8896SOL    HW227588   6.696   3.053   3.251  0.4177 -1.0683  0.9409
 8897SOL     OW27589   1.848   5.162   4.273 -0.6838  0.0329 -0.2125
 8897SOL    HW127590   1.775   5.133   4.336 -2.5340  0.4636 -2.0426
 8897SOL    HW227591   1.880   5.084   4.221  0.4106 -0.2082  0.7854
 8898SOL     OW27592   4.780   4.619   3.070  0.5359  0.4728 -0.1107
 8898SOL    HW127593   4.859   4.579   3.117  0.2456  0.6029  0.4984
 8898SOL    HW227594   4.701   4.559   3.081  0.9807 -0.6376 -2.3460
 8899SOL     OW27595   0.319   4.462   6.679  0.6240 -0.0336 -0.0685
 8899SOL    HW127596   0.235   4.516   6.677 -0.1490 -1.1632  0.7077
 8899SOL    HW227597   0.346   4.440   6.585 -0.2483 -0.0993 -0.3211
 8900SOL     OW27598   6.652   1.710   2.524  0.6918 -0.6918  0.5310
 8900SOL    HW127599   6.734   1.657   2.544  0.8341  0.8815  5.2030
 8900SOL    HW227600   6.602   1.729   2.608 -1.5342  3.1147 -1.3478
 8901SOL     OW27601   1.259   1.030   2.729 -0.6483 -0.2742 -0.0234
 8901SOL    HW127602   1.316   1.055   2.651 -0.1137 -0.3845  0.3250
 8901SOL    HW227603   1.273   1.096   2.803 -2.6631  1.0073 -0.7133
 8902SOL     OW27604   0.668   3.143   5.330  0.3556 -0.6855  0.0123
 8902SOL    HW127605   0.568   3.143   5.335  0.2624  1.7854 -0.4228
 8902SOL    HW227606   0.705   3.190   5.410  1.1216 -0.6417 -0.3617
 8903SOL     OW27607   5.598   1.958   5.696  0.0993 -0.8872  0.5046
 8903SOL    HW127608   5.696   1.967   5.676  0.3804 -0.8661  1.7730
 8903SOL    HW227609   5.545   2.007   5.627  1.0580  0.2439  0.5339
 8904SOL     OW27610   1.353   0.266   1.547  0.6204 -0.4109 -0.9812
 8904SOL    HW127611   1.382   0.170   1.549 -0.3395 -0.7086 -1.0643
 8904SOL    HW227612   1.432   0.324   1.523  1.1636 -1.1894 -1.1168
 8905SOL     OW27613   2.278   5.412   2.684  0.0687 -0.4803 -0.4888
 8905SOL    HW127614   2.259   5.502   2.645  1.9669 -0.3788 -1.3084
 8905SOL    HW227615   2.222   5.343   2.639 -1.0084  0.2030 -0.2272
 8906SOL     OW27616   0.070   2.101   1.863  0.0940  0.3295  0.1291
 8906SOL    HW127617   0.117   2.075   1.779 -0.8592 -1.2353  0.0394
 8906SOL    HW227618  -0.026   2.119   1.843  0.0961  1.0393  0.7143
 8907SOL     OW27619   3.553   4.038   3.241  0.6533  0.0126 -0.0024
 8907SOL    HW127620   3.478   4.099   3.269  0.3426 -0.0792 -0.6027
 8907SOL    HW227621   3.576   4.057   3.145  1.9379  0.5862  0.3981
 8908SOL     OW27622   1.680   5.491   6.720 -0.1722  0.0539 -0.3933
 8908SOL    HW127623   1.719   5.506   6.629 -2.5337 -0.5743 -1.5688
 8908SOL    HW227624   1.593   5.538   6.727  0.5958  1.2591  2.0962
 8909SOL     OW27625   2.358   1.053   0.708 -0.4750  0.4719  0.2022
 8909SOL    HW127626   2.383   1.020   0.617  0.7229  1.9583 -0.0495
 8909SOL    HW227627   2.266   1.092   0.706 -0.2599  0.9659 -0.5117
 8910SOL     OW27628   2.240   2.582   4.808 -0.0203 -0.2308  0.9280
 8910SOL    HW127629   2.332   2.585   4.771  0.3741 -0.5452  1.8451
 8910SOL    HW227630   2.218   2.670   4.851 -0.3373  0.0105  0.2758
 8911SOL     OW27631   5.492   1.705   3.587  0.1653 -0.3307  0.5755
 8911SOL    HW127632   5.409   1.662   3.552 -0.0361 -0.4129  1.1552
 8911SOL    HW227633   5.509   1.674   3.680  0.4392  0.2594  0.7221
 8912SOL     OW27634   2.518   3.941   6.940 -0.4713 -0.0176 -0.6628
 8912SOL    HW127635   2.502   3.994   7.023 -3.0479  1.0103 -1.6890
 8912SOL    HW227636   2.525   3.844   6.963 -0.4934  0.3030  0.8053
 8913SOL     OW27637   4.688   5.459   5.817 -0.2313  0.0864 -0.1748
 8913SOL    HW127638   4.750   5.482   5.892  1.6004  0.7920 -1.8189
 8913SOL    HW227639   4.659   5.364   5.826  1.5575 -0.4501  0.3800
 8914SOL     OW27640   6.100   5.928   5.360 -0.1789 -0.2535 -0.3218
 8914SOL    HW127641   6.044   5.857   5.318 -0.1850 -0.1447 -0.4998
 8914SOL    HW227642   6.043   5.984   5.421 -0.0921 -0.6322  0.1073
 8915SOL     OW27643   4.926   2.085   1.985  0.3821  0.5701  0.6367
 8915SOL    HW127644   4.842   2.127   2.020 -0.3492 -1.2570  1.2385
 8915SOL    HW227645   5.006   2.128   2.027 -0.4026 -0.0419  2.9157
 8916SOL     OW27646   6.428   1.984   6.930 -0.3895 -0.1334  0.3821
 8916SOL    HW127647   6.501   2.039   6.889 -0.7820 -0.2472 -0.4859
 8916SOL    HW227648   6.346   1.989   6.873 -0.9302 -0.3558  1.1209
 8917SOL     OW27649   4.982   2.347   2.184  0.2055 -0.4488  0.1347
 8917SOL    HW127650   4.955   2.254   2.211 -0.0571 -0.3489  0.2191
 8917SOL    HW227651   4.955   2.363   2.089 -1.4097  0.1735  0.6696
 8918SOL     OW27652   0.520   5.091   0.609 -0.1472 -0.2282 -0.5962
 8918SOL    HW127653   0.590   5.148   0.566  1.4827 -0.3251  1.7438
 8918SOL    HW227654   0.560   5.004   0.639 -1.4154 -0.5835  0.2068
 8919SOL     OW27655   5.957   3.010   0.281 -0.1092  0.1436 -0.3297
 8919SOL    HW127656   5.951   3.086   0.346  0.4373 -0.8700  0.9239
 8919SOL    HW227657   5.868   2.998   0.236 -0.5441  0.7223  0.3556
 8920SOL     OW27658   6.874   1.820   0.147 -0.1250 -0.5149  0.5902
 8920SOL    HW127659   6.804   1.749   0.145  0.7975 -1.4337 -0.2572
 8920SOL    HW227660   6.843   1.899   0.095 -0.4564 -0.9866  0.0633
 8921SOL     OW27661   0.766   3.659   7.022  0.0154 -0.8323 -0.2059
 8921SOL    HW127662   0.787   3.756   7.034  2.3884 -1.0391 -1.9290
 8921SOL    HW227663   0.795   3.608   7.103 -1.1827 -0.1436  0.6841
 8922SOL     OW27664   4.500   6.207   3.418 -0.2781 -0.0628  0.1002
 8922SOL    HW127665   4.402   6.225   3.426  0.0845  2.6722 -0.7539
 8922SOL    HW227666   4.539   6.193   3.509 -1.3804 -1.0483  0.4597
 8923SOL     OW27667   3.504   1.432   5.047 -0.1139 -0.5516 -0.7803
 8923SOL    HW127668   3.551   1.460   4.963 -0.7980  0.1760 -0.9351
 8923SOL    HW227669   3.513   1.504   5.116  0.1000 -0.9699 -0.3648
 8924SOL     OW27670   6.633   4.969   3.522 -0.0755 -0.7084  0.7852
 8924SOL    HW127671   6.678   5.045   3.475 -0.0969 -0.6471  0.8628
 8924SOL    HW227672   6.673   4.959   3.614 -0.5670 -0.3306  1.0445
 8925SOL     OW27673   3.141   1.029   2.425  0.0257 -0.4913  0.1436
 8925SOL    HW127674   3.201   0.950   2.421 -1.0824 -1.3750  0.5248
 8925SOL    HW227675   3.092   1.030   2.512  1.0631  1.4241  0.7859
 8926SOL     OW27676   0.304   2.855   4.097 -0.6091  0.4978 -0.0024
 8926SOL    HW127677   0.258   2.866   4.185 -0.6750  2.1277 -0.2023
 8926SOL    HW227678   0.380   2.791   4.107 -1.8824 -0.9736  0.7118
 8927SOL     OW27679   0.284   2.105   5.662 -0.5060  0.0160  0.0417
 8927SOL    HW127680   0.245   2.015   5.642  0.3118 -0.1924 -0.7049
 8927SOL    HW227681   0.358   2.124   5.597  0.1931  0.6687  0.9966
 8928SOL     OW27682   2.687   0.909   6.078  0.3054 -0.2472  0.3299
 8928SOL    HW127683   2.691   1.004   6.048 -0.6579  0.0058  0.9656
 8928SOL    HW227684   2.761   0.891   6.142  0.5507  0.0422  0.1302
 8929SOL     OW27685   6.498   2.542   5.684  0.1111 -0.1124  0.4558
 8929SOL    HW127686   6.588   2.512   5.652 -0.7480 -0.8477 -1.4339
 8929SOL    HW227687   6.472   2.490   5.765  1.2563 -0.0914  0.8560
 8930SOL     OW27688   6.948   3.812   3.761 -0.4812 -0.5467 -0.5816
 8930SOL    HW127689   7.024   3.837   3.821 -1.2330  0.3806  0.0026
 8930SOL    HW227690   6.972   3.730   3.709  0.5850 -0.7504  0.2121
 8931SOL     OW27691   3.929   3.234   1.564  0.3023  0.6723 -0.4570
 8931SOL    HW127692   4.016   3.187   1.547  0.2302  0.6024 -0.6328
 8931SOL    HW227693   3.923   3.257   1.661  0.5087  0.6602 -0.4395
 8932SOL     OW27694   5.908   1.372   1.837  0.0711  0.1344  0.1709
 8932SOL    HW127695   5.821   1.372   1.886 -0.0908 -0.6439 -0.0958
 8932SOL    HW227696   5.892   1.391   1.741  0.0190 -1.2953 -0.1312
 8933SOL     OW27697   2.918   3.229   5.293  0.3669  0.1261 -0.2903
 8933SOL    HW127698   3.015   3.245   5.279  0.2477  1.1896  0.0365
 8933SOL    HW227699   2.905   3.139   5.335  1.3500  0.7038  1.3658
 8934SOL     OW27700   4.459   5.050   4.799 -0.4430 -0.3045  0.4107
 8934SOL    HW127701   4.369   5.045   4.754 -0.2460  0.6455 -0.1186
 8934SOL    HW227702   4.455   5.114   4.875  0.4778  2.0912 -1.4211
 8935SOL     OW27703   5.154   4.232   1.761 -0.7058  0.1554 -0.4197
 8935SOL    HW127704   5.088   4.169   1.719 -1.6214  1.2080 -0.5940
 8935SOL    HW227705   5.141   4.231   1.860  0.7319 -1.5170 -0.2043
 8936SOL     OW27706   2.019   3.150   0.486  0.0992 -0.1127 -0.4811
 8936SOL    HW127707   2.068   3.078   0.535 -0.6274 -2.9570 -3.5641
 8936SOL    HW227708   2.073   3.179   0.407 -0.8848  0.6376 -0.8980
 8937SOL     OW27709   0.338   0.117   5.199 -0.3995  0.2918  0.2370
 8937SOL    HW127710   0.262   0.167   5.242 -0.3973  0.4988  0.0027
 8937SOL    HW227711   0.303   0.037   5.151 -0.4689  0.3754  0.1467
 8938SOL     OW27712   0.254   6.587   1.600  0.3701 -0.2296 -0.3291
 8938SOL    HW127713   0.272   6.492   1.626  1.9239  0.3237  0.8215
 8938SOL    HW227714   0.167   6.617   1.639  1.4363 -0.2183  2.2762
 8939SOL     OW27715   5.746   1.115   3.077  0.0830  0.3185  0.1571
 8939SOL    HW127716   5.839   1.111   3.039 -0.3339  1.5203 -1.0914
 8939SOL    HW227717   5.694   1.035   3.047 -0.1060  1.0298 -1.5715
 8940SOL     OW27718   5.489   1.072   2.700 -0.1614 -0.1461  0.7986
 8940SOL    HW127719   5.395   1.040   2.688 -0.0353 -0.8648  1.5602
 8940SOL    HW227720   5.550   0.993   2.708  0.7568  0.2988 -1.3068
 8941SOL     OW27721   4.199   3.764   0.072  0.4826 -0.1674 -0.1853
 8941SOL    HW127722   4.185   3.839   0.007 -2.5302 -0.6703 -0.2457
 8941SOL    HW227723   4.265   3.792   0.141 -0.4724  2.5525 -0.2409
 8942SOL     OW27724   6.746   2.430   5.651  0.3071 -0.3726  0.5861
 8942SOL    HW127725   6.734   2.373   5.570 -0.2222 -0.5778  0.8050
 8942SOL    HW227726   6.840   2.464   5.655  1.2841 -2.9333  1.5569
 8943SOL     OW27727   4.502   4.957   0.145 -0.2286  0.2554 -0.5354
 8943SOL    HW127728   4.555   5.042   0.135 -0.2420  0.2431 -0.7052
 8943SOL    HW227729   4.488   4.939   0.242  1.4528 -0.5793 -0.4070
 8944SOL     OW27730   5.732   6.594   0.273 -0.1444  0.3497 -0.0136
 8944SOL    HW127731   5.823   6.613   0.237 -0.1789  0.6537  0.0636
 8944SOL    HW227732   5.690   6.521   0.220  0.3075 -0.0777  0.2037
 8945SOL     OW27733   1.396   1.576   5.532 -0.4983 -0.6792  0.4663
 8945SOL    HW127734   1.461   1.506   5.503 -0.1310  0.1419 -0.7568
 8945SOL    HW227735   1.360   1.624   5.452 -1.2215  0.1083  1.2413
 8946SOL     OW27736   4.229   2.135   6.421 -0.0671  0.3526  0.4919
 8946SOL    HW127737   4.229   2.097   6.328 -1.0342  1.1882  0.1444
 8946SOL    HW227738   4.267   2.067   6.484 -0.2412 -0.5697 -0.3699
 8947SOL     OW27739   3.861   3.211   6.229 -0.4578  0.1652  0.3397
 8947SOL    HW127740   3.915   3.129   6.212  1.2995  1.4139 -0.3354
 8947SOL    HW227741   3.810   3.235   6.146  0.1257  0.5357  0.0862
 8948SOL     OW27742   0.544   3.541   4.763 -0.2688  0.3255 -0.2846
 8948SOL    HW127743   0.592   3.525   4.850  0.6194 -0.8033 -0.9611
 8948SOL    HW227744   0.550   3.637   4.739 -0.0140  0.5420  0.6020
 8949SOL     OW27745   1.384   6.377   4.959 -0.4148  0.4089 -0.4578
 8949SOL    HW127746   1.399   6.325   5.043  0.2297 -2.0793 -2.0035
 8949SOL    HW227747   1.470   6.420   4.930 -0.7291  1.6055  0.3189
 8950SOL     OW27748   5.582   4.277   6.116  0.4425  0.7901  0.5728
 8950SOL    HW127749   5.489   4.313   6.125  0.0672  0.8075 -2.3263
 8950SOL    HW227750   5.647   4.350   6.135 -0.2638  2.0611 -1.5328
 8951SOL     OW27751   1.627   3.366   5.335  0.3865 -0.1689  0.2825
 8951SOL    HW127752   1.720   3.398   5.354  0.2197  2.1424 -2.2002
 8951SOL    HW227753   1.624   3.323   5.245 -0.9896  0.0847  0.1785
 8952SOL     OW27754   1.762   0.647   3.215 -0.4139 -0.0509  0.1527
 8952SOL    HW127755   1.700   0.627   3.139  0.6553 -1.6822 -0.3288
 8952SOL    HW227756   1.715   0.707   3.281 -1.2522  1.7466 -1.9304
 8953SOL     OW27757   1.301   4.583   1.060  0.0498  0.5217 -0.2293
 8953SOL    HW127758   1.245   4.550   1.136 -0.1012  0.0274 -0.5550
 8953SOL    HW227759   1.394   4.547   1.068 -0.1980 -0.2463 -0.7567
 8954SOL     OW27760   0.100   0.222   6.606  0.5518 -0.4835 -0.0459
 8954SOL    HW127761   0.069   0.253   6.516 -0.2023  0.7251  0.5918
 8954SOL    HW227762   0.041   0.262   6.677  0.0649 -2.7386  0.9160
 8955SOL     OW27763   0.486   4.796   2.505  0.3757  0.2855 -0.2216
 8955SOL    HW127764   0.479   4.762   2.599  1.6576  1.7775  0.4485
 8955SOL    HW227765   0.395   4.823   2.474 -0.3805 -1.8955 -0.1150
 8956SOL     OW27766   1.300   1.329   6.412  0.5141 -0.3755  0.1605
 8956SOL    HW127767   1.251   1.409   6.378  2.9330  0.1337 -2.5638
 8956SOL    HW227768   1.395   1.353   6.431  0.9307 -2.2827  0.7242
 8957SOL     OW27769   3.341   5.211   2.547  0.3347 -0.7785 -0.1788
 8957SOL    HW127770   3.380   5.185   2.459 -0.5879  0.5845 -1.0291
 8957SOL    HW227771   3.243   5.227   2.537  0.1588 -0.8836  1.1754
 8958SOL     OW27772   1.322   0.026   5.276 -0.0026  0.4203 -0.1586
 8958SOL    HW127773   1.249   0.075   5.324  0.7298  2.4403 -0.9816
 8958SOL    HW227774   1.371   0.090   5.217  0.1390 -1.6248 -2.4054
 8959SOL     OW27775   2.942   6.439   0.322  0.1668  0.5362 -0.2388
 8959SOL    HW127776   2.886   6.363   0.288 -0.5274  1.0916 -0.3568
 8959SOL    HW227777   2.955   6.429   0.420  1.4171 -0.5844 -0.4919
 8960SOL     OW27778   4.330   6.268   2.361  1.0256 -0.1838 -0.0042
 8960SOL    HW127779   4.373   6.299   2.446  1.8767 -0.7031 -0.2371
 8960SOL    HW227780   4.232   6.290   2.363  1.5110  2.1936 -0.0131
 8961SOL     OW27781   2.683   0.394   6.952  0.0914 -0.2125  0.0373
 8961SOL    HW127782   2.646   0.382   7.044  0.5214 -0.4037  0.1857
 8961SOL    HW227783   2.619   0.355   6.885 -0.4022  0.2642  0.2176
 8962SOL     OW27784   4.518   6.285   3.701 -0.1604  0.0912  0.2380
 8962SOL    HW127785   4.448   6.346   3.663 -0.8242 -0.8579 -0.1152
 8962SOL    HW227786   4.479   6.234   3.778  0.2248 -0.2634  0.1995
 8963SOL     OW27787   5.105   6.422   4.750 -0.5740 -0.1739 -0.0960
 8963SOL    HW127788   5.006   6.417   4.763 -0.4811  1.2942  1.4570
 8963SOL    HW227789   5.132   6.516   4.732  0.4973 -0.6642 -1.3145
 8964SOL     OW27790   4.022   4.803   3.556 -0.1626  0.0249  0.1281
 8964SOL    HW127791   3.965   4.784   3.636  0.1492 -0.5144  0.2190
 8964SOL    HW227792   3.968   4.857   3.490 -0.5999 -0.0082  0.4501
 8965SOL     OW27793   2.245   5.782   6.232  0.4246  0.1640  0.5749
 8965SOL    HW127794   2.297   5.851   6.181 -1.4647 -0.0404 -1.8503
 8965SOL    HW227795   2.154   5.819   6.254 -0.7491 -1.5618 -1.0725
 8966SOL     OW27796   1.885   3.681   4.760 -0.3489  0.5000 -0.1906
 8966SOL    HW127797   1.857   3.770   4.725 -0.3715  1.7305  2.6843
 8966SOL    HW227798   1.960   3.693   4.825 -0.3152 -1.5967  0.2376
 8967SOL     OW27799   3.725   0.779   2.129  0.1767  0.0782 -0.5159
 8967SOL    HW127800   3.793   0.708   2.109  1.1229  0.5731  0.7742
 8967SOL    HW227801   3.771   0.866   2.145 -0.7880  0.5112  0.0085
 8968SOL     OW27802   6.156   3.866   2.097  0.1339  0.0709 -0.1030
 8968SOL    HW127803   6.200   3.955   2.111  2.2277 -0.6364 -1.5654
 8968SOL    HW227804   6.192   3.800   2.162  0.4260 -0.2503 -0.5791
 8969SOL     OW27805   6.189   1.978   0.959 -0.5071  0.0561 -0.0557
 8969SOL    HW127806   6.185   1.926   0.874 -1.4200  0.0195 -0.0007
 8969SOL    HW227807   6.275   2.030   0.962 -1.5870  2.2046 -2.2727
 8970SOL     OW27808   1.944   1.853   6.502 -0.5775 -0.1055  0.4693
 8970SOL    HW127809   2.002   1.935   6.497 -1.1507  0.2661 -0.2296
 8970SOL    HW227810   1.885   1.860   6.583  1.0138 -0.9531  1.7605
 8971SOL     OW27811   4.942   6.415   3.039 -0.3002 -0.1113  0.0530
 8971SOL    HW127812   4.924   6.499   2.987 -1.1377 -0.5097 -0.3239
 8971SOL    HW227813   5.038   6.390   3.030  0.0871  1.0957  0.6084
 8972SOL     OW27814   5.441   4.759   0.657 -0.0221 -0.2532  0.2696
 8972SOL    HW127815   5.429   4.664   0.686  0.7270 -1.7354 -3.7273
 8972SOL    HW227816   5.483   4.811   0.732  2.2331 -3.7434  1.6992
 8973SOL     OW27817   2.210   4.376   2.668 -0.3426 -0.1314  0.5865
 8973SOL    HW127818   2.295   4.412   2.632  0.9273 -1.7487  1.8126
 8973SOL    HW227819   2.165   4.445   2.724 -0.9930  1.4710 -1.7719
 8974SOL     OW27820   1.506   5.028   5.608 -0.1764 -0.2005  0.5748
 8974SOL    HW127821   1.488   5.028   5.707 -1.0231 -1.1667  0.4433
 8974SOL    HW227822   1.533   5.120   5.579  2.0306 -0.3147  2.0204
 8975SOL     OW27823   3.037   0.460   6.641  0.1220 -0.4923 -0.3066
 8975SOL    HW127824   2.970   0.386   6.646  0.1972 -0.6153 -0.9800
 8975SOL    HW227825   3.085   0.455   6.553 -2.8231  2.9099 -2.3504
 8976SOL     OW27826   1.748   4.789   5.139  0.6015 -0.0980  0.1649
 8976SOL    HW127827   1.836   4.771   5.095  0.8181  0.1555  0.4894
 8976SOL    HW227828   1.763   4.830   5.229  0.1409  0.4915 -0.0184
 8977SOL     OW27829   4.950   2.492   5.191 -0.1334  0.0358 -0.6768
 8977SOL    HW127830   4.953   2.581   5.237 -1.7301 -0.6511  0.8568
 8977SOL    HW227831   5.010   2.428   5.238 -1.7471 -0.6606  0.5363
 8978SOL     OW27832   6.050   6.440   0.936 -0.1637 -0.3861 -0.0843
 8978SOL    HW127833   5.956   6.424   0.906 -0.5006  3.1442 -1.4370
 8978SOL    HW227834   6.112   6.381   0.884 -1.4011 -0.0186 -2.0950
 8979SOL     OW27835   2.269   5.136   4.060 -0.3024 -0.3076  0.0634
 8979SOL    HW127836   2.327   5.067   4.017  0.1438 -0.3108  0.6578
 8979SOL    HW227837   2.297   5.227   4.030 -0.9480 -0.3787 -0.7892
 8980SOL     OW27838   2.797   3.722   6.030  0.3709  0.1079  0.2921
 8980SOL    HW127839   2.853   3.728   5.947  2.1194 -0.5185  1.3762
 8980SOL    HW227840   2.717   3.665   6.011  0.3745  0.5145 -1.1298
 8981SOL     OW27841   3.548   6.749   5.403 -0.1305 -0.2384 -0.4474
 8981SOL    HW127842   3.474   6.767   5.338 -0.8237 -2.2271 -0.2549
 8981SOL    HW227843   3.617   6.691   5.361  1.2717  1.3944 -0.5406
 8982SOL     OW27844   0.321   4.476   0.115  0.4608 -0.2911  0.0006
 8982SOL    HW127845   0.356   4.470   0.208  0.2733 -1.1328  0.0209
 8982SOL    HW227846   0.223   4.454   0.114  0.1243  1.0859 -0.2000
 8983SOL     OW27847   2.828   4.845   0.590  0.6733  0.2153  0.0336
 8983SOL    HW127848   2.873   4.808   0.508  1.8220  0.3986  0.5609
 8983SOL    HW227849   2.784   4.932   0.567  0.6909  0.1009 -0.4629
 8984SOL     OW27850   2.257   5.371   4.791  0.1364 -0.1453  0.4283
 8984SOL    HW127851   2.197   5.297   4.762 -0.8821  1.2714 -1.3052
 8984SOL    HW227852   2.248   5.448   4.728  1.7530  1.1736  1.6971
 8985SOL     OW27853   4.209   4.284   6.606  0.1555 -0.4426 -0.3834
 8985SOL    HW127854   4.212   4.192   6.568  0.1123 -0.8209  0.5199
 8985SOL    HW227855   4.144   4.288   6.681 -0.0044  0.3834 -0.5537
 8986SOL     OW27856   4.917   5.049   3.636  0.0666  0.2897  0.4246
 8986SOL    HW127857   4.897   5.128   3.578  0.7249  0.5324  0.5194
 8986SOL    HW227858   4.852   4.976   3.616  0.4898  0.2501 -0.8495
 8987SOL     OW27859   5.346   0.350   3.325 -0.0809 -0.6252  0.7967
 8987SOL    HW127860   5.415   0.292   3.368 -0.6737 -0.8551  1.4444
 8987SOL    HW227861   5.390   0.434   3.291  1.4094 -2.6276 -2.8341
 8988SOL     OW27862   0.862   6.023   3.099 -0.0168  0.4545  0.1790
 8988SOL    HW127863   0.869   5.996   3.003  1.1621 -0.3508  0.4583
 8988SOL    HW227864   0.776   5.989   3.137 -0.0710 -0.0307 -0.3597
 8989SOL     OW27865   4.778   5.121   0.310  0.1685  0.2502 -0.0744
 8989SOL    HW127866   4.797   5.022   0.308  0.0732  0.1548  1.6571
 8989SOL    HW227867   4.776   5.152   0.405 -0.9110  1.7179 -0.5399
 8990SOL     OW27868   0.062   5.247   4.651 -0.0921  0.3186  0.3521
 8990SOL    HW127869  -0.031   5.238   4.687 -0.3309 -1.6780 -0.6502
 8990SOL    HW227870   0.127   5.255   4.727 -0.9148  0.0168  1.1018
 8991SOL     OW27871   2.171   3.920   4.530 -0.3375  0.5020  0.3874
 8991SOL    HW127872   2.174   3.893   4.434  1.8525 -0.7488  0.7435
 8991SOL    HW227873   2.228   4.001   4.544  1.3112 -0.6811  0.9435
 8992SOL     OW27874   6.143   2.760   0.784  0.0208  0.6397  0.2371
 8992SOL    HW127875   6.051   2.725   0.803  0.9732 -2.0069  0.4401
 8992SOL    HW227876   6.208   2.720   0.849  1.3309  2.6796  0.2841
 8993SOL     OW27877   4.685   3.761   6.032 -0.4928  0.0104  0.0470
 8993SOL    HW127878   4.656   3.770   6.128 -1.1757 -0.6969 -0.0834
 8993SOL    HW227879   4.702   3.665   6.011 -2.1112 -0.0811 -1.0155
 8994SOL     OW27880   1.619   3.753   4.560 -0.0990  0.1551 -0.0560
 8994SOL    HW127881   1.689   3.786   4.496 -0.7736  0.1137 -0.8318
 8994SOL    HW227882   1.623   3.653   4.565  0.7214  0.2181  0.8760
 8995SOL     OW27883   0.247   1.569   1.915 -0.0324  0.2786  0.4353
 8995SOL    HW127884   0.153   1.542   1.936  0.0975  0.2147  0.9445
 8995SOL    HW227885   0.310   1.513   1.967  0.2635  0.9826  0.8484
 8996SOL     OW27886   0.165   1.460   6.922  0.2655 -0.0576  1.2496
 8996SOL    HW127887   0.115   1.454   6.835  1.4549  3.9484  0.1036
 8996SOL    HW227888   0.209   1.372   6.941 -1.2196 -1.4935 -1.4017
 8997SOL     OW27889   4.270   1.805   6.274 -0.1009  0.3414  0.3144
 8997SOL    HW127890   4.224   1.868   6.212  0.3820  0.0853 -0.3068
 8997SOL    HW227891   4.206   1.731   6.300 -0.5080  0.8050  0.6527
 8998SOL     OW27892   5.412   3.903   4.933  0.3794 -0.3205  0.0923
 8998SOL    HW127893   5.388   3.967   5.005  1.5358 -0.4408  0.6034
 8998SOL    HW227894   5.427   3.812   4.972 -0.4773 -0.7396 -0.5186
 8999SOL     OW27895   5.308   0.939   6.075  0.1707 -0.0205 -0.6250
 8999SOL    HW127896   5.216   0.936   6.115 -0.0530  3.6012 -0.5662
 8999SOL    HW227897   5.300   0.937   5.976  0.0569  0.0613 -0.6185
 9000SOL     OW27898   1.899   1.350   3.175  0.1401  0.3710 -0.4735
 9000SOL    HW127899   1.812   1.400   3.171 -0.2711 -0.3013 -0.1092
 9000SOL    HW227900   1.921   1.315   3.084  0.9874  2.1134 -0.9789
 9001SOL     OW27901   0.448   5.489   0.464  0.2683 -0.1628  0.6578
 9001SOL    HW127902   0.488   5.567   0.513  1.4213  0.8779 -1.7737
 9001SOL    HW227903   0.348   5.498   0.465  0.3903  2.2811 -0.8366
 9002SOL     OW27904   1.902   3.874   3.202 -0.3842 -0.2229 -0.1308
 9002SOL    HW127905   1.894   3.776   3.185  1.2033 -0.3588 -0.2331
 9002SOL    HW227906   1.848   3.898   3.283  0.2255 -1.4254  0.6632
 9003SOL     OW27907   5.394   3.617   1.820  0.1252  0.5100  0.0011
 9003SOL    HW127908   5.467   3.587   1.881 -0.9580  1.7041  1.9719
 9003SOL    HW227909   5.406   3.573   1.730  1.2893 -1.9830  1.2653
 9004SOL     OW27910   3.460   3.666   0.765 -0.1778  0.7536 -0.7243
 9004SOL    HW127911   3.412   3.637   0.682 -1.4869  1.0590 -0.0939
 9004SOL    HW227912   3.403   3.730   0.816  1.0876  1.4670 -0.1558
 9005SOL     OW27913   4.690   2.392   5.337  0.1472 -0.7053 -0.8873
 9005SOL    HW127914   4.740   2.410   5.422  1.3474 -0.6263 -1.5965
 9005SOL    HW227915   4.714   2.461   5.269 -0.3216 -1.1422 -1.5065
 9006SOL     OW27916   2.376   6.867   1.473 -0.1867  0.3869 -0.8641
 9006SOL    HW127917   2.455   6.909   1.518 -1.9583  2.5060  0.4890
 9006SOL    HW227918   2.379   6.886   1.375  0.4695  1.3295 -0.6713
 9007SOL     OW27919   3.146   0.467   2.066  0.3384 -0.0382  0.2979
 9007SOL    HW127920   3.206   0.415   2.004  0.9867  0.3719  0.5724
 9007SOL    HW227921   3.053   0.469   2.028  0.7099  0.1650 -0.6429
 9008SOL     OW27922   0.282   6.279   3.664 -0.1229  0.2130 -0.4148
 9008SOL    HW127923   0.352   6.279   3.735  0.8164  0.3257 -1.3155
 9008SOL    HW227924   0.323   6.255   3.576 -1.7360 -2.7355 -0.5005
 9009SOL     OW27925   3.664   6.008   0.137  0.2315 -0.5200  0.3700
 9009SOL    HW127926   3.672   6.077   0.208  0.8777  1.6763 -1.7339
 9009SOL    HW227927   3.578   6.020   0.088  0.6664 -0.7395 -0.4722
 9010SOL     OW27928   3.439   5.484   4.001  0.4344 -0.3668  0.5642
 9010SOL    HW127929   3.364   5.548   4.014 -1.0827 -2.0233  0.3959
 9010SOL    HW227930   3.408   5.391   4.023  2.0985 -1.2521 -0.5651
 9011SOL     OW27931   2.536   1.691   1.353 -0.0009  0.3342 -0.4447
 9011SOL    HW127932   2.509   1.645   1.437  0.4562 -1.0676 -1.0305
 9011SOL    HW227933   2.533   1.626   1.277  1.4070  1.0677 -1.1703
 9012SOL     OW27934   1.946   6.635   0.038  0.0790  0.2267 -0.7663
 9012SOL    HW127935   1.847   6.627   0.036  0.0635  0.3052 -0.2203
 9012SOL    HW227936   1.987   6.549   0.006 -0.1584 -0.0420 -0.3537
 9013SOL     OW27937   0.204   0.482   4.901  0.0951 -0.6757 -0.0123
 9013SOL    HW127938   0.275   0.428   4.946 -0.5499 -1.5302 -0.0050
 9013SOL    HW227939   0.128   0.423   4.876 -1.1740  0.4446  1.0893
 9014SOL     OW27940   6.759   4.106   1.427  0.7465 -0.0467  0.0315
 9014SOL    HW127941   6.842   4.064   1.389  1.1668  0.9805 -0.2155
 9014SOL    HW227942   6.696   4.128   1.352  0.9152  0.5767  0.0678
 9015SOL     OW27943   3.229   2.708   1.571 -0.0558  0.4292 -0.2400
 9015SOL    HW127944   3.157   2.658   1.618 -1.3499  1.5828 -0.9464
 9015SOL    HW227945   3.299   2.644   1.540  0.2657 -0.5028  2.1717
 9016SOL     OW27946   5.302   3.756   0.627  0.2026  0.1575 -0.4388
 9016SOL    HW127947   5.332   3.739   0.720  0.0737  2.7772  0.1792
 9016SOL    HW227948   5.239   3.684   0.598 -0.5690 -0.1835  1.8810
 9017SOL     OW27949   5.133   1.537   2.663  0.1773  0.1788 -0.5778
 9017SOL    HW127950   5.213   1.484   2.691  0.0971 -0.1913 -1.0396
 9017SOL    HW227951   5.148   1.633   2.684 -0.1140 -0.1429  1.2705
 9018SOL     OW27952   2.996   2.620   6.180  0.1150 -0.4060  0.1750
 9018SOL    HW127953   2.960   2.681   6.251  1.6372 -1.0611  1.5916
 9018SOL    HW227954   2.966   2.651   6.090 -0.6932  1.3058  0.9962
 9019SOL     OW27955   1.067   4.520   4.561 -0.2006  0.3575  0.1134
 9019SOL    HW127956   1.150   4.475   4.528 -0.2690 -0.0450  0.4794
 9019SOL    HW227957   1.030   4.579   4.489  0.1171  0.1409 -0.2310
 9020SOL     OW27958   6.644   4.629   0.063 -0.7569 -0.5746  0.2073
 9020SOL    HW127959   6.567   4.679   0.023 -0.1118 -0.0665 -0.4273
 9020SOL    HW227960   6.693   4.689   0.126  0.2210 -0.2625 -0.8107
 9021SOL     OW27961   6.807   1.088   1.103 -0.1072 -0.5557 -0.2136
 9021SOL    HW127962   6.723   1.090   1.048  0.7998  1.0134 -1.6624
 9021SOL    HW227963   6.886   1.087   1.042  0.9380  0.6813  1.0674
 9022SOL     OW27964   3.623   1.827   4.406  0.5095  0.2265 -0.0183
 9022SOL    HW127965   3.639   1.926   4.413  1.4770  0.0470  0.3791
 9022SOL    HW227966   3.704   1.777   4.436 -0.0647 -0.7015  0.0437
 9023SOL     OW27967   5.144   5.535   1.491 -0.2891 -0.3586  0.7744
 9023SOL    HW127968   5.094   5.449   1.501 -2.0344  0.8166  2.9009
 9023SOL    HW227969   5.131   5.570   1.398 -1.4437 -1.2627  0.5669
 9024SOL     OW27970   1.874   3.731   4.256 -0.3106  0.9406 -0.4795
 9024SOL    HW127971   1.790   3.784   4.245 -0.4330  1.3799  2.0807
 9024SOL    HW227972   1.924   3.763   4.336  1.0254 -0.9976 -0.4566
 9025SOL     OW27973   6.664   4.986   6.760 -0.6656  0.1153  0.0987
 9025SOL    HW127974   6.703   4.982   6.852 -1.7318  0.2596  0.5698
 9025SOL    HW227975   6.564   4.983   6.766 -0.7582  0.5330 -1.0364
 9026SOL     OW27976   1.886   2.483   1.590  0.5315 -0.2837  0.4466
 9026SOL    HW127977   1.799   2.440   1.566  0.7541 -0.6401  0.2868
 9026SOL    HW227978   1.909   2.460   1.685  1.5332 -2.0035 -0.1734
 9027SOL     OW27979   0.297   4.484   3.993 -0.0026 -0.1442 -0.1934
 9027SOL    HW127980   0.222   4.445   3.938 -0.8651 -0.0514  0.8832
 9027SOL    HW227981   0.283   4.583   4.003  2.0237  0.4988 -2.6738
 9028SOL     OW27982   4.626   2.681   5.135 -0.0605 -0.2825 -0.5150
 9028SOL    HW127983   4.535   2.681   5.178 -0.2568 -2.3945 -0.8382
 9028SOL    HW227984   4.620   2.639   5.045  1.4217 -1.5485 -0.0588
 9029SOL     OW27985   3.137   5.441   5.714 -0.3934  0.5623  0.0200
 9029SOL    HW127986   3.237   5.438   5.724 -0.4312  0.6946  0.4373
 9029SOL    HW227987   3.113   5.428   5.618 -0.0433 -1.2010  0.1445
 9030SOL     OW27988   2.244   2.847   3.739  0.6129  0.4494  0.7370
 9030SOL    HW127989   2.216   2.905   3.663  0.0962 -0.0774  0.5137
 9030SOL    HW227990   2.226   2.895   3.825  0.9112  0.9219  0.5424
 9031SOL     OW27991   6.631   6.727   4.352  0.3601 -1.0245 -0.2992
 9031SOL    HW127992   6.587   6.703   4.266  0.3412 -0.3886 -0.4658
 9031SOL    HW227993   6.717   6.774   4.335 -1.0948  1.9696 -0.0597
 9032SOL     OW27994   4.494   2.683   1.709 -0.0590 -0.0122  0.7989
 9032SOL    HW127995   4.527   2.717   1.621  1.2364 -0.0234  1.2486
 9032SOL    HW227996   4.531   2.592   1.726 -0.9072 -0.3219  1.0302
 9033SOL     OW27997   1.079   4.884   1.881 -0.2512  0.5557  0.5864
 9033SOL    HW127998   1.024   4.966   1.893  0.4712  1.2421 -0.5500
 9033SOL    HW227999   1.047   4.835   1.800 -0.7385 -0.3507  1.3115
 9034SOL     OW28000   5.848   0.775   2.392 -0.7289  1.0713 -0.3477
 9034SOL    HW128001   5.905   0.700   2.427  1.7764  1.9426 -2.2109
 9034SOL    HW228002   5.771   0.737   2.341  0.2723 -0.2609 -0.9294
 9035SOL     OW28003   0.362   5.962   0.377 -0.4261  0.0889 -0.0424
 9035SOL    HW128004   0.302   5.949   0.456  0.0713  0.3058  0.3743
 9035SOL    HW228005   0.399   5.873   0.349  1.1170  0.2400  1.3413
 9036SOL     OW28006   1.354   3.663   5.257 -0.1393 -0.3466 -0.1930
 9036SOL    HW128007   1.334   3.685   5.352  0.8061  0.8056 -0.2347
 9036SOL    HW228008   1.452   3.655   5.244 -0.2762 -0.7874 -1.0107
 9037SOL     OW28009   0.237   3.111   5.601 -0.3283 -0.3448  0.1227
 9037SOL    HW128010   0.161   3.062   5.644 -0.5426  0.8516  1.1715
 9037SOL    HW228011   0.318   3.104   5.659 -0.3642  0.5197  0.2884
 9038SOL     OW28012   3.638   4.154   0.421 -0.2938  0.8884  0.2019
 9038SOL    HW128013   3.662   4.068   0.466 -0.4517  0.1038 -1.1348
 9038SOL    HW228014   3.556   4.192   0.462 -0.0962  0.5247  0.9580
 9039SOL     OW28015   2.170   4.606   6.883  0.2033 -0.0852 -0.0879
 9039SOL    HW128016   2.177   4.691   6.830 -0.4680 -0.4757 -0.8173
 9039SOL    HW228017   2.186   4.626   6.979 -0.2104  0.9200 -0.2149
 9040SOL     OW28018   1.937   2.066   3.088 -0.0799 -0.6295 -0.2660
 9040SOL    HW128019   1.968   2.010   3.164 -1.7085 -1.1544  0.0545
 9040SOL    HW228020   2.015   2.091   3.030  0.7665 -2.8431 -0.1634
 9041SOL     OW28021   1.405   3.510   2.039  0.3910  0.4421 -0.0454
 9041SOL    HW128022   1.456   3.434   1.998 -1.2499  0.3957 -2.1645
 9041SOL    HW228023   1.431   3.595   1.993 -1.1815  0.4514 -0.9988
 9042SOL     OW28024   1.893   4.136   6.268 -0.3838 -0.5929 -0.7656
 9042SOL    HW128025   1.902   4.061   6.332 -0.3583 -0.2923 -0.4152
 9042SOL    HW228026   1.969   4.132   6.202 -1.0911 -1.6239 -1.5504
 9043SOL     OW28027   2.717   0.648   0.968  0.1482 -0.3254  0.0550
 9043SOL    HW128028   2.744   0.555   0.992  1.1909 -0.2750 -0.8830
 9043SOL    HW228029   2.617   0.651   0.958  0.0047 -1.1000  1.0492
 9044SOL     OW28030   1.787   6.569   6.061  0.5824 -0.1197 -0.3806
 9044SOL    HW128031   1.876   6.609   6.084  0.8495 -0.3155 -1.0461
 9044SOL    HW228032   1.772   6.488   6.117  1.6646 -1.1634 -1.5190
 9045SOL     OW28033   4.401   6.871   1.062 -0.1788 -0.4209  0.1782
 9045SOL    HW128034   4.304   6.849   1.070 -0.2051 -0.2636  0.2901
 9045SOL    HW228035   4.413   6.970   1.064  0.0238 -0.4536  0.5931
 9046SOL     OW28036   3.617   3.324   2.479 -0.0245 -0.0313 -0.1990
 9046SOL    HW128037   3.708   3.326   2.436  0.2060  0.3147  0.3078
 9046SOL    HW228038   3.584   3.417   2.490 -0.1378 -0.1294  0.2702
 9047SOL     OW28039   1.998   4.253   5.159  0.0741  0.4455  0.4270
 9047SOL    HW128040   1.932   4.313   5.113 -0.0287  1.7454  2.1675
 9047SOL    HW228041   2.072   4.231   5.096  0.3778  2.8584 -0.1679
 9048SOL     OW28042   0.714   2.822   6.097  0.4782 -0.2064 -0.4754
 9048SOL    HW128043   0.656   2.800   6.176 -0.0297  2.9920  0.1522
 9048SOL    HW228044   0.805   2.849   6.129  1.3875 -2.1009 -1.2805
 9049SOL     OW28045   3.391   5.746   5.704 -0.1500 -0.0886 -0.6521
 9049SOL    HW128046   3.327   5.821   5.690 -0.0514 -0.3226 -2.6242
 9049SOL    HW228047   3.357   5.664   5.658 -0.2468 -1.3025  1.4445
 9050SOL     OW28048   2.142   4.065   1.810 -0.0807 -0.0098  0.4724
 9050SOL    HW128049   2.143   4.151   1.860  0.6851 -1.0406  2.3121
 9050SOL    HW228050   2.187   3.994   1.864 -1.4054 -1.7824 -0.6343
 9051SOL     OW28051   1.451   6.365   0.641 -0.2875 -0.2131  0.1471
 9051SOL    HW128052   1.540   6.329   0.669 -0.5991 -0.6464  0.5899
 9051SOL    HW228053   1.383   6.292   0.642 -0.3316 -0.2653 -1.7439
 9052SOL     OW28054   1.147   3.330   6.762 -0.4006  0.2214  0.0205
 9052SOL    HW128055   1.074   3.262   6.774 -0.7163  0.7822  1.4327
 9052SOL    HW228056   1.222   3.288   6.711 -1.2181 -0.7166 -0.4706
 9053SOL     OW28057   2.039   0.539   1.001  0.0692  0.4758  0.2822
 9053SOL    HW128058   2.100   0.488   0.941 -1.7154  0.4445 -1.6361
 9053SOL    HW228059   1.986   0.604   0.946 -2.2212 -0.1124  1.6733
 9054SOL     OW28060   2.550   5.805   4.192  0.2190 -0.0610 -0.1590
 9054SOL    HW128061   2.547   5.897   4.230  1.7305  0.6619 -1.6525
 9054SOL    HW228062   2.645   5.782   4.169 -0.5821 -0.1607 -4.0088
 9055SOL     OW28063   5.763   3.048   4.620 -0.0267 -0.6183 -0.4323
 9055SOL    HW128064   5.805   3.067   4.532  0.0911  1.2725 -0.0014
 9055SOL    HW228065   5.799   3.111   4.689 -1.2532 -1.0243  0.6235
 9056SOL     OW28066   1.717   0.824   3.455  0.3012  0.5109  0.3502
 9056SOL    HW128067   1.807   0.860   3.481 -0.9868  2.1587  2.9552
 9056SOL    HW228068   1.666   0.895   3.406 -0.0393  0.0116 -0.0349
 9057SOL     OW28069   3.937   1.823   3.929  0.1901 -0.1019  0.2591
 9057SOL    HW128070   3.990   1.861   4.005  1.6773  0.1314 -0.8442
 9057SOL    HW228071   3.885   1.897   3.885 -0.5878 -0.2183  0.9664
 9058SOL     OW28072   2.277   0.611   6.992 -0.5224 -0.1959 -0.2240
 9058SOL    HW128073   2.338   0.687   6.969 -0.7314 -0.2335 -0.9151
 9058SOL    HW228074   2.311   0.566   7.074  0.2313 -0.0473 -0.4389
 9059SOL     OW28075   0.300   2.177   2.839 -0.3651 -0.5270 -0.2779
 9059SOL    HW128076   0.323   2.086   2.805 -0.2041 -0.4096 -0.4850
 9059SOL    HW228077   0.266   2.233   2.763  1.4573  0.2355 -0.5882
 9060SOL     OW28078   6.386   2.340   4.326 -0.0632 -0.6441  0.3803
 9060SOL    HW128079   6.471   2.352   4.378  0.5885  0.1259 -0.7963
 9060SOL    HW228080   6.309   2.376   4.377  0.3495 -1.1282  1.3653
 9061SOL     OW28081   5.565   5.380   2.408 -0.1532 -0.7190 -0.7274
 9061SOL    HW128082   5.623   5.329   2.471 -1.1835  0.9378  1.7181
 9061SOL    HW228083   5.606   5.381   2.317  1.2977 -3.3937 -0.1913
 9062SOL     OW28084   1.845   6.596   1.963  0.3223  0.3367  0.0408
 9062SOL    HW128085   1.765   6.556   1.919  1.2789 -0.3368 -1.1477
 9062SOL    HW228086   1.864   6.686   1.923  0.1583  0.5094  0.3430
 9063SOL     OW28087   3.173   1.903   4.317 -0.4103 -0.8401 -0.4470
 9063SOL    HW128088   3.160   1.997   4.349  0.3180 -1.2635  1.2042
 9063SOL    HW228089   3.233   1.903   4.237 -1.7622  0.2049 -1.5184
 9064SOL     OW28090   1.713   1.974   6.109  0.4856  0.4908 -0.3310
 9064SOL    HW128091   1.655   2.010   6.036  0.6663  2.0787  0.2701
 9064SOL    HW228092   1.666   1.899   6.156 -0.6723  1.1069 -0.4833
 9065SOL     OW28093   3.842   5.725   0.170 -0.3362 -0.1981 -0.6804
 9065SOL    HW128094   3.816   5.770   0.084 -1.8350 -0.3979 -0.3691
 9065SOL    HW228095   3.808   5.779   0.247  2.4409  0.8747 -0.0984
 9066SOL     OW28096   4.970   1.912   6.236  0.6103  0.0457  0.0261
 9066SOL    HW128097   4.927   1.847   6.174  0.2713  0.6261 -0.3525
 9066SOL    HW228098   5.014   1.863   6.311 -0.5563 -0.5769  0.3282
 9067SOL     OW28099   3.552   6.657   4.748  0.1836 -0.7519  0.8095
 9067SOL    HW128100   3.508   6.705   4.672 -1.6498 -0.9578  1.6690
 9067SOL    HW228101   3.628   6.711   4.782  0.5180 -0.2710 -0.6404
 9068SOL     OW28102   1.085   5.081   4.172 -0.4927 -0.1937  0.5063
 9068SOL    HW128103   1.155   5.070   4.102  0.3712 -0.0007  1.3269
 9068SOL    HW228104   1.092   5.172   4.213 -0.4518 -0.5886  1.4021
 9069SOL     OW28105   3.330   3.421   5.427  0.1299  0.0093 -0.4479
 9069SOL    HW128106   3.270   3.358   5.377  0.7264  0.0613 -1.2523
 9069SOL    HW228107   3.349   3.384   5.518 -0.0321 -0.6643 -0.6807
 9070SOL     OW28108   0.623   3.524   5.006  0.2712 -0.2462 -0.3098
 9070SOL    HW128109   0.718   3.526   5.037  0.5743  0.4314 -1.2132
 9070SOL    HW228110   0.569   3.588   5.060  0.4095 -0.3461 -0.0504
 9071SOL     OW28111   6.176   0.263   6.289  0.6098 -0.0304  0.2259
 9071SOL    HW128112   6.162   0.228   6.382 -1.4019  2.2656  0.8958
 9071SOL    HW228113   6.087   0.282   6.247  1.3519 -2.9626 -3.0852
 9072SOL     OW28114   0.826   4.252   1.806  0.2115 -0.0445 -0.3492
 9072SOL    HW128115   0.849   4.264   1.903  0.5507  0.5591 -0.5036
 9072SOL    HW228116   0.751   4.186   1.798  1.3484 -1.4757  0.2160
 9073SOL     OW28117   1.386   6.856   6.333 -0.0381 -0.3007  0.3553
 9073SOL    HW128118   1.314   6.787   6.324  0.7234 -1.0978  0.2389
 9073SOL    HW228119   1.468   6.824   6.286  0.2012  0.8728 -0.0352
 9074SOL     OW28120   1.181   0.143   2.570 -0.2955 -0.2690 -0.3505
 9074SOL    HW128121   1.257   0.084   2.598 -1.4198 -0.9872  1.3281
 9074SOL    HW228122   1.099   0.087   2.560 -1.2793  0.9267  0.7899
 9075SOL     OW28123   1.301   0.343   2.427 -0.0452  0.2983  0.0813
 9075SOL    HW128124   1.376   0.380   2.481  0.3367 -1.1568  0.5967
 9075SOL    HW228125   1.259   0.266   2.475 -0.5180 -0.2312 -1.1207
 9076SOL     OW28126   0.129   2.152   6.320  0.2318  0.1804 -0.0774
 9076SOL    HW128127   0.105   2.056   6.306  0.4711  0.0526  0.3653
 9076SOL    HW228128   0.048   2.203   6.348 -0.0563  0.2599 -1.0085
 9077SOL     OW28129   4.208   0.583   2.050 -0.5074  0.3694 -0.2889
 9077SOL    HW128130   4.293   0.576   2.102 -1.0283 -2.0341  0.3597
 9077SOL    HW228131   4.230   0.586   1.952  0.3528 -0.1919 -0.1292
 9078SOL     OW28132   3.791   3.627   4.490 -0.2131  0.0865 -0.3830
 9078SOL    HW128133   3.840   3.641   4.576 -3.2092  0.4581  1.4217
 9078SOL    HW228134   3.845   3.663   4.415  1.4767  2.1710  1.6666
 9079SOL     OW28135   2.364   6.518   5.948 -0.2195  0.3637  0.2508
 9079SOL    HW128136   2.455   6.554   5.966 -0.9706  1.7046  1.5770
 9079SOL    HW228137   2.317   6.500   6.035 -1.8057  1.2756 -0.3760
 9080SOL     OW28138   4.112   2.398   6.445 -0.0997 -0.6798 -0.2412
 9080SOL    HW128139   4.150   2.307   6.463  0.0586 -0.5168  0.2613
 9080SOL    HW228140   4.178   2.467   6.473 -0.5672 -0.3977  0.1851
 9081SOL     OW28141   4.685   4.167   2.601 -0.3371 -0.1318  0.1497
 9081SOL    HW128142   4.644   4.226   2.671  1.4967 -0.4324  1.5506
 9081SOL    HW228143   4.723   4.223   2.528 -1.6729  0.2228 -0.2952
 9082SOL     OW28144   3.850   6.818   3.633 -0.1114 -0.4803 -0.3400
 9082SOL    HW128145   3.919   6.868   3.581 -0.7523 -0.4372 -1.1709
 9082SOL    HW228146   3.774   6.793   3.572 -1.4545  0.6316  0.8149
 9083SOL     OW28147   5.405   3.663   4.798  0.2133 -0.1694 -0.3939
 9083SOL    HW128148   5.365   3.755   4.797 -0.1660 -0.3326 -0.5219
 9083SOL    HW228149   5.333   3.595   4.783  0.5649 -0.4626 -0.7638
 9084SOL     OW28150   3.169   4.075   4.268  0.2004 -0.5654 -0.0848
 9084SOL    HW128151   3.251   4.128   4.250 -0.2974  0.0223 -0.6689
 9084SOL    HW228152   3.136   4.094   4.360 -0.7440  1.2214 -0.7547
 9085SOL     OW28153   2.472   1.797   1.662 -0.2500  0.8795 -0.1123
 9085SOL    HW128154   2.448   1.700   1.672  0.8993  0.6089  0.1202
 9085SOL    HW228155   2.463   1.822   1.565  0.0369  0.3816 -0.2728
 9086SOL     OW28156   1.129   0.445   0.453 -0.1576  0.0392  0.2293
 9086SOL    HW128157   1.197   0.396   0.398  1.5878  0.5685  1.8227
 9086SOL    HW228158   1.038   0.423   0.419  0.7492 -1.1668 -1.6147
 9087SOL     OW28159   5.586   4.638   2.971  0.1458 -0.2928 -0.3312
 9087SOL    HW128160   5.553   4.694   3.047  1.2879  0.3511 -0.2919
 9087SOL    HW228161   5.637   4.560   3.006 -0.3345 -0.6523 -0.4201
 9088SOL     OW28162   5.547   2.134   0.021  0.3187 -0.0278 -0.3317
 9088SOL    HW128163   5.577   2.041   0.043  0.5481  0.1531  0.1398
 9088SOL    HW228164   5.625   2.186  -0.016  0.4921  0.3205  0.5035
 9089SOL     OW28165   5.955   6.872   4.102 -0.3903 -0.4256 -0.3469
 9089SOL    HW128166   5.955   6.932   4.182  1.7812 -0.9675  0.1337
 9089SOL    HW228167   5.969   6.927   4.019  0.7216 -0.1472  0.0050
 9090SOL     OW28168   6.387   0.406   3.777  0.2153  0.5551 -0.0726
 9090SOL    HW128169   6.322   0.475   3.807  0.7757  1.3564 -0.6880
 9090SOL    HW228170   6.343   0.316   3.781 -0.1989  0.7950  1.7179
 9091SOL     OW28171   2.966   4.069   0.719  0.1985 -0.0920 -0.0488
 9091SOL    HW128172   2.921   4.060   0.630 -0.1518  0.3502  0.0837
 9091SOL    HW228173   3.050   4.122   0.709 -0.5304  1.1408  0.1025
 9092SOL     OW28174   6.632   3.426   1.186 -0.6754 -0.6300  0.2531
 9092SOL    HW128175   6.612   3.329   1.197 -0.3561 -0.6112  1.0238
 9092SOL    HW228176   6.573   3.479   1.247 -0.8899 -0.3300 -0.2063
 9093SOL     OW28177   2.638   1.134   0.072  0.6081 -0.2169 -0.7290
 9093SOL    HW128178   2.631   1.052   0.016 -0.2250  0.2263 -1.2984
 9093SOL    HW228179   2.580   1.206   0.034  0.0528  0.1223  0.6593
 9094SOL     OW28180   6.628   3.087   1.484  0.5581  0.1102  0.5112
 9094SOL    HW128181   6.699   3.137   1.534 -1.2434  0.2289  3.1329
 9094SOL    HW228182   6.549   3.146   1.470 -0.8535 -1.3548  1.9512
 9095SOL     OW28183   4.333   0.091   5.360 -0.2847  0.2033 -0.0155
 9095SOL    HW128184   4.270   0.062   5.431  0.5391  0.0046  0.6481
 9095SOL    HW228185   4.380   0.175   5.389 -0.9747  0.9412 -0.9397
 9096SOL     OW28186   5.379   4.182   2.986  0.0226 -0.1009 -0.4347
 9096SOL    HW128187   5.433   4.252   3.033 -0.4222 -0.9236  1.3719
 9096SOL    HW228188   5.282   4.204   2.994 -0.0822 -0.5510 -0.4725
 9097SOL     OW28189   4.961   3.498   0.238  0.1410  0.3397  0.2720
 9097SOL    HW128190   4.938   3.592   0.214  1.3104  0.8861  1.1862
 9097SOL    HW228191   4.879   3.441   0.233 -0.0930  0.7495 -3.1369
 9098SOL     OW28192   0.066   2.262   6.715  0.3213 -0.0315  0.1354
 9098SOL    HW128193   0.139   2.329   6.699  0.3551 -0.5960 -2.7804
 9098SOL    HW228194  -0.021   2.300   6.683 -0.0975 -0.5249  0.6779
 9099SOL     OW28195   2.430   2.483   1.081 -0.1227 -0.2950  0.0691
 9099SOL    HW128196   2.466   2.545   1.150 -0.0629 -1.1628  0.8362
 9099SOL    HW228197   2.336   2.459   1.104 -0.4147  0.1123 -0.6519
 9100SOL     OW28198   1.411   4.022   3.579  0.0216  0.3601 -0.1081
 9100SOL    HW128199   1.485   3.975   3.627 -1.3053 -3.3375 -1.2915
 9100SOL    HW228200   1.385   4.105   3.628  2.6588 -0.0294  2.1400
 9101SOL     OW28201   1.786   1.926   1.222 -0.2059  0.2676 -0.2851
 9101SOL    HW128202   1.702   1.895   1.265 -0.3352 -3.2408 -2.5935
 9101SOL    HW228203   1.765   1.990   1.149 -0.6854  0.7601  0.2817
 9102SOL     OW28204   3.620   5.175   3.189 -0.2826 -0.2384 -0.2914
 9102SOL    HW128205   3.719   5.171   3.178 -0.1385  0.1806  0.7224
 9102SOL    HW228206   3.576   5.157   3.102  0.6782 -0.7493 -0.6872
 9103SOL     OW28207   6.777   2.598   0.897  0.3048 -0.3681 -0.5125
 9103SOL    HW128208   6.715   2.648   0.958  0.0455 -1.0874 -0.1783
 9103SOL    HW228209   6.766   2.500   0.912  2.7479 -0.5097  0.8051
 9104SOL     OW28210   0.879   0.743   0.587 -0.3751  0.4577  0.1789
 9104SOL    HW128211   0.940   0.670   0.617 -0.4489  0.0426 -0.6429
 9104SOL    HW228212   0.851   0.726   0.492 -0.1109  1.7406 -0.1469
 9105SOL     OW28213   1.471   1.123   5.165  0.0302 -0.3678  0.4693
 9105SOL    HW128214   1.427   1.036   5.142 -2.5535  0.9038  0.3269
 9105SOL    HW228215   1.498   1.170   5.081  1.2475 -0.8992  0.5410
 9106SOL     OW28216   6.280   3.732   6.765 -0.3580  0.5526  0.0425
 9106SOL    HW128217   6.194   3.704   6.809 -1.7117  2.9924 -0.8957
 9106SOL    HW228218   6.269   3.730   6.666 -0.1968  3.1115 -0.1010
 9107SOL     OW28219   3.201   0.631   6.064 -0.0820 -0.1468  0.0549
 9107SOL    HW128220   3.109   0.592   6.053 -0.2877  0.1076  0.7842
 9107SOL    HW228221   3.217   0.700   5.994 -1.4534  1.6473  1.3977
 9108SOL     OW28222   5.508   4.973   5.282  0.0705 -0.1458 -0.0783
 9108SOL    HW128223   5.439   5.024   5.333  0.7695 -0.8315  1.6100
 9108SOL    HW228224   5.520   4.883   5.323  2.5588  0.2437  0.1922
 9109SOL     OW28225   4.615   4.468   1.285 -0.4370  0.0393 -0.4165
 9109SOL    HW128226   4.696   4.434   1.334  0.2536  1.4013 -0.5668
 9109SOL    HW228227   4.533   4.429   1.326  0.1595  0.6001  1.4184
 9110SOL     OW28228   1.949   4.468   4.687  0.1868 -0.5677 -0.4663
 9110SOL    HW128229   1.855   4.474   4.655 -0.3347  0.1009  1.0842
 9110SOL    HW228230   1.975   4.372   4.696 -1.6597 -0.9077  2.5514
 9111SOL     OW28231   4.158   2.583   6.163  0.3038 -0.1076 -0.5076
 9111SOL    HW128232   4.076   2.572   6.219  0.9555  1.9373  0.9493
 9111SOL    HW228233   4.216   2.503   6.172 -1.5673 -1.7135 -1.7541
 9112SOL     OW28234   3.282   6.714   4.574 -0.2422 -0.1142 -0.3345
 9112SOL    HW128235   3.305   6.806   4.607 -1.5800 -0.2803  1.1993
 9112SOL    HW228236   3.276   6.715   4.475  0.4388  1.2857 -0.3870
 9113SOL     OW28237   4.369   0.977   3.044  0.4063 -0.1749  0.7668
 9113SOL    HW128238   4.429   1.027   2.981 -2.6752  0.7466 -1.7419
 9113SOL    HW228239   4.283   1.028   3.055 -1.2055 -2.8527  1.5749
 9114SOL     OW28240   1.450   4.383   4.314 -0.1542 -0.3461 -0.3990
 9114SOL    HW128241   1.409   4.374   4.405 -1.1796  0.0389 -0.8034
 9114SOL    HW228242   1.469   4.480   4.296 -0.5110 -0.3501 -0.8178
 9115SOL     OW28243   5.526   3.242   5.711 -0.2456 -0.1041 -0.5713
 9115SOL    HW128244   5.432   3.270   5.731 -0.1839 -0.6178  0.5168
 9115SOL    HW228245   5.525   3.156   5.659 -0.3761 -0.1795 -0.4444
 9116SOL     OW28246   4.426   6.259   4.559 -0.6467  0.1878 -0.4860
 9116SOL    HW128247   4.362   6.335   4.556 -0.5552  0.2415 -1.6624
 9116SOL    HW228248   4.474   6.252   4.471  2.8941  1.7927  1.1346
 9117SOL     OW28249   4.180   1.043   6.392  0.1313  0.3792  0.2528
 9117SOL    HW128250   4.193   1.142   6.389  0.7095  0.3340  0.8891
 9117SOL    HW228251   4.095   1.023   6.441  1.1762  0.5243  2.2403
 9118SOL     OW28252   3.894   3.607   5.911  0.3710 -0.1525 -0.3253
 9118SOL    HW128253   3.949   3.650   5.983 -0.0317 -1.5411  0.8437
 9118SOL    HW228254   3.846   3.528   5.949 -1.4748  0.2987 -1.6164
 9119SOL     OW28255   2.946   0.190   1.577  0.2623  0.5059  0.0280
 9119SOL    HW128256   2.982   0.238   1.497 -0.9310  0.0184 -0.8318
 9119SOL    HW228257   2.880   0.249   1.624  0.4243  0.5218  0.2349
 9120SOL     OW28258   4.863   2.814   4.626  0.4448 -0.4340  0.9198
 9120SOL    HW128259   4.961   2.824   4.606  0.1566  2.8091  0.6241
 9120SOL    HW228260   4.851   2.803   4.725  1.0818 -1.4051  0.9137
 9121SOL     OW28261   4.368   1.477   6.018 -0.5989  0.2354 -0.4184
 9121SOL    HW128262   4.384   1.513   5.926 -1.3415 -0.0791 -0.6772
 9121SOL    HW228263   4.432   1.520   6.082  1.0725 -0.7715 -1.3489
 9122SOL     OW28264   1.651   3.922   3.379  0.6785  0.2311 -0.9869
 9122SOL    HW128265   1.638   4.014   3.342 -2.4806  1.5363  2.6681
 9122SOL    HW228266   1.577   3.863   3.348  1.8784 -0.7377 -2.1248
 9123SOL     OW28267   1.227   0.190   3.504  0.8986 -0.3788  0.1842
 9123SOL    HW128268   1.295   0.208   3.433  2.0928 -0.1937  1.3503
 9123SOL    HW228269   1.195   0.276   3.543  0.3314 -0.4857 -0.0333
 9124SOL     OW28270   1.822   3.347   1.935 -0.3583 -0.0625 -0.2701
 9124SOL    HW128271   1.880   3.427   1.920 -0.3909  0.1869  0.8412
 9124SOL    HW228272   1.767   3.361   2.018  0.2174 -1.5433  0.4026
 9125SOL     OW28273   4.101   1.014   5.510  0.6130  0.1012  0.4164
 9125SOL    HW128274   4.091   0.967   5.597  0.1343  0.9988  0.8642
 9125SOL    HW228275   4.164   1.091   5.519 -0.2993  0.8961  0.2897
 9126SOL     OW28276   5.245   5.790   1.315  0.8212 -0.5140  0.4898
 9126SOL    HW128277   5.196   5.877   1.316  2.3600  0.3844  1.3977
 9126SOL    HW228278   5.189   5.721   1.269 -0.0000  1.2032 -1.2681
 9127SOL     OW28279   0.225   4.206   5.295  0.2087 -0.1070  0.2666
 9127SOL    HW128280   0.251   4.294   5.254 -1.9151 -0.4858 -2.1932
 9127SOL    HW228281   0.283   4.134   5.258  0.0242 -0.1105 -0.0172
 9128SOL     OW28282   5.049   3.622   6.144 -0.0419 -0.0709  0.1934
 9128SOL    HW128283   5.070   3.704   6.090  0.8814 -1.5184 -1.7406
 9128SOL    HW228284   4.950   3.610   6.149 -0.1952  1.2246  0.6347
 9129SOL     OW28285   3.006   1.081   2.640 -0.8231  0.1641 -0.2311
 9129SOL    HW128286   2.925   1.034   2.676 -1.4380 -0.3958 -2.2401
 9129SOL    HW228287   2.977   1.163   2.590 -0.3473 -0.8374 -2.2703
 9130SOL     OW28288   1.910   4.536   6.877  0.4912  0.0334 -0.0996
 9130SOL    HW128289   1.862   4.556   6.963  1.3807 -3.3516  1.3392
 9130SOL    HW228290   2.004   4.569   6.883  0.1418  1.1415 -0.4369
 9131SOL     OW28291   0.304   2.215   6.111  0.3917 -0.5209 -0.0593
 9131SOL    HW128292   0.213   2.205   6.152 -0.7227  0.5849 -2.1194
 9131SOL    HW228293   0.353   2.290   6.154 -0.8929  0.8460 -0.9160
 9132SOL     OW28294   5.882   3.673   5.316  0.4171  0.6527  0.0951
 9132SOL    HW128295   5.911   3.592   5.265  0.8219  0.9920 -0.2256
 9132SOL    HW228296   5.784   3.667   5.337  0.3847  0.2191 -0.1717
 9133SOL     OW28297   5.937   6.777   0.539 -0.6437 -0.5353  0.1406
 9133SOL    HW128298   5.982   6.690   0.560 -0.7720  0.0428  3.2381
 9133SOL    HW228299   5.839   6.769   0.557 -0.7346  0.1065 -0.0447
 9134SOL     OW28300   4.443   4.834   5.180 -0.8536  0.1994 -0.4898
 9134SOL    HW128301   4.420   4.798   5.090 -1.3771 -0.3494 -0.1387
 9134SOL    HW228302   4.543   4.844   5.186 -0.5124 -2.6534 -0.0787
 9135SOL     OW28303   0.670   5.738   2.140  0.8059  0.0276 -0.3634
 9135SOL    HW128304   0.657   5.685   2.224  1.1082 -0.3700 -0.5636
 9135SOL    HW228305   0.715   5.681   2.072 -1.6824 -0.5156 -1.6843
 9136SOL     OW28306   6.337   3.875   5.964 -0.2202  0.5312  0.0962
 9136SOL    HW128307   6.308   3.967   5.936 -1.2626  0.0951 -0.2869
 9136SOL    HW228308   6.436   3.873   5.971 -0.2174  1.9157  0.9003
 9137SOL     OW28309   5.176   6.594   0.740 -0.2964 -0.1542 -0.3226
 9137SOL    HW128310   5.261   6.547   0.716  0.5618  1.0166  0.3116
 9137SOL    HW228311   5.196   6.669   0.803 -1.9619 -0.6807  0.9210
 9138SOL     OW28312   2.570   3.885   1.664  0.1556 -0.0102 -0.1182
 9138SOL    HW128313   2.657   3.896   1.615 -0.6710 -1.2055 -1.9393
 9138SOL    HW228314   2.548   3.788   1.672 -0.8849  0.2720  0.5892
 9139SOL     OW28315   5.804   1.038   1.033 -0.2899 -0.2158  0.2527
 9139SOL    HW128316   5.708   1.041   1.008 -0.3136  2.5498  0.4301
 9139SOL    HW228317   5.859   1.090   0.967  0.2294  3.2457  3.1014
 9140SOL     OW28318   0.436   4.077   2.489 -0.4492 -0.5354 -0.0305
 9140SOL    HW128319   0.528   4.116   2.490 -1.0090  0.9637 -1.6169
 9140SOL    HW228320   0.418   4.031   2.576  2.0529 -1.5385  0.0374
 9141SOL     OW28321   5.958   6.725   6.932  0.1847 -0.2485  0.3889
 9141SOL    HW128322   5.862   6.734   6.961 -0.3175 -0.1828 -1.2367
 9141SOL    HW228323   6.000   6.816   6.929  0.4661 -0.3158  1.5478
 9142SOL     OW28324   2.049   3.228   2.069  0.0744 -0.2520 -0.5390
 9142SOL    HW128325   1.953   3.229   2.040 -0.1434 -4.4879 -0.5550
 9142SOL    HW228326   2.056   3.190   2.161  1.6747  2.3443  0.5315
 9143SOL     OW28327   1.300   3.846   1.666  0.5677  0.0058  0.0250
 9143SOL    HW128328   1.235   3.816   1.597  0.9870  1.5338 -1.1052
 9143SOL    HW228329   1.377   3.782   1.670  0.8830  0.2695 -1.4622
 9144SOL     OW28330   2.636   4.305   6.526 -0.2449  0.2308  0.0597
 9144SOL    HW128331   2.734   4.284   6.526 -0.2825 -0.0426 -1.6660
 9144SOL    HW228332   2.610   4.344   6.438 -1.7250  0.1746  0.4514
 9145SOL     OW28333   6.949   0.390   5.494  0.0428 -0.0882 -0.1785
 9145SOL    HW128334   6.860   0.392   5.540 -0.2667  0.0515 -0.7816
 9145SOL    HW228335   6.935   0.380   5.395  0.6817  0.3983 -0.3198
 9146SOL     OW28336   4.104   1.858   3.597 -0.0122 -0.5796  0.3349
 9146SOL    HW128337   4.017   1.886   3.637 -0.0608 -0.7373  0.3409
 9146SOL    HW228338   4.114   1.899   3.507 -0.8438 -1.8642 -0.3747
 9147SOL     OW28339   5.552   2.005   6.096 -0.3207  0.3143  0.0055
 9147SOL    HW128340   5.527   2.020   6.192 -0.6197 -0.1568  0.0032
 9147SOL    HW228341   5.470   1.980   6.044 -0.1122  0.2990 -0.3170
 9148SOL     OW28342   6.317   5.788   0.746  0.1159  0.2208  0.6423
 9148SOL    HW128343   6.395   5.735   0.716  0.7101  1.1036  0.5808
 9148SOL    HW228344   6.345   5.853   0.817 -0.3159  1.2655 -0.1058
 9149SOL     OW28345   0.818   3.488   1.611 -0.0579  0.0604  0.1898
 9149SOL    HW128346   0.881   3.565   1.614  1.9109 -1.4940  0.6259
 9149SOL    HW228347   0.828   3.439   1.524  0.1765 -0.8627  0.7247
 9150SOL     OW28348   2.007   4.348   0.197  0.3373 -0.1602  0.2208
 9150SOL    HW128349   2.034   4.272   0.257  0.0924 -0.7657 -0.4227
 9150SOL    HW228350   2.075   4.359   0.125 -1.3392 -2.1176 -1.7984
 9151SOL     OW28351   0.790   1.390   3.545 -0.6460 -0.3908  0.3262
 9151SOL    HW128352   0.828   1.450   3.474  0.0767 -0.2113  0.8538
 9151SOL    HW228353   0.697   1.418   3.566 -1.1248 -0.8776 -1.0456
 9152SOL     OW28354   3.900   5.689   4.142 -0.3773  0.1844 -0.8638
 9152SOL    HW128355   3.853   5.607   4.110 -1.5010  0.1720  0.7249
 9152SOL    HW228356   3.897   5.693   4.242  0.9212  1.4313 -0.8394
 9153SOL     OW28357   5.680   3.090   0.353  0.5176  0.4921  0.0841
 9153SOL    HW128358   5.690   3.161   0.422 -1.8649  0.6578  0.3544
 9153SOL    HW228359   5.717   3.004   0.388  1.5936  1.1371  0.5590
 9154SOL     OW28360   6.735   4.820   2.104  0.1833  0.0587  0.1859
 9154SOL    HW128361   6.651   4.854   2.063 -1.1672 -1.4425  1.5548
 9154SOL    HW228362   6.792   4.777   2.034 -0.5636  0.3979 -0.6405
 9155SOL     OW28363   6.521   0.153   2.765  0.2042  0.1252 -0.0748
 9155SOL    HW128364   6.461   0.073   2.760  1.7947 -1.0458 -1.6620
 9155SOL    HW228365   6.466   0.236   2.757 -1.2236 -0.8855 -1.4458
 9156SOL     OW28366   0.888   2.978   5.194  0.5988 -0.0819  0.5670
 9156SOL    HW128367   0.933   2.894   5.164 -0.9534 -0.6001 -0.4375
 9156SOL    HW228368   0.794   2.958   5.220 -0.1406  1.4826 -0.6866
 9157SOL     OW28369   0.786   4.820   6.799 -0.0023  0.0851  0.0208
 9157SOL    HW128370   0.695   4.815   6.841  0.8171 -1.0302  1.7959
 9157SOL    HW228371   0.855   4.793   6.867  1.6605  0.8896 -1.2886
 9158SOL     OW28372   0.425   2.640   4.617  0.1905  0.7124 -0.4707
 9158SOL    HW128373   0.403   2.683   4.705 -0.4434  0.6982 -0.6203
 9158SOL    HW228374   0.345   2.590   4.583  0.9221 -0.6615 -0.2674
 9159SOL     OW28375   6.233   1.214   4.380 -0.5083  0.2445 -0.4083
 9159SOL    HW128376   6.196   1.305   4.364 -1.8705  0.0904  1.5549
 9159SOL    HW228377   6.331   1.221   4.403 -0.8939  1.3855  1.0397
 9160SOL     OW28378   1.247   5.959   1.726  0.0420  0.1620 -0.4554
 9160SOL    HW128379   1.214   5.911   1.807 -1.4362 -1.0940 -1.7595
 9160SOL    HW228380   1.272   6.053   1.751 -1.3705  0.1264  1.2518
 9161SOL     OW28381   6.007   4.444   2.552  0.1856  0.0418 -0.2618
 9161SOL    HW128382   6.086   4.382   2.547  0.1000 -0.0899 -0.0003
 9161SOL    HW228383   5.989   4.482   2.461  0.0072 -0.6040 -0.5045
 9162SOL     OW28384   3.809   2.885   6.427 -0.3358  0.2341  0.5990
 9162SOL    HW128385   3.792   2.885   6.329 -0.3079  0.8446  0.5922
 9162SOL    HW228386   3.901   2.919   6.446  0.0976 -0.9727  0.7757
 9163SOL     OW28387   2.173   1.208   3.077  0.0452 -0.1457 -0.3282
 9163SOL    HW128388   2.142   1.154   3.156  1.1505  0.2125  0.3727
 9163SOL    HW228389   2.261   1.250   3.098  0.2145  0.2055 -1.6568
 9164SOL     OW28390   2.292   0.446   6.795  0.2253 -0.4364 -0.4838
 9164SOL    HW128391   2.283   0.506   6.875 -0.1130 -0.4752 -0.4921
 9164SOL    HW228392   2.205   0.443   6.746  0.3296 -0.7008 -0.6513
 9165SOL     OW28393   4.887   2.733   6.170 -0.8497 -0.1678  0.0721
 9165SOL    HW128394   4.956   2.683   6.118 -0.4334 -0.8816  1.2898
 9165SOL    HW228395   4.914   2.829   6.177 -0.7034 -0.1491 -0.6553
 9166SOL     OW28396   4.830   0.567   0.730  0.2682  0.0476  0.0438
 9166SOL    HW128397   4.854   0.471   0.715 -1.0693 -0.3416  0.2666
 9166SOL    HW228398   4.772   0.599   0.655 -0.0971  0.3830  0.4611
 9167SOL     OW28399   1.283   1.772   5.804  0.5424  0.1212  0.2976
 9167SOL    HW128400   1.243   1.729   5.884 -1.3155  1.1504 -0.0089
 9167SOL    HW228401   1.378   1.743   5.794  1.0349  0.4129  3.1890
 9168SOL     OW28402   6.530   5.931   3.419  0.9042 -0.2053 -0.5440
 9168SOL    HW128403   6.571   5.841   3.435 -1.9900 -1.4185  0.8470
 9168SOL    HW228404   6.446   5.920   3.366 -0.5262  1.4043  1.2531
 9169SOL     OW28405   6.952   4.609   0.831 -0.0333  0.1936  0.4476
 9169SOL    HW128406   6.950   4.705   0.861  0.1820  0.5131 -0.5212
 9169SOL    HW228407   7.009   4.601   0.749  0.8298 -0.9496  1.1351
 9170SOL     OW28408   0.816   0.388   0.050 -0.2558  0.0540  0.5550
 9170SOL    HW128409   0.731   0.336   0.055  0.2364 -0.8943 -0.5575
 9170SOL    HW228410   0.797   0.484   0.070 -1.8021  0.0754 -0.7754
 9171SOL     OW28411   5.797   5.252   1.510  0.1966 -0.6230 -0.2133
 9171SOL    HW128412   5.725   5.316   1.485 -0.9368 -0.8088  2.2691
 9171SOL    HW228413   5.774   5.161   1.478 -2.4275 -1.3381  3.1307
 9172SOL     OW28414   3.779   1.162   5.078 -0.2662 -0.3196  0.3283
 9172SOL    HW128415   3.688   1.164   5.121  0.1593  0.1223  1.2388
 9172SOL    HW228416   3.770   1.181   4.981 -0.9761  1.8494  0.7573
 9173SOL     OW28417   5.990   3.051   3.804 -0.0520 -0.4020  0.2297
 9173SOL    HW128418   5.950   3.134   3.766  0.5123 -0.7633 -1.2152
 9173SOL    HW228419   5.995   3.058   3.903 -0.3380  1.1278  0.1486
 9174SOL     OW28420   0.936   4.129   0.506  0.3600 -0.0026  0.1851
 9174SOL    HW128421   0.990   4.118   0.422  0.0228  2.7755 -0.5132
 9174SOL    HW228422   0.924   4.041   0.550  1.3163 -1.4272 -2.2162
 9175SOL     OW28423   0.836   1.285   5.650  0.1803  0.1494 -0.8084
 9175SOL    HW128424   0.764   1.291   5.719  1.8277  0.1846  1.0032
 9175SOL    HW228425   0.802   1.320   5.563 -2.5015 -1.3833 -0.5024
 9176SOL     OW28426   2.254   0.822   3.163 -0.2693 -0.2941  0.5520
 9176SOL    HW128427   2.203   0.740   3.136 -0.2594 -0.1327  0.0338
 9176SOL    HW228428   2.352   0.803   3.160 -0.2824 -0.4437  1.0242
 9177SOL     OW28429   0.245   2.633   3.215  0.2511  0.1405 -0.6235
 9177SOL    HW128430   0.242   2.534   3.229 -0.6113  0.2053 -0.3309
 9177SOL    HW228431   0.215   2.680   3.298  2.1272  0.6978 -0.2104
 9178SOL     OW28432   1.151   0.412   6.879 -0.1976 -0.2942  0.2269
 9178SOL    HW128433   1.084   0.342   6.856 -1.6238  0.8003  0.9345
 9178SOL    HW228434   1.170   0.409   6.977 -0.0555  0.1391  0.2130
 9179SOL     OW28435   2.864   6.221   5.023 -0.8986  0.7168  0.2088
 9179SOL    HW128436   2.926   6.170   4.964 -0.4073  0.0046  1.3102
 9179SOL    HW228437   2.917   6.275   5.088 -1.3696 -0.5749  1.7451
 9180SOL     OW28438   0.175   6.862   4.033 -0.1343 -0.0986  0.4821
 9180SOL    HW128439   0.103   6.838   3.968 -0.4775  0.0911  0.7913
 9180SOL    HW228440   0.146   6.941   4.087  0.3661  0.0740  0.5077
 9181SOL     OW28441   4.494   0.743   4.606 -0.3937  0.0859 -0.3342
 9181SOL    HW128442   4.446   0.692   4.534  2.2900 -0.4178 -1.8713
 9181SOL    HW228443   4.494   0.689   4.690 -2.6325  0.2186 -0.1689
 9182SOL     OW28444   2.407   1.076   4.946 -0.0023  0.3632 -0.4345
 9182SOL    HW128445   2.317   1.035   4.929 -0.8592  1.0267  2.1057
 9182SOL    HW228446   2.476   1.003   4.949 -0.7347 -0.3586 -0.6451
 9183SOL     OW28447   6.805   2.337   5.914 -0.0175 -0.3158 -0.3894
 9183SOL    HW128448   6.898   2.303   5.926  0.0339 -0.0533 -0.0304
 9183SOL    HW228449   6.791   2.364   5.819  1.6265  3.5430  0.2746
 9184SOL     OW28450   2.109   5.557   0.596  0.9743 -0.1166 -0.0269
 9184SOL    HW128451   2.108   5.484   0.528  1.1312 -0.5862  0.4670
 9184SOL    HW228452   2.047   5.631   0.567 -0.2684 -1.0668  0.1460
 9185SOL     OW28453   2.382   0.004   0.803 -0.2701 -0.6175  0.3372
 9185SOL    HW128454   2.329   0.057   0.737 -0.6196 -1.8917 -0.4505
 9185SOL    HW228455   2.322  -0.027   0.877 -0.1722 -0.3409  0.5349
 9186SOL     OW28456   5.350   0.670   5.353  0.0491  0.7872 -0.0542
 9186SOL    HW128457   5.365   0.761   5.314 -0.7129  1.2164  0.6150
 9186SOL    HW228458   5.359   0.674   5.452  1.3669 -0.1658 -0.1137
 9187SOL     OW28459   4.369   1.982   0.547 -0.7710  0.0103 -0.5294
 9187SOL    HW128460   4.435   1.910   0.567  0.5008  1.2667 -0.0225
 9187SOL    HW228461   4.317   1.958   0.464 -0.8493 -1.7554 -0.0143
 9188SOL     OW28462   0.164   0.757   1.389  0.3518  0.5991  0.0054
 9188SOL    HW128463   0.137   0.825   1.456  1.7825 -1.8918  3.4332
 9188SOL    HW228464   0.263   0.762   1.374  0.1458  0.6890 -1.4606
 9189SOL     OW28465   4.422   1.082   2.650 -0.1835  0.2490  0.7276
 9189SOL    HW128466   4.466   1.128   2.572 -1.4832  0.4433  0.0711
 9189SOL    HW228467   4.449   1.128   2.735  1.8468 -0.4273  0.4966
 9190SOL     OW28468   5.186   3.488   4.809 -0.0217  0.2467 -0.4385
 9190SOL    HW128469   5.188   3.414   4.877  1.7307 -0.3671 -1.1110
 9190SOL    HW228470   5.091   3.503   4.780 -0.4475 -1.8079 -0.3254
 9191SOL     OW28471   0.026   6.002   0.190  0.0545  0.5078  0.1171
 9191SOL    HW128472   0.048   5.915   0.146 -2.1425  0.6143 -1.3940
 9191SOL    HW228473   0.001   5.986   0.285 -1.3192 -0.7313 -0.4027
 9192SOL     OW28474   6.384   5.673   5.776  0.2220 -0.2364 -0.1040
 9192SOL    HW128475   6.426   5.597   5.825 -0.4405 -0.7942 -0.3843
 9192SOL    HW228476   6.291   5.686   5.809  0.4033  0.6064  0.0991
 9193SOL     OW28477   3.086   3.054   4.126  0.1330 -0.3732 -0.2499
 9193SOL    HW128478   3.186   3.048   4.133  0.4783  2.3941 -1.4744
 9193SOL    HW228479   3.045   3.031   4.215  1.9051 -0.5975  0.5611
 9194SOL     OW28480   2.403   5.976   2.010  0.0845  0.1232 -0.3735
 9194SOL    HW128481   2.474   6.004   1.945  1.8803 -2.2643  0.4554
 9194SOL    HW228482   2.420   5.883   2.042 -1.9525  0.4230  1.9274
 9195SOL     OW28483   5.943   4.442   3.357 -0.1073  0.1636 -0.0025
 9195SOL    HW128484   5.863   4.391   3.388  0.1796  0.9033  2.1567
 9195SOL    HW228485   6.012   4.443   3.429  1.5847  0.1298 -1.5591
 9196SOL     OW28486   4.773   1.171   3.280 -0.0872  0.4654  0.0912
 9196SOL    HW128487   4.681   1.200   3.306 -0.5887  0.2380 -1.3435
 9196SOL    HW228488   4.778   1.071   3.279  0.6605  0.4583  1.7276
 9197SOL     OW28489   3.805   3.941   5.585  0.3207 -0.5270  0.2655
 9197SOL    HW128490   3.748   4.001   5.640  0.9800 -0.1794  0.5793
 9197SOL    HW228491   3.770   3.938   5.491 -0.5315 -0.7571  0.5805
 9198SOL     OW28492   0.450   3.054   3.418  0.0642 -0.6234 -0.6224
 9198SOL    HW128493   0.465   3.119   3.492 -0.5235 -1.1918  0.0080
 9198SOL    HW228494   0.423   3.103   3.335  2.1858  0.1453 -0.9117
 9199SOL     OW28495   0.409   2.932   6.272  0.2359 -0.2712 -0.9106
 9199SOL    HW128496   0.437   3.020   6.309 -0.6417  0.4508 -1.8907
 9199SOL    HW228497   0.319   2.908   6.309  0.1089 -0.3497 -1.2656
 9200SOL     OW28498   6.377   1.936   5.596  0.4632 -0.0054  0.6863
 9200SOL    HW128499   6.362   1.854   5.541 -0.9477  0.8611 -0.3000
 9200SOL    HW228500   6.343   1.921   5.689  0.6838 -0.6957  0.6605
 9201SOL     OW28501   1.214   2.568   3.791 -0.1577  0.0474 -0.4472
 9201SOL    HW128502   1.180   2.654   3.831 -1.5950 -0.5807 -0.2653
 9201SOL    HW228503   1.311   2.577   3.772 -0.4486  2.0531 -1.2888
 9202SOL     OW28504   1.863   6.187   4.324  0.3374 -0.6615  0.0912
 9202SOL    HW128505   1.828   6.238   4.245 -1.0063 -0.0719  1.0377
 9202SOL    HW228506   1.835   6.091   4.317 -0.3515 -0.4708  0.1708
 9203SOL     OW28507   4.471   0.848   4.962  0.1143  0.1428 -0.2628
 9203SOL    HW128508   4.445   0.925   4.904 -1.8979 -0.5490 -0.3808
 9203SOL    HW228509   4.490   0.768   4.905  2.4399  0.5423 -0.1590
 9204SOL     OW28510   3.420   5.136   2.294  0.2700 -0.2720  0.0835
 9204SOL    HW128511   3.517   5.150   2.271 -0.1532  0.6944 -1.1715
 9204SOL    HW228512   3.365   5.142   2.211 -0.9752  0.0496  0.9177
 9205SOL     OW28513   5.915   3.320   2.555  0.6374 -0.4446  0.4173
 9205SOL    HW128514   5.958   3.231   2.539  1.5687  0.2827 -1.4546
 9205SOL    HW228515   5.985   3.391   2.552 -0.4523  0.6240 -1.1323
 9206SOL     OW28516   2.700   0.861   3.281 -0.2037 -0.4032 -0.8464
 9206SOL    HW128517   2.642   0.887   3.358 -1.7462  0.8473 -2.3487
 9206SOL    HW228518   2.796   0.883   3.302 -0.4423 -0.9991  1.0458
 9207SOL     OW28519   3.657   0.783   6.260 -0.4736  0.3482  0.4566
 9207SOL    HW128520   3.675   0.783   6.162  0.3690 -0.8273  0.5919
 9207SOL    HW228521   3.560   0.802   6.276 -0.5807  0.7402 -0.5801
 9208SOL     OW28522   5.836   3.450   4.239  0.3086  0.3991  0.1582
 9208SOL    HW128523   5.739   3.432   4.224  0.6506 -0.9277 -0.5935
 9208SOL    HW228524   5.877   3.487   4.156  0.4485  0.9874  0.4820
 9209SOL     OW28525   3.773   0.509   1.592  0.1567 -0.1099  0.1823
 9209SOL    HW128526   3.681   0.480   1.567 -0.1756  0.3798  0.7920
 9209SOL    HW228527   3.834   0.499   1.514 -0.6155  0.4007 -0.5034
 9210SOL     OW28528   0.934   0.702   1.763 -0.4306 -0.4339  0.1937
 9210SOL    HW128529   0.850   0.700   1.817 -1.6410  1.6886 -1.4844
 9210SOL    HW228530   0.959   0.796   1.742  1.5798 -1.0814 -0.5807
 9211SOL     OW28531   6.398   1.773   0.836 -0.5488  0.5952  0.6070
 9211SOL    HW128532   6.434   1.690   0.794  0.8738  2.0303 -1.1379
 9211SOL    HW228533   6.451   1.795   0.918  0.2348  0.7557  0.0598
 9212SOL     OW28534   5.037   5.010   5.242  0.6197 -0.3582  0.1788
 9212SOL    HW128535   5.133   5.022   5.265  0.9437 -0.8187 -0.8851
 9212SOL    HW228536   5.017   4.914   5.224  0.8039  0.0690 -2.9625
 9213SOL     OW28537   6.756   0.275   1.708 -0.3585 -0.6777 -0.4529
 9213SOL    HW128538   6.795   0.341   1.644 -0.8580 -0.5284 -0.6102
 9213SOL    HW228539   6.824   0.205   1.729  0.1025 -0.2415 -0.4579
 9214SOL     OW28540   1.539   2.127   4.466  0.1300  0.3638  0.0284
 9214SOL    HW128541   1.520   2.055   4.399  4.3290 -0.7737 -0.2514
 9214SOL    HW228542   1.551   2.214   4.418  2.4932 -0.3236 -0.7634
 9215SOL     OW28543   2.131   3.198   3.045  0.7534 -0.1959 -0.2338
 9215SOL    HW128544   2.113   3.115   3.098 -0.6942  0.2310 -0.0201
 9215SOL    HW228545   2.159   3.172   2.952  4.3802 -0.9883  0.8993
 9216SOL     OW28546   1.610   6.130   4.972  0.0562  0.6794  0.0638
 9216SOL    HW128547   1.563   6.162   4.890  0.5346 -1.3149 -1.0415
 9216SOL    HW228548   1.551   6.069   5.023  1.0517 -1.1655 -0.8866
 9217SOL     OW28549   6.118   1.492   6.444 -0.7079 -0.0403  0.6402
 9217SOL    HW128550   6.092   1.410   6.393  0.4330  0.7372 -1.3180
 9217SOL    HW228551   6.063   1.570   6.412  0.1559  0.5024  0.4485
 9218SOL     OW28552   0.473   4.563   6.932 -0.4519 -0.2494 -0.1630
 9218SOL    HW128553   0.420   4.536   7.013  1.1773 -0.2333  0.9584
 9218SOL    HW228554   0.429   4.526   6.850 -1.6658 -1.0217  0.7957
 9219SOL     OW28555   4.395   2.629   5.247 -0.2220 -0.2746 -0.1033
 9219SOL    HW128556   4.426   2.605   5.339 -0.1606 -3.2308 -0.8153
 9219SOL    HW228557   4.315   2.574   5.223 -0.7712  1.0567 -1.5382
 9220SOL     OW28558   0.266   6.610   4.839  0.4287  0.2517  0.1939
 9220SOL    HW128559   0.231   6.702   4.860  1.2626  0.4726  0.6393
 9220SOL    HW228560   0.193   6.556   4.797 -1.4938 -0.2629  3.7458
 9221SOL     OW28561   0.226   6.913   0.288 -0.1072 -0.5361  0.4293
 9221SOL    HW128562   0.211   6.816   0.306 -2.2264 -0.3617 -0.0842
 9221SOL    HW228563   0.320   6.927   0.257  0.5808 -2.2306  1.5754
 9222SOL     OW28564   0.437   3.376   2.361  0.0542  0.1371  0.3662
 9222SOL    HW128565   0.384   3.375   2.276 -0.3224  0.4273  0.5942
 9222SOL    HW228566   0.509   3.445   2.355 -0.4799  0.7243  0.5812
 9223SOL     OW28567   0.374   3.700   3.713  0.2055  0.2928 -0.2633
 9223SOL    HW128568   0.462   3.674   3.674  0.5096  0.0312  0.5842
 9223SOL    HW228569   0.331   3.769   3.655  0.5702 -0.2113 -1.1430
 9224SOL     OW28570   1.985   6.335   2.339  0.1652  0.7393 -0.0114
 9224SOL    HW128571   1.995   6.400   2.265 -0.1394  0.8543  0.0490
 9224SOL    HW228572   2.074   6.318   2.380  0.1307  1.7537  0.5167
 9225SOL     OW28573   3.894   0.764   5.775  1.0085  0.0301 -0.2673
 9225SOL    HW128574   3.934   0.738   5.687  1.9138 -1.3773  0.5175
 9225SOL    HW228575   3.880   0.682   5.830  0.1654  0.8616  0.7989
 9226SOL     OW28576   0.225   0.298   1.558 -0.2204 -0.1736  0.2528
 9226SOL    HW128577   0.173   0.238   1.497  3.5334  0.2089 -3.7796
 9226SOL    HW228578   0.292   0.245   1.608  0.3990  0.1490 -0.2244
 9227SOL     OW28579   2.703   1.083   1.079 -0.1817 -0.0341 -0.4183
 9227SOL    HW128580   2.636   1.119   1.014 -0.9676  1.5189  1.1576
 9227SOL    HW228581   2.750   1.004   1.039 -4.0023 -2.2462 -1.0646
 9228SOL     OW28582   1.845   3.330   6.150  0.0431  0.1865  0.7238
 9228SOL    HW128583   1.809   3.237   6.151 -0.9255  0.5270 -0.1556
 9228SOL    HW228584   1.921   3.338   6.214 -0.0425 -1.1344  1.0035
 9229SOL     OW28585   0.122   4.625   6.715  0.5822  0.3630  0.5354
 9229SOL    HW128586   0.096   4.719   6.694  0.0563 -0.1691 -1.3192
 9229SOL    HW228587   0.065   4.592   6.791 -2.0933  0.2631 -1.3744
 9230SOL     OW28588   3.438   1.473   3.719 -0.4330  0.3241 -0.3045
 9230SOL    HW128589   3.479   1.447   3.806  1.8087  0.8619 -1.1534
 9230SOL    HW228590   3.453   1.400   3.652  0.6044  1.2231 -1.0706
 9231SOL     OW28591   6.421   6.155   3.037  0.7177 -0.6003 -0.8242
 9231SOL    HW128592   6.490   6.115   3.097  0.0261 -1.3572 -0.5089
 9231SOL    HW228593   6.364   6.218   3.090  0.1483 -1.2185 -0.6915
 9232SOL     OW28594   1.113   4.105   3.590 -0.0447  0.3153  0.9059
 9232SOL    HW128595   1.199   4.060   3.614 -0.0045 -0.4725 -0.6539
 9232SOL    HW228596   1.041   4.037   3.579 -0.5502  0.8503  0.8174
 9233SOL     OW28597   0.967   6.961   0.331 -0.2239  0.3173  0.5525
 9233SOL    HW128598   0.954   7.018   0.412  1.1296  0.8654  0.4182
 9233SOL    HW228599   1.064   6.960   0.306 -0.4474 -0.8137 -0.3621
 9234SOL     OW28600   3.057   4.818   0.003 -0.4838  0.4710  0.3438
 9234SOL    HW128601   2.964   4.856   0.006 -0.3637  0.6899  1.9321
 9234SOL    HW228602   3.124   4.892   0.007 -0.2294  0.3041 -0.6381
 9235SOL     OW28603   3.154   2.161   5.323 -0.1590  0.4884  0.6823
 9235SOL    HW128604   3.155   2.207   5.234  0.2772 -0.5601  0.1159
 9235SOL    HW228605   3.202   2.216   5.390 -1.2135  1.6873  0.4820
 9236SOL     OW28606   2.371   3.490   6.697  0.3750 -0.3613  0.4323
 9236SOL    HW128607   2.360   3.571   6.639  1.1906 -1.0185 -0.6955
 9236SOL    HW228608   2.354   3.514   6.792 -0.5457  0.8644 -0.0221
 9237SOL     OW28609   5.737   6.125   3.547 -0.1713 -0.1571  0.4357
 9237SOL    HW128610   5.829   6.123   3.509  0.1456  1.1622  1.0836
 9237SOL    HW228611   5.671   6.141   3.473  0.2765  0.5319  0.1698
 9238SOL     OW28612   1.897   3.883   6.484 -0.7495  0.3327  0.3904
 9238SOL    HW128613   1.834   3.814   6.448  0.8647 -1.1847  0.3269
 9238SOL    HW228614   1.854   3.931   6.561 -1.7738 -1.0279  0.7037
 9239SOL     OW28615   1.200   4.835   5.122 -0.5471  0.2181 -0.0417
 9239SOL    HW128616   1.212   4.933   5.106  1.3858  0.1671  0.7300
 9239SOL    HW228617   1.289   4.794   5.145 -1.3078 -1.7271 -0.3627
 9240SOL     OW28618   5.086   1.352   1.666 -0.1490 -0.1588 -0.2759
 9240SOL    HW128619   5.040   1.405   1.596  0.6987  0.0222 -0.7068
 9240SOL    HW228620   5.057   1.256   1.659  1.3207 -0.5219 -2.1124
 9241SOL     OW28621   4.750   0.660   6.641  0.2339  0.4335 -0.9479
 9241SOL    HW128622   4.811   0.601   6.588  0.8615  1.0620 -0.9369
 9241SOL    HW228623   4.789   0.752   6.647  0.8028  0.0929  1.6637
 9242SOL     OW28624   1.599   1.780   2.332  0.4970 -0.2402  0.0707
 9242SOL    HW128625   1.599   1.683   2.355  1.5974  0.0099  1.2521
 9242SOL    HW228626   1.631   1.791   2.237  1.5730 -0.9743  0.3223
 9243SOL     OW28627   1.223   1.423   7.016 -0.3906  0.3562 -0.0599
 9243SOL    HW128628   1.201   1.368   6.935 -1.1308 -1.1293  1.1001
 9243SOL    HW228629   1.227   1.364   7.096  2.3876  1.4259  0.7288
 9244SOL     OW28630   4.899   6.060   3.757 -0.5002  0.2748  0.4668
 9244SOL    HW128631   4.907   6.143   3.701 -1.1250  0.0198 -0.0087
 9244SOL    HW228632   4.881   5.982   3.698 -0.7835 -0.0607  0.9955
 9245SOL     OW28633   2.451   4.449   2.545 -0.1759 -0.4835 -0.5960
 9245SOL    HW128634   2.453   4.413   2.452 -0.1316 -0.4463 -0.6094
 9245SOL    HW228635   2.503   4.535   2.548  0.9073 -1.1206 -0.2727
 9246SOL     OW28636   5.866   1.725   5.549 -0.2397 -0.3888 -0.1012
 9246SOL    HW128637   5.872   1.816   5.591 -0.8707  0.5494 -1.9629
 9246SOL    HW228638   5.930   1.664   5.595  1.4721  1.4411  0.0889
 9247SOL     OW28639   3.332   6.568   2.518 -0.3354  0.0889  0.3180
 9247SOL    HW128640   3.340   6.630   2.596 -0.7076 -0.8583  1.1218
 9247SOL    HW228641   3.250   6.512   2.527  0.9985 -1.9461  0.6835
 9248SOL     OW28642   2.523   1.483   6.412  0.0950  0.6271  0.1886
 9248SOL    HW128643   2.444   1.539   6.386 -1.5678 -0.4516  2.5910
 9248SOL    HW228644   2.505   1.388   6.390  0.2362  0.2342  1.6504
 9249SOL     OW28645   3.493   6.062   1.067 -0.3892  0.1026 -0.1604
 9249SOL    HW128646   3.518   6.023   0.979 -0.1475  0.2371 -0.1541
 9249SOL    HW228647   3.464   6.157   1.055 -1.1174 -0.1223 -0.1947
 9250SOL     OW28648   0.180   3.315   5.102 -0.5176 -0.4903  0.2344
 9250SOL    HW128649   0.219   3.387   5.044  1.7847 -0.6317  1.5203
 9250SOL    HW228650   0.243   3.238   5.105 -1.6515 -1.3973  1.1628
 9251SOL     OW28651   2.952   3.795   0.828  0.5346 -0.1452  0.4325
 9251SOL    HW128652   2.963   3.889   0.797  0.3162  0.5428  2.3099
 9251SOL    HW228653   2.893   3.746   0.764 -2.0449  1.9356  1.0479
 9252SOL     OW28654   3.226   1.732   6.235 -0.5637  0.7130 -0.0906
 9252SOL    HW128655   3.255   1.673   6.160 -0.0860  1.7654 -0.7584
 9252SOL    HW228656   3.145   1.693   6.279 -0.8504  0.0718 -1.1533
 9253SOL     OW28657   1.282   5.697   5.216  0.2092 -0.0077  0.3061
 9253SOL    HW128658   1.340   5.626   5.256  1.2511  0.3288 -0.5576
 9253SOL    HW228659   1.233   5.661   5.138  0.2233  0.0411  0.2746
 9254SOL     OW28660   6.259   5.363   3.178 -0.1632  0.0240  0.3452
 9254SOL    HW128661   6.182   5.368   3.241 -1.6990 -0.5910 -1.3991
 9254SOL    HW228662   6.320   5.289   3.206 -1.1494 -0.6486  0.7753
 9255SOL     OW28663   5.520   5.737   6.485  0.2447  0.0545  0.4938
 9255SOL    HW128664   5.471   5.665   6.533  0.7906 -0.1961  0.6858
 9255SOL    HW228665   5.462   5.819   6.479 -1.3419 -1.1286 -1.8905
 9256SOL     OW28666   1.645   5.419   1.918 -0.1373  0.3239 -0.2546
 9256SOL    HW128667   1.667   5.340   1.861 -0.3463 -0.9537  1.3902
 9256SOL    HW228668   1.646   5.502   1.861 -1.5457 -1.0235 -2.3699
 9257SOL     OW28669   0.349   0.000   4.646  0.3631  0.6760  0.1945
 9257SOL    HW128670   0.431   0.038   4.688  0.6850  0.5283 -0.2950
 9257SOL    HW228671   0.285  -0.030   4.717  1.2485 -0.3450  0.5793
 9258SOL     OW28672   1.726   5.732   1.049  0.1611  0.0106 -0.1847
 9258SOL    HW128673   1.745   5.829   1.064  1.1437 -0.2111  0.0839
 9258SOL    HW228674   1.798   5.692   0.993  0.4291 -0.8325  0.7295
 9259SOL     OW28675   1.858   0.402   6.532 -0.2188  0.0632 -0.0061
 9259SOL    HW128676   1.897   0.457   6.458 -2.3738  0.5480 -0.8585
 9259SOL    HW228677   1.833   0.312   6.497 -1.1404  0.2549  0.1167
 9260SOL     OW28678   5.644   4.109   6.745  0.4509 -0.1370  0.2813
 9260SOL    HW128679   5.706   4.037   6.714  0.9967  1.0503 -1.5841
 9260SOL    HW228680   5.687   4.198   6.729 -0.4284  0.6468  2.0155
 9261SOL     OW28681   3.378   1.716   0.807 -0.1867 -0.3030 -0.0394
 9261SOL    HW128682   3.422   1.641   0.857 -2.9197 -1.8479  0.2233
 9261SOL    HW228683   3.424   1.728   0.719  1.1320 -1.3848  0.4567
 9262SOL     OW28684   0.573   6.074   3.669 -0.1693 -0.3415  0.0671
 9262SOL    HW128685   0.569   6.164   3.713 -0.6834 -0.4233  0.1980
 9262SOL    HW228686   0.617   6.082   3.580 -1.5953  0.3379 -0.6151
 9263SOL     OW28687   1.913   4.791   4.888  0.3337 -0.2535  0.0956
 9263SOL    HW128688   2.013   4.790   4.889  0.3898 -1.3560  2.9982
 9263SOL    HW228689   1.880   4.707   4.846  0.7009 -0.7014  0.6691
 9264SOL     OW28690   3.834   2.382   6.472 -0.4941 -0.1562  0.8991
 9264SOL    HW128691   3.926   2.401   6.438 -0.7281  1.7964  1.2521
 9264SOL    HW228692   3.840   2.325   6.554  0.3394 -0.7270  0.4525
 9265SOL     OW28693   5.691   2.589   0.559 -0.4757 -0.7347  0.5126
 9265SOL    HW128694   5.671   2.686   0.571  1.2278 -0.2230 -0.4862
 9265SOL    HW228695   5.666   2.561   0.467  0.5020 -0.8400  0.2729
 9266SOL     OW28696   2.060   2.609   1.985  0.2020  0.4845 -0.0158
 9266SOL    HW128697   2.117   2.683   1.949 -0.4424  0.9331 -0.1223
 9266SOL    HW228698   2.026   2.634   2.076  0.3424  0.1294  0.1356
 9267SOL     OW28699   5.707   6.995   6.891 -0.0579  0.2554  0.3262
 9267SOL    HW128700   5.760   7.011   6.974 -0.6639  0.5710  0.6543
 9267SOL    HW228701   5.714   7.075   6.831  0.1943  0.1178  0.1681
 9268SOL     OW28702   0.692   0.155   1.612 -0.0291  0.0256  0.2833
 9268SOL    HW128703   0.690   0.212   1.530  0.5483  0.6068  0.6569
 9268SOL    HW228704   0.771   0.180   1.668 -1.4439  0.9804  1.9666
 9269SOL     OW28705   4.931   2.270   1.007  0.8545 -0.2628  0.2274
 9269SOL    HW128706   5.031   2.277   1.002  0.8859  1.4140  2.0909
 9269SOL    HW228707   4.889   2.333   0.942  1.0472  0.5770  0.9000
 9270SOL     OW28708   0.602   6.108   0.389  0.2808 -0.3474  0.3786
 9270SOL    HW128709   0.562   6.018   0.376  0.4252 -0.2466 -0.9729
 9270SOL    HW228710   0.535   6.170   0.429  0.8789 -1.6029  3.5657
 9271SOL     OW28711   1.188   6.328   4.184  0.3157 -0.1699  0.5540
 9271SOL    HW128712   1.150   6.307   4.093  0.1529 -0.6244  0.7262
 9271SOL    HW228713   1.287   6.336   4.177  0.2679  0.2292  0.2553
 9272SOL     OW28714   5.875   6.811   5.580 -0.1504 -0.1348  0.2067
 9272SOL    HW128715   5.875   6.724   5.628 -1.2931 -0.3844 -0.2107
 9272SOL    HW228716   5.864   6.795   5.482  0.5654  0.4387  0.0294
 9273SOL     OW28717   4.778   5.677   5.076 -0.1074 -0.1747 -0.0472
 9273SOL    HW128718   4.704   5.635   5.129  0.6301 -0.5373  0.7258
 9273SOL    HW228719   4.809   5.613   5.006  0.4256 -0.6047  0.5623
 9274SOL     OW28720   1.188   2.710   6.937 -0.0956 -0.4995 -0.1017
 9274SOL    HW128721   1.094   2.685   6.962 -0.3834  0.5557 -0.0920
 9274SOL    HW228722   1.200   2.696   6.838  0.4343 -2.7449  0.2185
 9275SOL     OW28723   5.545   0.915   0.483 -0.2870  0.0195  0.0861
 9275SOL    HW128724   5.468   0.862   0.448 -1.4673  2.3514 -1.0385
 9275SOL    HW228725   5.522   1.012   0.484  2.8389  0.8963 -0.8435
 9276SOL     OW28726   1.030   5.278   0.209  1.1968 -0.6681 -0.1243
 9276SOL    HW128727   0.969   5.216   0.259  0.2183 -0.9097 -1.5542
 9276SOL    HW228728   0.980   5.360   0.183  1.6393 -0.5980 -0.7871
 9277SOL     OW28729   6.114   4.247   1.416 -0.3966  0.0588 -0.2642
 9277SOL    HW128730   6.121   4.179   1.343 -0.0971  0.5150 -0.6623
 9277SOL    HW228731   6.198   4.301   1.420  0.1868 -0.8790  1.3307
 9278SOL     OW28732   0.484   2.787   5.634 -0.0314 -0.0966  0.4471
 9278SOL    HW128733   0.553   2.849   5.597 -0.5436 -0.4266 -1.1297
 9278SOL    HW228734   0.474   2.803   5.732  2.1574  0.0768  0.6994
 9279SOL     OW28735   4.536   0.755   0.874  0.1423 -0.2909  0.5974
 9279SOL    HW128736   4.472   0.760   0.951 -0.6058 -1.9272  0.1185
 9279SOL    HW228737   4.602   0.682   0.891 -0.0444 -0.6785 -0.3307
 9280SOL     OW28738   3.836   1.138   2.944  0.0302  0.1862  1.0986
 9280SOL    HW128739   3.791   1.056   2.979  0.2016 -1.2440 -1.7430
 9280SOL    HW228740   3.771   1.215   2.948 -1.3114 -0.8822  0.7725
 9281SOL     OW28741   3.710   5.564   5.404 -0.2490  0.1349 -0.5691
 9281SOL    HW128742   3.629   5.508   5.392  1.1672 -2.6915  1.6469
 9281SOL    HW228743   3.724   5.582   5.502  2.3795 -0.5260 -0.7402
 9282SOL     OW28744   1.440   6.327   4.174 -0.0881 -0.0388  0.6206
 9282SOL    HW128745   1.512   6.381   4.218 -0.7252  0.2110  1.3889
 9282SOL    HW228746   1.464   6.230   4.179  0.7605  0.1165 -0.2056
 9283SOL     OW28747   3.717   6.692   6.861  0.2018  0.2764 -0.4790
 9283SOL    HW128748   3.712   6.627   6.786 -0.0916  0.7772 -0.9025
 9283SOL    HW228749   3.634   6.685   6.917  1.2111 -1.3963  0.9216
 9284SOL     OW28750   4.259   4.031   5.925  0.6547 -0.3249  1.0163
 9284SOL    HW128751   4.185   3.991   5.873  2.1436 -1.2608 -0.4646
 9284SOL    HW228752   4.225   4.110   5.977 -1.4091 -0.9592  0.6868
 9285SOL     OW28753   1.129   2.800   2.402 -0.1723  0.1960  0.5098
 9285SOL    HW128754   1.191   2.862   2.354 -0.4614  0.2112  0.1456
 9285SOL    HW228755   1.052   2.852   2.438 -0.8401 -0.0544 -0.5095
 9286SOL     OW28756   3.448   5.605   1.118 -0.3766  0.1953  0.0656
 9286SOL    HW128757   3.360   5.571   1.083  0.2200  0.1611 -1.4697
 9286SOL    HW228758   3.432   5.684   1.178 -1.4921 -0.2709  0.4179
 9287SOL     OW28759   2.666   5.878   6.614 -0.3976  0.5053 -0.0920
 9287SOL    HW128760   2.591   5.812   6.609 -0.9278  0.9356  1.4882
 9287SOL    HW228761   2.752   5.832   6.592 -0.8216 -0.5985  0.4597
 9288SOL     OW28762   4.390   0.090   0.120 -0.0117 -0.0178 -0.5366
 9288SOL    HW128763   4.443   0.109   0.038  1.7603 -2.5179 -0.0891
 9288SOL    HW228764   4.453   0.074   0.197 -1.5897  1.5051  1.1889
 9289SOL     OW28765   3.904   5.946   6.652 -0.2046 -0.2073 -0.0174
 9289SOL    HW128766   3.956   6.031   6.638 -0.5507  0.3674  1.9019
 9289SOL    HW228767   3.807   5.964   6.640 -0.2566 -0.4112  0.0949
 9290SOL     OW28768   4.345   0.546   1.811 -0.4862  0.3022  0.2459
 9290SOL    HW128769   4.358   0.447   1.805  0.2762  0.3043  1.4927
 9290SOL    HW228770   4.275   0.574   1.746  0.2431 -0.8606 -1.0869
 9291SOL     OW28771   1.883   5.243   6.437  0.1590 -0.2108 -0.0196
 9291SOL    HW128772   1.825   5.171   6.474  0.0750  0.8524  2.1068
 9291SOL    HW228773   1.969   5.204   6.404  0.0334 -1.3028  0.8963
 9292SOL     OW28774   2.190   1.955   5.451  0.0703  0.6203  0.1722
 9292SOL    HW128775   2.113   1.939   5.389 -0.1006  0.2549  0.4680
 9292SOL    HW228776   2.265   1.998   5.402  0.5184 -1.0564 -0.6681
 9293SOL     OW28777   4.509   2.211   5.733 -0.1643  0.3634  0.4556
 9293SOL    HW128778   4.461   2.240   5.651  0.4877 -2.5143 -1.0795
 9293SOL    HW228779   4.589   2.270   5.748 -0.1362  0.7670 -1.1648
 9294SOL     OW28780   5.122   1.270   0.530 -0.7680 -0.4374  0.4770
 9294SOL    HW128781   5.103   1.180   0.570 -0.3446 -0.2793  1.0520
 9294SOL    HW228782   5.039   1.325   0.529 -1.2097 -1.0799 -0.5534
 9295SOL     OW28783   1.341   2.048   0.522  0.2927 -0.3075 -0.0035
 9295SOL    HW128784   1.293   2.014   0.442  1.4749  0.2664 -0.9784
 9295SOL    HW228785   1.319   1.990   0.601 -0.7193 -0.9972 -0.7664
 9296SOL     OW28786   1.118   5.071   0.789 -0.2062  0.3537 -0.2781
 9296SOL    HW128787   1.135   5.075   0.888  1.7417 -0.9741 -0.5213
 9296SOL    HW228788   1.021   5.053   0.773 -0.2294 -1.4159  1.4544
 9297SOL     OW28789   5.929   0.525   2.475 -0.3279 -0.6208  0.0589
 9297SOL    HW128790   6.027   0.536   2.495 -0.2029  2.6000 -1.6399
 9297SOL    HW228791   5.918   0.486   2.384 -0.5446  0.5071 -0.4162
 9298SOL     OW28792   0.992   1.021   5.267 -0.0587  0.6172  0.4247
 9298SOL    HW128793   1.041   1.011   5.181  0.7655  0.2285  0.9241
 9298SOL    HW228794   0.942   1.108   5.267  0.0215  0.6695 -0.3923
 9299SOL     OW28795   1.474   1.267   3.169 -0.0982  0.1422  0.7190
 9299SOL    HW128796   1.516   1.353   3.198  0.7175 -0.4407  1.2990
 9299SOL    HW228797   1.391   1.251   3.223 -1.3974  1.5170 -0.7363
 9300SOL     OW28798   1.631   5.745   5.785  0.1635 -0.4939  0.7240
 9300SOL    HW128799   1.567   5.805   5.739  1.7003 -0.1344 -1.0517
 9300SOL    HW228800   1.650   5.780   5.877  0.7126  1.5264 -0.1238
 9301SOL     OW28801   0.199   2.924   4.810  0.6384 -0.0713 -0.2315
 9301SOL    HW128802   0.184   2.911   4.712  2.4372 -0.8900 -0.4523
 9301SOL    HW228803   0.230   3.017   4.827 -0.8900  0.4591 -0.2524
 9302SOL     OW28804   0.801   4.228   5.586  0.6471 -0.5319  0.1038
 9302SOL    HW128805   0.752   4.143   5.564  0.9319 -0.0895 -2.5456
 9302SOL    HW228806   0.891   4.226   5.543  0.6575  1.0897  0.0203
 9303SOL     OW28807   2.035   4.402   2.322  0.4190  0.4417  0.0710
 9303SOL    HW128808   2.050   4.336   2.396 -1.3879  1.2468  1.2385
 9303SOL    HW228809   2.086   4.486   2.342 -0.9253  1.0729  1.0610
 9304SOL     OW28810   4.264   5.199   6.528  0.5938 -0.5321  0.2809
 9304SOL    HW128811   4.261   5.133   6.454  1.1515 -1.9694  1.4921
 9304SOL    HW228812   4.196   5.175   6.598  0.6593  0.3020  0.6548
 9305SOL     OW28813   3.323   2.982   2.362 -0.0657 -0.3279 -0.6447
 9305SOL    HW128814   3.375   2.927   2.297  0.9842  0.8537 -0.8416
 9305SOL    HW228815   3.227   2.987   2.333  0.0438 -1.1801 -1.1768
 9306SOL     OW28816   6.594   5.773   5.619  0.0960 -0.3525  0.1478
 9306SOL    HW128817   6.599   5.872   5.603 -0.1632 -0.6431 -2.0402
 9306SOL    HW228818   6.509   5.751   5.666 -0.3033  0.3837 -0.2125
 9307SOL     OW28819   3.915   3.402   1.366 -0.5859 -0.1613  0.1235
 9307SOL    HW128820   3.924   3.335   1.440  1.4165 -0.4006 -0.2838
 9307SOL    HW228821   3.955   3.365   1.283 -1.6680  0.6098 -0.7693
 9308SOL     OW28822   2.116   3.469   2.161 -0.2344 -0.6772  0.4351
 9308SOL    HW128823   2.080   3.379   2.134 -2.8612 -1.0227  4.3471
 9308SOL    HW228824   2.169   3.507   2.085 -2.1325 -3.8166 -2.7944
 9309SOL     OW28825   5.758   4.992   6.269 -0.0029  0.5420 -0.3169
 9309SOL    HW128826   5.749   5.026   6.362 -2.0614 -2.0335  0.5578
 9309SOL    HW228827   5.811   4.907   6.269 -0.5915  0.1532 -1.3488
 9310SOL     OW28828   5.381   6.822   6.613  0.7306 -0.0905  0.6494
 9310SOL    HW128829   5.407   6.811   6.709 -1.7766  0.6884  1.4950
 9310SOL    HW228830   5.310   6.756   6.589 -2.0399  2.5933  0.7997
 9311SOL     OW28831   5.119   3.132   1.649  0.1553  0.6163 -0.4161
 9311SOL    HW128832   5.057   3.136   1.727  0.5796  0.1350 -0.0435
 9311SOL    HW228833   5.066   3.123   1.564 -0.2792  0.0351 -0.0912
 9312SOL     OW28834   0.610   3.065   2.000  0.4048  0.2911  0.3401
 9312SOL    HW128835   0.578   3.155   1.973  2.0514  1.1735  1.1758
 9312SOL    HW228836   0.533   3.002   2.004 -0.4901  1.0872 -2.3288
 9313SOL     OW28837   1.801   6.179   3.428  0.0225  0.0592 -0.1843
 9313SOL    HW128838   1.748   6.191   3.512  1.4243  0.4245  0.6730
 9313SOL    HW228839   1.873   6.112   3.443  0.4098  0.2649 -1.0487
 9314SOL     OW28840   4.619   3.677   0.051  0.0339  0.2794  0.5508
 9314SOL    HW128841   4.592   3.597   0.105 -0.6327 -1.5646 -2.3076
 9314SOL    HW228842   4.693   3.652  -0.011 -1.5937  1.2199 -1.9162
 9315SOL     OW28843   6.519   1.026   6.435 -0.0475  0.2212  0.2961
 9315SOL    HW128844   6.488   1.115   6.471  0.0714  0.1497  0.5789
 9315SOL    HW228845   6.515   1.027   6.335  0.2638  0.6603  0.2851
 9316SOL     OW28846   5.009   6.662   5.919  0.1978 -0.1144 -0.5129
 9316SOL    HW128847   5.029   6.758   5.901  0.0807 -0.1162 -0.6548
 9316SOL    HW228848   5.007   6.646   6.018 -2.2756  0.5770 -0.3812
 9317SOL     OW28849   4.187   0.745   0.524  0.3868  0.3182  0.1184
 9317SOL    HW128850   4.138   0.821   0.482  0.2651 -0.8242 -1.9375
 9317SOL    HW228851   4.122   0.672   0.548  0.5883  0.5399  1.4559
 9318SOL     OW28852   5.263   5.746   0.212  0.0934  0.5518  0.0457
 9318SOL    HW128853   5.215   5.725   0.297  0.0416  2.2218  0.4669
 9318SOL    HW228854   5.344   5.802   0.232  0.7414 -0.0191 -0.9019
 9319SOL     OW28855   1.479   2.460   6.552 -1.0083  0.3184  0.0318
 9319SOL    HW128856   1.444   2.375   6.514 -2.7243 -0.2360  2.6433
 9319SOL    HW228857   1.579   2.455   6.559 -0.9861 -0.9770 -0.9101
 9320SOL     OW28858   4.899   5.389   6.078  0.2778  0.5209 -0.3643
 9320SOL    HW128859   4.897   5.465   6.142  3.0689  0.0816  0.3658
 9320SOL    HW228860   4.834   5.318   6.107 -0.4280  1.4639  0.4214
 9321SOL     OW28861   0.960   3.256   5.852  0.1763 -0.5102  0.1570
 9321SOL    HW128862   0.863   3.255   5.874 -0.0820  1.5839 -0.6402
 9321SOL    HW228863   0.999   3.346   5.874  1.5990 -0.8326 -0.8389
 9322SOL     OW28864   5.743   2.683   6.606 -0.4730 -0.9676 -0.1919
 9322SOL    HW128865   5.700   2.717   6.689 -3.2861 -4.0137 -0.1686
 9322SOL    HW228866   5.839   2.709   6.604 -1.2584  2.6638  1.9214
 9323SOL     OW28867   1.495   0.613   1.889  0.2587 -0.0854  0.4464
 9323SOL    HW128868   1.528   0.521   1.912 -0.2588 -0.3633  0.1119
 9323SOL    HW228869   1.422   0.639   1.952 -2.1364 -1.4197 -1.5819
 9324SOL     OW28870   0.391   5.360   2.724  0.0614  0.1708 -0.4919
 9324SOL    HW128871   0.398   5.424   2.800  1.0161  1.1966 -1.4056
 9324SOL    HW228872   0.419   5.269   2.754 -1.6507  0.0668  0.9111
 9325SOL     OW28873   2.154   4.768   2.037  0.3993 -0.3348  0.1501
 9325SOL    HW128874   2.202   4.688   2.072 -0.5814 -0.8068  0.4611
 9325SOL    HW228875   2.219   4.830   1.993  1.6027  0.0093  2.2871
 9326SOL     OW28876   1.846   3.920   1.234 -0.0328 -0.3500  0.2275
 9326SOL    HW128877   1.839   3.825   1.262 -1.8449  0.0386  1.2914
 9326SOL    HW228878   1.830   3.979   1.313  0.7116  0.8464 -0.4848
 9327SOL     OW28879   6.882   6.811   4.243  0.1499 -0.4166  0.7516
 9327SOL    HW128880   6.939   6.757   4.305  2.1749  1.0786  0.3011
 9327SOL    HW228881   6.908   6.907   4.249 -0.7860  0.0077 -1.1644
 9328SOL     OW28882   2.918   0.217   5.236  0.0869 -0.1169 -0.1968
 9328SOL    HW128883   2.968   0.244   5.154  0.7539 -2.6460 -0.7163
 9328SOL    HW228884   2.871   0.131   5.219  1.1670 -1.3150  2.3686
 9329SOL     OW28885   6.702   6.744   6.784  0.6133 -0.1670  0.0997
 9329SOL    HW128886   6.714   6.791   6.872  1.8568 -0.4279  0.0945
 9329SOL    HW228887   6.707   6.645   6.798 -1.3062 -0.3093  0.0122
 9330SOL     OW28888   5.193   4.211   5.888 -0.6032 -0.5530  0.7675
 9330SOL    HW128889   5.097   4.187   5.905 -0.8685 -0.8187 -0.9040
 9330SOL    HW228890   5.236   4.140   5.833 -0.0088  0.4709 -0.1400
 9331SOL     OW28891   1.527   3.218   3.702 -0.2576  0.2244  0.4266
 9331SOL    HW128892   1.545   3.313   3.725 -1.3510  0.4823  0.2934
 9331SOL    HW228893   1.487   3.212   3.611 -2.1967 -0.1085  1.2356
 9332SOL     OW28894   5.246   6.426   0.983  0.9236  0.0979  0.1883
 9332SOL    HW128895   5.298   6.446   1.066  0.8137 -1.0097  0.5299
 9332SOL    HW228896   5.308   6.413   0.907  1.3658 -3.1685  0.9773
 9333SOL     OW28897   3.019   6.308   1.157  0.3749  0.2647 -0.1278
 9333SOL    HW128898   3.081   6.233   1.135  0.1593 -0.0905  0.4262
 9333SOL    HW228899   2.937   6.271   1.202  0.5830  0.8814  0.8061
 9334SOL     OW28900   6.310   4.722   3.813  0.3081 -0.1233  0.0151
 9334SOL    HW128901   6.324   4.818   3.788  1.6974 -0.7448 -1.9165
 9334SOL    HW228902   6.254   4.677   3.743  0.4619 -0.9201  0.3911
 9335SOL     OW28903   2.476   2.123   1.972 -0.5965  0.9660  0.1424
 9335SOL    HW128904   2.535   2.196   2.005  1.7330 -0.8608  0.3374
 9335SOL    HW228905   2.464   2.132   1.873  2.3879 -0.0349 -0.4320
 9336SOL     OW28906   6.647   6.178   3.529 -0.0343 -0.4988  0.0943
 9336SOL    HW128907   6.627   6.087   3.493 -1.1469 -0.4021  0.4117
 9336SOL    HW228908   6.576   6.242   3.499 -0.0204 -0.0428  0.9946
 9337SOL     OW28909   3.208   6.985   0.885  0.0706 -0.1197 -0.9925
 9337SOL    HW128910   3.156   6.924   0.944  0.4371  0.1725 -0.3602
 9337SOL    HW228911   3.146   7.043   0.833 -0.3420 -1.7106 -2.3865
 9338SOL     OW28912   0.532   0.067   6.957  0.5657  0.2913  0.2502
 9338SOL    HW128913   0.578   0.020   6.881 -0.9873  0.9780 -1.1855
 9338SOL    HW228914   0.438   0.035   6.964 -0.2192  2.3660 -0.0967
 9339SOL     OW28915   6.787   5.685   4.859 -0.3829  0.5731 -0.0741
 9339SOL    HW128916   6.733   5.666   4.941 -2.1782 -0.2013 -1.3931
 9339SOL    HW228917   6.877   5.642   4.869 -0.6363  0.3103  1.3801
 9340SOL     OW28918   5.685   5.421   2.176 -0.7143  0.2140  0.4572
 9340SOL    HW128919   5.601   5.473   2.157 -0.2933  0.7782  0.0951
 9340SOL    HW228920   5.764   5.475   2.148  0.1078  1.7749  4.9666
 9341SOL     OW28921   6.333   4.355   0.415 -0.2409 -0.0141  0.3000
 9341SOL    HW128922   6.410   4.399   0.368  0.1604 -0.3868  0.6008
 9341SOL    HW228923   6.254   4.417   0.415 -0.6012 -0.3824 -1.7871
 9342SOL     OW28924   2.061   0.391   5.171 -0.1555  0.2253  0.4462
 9342SOL    HW128925   2.149   0.438   5.179 -0.6166  0.8651  2.3543
 9342SOL    HW228926   2.039   0.346   5.258 -2.3049  1.1875  0.4769
 9343SOL     OW28927   5.160   5.733   1.916 -0.2046  0.1197 -0.2954
 9343SOL    HW128928   5.163   5.652   1.975 -0.4111 -0.9203 -1.6568
 9343SOL    HW228929   5.069   5.774   1.920 -0.4783 -0.4465 -0.5056
 9344SOL     OW28930   5.642   6.099   5.097 -0.5501  0.1051  0.1974
 9344SOL    HW128931   5.553   6.080   5.137  0.5499 -0.7033  2.3784
 9344SOL    HW228932   5.688   6.013   5.076  0.8153  0.4259  1.7097
 9345SOL     OW28933   6.162   6.479   2.855 -0.1984  0.3869 -0.5948
 9345SOL    HW128934   6.101   6.407   2.887  1.7981 -1.2571 -0.2557
 9345SOL    HW228935   6.115   6.567   2.857 -1.7907 -0.4395  1.8753
 9346SOL     OW28936   6.225   1.105   4.966  0.0051  0.8767  0.8015
 9346SOL    HW128937   6.144   1.055   4.996 -0.8592 -0.7446 -3.5484
 9346SOL    HW228938   6.202   1.165   4.890  2.5121  2.2274  0.9814
 9347SOL     OW28939   4.245   5.662   6.958  0.0242 -0.7782 -0.2106
 9347SOL    HW128940   4.169   5.616   7.003 -0.7501 -1.4694 -2.1371
 9347SOL    HW228941   4.241   5.645   6.860  0.7026  1.9784 -0.8003
 9348SOL     OW28942   1.604   6.755   0.951  0.1112 -0.0098  0.6372
 9348SOL    HW128943   1.603   6.843   1.000 -2.3721  0.5744 -0.3037
 9348SOL    HW228944   1.594   6.772   0.853 -0.5497 -1.3454  0.4541
 9349SOL     OW28945   6.902   6.493   1.939 -1.0537  0.1802  0.0538
 9349SOL    HW128946   6.870   6.533   1.853 -0.3197  2.0770  0.6143
 9349SOL    HW228947   6.841   6.521   2.014  0.0681  1.2116  0.6233
 9350SOL     OW28948   0.616   1.112   4.663  0.2209  0.5423 -0.0501
 9350SOL    HW128949   0.714   1.114   4.684  0.6956  0.0849 -2.0907
 9350SOL    HW228950   0.571   1.045   4.723  1.5058 -0.7270 -0.4465
 9351SOL     OW28951   3.600   1.982   5.983 -0.3235 -0.0727 -0.8065
 9351SOL    HW128952   3.680   2.037   6.006 -0.5635 -0.5006  1.2166
 9351SOL    HW228953   3.628   1.899   5.937  0.2524  0.4908 -1.4937
 9352SOL     OW28954   1.866   2.203   5.927 -0.0089 -0.5344  0.1137
 9352SOL    HW128955   1.818   2.175   6.010 -0.6373 -0.2278 -0.1343
 9352SOL    HW228956   1.932   2.133   5.901  0.5021 -0.4359  1.1070
 9353SOL     OW28957   1.597   4.975   5.322 -0.4567 -0.6066  0.1762
 9353SOL    HW128958   1.572   4.922   5.240 -2.2299 -0.7449  0.7619
 9353SOL    HW228959   1.603   4.913   5.401  1.1012 -0.4491  0.2201
 9354SOL     OW28960   5.052   1.753   1.744  0.1391  0.1054  0.0085
 9354SOL    HW128961   5.133   1.699   1.722 -0.1146 -0.0103 -0.6652
 9354SOL    HW228962   5.013   1.791   1.660 -1.2271 -0.8732  0.1667
 9355SOL     OW28963   6.455   0.823   4.023 -1.1905 -0.2868  0.2975
 9355SOL    HW128964   6.543   0.782   4.000  0.0282  2.1252  0.3360
 9355SOL    HW228965   6.466   0.922   4.032 -3.9878  0.1170  0.0401
 9356SOL     OW28966   0.050   4.869   1.512 -0.6871 -0.3911  0.1174
 9356SOL    HW128967  -0.044   4.901   1.504 -0.0859  1.2427 -0.9001
 9356SOL    HW228968   0.052   4.784   1.566 -2.7045 -0.4213  0.2212
 9357SOL     OW28969   3.054   2.758   0.082 -0.3077  0.1867  0.7438
 9357SOL    HW128970   3.138   2.738   0.132  0.2150  1.1212  0.2505
 9357SOL    HW228971   2.986   2.794   0.146 -0.0332  0.2838  0.9850
 9358SOL     OW28972   6.485   5.538   1.527 -0.0998 -0.2636 -0.4471
 9358SOL    HW128973   6.411   5.482   1.490  0.5423 -1.0813 -0.5305
 9358SOL    HW228974   6.448   5.601   1.596 -0.9619 -0.2101 -0.9433
 9359SOL     OW28975   6.164   4.592   6.643  0.1521 -0.5247 -0.6849
 9359SOL    HW128976   6.177   4.500   6.606  0.1749 -0.7769 -0.0565
 9359SOL    HW228977   6.203   4.597   6.735  0.0099  0.0713 -0.6530
 9360SOL     OW28978   2.009   0.444   6.748  1.0526  0.1420 -0.7971
 9360SOL    HW128979   2.011   0.367   6.813  1.5826  1.7555  1.2031
 9360SOL    HW228980   1.941   0.426   6.677 -0.6360 -1.0938  1.0251
 9361SOL     OW28981   2.965   6.282   3.371 -0.0567  0.0695 -0.3779
 9361SOL    HW128982   2.949   6.380   3.358 -0.8210 -0.1921 -1.6122
 9361SOL    HW228983   3.001   6.243   3.286  2.4583 -0.3330  0.7819
 9362SOL     OW28984   3.493   2.324   1.638 -0.4040 -0.0962 -0.2473
 9362SOL    HW128985   3.574   2.333   1.697 -1.8622  0.0660  1.8577
 9362SOL    HW228986   3.477   2.227   1.619 -0.5279 -0.2432  0.5650
 9363SOL     OW28987   3.321   6.104   2.733  0.1845  0.0258 -0.5621
 9363SOL    HW128988   3.381   6.027   2.750  0.0751 -0.1310 -0.8819
 9363SOL    HW228989   3.357   6.160   2.659  0.1798  0.1928 -0.4401
 9364SOL     OW28990   3.014   2.369   6.933 -0.3374 -0.1846  0.1591
 9364SOL    HW128991   3.002   2.443   6.867 -1.7257 -0.3951  0.1444
 9364SOL    HW228992   3.071   2.298   6.893 -2.4361 -1.0486 -1.4705
 9365SOL     OW28993   3.162   2.933   6.783  0.6505 -0.0130  0.5134
 9365SOL    HW128994   3.072   2.968   6.807  0.0134 -0.6571 -0.8018
 9365SOL    HW228995   3.203   2.990   6.712  0.1270 -1.1633 -0.7640
 9366SOL     OW28996   2.040   1.703   2.024  0.2713 -0.2091  1.3327
 9366SOL    HW128997   2.069   1.625   2.080 -0.1263 -1.3571  0.0079
 9366SOL    HW228998   2.100   1.781   2.042  3.1218 -1.9395 -0.0039
 9367SOL     OW28999   0.999   5.365   3.874 -0.9220 -0.7555  0.3314
 9367SOL    HW129000   1.074   5.304   3.901  0.3495  0.4108 -0.4646
 9367SOL    HW229001   0.959   5.407   3.955  0.1323 -0.4213  0.6926
 9368SOL     OW29002   4.134   6.761   1.069 -0.3026 -0.2158 -0.2994
 9368SOL    HW129003   4.108   6.788   1.162  3.2911  1.2225  0.4482
 9368SOL    HW229004   4.076   6.809   1.003 -1.4870  0.4465  1.1657
 9369SOL     OW29005   6.767   3.678   3.222  0.1305 -0.4114 -0.3558
 9369SOL    HW129006   6.821   3.595   3.208  1.2726  0.3168 -0.3800
 9369SOL    HW229007   6.731   3.709   3.134 -0.0881 -0.7455 -0.3837
 9370SOL     OW29008   6.970   0.324   2.731  0.4014 -0.2952  0.0663
 9370SOL    HW129009   6.926   0.414   2.722 -1.1356 -0.9984  0.2658
 9370SOL    HW229010   6.902   0.252   2.720  1.3899 -1.4324  1.0420
 9371SOL     OW29011   1.253   5.951   1.296  0.1150 -0.1760  0.3447
 9371SOL    HW129012   1.334   6.010   1.305 -1.6640  3.0255 -2.1987
 9371SOL    HW229013   1.175   5.996   1.338 -1.4639 -0.3035 -2.2569
 9372SOL     OW29014   0.031   5.243   5.066 -0.0329  0.3867  0.3614
 9372SOL    HW129015  -0.042   5.239   4.998 -1.4162  0.8153  1.7636
 9372SOL    HW229016   0.014   5.176   5.138 -0.3859  2.0482  1.9223
 9373SOL     OW29017   4.817   2.948   2.513 -0.1684 -0.3372 -0.1859
 9373SOL    HW129018   4.735   2.892   2.517 -1.8020  1.4587 -3.9932
 9373SOL    HW229019   4.895   2.892   2.484 -1.1222 -1.1748 -1.1854
 9374SOL     OW29020   5.454   2.387   1.632  0.9284  0.2503  0.0558
 9374SOL    HW129021   5.455   2.287   1.626  1.5420  0.0383  2.5937
 9374SOL    HW229022   5.543   2.420   1.662 -0.3264  1.1247  3.2695
 9375SOL     OW29023   6.951   1.869   2.596  0.3108  0.0517  0.1164
 9375SOL    HW129024   6.958   1.769   2.596 -0.6012 -0.0311  1.2449
 9375SOL    HW229025   6.996   1.905   2.514  0.4850 -1.2906 -0.4117
 9376SOL     OW29026   2.433   3.248   6.261 -0.4940  0.1054 -0.5466
 9376SOL    HW129027   2.375   3.256   6.342 -0.1113  0.1453 -0.2689
 9376SOL    HW229028   2.403   3.312   6.191  0.2703  1.3720  0.2402
 9377SOL     OW29029   6.642   6.034   5.662  0.0714  0.1305 -0.2786
 9377SOL    HW129030   6.576   6.106   5.684  0.8345  0.2224  2.0171
 9377SOL    HW229031   6.712   6.071   5.601 -0.4877  0.8361 -0.5117
 9378SOL     OW29032   2.998   1.328   0.424  0.3750  0.3333 -0.2515
 9378SOL    HW129033   3.026   1.292   0.513  0.2420  0.8837  0.0141
 9378SOL    HW229034   2.952   1.416   0.436  0.2474  0.3534 -0.8535
 9379SOL     OW29035   4.498   4.471   3.125 -0.0540  0.3982  0.4852
 9379SOL    HW129036   4.496   4.479   3.225  0.7815  3.2242  0.3871
 9379SOL    HW229037   4.425   4.528   3.086  0.8700  0.9255 -0.5221
 9380SOL     OW29038   6.626   6.321   5.548  0.0586 -0.2142  0.3111
 9380SOL    HW129039   6.582   6.358   5.630 -1.8707 -1.3392 -0.1506
 9380SOL    HW229040   6.725   6.337   5.553 -0.3377  2.3666  1.4205
 9381SOL     OW29041   2.393   1.283   6.964 -0.1910 -0.0465 -0.7405
 9381SOL    HW129042   2.419   1.346   6.890 -1.0568  0.5978 -0.5061
 9381SOL    HW229043   2.341   1.333   7.033  0.0156 -0.8029 -0.0284
 9382SOL     OW29044   4.711   1.428   2.308 -0.1864  0.4685  0.0581
 9382SOL    HW129045   4.632   1.463   2.357  0.5938 -0.5344  2.1255
 9382SOL    HW229046   4.795   1.458   2.353  0.5749 -0.1576 -0.9044
 9383SOL     OW29047   4.219   6.558   3.381 -0.2189  0.1314 -0.1355
 9383SOL    HW129048   4.130   6.545   3.425 -0.1712 -1.6289 -0.4674
 9383SOL    HW229049   4.246   6.654   3.387 -1.9988  0.6443  0.2254
 9384SOL     OW29050   4.792   5.905   2.509 -0.2957  0.8302 -0.1775
 9384SOL    HW129051   4.705   5.866   2.476  0.2925 -0.3408 -0.3838
 9384SOL    HW229052   4.846   5.834   2.552  0.3958  1.6502  0.3288
 9385SOL     OW29053   3.071   0.487   3.010 -0.4904 -0.0903 -0.5740
 9385SOL    HW129054   3.087   0.523   3.102  0.5865 -0.3059 -0.6646
 9385SOL    HW229055   3.106   0.393   3.004 -1.0082 -0.2563 -1.0585
 9386SOL     OW29056   2.337   5.468   6.746  0.0068  0.3666 -0.1092
 9386SOL    HW129057   2.383   5.434   6.828 -0.0747  0.0001 -0.2168
 9386SOL    HW229058   2.245   5.432   6.742  0.4722 -0.7489 -1.0922
 9387SOL     OW29059   2.719   4.804   0.123 -0.3896 -0.0229  0.4499
 9387SOL    HW129060   2.673   4.732   0.071  0.3872  0.1906 -0.5772
 9387SOL    HW229061   2.683   4.893   0.095  0.2223  0.1096  0.0507
 9388SOL     OW29062   6.055   4.323   3.590  0.2636  0.2980 -0.3691
 9388SOL    HW129063   6.151   4.295   3.582  0.0150 -0.8417  0.4473
 9388SOL    HW229064   6.008   4.263   3.655 -1.2048  0.3349 -1.3569
 9389SOL     OW29065   2.549   2.347   7.001  0.4802 -0.4243  0.2580
 9389SOL    HW129066   2.617   2.408   7.042  0.4871 -0.4874  0.3411
 9389SOL    HW229067   2.570   2.252   7.026 -1.3495 -0.2679  2.8667
 9390SOL     OW29068   3.154   5.228   3.319 -0.0826 -0.1474 -0.3388
 9390SOL    HW129069   3.250   5.247   3.336  0.5409 -0.6952 -2.9023
 9390SOL    HW229070   3.117   5.295   3.254 -0.6556 -1.5073 -1.4732
 9391SOL     OW29071   0.126   1.342   5.759 -0.7076  0.6357 -0.3092
 9391SOL    HW129072   0.154   1.248   5.741  1.2151  0.9547  0.7135
 9391SOL    HW229073   0.068   1.345   5.841  0.4321  0.4613  0.5270
 9392SOL     OW29074   4.003   6.016   3.365 -0.0636 -0.3067  0.7014
 9392SOL    HW129075   4.060   5.961   3.426 -0.6469 -0.1535  1.4031
 9392SOL    HW229076   4.002   6.111   3.397 -1.8179 -0.5677  1.5648
 9393SOL     OW29077   3.310   2.116   4.785  0.2285 -0.3409 -0.2797
 9393SOL    HW129078   3.220   2.160   4.782 -1.0212 -2.8003 -1.6341
 9393SOL    HW229079   3.352   2.118   4.695  1.5508  0.6836  0.3176
 9394SOL     OW29080   0.431   1.737   3.240  0.2609 -0.0605  0.8779
 9394SOL    HW129081   0.348   1.784   3.273  0.2600  0.4454  0.1903
 9394SOL    HW229082   0.510   1.773   3.289  0.1766  0.1414  0.8715
 9395SOL     OW29083   3.097   2.927   1.919  0.0709 -0.6216 -0.2581
 9395SOL    HW129084   3.133   2.953   2.009 -0.3870 -0.4360 -0.1229
 9395SOL    HW229085   3.173   2.912   1.856  0.4169 -1.2384  0.2903
 9396SOL     OW29086   6.904   6.660   5.611  0.1272 -0.2867  0.1454
 9396SOL    HW129087   6.818   6.689   5.654  0.4507  0.9252  0.0026
 9396SOL    HW229088   6.883   6.614   5.524 -0.5266 -2.7820  1.5185
 9397SOL     OW29089   1.831   1.276   5.884 -0.0678  0.6943 -0.1703
 9397SOL    HW129090   1.838   1.183   5.919 -0.0145  1.3381  1.6038
 9397SOL    HW229091   1.735   1.302   5.875 -0.0785  0.6066 -0.3199
 9398SOL     OW29092   2.074   2.481   0.912 -0.6508  0.1456  0.6763
 9398SOL    HW129093   1.991   2.431   0.888  0.2229 -0.6898 -0.7557
 9398SOL    HW229094   2.095   2.547   0.841  0.4082 -0.3203  0.5391
 9399SOL     OW29095   6.255   6.933   0.341  0.4995  0.7448 -0.6223
 9399SOL    HW129096   6.183   6.997   0.315 -0.5857  0.2963  1.1264
 9399SOL    HW229097   6.318   6.978   0.405 -1.4524 -0.4000  2.3143
 9400SOL     OW29098   5.609   3.467   1.916 -0.6415  0.6765 -0.1684
 9400SOL    HW129099   5.638   3.435   2.006 -0.5837  0.7261 -0.1693
 9400SOL    HW229100   5.679   3.528   1.878 -1.2384  1.6801  0.3077
 9401SOL     OW29101   4.979   5.979   4.046 -0.0726  0.0003 -0.1190
 9401SOL    HW129102   4.947   6.016   3.959 -3.0087  0.2716  0.9827
 9401SOL    HW229103   4.999   6.053   4.109  0.2569 -0.2238  0.0440
 9402SOL     OW29104   4.930   4.245   5.696 -0.3161  0.5523  0.1340
 9402SOL    HW129105   4.833   4.256   5.674  0.1027  1.7218 -1.3435
 9402SOL    HW229106   4.952   4.297   5.779 -1.2218 -0.9300  1.3371
 9403SOL     OW29107   3.887   6.502   2.691  0.5772 -0.0606  0.1889
 9403SOL    HW129108   3.831   6.481   2.611 -0.7812  1.2504  0.7365
 9403SOL    HW229109   3.860   6.444   2.767  0.0197  0.4833  0.4165
 9404SOL     OW29110   6.472   0.364   5.921 -0.2644  0.0231 -0.1536
 9404SOL    HW129111   6.423   0.337   5.838 -0.4678  0.6006 -0.2273
 9404SOL    HW229112   6.437   0.312   5.999 -2.7434  2.1152  0.2403
 9405SOL     OW29113   6.400   6.217   0.241  0.2190  0.2100 -0.3313
 9405SOL    HW129114   6.340   6.233   0.319 -0.9196 -0.0333 -1.1248
 9405SOL    HW229115   6.419   6.304   0.194  0.1844  0.2348 -0.2987
 9406SOL     OW29116   5.701   2.179   5.202 -0.2430 -0.2498  0.7880
 9406SOL    HW129117   5.664   2.101   5.252  0.1646 -1.5659 -0.8948
 9406SOL    HW229118   5.701   2.159   5.104  1.3669  1.2326  0.4491
 9407SOL     OW29119   2.051   5.938   2.230 -0.7535  0.1965 -0.3865
 9407SOL    HW129120   2.058   5.846   2.191 -2.9526 -0.6775  1.0632
 9407SOL    HW229121   1.976   5.988   2.185 -1.6437  0.0903  0.9230
 9408SOL     OW29122   2.951   1.970   5.341  0.1903 -0.2754  0.1122
 9408SOL    HW129123   3.025   2.030   5.311  0.8604 -1.3822 -0.4992
 9408SOL    HW229124   2.868   2.024   5.354  1.4738  1.3182  2.5377
 9409SOL     OW29125   6.868   3.764   4.813  0.3546 -0.7467 -0.0777
 9409SOL    HW129126   6.773   3.764   4.844  1.1304 -1.6763  2.5164
 9409SOL    HW229127   6.871   3.734   4.717 -1.9578 -0.3165 -0.3571
 9410SOL     OW29128   5.514   5.378   3.823 -0.0302 -0.2770 -0.2380
 9410SOL    HW129129   5.568   5.449   3.776 -0.3544 -0.2382 -0.5529
 9410SOL    HW229130   5.443   5.422   3.877 -1.6941 -0.4048 -2.2028
 9411SOL     OW29131   4.454   5.670   0.963  0.8282  0.2879  0.0117
 9411SOL    HW129132   4.369   5.706   0.924  1.0569  0.6173 -0.1768
 9411SOL    HW229133   4.436   5.580   1.003  0.1744  0.7628  0.8056
 9412SOL     OW29134   1.036   2.854   0.904  0.1065 -0.3194 -0.4531
 9412SOL    HW129135   1.053   2.778   0.840  0.7684  0.3137 -1.0500
 9412SOL    HW229136   1.122   2.901   0.922 -0.2969  0.2663 -0.0491
 9413SOL     OW29137   5.863   6.813   6.321  0.1256  0.2357 -0.2784
 9413SOL    HW129138   5.935   6.837   6.256  0.2893  0.8515  0.1287
 9413SOL    HW229139   5.875   6.718   6.349  0.4471  0.1647 -0.6361
 9414SOL     OW29140   4.394   0.185   2.437  0.0255  0.5882 -0.2114
 9414SOL    HW129141   4.415   0.131   2.355 -1.4213 -1.4803  0.6912
 9414SOL    HW229142   4.479   0.224   2.473  0.9929 -0.1723 -1.5280
 9415SOL     OW29143   2.750   0.571   3.801  0.0939  0.5271 -0.6622
 9415SOL    HW129144   2.738   0.507   3.725 -0.6828 -0.9532  0.6315
 9415SOL    HW229145   2.677   0.639   3.800  0.5334  0.9942 -1.6671
 9416SOL     OW29146   0.243   3.752   1.500 -0.5569  0.0467 -0.8015
 9416SOL    HW129147   0.150   3.764   1.535 -0.2667 -1.0561  0.4207
 9416SOL    HW229148   0.304   3.726   1.575  0.3702 -1.0777 -1.9063
 9417SOL     OW29149   0.406   5.391   5.368  0.0495 -0.8092  0.5337
 9417SOL    HW129150   0.461   5.454   5.314 -1.8001 -0.2386 -0.7680
 9417SOL    HW229151   0.422   5.297   5.337 -0.6100 -0.5328 -0.7203
 9418SOL     OW29152   3.080   4.411   1.686  0.3999 -0.8919  0.2864
 9418SOL    HW129153   3.094   4.313   1.699 -0.6427 -0.8438  2.0644
 9418SOL    HW229154   3.009   4.443   1.748  1.4917  1.2042  0.5450
 9419SOL     OW29155   3.052   6.352   5.605  0.5468  0.0333  0.3115
 9419SOL    HW129156   2.988   6.284   5.569 -1.4599  1.9509  0.0379
 9419SOL    HW229157   3.040   6.360   5.704 -1.8994  2.3987 -0.0397
 9420SOL     OW29158   6.306   0.715   3.796 -0.1114  0.0582  0.2354
 9420SOL    HW129159   6.365   0.767   3.734 -1.6470 -0.0012 -1.3315
 9420SOL    HW229160   6.305   0.759   3.886  2.5968 -0.1658  0.4650
 9421SOL     OW29161   0.240   4.806   4.521 -0.8234 -0.0338 -0.1112
 9421SOL    HW129162   0.239   4.904   4.541  0.3046  0.0186 -0.2597
 9421SOL    HW229163   0.208   4.791   4.427  1.8252  0.4947 -1.1700
 9422SOL     OW29164   4.805   0.302   0.448 -0.3675  0.4826  0.0072
 9422SOL    HW129165   4.712   0.338   0.442 -0.8917 -0.7636  0.2525
 9422SOL    HW229166   4.829   0.288   0.544 -0.4255 -0.3954 -0.0952
 9423SOL     OW29167   4.095   1.040   0.671 -0.1018 -0.2229  0.2650
 9423SOL    HW129168   4.100   0.963   0.734 -2.0885 -0.6005  0.0296
 9423SOL    HW229169   4.136   1.014   0.584 -0.1356 -0.7901  0.4132
 9424SOL     OW29170   2.235   5.813   5.373  0.4091  0.0232 -0.5537
 9424SOL    HW129171   2.318   5.841   5.420  0.8653 -0.9536 -0.7596
 9424SOL    HW229172   2.250   5.815   5.274 -0.0209  0.4700 -0.6135
 9425SOL     OW29173   0.087   3.295   5.499 -0.1442 -0.6059  0.6681
 9425SOL    HW129174   0.037   3.250   5.426 -0.7549 -1.7545  1.7535
 9425SOL    HW229175   0.158   3.234   5.534  1.6022  0.7250 -0.3547
 9426SOL     OW29176   3.357   0.379   1.630  0.0523 -0.3501  0.3093
 9426SOL    HW129177   3.430   0.408   1.568 -1.2237  1.5663 -0.4112
 9426SOL    HW229178   3.319   0.460   1.675 -2.7824 -1.0426 -0.6725
 9427SOL     OW29179   2.473   5.579   3.671  0.2376  0.0251 -0.3625
 9427SOL    HW129180   2.514   5.555   3.758 -0.4436 -2.0875 -0.5721
 9427SOL    HW229181   2.506   5.669   3.642 -0.1750  1.1511  2.4396
 9428SOL     OW29182   0.960   0.248   0.994  0.0514 -0.4329  0.5248
 9428SOL    HW129183   0.921   0.311   0.927 -0.2433  0.6649  1.6944
 9428SOL    HW229184   0.904   0.165   0.998 -1.5979  0.6797  1.4328
 9429SOL     OW29185   2.754   6.616   3.248 -0.5954  0.0560 -0.2975
 9429SOL    HW129186   2.784   6.624   3.153  0.8638  0.4809  0.1634
 9429SOL    HW229187   2.834   6.604   3.307 -1.5434 -1.2264  0.7890
 9430SOL     OW29188   0.638   1.756   1.031 -0.2449  0.4818  0.0762
 9430SOL    HW129189   0.644   1.687   1.103  0.1592 -0.5714 -0.9542
 9430SOL    HW229190   0.711   1.824   1.043  0.2404 -0.0699  0.2598
 9431SOL     OW29191   6.906   2.270   0.581 -0.2033  0.1660 -0.5110
 9431SOL    HW129192   6.966   2.350   0.577  0.3815 -0.2987 -2.9088
 9431SOL    HW229193   6.811   2.298   0.567 -0.1332  0.5490 -0.2241
 9432SOL     OW29194   4.618   6.605   1.928 -0.1654  0.4931 -0.2057
 9432SOL    HW129195   4.544   6.565   1.982 -0.0320 -1.9404 -1.6372
 9432SOL    HW229196   4.631   6.701   1.953 -2.5277  0.4677  1.3882
 9433SOL     OW29197   2.715   4.703   4.489 -0.2231 -0.4911 -0.4194
 9433SOL    HW129198   2.719   4.687   4.588  0.1832  1.5303 -0.0722
 9433SOL    HW229199   2.631   4.663   4.453 -0.2984 -1.4117  0.6896
 9434SOL     OW29200   4.889   3.592   1.066  0.1452  0.0747 -0.1104
 9434SOL    HW129201   4.797   3.553   1.077 -0.2824  0.9512 -0.5250
 9434SOL    HW229202   4.882   3.685   1.031  1.2221 -0.0389 -0.6627
 9435SOL     OW29203   1.360   0.676   3.285 -0.2536  0.3316  0.0674
 9435SOL    HW129204   1.328   0.770   3.279  2.0209  1.3105  1.5418
 9435SOL    HW229205   1.392   0.646   3.195 -0.5516  1.1608 -0.3268
 9436SOL     OW29206   0.966   4.943   1.241 -0.2958 -0.7910  0.0610
 9436SOL    HW129207   1.040   4.903   1.295 -0.9441  0.7684  2.2284
 9436SOL    HW229208   0.912   4.870   1.199 -0.6335 -2.2166  2.7361
 9437SOL     OW29209   1.296   6.452   3.256 -0.7196 -0.2375  0.5545
 9437SOL    HW129210   1.339   6.476   3.169  0.2197  1.6130  1.4785
 9437SOL    HW229211   1.219   6.513   3.273 -2.1364 -1.8384  0.1574
 9438SOL     OW29212   0.470   6.730   2.501  0.5120  0.0105  0.0402
 9438SOL    HW129213   0.536   6.776   2.441  1.4950 -1.5324 -0.0921
 9438SOL    HW229214   0.508   6.720   2.592  0.0072  0.0912  0.2652
 9439SOL     OW29215   0.163   3.616   3.292  0.1716  0.0805 -0.4885
 9439SOL    HW129216   0.079   3.658   3.327  0.7900  1.1172 -0.1864
 9439SOL    HW229217   0.140   3.543   3.229 -0.9663 -0.3210  0.3569
 9440SOL     OW29218   5.289   0.324   1.618 -0.3172 -0.2365  0.0632
 9440SOL    HW129219   5.366   0.277   1.661  0.5228 -0.6324 -1.7858
 9440SOL    HW229220   5.218   0.257   1.595  0.3879 -0.4956 -1.5234
 9441SOL     OW29221   1.787   4.444   5.968  0.2399  0.2471  0.6585
 9441SOL    HW129222   1.813   4.360   5.921 -0.0700 -0.9063  2.4843
 9441SOL    HW229223   1.689   4.460   5.957  0.4757  1.0139 -0.6133
 9442SOL     OW29224   6.765   1.874   0.643 -0.1232 -0.7165 -0.2698
 9442SOL    HW129225   6.679   1.921   0.661  0.2462  0.3079 -1.0362
 9442SOL    HW229226   6.837   1.942   0.626  0.5307 -1.5599 -0.9780
 9443SOL     OW29227   1.228   5.659   0.335 -0.3009 -0.2535 -0.0638
 9443SOL    HW129228   1.183   5.649   0.246 -0.3668  1.9655 -0.3340
 9443SOL    HW229229   1.323   5.686   0.321  0.1577 -1.4595  0.5628
 9444SOL     OW29230   6.882   3.080   0.515 -0.0286 -0.1837 -0.0539
 9444SOL    HW129231   6.937   3.158   0.486 -1.1449  0.6657  0.0336
 9444SOL    HW229232   6.929   2.995   0.491  1.5923  0.4938  0.5597
 9445SOL     OW29233   4.944   3.341   3.733  0.1364  0.2342 -0.3673
 9445SOL    HW129234   4.956   3.396   3.650 -1.5440  1.9437  0.4650
 9445SOL    HW229235   5.034   3.310   3.765  0.9477  0.8074 -1.9617
 9446SOL     OW29236   6.647   4.269   3.355  0.0475 -0.7684  0.1556
 9446SOL    HW129237   6.576   4.285   3.286  0.6352 -0.7892 -0.4663
 9446SOL    HW229238   6.737   4.278   3.313  0.4239 -0.4170  1.0071
 9447SOL     OW29239   5.426   3.542   1.563 -0.7355 -0.3046  0.1996
 9447SOL    HW129240   5.352   3.475   1.570  1.3134 -2.6056  2.0912
 9447SOL    HW229241   5.474   3.530   1.476 -0.7176 -0.9592  0.2917
 9448SOL     OW29242   6.295   6.784   6.831  0.7044 -0.4949 -0.3429
 9448SOL    HW129243   6.204   6.818   6.808  1.0289  0.5148 -0.1793
 9448SOL    HW229244   6.317   6.706   6.773 -0.9083 -1.8122  0.7108
 9449SOL     OW29245   1.527   0.142   5.804  0.1511  0.4067  0.2365
 9449SOL    HW129246   1.494   0.141   5.898 -1.5604  0.7377 -0.3125
 9449SOL    HW229247   1.457   0.103   5.744  1.7691 -1.1166 -0.7543
 9450SOL     OW29248   0.704   3.461   2.672  0.0562 -0.0611 -0.2126
 9450SOL    HW129249   0.691   3.362   2.665  0.0863 -0.1409  0.6731
 9450SOL    HW229250   0.667   3.506   2.591  2.0794 -0.9729 -1.7407
 9451SOL     OW29251   6.496   4.040   0.661  0.3677  0.6322 -0.1383
 9451SOL    HW129252   6.414   3.985   0.646  0.5797  0.1209  0.5532
 9451SOL    HW229253   6.553   3.997   0.730  0.6306  1.6172  0.2727
 9452SOL     OW29254   3.391   4.387   0.415  0.1928  0.4210 -0.1032
 9452SOL    HW129255   3.424   4.356   0.505  3.3751 -0.6737 -1.4690
 9452SOL    HW229256   3.466   4.434   0.367 -1.0519  0.0087 -2.5973
 9453SOL     OW29257   1.763   6.253   4.052  0.2656  0.1747  0.5373
 9453SOL    HW129258   1.835   6.211   3.996 -2.3885 -1.4095 -1.9243
 9453SOL    HW229259   1.744   6.345   4.018  0.2959  0.1346  0.4114
 9454SOL     OW29260   3.224   3.325   5.957 -0.0034 -0.0311 -0.3813
 9454SOL    HW129261   3.143   3.305   5.902  0.6412  0.5979 -1.5956
 9454SOL    HW229262   3.244   3.422   5.953  0.2944 -0.0365  0.6654
 9455SOL     OW29263   4.213   0.378   2.335 -0.4321  0.4173 -0.0924
 9455SOL    HW129264   4.261   0.447   2.281  1.7090 -1.6406 -1.0015
 9455SOL    HW229265   4.276   0.303   2.356 -2.3614 -0.7823  1.7726
 9456SOL     OW29266   1.452   3.796   2.178 -0.1555  0.1527 -0.0316
 9456SOL    HW129267   1.499   3.874   2.219  0.9496 -0.1829 -0.6032
 9456SOL    HW229268   1.485   3.783   2.085 -0.2892 -1.0244  0.0722
 9457SOL     OW29269   2.217   2.673   5.714 -0.5154 -0.4322  0.1925
 9457SOL    HW129270   2.237   2.661   5.617  0.0809  0.4318  0.1980
 9457SOL    HW229271   2.278   2.743   5.752 -2.2097  0.8483  0.6703
 9458SOL     OW29272   0.895   6.782   5.386  0.0873 -0.6797  0.4254
 9458SOL    HW129273   0.993   6.789   5.372  0.2582 -1.7190  0.9438
 9458SOL    HW229274   0.857   6.871   5.410  1.0617 -0.4558  1.1751
 9459SOL     OW29275   6.251   4.603   2.802 -0.7206  0.3652  0.1150
 9459SOL    HW129276   6.276   4.511   2.770 -0.9974  0.7718 -1.3592
 9459SOL    HW229277   6.216   4.656   2.725  4.1807  3.4157 -0.4650
 9460SOL     OW29278   0.279   1.262   4.129 -0.4874 -0.2520  0.2142
 9460SOL    HW129279   0.184   1.268   4.160 -0.5033  0.4939  0.0457
 9460SOL    HW229280   0.288   1.307   4.040 -0.1047 -0.9013 -0.0858
 9461SOL     OW29281   0.465   6.071   4.380  0.2033  0.5031 -0.3489
 9461SOL    HW129282   0.550   6.022   4.398 -0.6755 -1.2669 -0.7768
 9461SOL    HW229283   0.474   6.165   4.411  2.0704  0.1735  0.2498
 9462SOL     OW29284   1.523   3.394   0.944 -0.2350  0.3392  0.7171
 9462SOL    HW129285   1.449   3.432   0.889 -1.0671  0.5751  1.9508
 9462SOL    HW229286   1.493   3.389   1.040  0.5735 -1.5702  0.8995
 9463SOL     OW29287   6.201   0.241   0.686  0.5299  0.0143  0.3880
 9463SOL    HW129288   6.277   0.254   0.623  1.1822 -1.1419  0.9249
 9463SOL    HW229289   6.233   0.250   0.780 -0.3322  1.1657  0.6004
 9464SOL     OW29290   5.926   0.349   6.219  1.0413  0.0837 -0.3186
 9464SOL    HW129291   5.880   0.284   6.159  1.7504 -1.8416  1.0994
 9464SOL    HW229292   5.863   0.378   6.291  0.9032  0.4622 -0.5956
 9465SOL     OW29293   6.288   0.634   4.093  0.7494 -0.0757 -0.6356
 9465SOL    HW129294   6.314   0.587   4.177 -0.1020  0.0456 -0.2909
 9465SOL    HW229295   6.359   0.700   4.068  0.6575  0.4542  0.4288
 9466SOL     OW29296   2.417   3.512   5.383  0.6489 -0.3146 -0.1329
 9466SOL    HW129297   2.493   3.447   5.385 -0.0128 -1.0886  1.0360
 9466SOL    HW229298   2.452   3.603   5.361  1.5518 -1.0759 -2.1026
 9467SOL     OW29299   2.960   2.204   3.200  0.6324  0.4372 -0.0890
 9467SOL    HW129300   2.989   2.152   3.280  2.1231  0.5398 -0.5195
 9467SOL    HW229301   2.900   2.279   3.227 -0.3486 -0.6177  0.7063
 9468SOL     OW29302   5.557   2.590   4.436 -0.5439 -0.1459 -0.0001
 9468SOL    HW129303   5.579   2.635   4.350  0.2257  1.2934  0.9191
 9468SOL    HW229304   5.588   2.495   4.433  2.1010  0.6585 -0.2921
 9469SOL     OW29305   0.518   5.971   0.713 -0.2220  0.1225  0.0954
 9469SOL    HW129306   0.486   6.061   0.684  2.0582  0.8863 -0.2584
 9469SOL    HW229307   0.506   5.961   0.812 -1.0332  0.5516  0.0492
 9470SOL     OW29308   3.976   2.401   0.117  0.8039  0.0938  0.1512
 9470SOL    HW129309   3.955   2.441   0.027  0.8937 -0.5613 -0.1700
 9470SOL    HW229310   3.907   2.333   0.140  0.9373  0.0585  0.4463
 9471SOL     OW29311   4.412   1.645   4.533 -0.1511 -0.2276 -0.0741
 9471SOL    HW129312   4.359   1.726   4.557  1.1696  0.8259 -0.6123
 9471SOL    HW229313   4.509   1.669   4.522  0.3062 -1.9000 -0.1106
 9472SOL     OW29314   5.773   5.033   4.246 -0.0730  0.0642 -0.1210
 9472SOL    HW129315   5.767   4.937   4.218  0.1733  0.4437 -1.5409
 9472SOL    HW229316   5.711   5.049   4.323 -1.7981 -0.7457 -1.2826
 9473SOL     OW29317   4.107   5.725   6.304  0.0143  0.2963 -0.2982
 9473SOL    HW129318   4.107   5.825   6.314 -0.1272  0.3810 -1.0824
 9473SOL    HW229319   4.193   5.688   6.341  1.4808  1.0213 -2.7267
 9474SOL     OW29320   6.070   2.403   1.867  0.3061 -0.1248  0.1137
 9474SOL    HW129321   6.067   2.493   1.825  0.1778 -0.5166 -0.7389
 9474SOL    HW229322   5.992   2.393   1.929 -0.7547 -0.3073 -1.1964
 9475SOL     OW29323   2.504   2.476   0.299 -0.2982 -0.7941 -0.2093
 9475SOL    HW129324   2.525   2.399   0.360  0.0416 -0.8268 -0.3615
 9475SOL    HW229325   2.421   2.456   0.247 -0.2873 -1.0035 -0.1496
 9476SOL     OW29326   3.800   3.299   4.416  0.5579  0.1509 -0.3669
 9476SOL    HW129327   3.848   3.254   4.340  1.7085 -0.6783  0.7988
 9476SOL    HW229328   3.774   3.392   4.390  1.7096  0.1813 -1.4745
 9477SOL     OW29329   2.057   1.255   0.940  0.2406  0.4418  0.3709
 9477SOL    HW129330   2.074   1.178   1.001 -0.2975 -0.1746 -0.2400
 9477SOL    HW229331   1.971   1.299   0.966  0.5829  0.8886  0.7640
 9478SOL     OW29332   6.645   3.616   4.096  0.3244  0.2298  0.2069
 9478SOL    HW129333   6.712   3.682   4.063  0.6410  0.0014  0.3842
 9478SOL    HW229334   6.553   3.655   4.090  0.4883  0.6004  0.1031
 9479SOL     OW29335   5.250   1.605   0.253 -0.3386  0.1464  0.2319
 9479SOL    HW129336   5.263   1.701   0.230 -0.4541 -0.3120 -1.9730
 9479SOL    HW229337   5.153   1.586   0.265 -0.5281 -0.0702 -1.4036
 9480SOL     OW29338   5.691   5.429   6.133 -0.3369  0.7079 -0.1975
 9480SOL    HW129339   5.764   5.389   6.077  0.1198 -0.4737  1.1794
 9480SOL    HW229340   5.606   5.379   6.117  0.5776 -2.1785  2.7272
 9481SOL     OW29341   1.695   3.286   1.674  0.4420 -0.3050 -0.1634
 9481SOL    HW129342   1.754   3.321   1.747  1.4079 -1.6437 -0.2699
 9481SOL    HW229343   1.751   3.255   1.598 -0.5460  0.8915 -1.4269
 9482SOL     OW29344   4.093   1.158   2.083  0.0817 -0.1300 -0.1756
 9482SOL    HW129345   4.168   1.110   2.128 -0.9522 -0.8798  0.7987
 9482SOL    HW229346   4.096   1.140   1.985  0.7714 -0.6926 -0.0584
 9483SOL     OW29347   0.910   2.314   2.449  0.2293  0.3424  0.4670
 9483SOL    HW129348   0.939   2.408   2.428  0.6699  0.5327  1.8358
 9483SOL    HW229349   0.821   2.316   2.493  0.3397  0.1415  0.6993
 9484SOL     OW29350   5.502   1.489   2.538 -0.0011 -0.1461 -0.1546
 9484SOL    HW129351   5.460   1.576   2.512 -0.7304 -0.6878 -0.8215
 9484SOL    HW229352   5.480   1.468   2.634 -0.1191  0.2206 -0.1009
 9485SOL     OW29353   1.996   0.633   2.098  0.3171  0.0976  0.3380
 9485SOL    HW129354   2.088   0.673   2.103  0.9314 -1.3641  1.5637
 9485SOL    HW229355   1.980   0.598   2.006  1.0650  0.2095  0.1548
 9486SOL     OW29356   2.026   5.789   0.399 -0.5291  0.5136  0.3068
 9486SOL    HW129357   1.947   5.849   0.388 -0.3066  0.6748 -0.4750
 9486SOL    HW229358   2.033   5.729   0.320  0.6373  1.1036 -0.0648
 9487SOL     OW29359   3.366   3.041   5.401  0.1454  0.4450  0.7411
 9487SOL    HW129360   3.423   2.988   5.463  0.0948  0.3011  0.6676
 9487SOL    HW229361   3.326   2.979   5.332  1.5823  0.8392 -0.5054
 9488SOL     OW29362   1.319   4.773   0.309  0.3162  0.0756  0.4544
 9488SOL    HW129363   1.323   4.873   0.312  1.2288  0.0369  1.0922
 9488SOL    HW229364   1.331   4.737   0.402  0.0221 -0.6258  0.2230
 9489SOL     OW29365   4.351   4.973   5.867  0.6765  0.0992  0.1948
 9489SOL    HW129366   4.374   4.885   5.910  3.4145  1.4260  1.6870
 9489SOL    HW229367   4.316   5.036   5.937 -0.8448  0.3937 -0.7836
 9490SOL     OW29368   5.235   0.966   1.160 -0.5191  0.6314  0.4546
 9490SOL    HW129369   5.215   0.992   1.254  0.8554  1.6606  0.5059
 9490SOL    HW229370   5.333   0.981   1.142 -0.7229  0.2866 -1.0771
 9491SOL     OW29371   5.599   5.065   2.312  0.4232  0.2013  0.3582
 9491SOL    HW129372   5.677   5.003   2.297 -0.0176 -0.2129 -0.2503
 9491SOL    HW229373   5.613   5.115   2.397  1.0661 -0.3166  0.5686
 9492SOL     OW29374   3.122   3.320   3.726  0.0311 -0.3176 -0.0355
 9492SOL    HW129375   3.146   3.227   3.698  0.2034 -0.2465 -0.1234
 9492SOL    HW229376   3.195   3.383   3.699  0.0491 -0.1992  0.2771
 9493SOL     OW29377   4.750   4.947   2.828  0.1113  0.3537 -0.2286
 9493SOL    HW129378   4.685   4.904   2.766 -0.6597 -0.0677  0.8517
 9493SOL    HW229379   4.823   4.990   2.775  0.1768 -1.1057 -1.3921
 9494SOL     OW29380   3.396   4.627   6.433 -0.4518 -0.0162 -0.8059
 9494SOL    HW129381   3.389   4.702   6.368  0.4538 -0.4599 -1.4307
 9494SOL    HW229382   3.468   4.645   6.499 -1.7444  0.7013  0.4786
 9495SOL     OW29383   5.740   1.591   3.441 -0.5616 -0.4054 -0.2165
 9495SOL    HW129384   5.652   1.628   3.472  0.0899  1.3612 -0.3793
 9495SOL    HW229385   5.756   1.619   3.346 -1.1850 -3.2884 -1.2745
 9496SOL     OW29386   5.096   2.294   0.208  0.2249  0.3445  0.4759
 9496SOL    HW129387   4.996   2.302   0.204  0.0075  0.1006  3.2986
 9496SOL    HW229388   5.135   2.379   0.242  0.7807 -0.1825  1.1892
 9497SOL     OW29389   5.419   4.349   2.065 -0.2458 -0.3588  0.5141
 9497SOL    HW129390   5.338   4.363   2.122 -0.0416 -0.1885  0.7670
 9497SOL    HW229391   5.470   4.270   2.099 -1.8689 -2.3880 -1.4518
 9498SOL     OW29392   4.712   6.990   5.318  0.3010 -0.2040  0.2825
 9498SOL    HW129393   4.636   6.956   5.373 -0.2651 -0.5358 -0.6842
 9498SOL    HW229394   4.797   6.984   5.371 -0.2934 -0.0833  1.2757
 9499SOL     OW29395   2.232   3.527   5.843  0.0245 -0.2337 -0.3956
 9499SOL    HW129396   2.302   3.507   5.775 -1.1049 -0.6875 -1.4538
 9499SOL    HW229397   2.259   3.608   5.895  1.7623 -0.9303 -0.1407
 9500SOL     OW29398   5.394   5.593   2.872 -0.1800 -0.1661 -0.1321
 9500SOL    HW129399   5.316   5.532   2.870  0.1265 -0.5721 -2.2245
 9500SOL    HW229400   5.428   5.601   2.965 -0.8634 -2.3555  0.3580
 9501SOL     OW29401   4.266   1.329   6.402  0.1344  0.1025  0.1096
 9501SOL    HW129402   4.197   1.354   6.469 -0.6173 -3.3097  0.8143
 9501SOL    HW229403   4.357   1.356   6.436 -0.2281 -1.4488  2.5757
 9502SOL     OW29404   6.528   3.577   2.002  0.0973 -0.2872  0.8337
 9502SOL    HW129405   6.502   3.519   2.079  1.2797  1.0003  2.2397
 9502SOL    HW229406   6.570   3.661   2.035 -1.2804  1.2820 -1.1514
 9503SOL     OW29407   6.682   1.622   0.201  0.1001  0.5493  0.1872
 9503SOL    HW129408   6.616   1.676   0.253 -0.1857  0.4677 -0.0911
 9503SOL    HW229409   6.647   1.606   0.109 -0.6828 -1.7035  0.8278
 9504SOL     OW29410   1.167   5.497   1.134  0.1378 -0.3873 -0.1594
 9504SOL    HW129411   1.086   5.442   1.118  1.7902 -2.0544 -3.8778
 9504SOL    HW229412   1.197   5.485   1.229 -2.3899 -1.8197  0.5518
 9505SOL     OW29413   6.465   2.679   2.218 -0.1845  0.4066  0.2421
 9505SOL    HW129414   6.405   2.653   2.293 -0.3558  1.2356  0.4032
 9505SOL    HW229415   6.542   2.733   2.253  0.9952 -1.1293  0.1177
 9506SOL     OW29416   1.366   1.033   0.546  0.5556 -0.1637 -0.6735
 9506SOL    HW129417   1.387   1.105   0.481  0.5157  0.3904 -0.0807
 9506SOL    HW229418   1.275   0.995   0.527 -0.5949  1.7742  0.6192
 9507SOL     OW29419   6.921   1.551   3.847 -0.0609 -0.0645  0.4245
 9507SOL    HW129420   7.013   1.568   3.811 -0.0622 -0.1258  0.3923
 9507SOL    HW229421   6.906   1.608   3.927  0.0725 -0.1867  0.5375
 9508SOL     OW29422   0.233   1.697   1.684  0.9286 -0.1660 -0.3469
 9508SOL    HW129423   0.226   1.626   1.615 -0.4165 -0.0770 -0.3253
 9508SOL    HW229424   0.242   1.655   1.774  2.4324 -0.2802 -0.5142
 9509SOL     OW29425   1.649   0.542   4.617  0.1865 -0.3971  0.0831
 9509SOL    HW129426   1.744   0.554   4.586 -0.3174  0.8749 -1.0530
 9509SOL    HW229427   1.612   0.458   4.578  0.2196  0.1424 -1.1617
 9510SOL     OW29428   0.990   3.695   1.670  0.3493  0.9818 -0.1685
 9510SOL    HW129429   1.025   3.625   1.732 -1.7186  0.1854  0.1693
 9510SOL    HW229430   1.022   3.785   1.699  1.9835  0.3314  0.1540
 9511SOL     OW29431   0.690   1.176   0.544  0.2623 -0.3186 -0.7009
 9511SOL    HW129432   0.629   1.207   0.470 -0.5066 -0.7354 -0.2514
 9511SOL    HW229433   0.757   1.248   0.563  0.0479  0.0660 -1.3450
 9512SOL     OW29434   0.540   1.272   2.249 -0.7742 -0.0350 -0.0400
 9512SOL    HW129435   0.560   1.233   2.339 -0.5141  2.6036  1.1437
 9512SOL    HW229436   0.598   1.228   2.180  0.9947 -0.3075  1.5226
 9513SOL     OW29437   1.416   4.055   5.371  0.0584  0.3851  0.4727
 9513SOL    HW129438   1.406   4.046   5.470  0.5440  0.6784  0.5496
 9513SOL    HW229439   1.348   3.998   5.325  1.1089 -1.3274  0.9666
 9514SOL     OW29440   0.774   4.276   0.157 -0.2218  0.3261  0.1476
 9514SOL    HW129441   0.873   4.272   0.143 -0.0109  1.7948  0.9916
 9514SOL    HW229442   0.737   4.358   0.115 -1.2468 -0.6371 -0.9070
 9515SOL     OW29443   3.258   4.773   5.774  0.5527 -0.3325  0.4149
 9515SOL    HW129444   3.324   4.831   5.822  0.7573 -0.7239  0.6087
 9515SOL    HW229445   3.177   4.760   5.832  0.9408 -1.0792  0.8004
 9516SOL     OW29446   5.533   2.643   3.217  0.0033  0.0826 -0.2419
 9516SOL    HW129447   5.509   2.548   3.233 -3.0992  0.9699  1.1615
 9516SOL    HW229448   5.568   2.683   3.301  0.3747  0.4462 -0.5622
 9517SOL     OW29449   2.292   2.822   3.351  0.0104  0.0351 -0.4727
 9517SOL    HW129450   2.337   2.843   3.264 -0.5253 -2.0096 -1.3174
 9517SOL    HW229451   2.269   2.725   3.353  1.7719 -0.4380  2.8229
 9518SOL     OW29452   4.984   2.074   5.159  0.7647 -0.2868  0.8446
 9518SOL    HW129453   4.885   2.088   5.156  1.0380  2.0756 -0.0661
 9518SOL    HW229454   5.006   1.993   5.213 -1.7234 -1.8748 -0.3583
 9519SOL     OW29455   3.657   3.843   4.685 -0.2907  0.5722 -0.0491
 9519SOL    HW129456   3.687   3.750   4.707  0.6097  1.1721  1.4252
 9519SOL    HW229457   3.581   3.839   4.620  1.1406 -1.1079 -1.7489
 9520SOL     OW29458   5.903   2.853   5.219  0.5387 -0.0919  0.3659
 9520SOL    HW129459   5.938   2.836   5.127 -0.0756 -1.6374  0.3764
 9520SOL    HW229460   5.906   2.951   5.239  0.8164  0.2521 -1.2372
 9521SOL     OW29461   5.096   7.016   3.483 -0.8376  0.2036 -0.0083
 9521SOL    HW129462   5.080   7.028   3.385 -2.0574  0.6516  0.2337
 9521SOL    HW229463   5.095   6.918   3.505 -2.4264  0.1604 -0.1653
 9522SOL     OW29464   4.771   5.694   1.238  0.1194 -0.3157  0.5650
 9522SOL    HW129465   4.741   5.785   1.210  0.7755 -0.7577 -1.7300
 9522SOL    HW229466   4.871   5.689   1.234  0.1137 -1.0218  1.0946
 9523SOL     OW29467   1.829   5.379   4.879  0.4966 -0.2911  0.4594
 9523SOL    HW129468   1.900   5.450   4.881  0.4961 -0.3082  1.7450
 9523SOL    HW229469   1.826   5.333   4.967  0.1840 -1.6027 -0.2120
 9524SOL     OW29470   2.521   4.565   2.803  0.0988  0.1027 -0.2573
 9524SOL    HW129471   2.601   4.600   2.755  0.0098  2.7012  1.2394
 9524SOL    HW229472   2.449   4.542   2.738  0.8859  0.9962 -1.4728
 9525SOL     OW29473   1.508   1.714   4.741 -0.3610 -0.0481 -0.1176
 9525SOL    HW129474   1.509   1.757   4.832 -0.1779 -1.6432  0.6710
 9525SOL    HW229475   1.470   1.778   4.675 -1.5434  0.7718  1.2858
 9526SOL     OW29476   3.798   4.494   0.594  0.1160  0.7707  0.2378
 9526SOL    HW129477   3.808   4.588   0.624  1.7768  0.1015  2.0212
 9526SOL    HW229478   3.888   4.449   0.594 -0.5796 -0.7384 -0.8909
 9527SOL     OW29479   4.606   0.235   3.693 -0.8290  0.2631  0.1683
 9527SOL    HW129480   4.578   0.189   3.609 -0.8272 -2.2628  1.4522
 9527SOL    HW229481   4.680   0.299   3.673  0.9979 -2.1619 -1.4252
 9528SOL     OW29482   0.001   6.757   0.820 -0.0230 -0.3205 -0.0940
 9528SOL    HW129483  -0.006   6.837   0.880  1.0881 -0.0896 -0.2566
 9528SOL    HW229484   0.051   6.781   0.737  1.3269 -1.4392  0.3528
 9529SOL     OW29485   6.574   4.236   1.228 -0.1632  0.1060  0.2794
 9529SOL    HW129486   6.622   4.167   1.174  1.3668  0.9475  0.5136
 9529SOL    HW229487   6.598   4.327   1.194  0.5189  0.6391  2.1114
 9530SOL     OW29488   3.161   0.358   5.921  0.8267  0.1519  0.4275
 9530SOL    HW129489   3.165   0.316   5.830 -1.1773 -1.5680  1.0540
 9530SOL    HW229490   3.095   0.433   5.921  2.1386  1.3560  0.0802
 9531SOL     OW29491   4.165   5.368   4.405  0.2892  0.0589  0.1274
 9531SOL    HW129492   4.179   5.357   4.504 -2.4805 -1.1829  0.4774
 9531SOL    HW229493   4.142   5.280   4.365 -1.9219  1.0785 -0.9808
 9532SOL     OW29494   5.476   5.652   2.343  0.3651  1.0122 -0.0757
 9532SOL    HW129495   5.504   5.560   2.373  1.1029  0.9344 -0.9396
 9532SOL    HW229496   5.445   5.705   2.421  1.9521  0.7249  0.7848
 9533SOL     OW29497   2.356   6.060   3.637 -0.0968  0.4860 -0.8227
 9533SOL    HW129498   2.420   5.992   3.600  0.6359  1.0428 -0.6015
 9533SOL    HW229499   2.334   6.037   3.732  0.0888  0.5183 -0.7725
 9534SOL     OW29500   0.081   0.168   5.307 -0.4499  0.2804 -0.1921
 9534SOL    HW129501   0.016   0.233   5.267  0.8794  1.0614 -1.1579
 9534SOL    HW229502   0.087   0.183   5.405 -0.6296  1.1856 -0.3153
 9535SOL     OW29503   2.555   0.738   0.636  0.9355 -0.1424 -0.3653
 9535SOL    HW129504   2.463   0.699   0.625 -0.6600  3.0024  0.5245
 9535SOL    HW229505   2.578   0.793   0.556  0.7130  1.4617  0.6338
 9536SOL     OW29506   2.616   4.999   5.644 -0.2314  0.8925 -0.5280
 9536SOL    HW129507   2.559   4.919   5.623  0.2184 -0.6797  3.3939
 9536SOL    HW229508   2.575   5.051   5.719  1.5846  1.8874 -0.1606
 9537SOL     OW29509   1.702   0.955   4.572 -0.5400 -0.0444  0.2337
 9537SOL    HW129510   1.769   0.950   4.498 -2.3684 -1.3873 -1.4167
 9537SOL    HW229511   1.711   1.044   4.619 -0.3917  1.5798 -2.6602
 9538SOL     OW29512   4.471   5.481   4.600  0.0936  0.0173 -0.7469
 9538SOL    HW129513   4.391   5.540   4.589 -0.9027 -1.5908 -2.8123
 9538SOL    HW229514   4.482   5.459   4.697 -2.4358 -0.2774 -0.4572
 9539SOL     OW29515   4.049   2.667   5.357  0.3104  0.4824  0.2246
 9539SOL    HW129516   3.953   2.639   5.367  0.6331 -0.1821  1.8528
 9539SOL    HW229517   4.097   2.602   5.299  0.9342 -2.3266  3.5630
 9540SOL     OW29518   4.660   5.676   3.453 -0.1765  0.0292  0.9474
 9540SOL    HW129519   4.581   5.737   3.460 -0.2340  0.0688  0.0055
 9540SOL    HW229520   4.640   5.591   3.501 -1.3658 -0.5441 -0.4965
 9541SOL     OW29521   1.124   0.898   6.495 -0.7706 -0.7196 -0.3629
 9541SOL    HW129522   1.183   0.819   6.514  0.3403  0.1786  0.0730
 9541SOL    HW229523   1.062   0.912   6.572 -0.9878 -1.1857 -0.4516
 9542SOL     OW29524   5.561   5.562   1.753 -0.1175 -0.6705 -0.1727
 9542SOL    HW129525   5.598   5.654   1.761  0.5873 -0.6615 -2.6509
 9542SOL    HW229526   5.462   5.566   1.740 -0.1363 -0.2952  0.0827
 9543SOL     OW29527   4.618   6.533   5.974  0.3107  0.3477  0.7162
 9543SOL    HW129528   4.649   6.570   5.886 -0.5818  0.4757  0.4528
 9543SOL    HW229529   4.616   6.606   6.042  1.2753  0.1917  0.9289
 9544SOL     OW29530   4.380   5.058   4.470  0.6648 -0.5134 -0.9135
 9544SOL    HW129531   4.384   5.123   4.395  0.1324 -0.2397 -0.7102
 9544SOL    HW229532   4.311   5.087   4.536  1.3387 -0.5798 -0.1599
 9545SOL     OW29533   0.461   3.977   1.564 -0.2067 -0.6977 -0.3511
 9545SOL    HW129534   0.554   4.009   1.546  0.2690  0.2201  3.1242
 9545SOL    HW229535   0.400   4.012   1.493  1.6067  1.2092 -1.0838
 9546SOL     OW29536   5.164   0.652   6.134 -0.2305 -0.4449  0.0303
 9546SOL    HW129537   5.128   0.738   6.171  0.0464  0.0261 -0.7840
 9546SOL    HW229538   5.138   0.643   6.038 -1.2203 -1.8210  0.4002
 9547SOL     OW29539   4.770   0.460   3.698  0.0868 -0.4313  0.1058
 9547SOL    HW129540   4.767   0.515   3.781 -2.4930  0.1974 -0.2958
 9547SOL    HW229541   4.803   0.516   3.622 -3.3418  1.0117 -0.4839
 9548SOL     OW29542   1.425   4.361   4.900 -0.6320  0.1826  0.1219
 9548SOL    HW129543   1.368   4.343   4.980  2.3829 -1.4665  2.1074
 9548SOL    HW229544   1.460   4.275   4.864  1.0040  1.1258 -0.6467
 9549SOL     OW29545   4.295   1.963   2.865  0.2000  0.1768  0.0395
 9549SOL    HW129546   4.310   1.964   2.964 -0.4508  1.2158  0.1356
 9549SOL    HW229547   4.296   1.868   2.833  0.2539 -0.1825  1.0610
 9550SOL     OW29548   5.018   1.766   6.469 -0.3984 -0.2949 -0.5064
 9550SOL    HW129549   4.928   1.764   6.513 -0.5667  1.6999 -0.6472
 9550SOL    HW229550   5.063   1.677   6.479 -2.4134 -1.3597 -0.5306
 9551SOL     OW29551   4.733   2.758   4.390 -0.0979  0.0675  0.4200
 9551SOL    HW129552   4.777   2.753   4.480 -1.6503  2.1766  1.3760
 9551SOL    HW229553   4.641   2.718   4.395  0.3709 -1.2517 -0.6977
 9552SOL     OW29554   2.917   0.160   6.279  0.3593  0.4185 -0.2872
 9552SOL    HW129555   2.858   0.237   6.254 -0.0510  0.5183  0.8953
 9552SOL    HW229556   3.013   0.189   6.272  0.2100  1.0693  0.1707
 9553SOL     OW29557   5.061   6.665   2.667  0.1168 -0.2065 -0.2731
 9553SOL    HW129558   5.145   6.617   2.692 -0.7436 -0.4256  2.4396
 9553SOL    HW229559   4.988   6.640   2.730 -2.2586 -0.5825 -2.9853
 9554SOL     OW29560   2.968   0.550   5.931  0.4971 -0.1430  0.3072
 9554SOL    HW129561   2.950   0.648   5.934  1.0523 -0.0215 -0.1369
 9554SOL    HW229562   2.882   0.501   5.924  0.2054  0.3029  0.6917
 9555SOL     OW29563   6.503   2.549   3.040 -0.1917 -0.1805  0.1497
 9555SOL    HW129564   6.430   2.599   2.995 -0.4339 -0.0134  0.7157
 9555SOL    HW229565   6.542   2.482   2.977  0.4034  0.9793 -0.7473
 9556SOL     OW29566   0.593   4.985   1.821 -0.3342  0.1207 -0.4461
 9556SOL    HW129567   0.493   4.980   1.828 -0.2943 -0.7382 -0.4580
 9556SOL    HW229568   0.632   4.996   1.913 -0.4678  1.1188 -0.4995
 9557SOL     OW29569   5.753   0.123   1.609 -0.0464 -0.3306 -0.0980
 9557SOL    HW129570   5.841   0.168   1.621 -0.8442  1.1794  0.3496
 9557SOL    HW229571   5.726   0.126   1.513 -0.2923  0.5551 -0.0062
 9558SOL     OW29572   6.250   5.718   4.116  0.3550  0.5793 -0.0127
 9558SOL    HW129573   6.186   5.644   4.098  1.1121 -0.2731  0.7422
 9558SOL    HW229574   6.343   5.690   4.092  0.6843  1.2016  0.4790
 9559SOL     OW29575   1.571   4.768   6.166  0.0212 -0.1571 -0.0462
 9559SOL    HW129576   1.563   4.721   6.078 -0.0769  0.0357 -0.1407
 9559SOL    HW229577   1.620   4.710   6.231 -2.1116 -1.4039  0.5623
 9560SOL     OW29578   2.188   6.988   1.042 -0.2152  0.5156  0.1091
 9560SOL    HW129579   2.112   6.924   1.040  0.6764 -0.5640  0.1711
 9560SOL    HW229580   2.260   6.953   1.101  0.9440  0.8217 -1.0687
 9561SOL     OW29581   3.011   0.668   3.953 -0.3631 -0.2756 -0.2203
 9561SOL    HW129582   3.034   0.759   3.918  0.3891  0.0879  1.1272
 9561SOL    HW229583   2.926   0.637   3.911 -0.4187  0.8792 -1.0110
 9562SOL     OW29584   3.011   6.470   4.555  0.1648  0.0116 -0.2714
 9562SOL    HW129585   2.981   6.562   4.578  0.3398  0.2206 -0.8550
 9562SOL    HW229586   3.096   6.449   4.604  1.0682  0.8184 -1.4394
 9563SOL     OW29587   6.804   6.236   0.444  0.6233  0.0826  0.3719
 9563SOL    HW129588   6.791   6.225   0.543 -0.6793  0.9992  0.3376
 9563SOL    HW229589   6.856   6.320   0.427 -0.5586  0.8103  0.2494
 9564SOL     OW29590   2.791   1.153   0.318 -0.2710 -0.2825  0.9681
 9564SOL    HW129591   2.750   1.169   0.228  1.8194 -0.8127 -0.1224
 9564SOL    HW229592   2.843   1.234   0.346  0.1148 -0.5910  1.1420
 9565SOL     OW29593   3.144   0.685   4.559 -0.0619 -0.1698  0.1765
 9565SOL    HW129594   3.082   0.728   4.624  0.7167  2.1956 -0.5370
 9565SOL    HW229595   3.235   0.675   4.600 -0.1102 -0.6501  0.1664
 9566SOL     OW29596   0.430   6.290   0.507  0.0414 -0.0361  1.0469
 9566SOL    HW129597   0.345   6.254   0.469 -1.2881  0.5740  3.2761
 9566SOL    HW229598   0.411   6.341   0.591  2.4486  1.4473  0.7983
 9567SOL     OW29599   4.707   3.382   5.375 -0.5039 -0.3316 -0.1133
 9567SOL    HW129600   4.667   3.291   5.362  0.5288 -0.6438 -1.2070
 9567SOL    HW229601   4.671   3.445   5.307 -0.2630 -0.2372 -0.1542
 9568SOL     OW29602   2.437   1.139   1.819  0.3823  0.3650 -0.1427
 9568SOL    HW129603   2.365   1.197   1.860  1.6310  0.1604  2.5853
 9568SOL    HW229604   2.400   1.048   1.801 -0.4200  0.6842 -0.1653
 9569SOL     OW29605   6.469   1.832   2.745 -0.8706 -0.2550 -0.0007
 9569SOL    HW129606   6.423   1.917   2.721  0.3878  1.6989  3.8186
 9569SOL    HW229607   6.565   1.850   2.765 -1.1791 -1.8522  3.7984
 9570SOL     OW29608   0.526   2.541   2.000 -0.4135  0.1588  0.3472
 9570SOL    HW129609   0.438   2.558   1.956 -0.1297 -1.0524 -0.7713
 9570SOL    HW229610   0.578   2.626   2.006 -1.9167  1.0226  1.6525
 9571SOL     OW29611   0.539   3.923   0.986  0.0758  0.6274  0.4095
 9571SOL    HW129612   0.472   3.852   0.964 -0.7794  1.9883 -1.7006
 9571SOL    HW229613   0.593   3.944   0.905  1.1633  1.5328  1.3384
 9572SOL     OW29614   2.065   2.770   2.599 -0.2475  0.1041 -0.0499
 9572SOL    HW129615   2.062   2.671   2.612  0.3090  0.1925  0.8165
 9572SOL    HW229616   1.981   2.811   2.633 -1.9821 -0.3400 -3.3382
 9573SOL     OW29617   6.015   1.266   4.803  0.1665 -0.0308 -0.7532
 9573SOL    HW129618   6.037   1.195   4.736 -2.0236 -0.3250 -1.2401
 9573SOL    HW229619   6.061   1.351   4.778  0.3603 -0.4651 -1.9374
 9574SOL     OW29620   3.298   3.701   2.600  0.1864 -0.6603 -0.1943
 9574SOL    HW129621   3.256   3.620   2.559 -0.9820 -0.4712  0.5687
 9574SOL    HW229622   3.324   3.681   2.694 -0.2218 -0.1279  0.0378
 9575SOL     OW29623   5.583   6.872   1.896  0.6316 -0.0525  0.1911
 9575SOL    HW129624   5.558   6.962   1.932 -0.8972  0.2885 -1.5268
 9575SOL    HW229625   5.591   6.807   1.971  0.5502  1.2403  1.3642
 9576SOL     OW29626   2.045   0.786   0.229 -0.0420  0.1109 -0.4486
 9576SOL    HW129627   1.969   0.850   0.244  0.1637  0.4130 -0.6763
 9576SOL    HW229628   2.010   0.702   0.187 -0.1616  0.5168 -1.1935
 9577SOL     OW29629   5.565   0.870   0.830 -0.0173 -0.5589  0.2694
 9577SOL    HW129630   5.539   0.774   0.819  1.9749 -1.2821  1.2624
 9577SOL    HW229631   5.551   0.919   0.744  0.1867 -2.0728 -0.6671
 9578SOL     OW29632   0.933   1.431   0.660 -0.2753  0.3677 -0.2621
 9578SOL    HW129633   1.018   1.382   0.678 -0.6789 -1.0428 -1.9547
 9578SOL    HW229634   0.913   1.493   0.736  0.8812 -1.2081  1.3894
 9579SOL     OW29635   0.128   0.418   1.922  0.6690  0.0983  0.3455
 9579SOL    HW129636   0.150   0.323   1.941  2.1833  0.2588 -0.4569
 9579SOL    HW229637   0.165   0.476   1.995  3.3974  0.3928 -1.1325
 9580SOL     OW29638   4.258   3.772   1.535  0.7299 -0.3119  0.4458
 9580SOL    HW129639   4.200   3.698   1.500  0.0570  1.0076 -1.3872
 9580SOL    HW229640   4.350   3.736   1.553  0.3950 -1.6145 -0.3036
 9581SOL     OW29641   0.459   2.129   6.776  0.3042  0.7495  0.5411
 9581SOL    HW129642   0.473   2.038   6.815 -1.0988  0.1722 -0.2104
 9581SOL    HW229643   0.396   2.122   6.699  0.5780  2.3000  0.1518
 9582SOL     OW29644   3.103   5.710   6.473  0.0387  0.2836 -0.1846
 9582SOL    HW129645   3.194   5.671   6.485  1.0668  2.7145  0.5925
 9582SOL    HW229646   3.103   5.766   6.390  0.1410  2.4221  1.1765
 9583SOL     OW29647   1.791   4.383   1.960  0.0351  0.1461 -0.2969
 9583SOL    HW129648   1.846   4.447   2.014  0.0046  0.5423 -0.7277
 9583SOL    HW229649   1.700   4.421   1.945  0.8028  1.2512 -2.7621
 9584SOL     OW29650   2.578   4.479   5.547 -0.5103  0.9247  0.2405
 9584SOL    HW129651   2.609   4.490   5.452 -1.7119  0.4836 -0.2202
 9584SOL    HW229652   2.655   4.449   5.603 -0.2828 -1.1231 -1.0575
 9585SOL     OW29653   5.006   6.558   2.015 -0.2491  0.2825  0.0103
 9585SOL    HW129654   5.104   6.547   1.997 -0.4187 -0.2398 -0.6011
 9585SOL    HW229655   4.969   6.629   1.955 -0.4879 -0.3485 -0.5901
 9586SOL     OW29656   4.641   3.934   1.623 -0.2543 -0.2618 -0.1335
 9586SOL    HW129657   4.651   4.009   1.557  1.3500 -0.2718  0.0804
 9586SOL    HW229658   4.705   3.946   1.698 -0.9869 -1.0949  0.6468
 9587SOL     OW29659   1.205   5.764   2.493 -0.3672  0.5806 -0.0012
 9587SOL    HW129660   1.299   5.784   2.521 -0.1655  0.1334 -0.3356
 9587SOL    HW229661   1.158   5.849   2.468  0.2262  0.7208 -0.6667
 9588SOL     OW29662   4.834   0.781   0.254  0.1304  0.4696 -0.2607
 9588SOL    HW129663   4.815   0.774   0.155 -0.3878 -1.4440 -0.0695
 9588SOL    HW229664   4.760   0.833   0.297  0.4306  1.4463 -0.8837
 9589SOL     OW29665   1.498   5.694   0.701  0.1250  0.3125 -0.5736
 9589SOL    HW129666   1.409   5.739   0.717  0.1459  0.3579 -0.5851
 9589SOL    HW229667   1.531   5.655   0.787 -1.3662 -2.3923 -1.1207
 9590SOL     OW29668   4.861   2.006   0.881 -0.6830 -0.5317  0.0887
 9590SOL    HW129669   4.886   2.086   0.935 -0.0691 -0.5087 -0.2176
 9590SOL    HW229670   4.775   1.968   0.915 -1.3168  0.6238 -0.1541
 9591SOL     OW29671   2.059   6.606   5.372  0.2060  0.4503  0.4895
 9591SOL    HW129672   2.083   6.548   5.449  0.6693 -0.0902 -0.0497
 9591SOL    HW229673   2.032   6.697   5.405 -0.3885 -0.0215  1.3318
 9592SOL     OW29674   3.087   4.264   6.452 -0.5563  0.7825  0.3062
 9592SOL    HW129675   3.136   4.211   6.521  2.3265  1.7704 -0.8274
 9592SOL    HW229676   3.106   4.361   6.465 -1.5266  1.1282 -0.7359
 9593SOL     OW29677   1.184   1.972   5.665 -0.1425 -0.9137 -0.5735
 9593SOL    HW129678   1.209   1.899   5.728  3.4137  1.4791  1.1211
 9593SOL    HW229679   1.233   1.961   5.579  0.3952 -0.5559 -0.3173
 9594SOL     OW29680   1.283   6.052   4.764  0.4167  0.3888  0.8023
 9594SOL    HW129681   1.330   6.125   4.715 -0.1444 -0.2571 -0.7574
 9594SOL    HW229682   1.344   5.973   4.771 -0.5446 -0.7078 -1.8476
 9595SOL     OW29683   6.578   2.402   2.816  0.2842 -0.4484  0.2376
 9595SOL    HW129684   6.563   2.470   2.744  0.9142  0.6907  1.1611
 9595SOL    HW229685   6.641   2.332   2.783  0.1944 -0.2039 -0.4744
 9596SOL     OW29686   1.865   4.632   1.609  0.5935  0.0755 -0.8552
 9596SOL    HW129687   1.860   4.546   1.559  0.3699  0.1043 -0.8847
 9596SOL    HW229688   1.801   4.698   1.569 -1.4988 -0.7105  1.0109
 9597SOL     OW29689   1.679   4.713   2.872  0.1735 -0.8636  0.4208
 9597SOL    HW129690   1.603   4.778   2.874 -0.2063 -1.3258  1.3873
 9597SOL    HW229691   1.757   4.756   2.827  0.3248  0.7214  2.0747
 9598SOL     OW29692   1.836   4.558   2.541 -0.3280  0.6038  0.3457
 9598SOL    HW129693   1.797   4.530   2.629  0.9559 -0.6234  0.5563
 9598SOL    HW229694   1.804   4.497   2.469  1.1340 -0.4231  0.5228
 9599SOL     OW29695   4.743   0.933   3.866  0.1089 -0.0486 -0.2161
 9599SOL    HW129696   4.807   1.001   3.829  2.0367 -1.2464  0.7359
 9599SOL    HW229697   4.692   0.973   3.942  0.6101  0.5926 -0.2088
 9600SOL     OW29698   1.225   0.966   1.070 -0.3555 -0.3492 -0.0021
 9600SOL    HW129699   1.228   0.867   1.085  3.9908 -0.4910 -0.4718
 9600SOL    HW229700   1.229   0.985   0.972  0.2231  0.2639  0.1358
 9601SOL     OW29701   4.837   3.534   6.970 -1.0481  0.0558  0.4955
 9601SOL    HW129702   4.840   3.441   6.935 -0.6859 -0.3864  1.6766
 9601SOL    HW229703   4.915   3.550   7.030 -1.1403  1.1030  0.3533
 9602SOL     OW29704   5.636   2.997   5.494  0.5463 -0.2716  0.0342
 9602SOL    HW129705   5.665   2.930   5.425 -2.8243 -0.2773 -1.5874
 9602SOL    HW229706   5.627   2.951   5.582 -2.7152 -2.4445 -1.2494
 9603SOL     OW29707   6.312   6.903   5.527  0.0526  0.1452 -0.2553
 9603SOL    HW129708   6.291   6.922   5.431  0.9645  0.8873 -0.3208
 9603SOL    HW229709   6.280   6.979   5.584 -1.5281 -0.8013  0.1953
 9604SOL     OW29710   2.613   6.504   1.354  0.0480  0.2050  0.5963
 9604SOL    HW129711   2.688   6.570   1.350 -0.1863  0.4347 -0.7273
 9604SOL    HW229712   2.539   6.541   1.411 -0.6919  1.8239 -1.2763
 9605SOL     OW29713   0.654   5.594   2.371 -0.3173 -0.5517  0.1768
 9605SOL    HW129714   0.680   5.539   2.450 -0.1477  0.0701  0.5641
 9605SOL    HW229715   0.576   5.652   2.394  1.4837  1.7612  0.8575
 9606SOL     OW29716   0.089   2.583   6.942 -0.0676 -0.5507 -0.4337
 9606SOL    HW129717   0.076   2.492   6.982 -2.7343 -0.6659 -1.3542
 9606SOL    HW229718   0.084   2.652   7.015  4.3306 -1.0812  0.6642
 9607SOL     OW29719   1.751   0.048   6.819 -0.4659 -0.1662 -0.0149
 9607SOL    HW129720   1.697  -0.036   6.814 -0.2453 -0.3024 -0.1057
 9607SOL    HW229721   1.690   0.127   6.825 -0.7021 -0.4525  2.1532
 9608SOL     OW29722   1.520   3.684   3.582 -0.5218  0.0549 -0.3280
 9608SOL    HW129723   1.610   3.727   3.591 -0.7495  0.9485 -1.9849
 9608SOL    HW229724   1.499   3.670   3.485 -1.4955 -1.6303  0.0938
 9609SOL     OW29725   4.869   3.073   0.042 -0.3700 -0.0728 -0.1608
 9609SOL    HW129726   4.957   3.028   0.056  0.2156  0.8131 -0.8628
 9609SOL    HW229727   4.884   3.165   0.006 -1.5801  0.2009 -0.0091
 9610SOL     OW29728   0.689   4.157   3.737 -0.1126  0.8453  0.3519
 9610SOL    HW129729   0.696   4.058   3.730 -2.6719  0.5682  0.9711
 9610SOL    HW229730   0.763   4.192   3.795  2.5262 -0.2891 -2.0758
 9611SOL     OW29731   0.860   0.408   5.811  0.3160  0.3311  0.4176
 9611SOL    HW129732   0.938   0.445   5.760  0.7483  0.1265  0.9239
 9611SOL    HW229733   0.883   0.401   5.908  0.4260 -1.7248  0.2765
 9612SOL     OW29734   0.152   3.205   0.868  0.0601 -0.0041  0.3347
 9612SOL    HW129735   0.196   3.137   0.810 -0.2400 -1.2699  1.5422
 9612SOL    HW229736   0.221   3.249   0.926  0.1441  0.1547  0.1156
 9613SOL     OW29737   6.813   6.942   3.823 -0.3074 -0.1449 -0.2222
 9613SOL    HW129738   6.889   6.910   3.878 -0.7249 -1.9615 -0.6180
 9613SOL    HW229739   6.800   6.880   3.745  0.4216  2.4436 -2.5630
 9614SOL     OW29740   4.732   2.929   0.837  0.0703 -0.1444  0.6226
 9614SOL    HW129741   4.703   2.952   0.929  2.2428 -0.2518  1.3922
 9614SOL    HW229742   4.747   3.013   0.784 -0.2075 -0.0465  0.7023
 9615SOL     OW29743   3.314   1.397   1.230  0.0025  0.4823  0.3439
 9615SOL    HW129744   3.231   1.388   1.175  0.7405  0.7731 -0.8488
 9615SOL    HW229745   3.301   1.470   1.297 -0.9569  0.0396  0.6529
 9616SOL     OW29746   2.871   4.685   0.333  0.1272  0.0591  0.6479
 9616SOL    HW129747   2.896   4.592   0.306 -0.3320  0.0211  0.3459
 9616SOL    HW229748   2.835   4.734   0.253  0.8911  0.6803  0.6662
 9617SOL     OW29749   2.352   2.133   3.485 -0.6188 -0.7892  0.1869
 9617SOL    HW129750   2.330   2.150   3.581 -1.1594  0.9902 -0.2048
 9617SOL    HW229751   2.289   2.064   3.448  0.1447 -2.1205  1.2975
 9618SOL     OW29752   1.690   6.197   0.023  0.4826 -0.0982 -0.3708
 9618SOL    HW129753   1.776   6.225  -0.020  0.5685 -0.1244 -0.2151
 9618SOL    HW229754   1.623   6.271   0.014  1.2725  0.9495  1.6622
 9619SOL     OW29755   2.833   1.492   4.596  0.0566  0.2514 -0.0693
 9619SOL    HW129756   2.888   1.500   4.679  0.2813 -0.0995 -0.1834
 9619SOL    HW229757   2.754   1.434   4.614  0.9722 -1.2027 -0.5274
 9620SOL     OW29758   4.678   0.975   4.350 -0.1881  0.1660 -0.0972
 9620SOL    HW129759   4.618   0.997   4.426  0.6195  1.4084  0.2017
 9620SOL    HW229760   4.648   0.889   4.307 -0.8320 -0.3873  1.4102
 9621SOL     OW29761   2.411   2.210   2.616 -0.0030  0.1186 -0.0227
 9621SOL    HW129762   2.454   2.173   2.699  0.2505  2.1706  0.8249
 9621SOL    HW229763   2.438   2.306   2.605 -1.2655  0.3221 -1.6505
 9622SOL     OW29764   5.658   2.467   6.092  0.9856 -0.0084  0.5050
 9622SOL    HW129765   5.747   2.509   6.110  0.4266  1.4012  0.1189
 9622SOL    HW229766   5.641   2.467   5.993  0.0464  0.8582  0.6558
 9623SOL     OW29767   1.368   4.333   5.386 -0.5762 -0.4777 -0.3126
 9623SOL    HW129768   1.361   4.350   5.485  3.4153  0.4713 -0.0400
 9623SOL    HW229769   1.422   4.251   5.370  0.6633  0.5621 -1.6748
 9624SOL     OW29770   6.519   2.076   2.250  0.0915  0.5770 -0.0548
 9624SOL    HW129771   6.429   2.107   2.281 -0.4252 -0.2129 -0.7483
 9624SOL    HW229772   6.509   1.996   2.191  1.3552 -0.6747  1.3270
 9625SOL     OW29773   4.973   4.942   0.987 -0.0657 -0.5510 -0.0643
 9625SOL    HW129774   5.020   5.025   1.016  1.8573 -1.7423  0.3596
 9625SOL    HW229775   4.905   4.917   1.056  1.0606 -0.6785  1.0193
 9626SOL     OW29776   5.972   0.087   6.499  0.3248 -0.4863  0.3768
 9626SOL    HW129777   5.893   0.075   6.560  0.6358 -2.8450  0.3927
 9626SOL    HW229778   5.954   0.043   6.412  1.2854 -0.2521  0.0483
 9627SOL     OW29779   1.041   6.443   6.218 -0.0721 -0.0162 -0.5491
 9627SOL    HW129780   1.046   6.344   6.202  0.9781  0.0341 -0.6217
 9627SOL    HW229781   1.077   6.491   6.138 -2.4503  0.5208 -1.3910
 9628SOL     OW29782   6.129   4.972   1.535  0.4595 -0.2469 -0.5878
 9628SOL    HW129783   6.210   4.923   1.503  0.6968 -0.1305 -0.1722
 9628SOL    HW229784   6.056   4.963   1.467  1.2448  0.7956 -1.6113
 9629SOL     OW29785   1.617   0.568   2.246 -0.2207  0.3751  0.1630
 9629SOL    HW129786   1.652   0.500   2.311 -0.9643 -0.6539 -0.4709
 9629SOL    HW229787   1.550   0.626   2.291  1.0647  1.2901  0.9475
 9630SOL     OW29788   6.728   1.555   4.851 -0.3767 -0.4992  0.5881
 9630SOL    HW129789   6.726   1.646   4.892  0.0836 -0.5916  0.8136
 9630SOL    HW229790   6.762   1.489   4.917 -0.6663 -0.8295  0.4091
 9631SOL     OW29791   6.721   2.071   5.782  0.4404  0.1605 -0.0677
 9631SOL    HW129792   6.637   2.116   5.752  0.3006  0.0808  0.2056
 9631SOL    HW229793   6.796   2.095   5.719  0.0072 -0.5327 -0.8603
 9632SOL     OW29794   2.277   6.392   4.122 -0.3576 -0.0309 -0.0125
 9632SOL    HW129795   2.261   6.299   4.156  0.7234  0.2899  1.4976
 9632SOL    HW229796   2.356   6.431   4.169  0.1734  1.1032 -1.7651
 9633SOL     OW29797   5.670   5.027   1.346 -0.3936 -0.3662 -0.0267
 9633SOL    HW129798   5.616   4.977   1.413 -1.2278  0.5213 -0.0131
 9633SOL    HW229799   5.622   5.028   1.258  1.4314 -2.9022 -1.1391
 9634SOL     OW29800   1.257   6.869   3.923  0.2847  0.2250  0.6946
 9634SOL    HW129801   1.222   6.937   3.859 -1.5120  0.1276  1.5155
 9634SOL    HW229802   1.200   6.868   4.005  0.8881 -1.5686  1.1370
 9635SOL     OW29803   0.078   5.915   4.252  0.4552 -0.2252  0.0200
 9635SOL    HW129804   0.106   5.821   4.234  0.7909 -0.0855 -0.2000
 9635SOL    HW229805   0.039   5.954   4.168  0.7373 -0.0202 -0.0150
 9636SOL     OW29806   2.780   1.974   4.791 -0.3149 -0.2843  0.1605
 9636SOL    HW129807   2.820   2.051   4.840  0.5235 -0.4285 -0.2696
 9636SOL    HW229808   2.792   1.890   4.844 -0.6185 -0.2267  0.3204
 9637SOL     OW29809   3.145   2.419   6.543 -0.4557  0.2704 -0.8342
 9637SOL    HW129810   3.176   2.512   6.558 -1.3382  0.7068 -1.6009
 9637SOL    HW229811   3.047   2.419   6.526 -1.5420 -1.2896  3.8969
 9638SOL     OW29812   0.695   3.009   5.630  0.0048  0.2428 -0.3811
 9638SOL    HW129813   0.714   2.933   5.693  1.4782  2.1108  1.5373
 9638SOL    HW229814   0.779   3.037   5.584 -0.6907  0.2281 -1.7306
 9639SOL     OW29815   5.240   2.229   2.310  0.8932 -0.4895 -0.5754
 9639SOL    HW129816   5.180   2.151   2.295 -0.9258  0.5491  0.9427
 9639SOL    HW229817   5.303   2.210   2.385 -1.2909  0.3404  1.5810
 9640SOL     OW29818   2.731   1.120   4.163 -0.1073  0.1119  0.0917
 9640SOL    HW129819   2.777   1.206   4.140  0.5027  0.3334  1.9248
 9640SOL    HW229820   2.800   1.048   4.173 -0.3427 -0.0112  0.9179
 9641SOL     OW29821   4.986   6.035   6.792  0.5232  0.1641 -0.0432
 9641SOL    HW129822   5.044   6.092   6.849 -0.4214  0.8195  0.2862
 9641SOL    HW229823   4.900   6.083   6.773  1.2029  0.4314 -2.8909
 9642SOL     OW29824   2.264   1.822   4.663 -0.3643 -0.1349 -0.2655
 9642SOL    HW129825   2.175   1.843   4.703 -0.7874 -1.6528 -0.3673
 9642SOL    HW229826   2.334   1.826   4.735 -0.2888  2.1307 -0.3801
 9643SOL     OW29827   2.618   4.931   4.686 -0.0908 -0.0432 -0.5726
 9643SOL    HW129828   2.670   4.849   4.712  2.4239  1.7724  0.5566
 9643SOL    HW229829   2.636   4.953   4.590  0.3460 -0.0736 -0.5021
 9644SOL     OW29830   6.569   4.511   1.509  0.0952 -0.1124  0.5943
 9644SOL    HW129831   6.558   4.517   1.608  0.6398  0.5615  0.6193
 9644SOL    HW229832   6.662   4.481   1.488 -0.4717 -1.7260  0.3083
 9645SOL     OW29833   2.238   5.468   3.048 -0.4352 -0.2942 -0.1802
 9645SOL    HW129834   2.299   5.532   3.002 -0.4159  0.3257  0.6820
 9645SOL    HW229835   2.165   5.440   2.986  0.1125 -0.2085 -0.8742
 9646SOL     OW29836   4.110   4.472   0.700  0.2248  0.4328  0.8388
 9646SOL    HW129837   4.113   4.540   0.627  0.7635  1.2606  1.6152
 9646SOL    HW229838   4.162   4.391   0.672  0.5911  0.8218  0.3900
 9647SOL     OW29839   5.688   3.793   0.679 -0.7581  0.2273  0.0495
 9647SOL    HW129840   5.663   3.877   0.632 -0.2967  0.3084 -0.0617
 9647SOL    HW229841   5.731   3.815   0.767  1.4469  0.2282 -0.9547
 9648SOL     OW29842   3.299   0.590   0.918 -0.6018 -0.4954  0.0535
 9648SOL    HW129843   3.318   0.547   1.006 -1.5268 -1.7269 -0.3383
 9648SOL    HW229844   3.374   0.653   0.895 -0.4890  0.0726  1.8400
 9649SOL     OW29845   3.052   6.178   5.884 -0.8792 -0.3267 -0.2397
 9649SOL    HW129846   3.062   6.138   5.975 -2.1672  1.4569  0.7630
 9649SOL    HW229847   2.971   6.140   5.840 -0.9962 -0.2477 -0.0953
 9650SOL     OW29848   6.270   3.885   3.217 -0.0869  0.2584  0.8597
 9650SOL    HW129849   6.178   3.921   3.198 -0.1153 -0.3109 -0.1442
 9650SOL    HW229850   6.311   3.936   3.293 -0.7510  1.3212  0.5209
 9651SOL     OW29851   6.274   3.030   3.608  0.3872 -0.4547  0.3521
 9651SOL    HW129852   6.262   2.981   3.522 -0.8016 -0.8585  0.7230
 9651SOL    HW229853   6.220   2.985   3.679  0.0196  0.8428  0.9231
 9652SOL     OW29854   0.772   5.582   1.904 -0.6641  0.2401 -0.0101
 9652SOL    HW129855   0.729   5.516   1.966  0.2970  0.6165  1.0957
 9652SOL    HW229856   0.854   5.542   1.864 -0.3846  0.5637  0.2310
 9653SOL     OW29857   2.966   6.517   5.420  0.6120 -0.5695 -0.0822
 9653SOL    HW129858   2.904   6.586   5.458  0.6849  0.1459 -1.1961
 9653SOL    HW229859   2.996   6.456   5.493 -0.1035  0.0735  0.7879
 9654SOL     OW29860   3.733   1.306   0.865 -0.0388 -0.5508  0.0891
 9654SOL    HW129861   3.643   1.341   0.891  0.3487 -0.4788  1.3570
 9654SOL    HW229862   3.796   1.313   0.942  1.3451  0.3042 -1.0552
 9655SOL     OW29863   0.849   2.161   6.025  0.0605  0.1619  0.2135
 9655SOL    HW129864   0.908   2.131   5.950  0.2782  0.9669  0.0526
 9655SOL    HW229865   0.753   2.149   5.999  0.0921  1.6929 -0.7617
 9656SOL     OW29866   3.688   6.212   3.318 -0.2240 -0.3655 -0.7589
 9656SOL    HW129867   3.747   6.274   3.266  1.9803 -0.8542  1.0089
 9656SOL    HW229868   3.697   6.119   3.283  1.0259 -0.6407  0.2023
 9657SOL     OW29869   5.235   1.017   2.641 -0.1072  0.0156 -0.3073
 9657SOL    HW129870   5.211   0.947   2.708 -3.7583  0.7189 -0.6742
 9657SOL    HW229871   5.219   0.982   2.549 -1.2200  1.0076 -0.5167
 9658SOL     OW29872   1.683   2.568   2.248 -0.1992 -0.3893  0.1562
 9658SOL    HW129873   1.613   2.506   2.281 -1.9452  1.5447  0.2986
 9658SOL    HW229874   1.712   2.629   2.322 -0.7740  0.9594 -0.6990
 9659SOL     OW29875   0.994   4.394   1.652  0.2192  0.5784  0.4909
 9659SOL    HW129876   0.924   4.339   1.699  0.8190 -0.1034  0.6169
 9659SOL    HW229877   0.967   4.490   1.652 -0.9116  0.2731  0.1783
 9660SOL     OW29878   5.183   6.957   2.718  0.0880 -0.0614  0.2602
 9660SOL    HW129879   5.105   6.949   2.657  1.9780  0.8902 -2.5053
 9660SOL    HW229880   5.240   7.034   2.690  1.0902  0.4956  3.3512
 9661SOL     OW29881   3.743   5.527   0.436 -0.1492 -0.4854  0.0025
 9661SOL    HW129882   3.673   5.580   0.389  0.5704  1.0826  0.6240
 9661SOL    HW229883   3.827   5.581   0.443  0.6398 -1.7352  0.6251
 9662SOL     OW29884   5.699   1.668   3.870  0.4736  0.2408 -0.4032
 9662SOL    HW129885   5.607   1.708   3.866 -0.3584 -1.5924 -0.3314
 9662SOL    HW229886   5.760   1.731   3.918 -0.4736  1.9525 -1.3382
 9663SOL     OW29887   1.649   4.152   2.556 -0.3601 -0.1838 -0.8086
 9663SOL    HW129888   1.665   4.095   2.637  0.1739  0.9589 -0.0638
 9663SOL    HW229889   1.572   4.214   2.574  0.6415  1.0526 -0.5851
 9664SOL     OW29890   4.922   6.265   3.566 -0.0420  0.1099  0.5204
 9664SOL    HW129891   4.906   6.208   3.486  0.6802  0.5853  0.0252
 9664SOL    HW229892   5.018   6.293   3.568  0.2024 -0.7422  2.1127
 9665SOL     OW29893   6.474   4.589   4.966 -0.6297  0.1089  0.0735
 9665SOL    HW129894   6.478   4.494   4.998  0.2872  0.6009  1.5219
 9665SOL    HW229895   6.551   4.606   4.904 -0.1045  0.2081  0.7400
 9666SOL     OW29896   6.249   2.723   2.036 -0.1915 -0.0638 -0.5008
 9666SOL    HW129897   6.271   2.696   1.942  0.2487 -0.8469 -0.1829
 9666SOL    HW229898   6.325   2.700   2.096 -0.6682 -0.0221  0.1285
 9667SOL     OW29899   3.535   3.632   2.461  0.0351  0.5052 -0.5120
 9667SOL    HW129900   3.460   3.659   2.522  1.2092  1.3955  0.6041
 9667SOL    HW229901   3.498   3.602   2.374 -1.6206  0.8384  0.0406
 9668SOL     OW29902   0.123   1.724   4.705 -0.2261 -0.3127  0.1952
 9668SOL    HW129903   0.137   1.626   4.689 -0.0812 -0.2540 -0.0387
 9668SOL    HW229904   0.211   1.769   4.718 -0.3079 -0.2591  0.5847
 9669SOL     OW29905   1.181   0.081   7.005  0.0948 -0.1150 -0.2989
 9669SOL    HW129906   1.151   0.087   6.910 -3.0774  1.6277  0.6776
 9669SOL    HW229907   1.142  -0.001   7.047 -1.5184  0.9326  0.3509
 9670SOL     OW29908   5.043   5.311   0.384  0.0195 -0.0375  0.4044
 9670SOL    HW129909   5.008   5.221   0.410 -0.1959  0.4726  1.9903
 9670SOL    HW229910   5.139   5.318   0.409  0.2207 -0.0592 -0.3475
 9671SOL     OW29911   6.621   5.478   0.209  0.1221 -0.0889  0.4214
 9671SOL    HW129912   6.710   5.499   0.249 -0.5075  0.0625  1.8188
 9671SOL    HW229913   6.630   5.403   0.144  1.5565  1.0926 -0.8211
 9672SOL     OW29914   1.692   6.866   4.492 -0.3309 -0.0309 -0.0303
 9672SOL    HW129915   1.735   6.788   4.446 -0.6559  1.0334 -2.2928
 9672SOL    HW229916   1.601   6.840   4.525  0.5819 -1.3010  1.6556
 9673SOL     OW29917   4.268   4.425   6.240  0.1444 -0.1339 -0.5255
 9673SOL    HW129918   4.181   4.407   6.287  0.0257 -1.8283 -1.3083
 9673SOL    HW229919   4.334   4.354   6.263  0.7406  0.1320 -1.3410
 9674SOL     OW29920   3.382   0.629   2.245  0.1279  0.6839 -0.1448
 9674SOL    HW129921   3.301   0.597   2.294 -0.5926  2.5166 -0.0883
 9674SOL    HW229922   3.463   0.616   2.303 -0.2831 -0.0230  0.2868
 9675SOL     OW29923   5.174   0.632   2.100 -0.6245 -0.4355  0.9041
 9675SOL    HW129924   5.157   0.730   2.114 -1.4186 -0.0176 -2.3058
 9675SOL    HW229925   5.236   0.599   2.172 -1.1389  2.1369  2.6784
 9676SOL     OW29926   0.316   1.747   6.423 -0.2297  0.0652 -0.2332
 9676SOL    HW129927   0.415   1.759   6.427  0.3047 -2.9043 -1.6466
 9676SOL    HW229928   0.287   1.747   6.327 -1.1743 -1.5766  0.0137
 9677SOL     OW29929   3.160   4.089   4.532  0.1148 -0.1424 -0.1465
 9677SOL    HW129930   3.249   4.086   4.577 -0.0774 -1.8577  0.1771
 9677SOL    HW229931   3.088   4.103   4.601  0.0497  0.1812 -0.2787
 9678SOL     OW29932   4.033   3.573   2.974  0.0628 -0.2603 -0.1924
 9678SOL    HW129933   4.066   3.624   3.054  0.3578  3.2681 -2.3303
 9678SOL    HW229934   3.945   3.612   2.944 -0.2794 -1.8184 -1.3159
 9679SOL     OW29935   1.325   3.138   2.622  0.0442 -0.6201 -0.4989
 9679SOL    HW129936   1.351   3.047   2.656  2.2949 -0.3393 -1.3199
 9679SOL    HW229937   1.390   3.168   2.553 -0.7003  1.6036 -0.3209
 9680SOL     OW29938   0.018   5.667   4.613 -0.8509  0.4410 -0.4731
 9680SOL    HW129939  -0.069   5.657   4.662 -0.4510  1.6143  0.5489
 9680SOL    HW229940   0.043   5.764   4.610  1.5755 -0.0161  1.3934
 9681SOL     OW29941   3.112   1.624   0.722 -0.3402 -0.1866 -0.2388
 9681SOL    HW129942   3.201   1.603   0.762 -0.2543  2.5643  1.2492
 9681SOL    HW229943   3.113   1.717   0.685 -2.5218 -0.1741 -0.4188
 9682SOL     OW29944   5.651   3.556   3.970 -0.1237  0.3553 -0.1264
 9682SOL    HW129945   5.602   3.509   4.043  0.8502 -1.1526 -0.3958
 9682SOL    HW229946   5.589   3.567   3.891 -0.1562 -1.2783 -0.3689
 9683SOL     OW29947   6.095   3.811   1.539  0.1061  0.0796  0.1109
 9683SOL    HW129948   5.999   3.795   1.515  0.0301 -0.8505  0.9875
 9683SOL    HW229949   6.127   3.739   1.600  1.4248  0.2818 -0.3061
 9684SOL     OW29950   6.137   2.732   5.530  0.5369  0.9922 -0.0900
 9684SOL    HW129951   6.196   2.753   5.608  1.8565  2.2533 -1.3696
 9684SOL    HW229952   6.088   2.814   5.502 -2.7508 -0.2449  1.5838
 9685SOL     OW29953   2.249   1.282   1.918 -0.0579 -0.6314 -0.1243
 9685SOL    HW129954   2.233   1.300   2.015  0.1711 -1.1062  0.0033
 9685SOL    HW229955   2.190   1.341   1.863 -1.4987 -1.6028  0.3244
 9686SOL     OW29956   5.753   1.960   6.775 -0.1813 -0.1959 -0.3637
 9686SOL    HW129957   5.666   1.911   6.780 -0.7240  0.2537 -3.2941
 9686SOL    HW229958   5.743   2.040   6.716  2.2292 -0.1749 -0.8716
 9687SOL     OW29959   3.691   6.913   2.421  0.3155  0.2941 -0.7709
 9687SOL    HW129960   3.717   6.967   2.341  0.5102  0.2773 -0.7189
 9687SOL    HW229961   3.602   6.945   2.455  0.7257  1.0233 -0.3477
 9688SOL     OW29962   1.083   1.192   2.225 -0.6281  0.1926 -0.7943
 9688SOL    HW129963   1.024   1.212   2.304 -0.2800 -0.8737 -0.2436
 9688SOL    HW229964   1.175   1.170   2.258 -0.5793 -0.6416 -1.4710
 9689SOL     OW29965   0.186   6.598   5.295 -0.2097  0.1647  0.0672
 9689SOL    HW129966   0.136   6.629   5.376 -0.9616  0.6481 -0.5691
 9689SOL    HW229967   0.139   6.520   5.254  0.5034 -0.4763  0.4269
 9690SOL     OW29968   1.386   5.067   4.784 -0.4190  0.5288  0.0243
 9690SOL    HW129969   1.432   5.112   4.708 -0.0207 -0.2113 -0.1862
 9690SOL    HW229970   1.427   5.098   4.870 -0.3257  0.7627 -0.1018
 9691SOL     OW29971   1.367   6.219   1.585 -0.0151  0.7365  0.2908
 9691SOL    HW129972   1.410   6.304   1.554  0.0798  0.9340  0.9372
 9691SOL    HW229973   1.306   6.238   1.662 -0.4794  0.3058  0.0387
 9692SOL     OW29974   3.022   4.842   3.024  0.4455 -0.1359  0.5428
 9692SOL    HW129975   3.002   4.753   2.984 -1.7502  0.9640 -1.0699
 9692SOL    HW229976   2.940   4.877   3.069  1.0594  1.3466  0.5693
 9693SOL     OW29977   0.298   6.064   1.077  0.3895 -0.2569  0.0401
 9693SOL    HW129978   0.202   6.070   1.050 -0.3879 -0.6572  2.4290
 9693SOL    HW229979   0.324   6.147   1.127  0.5072 -1.1201  1.4915
 9694SOL     OW29980   2.328   0.752   0.263 -0.0913 -0.3289 -0.2490
 9694SOL    HW129981   2.341   0.655   0.282  2.3347 -0.0059  0.0779
 9694SOL    HW229982   2.232   0.769   0.241 -0.9582 -2.4843  1.4382
 9695SOL     OW29983   5.158   3.591   0.055 -0.5918  0.2898 -0.4918
 9695SOL    HW129984   5.182   3.688   0.059  2.7464 -0.4395  0.1834
 9695SOL    HW229985   5.161   3.552   0.147 -0.0242 -0.8060 -0.9544
 9696SOL     OW29986   2.296   4.512   2.023 -0.4604 -0.0927 -0.0804
 9696SOL    HW129987   2.383   4.519   1.975 -0.9451  0.2131 -0.9361
 9696SOL    HW229988   2.228   4.470   1.963 -0.7634 -0.8616  0.7801
 9697SOL     OW29989   6.933   6.010   6.902 -0.2875  0.1555  0.6230
 9697SOL    HW129990   6.901   6.104   6.891  1.4006  0.7536  0.3951
 9697SOL    HW229991   7.033   6.008   6.890 -0.2579 -1.6225  0.9273
 9698SOL     OW29992   5.651   1.913   5.257  0.0619 -0.0753 -0.6006
 9698SOL    HW129993   5.628   1.856   5.178 -0.2292  0.2712 -0.7735
 9698SOL    HW229994   5.609   1.875   5.339  1.2373 -1.0255 -0.4204
 9699SOL     OW29995   6.853   2.356   6.668 -0.5794 -0.3005 -0.1623
 9699SOL    HW129996   6.817   2.326   6.580  0.3761 -0.6945 -0.4299
 9699SOL    HW229997   6.777   2.386   6.727 -1.2734 -0.5640 -0.9093
 9700SOL     OW29998   3.483   5.013   5.803  0.0689 -0.2954  0.3104
 9700SOL    HW129999   3.551   4.999   5.732  0.4232 -1.0594  0.7898
 9700SOL    HW230000   3.401   5.055   5.763  1.5044  2.4888  0.0607
 9701SOL     OW30001   5.270   4.785   3.754  0.4033  0.1614 -0.0440
 9701SOL    HW130002   5.307   4.755   3.842  0.4259 -0.0447 -0.1233
 9701SOL    HW230003   5.227   4.708   3.708  0.1792  0.3220 -0.1065
 9702SOL     OW30004   4.766   0.202   1.359 -0.0268 -0.0736  0.3934
 9702SOL    HW130005   4.850   0.154   1.385 -0.4365 -0.9828  0.0643
 9702SOL    HW230006   4.732   0.165   1.273 -0.4604  0.6861  0.2304
 9703SOL     OW30007   4.813   6.666   5.464  0.1193 -0.5059  0.6936
 9703SOL    HW130008   4.862   6.704   5.386  1.4655 -0.6990  1.4155
 9703SOL    HW230009   4.740   6.729   5.491  1.0944  0.6740  0.6870
 9704SOL     OW30010   3.940   0.707   2.647 -0.3375 -0.5399  0.0749
 9704SOL    HW130011   3.926   0.670   2.739  0.0981 -1.9376 -0.3988
 9704SOL    HW230012   3.935   0.633   2.580 -0.3220  0.4089 -1.0061
 9705SOL     OW30013   3.694   3.981   6.600 -0.5456 -0.6310 -0.4427
 9705SOL    HW130014   3.735   4.022   6.681 -0.3032 -2.1704  0.2510
 9705SOL    HW230015   3.622   3.917   6.627 -1.6912  0.1499 -1.5389
 9706SOL     OW30016   1.959   0.989   1.410  0.2814  0.1086 -1.1369
 9706SOL    HW130017   1.939   0.892   1.396 -3.4307  0.8233 -1.9475
 9706SOL    HW230018   1.912   1.022   1.492  1.5251  1.2491 -0.8391
 9707SOL     OW30019   1.455   4.825   3.164  0.1820  0.1112  0.6778
 9707SOL    HW130020   1.444   4.918   3.200  1.2883 -0.4164  2.4865
 9707SOL    HW230021   1.474   4.762   3.239  0.5541 -1.4061 -0.6397
 9708SOL     OW30022   3.105   1.571   2.742 -0.5869 -0.8597  0.3340
 9708SOL    HW130023   3.147   1.550   2.654 -0.7358  2.4865 -0.6602
 9708SOL    HW230024   3.007   1.552   2.737 -0.7540  0.1147 -0.5873
 9709SOL     OW30025   0.519   5.939   3.427 -0.8090 -0.2160 -0.1381
 9709SOL    HW130026   0.426   5.904   3.442 -0.7410 -0.7666 -0.9245
 9709SOL    HW230027   0.585   5.880   3.474 -0.9044  0.7601  1.2897
 9710SOL     OW30028   0.861   1.541   2.055  0.5762  0.0415  0.4847
 9710SOL    HW130029   0.891   1.547   2.150  1.0002  2.0092  0.2832
 9710SOL    HW230030   0.825   1.630   2.026  1.1309 -0.3069 -1.4064
 9711SOL     OW30031   1.375   2.828   6.220  0.4284 -0.2835 -0.5213
 9711SOL    HW130032   1.472   2.831   6.241  0.5582 -0.5154 -1.0688
 9711SOL    HW230033   1.360   2.771   6.139 -0.2602 -1.0387  0.1158
 9712SOL     OW30034   4.715   1.854   6.575  0.4030  0.6310  0.0695
 9712SOL    HW130035   4.741   1.757   6.579  0.8282  0.7254 -0.3305
 9712SOL    HW230036   4.618   1.862   6.554  0.1620  0.2785  0.9965
 9713SOL     OW30037   1.520   4.402   1.157  0.2593  0.2040  0.3688
 9713SOL    HW130038   1.491   4.306   1.152  0.6232  0.1062  0.1091
 9713SOL    HW230039   1.579   4.415   1.236 -0.9712  0.5368  1.2596
 9714SOL     OW30040   3.799   1.454   0.665  0.1870 -0.1114  0.7362
 9714SOL    HW130041   3.761   1.374   0.712  1.0156 -0.5593  0.6694
 9714SOL    HW230042   3.806   1.530   0.729 -2.2950  0.5083  0.3734
 9715SOL     OW30043   5.808   4.272   5.350  0.0399  0.3218 -0.0849
 9715SOL    HW130044   5.787   4.177   5.328 -0.3090  0.4662 -0.3870
 9715SOL    HW230045   5.854   4.276   5.439 -0.0891 -0.1135  0.0053
 9716SOL     OW30046   4.526   2.637   5.851 -0.1908  0.1985  0.1885
 9716SOL    HW130047   4.456   2.639   5.923 -0.7722 -0.9761 -0.3060
 9716SOL    HW230048   4.484   2.663   5.764  0.6023  2.0192  0.3138
 9717SOL     OW30049   4.787   4.979   4.002 -0.5516 -0.3228 -0.0488
 9717SOL    HW130050   4.874   4.935   4.023 -1.6981 -2.6577  0.0753
 9717SOL    HW230051   4.747   4.939   3.920 -1.3431  0.9848 -0.3367
 9718SOL     OW30052   3.897   4.277   1.603 -0.3914 -0.1652 -0.5439
 9718SOL    HW130053   3.981   4.321   1.635 -0.0074 -1.1252 -0.1938
 9718SOL    HW230054   3.818   4.322   1.645 -0.1905  1.9093 -2.2447
 9719SOL     OW30055   0.977   3.038   1.182  0.2330  0.6528  0.3021
 9719SOL    HW130056   1.049   2.992   1.129 -0.6434 -0.2736 -0.1226
 9719SOL    HW230057   0.961   2.988   1.267  0.6153  1.3000  0.7629
 9720SOL     OW30058   0.692   5.751   3.564 -0.0890  0.0861  0.2833
 9720SOL    HW130059   0.670   5.661   3.603 -1.8962  1.2383  2.1299
 9720SOL    HW230060   0.763   5.795   3.618  0.9068 -0.2385 -0.7116
 9721SOL     OW30061   1.444   3.297   3.103  0.5133 -0.3820 -0.4691
 9721SOL    HW130062   1.426   3.393   3.121  1.4897  0.0195 -1.5002
 9721SOL    HW230063   1.484   3.254   3.184  0.8118  0.2762 -0.2658
 9722SOL     OW30064   6.873   0.855   2.791  0.2749  0.1056  0.1279
 9722SOL    HW130065   6.888   0.939   2.842 -1.6443 -0.7792  2.3062
 9722SOL    HW230066   6.838   0.877   2.700 -1.6757  1.6903  1.1928
 9723SOL     OW30067   0.975   5.029   2.437 -0.2183  0.2236 -0.0126
 9723SOL    HW130068   0.927   4.962   2.494 -0.5311  0.9059  0.5470
 9723SOL    HW230069   0.912   5.065   2.368  0.2051 -0.7205 -0.9183
 9724SOL     OW30070   3.207   3.836   1.491  0.2882  0.5163  0.1351
 9724SOL    HW130071   3.295   3.788   1.487  0.3293  0.6405 -0.6802
 9724SOL    HW230072   3.133   3.768   1.489  0.3233  0.4489 -1.9710
 9725SOL     OW30073   3.967   4.080   0.195  0.0711 -0.5503 -0.3981
 9725SOL    HW130074   4.014   4.062   0.281 -0.2213 -1.1857 -0.3702
 9725SOL    HW230075   3.871   4.102   0.213  0.7197  2.8072 -0.2553
 9726SOL     OW30076   4.152   1.723   3.286  0.0101 -0.1523  0.8489
 9726SOL    HW130077   4.113   1.709   3.196  2.5817 -0.4439 -0.3151
 9726SOL    HW230078   4.134   1.817   3.317 -1.8778 -0.3971  0.6158
 9727SOL     OW30079   0.869   1.841   6.943  0.6851  0.0368  0.0688
 9727SOL    HW130080   0.936   1.910   6.915  0.0726  1.0524  1.0158
 9727SOL    HW230081   0.847   1.854   7.040  1.2472 -2.0949  0.5349
 9728SOL     OW30082   1.086   5.209   6.097  0.2159 -0.0989  0.1418
 9728SOL    HW130083   1.062   5.210   6.193 -0.1940 -0.3074  0.0422
 9728SOL    HW230084   1.171   5.260   6.083  1.3531 -1.7099  0.8991
 9729SOL     OW30085   6.889   3.907   3.152  0.0768 -0.1543 -0.0967
 9729SOL    HW130086   6.952   3.871   3.083  0.2629 -0.4666  0.2305
 9729SOL    HW230087   6.842   3.831   3.196 -0.4448  0.0713 -0.2538
 9730SOL     OW30088   5.861   2.796   2.594 -0.1726 -0.0996  0.0804
 9730SOL    HW130089   5.762   2.812   2.591 -0.0107  1.3740  1.5187
 9730SOL    HW230090   5.901   2.849   2.668  1.9953  0.8475 -1.6565
 9731SOL     OW30091   3.834   5.010   6.589 -0.0822  0.4419 -0.4489
 9731SOL    HW130092   3.776   4.943   6.542 -0.1551  0.1370  0.0707
 9731SOL    HW230093   3.777   5.080   6.631  0.0022  0.9433 -1.1450
 9732SOL     OW30094   1.026   5.522   3.133  0.1145 -0.1761 -0.1808
 9732SOL    HW130095   1.019   5.611   3.089 -0.7225 -0.2382 -0.1965
 9732SOL    HW230096   1.089   5.464   3.081  0.0386  0.1397 -0.6296
 9733SOL     OW30097   5.768   4.271   3.988  0.1036  0.2554 -0.1679
 9733SOL    HW130098   5.675   4.235   3.984  0.6754 -1.4698  0.8186
 9733SOL    HW230099   5.767   4.361   4.032 -1.2902  1.1949 -2.0011
 9734SOL     OW30100   6.623   2.120   3.285  0.5215  0.0297 -0.0135
 9734SOL    HW130101   6.671   2.199   3.247  0.2626 -0.3821 -1.2359
 9734SOL    HW230102   6.663   2.096   3.373 -0.1310  2.2158  0.9444
 9735SOL     OW30103   2.438   4.989   2.594  0.5322 -0.2868  0.3694
 9735SOL    HW130104   2.420   4.898   2.555 -0.9095 -0.0503  0.4358
 9735SOL    HW230105   2.536   4.999   2.609  0.8293 -1.4376 -0.6081
 9736SOL     OW30106   0.062   2.516   0.257 -0.0110 -0.1184  0.2244
 9736SOL    HW130107   0.037   2.446   0.191  1.7072 -0.3859 -0.1666
 9736SOL    HW230108   0.052   2.606   0.215  1.0332 -0.2855 -0.4085
 9737SOL     OW30109   6.071   3.764   4.838 -0.1316 -0.5180  0.1028
 9737SOL    HW130110   6.107   3.840   4.783  0.2326  0.8897  2.1672
 9737SOL    HW230111   5.979   3.787   4.870 -0.7494 -1.7624 -0.7073
 9738SOL     OW30112   0.823   0.110   3.489  0.4396 -0.0392 -0.4471
 9738SOL    HW130113   0.840   0.203   3.457 -0.4393  0.3217  0.1079
 9738SOL    HW230114   0.731   0.082   3.460  1.0703 -1.1207 -1.4931
 9739SOL     OW30115   1.547   3.806   1.515 -0.2497 -0.0817  0.1192
 9739SOL    HW130116   1.633   3.803   1.462 -0.5296 -0.1083 -0.3431
 9739SOL    HW230117   1.483   3.867   1.469 -0.6701 -0.4803  0.1698
 9740SOL     OW30118   0.962   2.067   3.066  0.0756  0.7088 -0.4036
 9740SOL    HW130119   1.048   2.115   3.048  0.7385 -0.5103 -0.6469
 9740SOL    HW230120   0.938   2.076   3.162  1.3997 -0.3108  0.0655
 9741SOL     OW30121   3.392   6.490   2.013 -0.0915 -0.0594  0.5750
 9741SOL    HW130122   3.292   6.498   2.017 -0.0203  3.0735 -0.8641
 9741SOL    HW230123   3.431   6.505   2.103 -0.8692 -0.4144  0.9803
 9742SOL     OW30124   5.077   6.832   2.116  0.2399  0.2797  0.0497
 9742SOL    HW130125   5.058   6.789   2.204  0.2843 -0.9945 -0.5297
 9742SOL    HW230126   5.004   6.808   2.051 -0.7373  2.6469  0.1748
 9743SOL     OW30127   0.129   2.346   5.637 -0.0314  0.7919  0.2833
 9743SOL    HW130128   0.197   2.280   5.668 -0.1240  0.6795  0.2494
 9743SOL    HW230129   0.151   2.376   5.544 -0.5867 -0.0144 -0.1209
 9744SOL     OW30130   3.169   0.434   2.328 -0.0516 -0.2256  0.5874
 9744SOL    HW130131   3.152   0.446   2.230 -0.5588 -1.8790  0.4480
 9744SOL    HW230132   3.085   0.406   2.373 -0.2774  2.1641  1.8548
 9745SOL     OW30133   6.530   1.586   6.944 -0.5619  0.3417 -0.4877
 9745SOL    HW130134   6.483   1.498   6.948  0.6116 -0.3084 -0.5206
 9745SOL    HW230135   6.536   1.616   6.848  3.5562 -2.1489 -1.2484
 9746SOL     OW30136   6.175   0.567   4.560 -0.2877 -0.1231  0.0957
 9746SOL    HW130137   6.210   0.506   4.488 -0.3586  0.1778 -0.1931
 9746SOL    HW230138   6.202   0.661   4.540 -0.1115 -0.0662  0.5868
 9747SOL     OW30139   6.293   0.900   0.831 -0.1708  0.5955  0.1902
 9747SOL    HW130140   6.316   0.806   0.806 -0.4156  0.4612  0.4689
 9747SOL    HW230141   6.260   0.902   0.926  0.5832  1.0669  0.4564
 9748SOL     OW30142   1.870   5.856   3.947 -0.3947 -0.2825 -0.1682
 9748SOL    HW130143   1.909   5.764   3.941  0.9788  0.2427  0.1956
 9748SOL    HW230144   1.897   5.908   3.866  0.4160  0.3524  0.4878
 9749SOL     OW30145   1.208   0.736   0.733 -0.1990  0.4687  0.0475
 9749SOL    HW130146   1.211   0.735   0.633  1.3583 -2.0129  0.0284
 9749SOL    HW230147   1.143   0.667   0.765  0.7331 -0.1061  0.7334
 9750SOL     OW30148   6.841   5.084   3.211  0.1110  0.1536  0.2623
 9750SOL    HW130149   6.936   5.060   3.230 -0.5476 -2.1798  0.8468
 9750SOL    HW230150   6.792   5.005   3.176 -1.4641  1.5179 -0.7935
 9751SOL     OW30151   3.623   1.642   2.462 -0.3832  0.0632  0.8254
 9751SOL    HW130152   3.656   1.563   2.515  1.0734 -0.6327 -1.0008
 9751SOL    HW230153   3.619   1.722   2.522  0.7184 -0.7926  2.1199
 9752SOL     OW30154   4.826   5.561   6.298  0.8123  0.6069 -0.2081
 9752SOL    HW130155   4.767   5.491   6.339 -0.5349  1.2253 -1.0228
 9752SOL    HW230156   4.832   5.639   6.359 -0.6652  1.2592 -0.8497
 9753SOL     OW30157   6.499   4.281   4.167 -0.1150  0.1933  0.8592
 9753SOL    HW130158   6.493   4.326   4.077 -1.3125  0.4665  1.0536
 9753SOL    HW230159   6.491   4.182   4.155  1.5940  0.0546  0.5164
 9754SOL     OW30160   1.436   1.465   3.822  0.3213  0.0278  0.2482
 9754SOL    HW130161   1.472   1.558   3.821 -0.1192  0.2163  1.1774
 9754SOL    HW230162   1.508   1.402   3.852  1.2111 -0.2297 -2.1718
 9755SOL     OW30163   3.276   3.568   4.250  0.1535 -0.5085 -0.0304
 9755SOL    HW130164   3.370   3.535   4.240 -0.1411 -1.9495  1.5008
 9755SOL    HW230165   3.277   3.662   4.283  1.0273 -0.1048 -1.1306
 9756SOL     OW30166   0.045   4.524   5.988 -0.1768 -0.0890  0.6473
 9756SOL    HW130167   0.139   4.510   6.019 -0.6639  0.3902  2.4436
 9756SOL    HW230168   0.037   4.614   5.945  0.1697 -0.1116  0.5334
 9757SOL     OW30169   5.943   2.602   3.783 -0.5327 -0.4015 -0.9525
 9757SOL    HW130170   5.909   2.672   3.846  0.4769  0.8367 -1.7357
 9757SOL    HW230171   5.885   2.598   3.702  0.2208  0.5788 -1.5617
 9758SOL     OW30172   2.026   5.991   0.040 -0.8958  0.1269 -0.0311
 9758SOL    HW130173   2.030   6.084   0.075 -3.1177 -0.3746  1.7897
 9758SOL    HW230174   1.976   5.933   0.104 -0.2739 -2.1628 -1.4920
 9759SOL     OW30175   1.704   0.092   1.413 -0.6146 -0.4291 -0.1482
 9759SOL    HW130176   1.770   0.027   1.375  0.1010 -0.4869  1.1443
 9759SOL    HW230177   1.629   0.105   1.348 -0.6178 -2.2934 -0.5660
 9760SOL     OW30178   5.015   5.180   4.983 -0.5578  0.4152 -0.3368
 9760SOL    HW130179   5.093   5.241   4.973 -0.0710 -0.3188 -1.1734
 9760SOL    HW230180   5.047   5.085   4.986 -1.4558  0.0484 -1.5999
 9761SOL     OW30181   6.572   3.962   1.858 -0.2004 -0.7797 -0.1361
 9761SOL    HW130182   6.479   3.934   1.833  0.0927 -1.9024 -0.0401
 9761SOL    HW230183   6.599   4.040   1.803 -0.8887 -0.9865 -0.7893
 9762SOL     OW30184   2.009   3.154   5.974  0.7597 -0.3806 -0.0862
 9762SOL    HW130185   2.044   3.163   5.880 -1.2491  0.9288 -0.7812
 9762SOL    HW230186   2.026   3.240   6.023  0.5491 -0.5541  0.2884
 9763SOL     OW30187   5.259   2.441   2.152  0.3203 -0.4314 -0.4157
 9763SOL    HW130188   5.264   2.371   2.223  0.5613 -0.5022 -0.5028
 9763SOL    HW230189   5.237   2.530   2.193  1.0253 -0.3620 -0.1863
 9764SOL     OW30190   0.421   0.633   2.918  0.0635 -0.3716 -0.0242
 9764SOL    HW130191   0.330   0.674   2.922  1.5012  3.7016 -2.7337
 9764SOL    HW230192   0.433   0.587   2.830  0.5884 -1.0448  0.3908
 9765SOL     OW30193   0.251   1.694   5.354 -0.1078  0.3771  0.4358
 9765SOL    HW130194   0.214   1.762   5.417  2.8106  1.7440  0.8053
 9765SOL    HW230195   0.302   1.625   5.405 -0.1956 -0.1829 -0.2164
 9766SOL     OW30196   5.158   6.579   2.285 -0.8801 -0.2440 -0.6504
 9766SOL    HW130197   5.133   6.526   2.205 -0.2802 -0.1417 -0.9111
 9766SOL    HW230198   5.238   6.538   2.329 -1.2615 -0.3574 -0.0428
 9767SOL     OW30199   6.648   5.344   5.001  0.1560 -0.1941 -0.0860
 9767SOL    HW130200   6.693   5.267   5.048  1.6871  1.8412  1.9824
 9767SOL    HW230201   6.551   5.345   5.026 -0.4252 -2.5884 -1.8198
 9768SOL     OW30202   5.243   2.628   2.489  0.0838  0.2193 -0.2499
 9768SOL    HW130203   5.166   2.564   2.486  0.6538 -0.4480 -1.8935
 9768SOL    HW230204   5.328   2.577   2.500  0.4708  0.7653 -0.6670
 9769SOL     OW30205   1.910   3.456   1.062  0.3994  0.8172  0.3290
 9769SOL    HW130206   1.882   3.452   1.158 -0.1592  1.2529  0.1918
 9769SOL    HW230207   1.969   3.536   1.048 -1.2292  1.9883 -0.1020
 9770SOL     OW30208   6.510   4.929   0.440 -0.1950  0.4385 -0.3118
 9770SOL    HW130209   6.546   4.924   0.346 -1.2724  3.4036 -0.9836
 9770SOL    HW230210   6.410   4.928   0.437 -0.2497  1.3407  0.7183
 9771SOL     OW30211   5.579   6.365   6.750 -0.0527  0.0276  0.4126
 9771SOL    HW130212   5.671   6.326   6.746 -0.6613 -1.3830 -1.0669
 9771SOL    HW230213   5.572   6.442   6.688  0.2005  0.3232  0.7467
 9772SOL     OW30214   1.870   0.939   3.139  0.0039 -0.4607 -0.4695
 9772SOL    HW130215   1.892   0.841   3.135 -0.8315 -0.6991  0.3444
 9772SOL    HW230216   1.843   0.963   3.232 -0.2334  0.4532 -0.7634
 9773SOL     OW30217   6.661   5.826   4.450 -0.4965 -0.1296 -0.1445
 9773SOL    HW130218   6.597   5.781   4.513 -0.8955 -1.2213 -1.2846
 9773SOL    HW230219   6.628   5.816   4.356  1.3658 -0.7345 -0.7756
 9774SOL     OW30220   5.487   5.785   2.704  0.2209  0.1429 -0.6157
 9774SOL    HW130221   5.450   5.702   2.745  0.1739  0.5963  0.2837
 9774SOL    HW230222   5.502   5.854   2.775  1.0680  0.6095 -1.2251
 9775SOL     OW30223   2.648   1.720   6.469 -0.0709  0.2541 -0.2938
 9775SOL    HW130224   2.597   1.636   6.454  3.4887 -2.1730 -0.1973
 9775SOL    HW230225   2.694   1.715   6.558  0.1386  2.3878 -0.2365
 9776SOL     OW30226   5.589   5.021   3.637 -0.6250  0.0654  0.1187
 9776SOL    HW130227   5.615   4.964   3.560 -1.0776  0.7219 -0.5313
 9776SOL    HW230228   5.500   5.063   3.619 -0.7482  0.2101  1.0080
 9777SOL     OW30229   5.646   5.472   6.439 -0.6506 -0.1596  0.3019
 9777SOL    HW130230   5.694   5.435   6.360 -0.6225  1.9070 -0.7117
 9777SOL    HW230231   5.682   5.563   6.460 -1.7742 -0.0043  1.6962
 9778SOL     OW30232   4.366   0.708   3.005 -0.0524  0.1217  0.1688
 9778SOL    HW130233   4.357   0.807   3.017 -2.1788 -0.0663  0.3726
 9778SOL    HW230234   4.354   0.663   3.093 -2.7841 -0.5010 -0.4563
 9779SOL     OW30235   1.063   0.824   5.695  0.2506  0.1830  0.5748
 9779SOL    HW130236   1.145   0.843   5.642 -1.4622  1.9344 -1.6363
 9779SOL    HW230237   1.037   0.905   5.748  0.1944 -0.5224  1.6712
 9780SOL     OW30238   2.014   4.867   0.661  0.0267 -0.3251  0.0944
 9780SOL    HW130239   2.069   4.951   0.659 -0.1626 -0.2091 -1.7427
 9780SOL    HW230240   2.058   4.797   0.604 -1.7307 -0.1909 -1.5204
 9781SOL     OW30241   1.187   5.832   3.465  0.3946  0.1582  0.3094
 9781SOL    HW130242   1.158   5.772   3.391  0.2391 -0.8804  1.1914
 9781SOL    HW230243   1.167   5.789   3.553  0.0046  1.6231  0.9781
 9782SOL     OW30244   6.721   2.247   2.190  0.0702 -0.0212 -0.7108
 9782SOL    HW130245   6.667   2.323   2.154 -0.4430 -0.0479 -0.0054
 9782SOL    HW230246   6.662   2.169   2.209  0.3414 -0.0418  0.0888
 9783SOL     OW30247   6.822   1.299   1.600 -0.3872  0.5508  0.3278
 9783SOL    HW130248   6.757   1.284   1.525  0.9826 -0.3835 -0.7198
 9783SOL    HW230249   6.859   1.392   1.593  0.8431 -0.0214 -1.0857
 9784SOL     OW30250   4.495   6.854   1.744 -0.1837 -0.1694  0.4084
 9784SOL    HW130251   4.426   6.924   1.763 -0.1706 -0.2760  0.8542
 9784SOL    HW230252   4.454   6.764   1.747  0.5264 -0.4844  3.7233
 9785SOL     OW30253   6.562   3.458   2.275 -0.0028 -0.1316 -0.1577
 9785SOL    HW130254   6.651   3.415   2.289 -0.9447 -2.3536 -0.6039
 9785SOL    HW230255   6.555   3.540   2.331  2.8872  0.9829 -1.2678
 9786SOL     OW30256   2.330   4.133   6.476  0.3707  0.5778  0.0181
 9786SOL    HW130257   2.402   4.110   6.540 -0.0961 -1.3199 -0.0951
 9786SOL    HW230258   2.263   4.192   6.521  1.1741  1.0925  0.5749
 9787SOL     OW30259   6.431   4.912   1.481  0.1589  0.2595 -0.5357
 9787SOL    HW130260   6.525   4.887   1.458 -0.2109 -1.5230 -0.2785
 9787SOL    HW230261   6.374   4.830   1.481 -1.6489  1.4428 -1.7423
 9788SOL     OW30262   0.655   6.753   5.073 -0.3419 -0.1174  0.1153
 9788SOL    HW130263   0.586   6.721   5.138 -1.0261 -1.1084 -1.0683
 9788SOL    HW230264   0.746   6.733   5.109 -0.6250  1.0841  1.6331
 9789SOL     OW30265   2.336   6.583   3.518 -0.0438  0.6705  0.1954
 9789SOL    HW130266   2.392   6.662   3.542  0.9969 -0.4863  1.7043
 9789SOL    HW230267   2.317   6.529   3.600  0.2307 -1.2673 -0.9557
 9790SOL     OW30268   4.952   1.136   3.860  0.4840 -0.8634 -0.1425
 9790SOL    HW130269   4.927   1.162   3.766  2.6831 -1.4876 -0.9617
 9790SOL    HW230270   5.052   1.137   3.869  0.3015 -0.3866  2.3470
 9791SOL     OW30271   3.036   1.120   1.950 -0.4954  0.0197  0.3236
 9791SOL    HW130272   3.053   1.146   2.045 -2.0431 -0.0455  0.6467
 9791SOL    HW230273   3.103   1.052   1.921  0.5804  0.7511  1.0509
 9792SOL     OW30274   3.806   3.929   7.004 -0.5272 -0.2548  0.4522
 9792SOL    HW130275   3.747   3.856   7.039 -1.0989  0.2655  0.6179
 9792SOL    HW230276   3.873   3.954   7.074 -0.7852 -0.1516  0.6692
 9793SOL     OW30277   0.340   6.298   1.450  0.1448  0.4153 -0.1072
 9793SOL    HW130278   0.335   6.264   1.544  0.9906 -0.9931 -0.5371
 9793SOL    HW230279   0.251   6.331   1.421 -0.0374  1.2248  1.3112
 9794SOL     OW30280   4.561   4.472   6.008  0.1500 -0.0017 -0.3220
 9794SOL    HW130281   4.501   4.417   5.950  0.6777 -0.6576 -0.2596
 9794SOL    HW230282   4.625   4.412   6.056  1.6313  0.7679 -1.2668
 9795SOL     OW30283   1.180   2.818   3.543 -0.1735 -0.0626 -0.2329
 9795SOL    HW130284   1.209   2.913   3.533 -0.0393 -0.1839 -1.1569
 9795SOL    HW230285   1.082   2.811   3.523  0.2182 -0.4018 -2.2375
 9796SOL     OW30286   3.391   4.898   0.170 -0.1673  0.7899 -0.1174
 9796SOL    HW130287   3.455   4.967   0.202  0.9009 -0.1406 -0.2189
 9796SOL    HW230288   3.352   4.927   0.083  1.2821  0.6826 -0.8285
 9797SOL     OW30289   4.878   3.756   0.185 -0.3945 -0.5114  0.4124
 9797SOL    HW130290   4.846   3.786   0.274  0.1243 -1.3432  0.8962
 9797SOL    HW230291   4.821   3.795   0.113  1.1430  2.8880  0.8598
 9798SOL     OW30292   4.249   5.787   3.079  0.0695  0.1073  0.5368
 9798SOL    HW130293   4.280   5.804   2.985 -0.6356  0.0013  0.2725
 9798SOL    HW230294   4.323   5.748   3.132 -0.0494 -1.6242 -0.5003
 9799SOL     OW30295   2.875   2.963   1.762  0.0146  0.4151  0.1418
 9799SOL    HW130296   2.842   2.889   1.703 -1.3455  0.1869  1.1228
 9799SOL    HW230297   2.945   2.928   1.824 -0.3904  0.0098  0.3787
 9800SOL     OW30298   7.000   4.175   0.394 -0.0201  0.3472 -0.1160
 9800SOL    HW130299   7.059   4.098   0.418 -1.9062 -0.9249  0.6597
 9800SOL    HW230300   6.927   4.144   0.334 -1.5393  1.2295  1.1795
 9801SOL     OW30301   4.611   5.764   0.706  0.2602  0.0460 -0.0449
 9801SOL    HW130302   4.588   5.833   0.637 -1.2749  0.0514  0.4228
 9801SOL    HW230303   4.611   5.806   0.796  1.7398 -0.0712  0.0182
 9802SOL     OW30304   1.595   4.607   6.682 -0.3470 -0.0530 -0.1822
 9802SOL    HW130305   1.629   4.548   6.755 -1.6847 -1.1880 -0.4324
 9802SOL    HW230306   1.572   4.697   6.719  0.5153 -0.0926  0.4648
 9803SOL     OW30307   0.195   0.791   0.973  0.4681 -0.6881  0.1153
 9803SOL    HW130308   0.237   0.854   1.039  1.8037  0.3902 -1.6717
 9803SOL    HW230309   0.216   0.697   0.999  0.3710 -0.3258  1.5904
 9804SOL     OW30310   0.274   5.007   3.288  0.5750  0.5194 -0.8079
 9804SOL    HW130311   0.304   4.981   3.197 -1.6353 -1.3427 -1.0811
 9804SOL    HW230312   0.177   4.984   3.300  0.3608  2.1759  1.4846
 9805SOL     OW30313   0.574   6.599   6.393 -0.9195 -0.6824 -0.0169
 9805SOL    HW130314   0.474   6.596   6.395 -0.9883 -0.1413 -1.3573
 9805SOL    HW230315   0.607   6.525   6.334 -0.5174 -0.9315  0.5181
 9806SOL     OW30316   0.339   2.238   1.917  0.4489  0.0702 -0.3557
 9806SOL    HW130317   0.262   2.175   1.926 -0.6161  1.2847 -0.6335
 9806SOL    HW230318   0.366   2.245   1.821  1.6738 -1.2098 -0.1273
 9807SOL     OW30319   4.251   2.691   0.596  0.5203 -0.4303 -0.0371
 9807SOL    HW130320   4.343   2.671   0.629  0.7248  1.0695  0.3870
 9807SOL    HW230321   4.256   2.763   0.526 -0.3779  0.1391  0.4763
 9808SOL     OW30322   6.883   1.463   5.358 -0.2561  0.0930  0.2761
 9808SOL    HW130323   6.924   1.503   5.277  0.5902 -0.5509  0.3755
 9808SOL    HW230324   6.934   1.493   5.439 -2.0064  1.9861  0.7678
 9809SOL     OW30325   0.609   1.365   4.481  1.0066  0.3373 -0.4409
 9809SOL    HW130326   0.570   1.372   4.573 -1.4857  1.3403 -1.4837
 9809SOL    HW230327   0.683   1.297   4.481  0.3963 -0.4317  2.0546
 9810SOL     OW30328   2.891   2.220   2.573 -0.7945  0.2160 -0.1088
 9810SOL    HW130329   2.871   2.123   2.561 -0.3223  0.0441  0.4337
 9810SOL    HW230330   2.987   2.231   2.601 -0.2791  0.9643 -2.0438
 9811SOL     OW30331   0.696   6.139   1.910 -0.1029 -0.4264  0.1387
 9811SOL    HW130332   0.655   6.166   1.997 -0.4040  2.3351 -0.7674
 9811SOL    HW230333   0.623   6.118   1.845  0.0457 -0.2407 -0.0881
 9812SOL     OW30334   4.696   3.734   5.646 -0.1168  0.3789 -0.5822
 9812SOL    HW130335   4.657   3.783   5.568 -2.4959 -1.0576 -0.4223
 9812SOL    HW230336   4.667   3.638   5.642 -0.1767  0.2188  1.9573
 9813SOL     OW30337   5.961   5.857   6.680 -0.1331 -0.1537 -0.1863
 9813SOL    HW130338   6.026   5.810   6.620  0.8547  0.4509  0.3866
 9813SOL    HW230339   5.986   5.954   6.687 -1.5264  0.2573 -0.5263
 9814SOL     OW30340   6.436   1.017   5.917  0.1639 -0.0601  0.2379
 9814SOL    HW130341   6.512   0.978   5.865 -0.6877 -1.3291 -0.1090
 9814SOL    HW230342   6.388   1.085   5.861  0.2413 -0.2348 -0.0435
 9815SOL     OW30343   1.562   3.739   1.934  0.0793  0.1081 -0.1526
 9815SOL    HW130344   1.600   3.801   1.865  1.3759 -0.6842 -0.1815
 9815SOL    HW230345   1.636   3.704   1.991 -0.9552  0.7265  1.6477
 9816SOL     OW30346   0.599   0.288   6.524  0.4392  0.0439 -0.4481
 9816SOL    HW130347   0.501   0.285   6.540  0.4394  0.1828 -0.4196
 9816SOL    HW230348   0.641   0.358   6.582  0.5552 -0.0182 -0.4559
 9817SOL     OW30349   1.683   5.889   0.580  0.4405  0.0811  0.9029
 9817SOL    HW130350   1.636   5.806   0.608 -2.0473  1.6193  1.6379
 9817SOL    HW230351   1.746   5.918   0.652  0.6032 -0.6401  1.0553
 9818SOL     OW30352   3.120   1.112   4.914 -0.3663  0.9783  0.1567
 9818SOL    HW130353   3.111   1.171   4.834  2.6497  1.7141  0.2399
 9818SOL    HW230354   3.177   1.157   4.983 -0.0853 -1.0122  1.3196
 9819SOL     OW30355   6.163   3.398   0.271  0.0391  0.3809  0.4687
 9819SOL    HW130356   6.262   3.403   0.282  0.0614  0.1539  0.3810
 9819SOL    HW230357   6.122   3.487   0.292  0.2608  0.4747  0.5033
 9820SOL     OW30358   3.615   2.236   6.430 -0.0643  0.0958  0.1167
 9820SOL    HW130359   3.692   2.297   6.412 -0.2565 -0.0201 -1.1930
 9820SOL    HW230360   3.569   2.264   6.515  1.2624  0.3032  0.7886
 9821SOL     OW30361   5.185   2.255   1.964  0.2589  0.4815  0.2409
 9821SOL    HW130362   5.203   2.314   2.042 -0.7875 -0.1446  0.9847
 9821SOL    HW230363   5.129   2.304   1.897 -0.3182  0.4553  0.6997
 9822SOL     OW30364   2.397   4.492   5.959 -0.0996 -0.4332  0.1390
 9822SOL    HW130365   2.421   4.512   5.864 -1.2308 -2.3303 -0.6063
 9822SOL    HW230366   2.300   4.508   5.973  0.1666  0.4139  1.1856
 9823SOL     OW30367   2.397   1.198   3.411 -0.4826  0.2684  0.2508
 9823SOL    HW130368   2.389   1.295   3.434 -0.5588  0.4847 -0.6389
 9823SOL    HW230369   2.315   1.168   3.363  0.4259  0.3569 -1.4586
 9824SOL     OW30370   0.755   5.623   4.855 -0.1353 -0.0389 -0.3991
 9824SOL    HW130371   0.771   5.720   4.839 -0.2268 -0.1486 -1.1783
 9824SOL    HW230372   0.665   5.611   4.899  0.3835  0.3081  0.7952
 9825SOL     OW30373   4.037   6.902   4.822 -0.2142 -0.1664 -0.1325
 9825SOL    HW130374   4.083   6.915   4.910 -0.2951 -1.7880  0.1728
 9825SOL    HW230375   4.107   6.894   4.750 -0.1089 -0.0273 -0.0480
 9826SOL     OW30376   4.509   6.238   6.012  0.1751 -0.3762  0.1203
 9826SOL    HW130377   4.457   6.211   5.931 -2.8795  0.2677  1.6810
 9826SOL    HW230378   4.524   6.337   6.010  1.7007 -0.5932 -0.4505
 9827SOL     OW30379   1.811   5.567   0.721  0.3482 -0.0838 -0.4543
 9827SOL    HW130380   1.898   5.525   0.746  0.4618  1.0972  1.3138
 9827SOL    HW230381   1.742   5.546   0.790 -0.3348  0.3062 -0.9993
 9828SOL     OW30382   3.549   0.200   5.132  0.0827 -0.1150 -0.1775
 9828SOL    HW130383   3.603   0.271   5.178  2.3935 -1.9149  0.0627
 9828SOL    HW230384   3.553   0.214   5.033 -0.4344  0.7289 -0.0839
 9829SOL     OW30385   4.575   6.904   5.866  0.3110  0.0429  0.6236
 9829SOL    HW130386   4.524   6.903   5.952  1.2517 -0.5734  1.1982
 9829SOL    HW230387   4.542   6.978   5.808 -0.5329  0.2879  1.3972
 9830SOL     OW30388   5.301   2.125   1.288  0.0357 -0.1933  0.2852
 9830SOL    HW130389   5.216   2.073   1.288 -0.1421  0.0928  0.5936
 9830SOL    HW230390   5.326   2.148   1.194 -0.8980  0.8013  0.2602
 9831SOL     OW30391   1.644   6.749   2.608  0.6067 -0.1174 -0.1810
 9831SOL    HW130392   1.744   6.755   2.599  0.6691 -2.3439 -1.7637
 9831SOL    HW230393   1.621   6.691   2.686  0.5655 -0.1848 -0.2430
 9832SOL     OW30394   2.791   5.189   4.217 -0.2103  0.4013  0.0885
 9832SOL    HW130395   2.743   5.173   4.131 -3.2387 -0.9345  1.8582
 9832SOL    HW230396   2.855   5.114   4.235  1.0605  1.1006 -1.2869
 9833SOL     OW30397   4.421   4.803   6.417 -0.9757 -0.6524 -0.4814
 9833SOL    HW130398   4.503   4.854   6.443 -0.2149 -2.0605 -0.0161
 9833SOL    HW230399   4.445   4.706   6.404 -2.2260 -0.7875 -2.0544
 9834SOL     OW30400   1.021   5.385   2.692 -0.0261 -0.4713  0.0025
 9834SOL    HW130401   1.005   5.463   2.632 -2.4479  0.0587  1.2102
 9834SOL    HW230402   1.119   5.377   2.711  0.3059  2.2152 -0.2178
 9835SOL     OW30403   4.001   3.812   4.335 -0.0319  0.1914 -0.2317
 9835SOL    HW130404   3.994   3.821   4.236  1.4789 -0.1878 -0.3988
 9835SOL    HW230405   4.064   3.737   4.357 -0.7840 -0.1014  1.0172
 9836SOL     OW30406   6.906   3.276   5.035 -0.3336 -0.0383  0.1127
 9836SOL    HW130407   7.000   3.310   5.042 -0.5376  1.1319 -1.9686
 9836SOL    HW230408   6.903   3.181   5.065  1.8915 -0.6453 -1.3359
 9837SOL     OW30409   3.112   1.188   2.215  0.9844 -0.0441  0.1220
 9837SOL    HW130410   3.126   1.144   2.303  0.9384  1.0794  0.7111
 9837SOL    HW230411   3.087   1.284   2.229  0.8196  0.1123 -1.1088
 9838SOL     OW30412   5.824   0.545   1.581 -0.0869 -0.5705  0.3337
 9838SOL    HW130413   5.841   0.494   1.666 -0.0139 -0.1899  0.5508
 9838SOL    HW230414   5.727   0.570   1.577  0.1886  0.6963  1.0382
 9839SOL     OW30415   3.839   6.038   1.426  0.0441 -0.1502 -0.0441
 9839SOL    HW130416   3.840   5.938   1.422 -1.6939 -0.2278  0.6652
 9839SOL    HW230417   3.764   6.073   1.370 -2.1246  0.4732  3.0082
 9840SOL     OW30418   0.235   3.028   0.660 -0.3443 -0.2428 -0.5099
 9840SOL    HW130419   0.223   2.984   0.571  0.9297 -1.1375 -0.2709
 9840SOL    HW230420   0.224   2.960   0.733  0.7577 -0.0004 -0.0931
 9841SOL     OW30421   4.610   4.967   2.025  0.1643  0.2529 -0.2400
 9841SOL    HW130422   4.544   4.985   1.951 -1.3714 -3.0973  0.1198
 9841SOL    HW230423   4.565   4.982   2.113  0.4855 -0.2267  0.0074
 9842SOL     OW30424   3.075   3.898   6.198  0.5183 -0.0485 -0.4721
 9842SOL    HW130425   2.982   3.920   6.167  1.5321  1.4147 -2.8323
 9842SOL    HW230426   3.128   3.982   6.203  1.8084 -0.8969  0.5463
 9843SOL     OW30427   1.214   5.383   0.401  0.3981  0.2566  0.4503
 9843SOL    HW130428   1.184   5.355   0.310  0.1915  0.7057  0.3751
 9843SOL    HW230429   1.237   5.481   0.399 -0.2351  0.4177  1.0430
 9844SOL     OW30430   5.037   1.150   3.317 -0.0994 -0.2354  0.0894
 9844SOL    HW130431   4.947   1.191   3.304  0.6411  1.6454  0.4996
 9844SOL    HW230432   5.028   1.063   3.365 -1.5917  0.8443  1.9100
 9845SOL     OW30433   2.231   2.364   1.944  0.0052  0.7566  0.5797
 9845SOL    HW130434   2.175   2.283   1.962 -0.5894  0.1953 -2.9967
 9845SOL    HW230435   2.173   2.445   1.950 -0.7474  0.3728 -0.9009
 9846SOL     OW30436   5.665   1.704   2.338 -0.1457  0.0263  0.1609
 9846SOL    HW130437   5.749   1.739   2.379 -0.9429  1.8072  0.3812
 9846SOL    HW230438   5.684   1.670   2.246  0.4689  2.5495 -0.7137
 9847SOL     OW30439   5.195   4.204   2.629 -0.5121  0.4858 -1.0033
 9847SOL    HW130440   5.148   4.292   2.635  0.0552  0.7328  0.0764
 9847SOL    HW230441   5.223   4.187   2.535  1.4322  2.5862 -0.9023
 9848SOL     OW30442   4.121   4.245   5.537 -0.3292  0.1051 -0.2217
 9848SOL    HW130443   4.022   4.261   5.533 -0.6032 -1.6140 -1.7096
 9848SOL    HW230444   4.142   4.156   5.498  1.7456 -0.0045  0.9956
 9849SOL     OW30445   0.148   2.600   4.516  0.1925 -0.1123 -0.1436
 9849SOL    HW130446   0.058   2.631   4.485 -0.7910 -1.2718  1.4000
 9849SOL    HW230447   0.162   2.505   4.488  2.2388  0.8866 -2.9196
 9850SOL     OW30448   6.598   6.665   3.159 -0.2051  0.3851 -0.0188
 9850SOL    HW130449   6.617   6.640   3.064  2.7188 -2.3839  1.1024
 9850SOL    HW230450   6.502   6.648   3.179 -0.3563 -1.3396 -1.8690
 9851SOL     OW30451   2.408   6.070   5.307  0.1285 -0.4161  0.2055
 9851SOL    HW130452   2.437   5.988   5.357  1.8187 -0.2321 -0.3949
 9851SOL    HW230453   2.482   6.099   5.246 -0.5130  1.4566  0.2699
 9852SOL     OW30454   2.997   0.819   0.037  0.2687  0.0133  0.0063
 9852SOL    HW130455   3.054   0.877  -0.021  0.1025 -1.3684 -1.6009
 9852SOL    HW230456   3.048   0.737   0.062  0.3267  0.5504  1.8612
 9853SOL     OW30457   6.102   4.303   3.896 -0.1875  0.7284  0.0179
 9853SOL    HW130458   6.202   4.299   3.893 -0.2168  0.1492 -0.2751
 9853SOL    HW230459   6.066   4.222   3.942 -0.5698  0.2669 -1.0610
 9854SOL     OW30460   1.882   5.910   4.344 -0.7139 -0.7050 -0.1342
 9854SOL    HW130461   1.850   5.902   4.439  0.0296 -1.1288  0.0929
 9854SOL    HW230462   1.846   5.835   4.290 -2.4499  0.4006 -0.5972
 9855SOL     OW30463   2.717   5.157   3.031  0.4188 -0.3054  0.3777
 9855SOL    HW130464   2.664   5.239   3.051  1.3937  0.4583 -0.1073
 9855SOL    HW230465   2.795   5.181   2.973 -1.2107 -2.0662 -2.8126
 9856SOL     OW30466   6.628   3.721   2.979  0.2816 -0.4719  0.0499
 9856SOL    HW130467   6.585   3.638   3.016  1.6123 -0.9460  0.6180
 9856SOL    HW230468   6.563   3.797   2.983 -0.4797 -1.1390  0.9003
 9857SOL     OW30469   2.499   0.777   3.122 -0.7283  0.6432  0.5553
 9857SOL    HW130470   2.579   0.786   3.182  1.3778  1.3471 -2.1425
 9857SOL    HW230471   2.499   0.687   3.079 -0.3398  1.2569 -0.7760
 9858SOL     OW30472   1.171   0.443   3.620 -0.0188 -0.5784 -0.4079
 9858SOL    HW130473   1.071   0.450   3.620  0.0719  2.7484  0.8504
 9858SOL    HW230474   1.206   0.465   3.711  1.8947 -0.4535 -1.1296
 9859SOL     OW30475   6.858   4.349   4.379 -0.1433  0.6608  0.1690
 9859SOL    HW130476   6.935   4.379   4.323 -0.1929 -1.0583 -0.8977
 9859SOL    HW230477   6.778   4.405   4.358  0.7379  2.4760  1.2991
 9860SOL     OW30478   1.724   2.161   3.470 -0.8144  0.3849  0.1784
 9860SOL    HW130479   1.734   2.086   3.534  1.4065  1.5490  1.2861
 9860SOL    HW230480   1.703   2.125   3.379  2.5359 -1.8110  0.1294
 9861SOL     OW30481   3.799   0.632   3.204 -0.0828 -0.2148  0.0115
 9861SOL    HW130482   3.733   0.680   3.262 -0.9227  1.1532 -1.9526
 9861SOL    HW230483   3.891   0.664   3.225 -0.2099 -0.7598  1.4932
 9862SOL     OW30484   2.016   5.725   0.904  0.5483  0.6910 -0.3560
 9862SOL    HW130485   2.027   5.764   0.995  1.4458  0.6346 -0.4317
 9862SOL    HW230486   2.098   5.743   0.850  0.0459  0.6805 -1.1394
 9863SOL     OW30487   4.031   6.774   1.880  0.6722  0.2244  0.0586
 9863SOL    HW130488   4.017   6.848   1.946 -1.4721  0.4029 -0.5235
 9863SOL    HW230489   4.059   6.691   1.928  0.1259  0.6177  1.0781
 9864SOL     OW30490   1.061   5.655   5.423  0.1085 -0.2324  0.2027
 9864SOL    HW130491   1.151   5.694   5.404  0.7979 -1.8452  0.0595
 9864SOL    HW230492   1.031   5.599   5.345 -2.5380  2.8319 -1.2397
 9865SOL     OW30493   6.630   1.503   6.638 -0.5360  0.1728 -0.5209
 9865SOL    HW130494   6.647   1.600   6.619  0.3242  0.2035  0.3239
 9865SOL    HW230495   6.532   1.485   6.639 -0.7030  1.0479 -0.5981
 9866SOL     OW30496   5.873   4.705   3.431 -0.6300  0.5549  0.3379
 9866SOL    HW130497   5.895   4.682   3.526 -1.3472 -0.2510  0.3322
 9866SOL    HW230498   5.898   4.628   3.372  0.1893  1.2126 -0.1925
 9867SOL     OW30499   5.953   1.659   1.630 -0.5470  0.6201  0.5625
 9867SOL    HW130500   5.956   1.748   1.676  1.4629  1.0841 -0.3323
 9867SOL    HW230501   6.046   1.629   1.609 -1.1280 -2.0420  1.4024
 9868SOL     OW30502   1.553   5.304   3.276 -0.0848 -0.2882  0.4155
 9868SOL    HW130503   1.646   5.339   3.267 -0.0579  0.2899  2.5299
 9868SOL    HW230504   1.495   5.373   3.320 -1.6646 -0.4507 -1.3026
 9869SOL     OW30505   0.203   1.478   6.036  0.1803  0.4353  0.2277
 9869SOL    HW130506   0.242   1.459   6.127 -0.6836 -0.9244  0.3424
 9869SOL    HW230507   0.116   1.429   6.027 -0.5968  1.9294 -0.7093
 9870SOL     OW30508   3.783   2.642   1.251  0.0957  0.1928  0.1394
 9870SOL    HW130509   3.720   2.583   1.302  2.5547 -1.3181  1.6577
 9870SOL    HW230510   3.812   2.719   1.308  0.1334  0.5083 -0.2975
 9871SOL     OW30511   6.071   2.459   5.521 -0.4365  0.0776  0.5660
 9871SOL    HW130512   6.086   2.548   5.566 -0.8021  0.3886  0.0844
 9871SOL    HW230513   6.099   2.386   5.582  2.0972  0.5752  0.1136
 9872SOL     OW30514   0.226   3.909   5.228  0.2844  0.1643  0.1540
 9872SOL    HW130515   0.154   3.970   5.194  0.5953  1.1347  1.1780
 9872SOL    HW230516   0.308   3.920   5.171  0.0165 -0.0394 -0.2744
 9873SOL     OW30517   6.128   2.080   5.604  0.0460 -0.2145  0.1899
 9873SOL    HW130518   6.131   2.141   5.683  1.5343  1.6075 -1.1874
 9873SOL    HW230519   6.208   2.020   5.606 -0.6558 -1.1613  0.7687
 9874SOL     OW30520   5.757   2.330   5.411  0.2136 -0.1963 -0.0144
 9874SOL    HW130521   5.823   2.394   5.371  0.9176 -1.2774 -0.6471
 9874SOL    HW230522   5.737   2.257   5.345 -2.1164  0.4172 -0.0775
 9875SOL     OW30523   6.504   0.196   0.791 -0.2080 -0.4723 -0.1865
 9875SOL    HW130524   6.531   0.280   0.838 -0.0742 -0.9604  0.6229
 9875SOL    HW230525   6.491   0.215   0.693 -1.8224  0.8666  0.2425
 9876SOL     OW30526   1.650   1.496   3.101 -0.0620  0.3725  0.6099
 9876SOL    HW130527   1.570   1.536   3.057 -2.2759 -1.6296  2.5495
 9876SOL    HW230528   1.650   1.518   3.198  1.1655 -0.5187  0.8390
 9877SOL     OW30529   6.819   5.213   6.585  0.7586  0.5327  0.1632
 9877SOL    HW130530   6.777   5.191   6.497 -0.2794  1.7951  0.3139
 9877SOL    HW230531   6.762   5.177   6.659  1.4460 -0.2222  0.3405
 9878SOL     OW30532   2.385   3.382   0.367 -0.2378  0.2736  0.0351
 9878SOL    HW130533   2.402   3.441   0.446 -2.8483 -0.4365  1.2868
 9878SOL    HW230534   2.424   3.291   0.385  0.4604  0.5273 -0.1758
 9879SOL     OW30535   0.947   0.026   6.534  0.2869 -0.0366 -0.7202
 9879SOL    HW130536   0.848   0.027   6.551  0.3837  1.5637 -0.0416
 9879SOL    HW230537   0.978  -0.068   6.524 -1.2368 -0.5931 -0.5481
 9880SOL     OW30538   2.968   2.661   5.910  0.3952 -0.8136  0.3577
 9880SOL    HW130539   3.011   2.598   5.845 -0.6491  0.0536 -1.2518
 9880SOL    HW230540   2.911   2.726   5.860 -0.7746 -0.3447  2.2132
 9881SOL     OW30541   5.525   0.577   6.104 -0.0854 -0.0690 -0.2970
 9881SOL    HW130542   5.523   0.477   6.113  1.0795  0.0001  1.0737
 9881SOL    HW230543   5.619   0.609   6.108 -0.3214  0.9932 -2.3272
 9882SOL     OW30544   3.545   3.749   6.658 -0.3835 -0.1037  1.0198
 9882SOL    HW130545   3.540   3.652   6.635  0.3198  0.0651  0.0887
 9882SOL    HW230546   3.455   3.791   6.644 -0.8481 -0.7194  1.9980
 9883SOL     OW30547   1.690   6.994   1.088  0.3306 -0.1815 -0.5885
 9883SOL    HW130548   1.683   7.093   1.081 -2.8730 -0.2942 -0.5556
 9883SOL    HW230549   1.736   6.969   1.173  0.9620  1.2496 -0.4884
 9884SOL     OW30550   3.373   3.134   6.048  0.1553 -0.0752  0.0261
 9884SOL    HW130551   3.470   3.151   6.031 -0.6622  0.8115 -5.4868
 9884SOL    HW230552   3.320   3.214   6.019 -2.3865 -1.1613  1.3616
 9885SOL     OW30553   6.628   2.113   4.890 -0.0357  0.0826  0.7152
 9885SOL    HW130554   6.624   2.149   4.984  1.6134 -0.0109  0.8444
 9885SOL    HW230555   6.700   2.045   4.884  1.1259  1.3776 -1.0367
 9886SOL     OW30556   6.189   5.866   2.148  0.1003 -0.3205 -0.0970
 9886SOL    HW130557   6.205   5.770   2.126 -3.5974 -0.8872 -0.9589
 9886SOL    HW230558   6.199   5.879   2.247 -2.0695 -2.3328  0.4806
 9887SOL     OW30559   2.398   0.032   6.007  0.0793 -0.1970 -0.4586
 9887SOL    HW130560   2.463   0.063   6.076 -0.9023  1.1436 -0.0865
 9887SOL    HW230561   2.428   0.061   5.916  0.0068  0.4524 -0.2841
 9888SOL     OW30562   0.135   3.967   0.451  0.2621  0.1270  0.2049
 9888SOL    HW130563   0.101   3.875   0.471 -2.0891  0.5382 -1.4569
 9888SOL    HW230564   0.204   3.993   0.519  0.7028 -2.6760  0.9424
 9889SOL     OW30565   6.396   3.134   2.452  0.7544  0.1562 -0.1364
 9889SOL    HW130566   6.315   3.121   2.396  0.5968  2.8552 -0.7035
 9889SOL    HW230567   6.393   3.073   2.531 -0.7766 -1.2242 -1.2110
 9890SOL     OW30568   6.775   3.426   3.488  0.3430  0.3539  0.4438
 9890SOL    HW130569   6.834   3.433   3.408  0.4909  0.0874  0.5283
 9890SOL    HW230570   6.697   3.487   3.477  0.3745  0.3360  0.1049
 9891SOL     OW30571   6.626   3.332   6.968 -0.3301 -0.4406 -0.3628
 9891SOL    HW130572   6.556   3.382   6.917 -2.0230 -0.5548  1.7109
 9891SOL    HW230573   6.596   3.238   6.984 -0.0629 -0.3024  1.1560
 9892SOL     OW30574   2.759   5.468   3.940 -0.8880  0.2925 -0.8583
 9892SOL    HW130575   2.802   5.537   3.882 -0.2319  0.2091 -0.4840
 9892SOL    HW230576   2.827   5.430   4.003 -1.8268  1.3123  0.8701
 9893SOL     OW30577   3.538   5.611   2.981 -0.0734  0.2518  0.1325
 9893SOL    HW130578   3.472   5.543   3.013 -1.3078  1.2189 -0.2705
 9893SOL    HW230579   3.608   5.565   2.926 -1.6200 -0.5715 -1.2739
 9894SOL     OW30580   3.985   0.907   4.228 -0.7701  0.3058  0.7296
 9894SOL    HW130581   3.975   0.967   4.148  1.2588 -0.1662  0.0778
 9894SOL    HW230582   4.052   0.945   4.291  0.6776 -1.2850  0.2306
 9895SOL     OW30583   4.636   2.647   6.305  0.4494  0.1974 -0.1749
 9895SOL    HW130584   4.648   2.724   6.243 -0.3559  0.3363 -0.1676
 9895SOL    HW230585   4.719   2.591   6.305  1.5569  1.7641  0.8095
 9896SOL     OW30586   4.463   5.007   2.484  0.1209  0.0457  0.3872
 9896SOL    HW130587   4.481   4.936   2.551 -0.4858 -0.0401  0.4682
 9896SOL    HW230588   4.479   5.097   2.525 -0.3225 -0.0032  0.6763
 9897SOL     OW30589   5.901   1.944   3.214 -0.3628 -0.8282  0.0023
 9897SOL    HW130590   5.837   1.876   3.179 -0.2028 -1.5152  0.9806
 9897SOL    HW230591   5.991   1.903   3.224 -0.4116 -0.6937  1.2354
 9898SOL     OW30592   2.818   4.781   6.166 -0.8587  0.1304 -0.3836
 9898SOL    HW130593   2.778   4.862   6.208  0.0548  0.0421  0.7003
 9898SOL    HW230594   2.840   4.714   6.237 -0.1751 -0.4252 -1.1004
 9899SOL     OW30595   5.417   5.856   1.915  0.0522  0.4905  1.0716
 9899SOL    HW130596   5.442   5.868   1.819  0.9469 -1.5869  1.0096
 9899SOL    HW230597   5.327   5.812   1.920  0.3137 -0.0336  1.1725
 9900SOL     OW30598   0.803   1.576   4.407 -0.1697 -0.4374  0.6406
 9900SOL    HW130599   0.743   1.497   4.420 -0.0081 -0.2278  3.1286
 9900SOL    HW230600   0.879   1.571   4.472 -0.3815  1.9507  1.1559
 9901SOL     OW30601   1.673   2.368   5.390  0.2770 -0.3621  0.3209
 9901SOL    HW130602   1.683   2.302   5.465 -1.7600 -1.0588  0.0238
 9901SOL    HW230603   1.764   2.393   5.357  1.1887 -0.9067  2.2500
 9902SOL     OW30604   4.681   4.221   5.599 -0.1057 -0.1307  0.4322
 9902SOL    HW130605   4.643   4.200   5.508 -3.0838  1.9057  1.0460
 9902SOL    HW230606   4.659   4.146   5.662  1.3172 -1.2061 -0.2904
 9903SOL     OW30607   4.874   1.525   2.744 -0.4891 -0.6773 -0.0522
 9903SOL    HW130608   4.957   1.524   2.688 -0.6134  0.1742 -0.2746
 9903SOL    HW230609   4.899   1.526   2.841 -0.1717  1.0957 -0.1109
 9904SOL     OW30610   6.114   3.197   0.600  0.9329  0.3987 -0.6080
 9904SOL    HW130611   6.055   3.210   0.520  1.2322  1.5247 -0.6691
 9904SOL    HW230612   6.068   3.138   0.666 -0.3044  1.3175 -0.6116
 9905SOL     OW30613   3.082   0.301   5.449 -0.2509 -0.6852  0.3851
 9905SOL    HW130614   3.030   0.283   5.365  0.1228  0.9573 -0.2243
 9905SOL    HW230615   3.018   0.320   5.523 -0.6272  2.2283 -0.5645
 9906SOL     OW30616   2.828   2.828   0.280  0.6743  0.3709  0.4218
 9906SOL    HW130617   2.816   2.906   0.342 -1.0013  1.1889 -0.8230
 9906SOL    HW230618   2.784   2.849   0.192  0.7422 -1.7555 -0.1734
 9907SOL     OW30619   3.843   0.129   3.384 -0.4581  0.6778 -0.2119
 9907SOL    HW130620   3.765   0.100   3.440 -1.1341  1.3442 -0.7814
 9907SOL    HW230621   3.818   0.212   3.333  0.8989  1.3838  0.2210
 9908SOL     OW30622   1.397   3.964   4.385  0.1118 -0.3009 -0.4778
 9908SOL    HW130623   1.463   3.950   4.460  1.2566 -0.0292 -1.4044
 9908SOL    HW230624   1.310   3.920   4.408  1.0045 -1.7679  0.2328
 9909SOL     OW30625   3.342   1.785   2.977  0.0993 -0.0197 -0.3628
 9909SOL    HW130626   3.294   1.872   2.966  0.2868 -0.2376 -4.0111
 9909SOL    HW230627   3.277   1.709   2.965 -0.0320 -0.5189  2.6183
 9910SOL     OW30628   0.517   3.791   0.204  0.0506  0.8727 -0.6148
 9910SOL    HW130629   0.474   3.850   0.136 -0.1688  1.0712 -0.3061
 9910SOL    HW230630   0.616   3.795   0.194  0.0057  0.0337 -1.6578
 9911SOL     OW30631   4.491   4.518   3.404  0.1924  0.3593  0.5540
 9911SOL    HW130632   4.417   4.522   3.471 -1.5875 -1.0642 -1.1638
 9911SOL    HW230633   4.578   4.507   3.450 -0.7551  1.1625  2.6509
 9912SOL     OW30634   3.489   0.607   2.754  0.1401  0.0042 -0.0663
 9912SOL    HW130635   3.575   0.555   2.758  0.4330  0.5109  0.4479
 9912SOL    HW230636   3.414   0.546   2.732  0.4629 -0.6565  0.6230
 9913SOL     OW30637   4.820   0.956   2.535 -0.1831 -0.1460 -0.2326
 9913SOL    HW130638   4.825   1.021   2.610  0.5161 -0.8791  0.3754
 9913SOL    HW230639   4.901   0.897   2.536 -0.7439 -0.9501 -0.8333
 9914SOL     OW30640   2.138   0.786   4.543 -0.0628 -0.3881 -0.1998
 9914SOL    HW130641   2.225   0.836   4.543 -1.6924  2.7198 -0.8265
 9914SOL    HW230642   2.151   0.697   4.585  3.3046  0.1343  0.1594
 9915SOL     OW30643   5.203   3.053   5.128  0.2093  0.1204  0.0112
 9915SOL    HW130644   5.115   3.021   5.091  0.2070  0.1993 -0.0531
 9915SOL    HW230645   5.192   3.078   5.224  0.1976 -0.0162  0.0462
 9916SOL     OW30646   2.812   2.273   2.302 -0.5041 -0.1577  0.4125
 9916SOL    HW130647   2.876   2.267   2.379 -0.1832 -1.5734  0.0672
 9916SOL    HW230648   2.863   2.281   2.217 -0.7724 -1.1178  0.1482
 9917SOL     OW30649   2.696   4.560   6.044  0.9064  0.7354  0.3500
 9917SOL    HW130650   2.624   4.608   5.994 -0.1400  1.1430  2.1562
 9917SOL    HW230651   2.755   4.626   6.090 -0.6319  0.4762  2.9760
 9918SOL     OW30652   2.683   6.989   0.281  0.0016 -0.7618 -0.2272
 9918SOL    HW130653   2.604   7.050   0.290 -0.4823 -1.4891  0.5701
 9918SOL    HW230654   2.729   6.981   0.369 -0.6643 -2.4849 -0.0002
 9919SOL     OW30655   0.737   6.282   3.517 -0.1590  0.9073 -0.0215
 9919SOL    HW130656   0.765   6.253   3.426 -1.5150  1.1627 -0.5461
 9919SOL    HW230657   0.673   6.359   3.509 -2.0445 -0.4645  1.0051
 9920SOL     OW30658   4.252   6.520   1.095  0.2304 -0.3877 -0.2268
 9920SOL    HW130659   4.194   6.592   1.054  1.6333  2.0542  1.7740
 9920SOL    HW230660   4.206   6.483   1.176  0.5407  0.0111  0.1333
 9921SOL     OW30661   4.614   0.503   6.816 -0.2709 -0.0133 -0.0736
 9921SOL    HW130662   4.672   0.564   6.762  1.0909 -0.4298  0.8443
 9921SOL    HW230663   4.518   0.522   6.797  0.0579 -1.2381 -3.8695
 9922SOL     OW30664   2.698   5.584   6.391  0.2934  0.0972  0.3917
 9922SOL    HW130665   2.705   5.538   6.479 -0.0291  1.5304  1.1942
 9922SOL    HW230666   2.603   5.581   6.359  0.6598 -1.7691 -0.7081
 9923SOL     OW30667   6.526   2.251   5.900  0.4679  0.3760 -0.1946
 9923SOL    HW130668   6.495   2.212   5.986  0.0728  1.9179  0.3975
 9923SOL    HW230669   6.623   2.277   5.908  0.9285 -1.0525 -0.8148
 9924SOL     OW30670   5.803   1.523   2.880 -0.5589 -0.1288  0.0452
 9924SOL    HW130671   5.800   1.499   2.977  0.5791 -2.4443 -0.4076
 9924SOL    HW230672   5.739   1.465   2.830 -2.1192  1.9468 -0.5029
 9925SOL     OW30673   1.901   2.483   5.231 -0.2626 -0.3298 -0.2268
 9925SOL    HW130674   1.919   2.461   5.135 -0.5673 -0.6185 -0.2212
 9925SOL    HW230675   1.937   2.574   5.252 -1.3126  0.2867 -0.9533
 9926SOL     OW30676   2.360   0.661   2.767 -0.2792 -0.1764  0.1994
 9926SOL    HW130677   2.427   0.633   2.698 -0.3042  0.6123 -0.1535
 9926SOL    HW230678   2.279   0.698   2.721 -0.4982 -0.0950  0.6464
 9927SOL     OW30679   6.349   2.060   1.241 -0.3404 -0.3018 -0.3455
 9927SOL    HW130680   6.315   2.143   1.284  1.4142 -0.1561  0.8838
 9927SOL    HW230681   6.414   2.084   1.169  0.3368 -0.5968  0.1589
 9928SOL     OW30682   1.446   5.106   1.787  0.3697 -0.0300 -0.3279
 9928SOL    HW130683   1.400   5.162   1.855  1.0906  0.1358  0.0413
 9928SOL    HW230684   1.446   5.010   1.816 -2.8035 -0.6461 -2.0046
 9929SOL     OW30685   2.763   2.449   0.236 -0.6196 -0.4911  0.2852
 9929SOL    HW130686   2.663   2.439   0.240 -0.6269 -0.0524  1.4019
 9929SOL    HW230687   2.786   2.538   0.196 -0.6675 -0.5496  0.1235
 9930SOL     OW30688   0.666   1.559   5.640 -0.7541 -0.3853 -0.7823
 9930SOL    HW130689   0.716   1.634   5.683 -0.3945 -0.1206 -1.6420
 9930SOL    HW230690   0.652   1.486   5.706  0.4615 -0.3192 -0.4288
 9931SOL     OW30691   0.924   4.617   5.524 -0.3341 -0.2328  0.3881
 9931SOL    HW130692   0.929   4.541   5.589  1.0107 -2.8433 -2.4778
 9931SOL    HW230693   1.016   4.652   5.508 -0.6848  0.5545  0.0853
 9932SOL     OW30694   1.540   1.095   1.020  0.2956 -0.0974 -0.1056
 9932SOL    HW130695   1.544   1.082   0.921  0.8772 -1.5484  0.0794
 9932SOL    HW230696   1.449   1.125   1.047 -0.3504 -1.2536 -0.9307
 9933SOL     OW30697   4.034   1.310   3.391  0.2673 -0.2765 -0.1637
 9933SOL    HW130698   4.102   1.249   3.350  2.0041  0.6876  1.1563
 9933SOL    HW230699   3.961   1.327   3.325  1.2431 -1.4476 -1.6044
 9934SOL     OW30700   3.934   0.276   5.862  0.2636 -0.5305 -0.3352
 9934SOL    HW130701   4.008   0.237   5.918  0.3203 -0.4455 -0.3502
 9934SOL    HW230702   3.847   0.263   5.909  0.3718  0.0029  0.0222
 9935SOL     OW30703   2.525   1.745   1.012 -0.5602 -0.2226 -0.3324
 9935SOL    HW130704   2.539   1.663   1.068  0.9571  0.4336  0.3057
 9935SOL    HW230705   2.440   1.790   1.039 -1.0418 -1.1861 -0.1990
 9936SOL     OW30706   5.637   3.754   5.130 -0.0814 -0.4256  0.1642
 9936SOL    HW130707   5.544   3.725   5.154  0.5730 -1.9400  1.0518
 9936SOL    HW230708   5.698   3.675   5.136  1.2935  0.5816 -0.2622
 9937SOL     OW30709   1.129   6.167   3.383 -0.5286 -0.1837  0.6742
 9937SOL    HW130710   1.070   6.130   3.455  0.1778 -1.4888  0.6073
 9937SOL    HW230711   1.222   6.180   3.418 -0.7326  1.5843  0.6942
 9938SOL     OW30712   5.872   2.287   4.665  0.2206  0.3285  0.4191
 9938SOL    HW130713   5.965   2.294   4.627  0.3678  1.0735  0.9008
 9938SOL    HW230714   5.876   2.244   4.755  0.4871  3.0157  1.7707
 9939SOL     OW30715   2.048   4.789   1.480 -0.1261 -0.0506 -0.4870
 9939SOL    HW130716   2.047   4.777   1.381 -1.0791  1.8930 -0.7533
 9939SOL    HW230717   1.980   4.729   1.522 -2.7625  2.0775 -1.4639
 9940SOL     OW30718   1.494   0.387   2.646 -0.4885 -0.0027 -0.5843
 9940SOL    HW130719   1.436   0.330   2.704 -2.0424  0.8560 -1.2328
 9940SOL    HW230720   1.513   0.473   2.692  0.7890 -0.5003 -0.1388
 9941SOL     OW30721   5.421   5.975   5.950  0.1286 -0.6621  0.4234
 9941SOL    HW130722   5.413   6.006   6.045 -0.2895 -2.7537  1.1171
 9941SOL    HW230723   5.329   5.960   5.913  0.3220 -2.1987  0.5274
 9942SOL     OW30724   5.533   5.746   3.942  0.1856  0.1452 -1.0767
 9942SOL    HW130725   5.622   5.791   3.946  0.7390 -0.6216 -3.0935
 9942SOL    HW230726   5.471   5.788   4.007  2.4536 -0.3250  1.5889
 9943SOL     OW30727   2.577   4.427   6.775  0.2370  0.1760  0.4909
 9943SOL    HW130728   2.657   4.447   6.832  0.6865  1.8192 -0.6271
 9943SOL    HW230729   2.604   4.367   6.700  0.3436  0.4138  0.3371
 9944SOL     OW30730   1.592   4.236   6.168 -0.3363 -0.0746  0.0765
 9944SOL    HW130731   1.542   4.317   6.199 -0.6511  0.4363 -1.6845
 9944SOL    HW230732   1.690   4.257   6.161 -0.4821  0.3321 -0.8728
 9945SOL     OW30733   5.941   3.063   6.284  0.0281  0.5390 -0.7290
 9945SOL    HW130734   6.023   3.115   6.308 -0.8862  2.0323 -0.7222
 9945SOL    HW230735   5.909   3.092   6.194  0.1890 -0.9313 -1.2887
 9946SOL     OW30736   0.556   2.149   3.281 -0.5355 -0.1207 -0.1926
 9946SOL    HW130737   0.606   2.145   3.367 -0.1437 -1.3056 -0.4585
 9946SOL    HW230738   0.563   2.242   3.243 -1.0057  0.5111  1.1943
 9947SOL     OW30739   2.379   0.894   4.615  0.4614 -0.2076  0.6051
 9947SOL    HW130740   2.461   0.838   4.624  0.8158  0.4840  1.9077
 9947SOL    HW230741   2.397   0.986   4.649 -0.1255  0.7326 -1.4411
 9948SOL     OW30742   6.187   6.875   3.473 -0.1002  0.7490 -0.0524
 9948SOL    HW130743   6.250   6.886   3.550  0.0287  0.7541 -0.1577
 9948SOL    HW230744   6.127   6.954   3.467 -0.0269  0.8061 -0.0335
 9949SOL     OW30745   5.215   4.705   2.264  0.5954  0.0783  0.0169
 9949SOL    HW130746   5.284   4.748   2.207 -0.5954  0.0823 -1.4787
 9949SOL    HW230747   5.203   4.758   2.348 -1.4013  3.2557 -2.0858
 9950SOL     OW30748   5.189   5.951   5.817 -0.4734  0.4792  0.4178
 9950SOL    HW130749   5.109   6.007   5.838 -0.4193  0.9444 -0.5484
 9950SOL    HW230750   5.195   5.937   5.719  1.5386  1.8853  0.2624
 9951SOL     OW30751   0.199   3.029   1.242  0.6594 -0.1005  0.1337
 9951SOL    HW130752   0.286   3.072   1.266 -0.1848  1.1397  1.1008
 9951SOL    HW230753   0.123   3.089   1.269 -0.4993 -0.9413 -1.1142
 9952SOL     OW30754   1.911   5.223   2.668  0.1374 -0.3178  0.2609
 9952SOL    HW130755   1.994   5.216   2.725  1.0341  0.4288 -0.9005
 9952SOL    HW230756   1.934   5.271   2.583 -1.6499  0.4978  0.2059
 9953SOL     OW30757   0.407   1.956   3.889 -0.0130  0.1862  0.2187
 9953SOL    HW130758   0.440   2.048   3.865  1.5005  0.1803  2.0953
 9953SOL    HW230759   0.470   1.914   3.954 -1.4880 -1.6066  0.5537
 9954SOL     OW30760   2.912   2.354   5.219 -0.2672 -0.8466  0.4703
 9954SOL    HW130761   2.967   2.319   5.143 -1.0118  1.3985 -1.2271
 9954SOL    HW230762   2.972   2.375   5.296  0.4769 -3.4247  0.7034
 9955SOL     OW30763   6.803   1.945   1.581 -0.3599  0.3205 -0.3980
 9955SOL    HW130764   6.789   1.979   1.488  1.7771  0.6861 -0.6269
 9955SOL    HW230765   6.796   2.021   1.645 -1.1988  0.1778 -0.3106
 9956SOL     OW30766   1.661   3.647   2.964 -0.3097 -0.3019 -0.0455
 9956SOL    HW130767   1.723   3.666   2.888 -1.1188  0.0713 -0.6291
 9956SOL    HW230768   1.596   3.576   2.938  1.1096 -2.1500  1.2628
 9957SOL     OW30769   1.346   6.184   0.185  0.1693  0.4560  0.0184
 9957SOL    HW130770   1.368   6.104   0.129 -0.7668 -0.0311  0.3327
 9957SOL    HW230771   1.264   6.166   0.239 -1.3837  2.4014 -1.5125
 9958SOL     OW30772   5.715   3.810   1.084  0.0861  0.2847 -0.8010
 9958SOL    HW130773   5.735   3.877   1.013  0.1340 -0.7721 -1.8218
 9958SOL    HW230774   5.662   3.853   1.157  1.5511  1.8287 -0.5978
 9959SOL     OW30775   4.870   4.894   6.622  0.6949 -0.4598  0.1727
 9959SOL    HW130776   4.967   4.920   6.622  0.6809 -0.3756  1.0806
 9959SOL    HW230777   4.835   4.898   6.716  0.1512 -1.7834  0.0383
 9960SOL     OW30778   6.190   0.330   6.931 -0.0877  0.2803  0.6148
 9960SOL    HW130779   6.186   0.247   6.876  0.5492 -0.8523  2.2095
 9960SOL    HW230780   6.266   0.388   6.899  1.0064 -0.9002  1.0022
 9961SOL     OW30781   2.380   4.772   2.262  0.0747 -0.6688  0.0854
 9961SOL    HW130782   2.442   4.694   2.260 -1.4312 -1.8968 -0.2345
 9961SOL    HW230783   2.398   4.831   2.184  0.1759 -1.5386 -0.5601
 9962SOL     OW30784   2.482   6.388   0.818  0.4201  0.0461  0.5102
 9962SOL    HW130785   2.481   6.378   0.918  0.1213  0.1957  0.5220
 9962SOL    HW230786   2.463   6.299   0.776  0.1825  0.0594  0.5898
 9963SOL     OW30787   1.346   4.387   6.598 -0.3635  0.2633  0.2322
 9963SOL    HW130788   1.371   4.476   6.558 -0.9214  0.4808  0.3643
 9963SOL    HW230789   1.427   4.347   6.642  0.4483 -0.3275 -1.7209
 9964SOL     OW30790   6.562   4.764   4.114 -0.5824  0.2389  0.3419
 9964SOL    HW130791   6.464   4.769   4.136 -0.6083  0.2707  0.2208
 9964SOL    HW230792   6.606   4.849   4.141 -0.8546  0.8056 -0.8901
 9965SOL     OW30793   2.961   5.390   4.130  0.6331 -0.3545 -0.4277
 9965SOL    HW130794   2.917   5.312   4.175  0.1558 -1.6699 -2.9495
 9965SOL    HW230795   3.023   5.435   4.194  1.5657 -3.3203  0.9424
 9966SOL     OW30796   4.867   5.999   1.579  0.2243  0.4387 -0.1037
 9966SOL    HW130797   4.793   6.066   1.578  0.7347  1.0412  0.9393
 9966SOL    HW230798   4.844   5.924   1.641  0.4594  0.5879  0.1632
 9967SOL     OW30799   5.242   2.223   4.602  0.6677 -0.2003 -0.0996
 9967SOL    HW130800   5.235   2.194   4.698 -2.3811  0.0343 -0.1272
 9967SOL    HW230801   5.181   2.167   4.546 -2.3628  3.3905 -0.7951
 9968SOL     OW30802   3.914   5.782   6.866  0.4021 -0.2198  0.2764
 9968SOL    HW130803   3.955   5.691   6.861 -1.8319 -1.3347  0.7633
 9968SOL    HW230804   3.933   5.832   6.782  1.0911 -1.4115 -0.2936
 9969SOL     OW30805   6.827   4.057   3.698 -0.1690 -0.0789 -0.8077
 9969SOL    HW130806   6.781   4.041   3.610  1.5578 -2.2562 -1.4094
 9969SOL    HW230807   6.881   3.976   3.722  1.4009  1.4305  1.0394
 9970SOL     OW30808   5.467   3.148   0.599  0.5041  0.3945 -0.1520
 9970SOL    HW130809   5.550   3.095   0.620  0.8882  0.9717 -0.2018
 9970SOL    HW230810   5.434   3.122   0.508  0.7223  0.2824 -0.2015
 9971SOL     OW30811   0.415   4.127   3.631 -0.2657 -0.4427  0.0743
 9971SOL    HW130812   0.508   4.158   3.651 -0.2862  0.3031 -0.9185
 9971SOL    HW230813   0.370   4.100   3.716 -0.1532  2.0220  0.9951
 9972SOL     OW30814   2.752   2.293   1.450 -0.5676  0.1905 -0.2202
 9972SOL    HW130815   2.703   2.335   1.526 -1.7823 -0.9203 -0.3334
 9972SOL    HW230816   2.850   2.297   1.466 -0.8128 -0.7174  1.8024
 9973SOL     OW30817   5.399   1.879   1.916 -0.3358 -1.2051  0.3507
 9973SOL    HW130818   5.405   1.784   1.944  1.5280 -0.5115  2.5910
 9973SOL    HW230819   5.386   1.937   1.996 -0.8129  0.5035 -0.8996
 9974SOL     OW30820   1.921   2.495   2.960  0.7481 -0.1906 -0.7077
 9974SOL    HW130821   1.965   2.583   2.978  0.6133  0.1608 -1.9993
 9974SOL    HW230822   1.931   2.436   3.040  1.8245  0.5899 -0.2368
 9975SOL     OW30823   1.597   5.193   0.317  0.1131  0.1575  0.1913
 9975SOL    HW130824   1.505   5.212   0.282  0.6245  1.9046 -0.2960
 9975SOL    HW230825   1.636   5.114   0.269 -0.8334 -0.1253 -0.1267
 9976SOL     OW30826   2.766   4.102   6.888 -0.1935 -0.0645  0.8272
 9976SOL    HW130827   2.676   4.060   6.889 -1.1738  1.6376 -2.3443
 9976SOL    HW230828   2.836   4.031   6.879 -1.3658 -1.2576  0.8239
 9977SOL     OW30829   6.058   5.398   6.412  0.8171 -0.1797  0.4036
 9977SOL    HW130830   6.128   5.351   6.466  0.1095 -0.3570  1.1882
 9977SOL    HW230831   6.056   5.360   6.319  1.6211 -0.3048  0.4366
 9978SOL     OW30832   6.086   1.936   2.443 -0.3931  0.3045  0.2264
 9978SOL    HW130833   6.030   1.870   2.392  1.5238 -0.2835 -1.2570
 9978SOL    HW230834   6.043   1.955   2.531 -1.5887 -2.0942  0.2608
 9979SOL     OW30835   3.895   1.986   4.848 -0.0674 -0.2322  0.3165
 9979SOL    HW130836   3.898   2.039   4.933 -1.3427 -0.2169  0.3730
 9979SOL    HW230837   3.977   1.930   4.841 -0.7216 -1.5999  2.4572
 9980SOL     OW30838   1.245   2.020   2.376 -0.4474  0.6037  0.5052
 9980SOL    HW130839   1.146   2.034   2.377 -0.5447  0.2898 -1.2680
 9980SOL    HW230840   1.276   1.998   2.469 -2.0870  0.3332  1.0338
 9981SOL     OW30841   1.218   4.215   2.010 -0.3145  0.4170 -0.2198
 9981SOL    HW130842   1.171   4.140   2.056  1.4173 -0.7384 -0.2327
 9981SOL    HW230843   1.248   4.282   2.078  1.4625 -0.8427  0.3013
 9982SOL     OW30844   3.385   1.176   0.472  0.0697 -0.0263 -0.1424
 9982SOL    HW130845   3.362   1.104   0.407 -2.0839 -0.8452  1.4259
 9982SOL    HW230846   3.302   1.211   0.513  1.2344  1.9278  0.6884
 9983SOL     OW30847   5.888   4.180   1.873 -0.0947  1.0437 -0.3814
 9983SOL    HW130848   5.802   4.128   1.875 -0.4215  1.4793 -1.9746
 9983SOL    HW230849   5.944   4.150   1.796  2.1854 -0.6698  1.7517
 9984SOL     OW30850   0.684   0.060   6.605  0.1581 -0.2094 -0.2778
 9984SOL    HW130851   0.675   0.159   6.589  2.0839  0.2307  0.9749
 9984SOL    HW230852   0.593   0.019   6.611 -0.6898  1.5101 -0.6809
 9985SOL     OW30853   3.975   4.186   6.728  0.0856 -0.1303  0.3893
 9985SOL    HW130854   3.946   4.278   6.756  0.4063  0.2023 -0.3413
 9985SOL    HW230855   3.999   4.133   6.809 -1.7614 -0.1639  0.9717
 9986SOL     OW30856   6.331   4.449   1.369  0.6342 -0.0788  0.0634
 9986SOL    HW130857   6.419   4.491   1.391  1.2618 -0.8286 -0.9333
 9986SOL    HW230858   6.266   4.521   1.342  1.7795  0.2927 -1.9174
 9987SOL     OW30859   0.530   3.581   1.240 -0.1487  0.0090 -0.4465
 9987SOL    HW130860   0.475   3.527   1.303 -1.0610  2.4003  0.9156
 9987SOL    HW230861   0.478   3.659   1.208  1.2939  0.4199 -1.9558
 9988SOL     OW30862   5.663   6.716   3.769 -0.0617 -0.2039 -0.1557
 9988SOL    HW130863   5.584   6.762   3.810  0.9930  2.0744 -0.5301
 9988SOL    HW230864   5.684   6.634   3.821 -2.2886 -0.5452  0.3093
 9989SOL     OW30865   0.351   4.416   2.228 -0.8523 -0.3000 -0.0373
 9989SOL    HW130866   0.322   4.480   2.300 -2.3039  0.2414 -1.0594
 9989SOL    HW230867   0.273   4.394   2.170  0.6429  0.6645 -2.5557
 9990SOL     OW30868   1.081   0.518   3.116  0.6743 -0.5077  0.8202
 9990SOL    HW130869   1.053   0.423   3.100 -0.6746  0.1679 -1.2514
 9990SOL    HW230870   1.106   0.530   3.212  1.9734 -3.2024  0.8824
 9991SOL     OW30871   1.083   4.152   4.908 -0.3834  0.3306  0.4804
 9991SOL    HW130872   1.012   4.118   4.969 -1.9439  2.0778 -0.2492
 9991SOL    HW230873   1.055   4.240   4.869  2.0144  0.8940 -0.1898
 9992SOL     OW30874   3.780   4.706   1.202 -0.7792  0.0031  0.2977
 9992SOL    HW130875   3.710   4.758   1.251  0.7133  1.9155  0.5234
 9992SOL    HW230876   3.871   4.735   1.233  0.2013  0.2240 -2.4883
 9993SOL     OW30877   2.967   0.965   4.162 -0.1936 -0.2723  0.0137
 9993SOL    HW130878   2.916   0.879   4.151 -0.3958  0.1154 -2.7651
 9993SOL    HW230879   2.978   0.985   4.259 -2.2026 -2.2098  0.7201
 9994SOL     OW30880   5.694   2.514   6.854 -0.3239 -0.5975  0.0958
 9994SOL    HW130881   5.680   2.498   6.756  0.0936 -0.3663 -0.0030
 9994SOL    HW230882   5.606   2.520   6.899 -0.6711  2.5519 -0.7851
 9995SOL     OW30883   2.920   0.894   6.463  0.2148 -0.2788 -0.1700
 9995SOL    HW130884   2.871   0.971   6.422  0.4048 -0.0709 -0.0060
 9995SOL    HW230885   2.855   0.819   6.480  0.4357 -1.1163 -2.5808
 9996SOL     OW30886   2.723   4.966   2.666  0.2937 -0.4625 -0.3682
 9996SOL    HW130887   2.814   4.930   2.642 -0.3034 -1.0722 -1.8350
 9996SOL    HW230888   2.705   4.949   2.763  1.5062 -0.8553 -0.1902
 9997SOL     OW30889   5.967   1.955   3.860  0.3882  0.2486  0.1762
 9997SOL    HW130890   6.008   2.033   3.907  1.0184  0.2610 -0.3617
 9997SOL    HW230891   5.893   1.916   3.915  0.7857  0.5579  0.9375
 9998SOL     OW30892   4.331   4.097   1.649 -0.3230  0.8692  0.1783
 9998SOL    HW130893   4.335   3.998   1.665 -1.4373  0.4972 -1.5281
 9998SOL    HW230894   4.387   4.144   1.717 -0.4713 -0.8633  1.5781
 9999SOL     OW30895   0.549   0.282   3.945  0.3810 -0.5141  0.1678
 9999SOL    HW130896   0.636   0.270   3.896  0.5601 -0.5935  0.4989
 9999SOL    HW230897   0.482   0.218   3.909 -0.1085  0.7934 -1.3675
10000SOL     OW30898   4.059   0.852   2.390  0.2504  0.0448  0.4608
10000SOL    HW130899   4.031   0.786   2.460 -1.0312 -0.0338 -0.0967
10000SOL    HW230900   3.998   0.843   2.311  1.0339  0.8435 -0.2444
10001SOL     OW30901   3.411   5.797   3.119 -0.4554  0.1192 -0.0086
10001SOL    HW130902   3.480   5.739   3.075 -1.9567 -1.6779 -0.1527
10001SOL    HW230903   3.442   5.892   3.120  1.7459 -0.5368 -0.5490
10002SOL     OW30904   2.872   1.552   0.578  0.2552  0.2188 -0.6633
10002SOL    HW130905   2.954   1.607   0.595 -1.3886  2.4908  0.3798
10002SOL    HW230906   2.811   1.601   0.516 -1.1521 -0.5873  0.0382
10003SOL     OW30907   0.622   1.971   5.036  0.5163 -0.6404 -0.4291
10003SOL    HW130908   0.703   1.976   5.093  0.4882  1.2804 -0.4880
10003SOL    HW230909   0.638   2.021   4.951 -0.6879 -0.2806 -0.4668
10004SOL     OW30910   5.570   4.030   4.518 -0.0839 -0.0759  0.3193
10004SOL    HW130911   5.482   4.029   4.471  0.2386  0.2386 -0.3095
10004SOL    HW230912   5.565   4.091   4.598 -0.3331  0.2291  0.0727
10005SOL     OW30913   4.053   6.132   4.029 -1.0433  0.5163  0.7235
10005SOL    HW130914   4.122   6.161   4.096  2.6834  0.5140 -2.7594
10005SOL    HW230915   4.015   6.213   3.983 -0.6557  0.4007  0.1899
10006SOL     OW30916   4.940   3.244   5.264 -0.4220 -0.2360  0.6010
10006SOL    HW130917   5.014   3.206   5.319  0.6811 -1.0833 -1.3571
10006SOL    HW230918   4.870   3.283   5.324  0.7909 -0.9230  2.5501
10007SOL     OW30919   6.506   4.089   6.717  0.4393 -0.3265  0.5998
10007SOL    HW130920   6.485   4.074   6.621 -1.1473 -1.7880  1.1177
10007SOL    HW230921   6.601   4.065   6.735  0.9172  0.5240 -0.6894
10008SOL     OW30922   5.075   2.920   6.768 -0.0192 -0.1735 -0.0991
10008SOL    HW130923   5.060   3.018   6.751  0.1989  0.0792  1.1028
10008SOL    HW230924   4.989   2.870   6.758 -0.1478  0.1487 -0.6366
10009SOL     OW30925   0.454   4.427   2.789  0.0350  0.1729  0.9529
10009SOL    HW130926   0.488   4.373   2.711 -0.6777  1.1250 -0.0524
10009SOL    HW230927   0.363   4.462   2.768 -0.9691 -1.0455  2.9698
10010SOL     OW30928   2.650   5.120   6.821  0.3094  0.3982 -0.3533
10010SOL    HW130929   2.587   5.181   6.773  1.6569  1.6265 -0.6390
10010SOL    HW230930   2.739   5.122   6.775  0.7247 -0.8614  0.3625
10011SOL     OW30931   2.723   4.209   1.475  0.2949 -0.5826  0.1180
10011SOL    HW130932   2.764   4.213   1.383 -0.7628  0.5812 -0.3354
10011SOL    HW230933   2.721   4.301   1.514  0.9673 -1.1056  1.4355
10012SOL     OW30934   4.875   6.152   1.112 -0.3959  0.3187  0.1884
10012SOL    HW130935   4.811   6.076   1.109 -0.4299  0.3074  1.1476
10012SOL    HW230936   4.959   6.126   1.065 -1.2132  0.4733 -1.4292
10013SOL     OW30937   1.918   0.225   4.459 -0.1214 -0.0386  0.2592
10013SOL    HW130938   1.858   0.182   4.391 -0.7602  0.0776  0.7316
10013SOL    HW230939   2.013   0.221   4.428 -0.3309 -0.5645 -0.3340
10014SOL     OW30940   0.299   6.890   2.340  1.0569 -0.2226  0.4092
10014SOL    HW130941   0.327   6.846   2.425  1.7821 -1.0486 -0.2321
10014SOL    HW230942   0.201   6.879   2.327  1.3325 -2.5581 -0.1849
10015SOL     OW30943   3.044   4.719   5.977 -0.2331 -0.3538 -0.1641
10015SOL    HW130944   2.989   4.773   6.040  0.5803  0.2660  0.0397
10015SOL    HW230945   3.059   4.628   6.016  0.9662  0.2861  0.9807
10016SOL     OW30946   2.861   0.333   3.597  0.0281 -0.1890 -0.2634
10016SOL    HW130947   2.771   0.374   3.582 -0.4178 -1.5440 -1.5435
10016SOL    HW230948   2.900   0.304   3.509  2.3212  1.4972  0.0915
10017SOL     OW30949   1.665   2.354   2.989 -0.4676  0.5797 -0.1408
10017SOL    HW130950   1.658   2.336   2.891  0.8873  0.6732 -0.2693
10017SOL    HW230951   1.682   2.268   3.037  0.4969  0.7436 -0.1724
10018SOL     OW30952   4.534   4.526   6.835  0.0090  0.0966 -0.3439
10018SOL    HW130953   4.458   4.530   6.771 -2.2446  1.6880  2.2443
10018SOL    HW230954   4.555   4.618   6.869  1.3820 -0.6309  0.9244
10019SOL     OW30955   1.004   0.524   2.457  0.6408 -0.1897 -0.0155
10019SOL    HW130956   1.030   0.428   2.441  2.8915  0.1124  1.3325
10019SOL    HW230957   0.975   0.535   2.552 -1.1504  0.2159 -0.5703
10020SOL     OW30958   1.885   6.528   4.285 -0.1660  0.7566  0.5260
10020SOL    HW130959   1.940   6.480   4.216  0.0780  1.5527  0.1590
10020SOL    HW230960   1.946   6.580   4.345 -0.4485  0.8039  0.7716
10021SOL     OW30961   2.924   5.053   2.200 -0.5680  0.2807  0.2122
10021SOL    HW130962   2.969   4.983   2.255 -0.3281  0.9031  0.8232
10021SOL    HW230963   2.827   5.031   2.190 -0.0790 -1.3207 -1.5065
10022SOL     OW30964   1.444   6.388   6.936  0.6398 -0.2331  0.0522
10022SOL    HW130965   1.359   6.438   6.954  1.4468  0.6419  1.5931
10022SOL    HW230966   1.422   6.299   6.895 -1.0270 -0.0483  0.4818
10023SOL     OW30967   3.194   3.949   0.027 -0.6959  0.3908 -0.6000
10023SOL    HW130968   3.242   3.862   0.033  0.7170  1.1440 -0.2767
10023SOL    HW230969   3.255   4.018  -0.014 -2.1449  0.9835 -1.8687
10024SOL     OW30970   1.594   3.471   3.779 -0.5379 -0.1252  0.4975
10024SOL    HW130971   1.669   3.536   3.785 -0.3987 -0.1959 -0.4756
10024SOL    HW230972   1.511   3.518   3.747 -0.4496 -0.4150 -0.1612
10025SOL     OW30973   1.079   3.935   0.181  0.2905 -0.5142 -0.0654
10025SOL    HW130974   1.093   3.897   0.273  2.9475 -1.4344 -0.7485
10025SOL    HW230975   1.036   3.866   0.123 -2.1832  0.3549  0.6176
10026SOL     OW30976   3.521   0.855   2.477 -0.0639  0.1865  0.4849
10026SOL    HW130977   3.503   0.907   2.393 -0.5501  0.3901  0.7064
10026SOL    HW230978   3.576   0.774   2.456  0.3918  0.5996  0.0798
10027SOL     OW30979   0.915   2.622   4.593  0.0686  0.1739  0.1637
10027SOL    HW130980   0.955   2.632   4.502 -0.8282  1.9023 -0.0916
10027SOL    HW230981   0.823   2.584   4.584  0.3915 -0.7011  0.4627
10028SOL     OW30982   3.882   6.506   1.070 -0.5030  0.7667  0.2300
10028SOL    HW130983   3.861   6.583   1.131 -1.8055  1.0874 -0.5767
10028SOL    HW230984   3.809   6.497   1.002  0.5848  0.0137 -0.8845
10029SOL     OW30985   6.836   3.228   3.871  0.5630  0.2851 -0.8092
10029SOL    HW130986   6.919   3.172   3.869  0.3916 -0.0552  0.5900
10029SOL    HW230987   6.861   3.325   3.870  0.9327  0.1912 -1.3092
10030SOL     OW30988   1.998   6.751   4.417  0.5743 -0.0375  0.3982
10030SOL    HW130989   2.061   6.827   4.403  0.3551  0.0041 -0.4543
10030SOL    HW230990   2.041   6.682   4.475  0.8090  0.6860  1.0933
10031SOL     OW30991   5.520   6.859   3.519  0.3759 -0.2451 -0.6685
10031SOL    HW130992   5.570   6.943   3.499  0.8672 -0.5511 -0.7399
10031SOL    HW230993   5.573   6.804   3.584  0.5047 -0.9274 -1.3431
10032SOL     OW30994   4.298   5.462   0.618  0.5864  0.2439  0.6896
10032SOL    HW130995   4.304   5.548   0.567 -0.0341 -0.3521 -0.4496
10032SOL    HW230996   4.311   5.385   0.555 -0.5304 -0.5386  1.3600
10033SOL     OW30997   4.076   0.436   4.222  0.3010 -0.8267  0.6237
10033SOL    HW130998   4.126   0.408   4.304  1.2333 -2.1459 -0.3317
10033SOL    HW230999   3.990   0.479   4.248  0.8664 -0.6219  2.2865
10034SOL     OW31000   1.576   0.786   3.692  0.5432 -0.2005  0.2373
10034SOL    HW131001   1.631   0.795   3.609 -0.6900  4.5100 -0.3786
10034SOL    HW231002   1.479   0.783   3.668  0.0985  2.3505  1.3807
10035SOL     OW31003   5.187   3.007   0.843 -0.1645 -0.2451  0.1059
10035SOL    HW131004   5.122   3.056   0.901 -0.2643  0.2173 -0.3881
10035SOL    HW231005   5.269   2.985   0.896  0.4254  1.5745  0.0239
10036SOL     OW31006   6.943   0.762   0.635 -0.4342  0.4194 -0.0075
10036SOL    HW131007   6.873   0.830   0.656 -0.4490  1.4121 -2.9002
10036SOL    HW231008   6.929   0.681   0.693 -6.3228 -1.0284 -2.6846
10037SOL     OW31009   6.251   0.819   5.035  0.7998 -0.2719 -0.1380
10037SOL    HW131010   6.276   0.899   4.980  0.1297 -0.8518 -1.3429
10037SOL    HW231011   6.322   0.749   5.026  1.2510  0.0707  0.6898
10038SOL     OW31012   3.046   6.216   1.671  0.0947  0.0616  0.4712
10038SOL    HW131013   3.044   6.137   1.611 -0.6421 -0.0349  0.6120
10038SOL    HW231014   3.049   6.186   1.767 -1.6582  0.1603  0.5884
10039SOL     OW31015   6.132   4.893   3.073  0.2047  0.1131  0.1307
10039SOL    HW131016   6.101   4.958   3.003 -2.5739 -0.0132  1.1564
10039SOL    HW231017   6.084   4.910   3.158  3.3239  0.0873  2.0580
10040SOL     OW31018   3.842   7.019   6.874  0.1915 -0.3278  0.7132
10040SOL    HW131019   3.911   6.950   6.850  0.8407 -0.0508  1.7185
10040SOL    HW231020   3.803   7.057   6.791 -0.6207 -2.3384  0.1133
10041SOL     OW31021   6.542   6.056   6.371  0.4729  0.2798  0.2242
10041SOL    HW131022   6.525   5.984   6.439  2.4255  0.4522  0.9422
10041SOL    HW231023   6.472   6.050   6.300 -0.7288 -0.8963  1.4162
10042SOL     OW31024   0.871   3.625   6.501 -0.0822 -1.0449  0.3769
10042SOL    HW131025   0.921   3.539   6.509  0.0818 -0.9606  0.2515
10042SOL    HW231026   0.913   3.694   6.560  0.6159 -0.6632 -0.5442
10043SOL     OW31027   2.566   2.130   4.749 -0.1012 -0.2867  0.1415
10043SOL    HW131028   2.621   2.054   4.783  0.1118 -0.5918 -0.8555
10043SOL    HW231029   2.619   2.181   4.681 -0.6894  0.0058 -0.0988
10044SOL     OW31030   1.090   1.148   4.508 -0.1169  0.0879 -0.3373
10044SOL    HW131031   1.171   1.201   4.534  0.4447 -0.8687 -0.0465
10044SOL    HW231032   1.119   1.069   4.454 -1.0732  0.8344 -1.9962
10045SOL     OW31033   5.078   1.945   4.162  0.3822  0.3683  0.3084
10045SOL    HW131034   5.041   1.925   4.253  0.2248  0.8871  0.3602
10045SOL    HW231035   5.075   1.862   4.106  1.5286 -0.2565  1.1328
10046SOL     OW31036   2.095   1.058   1.173  0.4179 -0.4726 -0.0626
10046SOL    HW131037   2.071   1.094   1.263  0.1289 -0.2386 -0.2328
10046SOL    HW231038   2.191   1.080   1.153 -0.6088  3.4358 -1.6665
10047SOL     OW31039   5.743   2.828   4.135  0.2202 -0.1716  0.3467
10047SOL    HW131040   5.706   2.905   4.082 -1.9021 -1.8476 -0.7588
10047SOL    HW231041   5.667   2.775   4.173  1.5147 -2.9035 -0.6745
10048SOL     OW31042   2.930   0.114   2.633  0.4118 -0.2190  0.3863
10048SOL    HW131043   2.861   0.098   2.704  0.5813 -0.0480  0.5907
10048SOL    HW231044   2.907   0.198   2.583  0.1435 -0.4850  0.0585
10049SOL     OW31045   2.282   0.535   6.422  0.0769  0.3631  0.1716
10049SOL    HW131046   2.344   0.483   6.480  0.7928  0.9485 -0.0470
10049SOL    HW231047   2.197   0.484   6.409  1.3234 -1.4342 -1.2816
10050SOL     OW31048   5.125   2.827   3.394 -0.3540  0.3818 -0.2528
10050SOL    HW131049   5.079   2.762   3.333 -2.8903  0.8198  1.0487
10050SOL    HW231050   5.070   2.910   3.401  2.1196  2.1732 -0.7907
10051SOL     OW31051   0.468   2.825   4.400  0.3324  0.1335 -0.4142
10051SOL    HW131052   0.412   2.897   4.443  2.5875  1.8447 -0.1673
10051SOL    HW231053   0.490   2.756   4.468 -0.2886  0.1849 -0.1481
10052SOL     OW31054   3.378   4.057   1.424  0.5161  0.1823  0.4526
10052SOL    HW131055   3.308   3.987   1.441  1.5964 -1.7674 -2.3718
10052SOL    HW231056   3.467   4.022   1.451  1.0436  0.5506 -0.7622
10053SOL     OW31057   5.550   4.913   5.640  0.4975  0.4957 -0.3021
10053SOL    HW131058   5.484   4.843   5.611  1.2672  0.7302 -2.8844
10053SOL    HW231059   5.642   4.873   5.642  0.6643  0.8942  0.4434
10054SOL     OW31060   3.657   5.531   6.461 -0.6995 -0.2292  0.4010
10054SOL    HW131061   3.724   5.604   6.450 -1.8845  0.8911  0.3695
10054SOL    HW231062   3.657   5.499   6.555 -0.7406  0.3908  0.6134
10055SOL     OW31063   5.792   0.879   3.334  0.3436  0.2434 -0.4228
10055SOL    HW131064   5.774   0.902   3.239 -0.1432 -0.9944 -0.6358
10055SOL    HW231065   5.846   0.795   3.339  0.6032  0.4422  0.3964
10056SOL     OW31066   5.036   6.210   0.656 -0.5320 -0.2470  0.1298
10056SOL    HW131067   5.005   6.116   0.640 -0.2814 -0.5230  1.1669
10056SOL    HW231068   5.114   6.229   0.597  0.0312 -1.0403  0.5807
10057SOL     OW31069   6.088   1.089   4.604 -0.4866 -0.0737 -0.6071
10057SOL    HW131070   6.026   1.014   4.578  0.0372 -0.7135 -0.0553
10057SOL    HW231071   6.137   1.120   4.522 -1.3141  0.2528 -0.9975
10058SOL     OW31072   6.701   4.601   2.986  0.0226  0.5354  0.1124
10058SOL    HW131073   6.651   4.688   2.986 -0.2034  0.4189 -0.8041
10058SOL    HW231074   6.696   4.560   3.077  2.6092  2.8389  1.4485
10059SOL     OW31075   5.016   6.757   0.184  0.0912 -0.2231  0.2971
10059SOL    HW131076   5.034   6.855   0.185 -0.4496 -0.1105 -0.1136
10059SOL    HW231077   5.042   6.717   0.272 -0.0666  0.3585  0.6123
10060SOL     OW31078   2.511   2.065   2.867 -0.2818 -0.0604  0.2142
10060SOL    HW131079   2.605   2.076   2.898 -0.4249  1.4982  0.2239
10060SOL    HW231080   2.449   2.080   2.944 -0.6030  2.5986 -0.4426
10061SOL     OW31081   5.406   1.793   4.329 -0.4652 -0.0178 -0.4446
10061SOL    HW131082   5.316   1.836   4.329 -0.6389 -0.3514  0.7864
10061SOL    HW231083   5.401   1.702   4.370  0.3880 -0.1326 -0.5635
10062SOL     OW31084   6.800   6.709   2.729  0.3098 -0.1011  0.9805
10062SOL    HW131085   6.727   6.735   2.665 -0.5729  1.1303  2.4060
10062SOL    HW231086   6.759   6.676   2.814  1.4522 -0.8281  1.2667
10063SOL     OW31087   1.454   2.948   3.789 -0.0674  0.3224 -0.2754
10063SOL    HW131088   1.504   3.033   3.774  0.1799  0.2103 -0.0813
10063SOL    HW231089   1.509   2.885   3.843 -0.5931  0.3769  0.3393
10064SOL     OW31090   5.185   5.111   4.585  0.5095 -0.1484  0.1067
10064SOL    HW131091   5.100   5.140   4.629  0.8930  0.0410  0.7312
10064SOL    HW231092   5.214   5.179   4.518  0.2054 -0.1857 -0.0659
10065SOL     OW31093   1.287   5.499   0.017  0.1976 -0.0447 -0.0729
10065SOL    HW131094   1.379   5.525   0.047 -0.3617  0.1448  1.6074
10065SOL    HW231095   1.258   5.416   0.066 -0.8324  0.3674  0.0460
10066SOL     OW31096   6.020   1.023   4.304  0.1011  0.0126 -0.2927
10066SOL    HW131097   6.036   1.119   4.326  0.5824  0.3749 -2.0605
10066SOL    HW231098   6.105   0.981   4.272  0.0070 -1.1521  0.8811
10067SOL     OW31099   6.578   6.176   4.217  0.0544 -0.4313 -0.4573
10067SOL    HW131100   6.509   6.220   4.160  1.5998  0.8074 -1.4539
10067SOL    HW231101   6.626   6.245   4.271 -0.1423 -1.3880  1.0051
10068SOL     OW31102   5.991   3.063   2.560  0.2657 -0.0035 -0.2438
10068SOL    HW131103   6.064   2.995   2.553  0.1169 -0.4667  1.7959
10068SOL    HW231104   5.902   3.017   2.550  0.1743 -0.1215  0.8851
10069SOL     OW31105   2.888   6.313   2.668  0.1375 -0.5378  0.0989
10069SOL    HW131106   2.946   6.231   2.674 -1.6453 -2.0471 -1.7418
10069SOL    HW231107   2.843   6.327   2.756 -0.6269 -2.4625  0.0720
10070SOL     OW31108   0.496   6.483   4.844  0.1923  0.7026 -0.1629
10070SOL    HW131109   0.497   6.440   4.935  0.5402  1.6911  0.3146
10070SOL    HW231110   0.416   6.542   4.836 -1.0620 -1.0418 -1.3320
10071SOL     OW31111   4.118   4.820   4.191  0.0593 -0.2537  0.4061
10071SOL    HW131112   4.112   4.816   4.091  0.2054 -0.4072  0.4025
10071SOL    HW231113   4.213   4.840   4.217  0.2237 -1.1758  0.5401
10072SOL     OW31114   1.161   5.995   4.419  0.3181 -0.2270  0.0657
10072SOL    HW131115   1.251   6.028   4.449  0.7992 -1.3062 -0.1383
10072SOL    HW231116   1.090   6.040   4.473  0.9491  0.9169 -0.0124
10073SOL     OW31117   6.402   2.333   5.510 -0.1081  0.4267 -0.5816
10073SOL    HW131118   6.421   2.426   5.540  0.2146 -0.2093  1.3778
10073SOL    HW231119   6.383   2.276   5.590  1.2565 -1.5383 -1.5758
10074SOL     OW31120   1.610   1.422   4.942  0.5836 -0.8659  0.3754
10074SOL    HW131121   1.695   1.472   4.958 -0.3837  1.1200 -0.4321
10074SOL    HW231122   1.544   1.444   5.014  0.1650 -1.0313  0.0483
10075SOL     OW31123   0.935   2.617   1.686 -0.3497  0.0522 -0.7315
10075SOL    HW131124   0.968   2.693   1.630  0.9930 -1.2834 -1.8265
10075SOL    HW231125   0.978   2.620   1.776 -1.3138  1.3121 -0.2893
10076SOL     OW31126   5.876   3.382   4.498 -0.2546  0.4816  0.5180
10076SOL    HW131127   5.863   3.395   4.399 -1.2079  1.0054  0.7097
10076SOL    HW231128   5.935   3.455   4.533 -0.2065  0.4971  0.4072
10077SOL     OW31129   3.123   1.992   0.173 -0.0534  0.4221 -0.4659
10077SOL    HW131130   3.058   2.067   0.158  1.4828  1.4433 -2.5644
10077SOL    HW231131   3.189   1.991   0.099  1.6957 -1.2587  1.0267
10078SOL     OW31132   0.100   0.589   5.431 -0.0138 -0.7014 -0.4867
10078SOL    HW131133   0.180   0.551   5.384 -1.1570 -2.3381 -1.1969
10078SOL    HW231134   0.052   0.515   5.479 -1.6915  0.0446 -0.9554
10079SOL     OW31135   1.121   2.264   3.181  0.7304 -0.4743 -0.2055
10079SOL    HW131136   1.180   2.336   3.145 -0.1187 -0.2589 -1.2085
10079SOL    HW231137   1.177   2.192   3.223  1.5565  1.1743  1.6565
10080SOL     OW31138   1.710   2.645   0.599 -0.1510  0.1653 -0.0507
10080SOL    HW131139   1.622   2.691   0.606  0.0572  0.5343  0.2153
10080SOL    HW231140   1.732   2.628   0.502 -2.0896 -3.0670 -0.0577
10081SOL     OW31141   6.525   0.615   0.457  0.5060  0.4614  0.4238
10081SOL    HW131142   6.545   0.710   0.482 -1.7145  0.8925  0.7839
10081SOL    HW231143   6.571   0.593   0.371  1.9751  1.4678  0.9023
10082SOL     OW31144   0.609   3.413   1.021 -0.3945 -0.2768 -0.8956
10082SOL    HW131145   0.696   3.420   0.973 -1.5040  2.5370 -2.7040
10082SOL    HW231146   0.619   3.452   1.113  0.0851  0.8167 -1.3934
10083SOL     OW31147   3.617   0.871   3.934 -0.1022  0.4399 -0.9996
10083SOL    HW131148   3.602   0.940   3.863  0.3264  0.9483 -0.6061
10083SOL    HW231149   3.675   0.798   3.897 -0.0873  0.5787 -1.2539
10084SOL     OW31150   3.036   6.868   5.348 -0.7499  0.2020 -0.6206
10084SOL    HW131151   3.073   6.785   5.306 -1.5362  0.0325 -0.9990
10084SOL    HW231152   3.106   6.939   5.347  0.0492 -0.5406  0.0055
10085SOL     OW31153   0.514   3.353   3.353  0.7878 -0.2105  0.5249
10085SOL    HW131154   0.601   3.354   3.403  0.8645  0.2318  0.3936
10085SOL    HW231155   0.446   3.406   3.404  0.8859  0.2990  0.1359
10086SOL     OW31156   5.700   6.318   2.308  0.3249 -0.1901  0.5379
10086SOL    HW131157   5.789   6.359   2.288 -1.2149  2.3966 -1.7948
10086SOL    HW231158   5.663   6.359   2.392 -0.4519  2.2159 -0.8556
10087SOL     OW31159   6.305   1.426   3.693 -0.3087 -0.2415 -0.1674
10087SOL    HW131160   6.403   1.409   3.693 -0.2173  0.0675  1.7168
10087SOL    HW231161   6.272   1.434   3.599  1.7574  1.2494 -0.8248
10088SOL     OW31162   3.454   6.528   6.037 -0.4050 -0.3431 -0.0004
10088SOL    HW131163   3.398   6.475   5.973 -0.6694  1.4378 -1.3293
10088SOL    HW231164   3.437   6.626   6.023  1.6055  0.1898  0.9114
10089SOL     OW31165   2.203   0.578   3.947  0.0411  0.6297 -0.0201
10089SOL    HW131166   2.162   0.614   4.031  0.1828 -0.8856  0.7528
10089SOL    HW231167   2.238   0.486   3.965 -0.8983 -0.1849 -2.0340
10090SOL     OW31168   6.738   3.570   0.025 -0.1534  0.9796  0.2474
10090SOL    HW131169   6.715   3.645  -0.037  0.2279  0.0209 -1.0929
10090SOL    HW231170   6.727   3.483  -0.022  0.9036  0.2556  1.2792
10091SOL     OW31171   1.865   2.663   4.967 -0.1515  0.8485 -0.4299
10091SOL    HW131172   1.951   2.626   5.004 -0.2035  0.0761 -1.0634
10091SOL    HW231173   1.874   2.762   4.957  0.7617  0.7507 -0.7309
10092SOL     OW31174   1.807   3.323   4.890  0.1966 -0.1380 -0.0275
10092SOL    HW131175   1.883   3.363   4.940  0.3471  0.4601 -0.7278
10092SOL    HW231176   1.842   3.266   4.816 -0.0309  0.4497 -0.5952
10093SOL     OW31177   0.497   4.563   5.331  0.2280 -0.2697  0.1449
10093SOL    HW131178   0.575   4.600   5.280  2.2864 -1.1404  2.4478
10093SOL    HW231179   0.491   4.607   5.420 -0.2699 -2.0238  1.0352
10094SOL     OW31180   3.684   6.720   2.625 -0.4565  0.7748 -0.1606
10094SOL    HW131181   3.699   6.798   2.565 -0.5262  1.5107  0.7491
10094SOL    HW231182   3.713   6.636   2.579  0.0027  1.3787 -1.0012
10095SOL     OW31183   3.483   2.143   3.258  0.0973  0.0187  0.3604
10095SOL    HW131184   3.510   2.236   3.233  0.4419 -0.1195  0.2053
10095SOL    HW231185   3.388   2.128   3.232 -0.2255  0.6011  1.1446
10096SOL     OW31186   6.178   6.159   1.470 -0.3504 -0.4218 -0.3356
10096SOL    HW131187   6.220   6.248   1.456 -2.5527  0.8319  0.6486
10096SOL    HW231188   6.191   6.130   1.565 -0.5515 -0.6679 -0.3814
10097SOL     OW31189   6.623   0.488   6.874  0.2128  0.3376  0.2498
10097SOL    HW131190   6.668   0.557   6.817 -0.0975  0.1609 -0.2099
10097SOL    HW231191   6.556   0.533   6.933 -0.5437  0.3445 -0.6008
10098SOL     OW31192   1.942   0.004   6.622 -0.2843  0.1450 -0.0306
10098SOL    HW131193   1.868  -0.015   6.685 -1.0807 -0.3938 -1.0884
10098SOL    HW231194   1.908   0.057   6.545  0.8264  1.4485  0.3327
10099SOL     OW31195   5.446   3.201   6.939  0.1837 -0.3917  0.1543
10099SOL    HW131196   5.444   3.140   6.859  0.7291 -0.4050  0.1491
10099SOL    HW231197   5.535   3.194   6.984  0.6044  1.0967 -0.3837
10100SOL     OW31198   5.256   6.169   0.516 -0.0835  0.5804  0.8530
10100SOL    HW131199   5.347   6.198   0.489  0.2343 -0.4393  0.7879
10100SOL    HW231200   5.222   6.102   0.451 -0.9036  0.9757  0.8576
10101SOL     OW31201   6.945   3.693   1.121 -0.1680  0.2560  0.3552
10101SOL    HW131202   7.009   3.721   1.049 -1.7867  0.0920 -1.2257
10101SOL    HW231203   6.937   3.594   1.121 -0.0049  0.2388  0.9428
10102SOL     OW31204   4.372   5.986   4.859 -0.9881 -0.4197  0.5772
10102SOL    HW131205   4.395   5.903   4.808  0.7985  0.0575  0.5389
10102SOL    HW231206   4.351   6.060   4.796 -2.5989 -0.8182  0.6114
10103SOL     OW31207   3.381   6.248   4.574 -0.4513 -0.9028 -0.2758
10103SOL    HW131208   3.441   6.267   4.497 -0.2910 -2.1067 -0.4583
10103SOL    HW231209   3.370   6.149   4.585  0.1825 -0.7981  1.7261
10104SOL     OW31210   0.919   3.277   4.888 -0.8852  0.4400 -0.5744
10104SOL    HW131211   0.852   3.239   4.951 -0.0245 -0.8040 -0.3760
10104SOL    HW231212   0.982   3.336   4.939  0.0436 -0.8670 -0.1566
10105SOL     OW31213   0.868   1.500   6.297  0.0243  0.0508  0.0681
10105SOL    HW131214   0.882   1.440   6.219  0.2962  2.0376 -1.4755
10105SOL    HW231215   0.777   1.543   6.292  0.1351  0.3847  0.7035
10106SOL     OW31216   2.913   3.704   1.087 -0.2692 -0.3449 -0.7000
10106SOL    HW131217   2.925   3.744   0.997  1.2637  0.7382 -0.0570
10106SOL    HW231218   2.976   3.627   1.099 -0.7629 -0.7522 -0.7000
10107SOL     OW31219   5.657   1.289   5.081  0.2533  0.5742 -0.6004
10107SOL    HW131220   5.675   1.382   5.110  2.9992 -0.3291  0.9395
10107SOL    HW231221   5.741   1.235   5.087 -1.0042 -1.7687 -2.4224
10108SOL     OW31222   6.254   6.698   5.292 -0.1390  0.1794  0.4305
10108SOL    HW131223   6.320   6.642   5.242  1.5105  0.4399  2.1910
10108SOL    HW231224   6.164   6.654   5.291  0.8455 -1.9153  0.7787
10109SOL     OW31225   3.867   6.474   2.055 -0.9003 -0.4600  0.4237
10109SOL    HW131226   3.961   6.504   2.037 -0.7256 -1.1783  0.1007
10109SOL    HW231227   3.816   6.548   2.098 -0.8037  0.6636 -1.3070
10110SOL     OW31228   4.290   6.256   4.205 -0.5266  0.5730  0.2455
10110SOL    HW131229   4.364   6.318   4.179  1.2459 -1.5727 -0.1994
10110SOL    HW231230   4.244   6.291   4.287  0.6306  2.2358  0.2341
10111SOL     OW31231   5.884   2.397   2.490  0.0229 -0.2811 -0.3391
10111SOL    HW131232   5.810   2.415   2.555  1.5542 -0.6432  1.5945
10111SOL    HW231233   5.862   2.316   2.437 -0.2185 -1.4388  1.4459
10112SOL     OW31234   6.977   5.577   5.786 -0.4906  0.0484 -0.1541
10112SOL    HW131235   6.955   5.578   5.883  1.2558  0.2348  0.2721
10112SOL    HW231236   7.029   5.495   5.764 -2.9682 -1.2882 -1.4968
10113SOL     OW31237   2.718   0.452   1.376 -0.5106 -0.5459  0.2945
10113SOL    HW131238   2.650   0.522   1.395 -0.6286 -0.1870 -1.2927
10113SOL    HW231239   2.676   0.361   1.383 -1.2377 -0.3203 -0.8935
10114SOL     OW31240   5.946   6.735   1.621  0.1704 -0.1427 -0.1636
10114SOL    HW131241   5.893   6.657   1.654  1.1251  0.3791  2.9834
10114SOL    HW231242   6.037   6.703   1.592 -0.3371 -0.4936 -1.4040
10115SOL     OW31243   2.575   1.048   2.115  0.4761 -0.2313 -0.2231
10115SOL    HW131244   2.672   1.068   2.130  0.9663  0.2038 -3.3181
10115SOL    HW231245   2.563   0.950   2.097  0.8111  0.0814 -2.3988
10116SOL     OW31246   6.993   6.296   1.559  0.1440  0.0988  0.4580
10116SOL    HW131247   7.019   6.203   1.534  0.6879 -0.4130  2.6708
10116SOL    HW231248   7.036   6.320   1.646 -1.1756  1.8945  0.6700
10117SOL     OW31249   6.483   1.186   5.006  0.1545 -0.1442  0.8430
10117SOL    HW131250   6.388   1.162   4.991 -0.1558  0.6584  1.4800
10117SOL    HW231251   6.521   1.132   5.081 -0.0907  0.2483  1.2501
10118SOL     OW31252   0.065   4.133   4.670  0.0711  0.1017  0.4104
10118SOL    HW131253   0.025   4.142   4.579 -0.0933 -0.2066  0.4518
10118SOL    HW231254   0.156   4.176   4.671  1.0669 -1.8440 -0.5333
10119SOL     OW31255   3.899   0.121   4.764  0.0140 -0.2146 -0.1380
10119SOL    HW131256   3.807   0.116   4.724 -0.0799 -0.9242  0.1464
10119SOL    HW231257   3.943   0.031   4.756  0.8435  0.2204 -0.6398
10120SOL     OW31258   0.303   2.751   2.304 -0.5829  0.8302  0.4600
10120SOL    HW131259   0.211   2.757   2.342 -1.1595  1.2526 -0.9147
10120SOL    HW231260   0.325   2.655   2.286 -0.2883  0.6222  1.8191
10121SOL     OW31261   6.060   4.780   4.840  0.2551 -0.1816 -0.0295
10121SOL    HW131262   6.098   4.687   4.840 -0.9631 -0.7577  1.9465
10121SOL    HW231263   6.083   4.825   4.926 -0.5823  0.7073 -0.2527
10122SOL     OW31264   6.441   3.176   0.111 -0.0013 -0.1184 -0.3537
10122SOL    HW131265   6.447   3.128   0.199  1.3945  1.9206  0.7422
10122SOL    HW231266   6.378   3.127   0.051 -0.9198 -1.6501  1.7252
10123SOL     OW31267   4.081   6.449   6.484  0.0490 -0.0636 -0.0185
10123SOL    HW131268   4.041   6.458   6.393  0.9952  0.9953 -0.3470
10123SOL    HW231269   4.030   6.507   6.548  0.0866  0.0860 -0.1218
10124SOL     OW31270   1.878   2.908   0.756  0.0188 -0.2552 -0.2560
10124SOL    HW131271   1.876   3.007   0.774  0.5257 -0.0878 -1.0849
10124SOL    HW231272   1.806   2.863   0.810 -2.1948  0.9273 -2.0283
10125SOL     OW31273   3.142   0.314   1.231  0.3506 -0.1211 -0.0223
10125SOL    HW131274   3.103   0.324   1.140  0.1446  2.6089  0.2644
10125SOL    HW231275   3.099   0.381   1.292  4.2155  1.9486  0.7303
10126SOL     OW31276   6.446   5.981   4.597 -0.0147 -0.3480 -0.1427
10126SOL    HW131277   6.427   5.884   4.587  1.2815 -0.6916  0.4971
10126SOL    HW231278   6.482   6.017   4.511 -1.5422 -0.1470 -0.7309
10127SOL     OW31279   3.548   4.611   5.693 -0.1741  0.5395 -0.7319
10127SOL    HW131280   3.454   4.625   5.664 -1.0293  0.4144  1.7275
10127SOL    HW231281   3.597   4.556   5.625 -1.5460  1.4959 -2.5424
10128SOL     OW31282   0.622   1.421   0.727 -0.8872  0.4285  0.1222
10128SOL    HW131283   0.570   1.336   0.715  0.6628 -0.5093 -0.2739
10128SOL    HW231284   0.720   1.400   0.727 -0.4398  2.3005 -0.6844
10129SOL     OW31285   4.712   1.835   3.228 -0.4587 -0.5240 -0.2193
10129SOL    HW131286   4.737   1.912   3.288  0.0610 -0.3930 -0.5995
10129SOL    HW231287   4.623   1.800   3.256 -0.7041  0.2154 -0.0382
10130SOL     OW31288   0.594   5.419   0.843 -0.0344  0.1383  0.5190
10130SOL    HW131289   0.505   5.399   0.801  1.0095  1.2453 -2.5091
10130SOL    HW231290   0.590   5.506   0.892 -1.0418 -0.7321  2.0758
10131SOL     OW31291   6.903   0.566   2.676  0.4022 -0.2051  0.6301
10131SOL    HW131292   6.908   0.575   2.776  0.5391  1.2173  0.5243
10131SOL    HW231293   6.817   0.607   2.644  0.4859 -0.4149  0.1370
10132SOL     OW31294   3.122   5.825   3.105  0.7769 -0.1730  0.2479
10132SOL    HW131295   3.089   5.828   3.011 -0.7760 -1.8882  0.6834
10132SOL    HW231296   3.220   5.847   3.107  1.2888 -1.9548 -2.0041
10133SOL     OW31297   3.376   5.800   2.821 -0.0188 -0.3342  0.0040
10133SOL    HW131298   3.342   5.712   2.787  0.6131 -0.3950 -0.4963
10133SOL    HW231299   3.395   5.792   2.919 -0.9548 -0.4423  0.1838
10134SOL     OW31300   6.053   0.257   3.550  0.0299 -0.3917 -0.1679
10134SOL    HW131301   6.026   0.351   3.571 -0.5620 -0.9024  1.6016
10134SOL    HW231302   6.151   0.254   3.527  0.1887  0.5885  0.3439
10135SOL     OW31303   5.725   3.440   2.931  0.6986  0.2532 -0.3313
10135SOL    HW131304   5.786   3.515   2.904  0.4389  0.3436 -0.6686
10135SOL    HW231305   5.630   3.464   2.910  0.7819 -1.0721 -2.6458
10136SOL     OW31306   6.130   6.816   1.870  0.0240 -0.2316 -0.1133
10136SOL    HW131307   6.056   6.873   1.835 -0.5349 -1.0031 -0.2179
10136SOL    HW231308   6.092   6.733   1.911  0.8090 -0.4478  0.2073
10137SOL     OW31309   6.082   4.218   5.179 -0.2209 -0.5213 -0.2048
10137SOL    HW131310   6.074   4.126   5.218 -0.1129 -0.0349  1.0005
10137SOL    HW231311   5.999   4.270   5.198  0.0917 -0.0686 -0.0794
10138SOL     OW31312   3.569   3.210   6.608 -0.6526 -1.1855  0.6380
10138SOL    HW131313   3.573   3.132   6.546 -1.4117 -1.5350  1.0098
10138SOL    HW231314   3.473   3.227   6.633 -0.4895 -0.1462  0.5768
10139SOL     OW31315   3.894   2.664   1.673 -0.3529 -0.0347  0.0130
10139SOL    HW131316   3.807   2.632   1.711 -0.4643  0.6847  0.3744
10139SOL    HW231317   3.941   2.721   1.740  1.5690 -2.3722  0.7977
10140SOL     OW31318   5.631   0.978   5.880  0.1714 -0.4121 -0.0887
10140SOL    HW131319   5.681   0.929   5.952  1.7850  0.6745 -0.3910
10140SOL    HW231320   5.664   0.948   5.790  0.3645  0.3825 -0.2938
10141SOL     OW31321   2.613   0.832   5.516 -0.0660  0.2842  0.4084
10141SOL    HW131322   2.524   0.878   5.522 -0.4929 -0.3775 -0.5811
10141SOL    HW231323   2.612   0.751   5.576 -0.5389 -0.3393 -0.4156
10142SOL     OW31324   0.338   6.006   4.132  0.0496  0.0407 -0.3172
10142SOL    HW131325   0.320   5.908   4.124  1.8014 -0.2934 -0.5270
10142SOL    HW231326   0.364   6.028   4.226 -0.4503  0.3272 -0.2448
10143SOL     OW31327   5.312   6.523   3.058 -0.5556 -0.3497 -0.6089
10143SOL    HW131328   5.309   6.596   2.990  1.1750 -1.6157 -2.1432
10143SOL    HW231329   5.241   6.455   3.038 -0.4589 -0.4043 -0.7645
10144SOL     OW31330   3.414   5.835   6.689  0.3697  0.6292 -0.7506
10144SOL    HW131331   3.395   5.758   6.628 -1.2883  1.1899 -0.9923
10144SOL    HW231332   3.336   5.849   6.750  0.4864  2.3129 -0.9344
10145SOL     OW31333   2.924   5.933   4.909 -0.1243  0.4584 -0.2008
10145SOL    HW131334   2.947   5.928   5.006 -0.5098  0.6402 -0.0970
10145SOL    HW231335   3.007   5.922   4.855  0.2019  1.0437  0.1653
10146SOL     OW31336   2.316   4.312   5.100  0.0794 -0.6488  0.3773
10146SOL    HW131337   2.314   4.214   5.080 -1.0666 -0.5853  0.1414
10146SOL    HW231338   2.305   4.326   5.199  0.5654 -0.7600  0.4518
10147SOL     OW31339   5.687   5.578   3.313  0.0455 -0.0788  0.9510
10147SOL    HW131340   5.760   5.510   3.306  1.2259  1.0051  2.0255
10147SOL    HW231341   5.726   5.665   3.344 -1.2352  1.3955 -1.2889
10148SOL     OW31342   6.589   4.399   0.226  0.1983 -0.0076  0.2607
10148SOL    HW131343   6.596   4.305   0.193 -2.3094  0.1464 -0.9698
10148SOL    HW231344   6.588   4.462   0.148 -1.1345  0.7503  0.8406
10149SOL     OW31345   4.323   3.802   1.045 -0.0766 -0.1491 -0.0303
10149SOL    HW131346   4.410   3.752   1.052  0.5594 -0.1254 -4.8730
10149SOL    HW231347   4.248   3.737   1.031 -0.4285  0.0211  0.9200
10150SOL     OW31348   5.699   5.869   1.819  0.0311  0.1817 -0.7941
10150SOL    HW131349   5.784   5.892   1.772  1.2234  0.1283  1.2660
10150SOL    HW231350   5.710   5.878   1.917 -1.8419 -1.4780 -0.3510
10151SOL     OW31351   1.730   1.941   6.970 -0.1856 -0.2756  0.6675
10151SOL    HW131352   1.669   2.008   7.012  0.7123  0.7615  0.3710
10151SOL    HW231353   1.810   1.928   7.027 -0.1585 -0.7960  0.5169
10152SOL     OW31354   1.490   4.652   4.670 -0.2671  0.0721 -0.3059
10152SOL    HW131355   1.553   4.697   4.732  2.1887 -4.1062  0.5863
10152SOL    HW231356   1.476   4.709   4.589  0.1096  3.5926  1.9262
10153SOL     OW31357   4.969   4.641   2.426 -0.0601 -0.2698  0.0372
10153SOL    HW131358   4.901   4.668   2.358  0.6004  4.4295  0.8623
10153SOL    HW231359   5.060   4.642   2.384  0.1841  1.1307  0.5231
10154SOL     OW31360   6.859   0.596   5.911  0.1286 -0.3005  0.0717
10154SOL    HW131361   6.938   0.629   5.859 -0.6438 -0.2421 -1.1078
10154SOL    HW231362   6.838   0.503   5.882 -0.6810 -0.0477 -0.1798
10155SOL     OW31363   3.272   1.979   5.489  0.1029 -0.7840  0.1309
10155SOL    HW131364   3.269   2.050   5.419  0.6117 -0.4652  0.4225
10155SOL    HW231365   3.179   1.957   5.518 -0.1054 -0.8754 -0.5931
10156SOL     OW31366   1.793   1.000   1.717 -0.5747 -0.3490  0.3415
10156SOL    HW131367   1.705   0.959   1.742 -1.0147  0.6829  0.5337
10156SOL    HW231368   1.778   1.093   1.685  0.4063 -0.3320 -0.1041
10157SOL     OW31369   4.502   0.636   6.267  0.1656  0.0217  0.1338
10157SOL    HW131370   4.460   0.726   6.280 -1.0726 -0.4690 -0.3103
10157SOL    HW231371   4.538   0.630   6.173 -1.4024 -0.5757 -0.4544
10158SOL     OW31372   6.710   3.745   6.839  0.1631  0.9483  0.1822
10158SOL    HW131373   6.751   3.693   6.764 -1.3705 -0.1141  0.0250
10158SOL    HW231374   6.688   3.837   6.809 -2.2063 -0.0354 -1.3479
10159SOL     OW31375   0.883   2.932   6.499 -0.0887  0.0132 -0.6507
10159SOL    HW131376   0.897   2.843   6.543  2.7193  0.3426 -0.6519
10159SOL    HW231377   0.813   2.983   6.548  0.4954 -0.9896  1.3280
10160SOL     OW31378   2.090   3.138   2.319  0.4403  0.1623  0.0744
10160SOL    HW131379   2.140   3.053   2.334 -0.9314 -0.7047 -0.1384
10160SOL    HW231380   2.142   3.214   2.358  0.5889 -1.0491  2.3960
10161SOL     OW31381   2.379   3.892   1.401 -0.2103 -0.3482  0.6736
10161SOL    HW131382   2.419   3.860   1.487  0.8134 -0.1159  0.2909
10161SOL    HW231383   2.451   3.903   1.333 -1.2517 -2.7224 -0.9371
10162SOL     OW31384   1.698   6.573   0.259 -0.5192 -0.2902  0.0603
10162SOL    HW131385   1.696   6.608   0.352  0.5686  1.0662 -0.3928
10162SOL    HW231386   1.673   6.645   0.195 -0.1250 -0.8681 -0.7689
10163SOL     OW31387   5.693   3.745   0.248 -0.0826  0.5759  0.0706
10163SOL    HW131388   5.678   3.843   0.265  2.8164  0.9122  1.2762
10163SOL    HW231389   5.634   3.692   0.310 -0.1164  1.6162  0.9723
10164SOL     OW31390   6.520   4.645   5.737 -0.0166 -0.3071  0.1350
10164SOL    HW131391   6.559   4.617   5.825  0.9857 -0.1770 -0.2614
10164SOL    HW231392   6.552   4.737   5.715  0.1211 -0.5263 -0.5963
10165SOL     OW31393   1.214   1.436   3.649 -0.1327 -0.6407  0.4236
10165SOL    HW131394   1.291   1.446   3.712 -0.3118 -1.2799  0.7548
10165SOL    HW231395   1.130   1.425   3.701 -0.4191 -0.1941  0.0631
10166SOL     OW31396   4.659   0.606   0.536 -0.6605  0.7158  0.2860
10166SOL    HW131397   4.672   0.561   0.447 -0.3473  1.5821 -0.1145
10166SOL    HW231398   4.562   0.627   0.548 -1.2382 -2.1595  1.5284
10167SOL     OW31399   4.812   1.434   4.711 -0.0500  0.1749 -0.2357
10167SOL    HW131400   4.846   1.521   4.675 -0.6882  1.2453  1.6084
10167SOL    HW231401   4.796   1.370   4.636 -0.4729  1.9729 -1.7277
10168SOL     OW31402   6.935   2.815   4.214 -0.1680 -0.0174 -0.0797
10168SOL    HW131403   6.909   2.794   4.308 -1.3597  0.7236 -0.2084
10168SOL    HW231404   6.912   2.738   4.155 -0.1864 -0.1653  0.1200
10169SOL     OW31405   6.481   2.666   6.005  0.1014  0.5471  0.0873
10169SOL    HW131406   6.578   2.684   5.987 -0.1283  0.2255 -1.6079
10169SOL    HW231407   6.425   2.727   5.950 -0.6944  1.4194  1.8021
10170SOL     OW31408   0.541   3.008   6.013 -0.2723  0.1221  0.2122
10170SOL    HW131409   0.618   2.952   6.043 -0.1226  0.0467 -0.3078
10170SOL    HW231410   0.466   2.999   6.079  0.3433  0.5965  0.9970
10171SOL     OW31411   0.233   3.647   0.100 -0.5984 -0.0930  0.1498
10171SOL    HW131412   0.214   3.704   0.181 -1.6739  0.8700 -0.7474
10171SOL    HW231413   0.148   3.601   0.073 -0.0734 -0.9604 -0.0210
10172SOL     OW31414   6.069   1.181   1.952  0.4884  0.4495 -0.4750
10172SOL    HW131415   6.006   1.245   1.908  1.0585  1.5286  0.2110
10172SOL    HW231416   6.164   1.206   1.928  0.7139 -0.1665 -0.2314
10173SOL     OW31417   0.763   4.640   1.344  0.2935 -0.0127 -0.4879
10173SOL    HW131418   0.733   4.546   1.363 -1.1729  0.6733  0.8155
10173SOL    HW231419   0.826   4.670   1.415  1.4112 -0.2488 -1.3435
10174SOL     OW31420   5.999   4.408   1.704  0.0264 -0.5084 -0.2188
10174SOL    HW131421   5.932   4.431   1.775 -0.4816 -0.5686 -0.6744
10174SOL    HW231422   5.976   4.320   1.664  0.6703 -0.7632 -0.0406
10175SOL     OW31423   0.478   1.226   1.408  0.4139 -0.2325 -0.6720
10175SOL    HW131424   0.462   1.324   1.418  0.8880 -0.0584 -1.5172
10175SOL    HW231425   0.575   1.209   1.389  0.5822 -0.9782  0.7258
10176SOL     OW31426   0.381   3.995   5.456  0.4034  0.2114  0.5579
10176SOL    HW131427   0.337   3.938   5.387  0.4165  0.8339  0.0175
10176SOL    HW231428   0.462   4.039   5.416  1.4187 -0.7686  1.4841
10177SOL     OW31429   0.906   0.728   2.292 -0.6793  0.4933 -0.0496
10177SOL    HW131430   0.990   0.768   2.255  0.3661 -0.0902  1.5624
10177SOL    HW231431   0.926   0.637   2.329 -1.4557  1.2592  2.4776
10178SOL     OW31432   6.637   3.615   5.641 -0.0356  0.0851 -0.0834
10178SOL    HW131433   6.558   3.672   5.666 -0.7670 -0.9025 -0.1017
10178SOL    HW231434   6.716   3.674   5.623 -0.4860  1.0298  0.9363
10179SOL     OW31435   6.624   3.567   5.379 -0.3135  0.0516 -0.3018
10179SOL    HW131436   6.629   3.562   5.478  0.7877 -2.0027 -0.4126
10179SOL    HW231437   6.635   3.662   5.350 -1.2523  0.7655  1.5347
10180SOL     OW31438   3.660   5.470   6.779  0.2296 -0.0942  0.9126
10180SOL    HW131439   3.748   5.504   6.747  0.1278  0.4029  1.1523
10180SOL    HW231440   3.661   5.370   6.780  0.6207 -0.0980  0.4476
10181SOL     OW31441   5.173   3.242   2.545  0.4938  0.1253  0.0200
10181SOL    HW131442   5.236   3.296   2.489 -0.0074  2.1576  1.2933
10181SOL    HW231443   5.080   3.253   2.511  0.1432  1.6190  1.3214
10182SOL     OW31444   0.051   2.781   2.406  0.0492  0.9836  0.6287
10182SOL    HW131445  -0.016   2.774   2.332  0.0464  3.6747  0.2761
10182SOL    HW231446   0.003   2.803   2.491  0.3962  3.4956  0.2673
10183SOL     OW31447   1.098   0.962   0.517 -0.6077 -0.1586 -0.5568
10183SOL    HW131448   1.047   0.977   0.602 -1.3044  1.0857 -1.1656
10183SOL    HW231449   1.094   0.865   0.492 -0.2873 -0.5636  0.8756
10184SOL     OW31450   4.915   0.200   5.257  0.5669 -0.8801 -0.8805
10184SOL    HW131451   5.012   0.199   5.282  0.3529 -0.0232  0.0485
10184SOL    HW231452   4.860   0.166   5.334  0.1508 -1.7767 -1.5572
10185SOL     OW31453   6.611   4.846   1.060 -0.1370  0.2054 -0.3424
10185SOL    HW131454   6.575   4.784   1.129  0.8950 -2.2680 -1.9182
10185SOL    HW231455   6.711   4.843   1.062 -0.0764 -0.7404 -2.5829
10186SOL     OW31456   4.873   3.159   2.676  0.2514  0.4883 -0.3063
10186SOL    HW131457   4.892   3.231   2.610 -0.0202  0.9813  0.1491
10186SOL    HW231458   4.844   3.076   2.627 -0.5941  1.0463 -0.7785
10187SOL     OW31459   0.438   1.981   1.066  0.0670 -0.0859 -0.0792
10187SOL    HW131460   0.518   2.036   1.090  0.2299 -1.0311  1.7558
10187SOL    HW231461   0.466   1.886   1.053 -0.6198 -0.2436 -0.4360
10188SOL     OW31462   3.982   5.960   0.022 -0.0408  0.5299 -0.0715
10188SOL    HW131463   3.956   5.890  -0.045  0.8012 -0.2593  0.4009
10188SOL    HW231464   3.903   5.984   0.078 -0.3602 -0.0023 -0.2887
10189SOL     OW31465   0.592   0.805   6.209  0.4618  0.1848  0.1521
10189SOL    HW131466   0.592   0.856   6.123 -0.4244 -0.7893 -0.4420
10189SOL    HW231467   0.673   0.747   6.213  0.0283 -0.4802 -0.4735
10190SOL     OW31468   3.401   2.389   0.795  0.4152  0.0704 -0.3893
10190SOL    HW131469   3.340   2.310   0.790 -0.4057  0.6700 -0.0503
10190SOL    HW231470   3.440   2.396   0.886  2.2841 -1.2269 -1.0181
10191SOL     OW31471   6.413   5.622   6.730  0.4467  0.2626 -0.5157
10191SOL    HW131472   6.405   5.534   6.683 -2.0316  0.4424 -0.5480
10191SOL    HW231473   6.331   5.638   6.785  1.2899  2.1131  0.2919
10192SOL     OW31474   4.036   6.195   6.572  0.4780  0.5378 -0.2901
10192SOL    HW131475   4.081   6.177   6.659 -1.9915  1.8693  1.3798
10192SOL    HW231476   4.057   6.288   6.542  0.1722  0.5791 -0.3760
10193SOL     OW31477   2.980   3.498   2.701  0.5817 -0.0857 -0.0983
10193SOL    HW131478   3.077   3.479   2.689  0.3920 -0.9744 -0.3106
10193SOL    HW231479   2.950   3.562   2.630  1.0679  0.3982  0.1317
10194SOL     OW31480   6.093   4.678   5.935  0.0383  0.7290  0.4985
10194SOL    HW131481   6.007   4.628   5.948 -0.1158  0.5533 -1.0557
10194SOL    HW231482   6.103   4.703   5.839  1.0151  2.0855  0.9310
10195SOL     OW31483   0.364   3.320   1.027 -0.4006 -0.1057  0.3588
10195SOL    HW131484   0.457   3.357   1.027 -0.6012  0.4092  0.5256
10195SOL    HW231485   0.349   3.269   1.112 -0.3281 -0.0245  0.4218
10196SOL     OW31486   4.186   1.642   3.737 -0.5017 -0.3961 -0.3622
10196SOL    HW131487   4.111   1.577   3.749 -1.1274  0.3658 -0.0332
10196SOL    HW231488   4.159   1.714   3.673 -0.6306  0.7096  0.8935
10197SOL     OW31489   6.431   1.538   4.918  0.3168  0.3981  0.3063
10197SOL    HW131490   6.412   1.479   4.996 -1.0204 -0.3692 -0.5721
10197SOL    HW231491   6.518   1.512   4.877  0.1932 -0.3319  0.4932
10198SOL     OW31492   2.084   0.082   1.927  0.0754 -0.1887 -0.0153
10198SOL    HW131493   2.145   0.008   1.954  1.2112  1.5267  2.4540
10198SOL    HW231494   2.023   0.105   2.003 -1.8956 -0.0956 -1.5319
10199SOL     OW31495   1.043   2.369   6.371 -0.3251  0.1732  0.6484
10199SOL    HW131496   1.048   2.432   6.293  0.0274  0.6253  1.0314
10199SOL    HW231497   0.948   2.359   6.400 -0.6190 -0.9762 -0.6291
10200SOL     OW31498   5.913   0.310   0.365 -0.0312  0.5962 -0.0960
10200SOL    HW131499   5.966   0.226   0.351 -0.4755  0.5285 -1.5029
10200SOL    HW231500   5.953   0.384   0.311 -0.1468  1.0889  0.4815
10201SOL     OW31501   1.773   3.646   2.086  0.1440 -0.3995 -0.1536
10201SOL    HW131502   1.813   3.707   2.154 -1.1051 -0.8848  1.0619
10201SOL    HW231503   1.844   3.615   2.023  1.1508  0.7913  0.3502
10202SOL     OW31504   3.253   1.840   3.521 -0.6402 -0.7182  0.3613
10202SOL    HW131505   3.159   1.816   3.500 -0.7769  0.0993  0.0019
10202SOL    HW231506   3.280   1.920   3.467  0.1018 -0.6510  0.8186
10203SOL     OW31507   6.672   3.996   3.445  0.2988  0.0248 -0.5381
10203SOL    HW131508   6.765   4.025   3.423  0.9021  2.1042  3.6098
10203SOL    HW231509   6.607   4.060   3.405  0.8186  0.0191 -1.4129
10204SOL     OW31510   4.065   6.486   6.963  0.4116 -0.6773  0.0152
10204SOL    HW131511   4.014   6.434   7.032 -0.3795 -0.7516 -0.6124
10204SOL    HW231512   4.162   6.461   6.968  0.2294 -1.3357  0.5095
10205SOL     OW31513   2.376   1.108   1.144 -0.8446 -0.2288  0.0762
10205SOL    HW131514   2.426   1.022   1.153 -1.2371 -0.4396  0.2416
10205SOL    HW231515   2.423   1.165   1.076 -1.1357 -0.9781 -0.7840
10206SOL     OW31516   1.420   1.990   6.191 -0.1009 -0.5213  0.3514
10206SOL    HW131517   1.497   2.028   6.241  0.6618 -1.9964  0.3608
10206SOL    HW231518   1.334   2.026   6.229  0.5605  1.5771 -0.0391
10207SOL     OW31519   1.603   2.168   6.274  0.7481 -0.3798 -0.6885
10207SOL    HW131520   1.623   2.266   6.269  2.3292 -0.6642 -0.4860
10207SOL    HW231521   1.652   2.120   6.200  0.0684 -1.0240 -0.7302
10208SOL     OW31522   5.452   0.544   2.926 -0.3042  0.3090  0.1894
10208SOL    HW131523   5.474   0.588   3.012 -1.8496  0.7753  0.3752
10208SOL    HW231524   5.384   0.472   2.941 -0.7965  0.5778 -0.6743
10209SOL     OW31525   0.375   1.916   5.934 -0.1714 -0.3171  0.0426
10209SOL    HW131526   0.431   1.873   6.005  0.4099  1.2340  0.5635
10209SOL    HW231527   0.278   1.906   5.958  0.0112  0.1454  1.0529
10210SOL     OW31528   3.034   6.080   2.654 -0.1141  0.2953 -0.0605
10210SOL    HW131529   3.132   6.096   2.644 -0.3897  1.8557 -0.5941
10210SOL    HW231530   2.995   6.057   2.566 -0.4191  0.9178 -0.0925
10211SOL     OW31531   3.184   5.698   3.726 -0.0707  0.1208 -0.0611
10211SOL    HW131532   3.218   5.632   3.659 -0.1933 -0.0618  0.0530
10211SOL    HW231533   3.106   5.748   3.688  1.2508  1.6015 -0.8769
10212SOL     OW31534   0.615   1.796   4.373 -0.1092 -0.3605 -0.0254
10212SOL    HW131535   0.582   1.835   4.459  0.9666  0.0749  0.2062
10212SOL    HW231536   0.695   1.737   4.392  1.0793  0.9219 -0.8740
10213SOL     OW31537   5.474   2.550   1.928 -0.2331 -0.0429  0.8507
10213SOL    HW131538   5.469   2.604   1.844  1.6621 -0.3565  0.4931
10213SOL    HW231539   5.394   2.570   1.985 -0.9143  1.1252 -0.4472
10214SOL     OW31540   0.130   2.286   1.147 -0.2168 -0.1540 -0.2228
10214SOL    HW131541   0.060   2.271   1.217 -0.1488 -0.5594 -0.2386
10214SOL    HW231542   0.087   2.283   1.056 -0.1023 -0.9220 -0.2585
10215SOL     OW31543   3.794   3.647   2.897 -0.2967  0.0017 -0.1909
10215SOL    HW131544   3.770   3.622   2.803  0.8874 -1.3672 -0.1588
10215SOL    HW231545   3.772   3.744   2.912 -0.1902  0.3488 -1.9875
10216SOL     OW31546   5.394   0.455   7.012 -0.4251 -0.1372 -0.4964
10216SOL    HW131547   5.348   0.533   6.968 -0.0539 -0.0752 -0.7781
10216SOL    HW231548   5.418   0.387   6.942  1.9490  0.8444 -0.7253
10217SOL     OW31549   3.887   2.181   3.564  0.5830  0.3028  0.0967
10217SOL    HW131550   3.831   2.263   3.549 -0.0759  0.0710  1.1657
10217SOL    HW231551   3.909   2.140   3.476  0.0541  1.0588 -0.4056
10218SOL     OW31552   1.136   3.666   2.989 -0.3753  0.4814 -0.3050
10218SOL    HW131553   1.063   3.676   3.057 -0.7617 -0.8554 -0.4914
10218SOL    HW231554   1.117   3.587   2.931  1.2712  0.0427 -0.3042
10219SOL     OW31555   6.657   1.092   1.697  0.4207  0.0921  0.0154
10219SOL    HW131556   6.637   1.088   1.795 -0.4508  0.1442 -0.1443
10219SOL    HW231557   6.708   1.176   1.677 -2.4262  1.9788 -0.0174
10220SOL     OW31558   3.611   2.804   1.913 -0.2939 -0.0748 -0.0075
10220SOL    HW131559   3.619   2.878   1.979  2.4061 -0.2666  0.0198
10220SOL    HW231560   3.652   2.832   1.826  0.6925 -1.4333 -0.0259
10221SOL     OW31561   6.326   5.220   4.584  0.2112  0.4956 -0.3413
10221SOL    HW131562   6.259   5.227   4.658 -0.7796 -0.8760 -1.0653
10221SOL    HW231563   6.284   5.249   4.498  0.4788 -0.4914 -0.8282
10222SOL     OW31564   2.497   2.658   5.050  0.5214  0.7735  0.1717
10222SOL    HW131565   2.563   2.641   5.123 -1.3104 -1.4059  1.4549
10222SOL    HW231566   2.459   2.750   5.061  2.4461  1.6354  0.0743
10223SOL     OW31567   1.302   5.789   1.518  0.0056  0.0102  0.0643
10223SOL    HW131568   1.289   5.829   1.427 -0.6335  0.0005  0.1464
10223SOL    HW231569   1.260   5.847   1.587  0.2655 -0.1139  0.3314
10224SOL     OW31570   6.271   2.308   2.824 -0.3473 -0.0245 -0.3360
10224SOL    HW131571   6.227   2.363   2.753  0.2692  1.8818  0.7071
10224SOL    HW231572   6.371   2.316   2.816 -0.2599 -0.2656  0.3884
10225SOL     OW31573   2.607   3.291   5.345 -0.0626  0.4335 -0.2535
10225SOL    HW131574   2.582   3.197   5.323  0.9400 -0.4555  1.9891
10225SOL    HW231575   2.706   3.302   5.334  0.1069  0.6347  1.2576
10226SOL     OW31576   2.682   1.129   5.847  0.2790 -0.1271  0.4759
10226SOL    HW131577   2.746   1.070   5.799  0.3538  0.1670  0.2146
10226SOL    HW231578   2.729   1.176   5.922  0.3794  0.1315  0.2490
10227SOL     OW31579   6.496   3.495   6.793  0.5028 -0.1790  0.5439
10227SOL    HW131580   6.437   3.440   6.734  1.0793 -0.9578  0.6761
10227SOL    HW231581   6.521   3.579   6.745 -1.1306  0.4279  0.6971
10228SOL     OW31582   6.225   0.479   0.966  0.4780  0.2412 -0.4963
10228SOL    HW131583   6.159   0.545   1.003  0.3140  0.1033 -0.5376
10228SOL    HW231584   6.230   0.400   1.026  2.4550  1.3098  0.8467
10229SOL     OW31585   6.371   3.946   6.920 -0.5998  0.1386  0.1858
10229SOL    HW131586   6.422   3.998   6.851  2.5026 -1.4211  1.0861
10229SOL    HW231587   6.351   3.855   6.885  0.6536 -0.5292  1.1162
10230SOL     OW31588   6.684   5.201   3.404  0.0353 -0.4877  0.0568
10230SOL    HW131589   6.741   5.269   3.452  1.0713 -1.5959  0.4503
10230SOL    HW231590   6.740   5.153   3.336 -0.2231 -2.0660  0.9128
10231SOL     OW31591   1.877   6.085   5.066  0.5348 -0.3555  0.9295
10231SOL    HW131592   1.949   6.090   4.997  0.6580 -1.4399  0.9731
10231SOL    HW231593   1.788   6.098   5.022  0.5476 -1.8634  0.4189
10232SOL     OW31594   4.788   1.927   2.569  0.6234 -0.3474 -0.3498
10232SOL    HW131595   4.725   1.849   2.575  1.6296 -1.0966  0.7971
10232SOL    HW231596   4.817   1.938   2.474  0.4653 -1.3772 -0.5336
10233SOL     OW31597   5.916   2.550   6.145 -0.0384  0.4371  0.0159
10233SOL    HW131598   5.943   2.642   6.172 -1.4630  1.2068 -1.0675
10233SOL    HW231599   5.939   2.535   6.049  3.5487 -1.7244  1.0061
10234SOL     OW31600   4.978   5.822   2.162 -0.2538  0.5185 -0.5181
10234SOL    HW131601   4.915   5.770   2.220 -0.8876  0.9716 -0.7946
10234SOL    HW231602   5.070   5.817   2.201 -0.9704  2.3518  1.6188
10235SOL     OW31603   6.617   1.737   3.398  0.2053  0.3576  0.5442
10235SOL    HW131604   6.566   1.801   3.456 -0.7580 -1.4577  1.8051
10235SOL    HW231605   6.699   1.707   3.447 -0.9225 -1.6503  1.3486
10236SOL     OW31606   0.878   0.032   5.454  0.4086  0.0830  0.4999
10236SOL    HW131607   0.935   0.046   5.535  1.0331  1.9646 -0.2031
10236SOL    HW231608   0.924   0.071   5.374 -0.0734 -1.9244 -0.8408
10237SOL     OW31609   1.090   5.153   0.513 -0.3352  0.2955 -0.2633
10237SOL    HW131610   1.110   5.139   0.610 -1.1673  1.7474  0.1415
10237SOL    HW231611   1.116   5.245   0.485  0.5914 -0.3398 -1.6359
10238SOL     OW31612   2.443   5.793   0.732  0.2127 -0.0348 -0.6374
10238SOL    HW131613   2.400   5.806   0.643 -1.5785 -1.2754  0.0033
10238SOL    HW231614   2.398   5.719   0.781  0.6737  1.0667  1.6012
10239SOL     OW31615   1.723   3.747   5.886 -0.0401 -0.0719  0.0865
10239SOL    HW131616   1.754   3.656   5.913  1.0331  0.1482 -0.3570
10239SOL    HW231617   1.759   3.815   5.950 -0.5310  0.0732  0.2068
10240SOL     OW31618   0.786   4.903   3.092 -0.3040  0.5206  0.2101
10240SOL    HW131619   0.823   4.811   3.074 -0.3494  0.7497 -1.1836
10240SOL    HW231620   0.686   4.898   3.095 -0.3788  0.7293 -1.2917
10241SOL     OW31621   4.939   6.858   0.797  0.3251  0.1325  0.0553
10241SOL    HW131622   5.001   6.930   0.764 -1.2957  0.2744 -2.9639
10241SOL    HW231623   4.990   6.797   0.858  3.0067  1.1426 -1.0069
10242SOL     OW31624   1.911   2.214   2.016 -0.5404  1.2058 -0.1296
10242SOL    HW131625   1.867   2.133   1.977  1.2180  0.9071 -1.6662
10242SOL    HW231626   1.907   2.289   1.951  0.6394  1.3469 -0.0600
10243SOL     OW31627   0.816   5.145   0.354 -0.6089  0.7495  0.0778
10243SOL    HW131628   0.884   5.102   0.414 -1.0275  0.4017  0.3012
10243SOL    HW231629   0.758   5.206   0.407 -0.6100  0.8846 -0.0771
10244SOL     OW31630   1.890   5.242   0.098 -0.0033 -0.4738  0.0578
10244SOL    HW131631   1.800   5.281   0.077  0.8606  0.6316 -1.8545
10244SOL    HW231632   1.959   5.314   0.095  0.9408 -1.2441  1.8022
10245SOL     OW31633   2.819   4.048   6.176  0.4471  0.0177  0.1266
10245SOL    HW131634   2.727   4.010   6.166  0.5415 -0.1651 -0.0436
10245SOL    HW231635   2.830   4.086   6.268  0.2296 -0.0346  0.1731
10246SOL     OW31636   4.776   2.425   4.986 -0.5795 -0.3487 -0.5147
10246SOL    HW131637   4.720   2.346   5.009 -0.7533  0.0149  0.3767
10246SOL    HW231638   4.829   2.452   5.067 -2.6575  2.1875  0.1337
10247SOL     OW31639   5.866   5.245   4.109  0.4411  0.3693  0.4108
10247SOL    HW131640   5.947   5.233   4.052  2.0435  0.4669  2.5239
10247SOL    HW231641   5.854   5.163   4.166  0.3375  1.2106  1.6248
10248SOL     OW31642   2.710   6.948   2.802  0.3894 -0.1699  0.0745
10248SOL    HW131643   2.717   6.973   2.899 -0.4236  0.9986 -0.1545
10248SOL    HW231644   2.642   7.005   2.757 -0.7192 -2.0360 -0.7687
10249SOL     OW31645   0.677   4.390   1.438 -0.0311  0.4754  0.0569
10249SOL    HW131646   0.750   4.330   1.471 -0.9128 -0.7871 -0.2282
10249SOL    HW231647   0.656   4.368   1.343 -1.5486  0.0490  0.4653
10250SOL     OW31648   4.054   2.286   6.187  0.5600 -0.1275 -0.1163
10250SOL    HW131649   4.128   2.334   6.235 -1.2433  0.2200  2.5147
10250SOL    HW231650   3.990   2.249   6.253 -0.3444 -2.6470 -2.2320
10251SOL     OW31651   2.864   0.052   4.301 -0.0211  0.3971  0.7562
10251SOL    HW131652   2.947   0.056   4.245  0.6232 -1.2082  1.5486
10251SOL    HW231653   2.788   0.091   4.250  1.0914  1.4190 -0.1931
10252SOL     OW31654   3.867   4.222   6.203  0.1388  0.0015  0.2354
10252SOL    HW131655   3.887   4.209   6.300 -0.7987  0.4802  0.5095
10252SOL    HW231656   3.856   4.320   6.184 -0.0474 -0.1162 -0.2790
10253SOL     OW31657   5.546   5.267   6.884  0.5585  0.3545  0.1432
10253SOL    HW131658   5.486   5.249   6.962  0.2326  0.0679 -0.1709
10253SOL    HW231659   5.601   5.185   6.864 -1.0123 -0.3960 -1.3628
10254SOL     OW31660   3.036   1.911   5.603  0.2725 -0.1699  0.6559
10254SOL    HW131661   3.002   1.922   5.510  0.3414  1.2153  0.7821
10254SOL    HW231662   3.009   1.821   5.637  0.9308 -1.0407 -0.9736
10255SOL     OW31663   0.819   6.574   0.535 -0.7318  0.0643 -0.5972
10255SOL    HW131664   0.739   6.570   0.475 -0.4852  1.9905 -1.1359
10255SOL    HW231665   0.809   6.652   0.598  1.0679  0.8559 -1.2270
10256SOL     OW31666   5.783   2.618   1.876 -0.4742  0.0766  0.7247
10256SOL    HW131667   5.826   2.540   1.922 -0.7133 -0.6572 -0.2739
10256SOL    HW231668   5.708   2.652   1.933 -0.5094 -0.5589  1.0666
10257SOL     OW31669   2.231   6.176   3.166  0.4147  0.2945 -0.1913
10257SOL    HW131670   2.133   6.194   3.175 -0.1445 -2.7578  0.8526
10257SOL    HW231671   2.275   6.186   3.255  0.4071 -1.4619  0.0365
10258SOL     OW31672   4.403   1.434   2.878  0.3620  0.0476  0.3046
10258SOL    HW131673   4.489   1.479   2.852  1.0109 -1.1581  0.3200
10258SOL    HW231674   4.347   1.420   2.796  1.3200 -1.4740 -0.1353
10259SOL     OW31675   0.569   4.919   3.437  0.1501 -0.1190 -0.7326
10259SOL    HW131676   0.651   4.973   3.455 -0.0154  0.8427 -2.5928
10259SOL    HW231677   0.490   4.964   3.479  0.1946  0.4596 -1.2498
10260SOL     OW31678   0.904   0.450   3.643  0.3163 -0.4508 -0.4933
10260SOL    HW131679   0.893   0.545   3.672 -0.5059 -0.8237  0.4935
10260SOL    HW231680   0.831   0.426   3.579  0.9641 -0.2028 -1.3276
10261SOL     OW31681   6.328   5.486   2.882 -0.8065  0.1375  0.4046
10261SOL    HW131682   6.360   5.399   2.921 -1.4491 -0.2979 -0.0137
10261SOL    HW231683   6.284   5.468   2.794 -2.3020  0.7030  1.0097
10262SOL     OW31684   4.518   6.518   5.524 -0.5546 -0.3035  0.2170
10262SOL    HW131685   4.594   6.460   5.553 -1.5258 -1.9534 -0.4037
10262SOL    HW231686   4.457   6.533   5.602  0.5187  1.2842  0.7982
10263SOL     OW31687   0.613   6.815   6.218  0.4671 -0.0046  0.2088
10263SOL    HW131688   0.621   6.906   6.257  0.5690 -0.5506  1.5222
10263SOL    HW231689   0.613   6.747   6.292 -0.3065 -1.0255 -0.6974
10264SOL     OW31690   5.787   4.801   6.549  0.4294  0.4899  0.0994
10264SOL    HW131691   5.833   4.770   6.465 -0.5432  0.0776 -0.2974
10264SOL    HW231692   5.790   4.901   6.554  1.8474  0.4472  0.3711
10265SOL     OW31693   2.350   2.876   5.842 -0.1288 -0.0065 -0.4725
10265SOL    HW131694   2.270   2.885   5.901 -0.0179 -0.2183 -0.2910
10265SOL    HW231695   2.422   2.826   5.890  1.2654  2.7345  0.5717
10266SOL     OW31696   3.679   3.727   3.264  0.1877  0.4980  0.2338
10266SOL    HW131697   3.679   3.680   3.352 -0.2588  0.2431  0.1021
10266SOL    HW231698   3.594   3.778   3.253  1.2438  2.5256  0.9798
10267SOL     OW31699   4.237   0.599   3.229  0.1694 -0.1202 -0.2775
10267SOL    HW131700   4.162   0.553   3.182 -0.5138  0.0293  0.6514
10267SOL    HW231701   4.286   0.534   3.287  0.4817 -0.1163 -0.5312
10268SOL     OW31702   0.354   5.625   1.064  0.4822 -0.6155 -0.0253
10268SOL    HW131703   0.438   5.676   1.044  1.4910 -2.1637  0.1205
10268SOL    HW231704   0.363   5.579   1.152 -0.5371 -0.8031 -0.0036
10269SOL     OW31705   6.943   2.648   6.516 -0.1255  0.4162  0.0870
10269SOL    HW131706   6.853   2.687   6.494  0.4154  0.7061 -1.7854
10269SOL    HW231707   6.932   2.551   6.538 -0.7993  0.2153 -1.0603
10270SOL     OW31708   2.227   6.329   2.490  0.2660 -0.2937 -1.0669
10270SOL    HW131709   2.268   6.419   2.500 -0.0609 -0.0017 -2.2428
10270SOL    HW231710   2.279   6.263   2.545  1.2540  0.3731 -1.1698
10271SOL     OW31711   3.108   4.347   1.246 -0.5259  0.7018  0.5667
10271SOL    HW131712   3.193   4.352   1.298  0.0452 -1.1250 -0.0946
10271SOL    HW231713   3.112   4.410   1.169 -0.0800  1.1559  0.9605
10272SOL     OW31714   6.513   1.338   1.736 -0.5358  0.0292 -0.7028
10272SOL    HW131715   6.556   1.428   1.727 -2.8930  1.2794 -0.3726
10272SOL    HW231716   6.529   1.286   1.653  1.0760  0.6411 -0.8138
10273SOL     OW31717   3.748   5.247   5.059 -0.1287  0.5980 -0.4678
10273SOL    HW131718   3.812   5.175   5.035  1.1259  1.5944 -0.1881
10273SOL    HW231719   3.794   5.335   5.056 -1.6703  1.4184 -0.9378
10274SOL     OW31720   1.364   6.300   5.562  0.0195 -0.4906  0.2803
10274SOL    HW131721   1.423   6.370   5.604  0.9613 -1.4054  0.5234
10274SOL    HW231722   1.287   6.344   5.518  1.3205  0.8306 -0.7783
10275SOL     OW31723   6.168   2.381   2.591 -0.3114  0.4971 -0.1842
10275SOL    HW131724   6.072   2.393   2.569  0.0638  2.6172 -0.9250
10275SOL    HW231725   6.209   2.314   2.529 -0.7493  1.5701 -1.7087
10276SOL     OW31726   6.181   4.573   0.235  0.1811  0.1376  0.0276
10276SOL    HW131727   6.194   4.527   0.148 -1.1813  0.1567 -0.2199
10276SOL    HW231728   6.233   4.658   0.236 -3.8992  3.1347 -3.1713
10277SOL     OW31729   6.820   6.583   4.798  0.3426  0.3851  0.1950
10277SOL    HW131730   6.901   6.545   4.755 -0.1125  0.1748 -0.4858
10277SOL    HW231731   6.774   6.512   4.851  0.5666  0.4880  0.5281
10278SOL     OW31732   0.551   2.094   5.550  0.2104  0.1422  0.1132
10278SOL    HW131733   0.523   2.001   5.577  1.8983 -1.0081 -1.8327
10278SOL    HW231734   0.649   2.105   5.569  0.3315  1.0151 -0.9652
10279SOL     OW31735   3.482   6.399   3.388 -0.1181  0.6341 -0.0467
10279SOL    HW131736   3.420   6.353   3.451 -1.2810  0.8418 -0.9888
10279SOL    HW231737   3.558   6.339   3.366 -0.2674  0.1559  0.7102
10280SOL     OW31738   3.699   3.926   0.546  0.1487  0.1654 -0.0173
10280SOL    HW131739   3.794   3.892   0.546  0.0580 -0.1591 -1.3024
10280SOL    HW231740   3.676   3.961   0.637  1.2365 -0.4905  0.5387
10281SOL     OW31741   6.462   3.382   2.648  0.5769 -0.1846  0.3815
10281SOL    HW131742   6.543   3.440   2.660  0.6198  0.0811 -1.1021
10281SOL    HW231743   6.485   3.303   2.592  0.1513 -0.9021  1.1821
10282SOL     OW31744   4.433   1.499   3.711  0.2486  0.3001  0.1263
10282SOL    HW131745   4.474   1.506   3.620  1.2214  2.6735  0.6635
10282SOL    HW231746   4.341   1.538   3.708  0.6338  1.2554  0.3214
10283SOL     OW31747   6.852   4.125   6.179 -0.2365  0.0279  0.7971
10283SOL    HW131748   6.868   4.186   6.102 -1.0986  1.8325  1.9915
10283SOL    HW231749   6.901   4.158   6.259  0.0041 -1.3687  1.2620
10284SOL     OW31750   4.920   3.006   3.426  0.0495  0.4558  0.4215
10284SOL    HW131751   4.865   3.040   3.350 -0.1697  1.3915  0.9820
10284SOL    HW231752   4.891   3.050   3.511 -0.0718 -0.9699  1.1552
10285SOL     OW31753   5.249   6.457   2.686  0.4210  0.2769  0.5824
10285SOL    HW131754   5.185   6.408   2.746 -1.3115  2.3013  0.4698
10285SOL    HW231755   5.305   6.390   2.637 -2.9921 -1.7639 -0.9111
10286SOL     OW31756   3.746   6.637   3.204  0.3770  0.5365  0.0896
10286SOL    HW131757   3.800   6.706   3.156  1.0833  0.2575  0.4801
10286SOL    HW231758   3.650   6.647   3.178  0.7005  0.5678 -1.1797
10287SOL     OW31759   0.583   6.394   1.752  0.2654  0.2599  0.1029
10287SOL    HW131760   0.487   6.367   1.750  0.5497 -0.7896 -0.0385
10287SOL    HW231761   0.629   6.360   1.669  1.1123 -0.6401  0.9134
10288SOL     OW31762   3.811   5.017   4.824 -0.7912 -0.0138  0.0814
10288SOL    HW131763   3.724   4.970   4.809 -0.8076  0.1391 -0.3398
10288SOL    HW231764   3.802   5.113   4.795 -0.2163 -0.2366 -0.8967
10289SOL     OW31765   3.817   4.973   1.585 -0.2268  0.1806  0.9918
10289SOL    HW131766   3.887   4.976   1.657  0.5485 -0.6120  0.2871
10289SOL    HW231767   3.757   4.893   1.600 -0.1267  0.0723  0.8113
10290SOL     OW31768   3.453   3.847   2.840  1.2750  0.0185 -0.0486
10290SOL    HW131769   3.516   3.875   2.767  1.6620  0.7980  0.5599
10290SOL    HW231770   3.433   3.750   2.832  1.4062  0.0696 -1.1223
10291SOL     OW31771   5.576   1.955   3.456  0.1724 -0.5688 -0.0693
10291SOL    HW131772   5.546   1.878   3.514  0.4267  0.3978  1.3958
10291SOL    HW231773   5.647   2.006   3.503 -1.2601  1.6637 -0.1731
10292SOL     OW31774   1.345   2.280   4.976 -0.2522  0.2024  0.9200
10292SOL    HW131775   1.395   2.232   5.048  1.4036  0.3600 -0.0606
10292SOL    HW231776   1.350   2.379   4.993  0.4270  0.2596  0.4482
10293SOL     OW31777   1.972   1.181   3.971 -0.0945  0.1773 -0.1430
10293SOL    HW131778   2.064   1.199   4.007 -0.4028 -0.2927  0.9099
10293SOL    HW231779   1.912   1.152   4.045 -0.3913 -2.2674 -1.2577
10294SOL     OW31780   4.158   0.890   3.515 -0.0952  0.1704 -0.4946
10294SOL    HW131781   4.162   0.790   3.509  0.0882  0.0016  1.6786
10294SOL    HW231782   4.064   0.919   3.532  0.1088  0.2153  0.6244
10295SOL     OW31783   1.766   4.391   0.920  0.6952 -0.5194  0.5751
10295SOL    HW131784   1.725   4.425   0.835 -1.0045 -1.8361  0.8256
10295SOL    HW231785   1.761   4.462   0.990  2.0118  0.5410 -0.3505
10296SOL     OW31786   5.536   1.919   0.787 -0.2165 -0.5538  0.2376
10296SOL    HW131787   5.590   1.918   0.871 -0.5774 -1.9862  0.4662
10296SOL    HW231788   5.460   1.855   0.795 -0.0922 -0.9302 -1.2856
10297SOL     OW31789   2.099   6.875   0.711  0.0279 -0.0399 -0.7256
10297SOL    HW131790   2.047   6.855   0.628 -0.2995 -1.4030 -0.2237
10297SOL    HW231791   2.039   6.916   0.780  0.1678  0.5624 -0.9599
10298SOL     OW31792   1.410   5.501   3.392 -0.2640 -0.7863  0.3671
10298SOL    HW131793   1.393   5.570   3.321 -2.0401 -0.7441  0.7961
10298SOL    HW231794   1.381   5.537   3.481  1.8599 -0.8711  1.1514
10299SOL     OW31795   5.994   5.011   3.768 -0.3243  0.2255  0.2553
10299SOL    HW131796   6.074   5.029   3.826  0.2082 -1.1150 -0.0198
10299SOL    HW231797   5.945   4.930   3.803  0.6103 -1.2744 -1.7113
10300SOL     OW31798   1.493   6.029   4.441  1.0582 -0.4909  0.0710
10300SOL    HW131799   1.512   6.025   4.343  0.5680 -2.9831  0.0160
10300SOL    HW231800   1.577   6.014   4.493  0.9596 -1.5698 -0.0447
10301SOL     OW31801   2.791   1.439   6.492  0.2750  0.3222 -0.7598
10301SOL    HW131802   2.696   1.457   6.465 -0.3384  0.4684  1.3185
10301SOL    HW231803   2.836   1.525   6.512 -0.0140  0.1131  0.8860
10302SOL     OW31804   2.554   5.731   4.886  0.2431  0.1485  0.4203
10302SOL    HW131805   2.561   5.782   4.800 -0.7465 -2.3376 -1.2621
10302SOL    HW231806   2.625   5.661   4.889 -0.5518 -0.6681  0.9528
10303SOL     OW31807   6.947   6.140   4.283  1.0105  0.2849 -0.2400
10303SOL    HW131808   6.961   6.200   4.204  1.5797  0.8173  0.2520
10303SOL    HW231809   7.019   6.070   4.285  1.1342  0.4143 -0.0730
10304SOL     OW31810   5.074   0.089   0.501  0.8565  0.2718 -0.3288
10304SOL    HW131811   5.053  -0.003   0.469 -0.3645  0.7833 -1.0683
10304SOL    HW231812   5.164   0.116   0.468  0.5965 -0.1064 -1.3891
10305SOL     OW31813   2.501   3.417   0.070 -0.2220  0.3391  0.6513
10305SOL    HW131814   2.485   3.386   0.164 -0.0740  0.8086  0.8345
10305SOL    HW231815   2.433   3.376   0.010 -0.6197  0.4062  1.0420
10306SOL     OW31816   2.551   6.780   0.170 -0.0175 -0.3009  0.1446
10306SOL    HW131817   2.599   6.865   0.194 -2.3568  0.5169  2.3567
10306SOL    HW231818   2.556   6.716   0.247  0.6384 -1.7341 -1.0327
10307SOL     OW31819   4.126   1.562   6.990 -0.1947  0.0864  0.2868
10307SOL    HW131820   4.186   1.641   6.979  0.7698 -0.5612  0.6792
10307SOL    HW231821   4.049   1.585   7.050 -0.3768  0.9486 -0.2616
10308SOL     OW31822   2.193   3.046   3.956  0.2735 -0.8295 -0.2991
10308SOL    HW131823   2.251   2.995   4.020 -0.3413 -1.1411  0.0198
10308SOL    HW231824   2.173   3.136   3.994 -2.7734 -2.1472  1.5595
10309SOL     OW31825   6.189   2.104   6.184 -0.3468 -0.6073 -0.4157
10309SOL    HW131826   6.156   2.011   6.167 -1.1568 -0.2204 -1.0396
10309SOL    HW231827   6.125   2.170   6.144  0.3106  0.2172 -0.1396
10310SOL     OW31828   4.684   4.338   6.741 -0.7481  0.8245 -0.2714
10310SOL    HW131829   4.625   4.286   6.679  1.4812  1.1240 -2.8090
10310SOL    HW231830   4.642   4.426   6.761 -2.4455 -0.0812  0.3756
10311SOL     OW31831   4.840   0.060   6.648 -0.2657  0.0129 -0.0740
10311SOL    HW131832   4.896  -0.022   6.656  0.0283  0.2313  0.1510
10311SOL    HW231833   4.877   0.131   6.707 -1.4324 -0.1917  0.9346
10312SOL     OW31834   5.421   6.682   1.080  0.0116  0.1521 -0.2897
10312SOL    HW131835   5.326   6.677   1.110 -0.1482  0.9573 -0.6205
10312SOL    HW231836   5.478   6.718   1.154 -0.1952  1.0646 -0.5581
10313SOL     OW31837   3.006   5.505   2.797  0.0767 -0.4581 -0.6217
10313SOL    HW131838   2.985   5.590   2.846 -0.8800 -1.4573  0.7728
10313SOL    HW231839   2.996   5.520   2.699 -2.2554  0.5029 -0.2999
10314SOL     OW31840   0.302   2.927   0.375 -0.1497  0.3915  0.4929
10314SOL    HW131841   0.268   2.950   0.284  1.0216  0.2299 -0.0105
10314SOL    HW231842   0.387   2.978   0.392 -1.0051  1.3886  2.0162
10315SOL     OW31843   5.105   2.285   2.682  0.3217 -0.2917 -0.0439
10315SOL    HW131844   5.146   2.196   2.662  0.8477  0.0065 -0.2984
10315SOL    HW231845   5.061   2.282   2.772  1.2700 -0.4906  0.4283
10316SOL     OW31846   5.635   2.422   6.560  0.2008 -0.1091  0.6193
10316SOL    HW131847   5.671   2.515   6.568 -0.2096 -0.0364  1.7305
10316SOL    HW231848   5.654   2.388   6.468  0.1421  1.1584  0.1080
10317SOL     OW31849   2.037   6.266   5.794 -0.4103  0.1475  0.3828
10317SOL    HW131850   1.944   6.237   5.817 -0.3809  0.8056  1.4023
10317SOL    HW231851   2.089   6.188   5.759 -1.7258  0.0527 -1.5012
10318SOL     OW31852   5.200   2.063   4.829  0.0683  0.4056  0.4030
10318SOL    HW131853   5.128   2.112   4.879 -0.0834  0.8826 -0.2704
10318SOL    HW231854   5.235   1.989   4.885 -2.3005 -1.0932  0.0237
10319SOL     OW31855   0.531   6.409   5.124  0.2200 -0.3770  0.0380
10319SOL    HW131856   0.457   6.350   5.156 -2.2856  1.6022 -1.6959
10319SOL    HW231857   0.511   6.504   5.150  2.4141  0.1759 -0.1199
10320SOL     OW31858   0.011   6.882   2.322  0.4027  0.2397 -0.2199
10320SOL    HW131859   0.039   6.845   2.411 -0.1285  0.8151  0.1940
10320SOL    HW231860  -0.046   6.815   2.275  1.3161 -0.3827 -0.4738
10321SOL     OW31861   0.226   2.480   0.656 -0.6188 -0.0952 -0.3180
10321SOL    HW131862   0.240   2.422   0.576 -0.9413  2.2403 -2.1561
10321SOL    HW231863   0.301   2.545   0.665 -0.9918  0.2075  0.8366
10322SOL     OW31864   3.302   3.517   4.795 -0.3512  0.2410  0.6079
10322SOL    HW131865   3.381   3.576   4.813 -1.1015  2.0355 -1.4358
10322SOL    HW231866   3.265   3.539   4.704 -4.1518  0.6120  2.0649
10323SOL     OW31867   6.408   5.132   1.315  0.3108 -0.2217  0.3860
10323SOL    HW131868   6.350   5.206   1.349  0.5613  0.1773 -0.0404
10323SOL    HW231869   6.415   5.060   1.384  1.2106  0.7911  1.3864
10324SOL     OW31870   3.288   3.920   1.748  0.1059  0.0792  0.2525
10324SOL    HW131871   3.256   3.907   1.654 -2.2651  1.7547  0.7302
10324SOL    HW231872   3.380   3.958   1.746 -0.8069  2.4763 -1.5459
10325SOL     OW31873   0.911   5.486   3.389 -0.5000 -0.1511  0.0103
10325SOL    HW131874   0.981   5.495   3.460  0.3594  1.3921 -0.9776
10325SOL    HW231875   0.954   5.497   3.299 -1.3257 -3.3845 -0.9041
10326SOL     OW31876   5.384   2.442   5.643  0.8081 -0.1431  0.7880
10326SOL    HW131877   5.392   2.351   5.684  0.0741 -1.0023 -0.8968
10326SOL    HW231878   5.434   2.444   5.557  0.4939  0.9345  0.6239
10327SOL     OW31879   2.658   2.306   2.014 -0.4999 -0.3011  0.3651
10327SOL    HW131880   2.715   2.323   1.933 -1.1188  3.3780  0.5508
10327SOL    HW231881   2.717   2.280   2.090  0.5502  0.0276 -0.3107
10328SOL     OW31882   6.896   1.934   3.290 -0.2971  0.6274 -0.2700
10328SOL    HW131883   6.958   2.008   3.316 -0.6602  0.5585  0.8683
10328SOL    HW231884   6.816   1.936   3.350  0.0754 -1.1791  0.3317
10329SOL     OW31885   4.191   0.900   1.277  0.0569 -0.0264  0.1893
10329SOL    HW131886   4.287   0.890   1.302  0.3960  0.2504 -0.9766
10329SOL    HW231887   4.183   0.914   1.179 -1.0758  1.1931  0.4244
10330SOL     OW31888   4.201   0.551   0.852 -0.3073  0.2604  0.9447
10330SOL    HW131889   4.287   0.517   0.813 -0.4182 -0.4691  1.3179
10330SOL    HW231890   4.137   0.573   0.779 -0.9360 -2.1934  0.6852
10331SOL     OW31891   0.224   5.785   6.660  0.6993  0.3439 -0.0040
10331SOL    HW131892   0.197   5.843   6.737  1.3441 -1.1828  1.4400
10331SOL    HW231893   0.263   5.842   6.588 -1.2488  1.9685  0.1495
10332SOL     OW31894   0.573   5.782   6.351  0.0626 -0.3395 -0.1365
10332SOL    HW131895   0.507   5.707   6.351 -1.2010  0.7342 -0.3447
10332SOL    HW231896   0.650   5.758   6.293  0.4596 -2.1100  1.0478
10333SOL     OW31897   6.771   0.018   4.488 -0.1674 -0.0524  0.0886
10333SOL    HW131898   6.841   0.078   4.528 -1.7533  1.0336  1.3974
10333SOL    HW231899   6.785  -0.075   4.521 -0.6243  0.5705  2.1997
10334SOL     OW31900   4.065   6.291   3.054  0.2099  0.0905  0.1652
10334SOL    HW131901   4.022   6.296   2.964 -0.4289  0.2383  0.4698
10334SOL    HW231902   4.064   6.197   3.087 -0.5020  0.1989  0.4626
10335SOL     OW31903   1.130   5.540   6.274  0.3825  0.1985 -0.4040
10335SOL    HW131904   1.183   5.573   6.196  0.0920 -2.2648 -1.7137
10335SOL    HW231905   1.193   5.517   6.349  0.8523  0.5174 -0.6938
10336SOL     OW31906   6.969   6.744   2.030 -0.2158 -0.5402 -0.3255
10336SOL    HW131907   6.886   6.723   2.080 -1.4969  0.9273 -1.7290
10336SOL    HW231908   6.991   6.669   1.967 -1.7554 -0.0356 -1.5188
10337SOL     OW31909   0.401   6.435   6.722 -0.2563  0.0922 -0.0682
10337SOL    HW131910   0.313   6.457   6.679  0.0054  0.4209 -0.4443
10337SOL    HW231911   0.454   6.518   6.733  0.1793 -0.1620 -0.2316
10338SOL     OW31912   1.810   4.886   2.195 -0.1164 -0.5440  0.1015
10338SOL    HW131913   1.841   4.795   2.168 -0.4767 -0.6832  0.1480
10338SOL    HW231914   1.886   4.938   2.234  0.0113 -0.9374  0.3717
10339SOL     OW31915   6.802   4.687   5.890  0.6794 -0.0962 -0.0200
10339SOL    HW131916   6.761   4.596   5.889  0.0264  0.1583  1.2342
10339SOL    HW231917   6.834   4.711   5.798  0.1985 -1.2870 -0.5119
10340SOL     OW31918   3.175   2.683   1.215  0.1798  0.8502  0.1018
10340SOL    HW131919   3.139   2.591   1.224 -0.0393  1.0480  1.5179
10340SOL    HW231920   3.225   2.707   1.299  0.0817  2.0809 -0.1776
10341SOL     OW31921   1.681   3.630   2.604 -0.5970 -0.5664 -0.5371
10341SOL    HW131922   1.655   3.650   2.509 -1.1650  2.6747  0.1654
10341SOL    HW231923   1.628   3.554   2.638  0.6636 -2.8293 -3.1928
10342SOL     OW31924   2.256   6.146   2.168 -0.1701  0.9095  0.2609
10342SOL    HW131925   2.306   6.084   2.107 -0.7130  1.2188 -0.5197
10342SOL    HW231926   2.191   6.093   2.223 -1.5060  0.8754 -1.2679
10343SOL     OW31927   1.950   5.293   0.408  0.5404 -0.3424 -0.0079
10343SOL    HW131928   1.983   5.287   0.314  0.7163 -1.3430  0.1147
10343SOL    HW231929   1.860   5.338   0.408  0.9395  0.4836 -0.5517
10344SOL     OW31930   4.254   3.501   6.468 -0.6395 -0.5344  0.3521
10344SOL    HW131931   4.230   3.405   6.455 -1.7346 -0.1912 -0.2934
10344SOL    HW231932   4.231   3.553   6.385  0.0656  0.2682  0.6409
10345SOL     OW31933   0.472   1.626   6.013 -0.1722 -0.0660  0.1510
10345SOL    HW131934   0.412   1.574   6.074 -0.7550  0.3081 -0.0955
10345SOL    HW231935   0.493   1.571   5.932  0.4331 -0.4830  0.5815
10346SOL     OW31936   6.739   6.518   1.629 -0.0064  0.4607 -0.5792
10346SOL    HW131937   6.755   6.421   1.615 -1.4505  0.2683 -1.1022
10346SOL    HW231938   6.739   6.565   1.541  2.3242  1.2517 -0.2174
10347SOL     OW31939   4.121   1.656   2.009  0.1532 -0.0668  0.0572
10347SOL    HW131940   4.202   1.715   2.012  1.3186 -1.5844  0.2574
10347SOL    HW231941   4.127   1.596   1.930 -0.9849  0.0377 -0.1244
10348SOL     OW31942   4.313   3.032   6.373 -0.0132  0.4350 -0.3160
10348SOL    HW131943   4.281   2.938   6.362  1.1611  0.1832 -2.0911
10348SOL    HW231944   4.394   3.046   6.316 -0.5358  2.6920 -0.6044
10349SOL     OW31945   0.700   2.179   1.533 -0.0195 -0.1836 -0.1298
10349SOL    HW131946   0.774   2.154   1.596  0.1039  0.7729  0.1198
10349SOL    HW231947   0.730   2.255   1.475 -0.9299  0.4530  0.2162
10350SOL     OW31948   2.469   4.672   4.932  0.4418 -0.5670 -0.2055
10350SOL    HW131949   2.479   4.675   5.031  2.6664 -0.8598 -0.3619
10350SOL    HW231950   2.419   4.753   4.901  0.3777 -0.0869  1.0894
10351SOL     OW31951   5.483   4.762   5.936  0.2076 -0.3919 -0.2591
10351SOL    HW131952   5.448   4.756   5.842  1.0921  1.2197 -0.7334
10351SOL    HW231953   5.462   4.852   5.973  0.0627 -0.9365  1.0434
10352SOL     OW31954   5.722   6.515   5.688 -0.0012  0.4169 -0.1220
10352SOL    HW131955   5.676   6.515   5.599 -0.8477 -0.1188  0.3024
10352SOL    HW231956   5.658   6.545   5.759  0.0675 -1.0274  0.5861
10353SOL     OW31957   0.997   2.777   5.060  0.2245  0.0539 -0.3720
10353SOL    HW131958   0.954   2.778   4.970  0.3640  0.5683 -0.4392
10353SOL    HW231959   1.094   2.755   5.050  0.0752 -0.6673 -0.2650
10354SOL     OW31960   5.466   0.583   0.821  0.3087  0.2728 -0.1350
10354SOL    HW131961   5.468   0.533   0.734  0.5430 -0.6729  0.3914
10354SOL    HW231962   5.377   0.627   0.833  0.2152  0.2576 -0.7730
10355SOL     OW31963   4.170   5.741   0.678 -0.0632  0.2726 -0.1806
10355SOL    HW131964   4.093   5.705   0.625 -0.3039 -1.7911  1.4380
10355SOL    HW231965   4.239   5.669   0.689  0.8693  1.2578  0.6350
10356SOL     OW31966   1.477   4.752   5.824  0.1458  0.1821 -0.3597
10356SOL    HW131967   1.520   4.837   5.856  1.5774 -1.0823  1.2337
10356SOL    HW231968   1.381   4.752   5.850 -0.8771  2.8163 -3.4723
10357SOL     OW31969   1.325   2.713   5.992  0.0499 -0.2749 -0.1122
10357SOL    HW131970   1.379   2.778   5.938 -0.7729 -0.5893 -1.3462
10357SOL    HW231971   1.231   2.713   5.959 -0.3670 -0.8120  1.0455
10358SOL     OW31972   0.454   1.926   2.524 -0.4318  0.0626 -0.4904
10358SOL    HW131973   0.452   1.899   2.620 -2.1153  0.1402 -0.4813
10358SOL    HW231974   0.464   2.025   2.517 -0.1329  0.0390 -0.4016
10359SOL     OW31975   0.664   3.263   1.294 -0.1535  0.1132 -0.1757
10359SOL    HW131976   0.739   3.311   1.340  0.9760 -1.6599 -0.0766
10359SOL    HW231977   0.700   3.214   1.215 -1.4096  0.0301 -0.7134
10360SOL     OW31978   5.452   4.760   2.069  0.5415 -0.0192  0.0108
10360SOL    HW131979   5.496   4.841   2.030 -1.0032  0.1140 -1.5666
10360SOL    HW231980   5.444   4.689   1.999  1.7464 -1.5502  1.3307
10361SOL     OW31981   2.581   6.589   2.619 -0.4453  0.7700  0.1570
10361SOL    HW131982   2.656   6.641   2.658  0.4091 -0.4568  0.2142
10361SOL    HW231983   2.517   6.564   2.692  0.1279  0.1482  0.4610
10362SOL     OW31984   0.197   5.581   6.873 -0.0853  0.5903 -0.6019
10362SOL    HW131985   0.238   5.546   6.789  0.2738  0.9339 -0.5694
10362SOL    HW231986   0.263   5.637   6.923  0.0103 -0.3809  0.3886
10363SOL     OW31987   3.871   1.132   2.437 -0.0849 -0.1668  0.1639
10363SOL    HW131988   3.970   1.128   2.426 -0.1407 -0.9750 -0.1287
10363SOL    HW231989   3.845   1.088   2.523 -0.1799  0.2329  0.3447
10364SOL     OW31990   1.990   4.063   2.137 -0.3601 -1.2535  0.3236
10364SOL    HW131991   1.897   4.080   2.104 -0.7607 -3.5727  0.0935
10364SOL    HW231992   2.037   4.150   2.149 -1.1876 -0.0844 -3.5045
10365SOL     OW31993   4.883   5.832   0.868 -0.2578 -0.6049  0.0602
10365SOL    HW131994   4.953   5.883   0.918  0.3608 -0.8535 -0.5440
10365SOL    HW231995   4.796   5.840   0.916 -0.5335  2.2051 -0.7205
10366SOL     OW31996   3.908   5.531   3.772 -0.1517 -0.2295  0.6193
10366SOL    HW131997   3.809   5.544   3.780  0.1961  2.6291  1.1424
10366SOL    HW231998   3.945   5.502   3.861 -0.2533  0.9513  1.0604
10367SOL     OW31999   5.310   1.149   1.801  0.1257  0.0299  0.7212
10367SOL    HW132000   5.231   1.158   1.861 -0.4235 -0.1416  0.0341
10367SOL    HW232001   5.283   1.104   1.716  0.2626  2.7908 -0.8862
10368SOL     OW32002   2.647   0.084   3.654  0.1807  0.1147  0.5704
10368SOL    HW132003   2.738   0.105   3.690  0.0895  2.6848 -0.5200
10368SOL    HW232004   2.653   0.071   3.555 -0.3218 -2.1056  0.7839
10369SOL     OW32005   3.967   0.620   0.686 -0.0685 -0.0136  0.2101
10369SOL    HW132006   3.881   0.586   0.724 -0.6855  0.9413 -0.2855
10369SOL    HW232007   3.975   0.592   0.590 -1.0676  1.9770 -0.5177
10370SOL     OW32008   4.116   6.974   5.070 -1.4445 -0.1172 -0.3441
10370SOL    HW132009   4.065   7.049   5.112  1.8771  2.1931 -0.0477
10370SOL    HW232010   4.181   6.936   5.136  0.0499 -0.1621 -1.7803
10371SOL     OW32011   5.153   4.826   4.907  0.3814  0.1247 -0.3161
10371SOL    HW132012   5.168   4.769   4.825 -0.5187 -0.3933 -0.1313
10371SOL    HW232013   5.217   4.903   4.906  1.5686 -0.8392 -0.6155
10372SOL     OW32014   3.412   0.992   6.088 -0.2240  0.6095 -0.5484
10372SOL    HW132015   3.372   0.935   6.016  0.7142  0.4642 -0.9698
10372SOL    HW232016   3.390   0.952   6.177 -0.3340  0.0883 -0.8040
10373SOL     OW32017   3.760   0.497   4.217 -0.0329 -0.2158 -0.0347
10373SOL    HW132018   3.809   0.575   4.177 -0.5365  0.0735 -0.0963
10373SOL    HW232019   3.777   0.415   4.162  0.0238 -0.0204 -0.3124
10374SOL     OW32020   2.143   1.404   2.869 -0.1898 -0.2976  0.1074
10374SOL    HW132021   2.130   1.324   2.928  1.8146 -0.0533  0.9874
10374SOL    HW232022   2.238   1.407   2.837 -0.5729  1.0071 -1.0217
10375SOL     OW32023   5.145   2.434   1.297 -0.6263  0.3855  0.2446
10375SOL    HW132024   5.093   2.512   1.261  1.0362  0.9838 -1.0047
10375SOL    HW232025   5.200   2.394   1.223  2.8375  1.5541  1.9497
10376SOL     OW32026   1.275   1.568   4.323  0.3684  0.2161 -0.3158
10376SOL    HW132027   1.343   1.642   4.324 -0.2034  0.7607  1.3989
10376SOL    HW232028   1.198   1.595   4.266  1.8317 -0.7013 -2.8760
10377SOL     OW32029   0.615   1.202   2.503  0.1401 -0.2346  0.4190
10377SOL    HW132030   0.684   1.132   2.482 -0.9080 -1.4398  0.9117
10377SOL    HW232031   0.657   1.274   2.559  1.4324 -0.0258 -0.7363
10378SOL     OW32032   5.719   6.721   4.125 -0.6616 -0.9121 -0.0751
10378SOL    HW132033   5.798   6.781   4.114 -0.4954 -1.2829 -0.9558
10378SOL    HW232034   5.639   6.775   4.151 -0.2878 -0.4415  0.1038
10379SOL     OW32035   4.794   6.546   0.597 -0.1224 -0.0854 -0.5879
10379SOL    HW132036   4.720   6.611   0.579 -2.4468 -2.1549  0.9369
10379SOL    HW232037   4.791   6.472   0.529 -0.4425 -0.9433  0.3330
10380SOL     OW32038   4.772   0.885   3.203 -0.1246  0.2105  0.1741
10380SOL    HW132039   4.700   0.816   3.206  0.5482 -0.7262 -2.4571
10380SOL    HW232040   4.861   0.841   3.212  0.2329  1.0424  0.8258
10381SOL     OW32041   3.643   6.071   4.580  0.9299  0.6338  0.2226
10381SOL    HW132042   3.607   5.987   4.538 -0.5562  0.7576  1.1753
10381SOL    HW232043   3.642   6.144   4.512 -0.3411  0.5401  0.1133
10382SOL     OW32044   1.894   5.242   6.817  0.1219 -0.1522  0.1725
10382SOL    HW132045   1.827   5.294   6.870  0.8339  0.6472  0.3064
10382SOL    HW232046   1.853   5.155   6.787 -2.0260  1.5736 -2.3244
10383SOL     OW32047   0.668   4.072   0.311  0.1270  0.1209  0.1308
10383SOL    HW132048   0.726   4.144   0.272  0.0983 -0.6185 -1.3267
10383SOL    HW232049   0.583   4.113   0.344  0.0437  0.7521 -0.8222
10384SOL     OW32050   0.127   6.503   1.345  0.5916  0.0738  0.0623
10384SOL    HW132051   0.058   6.440   1.309  0.5059  0.2832 -0.1417
10384SOL    HW232052   0.083   6.581   1.388  0.7004  0.1742 -0.0066
10385SOL     OW32053   1.329   6.800   6.609 -0.1578  0.1954 -0.2716
10385SOL    HW132054   1.363   6.802   6.515 -0.4680  0.7984 -0.3765
10385SOL    HW232055   1.332   6.706   6.643 -2.4537 -0.5227 -1.7915
10386SOL     OW32056   6.056   3.250   5.710  0.3761  0.0739  0.3663
10386SOL    HW132057   6.084   3.322   5.646 -2.1620  0.2052 -0.7006
10386SOL    HW232058   5.957   3.249   5.718  0.5069 -1.1239  3.0126
10387SOL     OW32059   1.235   1.527   3.076  0.8390  0.5163  0.4404
10387SOL    HW132060   1.176   1.449   3.053  0.7339  0.8353 -0.3991
10387SOL    HW232061   1.245   1.532   3.175  2.5828 -1.8393  0.4671
10388SOL     OW32062   6.403   5.355   3.904  0.0556  0.4450  0.3309
10388SOL    HW132063   6.427   5.354   4.001  0.9715 -0.1964  0.1126
10388SOL    HW232064   6.487   5.355   3.850 -0.4388  1.6442 -0.4652
10389SOL     OW32065   0.009   4.877   2.517 -0.5164  0.1250  0.0623
10389SOL    HW132066  -0.029   4.969   2.529 -1.0931 -0.1482  0.3776
10389SOL    HW232067  -0.033   4.834   2.437  0.3191  0.4141 -0.5507
10390SOL     OW32068   2.412   1.506   3.942 -0.7006 -0.1186  0.1473
10390SOL    HW132069   2.416   1.558   3.856  0.9649 -0.8982 -0.2855
10390SOL    HW232070   2.475   1.546   4.008 -1.2976 -0.0755  0.6953
10391SOL     OW32071   6.715   6.242   6.447 -0.2758  0.5948 -0.0221
10391SOL    HW132072   6.658   6.167   6.412 -0.2072  0.5195  0.0257
10391SOL    HW232073   6.719   6.236   6.547  1.2828 -0.4927 -0.0977
10392SOL     OW32074   4.699   4.311   0.008 -0.0055  0.3496 -0.2978
10392SOL    HW132075   4.665   4.306  -0.086  0.6435  1.1293 -0.5847
10392SOL    HW232076   4.628   4.351   0.067  0.5872  2.5899 -1.0113
10393SOL     OW32077   1.974   6.272   3.839 -0.6762  0.6128  0.2672
10393SOL    HW132078   1.920   6.238   3.763 -0.4987 -1.2434  0.9197
10393SOL    HW232079   2.010   6.195   3.892 -1.2456  1.8138  2.5485
10394SOL     OW32080   1.188   0.989   5.473 -0.4274 -0.2522  0.2434
10394SOL    HW132081   1.112   0.988   5.408  0.3845 -0.1978 -0.7210
10394SOL    HW232082   1.266   0.940   5.434  0.2587  0.2489  0.9527
10395SOL     OW32083   0.066   1.283   4.636  1.1580  0.0791  0.0792
10395SOL    HW132084  -0.034   1.293   4.634  1.0868 -0.5610  0.4200
10395SOL    HW232085   0.093   1.234   4.718  1.7344 -0.0033 -0.1573
10396SOL     OW32086   5.432   6.904   4.566 -0.9232  0.6998  0.0200
10396SOL    HW132087   5.498   6.835   4.597  0.3266  1.8280 -0.0456
10396SOL    HW232088   5.355   6.907   4.630 -1.0794 -0.8448 -0.0614
10397SOL     OW32089   3.192   6.032   4.972  0.6030 -0.0870 -0.0414
10397SOL    HW132090   3.211   5.967   4.899 -0.7997  0.7113 -1.1611
10397SOL    HW232091   3.276   6.080   4.997  0.9788  0.1085 -1.6055
10398SOL     OW32092   0.465   3.831   2.261 -0.5186 -0.5014  0.1676
10398SOL    HW132093   0.441   3.879   2.176  3.5809  3.1677  0.7139
10398SOL    HW232094   0.426   3.880   2.339  3.0818  1.9476  0.6828
10399SOL     OW32095   5.470   2.126   4.483  0.1635 -0.2882  0.1696
10399SOL    HW132096   5.388   2.165   4.523  0.1727  0.4964 -0.5565
10399SOL    HW232097   5.500   2.048   4.538 -1.3641 -0.9284  0.1522
10400SOL     OW32098   1.884   6.857   1.862  0.2836 -0.0770 -0.1701
10400SOL    HW132099   1.961   6.917   1.885 -0.6110  1.0399  0.0191
10400SOL    HW232100   1.828   6.900   1.792  0.0676 -1.0797 -0.6300
10401SOL     OW32101   4.776   6.020   2.129 -0.0169  0.1155 -0.6274
10401SOL    HW132102   4.813   6.094   2.073  2.2597 -0.6905 -0.2670
10401SOL    HW232103   4.850   5.965   2.165 -1.6284 -2.3884 -0.8807
10402SOL     OW32104   0.829   3.086   3.157 -0.4658 -0.2791 -0.5129
10402SOL    HW132105   0.885   3.015   3.114  0.6006 -0.1773  0.6382
10402SOL    HW232106   0.745   3.099   3.105  0.1005 -1.1880 -1.6970
10403SOL     OW32107   4.781   1.701   1.568  0.1357  0.3453  0.7769
10403SOL    HW132108   4.758   1.774   1.633  0.0752  0.3454  0.7557
10403SOL    HW232109   4.763   1.733   1.475  3.3355  1.5907  0.4498
10404SOL     OW32110   6.333   6.618   3.216 -0.4630 -0.1746  0.2568
10404SOL    HW132111   6.249   6.661   3.183  0.5474  2.5907  1.0038
10404SOL    HW232112   6.346   6.640   3.312  0.4579 -1.7334  0.5228
10405SOL     OW32113   1.461   6.603   5.250  0.0480  0.2650  0.0960
10405SOL    HW132114   1.467   6.675   5.181  2.0495 -0.0261 -0.1065
10405SOL    HW232115   1.462   6.514   5.205  1.4444  0.0738  0.4604
10406SOL     OW32116   2.863   5.322   0.535  1.0525  0.1327  0.4686
10406SOL    HW132117   2.877   5.352   0.440 -2.4730  2.8815  0.6246
10406SOL    HW232118   2.789   5.255   0.537  1.2694 -0.0869  1.2864
10407SOL     OW32119   0.035   1.478   6.682  0.2428  0.2100  1.0204
10407SOL    HW132120   0.027   1.458   6.585  1.5384 -0.7536  1.0751
10407SOL    HW232121  -0.048   1.449   6.730 -0.0479 -0.1171  0.3208
10408SOL     OW32122   4.846   3.838   4.611 -0.1076 -0.2099 -0.5077
10408SOL    HW132123   4.802   3.880   4.690 -1.5552 -2.3303 -0.1050
10408SOL    HW232124   4.796   3.861   4.528 -0.9690 -1.1601 -0.2732
10409SOL     OW32125   6.255   3.895   1.331 -0.1364  0.1144 -0.1226
10409SOL    HW132126   6.335   3.942   1.369  0.0261 -0.2626  0.0098
10409SOL    HW232127   6.203   3.852   1.405  0.5783 -1.2333 -0.3783
10410SOL     OW32128   5.680   6.675   0.595  0.2072 -0.0542 -0.2979
10410SOL    HW132129   5.690   6.611   0.519  0.4053 -0.1142 -0.2224
10410SOL    HW232130   5.615   6.640   0.661  0.6661 -0.4024 -0.0234
10411SOL     OW32131   2.558   5.330   4.719  0.1326  0.4832  0.4421
10411SOL    HW132132   2.469   5.288   4.702 -0.1806  1.5669 -0.7473
10411SOL    HW232133   2.617   5.318   4.639  0.2394  1.7483  0.3079
10412SOL     OW32134   0.996   1.411   0.378  0.2350  0.3294 -0.3947
10412SOL    HW132135   0.977   1.316   0.354  1.2174  0.2841 -1.0476
10412SOL    HW232136   0.973   1.426   0.474 -2.6069  0.2044 -0.9953
10413SOL     OW32137   5.777   0.165   6.710 -0.2474  0.1211  0.2054
10413SOL    HW132138   5.682   0.179   6.680 -0.8060  2.9726  2.7730
10413SOL    HW232139   5.832   0.244   6.683  1.0618 -0.8056  0.0778
10414SOL     OW32140   6.205   2.310   6.773 -0.7810  0.2764 -0.2661
10414SOL    HW132141   6.228   2.237   6.709  0.0608 -0.0975  0.4402
10414SOL    HW232142   6.210   2.398   6.726  0.8109  0.0933 -0.4972
10415SOL     OW32143   5.977   5.319   2.799  0.0576 -0.2355  0.1548
10415SOL    HW132144   5.893   5.371   2.785  0.8551  0.5731 -2.0871
10415SOL    HW232145   6.055   5.369   2.761  1.2389 -1.9779  0.1112
10416SOL     OW32146   5.007   6.463   4.132  0.0964 -0.1837  0.0896
10416SOL    HW132147   4.992   6.557   4.162  0.4290  0.1379 -0.7326
10416SOL    HW232148   4.979   6.400   4.205 -0.2978  0.5405  0.5757
10417SOL     OW32149   2.905   4.789   3.502 -0.4748  0.2646  0.0786
10417SOL    HW132150   2.866   4.818   3.589  0.1379  0.3764  0.3243
10417SOL    HW232151   2.832   4.778   3.434 -0.8452  1.2993  0.2888
10418SOL     OW32152   6.541   3.029   5.193 -0.1667 -0.4754  0.2970
10418SOL    HW132153   6.553   3.086   5.274  0.9127 -0.0616 -0.1334
10418SOL    HW232154   6.607   3.056   5.123 -1.6050 -0.2494 -1.0577
10419SOL     OW32155   4.159   0.332   3.980 -0.5700  0.3352  0.4293
10419SOL    HW132156   4.131   0.372   4.068  3.1575  1.0868  1.4402
10419SOL    HW232157   4.189   0.405   3.919 -1.7788 -0.3216 -1.0054
10420SOL     OW32158   1.058   2.371   1.891 -0.0974  0.4261 -0.1202
10420SOL    HW132159   0.970   2.346   1.849 -1.0438  2.1888  0.6903
10420SOL    HW232160   1.041   2.420   1.976  1.6347  2.0095 -0.6149
10421SOL     OW32161   1.073   4.340   3.737  0.2881  0.1549 -0.1654
10421SOL    HW132162   1.135   4.418   3.749  0.7566 -0.2010 -0.2340
10421SOL    HW232163   1.124   4.262   3.701 -0.6297  0.5166 -2.3771
10422SOL     OW32164   6.972   4.309   5.318 -0.0910  0.5485 -0.2422
10422SOL    HW132165   7.034   4.252   5.264 -0.0103 -0.4500  0.8500
10422SOL    HW232166   7.021   4.391   5.348  0.1287  0.6775 -0.9443
10423SOL     OW32167   2.924   5.106   3.370 -0.3147  0.1917  0.3717
10423SOL    HW132168   2.868   5.042   3.318 -0.4287  0.5906  0.0014
10423SOL    HW232169   2.995   5.144   3.311  0.9971 -1.0609  1.0799
10424SOL     OW32170   4.154   0.777   6.813 -0.1637  0.2371  0.0338
10424SOL    HW132171   4.088   0.750   6.744  2.0232 -1.2171 -1.6229
10424SOL    HW232172   4.164   0.877   6.814 -2.0668  0.4548  0.1056
10425SOL     OW32173   3.467   0.299   0.986 -0.2587 -0.0138 -0.1784
10425SOL    HW132174   3.435   0.323   0.895 -0.8247  0.7602  0.2158
10425SOL    HW232175   3.458   0.200   1.000 -2.1254  0.1150 -0.2266
10426SOL     OW32176   5.122   2.447   6.618  1.0671  0.0088  0.3647
10426SOL    HW132177   5.192   2.478   6.554  0.5752 -0.1948 -0.2833
10426SOL    HW232178   5.039   2.500   6.605 -0.4620 -2.6822 -2.0950
10427SOL     OW32179   0.317   6.602   6.348 -0.3322  0.1602  0.4538
10427SOL    HW132180   0.351   6.565   6.262  0.0460 -0.0548  0.6935
10427SOL    HW232181   0.261   6.683   6.330 -0.2514  0.1170  0.0088
10428SOL     OW32182   2.503   0.946   3.460 -0.0055  0.3472 -0.1456
10428SOL    HW132183   2.430   0.879   3.447  0.2579  0.1152 -0.4373
10428SOL    HW232184   2.463   1.037   3.474 -0.4000 -0.0415  1.4027
10429SOL     OW32185   0.314   3.413   2.611  0.0853  0.4651  0.0563
10429SOL    HW132186   0.255   3.338   2.641 -0.9998  1.6998  1.1269
10429SOL    HW232187   0.367   3.384   2.531  0.4585 -1.7548  1.0477
10430SOL     OW32188   3.900   6.120   4.690  0.2427  0.0257 -0.8102
10430SOL    HW132189   3.815   6.090   4.647  0.8154  0.9561 -2.7307
10430SOL    HW232190   3.939   6.195   4.637  0.3711  2.1987  2.1239
10431SOL     OW32191   3.150   1.213   3.619  0.1529  0.3394  0.1311
10431SOL    HW132192   3.204   1.133   3.592 -0.0003  0.4751 -0.5812
10431SOL    HW232193   3.069   1.182   3.670  0.8265  0.1298  1.1016
10432SOL     OW32194   6.426   5.825   6.520  0.0094 -0.0118 -0.2260
10432SOL    HW132195   6.382   5.765   6.454  1.5705 -0.5957 -0.7935
10432SOL    HW232196   6.465   5.769   6.594  0.6578  0.3857 -0.2633
10433SOL     OW32197   1.619   5.034   1.403 -0.1725  0.0198  0.2000
10433SOL    HW132198   1.666   5.008   1.487  0.7319  1.2214  0.0967
10433SOL    HW232199   1.675   5.009   1.324 -0.7473 -0.5650 -0.0369
10434SOL     OW32200   5.079   6.406   3.872  0.5411 -0.9483  0.3655
10434SOL    HW132201   5.046   6.416   3.965  0.8041  0.3598  0.3455
10434SOL    HW232202   5.125   6.491   3.844  0.2186 -1.2149 -1.0463
10435SOL     OW32203   2.394   3.092   0.418 -0.3788 -0.0682  0.5126
10435SOL    HW132204   2.386   3.092   0.518 -1.1964 -0.2217  0.4523
10435SOL    HW232205   2.334   3.023   0.379  1.7929 -1.7882  0.0204
10436SOL     OW32206   6.902   5.094   5.337  0.3352  0.4374 -0.6689
10436SOL    HW132207   6.896   5.061   5.243  0.8209  0.5878 -0.7556
10436SOL    HW232208   6.832   5.163   5.353  1.4695  1.8404 -1.5189
10437SOL     OW32209   3.647   6.108   5.274  0.4616 -0.1285  0.7572
10437SOL    HW132210   3.604   6.032   5.322 -0.9487  0.1157 -0.0699
10437SOL    HW232211   3.743   6.085   5.254 -0.5709 -2.8981 -1.8457
10438SOL     OW32212   6.170   5.671   6.849 -0.8566  0.1901  0.2546
10438SOL    HW132213   6.074   5.699   6.841 -0.1577  2.6033 -0.8956
10438SOL    HW232214   6.213   5.721   6.924  0.0991  1.2026 -0.9220
10439SOL     OW32215   0.919   6.196   4.547  0.3911 -0.2756  0.0396
10439SOL    HW132216   1.000   6.254   4.542  1.4020 -1.7078 -0.6751
10439SOL    HW232217   0.870   6.199   4.460  0.6812 -0.7976 -0.1485
10440SOL     OW32218   0.268   3.237   4.793 -0.1441  0.1465 -0.0377
10440SOL    HW132219   0.337   3.225   4.721  2.3513  0.2294  2.1639
10440SOL    HW232220   0.264   3.333   4.820 -0.3679 -0.0207  0.5466
10441SOL     OW32221   3.390   0.998   0.042 -0.6398  0.3634  0.1244
10441SOL    HW132222   3.458   0.951  -0.013  0.4667  1.3894  0.5823
10441SOL    HW232223   3.299   0.986   0.001 -0.2243 -1.1522 -0.4010
10442SOL     OW32224   2.143   1.035   3.280 -0.1294 -0.1276 -0.8320
10442SOL    HW132225   2.195   0.976   3.218 -2.5602 -0.3359 -2.8192
10442SOL    HW232226   2.095   0.978   3.347  0.4132 -0.0951 -0.4066
10443SOL     OW32227   1.328   1.785   3.583 -0.5382 -0.4208  0.4261
10443SOL    HW132228   1.388   1.770   3.505 -1.0775  3.0633 -0.8320
10443SOL    HW232229   1.382   1.784   3.668  0.5617 -1.2384 -0.2582
10444SOL     OW32230   2.040   6.086   4.034  0.0179 -0.6229 -0.0567
10444SOL    HW132231   2.114   6.110   4.096  0.0032 -0.0328 -0.2627
10444SOL    HW232232   2.013   5.990   4.049 -0.2156 -0.3901  1.0625
10445SOL     OW32233   1.877   3.319   2.691 -0.1642 -0.2656  0.2922
10445SOL    HW132234   1.868   3.377   2.772 -2.6980 -1.1368  0.7152
10445SOL    HW232235   1.886   3.377   2.610 -0.4547  0.6772  0.9153
10446SOL     OW32236   0.380   5.421   0.178  0.9059  0.7766  0.2265
10446SOL    HW132237   0.401   5.360   0.101 -0.5083 -0.3157  0.6622
10446SOL    HW232238   0.446   5.405   0.252  0.8658  0.1354  0.1317
10447SOL     OW32239   0.031   2.512   1.759 -0.0294  0.3864 -0.3109
10447SOL    HW132240  -0.015   2.599   1.742 -1.0546 -0.1614 -0.4459
10447SOL    HW232241   0.048   2.466   1.671  1.2181  0.7985 -0.2911
10448SOL     OW32242   3.324   5.980   4.630  0.5539 -0.5710 -0.3679
10448SOL    HW132243   3.417   5.943   4.629  0.1586 -2.1713 -5.6976
10448SOL    HW232244   3.259   5.905   4.635 -0.5302  0.4028  0.9433
10449SOL     OW32245   3.424   0.423   5.452  0.1468 -0.4921 -0.5499
10449SOL    HW132246   3.520   0.445   5.440  0.0499 -0.5247 -1.4817
10449SOL    HW232247   3.372   0.507   5.468  0.1219 -0.2856 -1.6255
10450SOL     OW32248   5.713   0.452   6.867 -0.3823  0.6181 -0.0908
10450SOL    HW132249   5.807   0.470   6.841  0.0976 -1.0430  0.3624
10450SOL    HW232250   5.652   0.510   6.813  0.8355  0.9883 -1.1293
10451SOL     OW32251   3.251   0.482   2.659 -0.0222  0.2836 -0.1095
10451SOL    HW132252   3.284   0.424   2.584 -0.8356  2.5926 -2.4162
10451SOL    HW232253   3.152   0.491   2.653 -0.2056 -0.1489  1.8162
10452SOL     OW32254   1.499   2.084   5.153 -0.3038  0.3686  0.2880
10452SOL    HW132255   1.403   2.072   5.178 -0.1698 -1.1338  0.1413
10452SOL    HW232256   1.557   2.063   5.231 -0.0169 -1.1294 -0.2928
10453SOL     OW32257   3.718   6.459   2.498 -0.5436  0.0824 -0.3894
10453SOL    HW132258   3.714   6.507   2.410 -0.8099 -0.9010 -0.9389
10453SOL    HW232259   3.739   6.362   2.481  2.9426  0.4643  0.8410
10454SOL     OW32260   6.333   0.358   2.706  0.1858 -0.5045  0.2628
10454SOL    HW132261   6.287   0.287   2.652 -0.6427 -0.5870  1.0600
10454SOL    HW232262   6.297   0.448   2.679  0.6501 -0.4426 -0.1700
10455SOL     OW32263   5.119   6.229   4.551 -0.0373  0.7887  0.3567
10455SOL    HW132264   5.210   6.252   4.516 -0.9202  1.1999 -1.8630
10455SOL    HW232265   5.102   6.279   4.636  1.7014  0.9003  0.6732
10456SOL     OW32266   1.396   3.852   5.881 -0.1741 -0.0576  0.8801
10456SOL    HW132267   1.484   3.806   5.870  0.2666  0.4576  2.0104
10456SOL    HW232268   1.396   3.904   5.967 -0.8100  1.6866 -0.1225
10457SOL     OW32269   1.770   1.859   5.181 -0.1139 -0.3019  0.5345
10457SOL    HW132270   1.688   1.875   5.236 -1.0644  0.0934 -0.9038
10457SOL    HW232271   1.778   1.762   5.160 -1.0872 -0.1752 -0.5371
10458SOL     OW32272   6.797   4.962   6.990 -0.4950  0.2170  0.9532
10458SOL    HW132273   6.855   5.037   6.956 -3.0922  1.8015 -0.3503
10458SOL    HW232274   6.855   4.891   7.030  2.1374  2.9845  2.5522
10459SOL     OW32275   6.248   5.034   0.640 -0.5741  0.1602  0.4191
10459SOL    HW132276   6.295   4.965   0.695 -0.6794  0.5192  0.9635
10459SOL    HW232277   6.230   4.997   0.549  1.9731  0.4598 -0.2920
10460SOL     OW32278   1.755   2.539   1.168 -0.3778 -0.4735 -0.0118
10460SOL    HW132279   1.684   2.594   1.212 -1.0861  0.0665 -1.7713
10460SOL    HW232280   1.843   2.585   1.180 -0.9062  0.9380 -1.1707
10461SOL     OW32281   0.015   6.496   5.790 -0.4860 -0.0926  0.5374
10461SOL    HW132282  -0.029   6.549   5.718  0.7075  0.9751  0.5610
10461SOL    HW232283  -0.054   6.444   5.841 -1.3057 -1.4263 -1.7750
10462SOL     OW32284   3.940   0.742   1.537  0.0276 -0.0995 -0.0379
10462SOL    HW132285   4.040   0.742   1.541  0.0200 -0.3923  0.1583
10462SOL    HW232286   3.904   0.696   1.618 -0.2601 -0.5448 -0.4186
10463SOL     OW32287   6.107   2.420   4.311  0.2991  0.2027  0.0798
10463SOL    HW132288   6.012   2.405   4.339  0.5808 -0.8752  0.4823
10463SOL    HW232289   6.135   2.346   4.250  1.0733  0.1896  0.4484
10464SOL     OW32290   0.322   5.713   4.110  0.0452  0.6835 -0.0496
10464SOL    HW132291   0.388   5.639   4.100 -0.0662  0.8407 -2.3563
10464SOL    HW232292   0.239   5.678   4.154  0.3497 -0.3357 -0.2637
10465SOL     OW32293   6.855   4.448   2.241 -0.2486 -0.2399  0.4254
10465SOL    HW132294   6.759   4.429   2.219  0.2163 -0.0673 -1.9434
10465SOL    HW232295   6.860   4.533   2.294 -1.3993 -0.2319  0.5491
10466SOL     OW32296   5.277   4.185   6.975 -0.1905 -0.2872 -0.6701
10466SOL    HW132297   5.276   4.201   6.877 -0.6817 -0.0421 -0.6267
10466SOL    HW232298   5.183   4.184   7.010  0.0034  0.1754 -0.1159
10467SOL     OW32299   0.955   4.343   1.168 -0.3572  0.5835  0.8069
10467SOL    HW132300   0.922   4.284   1.241 -1.1766  0.6290  0.4840
10467SOL    HW232301   0.879   4.366   1.107  0.6096 -0.8218 -1.0160
10468SOL     OW32302   4.252   4.721   3.447 -0.7293 -0.0302 -0.0520
10468SOL    HW132303   4.313   4.680   3.515 -0.8353  0.2910  0.2385
10468SOL    HW232304   4.162   4.734   3.487 -0.4013  1.5227  0.2232
10469SOL     OW32305   4.346   2.172   5.077 -0.1546 -0.3069  0.1345
10469SOL    HW132306   4.286   2.243   5.039  0.0227 -0.4928 -0.4980
10469SOL    HW232307   4.436   2.177   5.034  0.3505  0.0736  1.1983
10470SOL     OW32308   3.189   1.505   3.627  0.1491 -0.3220 -0.3943
10470SOL    HW132309   3.285   1.518   3.654 -0.4575 -2.3130  3.4199
10470SOL    HW232310   3.161   1.412   3.649 -2.8438  0.3769 -0.8182
10471SOL     OW32311   3.385   5.973   2.064 -1.1395  0.0423 -0.0348
10471SOL    HW132312   3.300   5.969   2.012 -2.2251 -2.6129  1.6987
10471SOL    HW232313   3.433   5.886   2.055  1.1331  1.2775 -0.4744
10472SOL     OW32314   1.349   5.198   6.807  0.3430 -0.2135 -0.1556
10472SOL    HW132315   1.448   5.188   6.791  0.8391 -0.2268  2.5619
10472SOL    HW232316   1.319   5.286   6.769  1.7680  0.5875  0.4748
10473SOL     OW32317   4.835   4.760   5.643 -0.5156  0.0399 -0.4754
10473SOL    HW132318   4.786   4.822   5.581 -1.1751 -0.4279 -0.4311
10473SOL    HW232319   4.810   4.782   5.738  0.7416  0.9722 -0.3290
10474SOL     OW32320   4.768   2.055   2.907 -0.7755 -0.8575 -0.0849
10474SOL    HW132321   4.863   2.027   2.893 -0.9076 -1.2045 -0.2902
10474SOL    HW232322   4.713   1.975   2.931 -0.8931 -0.5586  0.6712
10475SOL     OW32323   1.323   0.604   2.315  0.0900  0.0279 -0.4998
10475SOL    HW132324   1.295   0.509   2.328 -0.2774  0.1368 -0.4828
10475SOL    HW232325   1.293   0.636   2.225  0.3521  0.0789 -0.5695
10476SOL     OW32326   5.149   6.998   6.271  0.1852  0.1795 -0.2860
10476SOL    HW132327   5.136   7.037   6.180  0.3021  1.9160  0.4168
10476SOL    HW232328   5.069   6.944   6.297  0.0561 -0.1261 -1.2958
10477SOL     OW32329   5.842   0.610   5.044  0.3946 -0.2375 -0.0745
10477SOL    HW132330   5.851   0.572   4.953  0.8849  0.1770 -0.2040
10477SOL    HW232331   5.745   0.625   5.065  0.2649 -0.6078 -0.4067
10478SOL     OW32332   0.055   6.823   5.872 -0.0315  0.0544  0.1877
10478SOL    HW132333  -0.004   6.744   5.861 -0.6001 -0.0148  2.9765
10478SOL    HW232334   0.009   6.891   5.929  1.8209  0.7950  0.8759
10479SOL     OW32335   0.109   3.215   2.691 -0.5767 -0.0014 -0.1661
10479SOL    HW132336   0.016   3.202   2.657 -1.2912 -0.8106  1.9283
10479SOL    HW232337   0.145   3.127   2.724  0.4068  0.5611  0.3012
10480SOL     OW32338   2.017   0.365   4.198  0.3249  0.6775  0.2841
10480SOL    HW132339   1.954   0.438   4.223  1.8894  2.8000 -1.5346
10480SOL    HW232340   1.986   0.322   4.114  0.5907  0.8107  0.1172
10481SOL     OW32341   2.706   0.379   3.991 -0.7099 -0.5617 -0.0475
10481SOL    HW132342   2.734   0.450   3.926 -0.3339  0.6870  1.4165
10481SOL    HW232343   2.776   0.307   3.992  0.6815  0.7381  0.9024
10482SOL     OW32344   3.198   4.931   4.511  0.3686 -0.0181 -0.0966
10482SOL    HW132345   3.190   5.028   4.489  0.9268 -0.4927 -2.7528
10482SOL    HW232346   3.110   4.886   4.496  0.6839 -0.3021 -1.1467
10483SOL     OW32347   0.162   5.279   5.415 -0.7095 -0.2235  0.4067
10483SOL    HW132348   0.092   5.348   5.402 -0.0148  0.0754 -2.1410
10483SOL    HW232349   0.253   5.322   5.412 -0.3001 -1.1012 -0.1808
10484SOL     OW32350   6.019   0.451   0.574 -0.6134  0.8111  0.3838
10484SOL    HW132351   6.053   0.374   0.627  0.3563  0.0546 -1.2638
10484SOL    HW232352   5.961   0.418   0.499 -0.8402  1.7401  0.1272
10485SOL     OW32353   3.521   3.546   5.266 -0.3450 -0.2058  0.2785
10485SOL    HW132354   3.446   3.500   5.313 -0.5871 -0.9958 -0.8344
10485SOL    HW232355   3.483   3.606   5.195  0.0690 -0.8018 -0.4581
10486SOL     OW32356   0.371   1.254   6.187 -0.2709 -0.6637  0.3209
10486SOL    HW132357   0.424   1.183   6.235  0.1285 -0.6335 -0.0665
10486SOL    HW232358   0.356   1.331   6.249  0.9981 -0.2490  0.1496
10487SOL     OW32359   1.079   0.902   2.112  0.1920 -0.0936 -0.0344
10487SOL    HW132360   1.084   0.983   2.170  0.7553  0.5125 -0.9051
10487SOL    HW232361   1.014   0.919   2.038 -1.6872 -1.4141  1.2293
10488SOL     OW32362   3.272   2.688   6.307  0.5131  0.1581  0.0342
10488SOL    HW132363   3.179   2.695   6.271  0.4095  1.0439  0.4438
10488SOL    HW232364   3.319   2.611   6.264  0.4284  1.2130 -2.0943
10489SOL     OW32365   0.199   6.869   5.174 -0.0983 -0.2683 -0.6136
10489SOL    HW132366   0.108   6.899   5.201  0.7764  1.1485  0.9082
10489SOL    HW232367   0.212   6.774   5.202  0.1237  0.5947  2.5757
10490SOL     OW32368   5.799   1.621   2.086  0.2426  1.0941 -0.3655
10490SOL    HW132369   5.841   1.706   2.119  1.9008  1.1580 -2.4592
10490SOL    HW232370   5.764   1.634   1.994  0.4783 -0.4952 -0.7102
10491SOL     OW32371   1.564   4.339   5.792  0.2228  0.6279  0.3494
10491SOL    HW132372   1.623   4.258   5.795 -1.9464 -1.0567 -0.3332
10491SOL    HW232373   1.614   4.414   5.748  1.8052 -0.7471 -0.3314
10492SOL     OW32374   4.715   4.715   4.224  0.3165 -0.7124  0.0755
10492SOL    HW132375   4.680   4.809   4.222 -0.3731 -0.9607  0.0321
10492SOL    HW232376   4.725   4.681   4.131  0.2332 -0.7970  0.0971
10493SOL     OW32377   3.969   3.231   1.148 -0.2467 -0.2039 -0.3866
10493SOL    HW132378   3.899   3.161   1.158  0.8338 -1.2706 -0.0215
10493SOL    HW232379   4.059   3.187   1.139  0.3387  1.1041 -1.2515
10494SOL     OW32380   6.994   1.374   3.513  0.3388  0.0445  0.2531
10494SOL    HW132381   7.002   1.277   3.490 -3.2533  0.1609 -2.3759
10494SOL    HW232382   7.025   1.430   3.436  0.3368  0.9171  0.8659
10495SOL     OW32383   2.877   0.472   2.009  0.1120  0.3318 -0.0561
10495SOL    HW132384   2.869   0.552   1.950 -0.7845 -0.3743 -0.9401
10495SOL    HW232385   2.798   0.468   2.070  0.6649  0.6582  0.6894
10496SOL     OW32386   0.954   6.450   1.702 -0.2330  0.5790 -0.8324
10496SOL    HW132387   1.013   6.491   1.771  1.7273  0.2602 -2.2141
10496SOL    HW232388   0.866   6.496   1.701  0.5764  2.2313  0.1843
10497SOL     OW32389   6.585   0.861   0.476  0.4840 -0.2242  0.1114
10497SOL    HW132390   6.651   0.903   0.413  0.0393  1.3431  0.6231
10497SOL    HW232391   6.608   0.889   0.569 -0.2009 -0.6483  0.4049
10498SOL     OW32392   1.921   6.252   6.890 -0.3289 -0.2937 -0.1998
10498SOL    HW132393   1.962   6.194   6.821 -2.1933  0.0482 -1.6788
10498SOL    HW232394   1.982   6.258   6.969  1.8113 -0.8021 -1.7244
10499SOL     OW32395   1.572   0.645   1.343 -0.2872 -0.3324 -0.2973
10499SOL    HW132396   1.541   0.583   1.416  3.2222 -0.4703  1.2654
10499SOL    HW232397   1.551   0.739   1.368 -2.0089 -0.5500 -0.7590
10500SOL     OW32398   2.813   2.233   6.260  0.4916 -0.3204 -0.0421
10500SOL    HW132399   2.778   2.267   6.173 -0.3396 -0.4028  0.2497
10500SOL    HW232400   2.737   2.199   6.315  0.8717  0.6279  1.1069
10501SOL     OW32401   1.813   3.055   3.098  0.0604  0.2075  0.0231
10501SOL    HW132402   1.826   3.151   3.072  1.0110  0.4220  1.1573
10501SOL    HW232403   1.897   3.021   3.141 -1.5859  0.2537  3.6830
10502SOL     OW32404   4.012   6.895   0.867 -0.5108  0.5575  0.3425
10502SOL    HW132405   4.091   6.925   0.813 -0.3222 -1.6976 -0.7750
10502SOL    HW232406   3.963   6.824   0.817 -2.3402  0.7697  1.7257
10503SOL     OW32407   3.933   3.571   0.673 -0.1258  0.3706  0.9171
10503SOL    HW132408   3.929   3.665   0.640 -0.0973  0.1448  0.2695
10503SOL    HW232409   3.853   3.553   0.731 -1.0786  0.2543 -0.3970
10504SOL     OW32410   4.196   4.023   6.548 -0.1275  0.4436  0.3809
10504SOL    HW132411   4.115   3.965   6.553 -0.0024  0.3547  2.7371
10504SOL    HW232412   4.277   3.966   6.529 -0.3612  0.2521 -0.0450
10505SOL     OW32413   5.763   6.239   6.432 -0.4626 -0.1683  0.2756
10505SOL    HW132414   5.805   6.160   6.388 -0.3606  0.4940 -0.8552
10505SOL    HW232415   5.678   6.262   6.384  0.1040  1.1123 -0.1572
10506SOL     OW32416   0.060   3.813   6.472  0.3882  0.0444 -0.4871
10506SOL    HW132417   0.043   3.886   6.538  0.4144 -0.9584  0.6632
10506SOL    HW232418   0.158   3.797   6.465  0.3637 -0.0957 -0.5048
10507SOL     OW32419   1.510   6.555   5.672 -0.9361  0.4600 -0.3511
10507SOL    HW132420   1.546   6.617   5.602 -1.1744  1.1418  0.1161
10507SOL    HW232421   1.584   6.524   5.730 -0.0108 -3.1988 -3.1608
10508SOL     OW32422   5.439   3.935   2.788  0.1475 -0.6027  0.0681
10508SOL    HW132423   5.404   4.028   2.798  1.2633  0.1993 -2.6396
10508SOL    HW232424   5.491   3.910   2.869  0.2078  1.3090  0.6679
10509SOL     OW32425   0.652   0.141   0.635  0.2544  0.0331  0.3621
10509SOL    HW132426   0.589   0.068   0.662  0.9338 -0.6218  0.2212
10509SOL    HW232427   0.746   0.110   0.648  0.5759  0.4189 -0.8652
10510SOL     OW32428   6.719   6.556   0.564 -0.5088  0.0068  0.2673
10510SOL    HW132429   6.712   6.556   0.464 -0.0747  0.7592  0.2284
10510SOL    HW232430   6.732   6.650   0.596  1.0071 -0.3881  0.9018
10511SOL     OW32431   3.212   2.307   0.141  0.6801  0.0753  0.5311
10511SOL    HW132432   3.243   2.402   0.137  1.0111 -0.0479  0.0713
10511SOL    HW232433   3.113   2.304   0.141  0.6326  0.4990  2.4550
10512SOL     OW32434   2.531   4.764   5.528 -0.3843 -0.3863 -0.3576
10512SOL    HW132435   2.598   4.788   5.458 -0.2840  0.2680 -0.0463
10512SOL    HW232436   2.519   4.665   5.530  0.9789 -0.5792 -0.0710
10513SOL     OW32437   0.965   2.693   6.608  0.1753  0.0387  0.3706
10513SOL    HW132438   0.919   2.663   6.691 -0.9299  0.6873  0.0017
10513SOL    HW232439   1.048   2.638   6.595 -0.7236 -1.4674  0.7870
10514SOL     OW32440   6.418   2.448   6.550  0.5211  0.1581 -0.1451
10514SOL    HW132441   6.326   2.440   6.512  0.3795 -1.7164  0.4834
10514SOL    HW232442   6.479   2.487   6.481 -0.9820  2.8360 -0.0864
10515SOL     OW32443   0.456   2.519   2.265 -0.1100 -0.3900  0.0278
10515SOL    HW132444   0.528   2.479   2.322 -0.2353  1.5897  1.7112
10515SOL    HW232445   0.486   2.520   2.169  2.5942  1.1836  0.7686
10516SOL     OW32446   4.462   6.917   4.736 -0.7198  0.0631 -0.3116
10516SOL    HW132447   4.543   6.876   4.696 -1.6197 -1.2186 -0.8958
10516SOL    HW232448   4.463   6.903   4.835 -0.1702  0.1988 -0.2942
10517SOL     OW32449   6.407   0.735   1.531 -0.4675 -0.1724  0.2916
10517SOL    HW132450   6.371   0.699   1.445  0.8486  0.1974 -0.4476
10517SOL    HW232451   6.483   0.798   1.512 -2.6022  3.0540  1.4689
10518SOL     OW32452   1.025   6.061   1.486  0.2122 -0.1189 -0.1145
10518SOL    HW132453   0.938   6.066   1.536 -0.1704  1.6613 -0.8851
10518SOL    HW232454   1.083   6.137   1.514 -0.1713  1.1840 -2.5749
10519SOL     OW32455   3.475   3.752   5.077 -0.6344  0.3976  0.8248
10519SOL    HW132456   3.396   3.802   5.112 -1.1051 -0.9338  1.7631
10519SOL    HW232457   3.556   3.810   5.081 -1.8764  2.6562 -2.3497
10520SOL     OW32458   2.674   2.694   0.722 -0.5879 -0.7151 -0.1701
10520SOL    HW132459   2.755   2.680   0.665 -0.3005 -0.4656  0.1750
10520SOL    HW232460   2.642   2.606   0.756  0.4679 -0.6820  0.9679
10521SOL     OW32461   6.500   6.058   0.961 -0.4017 -0.1704 -0.3835
10521SOL    HW132462   6.434   6.031   1.031 -0.8653 -0.8049 -1.0538
10521SOL    HW232463   6.521   6.156   0.971 -2.0869  0.2548 -0.6694
10522SOL     OW32464   5.447   6.863   1.654 -0.3019  0.1370 -0.4326
10522SOL    HW132465   5.503   6.877   1.735  1.7718  0.0225 -1.7803
10522SOL    HW232466   5.446   6.946   1.598 -2.0968  0.3725 -0.1176
10523SOL     OW32467   5.983   6.585   5.748  0.7529 -0.1640 -0.6190
10523SOL    HW132468   5.891   6.544   5.749  0.5798  0.2095 -0.9819
10523SOL    HW232469   6.036   6.545   5.673  0.8130 -0.2188 -0.5472
10524SOL     OW32470   0.748   6.816   3.812  0.7316 -0.0652  0.0748
10524SOL    HW132471   0.663   6.866   3.832  0.5509 -0.4469  0.2601
10524SOL    HW232472   0.729   6.718   3.811  0.7018 -0.0781 -2.0450
10525SOL     OW32473   3.178   0.871   6.506 -0.4554  0.2582  0.6429
10525SOL    HW132474   3.202   0.781   6.542  0.9263  0.0661 -0.6572
10525SOL    HW232475   3.078   0.877   6.496 -0.4956 -1.9199 -1.1086
10526SOL     OW32476   2.131   2.126   2.933 -0.2023 -0.4205  0.4997
10526SOL    HW132477   2.209   2.095   2.989  1.7120  0.7465 -1.3556
10526SOL    HW232478   2.124   2.068   2.852 -2.2818 -1.4422  1.3488
10527SOL     OW32479   0.957   3.538   2.659 -0.3850  0.2886  0.0954
10527SOL    HW132480   1.013   3.456   2.651 -1.5845 -0.6574  1.0158
10527SOL    HW232481   0.862   3.512   2.681 -1.5012  1.7579 -2.5345
10528SOL     OW32482   0.029   3.658   4.975 -0.5707  0.6755 -0.2706
10528SOL    HW132483  -0.044   3.681   4.909 -0.7740  1.3655  0.1861
10528SOL    HW232484   0.080   3.740   4.998 -0.3615  0.3956  0.2767
10529SOL     OW32485   2.702   0.137   1.907  0.2198 -0.1060  0.1956
10529SOL    HW132486   2.626   0.075   1.924  1.2197 -1.1649  1.0049
10529SOL    HW232487   2.776   0.088   1.862  0.7855  0.6605  0.2654
10530SOL     OW32488   2.319   2.332   6.357  0.2417 -0.0755  0.3945
10530SOL    HW132489   2.222   2.327   6.380  0.4238 -0.2806  1.1246
10530SOL    HW232490   2.374   2.323   6.440  0.9115 -1.3096 -0.1487
10531SOL     OW32491   1.158   3.739   5.921  0.3330  0.1602 -0.5701
10531SOL    HW132492   1.110   3.797   5.987 -1.0700 -0.9422 -0.5839
10531SOL    HW232493   1.254   3.767   5.916  0.4625  0.3616  1.8474
10532SOL     OW32494   3.428   1.812   5.666 -0.0773 -0.4996  1.0832
10532SOL    HW132495   3.390   1.884   5.609  0.9722 -1.6991 -1.2661
10532SOL    HW232496   3.396   1.824   5.760 -1.4940  1.8432  0.3934
10533SOL     OW32497   3.153   1.537   5.034  0.3509  0.1449 -0.2041
10533SOL    HW132498   3.091   1.616   5.040 -4.0694 -2.9403 -0.4558
10533SOL    HW232499   3.205   1.542   4.949  0.4016  2.8333 -0.0950
10534SOL     OW32500   6.316   6.659   5.644  0.0220 -0.0645  0.1509
10534SOL    HW132501   6.304   6.681   5.741 -0.7261  0.1671  0.0188
10534SOL    HW232502   6.322   6.744   5.592  0.5703 -0.1882  0.0073
10535SOL     OW32503   0.325   1.672   2.986 -0.1983 -0.3179  0.2544
10535SOL    HW132504   0.382   1.679   3.068 -0.0300 -0.4175  0.1490
10535SOL    HW232505   0.248   1.734   2.992 -0.5731 -0.8301  0.8032
10536SOL     OW32506   4.984   1.526   2.980  0.7099 -0.3085 -1.1108
10536SOL    HW132507   4.975   1.625   2.982  0.4992 -0.2853 -2.2230
10536SOL    HW232508   4.941   1.486   3.060  0.7499  0.4946 -0.6839
10537SOL     OW32509   3.896   5.200   3.188 -0.2878 -0.6921  0.6568
10537SOL    HW132510   3.922   5.296   3.195  1.0432 -1.0851  1.3940
10537SOL    HW232511   3.978   5.144   3.176 -0.8574 -1.9057  2.1406
10538SOL     OW32512   3.115   3.438   6.681  0.5766 -0.2039  0.0190
10538SOL    HW132513   3.069   3.350   6.672 -0.7048  0.6030 -1.7780
10538SOL    HW232514   3.179   3.450   6.604  0.4700  0.5891  0.0493
10539SOL     OW32515   0.806   3.304   6.675 -0.0646  0.9092  0.2176
10539SOL    HW132516   0.764   3.387   6.712  1.5928  0.9611  2.1685
10539SOL    HW232517   0.786   3.227   6.736  0.4090  0.3893 -0.2794
10540SOL     OW32518   2.754   0.672   0.062  0.1263  0.0685 -0.4137
10540SOL    HW132519   2.776   0.577   0.038  1.8211 -0.1571  1.6885
10540SOL    HW232520   2.838   0.727   0.061 -0.6983  1.3611 -0.8088
10541SOL     OW32521   3.731   3.006   0.185  0.4805  0.6102  0.5422
10541SOL    HW132522   3.792   2.972   0.114  1.7342  2.1549  0.8261
10541SOL    HW232523   3.768   2.982   0.275 -0.4433 -0.2371  0.7203
10542SOL     OW32524   0.137   2.105   0.260 -0.2265 -0.9602 -0.3869
10542SOL    HW132525   0.179   2.116   0.169  2.7186  0.6365  1.0142
10542SOL    HW232526   0.176   2.024   0.304 -0.8815 -1.1456 -0.1440
10543SOL     OW32527   0.219   1.137   0.198 -0.3008  0.1204  0.0738
10543SOL    HW132528   0.224   1.237   0.201 -0.2807  0.2023 -1.5193
10543SOL    HW232529   0.220   1.107   0.102  0.1334 -1.4341  0.5388
10544SOL     OW32530   2.968   1.594   3.468 -0.0233 -0.2474 -0.0336
10544SOL    HW132531   3.010   1.557   3.385 -0.8143  0.6194 -0.8411
10544SOL    HW232532   3.017   1.559   3.548  0.0808 -1.9800 -0.7973
10545SOL     OW32533   6.171   6.795   4.704  0.7655  0.0650 -0.1043
10545SOL    HW132534   6.200   6.825   4.613 -1.5484  0.1902 -0.8615
10545SOL    HW232535   6.172   6.696   4.708 -1.3553 -0.0540 -1.1361
10546SOL     OW32536   2.334   0.188   5.304  0.3710  0.2582 -0.4917
10546SOL    HW132537   2.409   0.248   5.278  0.5809  0.2105 -0.0116
10546SOL    HW232538   2.271   0.237   5.365  0.4179  0.0675 -0.2881
10547SOL     OW32539   4.899   2.273   0.709  0.1563  0.1388  0.3397
10547SOL    HW132540   4.993   2.242   0.700  0.2857  0.4873  0.4820
10547SOL    HW232541   4.898   2.366   0.744 -0.1958  0.6602 -0.9746
10548SOL     OW32542   4.903   2.635   4.848  0.1578  0.1802 -0.5254
10548SOL    HW132543   4.849   2.571   4.903  1.1818  0.4876  0.9301
10548SOL    HW232544   4.986   2.589   4.816  0.3500  0.4509 -0.4230
10549SOL     OW32545   0.948   6.826   1.655 -0.2620  0.2496 -0.2093
10549SOL    HW132546   0.999   6.774   1.587  0.2116  0.1486  0.2127
10549SOL    HW232547   0.860   6.855   1.617  0.4093  1.0401 -1.1897
10550SOL     OW32548   6.483   0.636   2.364 -0.1189 -0.1247  0.3236
10550SOL    HW132549   6.441   0.727   2.368 -0.3660 -0.2833  2.2848
10550SOL    HW232550   6.489   0.606   2.268 -1.4093  1.3068 -0.2454
10551SOL     OW32551   5.885   1.702   6.006 -0.2449  0.3884  0.4274
10551SOL    HW132552   5.867   1.800   5.994 -0.4307  0.1285 -1.7908
10551SOL    HW232553   5.813   1.649   5.962  1.4434 -0.6941 -1.1824
10552SOL     OW32554   2.565   0.403   4.886  0.2314 -0.4715 -0.1472
10552SOL    HW132555   2.588   0.313   4.848  1.9918  0.0723 -0.4469
10552SOL    HW232556   2.598   0.474   4.824 -1.4746  0.4049 -0.0986
10553SOL     OW32557   6.923   4.969   0.354  0.0212 -0.2858 -0.2372
10553SOL    HW132558   7.017   4.991   0.327 -0.0791  0.5076  0.0266
10553SOL    HW232559   6.923   4.932   0.446  0.0620 -0.1429 -0.1794
10554SOL     OW32560   6.501   5.874   6.841 -0.4404 -0.4866 -0.3374
10554SOL    HW132561   6.459   5.899   6.929 -0.1726  1.3796 -0.6834
10554SOL    HW232562   6.458   5.792   6.805 -1.1538 -0.7833  1.1255
10555SOL     OW32563   4.069   0.487   1.704  0.4413  0.0965 -0.4109
10555SOL    HW132564   3.994   0.539   1.746  0.0900  0.0904 -1.0163
10555SOL    HW232565   4.084   0.403   1.756 -1.1401 -0.7582 -1.2672
10556SOL     OW32566   0.620   4.360   4.293 -0.5802  0.3439 -0.0492
10556SOL    HW132567   0.564   4.429   4.247 -0.1434 -1.0598 -2.9186
10556SOL    HW232568   0.714   4.393   4.299 -1.0472  1.4795  2.0921
10557SOL     OW32569   6.760   3.472   4.325  0.3638 -0.1368  0.5460
10557SOL    HW132570   6.713   3.511   4.246  1.2572  0.3755  0.2569
10557SOL    HW232571   6.770   3.373   4.313 -1.3937 -0.4051  1.0150
10558SOL     OW32572   4.648   0.499   5.438  0.5902  0.9017  0.3629
10558SOL    HW132573   4.602   0.451   5.513 -0.0256 -0.6487 -0.9279
10558SOL    HW232574   4.742   0.520   5.464  1.1677 -1.8125  0.7630
10559SOL     OW32575   4.847   1.454   0.573 -0.3454 -0.0409 -0.4890
10559SOL    HW132576   4.788   1.428   0.497  0.7849 -0.4958 -1.2296
10559SOL    HW232577   4.835   1.389   0.648 -1.5060  0.4412 -0.2335
10560SOL     OW32578   0.800   3.755   6.263  0.5084 -0.1514  0.0158
10560SOL    HW132579   0.806   3.703   6.178 -1.7277 -0.7923  0.1867
10560SOL    HW232580   0.855   3.710   6.334  0.4888 -0.9493 -0.4658
10561SOL     OW32581   1.861   5.587   6.897 -0.1860  0.4701  0.3383
10561SOL    HW132582   1.817   5.668   6.936 -0.9226 -0.5488  1.7065
10561SOL    HW232583   1.796   5.536   6.841 -0.5242 -0.5605  1.6324
10562SOL     OW32584   4.541   1.573   6.238 -0.4024 -0.5618 -0.0014
10562SOL    HW132585   4.591   1.513   6.300 -0.9357 -1.1792 -0.1605
10562SOL    HW232586   4.463   1.613   6.285 -2.2151 -2.8900 -0.8824
10563SOL     OW32587   3.707   0.797   5.987  0.3434 -1.2145  0.1725
10563SOL    HW132588   3.783   0.826   5.930 -1.4349  3.6863 -0.2113
10563SOL    HW232589   3.627   0.780   5.929 -0.7866  1.2785  0.8744
10564SOL     OW32590   5.689   2.077   2.957 -0.2464 -0.0913  0.0865
10564SOL    HW132591   5.682   1.977   2.951  0.2495 -0.1145 -0.1400
10564SOL    HW232592   5.784   2.104   2.947  0.0284  0.2167  2.8731
10565SOL     OW32593   6.088   1.298   3.132  0.6538  0.3946 -0.2179
10565SOL    HW132594   6.162   1.332   3.074  0.7034  1.6396  0.5353
10565SOL    HW232595   6.120   1.217   3.182  1.0391  0.0924 -0.9392
10566SOL     OW32596   5.320   3.477   6.888  0.4279 -0.1466 -0.0737
10566SOL    HW132597   5.254   3.519   6.951  0.9458  0.5149  0.0327
10566SOL    HW232598   5.336   3.382   6.916 -0.3147 -0.2503  0.0274
10567SOL     OW32599   6.917   2.640   5.365 -0.4195  0.5190 -0.4975
10567SOL    HW132600   7.011   2.673   5.377  0.6675 -1.0521 -3.6133
10567SOL    HW232601   6.907   2.551   5.408 -0.2589  0.3718 -0.7631
10568SOL     OW32602   5.789   0.263   1.305  0.5898 -0.1962  0.1483
10568SOL    HW132603   5.708   0.321   1.320  0.7645  0.9789 -2.7481
10568SOL    HW232604   5.868   0.305   1.350  0.1347  0.2064  0.5932
10569SOL     OW32605   6.190   1.443   1.834  0.0543 -0.0001  0.4935
10569SOL    HW132606   6.204   1.541   1.850  0.1113 -0.0857  0.9818
10569SOL    HW232607   6.092   1.422   1.841 -0.0190  0.1093 -0.1316
10570SOL     OW32608   1.673   4.339   2.968  0.0296 -0.1796 -0.0826
10570SOL    HW132609   1.694   4.242   2.957 -0.9491 -0.6922  2.0359
10570SOL    HW232610   1.587   4.349   3.017  0.7895  1.7489  0.9739
10571SOL     OW32611   5.631   6.570   2.808 -0.5477  0.2882 -0.2107
10571SOL    HW132612   5.638   6.643   2.875  1.0181 -0.2925  0.3076
10571SOL    HW232613   5.590   6.605   2.724 -2.4987  1.0437  0.9838
10572SOL     OW32614   5.376   4.113   3.628 -0.5626 -0.1528  0.3276
10572SOL    HW132615   5.403   4.209   3.634  0.5302 -0.0917 -3.1872
10572SOL    HW232616   5.280   4.104   3.653 -0.3148  1.5573  2.1425
10573SOL     OW32617   5.756   5.950   2.287  0.4509  0.2740 -0.8782
10573SOL    HW132618   5.693   5.900   2.227 -1.0041  0.4990  0.3821
10573SOL    HW232619   5.815   6.009   2.232  1.0037 -1.4652 -2.2615
10574SOL     OW32620   2.383   1.784   3.022 -0.5011  0.0341  0.5107
10574SOL    HW132621   2.339   1.789   3.112 -0.1839 -0.3394  0.6878
10574SOL    HW232622   2.412   1.876   2.994  0.4368  0.0094  1.3210
10575SOL     OW32623   2.724   1.693   3.867 -0.4903 -0.0084  0.7282
10575SOL    HW132624   2.694   1.658   3.956  0.6990 -0.1620  1.0944
10575SOL    HW232625   2.738   1.616   3.805 -3.7386  0.2107 -0.4612
10576SOL     OW32626   1.007   6.604   4.379 -0.2130 -0.3385 -0.0720
10576SOL    HW132627   0.908   6.590   4.386 -0.2352  0.4035  1.4295
10576SOL    HW232628   1.054   6.530   4.426 -0.1559  0.8282  1.7828
10577SOL     OW32629   2.142   2.522   6.626  0.1305  0.1282 -0.5151
10577SOL    HW132630   2.197   2.496   6.705 -0.5317 -2.5176 -0.8570
10577SOL    HW232631   2.176   2.610   6.590  0.4911  1.3841  2.5768
10578SOL     OW32632   5.995   1.729   6.377 -0.8902  0.0627 -0.2331
10578SOL    HW132633   6.077   1.786   6.388 -0.5727 -0.1365 -1.4441
10578SOL    HW232634   5.927   1.756   6.445  0.2045  0.1665  0.8556
10579SOL     OW32635   2.151   6.841   6.880 -0.6848  0.4324  0.4480
10579SOL    HW132636   2.088   6.844   6.957  0.8668 -0.4969  1.8358
10579SOL    HW232637   2.191   6.932   6.867 -1.4911  0.7662  0.2519
10580SOL     OW32638   6.055   6.948   6.151 -0.6125  0.0718  0.1997
10580SOL    HW132639   6.070   6.943   6.052 -0.5421 -0.7760  0.2399
10580SOL    HW232640   5.987   7.018   6.171  0.9178  1.7820 -0.2688
10581SOL     OW32641   5.442   1.312   4.023 -0.5901  0.4441 -0.1422
10581SOL    HW132642   5.493   1.302   4.108 -0.4089 -3.1581 -0.5099
10581SOL    HW232643   5.497   1.363   3.957  0.1500  1.4391  1.2030
10582SOL     OW32644   4.364   5.404   1.366 -0.4300 -0.2497  0.4622
10582SOL    HW132645   4.292   5.426   1.300 -0.2403  0.5259  0.5138
10582SOL    HW232646   4.363   5.471   1.440  2.9444  2.3558 -1.5407
10583SOL     OW32647   4.324   3.338   6.181 -0.2177  0.4967  0.1860
10583SOL    HW132648   4.268   3.257   6.199  0.4969 -0.5033 -1.8056
10583SOL    HW232649   4.421   3.315   6.193  0.1746  0.2763 -2.6308
10584SOL     OW32650   6.018   6.973   1.301  0.5742  0.3492  0.0361
10584SOL    HW132651   6.064   7.009   1.383  1.4605 -2.5686  0.9395
10584SOL    HW232652   6.078   6.907   1.256 -1.0156 -0.1845 -1.3895
10585SOL     OW32653   1.599   3.603   5.203 -0.3075 -0.0310 -0.1377
10585SOL    HW132654   1.682   3.659   5.198 -0.0526 -0.1900  1.5551
10585SOL    HW232655   1.608   3.537   5.278 -1.2983 -1.1975 -1.0092
10586SOL     OW32656   2.586   4.980   6.320 -0.2189  0.2414 -0.2159
10586SOL    HW132657   2.522   4.967   6.244  0.0522  2.1970 -0.8330
10586SOL    HW232658   2.536   4.977   6.407 -0.8218 -0.1934 -0.5724
10587SOL     OW32659   4.742   3.639   0.541  0.0168  0.1840  0.1235
10587SOL    HW132660   4.748   3.733   0.508 -1.8018  0.1403 -0.4503
10587SOL    HW232661   4.646   3.615   0.555  0.5452 -0.9115  2.2827
10588SOL     OW32662   2.435   4.871   1.976  0.2410 -0.1869 -0.8531
10588SOL    HW132663   2.432   4.925   1.892  2.6372  0.4298 -0.6163
10588SOL    HW232664   2.479   4.783   1.956  0.5204 -0.1674 -0.3331
10589SOL     OW32665   0.264   1.628   3.462 -0.2565 -0.0708  0.3410
10589SOL    HW132666   0.202   1.612   3.386  0.0394 -2.1253  0.4860
10589SOL    HW232667   0.270   1.726   3.480 -0.6808  0.4321 -1.9632
10590SOL     OW32668   1.512   0.559   1.615 -0.1087 -0.0366  0.7856
10590SOL    HW132669   1.511   0.596   1.708  0.6969  0.9571  0.4200
10590SOL    HW232670   1.552   0.468   1.616 -0.1948 -0.0697  1.4287
10591SOL     OW32671   2.642   6.831   6.781  0.1712 -0.7712 -0.0182
10591SOL    HW132672   2.656   6.918   6.733 -0.9285 -1.8372 -2.4643
10591SOL    HW232673   2.729   6.783   6.790  1.1057  1.1863  2.8588
10592SOL     OW32674   1.280   1.480   0.351  0.7614  0.1750 -0.2255
10592SOL    HW132675   1.290   1.526   0.439  1.4747  1.0037 -0.7353
10592SOL    HW232676   1.188   1.439   0.346  0.8328 -0.1853  1.0304
10593SOL     OW32677   2.614   4.803   1.044 -0.0070 -0.6653 -0.4135
10593SOL    HW132678   2.558   4.732   1.002 -0.7134 -0.9672  0.9554
10593SOL    HW232679   2.605   4.888   0.993  0.0947 -1.3017 -1.5239
10594SOL     OW32680   6.269   1.818   4.451 -0.5957 -0.2475 -0.0803
10594SOL    HW132681   6.267   1.855   4.358 -0.5956  2.3327  0.8614
10594SOL    HW232682   6.187   1.763   4.466  0.1119 -1.9872 -2.0216
10595SOL     OW32683   5.138   6.027   4.769  0.4564 -0.2233  0.4524
10595SOL    HW132684   5.123   6.069   4.679 -1.1084  0.9948  1.2322
10595SOL    HW232685   5.115   5.930   4.764 -0.6988  0.0617 -0.2172
10596SOL     OW32686   3.316   6.232   3.537 -0.0568  0.1738 -0.4006
10596SOL    HW132687   3.385   6.182   3.590 -0.6474 -0.6596 -0.4116
10596SOL    HW232688   3.309   6.193   3.446  1.7621  2.3038 -1.5599
10597SOL     OW32689   2.536   0.831   4.931 -0.2063  0.0388  0.6379
10597SOL    HW132690   2.495   0.785   4.852  2.8769  0.8486 -1.6635
10597SOL    HW232691   2.581   0.764   4.989  1.5115 -0.2864 -0.9522
10598SOL     OW32692   0.993   4.007   1.050 -0.3395  0.2282  0.3707
10598SOL    HW132693   0.976   3.967   0.959  0.6302  2.0236 -0.6690
10598SOL    HW232694   1.044   4.093   1.039 -0.0653  0.4114  2.6498
10599SOL     OW32695   6.741   1.660   5.601  0.0614  0.2178 -0.6227
10599SOL    HW132696   6.755   1.682   5.505  0.0258  0.5609 -0.5522
10599SOL    HW232697   6.658   1.605   5.611  0.8209 -1.0175 -0.9360
10600SOL     OW32698   3.359   2.283   5.531 -0.4143 -0.4355 -0.6652
10600SOL    HW132699   3.409   2.254   5.449 -0.5707  0.2059 -0.9964
10600SOL    HW232700   3.421   2.332   5.592 -0.5781  0.1680 -0.9750
10601SOL     OW32701   3.181   0.178   6.729 -0.2304 -0.6520  0.2417
10601SOL    HW132702   3.278   0.202   6.728 -0.0473 -1.0610  2.5399
10601SOL    HW232703   3.130   0.248   6.777 -0.7218 -1.5154  1.0144
10602SOL     OW32704   4.427   0.676   0.619  0.6157  0.3238  0.2046
10602SOL    HW132705   4.340   0.722   0.603  0.2438 -0.5717 -0.4912
10602SOL    HW232706   4.471   0.714   0.700 -0.3031  0.9573  0.4258
10603SOL     OW32707   0.074   4.696   5.117  0.8535  0.3569 -0.6165
10603SOL    HW132708  -0.023   4.705   5.136  0.9849  2.1060 -0.5462
10603SOL    HW232709   0.110   4.613   5.159 -0.3597  0.3222  0.3869
10604SOL     OW32710   6.151   6.214   5.111 -0.1567 -0.8604 -0.0357
10604SOL    HW132711   6.215   6.210   5.188  0.7567  1.1588 -0.6311
10604SOL    HW232712   6.058   6.200   5.145  0.1611  0.5452  1.5523
10605SOL     OW32713   0.630   4.277   6.725  0.3622 -0.1898  0.8058
10605SOL    HW132714   0.728   4.265   6.740  1.3849  1.5760 -3.1935
10605SOL    HW232715   0.611   4.372   6.701 -2.3346 -0.5549  1.1983
10606SOL     OW32716   6.941   0.621   0.897  0.0136 -0.2690 -0.3612
10606SOL    HW132717   7.017   0.685   0.885 -1.5557  1.7009 -0.2168
10606SOL    HW232718   6.908   0.625   0.991 -0.3442 -1.0535 -0.4436
10607SOL     OW32719   4.668   5.967   1.240  0.0450  0.2138 -0.4071
10607SOL    HW132720   4.668   6.063   1.213  1.7872  0.4643  0.3336
10607SOL    HW232721   4.631   5.958   1.332 -0.1278  0.1815 -0.4805
10608SOL     OW32722   6.255   1.938   4.727  0.2391 -0.4764  0.3817
10608SOL    HW132723   6.282   1.891   4.643 -0.1872  0.8437 -0.5160
10608SOL    HW232724   6.306   2.023   4.736  1.3088 -1.2360  2.2110
10609SOL     OW32725   2.792   5.493   1.445 -0.1757 -0.5093  0.4577
10609SOL    HW132726   2.889   5.477   1.460 -0.0939  0.5309  1.1625
10609SOL    HW232727   2.765   5.578   1.490 -1.9364 -1.9902  2.4356
10610SOL     OW32728   0.510   3.220   6.258 -0.1301  0.2482 -0.4351
10610SOL    HW132729   0.452   3.297   6.233 -1.0582 -0.3631 -0.1833
10610SOL    HW232730   0.579   3.250   6.324  1.2830  1.4940 -2.3695
10611SOL     OW32731   4.787   4.515   6.220 -0.4316 -0.3078 -0.5319
10611SOL    HW132732   4.807   4.597   6.275  1.0408  0.5692 -2.2422
10611SOL    HW232733   4.864   4.452   6.225  0.1240  0.1859 -2.2112
10612SOL     OW32734   2.475   5.914   5.744  0.3177  0.4759 -0.3650
10612SOL    HW132735   2.547   5.888   5.679 -1.8177 -1.2647 -2.2083
10612SOL    HW232736   2.460   5.840   5.809 -0.2849  0.4830 -0.4860
10613SOL     OW32737   0.324   6.338   5.434 -0.3887 -0.5691  0.0530
10613SOL    HW132738   0.278   6.423   5.409 -0.9637 -0.0708  2.5376
10613SOL    HW232739   0.335   6.281   5.353  0.0084  1.8381 -1.6864
10614SOL     OW32740   5.522   0.077   3.174 -0.0263  0.2144  0.4259
10614SOL    HW132741   5.426   0.103   3.174 -0.4270 -1.2073  0.0022
10614SOL    HW232742   5.555   0.069   3.080  0.2526 -0.2162  0.5559
10615SOL     OW32743   6.727   4.845   3.159  0.1854  0.3289  0.0725
10615SOL    HW132744   6.810   4.810   3.115  0.4609  0.9947  0.0486
10615SOL    HW232745   6.695   4.779   3.227  0.4921 -0.1271 -0.2195
10616SOL     OW32746   3.476   4.998   3.013 -0.1705 -0.6447  0.3024
10616SOL    HW132747   3.411   4.954   3.076 -0.3898 -1.6284 -0.5887
10616SOL    HW232748   3.434   5.007   2.923  0.5677 -0.3209 -0.0172
10617SOL     OW32749   0.881   2.016   1.254 -0.2453  0.4140 -0.0237
10617SOL    HW132750   0.855   1.953   1.327 -0.7223 -0.1149 -0.6362
10617SOL    HW232751   0.968   2.059   1.276  0.3219 -0.8100  0.1932
10618SOL     OW32752   4.977   1.544   5.515 -0.1574  0.2838  0.5047
10618SOL    HW132753   4.984   1.469   5.450  0.8877  0.1264  0.7834
10618SOL    HW232754   5.055   1.542   5.577 -0.5426  1.1173  1.0340
10619SOL     OW32755   1.809   3.147   2.288  0.3651 -0.0461  0.3231
10619SOL    HW132756   1.787   3.052   2.268  1.1732 -0.0552 -0.6032
10619SOL    HW232757   1.908   3.159   2.287  0.2543  0.9128 -0.1366
10620SOL     OW32758   6.979   6.715   3.889  0.5815  0.6222  0.1195
10620SOL    HW132759   7.052   6.648   3.895 -0.1727 -0.1211  2.6516
10620SOL    HW232760   6.900   6.684   3.943 -1.3528  1.7343 -1.8695
10621SOL     OW32761   1.564   5.319   5.613  0.2017 -0.3610  0.0084
10621SOL    HW132762   1.607   5.346   5.699  0.8206  0.1796 -0.4574
10621SOL    HW232763   1.464   5.316   5.625  0.3555 -2.7131  1.4086
10622SOL     OW32764   4.253   6.573   2.240 -0.0059 -0.6582 -0.6802
10622SOL    HW132765   4.285   6.651   2.294  0.0513 -0.9489 -0.2915
10622SOL    HW232766   4.308   6.493   2.261 -0.3617 -0.9196 -0.7376
10623SOL     OW32767   5.652   3.045   2.448  0.0068  0.2010  0.1762
10623SOL    HW132768   5.632   3.128   2.501  0.0394 -0.7547  1.7486
10623SOL    HW232769   5.581   3.031   2.380 -0.9601  0.5589  1.0952
10624SOL     OW32770   1.246   1.374   5.879 -0.1701  0.3079  0.0836
10624SOL    HW132771   1.339   1.370   5.843 -0.1037 -0.2365  0.3132
10624SOL    HW232772   1.194   1.295   5.849  0.4812 -1.2637  2.7673
10625SOL     OW32773   0.698   2.756   1.475  0.1786 -0.6691 -0.2278
10625SOL    HW132774   0.687   2.850   1.444  1.7268  0.3690  2.0764
10625SOL    HW232775   0.740   2.701   1.402  0.3858  0.7225 -1.1937
10626SOL     OW32776   1.646   2.326   1.535 -0.5250 -0.1055 -0.1235
10626SOL    HW132777   1.684   2.262   1.469 -0.1938  0.6186 -0.6472
10626SOL    HW232778   1.576   2.280   1.590 -0.0067 -1.0142 -0.2139
10627SOL     OW32779   6.115   6.012   2.500  0.0599 -0.2452 -0.4014
10627SOL    HW132780   6.141   6.038   2.593 -2.5334  0.5244  0.2048
10627SOL    HW232781   6.136   6.087   2.437 -0.1140  0.1168 -0.0355
10628SOL     OW32782   6.209   5.639   4.429 -0.1991 -0.2227  0.4924
10628SOL    HW132783   6.118   5.598   4.415  0.9188 -1.8954 -2.7248
10628SOL    HW232784   6.259   5.640   4.343  2.6142  1.3758  2.0086
10629SOL     OW32785   2.212   6.164   4.617  0.1401 -0.4774  0.3092
10629SOL    HW132786   2.287   6.212   4.664  0.0997 -0.4119  0.3065
10629SOL    HW232787   2.179   6.220   4.541  0.2725 -0.6264  0.1396
10630SOL     OW32788   5.800   5.856   3.940 -0.1767 -0.2953  0.4612
10630SOL    HW132789   5.876   5.845   4.003  0.1282 -1.5855 -0.1044
10630SOL    HW232790   5.821   5.809   3.854 -0.5792  1.3904 -0.6164
10631SOL     OW32791   1.443   6.906   2.916 -0.6110  0.2590 -0.1535
10631SOL    HW132792   1.500   6.986   2.932  2.5736 -1.2937 -2.4970
10631SOL    HW232793   1.486   6.825   2.956 -0.3747 -1.1929 -3.0713
10632SOL     OW32794   5.212   3.402   3.891 -0.1426 -0.4646 -0.5789
10632SOL    HW132795   5.275   3.408   3.813  0.3721  2.5981 -0.0475
10632SOL    HW232796   5.145   3.475   3.885 -0.5107 -0.5908  1.5006
10633SOL     OW32797   2.583   4.668   1.909  0.2067 -0.2265 -0.8575
10633SOL    HW132798   2.682   4.662   1.923  0.3410  0.3754 -1.4893
10633SOL    HW232799   2.559   4.626   1.821 -0.3474 -2.0276  0.1023
10634SOL     OW32800   1.294   5.973   2.707  0.8483  0.0713 -0.2969
10634SOL    HW132801   1.223   5.952   2.774  2.8936 -1.9203  1.3962
10634SOL    HW232802   1.322   6.068   2.718  0.4654  0.0526  1.0199
10635SOL     OW32803   2.319   0.624   6.083 -0.5412 -0.1504  0.1600
10635SOL    HW132804   2.301   0.621   6.182 -1.4260  1.0995  0.0629
10635SOL    HW232805   2.311   0.719   6.051 -0.2563 -0.5396 -1.1223
10636SOL     OW32806   2.841   0.690   1.860 -0.2219  0.3011 -0.1352
10636SOL    HW132807   2.857   0.649   1.771 -0.9501 -0.2903  0.0003
10636SOL    HW232808   2.852   0.789   1.853  1.6363  0.1167 -0.4414
10637SOL     OW32809   3.577   3.748   5.696 -0.1004 -0.3170 -0.1983
10637SOL    HW132810   3.615   3.798   5.774 -0.4662 -0.6658  0.2094
10637SOL    HW232811   3.588   3.650   5.712  0.2854 -0.3766 -0.8234
10638SOL     OW32812   0.883   6.319   5.340  0.0047  0.3206 -0.0999
10638SOL    HW132813   0.811   6.336   5.273  0.5379  1.1141 -0.4845
10638SOL    HW232814   0.900   6.220   5.347 -1.5786  0.0697  0.5019
10639SOL     OW32815   6.442   2.457   5.015 -0.4160 -0.4990  0.1745
10639SOL    HW132816   6.425   2.502   4.927  0.8828 -0.9537 -0.3308
10639SOL    HW232817   6.355   2.429   5.055 -0.9947 -0.9212 -1.3121
10640SOL     OW32818   5.208   0.672   0.807  0.6494  0.0472 -0.2295
10640SOL    HW132819   5.150   0.696   0.885  1.3382 -0.8032  0.5729
10640SOL    HW232820   5.176   0.720   0.725  0.6677  1.9404  0.8228
10641SOL     OW32821   5.961   0.882   5.715  0.3947 -0.3781  0.3820
10641SOL    HW132822   5.871   0.899   5.676  0.4355 -0.0409  0.4285
10641SOL    HW232823   6.031   0.899   5.645  0.4147 -0.8047  0.2960
10642SOL     OW32824   0.220   1.957   1.234 -0.3590 -0.0988 -0.0085
10642SOL    HW132825   0.157   1.902   1.179 -0.7205 -0.9612  1.2150
10642SOL    HW232826   0.302   1.977   1.181 -0.5554 -1.1824 -0.7557
10643SOL     OW32827   1.792   5.585   6.213 -0.6232 -0.4837 -0.1751
10643SOL    HW132828   1.885   5.589   6.179 -0.3029 -0.1099  0.7044
10643SOL    HW232829   1.793   5.561   6.310 -1.1494  3.4793  0.9701
10644SOL     OW32830   3.832   2.386   1.617  0.0254 -0.2802 -0.2710
10644SOL    HW132831   3.782   2.386   1.703 -0.5767  0.7121 -0.6113
10644SOL    HW232832   3.851   2.480   1.589  1.3175 -0.6217 -0.5969
10645SOL     OW32833   4.011   0.711   5.539 -0.4482 -0.0741 -0.6858
10645SOL    HW132834   4.063   0.745   5.461 -0.8979  0.5227 -0.7324
10645SOL    HW232835   4.020   0.612   5.545 -1.0097 -0.2156 -1.9526
10646SOL     OW32836   1.651   1.208   0.233 -0.3416  0.1631 -0.0192
10646SOL    HW132837   1.747   1.180   0.229  0.5380  2.9691 -1.1770
10646SOL    HW232838   1.639   1.294   0.183 -3.2115  0.6280  1.2489
10647SOL     OW32839   0.015   5.843   0.729 -0.1949  0.0205 -0.7078
10647SOL    HW132840   0.033   5.829   0.827 -0.7824  1.3265 -0.3922
10647SOL    HW232841  -0.050   5.774   0.697  0.5311 -0.8544 -0.3720
10648SOL     OW32842   5.949   1.536   6.208  0.1318  0.4106  1.1452
10648SOL    HW132843   5.946   1.575   6.117 -2.3035 -1.6815  0.2186
10648SOL    HW232844   5.951   1.609   6.276 -1.3941  2.0814 -0.5148
10649SOL     OW32845   1.002   5.358   4.963  0.3423  0.3990  0.1168
10649SOL    HW132846   1.049   5.277   4.929 -1.0154 -0.0955 -0.6850
10649SOL    HW232847   0.905   5.353   4.938  0.1725  2.1410  0.2844
10650SOL     OW32848   2.932   6.654   4.295 -0.2631  0.2834  0.3444
10650SOL    HW132849   2.891   6.727   4.350  0.2669  1.3202 -0.6092
10650SOL    HW232850   2.910   6.565   4.337 -2.3682  0.8564  0.5857
10651SOL     OW32851   4.765   5.456   4.479 -0.5269 -0.5954  0.1655
10651SOL    HW132852   4.722   5.545   4.492  1.3533  0.4413 -0.3372
10651SOL    HW232853   4.694   5.386   4.468 -2.0461  0.8405  0.3809
10652SOL     OW32854   2.771   6.352   4.697  0.1532  0.3761  0.1335
10652SOL    HW132855   2.860   6.377   4.660  0.2576  0.8745  0.7036
10652SOL    HW232856   2.776   6.261   4.737  0.7784  0.9245  1.3551
10653SOL     OW32857   5.266   4.281   5.048 -0.0950 -0.1056  0.0079
10653SOL    HW132858   5.227   4.227   4.973 -1.8658  0.5627  0.4093
10653SOL    HW232859   5.199   4.290   5.122  1.2701  0.0597  1.2889
10654SOL     OW32860   3.151   1.214   0.654 -0.0611 -0.2135  0.0693
10654SOL    HW132861   3.085   1.273   0.700  1.3627  1.7568 -0.2957
10654SOL    HW232862   3.203   1.163   0.722  1.4347  2.0309  0.7066
10655SOL     OW32863   4.306   0.162   0.813 -0.3206 -0.2942  0.2501
10655SOL    HW132864   4.392   0.111   0.811 -1.2279 -1.8926 -1.9943
10655SOL    HW232865   4.325   0.259   0.802  1.1877 -0.6926 -0.9851
10656SOL     OW32866   4.539   3.700   1.571 -0.5706 -0.0185  0.0599
10656SOL    HW132867   4.570   3.794   1.584  0.1964 -0.1382 -0.7932
10656SOL    HW232868   4.606   3.637   1.611 -1.4689 -0.1953  1.3357
10657SOL     OW32869   3.671   1.025   0.879 -0.3442 -0.5813 -0.3239
10657SOL    HW132870   3.669   1.118   0.843 -1.6870 -0.9547 -1.2975
10657SOL    HW232871   3.711   1.026   0.971 -0.0147  0.8925 -0.4566
10658SOL     OW32872   0.336   4.974   4.886  0.2543  0.1881  0.1983
10658SOL    HW132873   0.351   4.878   4.907 -1.3997 -0.1445  0.0122
10658SOL    HW232874   0.395   5.002   4.810  1.2973 -0.4550  0.7531
10659SOL     OW32875   7.012   5.701   0.379  0.3681  0.0503 -0.1096
10659SOL    HW132876   7.053   5.707   0.288  0.2149  0.6451 -0.1404
10659SOL    HW232877   6.968   5.788   0.402  1.7745  0.4596  1.1957
10660SOL     OW32878   4.114   3.381   5.995  0.0751 -0.3692 -0.2215
10660SOL    HW132879   4.170   3.298   5.986 -0.5114 -0.7297 -0.6089
10660SOL    HW232880   4.138   3.428   6.080 -0.0617 -1.3031  0.3560
10661SOL     OW32881   6.376   6.218   3.416  0.6474 -0.4968  0.4787
10661SOL    HW132882   6.377   6.300   3.358 -0.4050 -0.0167  1.1015
10661SOL    HW232883   6.349   6.139   3.362 -1.2840  0.1173  0.4619
10662SOL     OW32884   1.136   1.567   2.066  0.7689  0.1123  0.1473
10662SOL    HW132885   1.079   1.611   1.997  0.3393 -0.2322  0.2791
10662SOL    HW232886   1.205   1.632   2.099  1.0785  0.2240 -0.7175
10663SOL     OW32887   0.705   7.000   2.188  0.0026 -0.0230 -0.0456
10663SOL    HW132888   0.670   7.094   2.190  0.2205  0.0591  0.1947
10663SOL    HW232889   0.786   6.996   2.129 -1.2776 -0.5417 -1.8455
10664SOL     OW32890   1.855   4.931   0.899  0.1630  0.2799  0.0845
10664SOL    HW132891   1.919   4.903   0.827  2.2331  0.7195  1.6598
10664SOL    HW232892   1.766   4.887   0.883  1.4097 -2.0463 -1.0565
10665SOL     OW32893   5.896   3.077   1.431 -0.0983  0.3812 -0.0836
10665SOL    HW132894   5.954   2.996   1.427 -0.6842 -0.1040  0.9055
10665SOL    HW232895   5.838   3.073   1.512 -0.2052  1.7529 -0.0635
10666SOL     OW32896   0.867   6.167   0.326 -0.3828  0.3303  0.9092
10666SOL    HW132897   0.843   6.263   0.315 -1.3997 -0.0133 -0.1021
10666SOL    HW232898   0.786   6.116   0.356 -0.5687 -0.5947 -0.9914
10667SOL     OW32899   6.337   1.086   5.450 -0.4063 -0.1981  0.3432
10667SOL    HW132900   6.366   1.162   5.508  1.2595 -1.4383  1.2236
10667SOL    HW232901   6.410   1.063   5.386 -0.9517 -0.9489 -0.0331
10668SOL     OW32902   0.720   1.595   0.334  0.6761 -0.3799  0.0317
10668SOL    HW132903   0.680   1.621   0.422  0.2963  1.7126 -0.7098
10668SOL    HW232904   0.818   1.611   0.337  0.3843  1.7772 -0.5744
10669SOL     OW32905   0.454   0.807   6.426 -0.8728 -0.6723  0.3458
10669SOL    HW132906   0.500   0.805   6.337 -1.1176  1.4511  0.1114
10669SOL    HW232907   0.500   0.745   6.489  1.0645 -0.1509 -0.4706
10670SOL     OW32908   5.053   2.330   5.493  0.1800 -0.4757  0.0032
10670SOL    HW132909   5.011   2.401   5.549  2.8718 -0.1804  1.8495
10670SOL    HW232910   5.110   2.271   5.551  0.1272 -2.5287 -1.8979
10671SOL     OW32911   3.390   0.965   2.726  0.0226  0.1924  0.6481
10671SOL    HW132912   3.454   0.914   2.668  3.8111  2.0642  2.7291
10671SOL    HW232913   3.391   1.061   2.700 -0.3287  0.5914  2.0282
10672SOL     OW32914   6.251   2.366   2.246  0.2398  0.6341  0.0263
10672SOL    HW132915   6.284   2.329   2.158 -0.6762  0.1101 -0.1115
10672SOL    HW232916   6.173   2.427   2.229 -0.8092 -0.5149  0.5572
10673SOL     OW32917   3.183   3.214   5.295  0.2737 -0.1369  0.0762
10673SOL    HW132918   3.191   3.206   5.196 -0.7068 -0.0471 -0.0201
10673SOL    HW232919   3.253   3.157   5.338  2.0797  1.4333 -0.6505
10674SOL     OW32920   3.051   3.232   1.283 -0.2913 -0.0251  0.3421
10674SOL    HW132921   2.965   3.241   1.334 -0.6151  1.1469 -0.3650
10674SOL    HW232922   3.036   3.175   1.203 -0.3804  0.0870  0.2791
10675SOL     OW32923   0.230   0.209   0.223  0.2211  0.2799 -0.1533
10675SOL    HW132924   0.283   0.161   0.153  0.1641  1.9047 -1.3746
10675SOL    HW232925   0.292   0.248   0.291  0.3590 -0.2820  0.0536
10676SOL     OW32926   4.412   5.450   5.678 -0.5427  0.2175 -0.4358
10676SOL    HW132927   4.486   5.458   5.745 -0.9022 -0.4490  0.0574
10676SOL    HW232928   4.339   5.514   5.703 -0.5229  0.2275 -0.4017
10677SOL     OW32929   0.065   0.272   1.216 -0.2916  0.1088  0.6098
10677SOL    HW132930   0.117   0.224   1.145 -0.5786  1.1966 -0.3761
10677SOL    HW232931   0.044   0.209   1.291 -0.7589 -1.3362 -0.6769
10678SOL     OW32932   2.267   6.131   4.280 -0.0159  0.2498  0.1619
10678SOL    HW132933   2.232   6.047   4.321  0.5773 -0.7751 -1.3588
10678SOL    HW232934   2.362   6.145   4.309 -0.2866  0.7145  0.8541
10679SOL     OW32935   6.685   5.395   2.846  0.0358  1.1439  0.1747
10679SOL    HW132936   6.590   5.369   2.864 -0.1905  0.6561 -1.5118
10679SOL    HW232937   6.744   5.357   2.917 -0.7348 -0.9705 -0.2314
10680SOL     OW32938   1.508   3.747   1.207 -0.0923 -0.1005  0.4620
10680SOL    HW132939   1.478   3.694   1.128 -0.2694 -1.1299  1.1863
10680SOL    HW232940   1.470   3.839   1.203 -0.1474 -0.1628 -0.6098
10681SOL     OW32941   5.814   2.301   4.257 -0.1122  0.4312 -0.8704
10681SOL    HW132942   5.766   2.341   4.335 -0.4200 -0.2113 -0.7258
10681SOL    HW232943   5.851   2.211   4.282 -1.0076 -0.2023 -1.7239
10682SOL     OW32944   0.491   1.720   2.121  0.1421  0.1135 -0.6886
10682SOL    HW132945   0.498   1.629   2.080  0.2395 -0.9815  1.6025
10682SOL    HW232946   0.548   1.724   2.203 -0.1719  2.1244 -0.5158
10683SOL     OW32947   1.938   2.543   4.696  0.3248 -0.4714  0.1259
10683SOL    HW132948   1.995   2.617   4.660  2.2503 -2.1119 -0.3607
10683SOL    HW232949   1.938   2.547   4.796 -0.2262  0.6193  0.0976
10684SOL     OW32950   5.292   5.385   0.441  0.2126  1.0366  0.4412
10684SOL    HW132951   5.351   5.336   0.506 -0.4122  0.2994  0.4695
10684SOL    HW232952   5.342   5.400   0.356  0.2683 -0.0883  0.2592
10685SOL     OW32953   6.729   3.883   2.763 -0.1577  0.2491 -0.2724
10685SOL    HW132954   6.704   3.820   2.837  0.4329 -0.0521 -0.3218
10685SOL    HW232955   6.821   3.918   2.779  0.4149 -0.6749 -1.4277
10686SOL     OW32956   2.714   4.134   0.419  0.8248 -0.2042 -0.2293
10686SOL    HW132957   2.697   4.227   0.451 -1.6149 -1.0145  1.1060
10686SOL    HW232958   2.798   4.099   0.461  1.1145  0.9545  0.1946
10687SOL     OW32959   6.824   3.202   2.609  0.2322 -0.0041  0.1110
10687SOL    HW132960   6.860   3.111   2.589 -0.1416 -0.0438 -0.4191
10687SOL    HW232961   6.755   3.195   2.681 -2.5175 -0.7535 -2.3789
10688SOL     OW32962   5.321   5.315   2.282  0.1111  0.3565 -0.1226
10688SOL    HW132963   5.338   5.217   2.284 -0.9069  0.1680  0.4759
10688SOL    HW232964   5.396   5.363   2.327  0.4165 -0.1796 -0.0522
10689SOL     OW32965   6.676   1.434   3.849 -0.2951 -0.2207 -0.5551
10689SOL    HW132966   6.631   1.439   3.760  0.8752 -2.1689 -1.3087
10689SOL    HW232967   6.763   1.481   3.846  0.4422 -1.5478 -0.9450
10690SOL     OW32968   4.391   3.549   6.978 -0.6269  0.6296 -0.3385
10690SOL    HW132969   4.466   3.615   6.983  0.1602 -0.0219 -2.5702
10690SOL    HW232970   4.314   3.581   7.033  2.2591 -0.1355  4.8147
10691SOL     OW32971   6.394   0.749   1.825 -0.4812  0.0550 -0.3921
10691SOL    HW132972   6.429   0.724   1.736 -1.1958 -1.1711 -0.3449
10691SOL    HW232973   6.421   0.843   1.847  2.6006 -0.7340 -0.4128
10692SOL     OW32974   5.072   4.954   4.049  0.2319 -0.3962  0.1508
10692SOL    HW132975   5.069   5.009   4.133 -0.3512 -1.1792  0.6605
10692SOL    HW232976   5.129   5.000   3.981  1.7281 -0.3077  1.3863
10693SOL     OW32977   5.747   0.761   0.622  0.3079 -0.1187  0.1964
10693SOL    HW132978   5.725   0.768   0.719  1.1968 -0.4315  0.4222
10693SOL    HW232979   5.672   0.801   0.568  0.4981  1.4763  1.0649
10694SOL     OW32980   4.030   6.206   0.727  0.9984  0.1204 -0.4042
10694SOL    HW132981   4.078   6.123   0.698  0.0743 -0.9859  1.0684
10694SOL    HW232982   4.089   6.260   0.787  1.3308  0.1528 -0.7560
10695SOL     OW32983   0.769   2.698   3.297 -0.4410 -0.0668 -0.0602
10695SOL    HW132984   0.812   2.612   3.324 -0.8667 -0.1363  0.4134
10695SOL    HW232985   0.670   2.692   3.312 -0.3769  0.8098  0.8274
10696SOL     OW32986   5.664   5.162   0.408  0.2189  0.0559  0.1678
10696SOL    HW132987   5.741   5.136   0.465  0.3188 -1.6607 -0.7047
10696SOL    HW232988   5.655   5.098   0.332 -1.4835  0.7805 -0.2906
10697SOL     OW32989   1.692   5.752   3.516  0.1126  0.0021  0.1247
10697SOL    HW132990   1.688   5.672   3.456 -1.7391  0.2761 -0.1787
10697SOL    HW232991   1.612   5.809   3.500 -1.4147 -0.7672  4.0005
10698SOL     OW32992   3.497   6.335   2.663  0.0539  0.2591  0.0092
10698SOL    HW132993   3.542   6.268   2.604  0.4819  0.8889 -0.3916
10698SOL    HW232994   3.503   6.426   2.621  1.6702  0.9847  1.6722
10699SOL     OW32995   1.435   0.485   3.646 -0.6148 -0.1714 -0.0316
10699SOL    HW132996   1.515   0.452   3.596 -1.0815  0.0759 -0.9618
10699SOL    HW232997   1.353   0.469   3.591 -1.3850 -1.6975  1.4908
10700SOL     OW32998   5.935   2.134   4.955  0.4006 -0.1252  0.0424
10700SOL    HW132999   5.955   2.079   4.874 -2.4891 -0.5030 -0.5057
10700SOL    HW233000   6.021   2.159   5.000  1.9627 -2.0066 -1.7093
10701SOL     OW33001   2.862   6.554   1.984  0.3318  0.6161 -0.2668
10701SOL    HW133002   2.784   6.529   1.927 -1.1737 -0.2144  2.0195
10701SOL    HW233003   2.833   6.620   2.053  1.1325 -1.0645  1.7909
10702SOL     OW33004   1.135   3.079   0.520 -0.1025 -0.0042 -0.3840
10702SOL    HW133005   1.126   3.034   0.431  1.8758 -1.1483 -0.0622
10702SOL    HW233006   1.166   3.173   0.507 -2.5012  0.7700 -0.9804
10703SOL     OW33007   3.578   3.146   2.672 -0.0562  0.4055  0.2638
10703SOL    HW133008   3.479   3.145   2.680  0.0126 -1.3480  1.3444
10703SOL    HW233009   3.606   3.225   2.618 -2.1263  0.1550 -1.3012
10704SOL     OW33010   6.167   0.946   0.599  0.1420  0.1625  0.2965
10704SOL    HW133011   6.113   0.867   0.570 -0.7762  1.1557 -0.8000
10704SOL    HW233012   6.202   0.930   0.692 -1.8431 -0.6246  0.9728
10705SOL     OW33013   6.287   4.070   6.513  0.2522 -0.2648  0.1147
10705SOL    HW133014   6.197   4.030   6.492  0.2480  0.2804 -0.9806
10705SOL    HW233015   6.358   4.002   6.495  0.1120 -0.4677  0.3115
10706SOL     OW33016   3.148   6.482   1.425 -0.4459  0.1163 -0.0043
10706SOL    HW133017   3.200   6.413   1.375 -0.2585 -1.3964  2.1282
10706SOL    HW233018   3.065   6.439   1.462 -0.6392  1.1944  0.8419
10707SOL     OW33019   1.497   1.713   5.206  0.2458  0.5166  0.3306
10707SOL    HW133020   1.409   1.748   5.239 -0.3941 -0.7477  0.0560
10707SOL    HW233021   1.511   1.745   5.112 -0.8696 -0.8080 -0.3245
10708SOL     OW33022   5.277   2.550   0.557 -0.6106  1.0933  0.0677
10708SOL    HW133023   5.318   2.480   0.616  0.5225  0.6505 -1.1833
10708SOL    HW233024   5.184   2.524   0.533 -0.7093  0.7554  0.7927
10709SOL     OW33025   6.093   1.251   6.351 -0.2879  0.2265  0.4959
10709SOL    HW133026   6.017   1.196   6.385 -0.0141 -0.5520 -0.1071
10709SOL    HW233027   6.160   1.191   6.307  0.9731  0.8138  1.5290
10710SOL     OW33028   5.958   5.235   2.188 -0.9231  0.3757  0.9342
10710SOL    HW133029   6.017   5.226   2.108 -1.0634  0.7285  0.7902
10710SOL    HW233030   5.863   5.222   2.162 -0.9199 -0.1152  1.1541
10711SOL     OW33031   2.251   0.818   5.257  0.8993  0.2573 -0.6628
10711SOL    HW133032   2.243   0.830   5.356 -1.7480 -0.8658 -0.6586
10711SOL    HW233033   2.277   0.904   5.215  2.1816  0.7297  0.9959
10712SOL     OW33034   5.047   3.521   3.465  0.2361 -0.2619  0.6830
10712SOL    HW133035   4.998   3.604   3.491  1.9515  1.2202 -0.5176
10712SOL    HW233036   5.028   3.501   3.369  1.1847 -0.2163  0.4772
10713SOL     OW33037   1.716   6.248   1.720 -0.0454 -0.0666 -0.2531
10713SOL    HW133038   1.737   6.286   1.810 -2.4259 -0.1186  0.3876
10713SOL    HW233039   1.644   6.179   1.729 -0.3836 -0.0223 -2.2095
10714SOL     OW33040   5.756   6.159   5.733  0.4253 -0.2099  0.0844
10714SOL    HW133041   5.663   6.158   5.697 -0.5450  1.4387  2.2848
10714SOL    HW233042   5.782   6.253   5.755  1.3310 -0.9654  2.5361
10715SOL     OW33043   3.286   1.628   4.289  0.2050  0.2810 -0.0055
10715SOL    HW133044   3.252   1.722   4.296  3.4180  1.6919 -1.4003
10715SOL    HW233045   3.243   1.583   4.211 -1.1339  0.6689  0.4826
10716SOL     OW33046   5.684   0.459   2.659 -0.3111  0.1675  0.2494
10716SOL    HW133047   5.750   0.499   2.596  0.3737  1.1061  1.5129
10716SOL    HW233048   5.591   0.486   2.631 -0.1342 -0.5377 -1.0963
10717SOL     OW33049   0.541   0.924   2.440  0.1271 -0.1643  0.3127
10717SOL    HW133050   0.507   1.015   2.460  0.5374  0.0684 -0.0247
10717SOL    HW233051   0.624   0.906   2.493 -0.0969 -0.4404  0.5721
10718SOL     OW33052   6.966   3.909   0.733  0.0095 -0.2455  0.1151
10718SOL    HW133053   6.883   3.966   0.737 -0.0016 -0.3149  0.9554
10718SOL    HW233054   7.044   3.967   0.708 -0.2647 -0.1605 -0.5765
10719SOL     OW33055   5.457   6.180   0.954 -0.8199  0.5665  0.5670
10719SOL    HW133056   5.457   6.224   1.044  1.4957  0.6203  0.5845
10719SOL    HW233057   5.438   6.082   0.965 -1.9251  0.8010  0.9352
10720SOL     OW33058   1.355   4.113   6.964  0.0415 -0.3621 -0.0026
10720SOL    HW133059   1.426   4.088   7.031 -0.1501 -1.1374 -0.0791
10720SOL    HW233060   1.284   4.042   6.964 -0.1137 -0.2057 -0.8093
10721SOL     OW33061   4.162   1.640   4.044  0.0088 -0.1793 -0.3944
10721SOL    HW133062   4.202   1.676   3.960 -0.3651  0.5483 -0.2694
10721SOL    HW233063   4.116   1.714   4.093  0.2622 -0.5864  0.4740
10722SOL     OW33064   2.434   2.886   1.221  0.4038 -0.3042 -0.2678
10722SOL    HW133065   2.476   2.795   1.221  1.4003  0.1200  1.0694
10722SOL    HW233066   2.390   2.903   1.133  0.1037 -2.1181 -0.4904
10723SOL     OW33067   5.880   4.522   6.526  0.6854  0.2599 -0.1565
10723SOL    HW133068   5.969   4.567   6.522  0.8163 -0.1141 -1.7326
10723SOL    HW233069   5.824   4.550   6.448 -0.5019  0.3000  0.6759
10724SOL     OW33070   2.792   0.933   6.724  0.0010 -0.7415  0.4240
10724SOL    HW133071   2.879   0.946   6.676 -0.1612  0.6245  0.4653
10724SOL    HW233072   2.728   1.004   6.697 -0.2816 -0.2403  2.2334
10725SOL     OW33073   1.371   6.232   5.835  0.2735  0.0811  0.0497
10725SOL    HW133074   1.354   6.267   5.742 -0.6637  0.7204  0.4504
10725SOL    HW233075   1.319   6.148   5.849 -1.4687  1.2416  0.7726
10726SOL     OW33076   3.183   0.403   4.818  0.4381 -0.4446 -0.1042
10726SOL    HW133077   3.244   0.365   4.749 -0.4755  0.4113 -1.4217
10726SOL    HW233078   3.203   0.500   4.830  0.0542 -0.4088  0.2565
10727SOL     OW33079   2.334   6.721   6.259  0.2233  0.4799  0.5307
10727SOL    HW133080   2.254   6.777   6.240  0.2805  0.1054 -0.9614
10727SOL    HW233081   2.311   6.624   6.245  0.8540  0.3504  0.3411
10728SOL     OW33082   4.892   5.947   2.969 -0.1010 -0.7639  0.2597
10728SOL    HW133083   4.840   5.888   3.031 -0.9988 -0.0352  0.2303
10728SOL    HW233084   4.883   6.042   2.999 -2.3060 -0.1129 -2.1154
10729SOL     OW33085   6.108   2.267   3.316  0.4438 -0.3264 -0.5926
10729SOL    HW133086   6.041   2.288   3.244 -0.1131 -1.5451 -0.4596
10729SOL    HW233087   6.102   2.169   3.338 -0.0255  0.1828  1.7504
10730SOL     OW33088   2.858   0.473   5.237  0.8387  0.2870  0.6482
10730SOL    HW133089   2.852   0.374   5.244 -1.3509  0.3894  0.9608
10730SOL    HW233090   2.806   0.515   5.311  1.0720  1.6712  0.0667
10731SOL     OW33091   4.282   1.114   5.908  0.0860 -0.0455  0.3380
10731SOL    HW133092   4.238   1.203   5.919  1.5807  0.5062  2.4604
10731SOL    HW233093   4.320   1.084   5.995  1.1923 -1.9317 -0.7167
10732SOL     OW33094   5.655   0.198   3.620 -0.0854 -0.1072 -0.0278
10732SOL    HW133095   5.572   0.185   3.674 -0.4448  0.7468 -0.3593
10732SOL    HW233096   5.651   0.139   3.539 -1.7748  1.9915 -1.6057
10733SOL     OW33097   6.193   0.734   0.091  0.1649 -0.1361  1.1228
10733SOL    HW133098   6.149   0.796   0.026  0.9964  0.6073  1.2466
10733SOL    HW233099   6.181   0.769   0.184  0.3300 -0.3452  1.2247
10734SOL     OW33100   0.653   1.063   6.618  0.4886  0.7725 -0.2483
10734SOL    HW133101   0.702   1.087   6.534 -0.3064  0.5131 -0.7943
10734SOL    HW233102   0.613   1.145   6.659  0.3861  0.8127 -0.4316
10735SOL     OW33103   1.324   5.637   3.143 -0.1409 -0.2900  0.0689
10735SOL    HW133104   1.274   5.690   3.075 -0.8867 -2.1960 -0.9551
10735SOL    HW233105   1.422   5.644   3.126 -0.3461 -1.7378 -2.0826
10736SOL     OW33106   5.087   2.402   3.942 -0.0076 -0.1492 -0.2184
10736SOL    HW133107   5.068   2.308   3.969 -2.3003 -0.1908 -1.7097
10736SOL    HW233108   5.020   2.464   3.982  0.5416  0.6515 -0.4889
10737SOL     OW33109   6.367   1.020   1.412  1.0241  0.2228  0.2193
10737SOL    HW133110   6.439   1.076   1.452  0.4223  0.4205  1.0429
10737SOL    HW233111   6.294   1.007   1.478  0.6529 -0.6289 -0.3395
10738SOL     OW33112   1.369   1.154   1.220  0.0637 -0.4298  0.0255
10738SOL    HW133113   1.322   1.068   1.201 -0.3665 -0.1849 -0.0462
10738SOL    HW233114   1.373   1.169   1.319  0.3804 -0.6643  0.0468
10739SOL     OW33115   5.963   1.763   2.830  0.0152  0.3921 -0.0331
10739SOL    HW133116   6.059   1.738   2.839 -0.0532  0.1720  0.0905
10739SOL    HW233117   5.906   1.685   2.854 -0.1913 -0.0529 -1.7739
10740SOL     OW33118   1.183   1.208   6.814  0.7852  0.2167  0.9301
10740SOL    HW133119   1.215   1.142   6.747 -0.1572 -0.0363  0.7174
10740SOL    HW233120   1.091   1.183   6.846  0.4575  1.3435  0.9389
10741SOL     OW33121   2.393   1.756   3.615 -0.1750  0.6881  0.1410
10741SOL    HW133122   2.298   1.764   3.645  0.2063 -1.5655  2.2330
10741SOL    HW233123   2.453   1.801   3.683  0.4394 -0.8958  0.6880
10742SOL     OW33124   6.173   6.989   2.380  0.0812 -0.2103  0.0267
10742SOL    HW133125   6.208   6.993   2.286 -0.3630 -1.0661 -0.1797
10742SOL    HW233126   6.160   6.893   2.406 -1.7647  0.0727  0.2298
10743SOL     OW33127   2.669   0.463   5.453  0.0208  0.3062  0.3633
10743SOL    HW133128   2.610   0.506   5.521 -0.4897 -1.7889  1.3552
10743SOL    HW233129   2.758   0.442   5.494 -0.2478 -0.8585  0.4009
10744SOL     OW33130   0.078   6.104   0.905  0.0609 -0.0060  0.1434
10744SOL    HW133131   0.119   6.192   0.879 -0.8945  0.4846  0.2572
10744SOL    HW233132   0.097   6.036   0.834  0.8546  0.2706  0.0805
10745SOL     OW33133   1.927   4.894   0.024 -0.2915 -0.0089 -0.2476
10745SOL    HW133134   1.918   4.877   0.122 -3.1145  2.6141  0.0773
10745SOL    HW233135   2.001   4.959   0.008  0.3792 -0.6772  0.0853
10746SOL     OW33136   1.485   0.371   4.286 -0.4245 -0.2772 -0.0566
10746SOL    HW133137   1.554   0.339   4.351 -0.5568 -0.0838  0.1818
10746SOL    HW233138   1.409   0.412   4.336 -0.1828  0.5622 -0.3519
10747SOL     OW33139   6.946   0.434   3.342 -0.3852 -0.0337 -0.1377
10747SOL    HW133140   6.913   0.356   3.395 -0.1787 -0.5288 -0.7223
10747SOL    HW233141   6.971   0.404   3.250  0.1658  0.6323 -0.2184
10748SOL     OW33142   4.279   6.303   6.327  0.1134  0.1094  0.0348
10748SOL    HW133143   4.212   6.329   6.397  1.2665 -0.3096  1.3586
10748SOL    HW233144   4.296   6.380   6.266  0.3706  1.0961  1.3098
10749SOL     OW33145   6.044   5.989   1.290 -0.2332 -0.8289  0.9257
10749SOL    HW133146   6.092   6.049   1.354 -1.2479 -0.6409  1.5201
10749SOL    HW233147   6.070   5.894   1.307  0.1059 -0.7109  1.0789
10750SOL     OW33148   5.647   2.385   2.220 -0.1680  0.1992 -0.0762
10750SOL    HW133149   5.571   2.331   2.183 -0.4795  0.8625 -0.4287
10750SOL    HW233150   5.623   2.482   2.218  0.6634  0.4121 -0.1263
10751SOL     OW33151   6.017   4.608   4.459 -0.0605  0.0721  0.0421
10751SOL    HW133152   6.069   4.524   4.448  0.9500  0.4444  1.6514
10751SOL    HW233153   5.925   4.596   4.422  0.5429 -1.2256 -1.1181
10752SOL     OW33154   5.196   0.630   6.961  0.4124  0.8428  0.4853
10752SOL    HW133155   5.121   0.568   6.987  0.4976  0.5074 -0.0553
10752SOL    HW233156   5.190   0.713   7.015  0.1424  0.4672  1.0467
10753SOL     OW33157   4.851   7.017   2.257  0.1708 -0.2291  0.6448
10753SOL    HW133158   4.816   7.109   2.243  1.6508  0.5389  1.7019
10753SOL    HW233159   4.925   6.999   2.192  1.7946  0.4347  2.2292
10754SOL     OW33160   2.380   5.625   2.465  0.2624  0.9107 -0.1283
10754SOL    HW133161   2.372   5.721   2.493  0.7685  1.3168 -1.3175
10754SOL    HW233162   2.468   5.589   2.496  0.6125  1.2162 -0.7390
10755SOL     OW33163   5.325   4.497   6.702  0.5189 -0.2470  0.4530
10755SOL    HW133164   5.405   4.525   6.650 -0.6314 -0.7140 -1.6954
10755SOL    HW233165   5.251   4.564   6.687  0.0010 -0.6648  1.0802
10756SOL     OW33166   1.687   1.306   1.159 -0.1960 -0.1197  0.3505
10756SOL    HW133167   1.617   1.240   1.187  0.9348 -1.3821  0.2748
10756SOL    HW233168   1.761   1.308   1.226  0.1605  0.5131 -0.0462
10757SOL     OW33169   0.741   5.568   0.677  0.4626  0.1758 -0.0487
10757SOL    HW133170   0.729   5.663   0.706 -2.4453  0.3164 -1.2966
10757SOL    HW233171   0.709   5.507   0.749 -0.3521  0.2854 -0.3019
10758SOL     OW33172   0.441   6.953   6.691 -0.6678  0.2461 -0.4263
10758SOL    HW133173   0.470   6.863   6.658 -0.6630  1.3090 -3.6651
10758SOL    HW233174   0.341   6.960   6.683 -0.8111  0.1178  1.0440
10759SOL     OW33175   1.196   2.428   5.874  0.0405  0.2754 -0.4569
10759SOL    HW133176   1.119   2.412   5.936  0.2510 -0.5914 -0.4111
10759SOL    HW233177   1.276   2.454   5.928  1.1505 -3.5922  0.0705
10760SOL     OW33178   1.250   6.743   0.463 -0.4551  0.1461  0.3471
10760SOL    HW133179   1.167   6.745   0.408 -1.2963 -0.7130  1.5094
10760SOL    HW233180   1.311   6.817   0.436  0.1312 -1.4112 -3.1340
10761SOL     OW33181   6.477   2.894   0.976  0.0697 -0.2523  0.2426
10761SOL    HW133182   6.472   2.946   0.890  2.1684  0.1829  0.3430
10761SOL    HW233183   6.524   2.948   1.045 -0.8338 -0.9514  1.4367
10762SOL     OW33184   3.502   5.406   6.283 -0.3453 -0.1770 -0.7678
10762SOL    HW133185   3.540   5.363   6.201 -2.2405 -0.1269 -1.7332
10762SOL    HW233186   3.576   5.440   6.340  1.1004 -1.8761 -1.5276
10763SOL     OW33187   5.387   1.635   2.003 -0.0649 -0.2911 -0.2311
10763SOL    HW133188   5.429   1.564   2.058  0.7673  0.6080  0.3227
10763SOL    HW233189   5.290   1.615   1.990  0.3598 -2.0347 -0.9318
10764SOL     OW33190   4.812   1.379   6.107 -0.3570 -0.0966 -0.4039
10764SOL    HW133191   4.831   1.286   6.076 -2.1766 -0.8337  0.5476
10764SOL    HW233192   4.769   1.431   6.034 -0.1169 -0.2694 -0.6684
10765SOL     OW33193   6.934   1.622   2.230 -0.4481 -0.3465 -0.2515
10765SOL    HW133194   6.972   1.674   2.153  0.5879 -2.7302 -1.4763
10765SOL    HW233195   6.842   1.590   2.206  0.3068 -2.0280 -1.0201
10766SOL     OW33196   2.204   4.175   0.668 -0.8033  0.1596 -0.2304
10766SOL    HW133197   2.227   4.118   0.588 -0.5876 -0.1416  0.0432
10766SOL    HW233198   2.137   4.127   0.725  2.0316 -1.5465  1.9464
10767SOL     OW33199   1.511   4.858   6.716 -0.1686  0.6212 -0.0836
10767SOL    HW133200   1.582   4.914   6.759  0.1579 -1.0141  1.6305
10767SOL    HW233201   1.423   4.905   6.722 -0.1284  0.5232  2.3583
10768SOL     OW33202   5.519   4.926   1.552 -0.2578  0.2004  0.1419
10768SOL    HW133203   5.464   4.997   1.596 -0.0823 -0.8081  2.0970
10768SOL    HW233204   5.463   4.844   1.539  0.5148 -0.5609  1.4026
10769SOL     OW33205   3.798   4.282   5.305 -0.3260  0.0491  0.3342
10769SOL    HW133206   3.773   4.191   5.338  0.4434 -0.6258 -0.8571
10769SOL    HW233207   3.885   4.277   5.255  0.3982  1.6841  1.3544
10770SOL     OW33208   6.043   6.424   3.263  0.8006  0.1561  0.9650
10770SOL    HW133209   6.012   6.496   3.325  0.1874  0.9908 -0.2731
10770SOL    HW233210   5.964   6.382   3.219  1.1459 -1.3086  1.6620
10771SOL     OW33211   6.604   6.978   6.105 -0.6531  0.8416 -0.9999
10771SOL    HW133212   6.510   6.978   6.070 -0.9444  1.2224 -0.2443
10771SOL    HW233213   6.640   7.071   6.102 -1.2286  1.1804  1.0948
10772SOL     OW33214   0.787   5.059   1.594  0.3743  0.3359 -0.0481
10772SOL    HW133215   0.721   5.077   1.667 -0.1689  0.7011 -0.6241
10772SOL    HW233216   0.877   5.094   1.621 -0.2586  2.2920 -0.3676
10773SOL     OW33217   0.249   5.133   2.249 -0.5788 -0.3014  0.3155
10773SOL    HW133218   0.205   5.219   2.275  0.7578  0.8707 -1.0625
10773SOL    HW233219   0.313   5.150   2.174  1.1044 -2.1794  1.2360
10774SOL     OW33220   0.461   3.077   5.765 -0.1617  0.2770  0.1876
10774SOL    HW133221   0.467   3.059   5.864 -0.9042  0.9762  0.3739
10774SOL    HW233222   0.549   3.059   5.723  0.5218  1.1431  1.1940
10775SOL     OW33223   1.069   3.550   1.904  0.1356 -0.0885 -0.2335
10775SOL    HW133224   1.126   3.502   1.971 -1.1993 -0.4476  0.6794
10775SOL    HW233225   0.974   3.547   1.933 -0.1711  1.9490 -0.8594
10776SOL     OW33226   0.602   1.202   3.380  0.1934  0.5716 -0.8362
10776SOL    HW133227   0.599   1.152   3.466  1.4362  1.1491 -0.4284
10776SOL    HW233228   0.646   1.291   3.395 -1.4272  1.5651 -1.6518
10777SOL     OW33229   3.402   0.109   1.688 -0.1561 -0.4890  0.2478
10777SOL    HW133230   3.496   0.124   1.718 -1.2577  2.8001  2.7983
10777SOL    HW233231   3.385   0.162   1.605 -0.0173 -0.1892  0.4080
10778SOL     OW33232   5.771   4.802   2.269 -0.1907 -0.3359  0.1591
10778SOL    HW133233   5.676   4.776   2.289 -0.4466  0.1713 -0.3455
10778SOL    HW233234   5.808   4.740   2.200 -0.6025  0.2497 -0.6089
10779SOL     OW33235   6.762   4.135   5.302 -0.2304 -0.3937  0.2961
10779SOL    HW133236   6.707   4.126   5.385 -0.8936  0.5736 -0.0205
10779SOL    HW233237   6.843   4.190   5.322 -0.0611 -0.6861  0.4364
10780SOL     OW33238   2.188   0.800   5.521 -0.0879 -0.1298 -0.2011
10780SOL    HW133239   2.212   0.733   5.591  0.3833  0.1651 -0.0782
10780SOL    HW233240   2.173   0.889   5.565 -0.4804 -0.1016 -0.3915
10781SOL     OW33241   5.265   1.759   2.233 -0.1471  0.5550  0.0385
10781SOL    HW133242   5.333   1.767   2.160  0.9920  0.6649  1.0780
10781SOL    HW233243   5.307   1.784   2.320 -1.0026 -1.1807  0.9874
10782SOL     OW33244   1.785   3.715   6.804  0.0021  0.0826 -0.1926
10782SOL    HW133245   1.699   3.764   6.815  0.1622  0.2178  0.5193
10782SOL    HW233246   1.770   3.634   6.747 -1.1142 -1.1228  1.6973
10783SOL     OW33247   1.777   3.107   4.420  0.3184  0.4670  0.1027
10783SOL    HW133248   1.820   3.195   4.397  0.1838  0.6109  0.4089
10783SOL    HW233249   1.685   3.104   4.382  0.4003  0.3668 -0.0959
10784SOL     OW33250   2.932   5.199   0.778  0.2507 -0.3030 -0.0070
10784SOL    HW133251   2.898   5.239   0.693 -2.6661 -1.8851  0.2850
10784SOL    HW233252   3.016   5.148   0.760  0.5447  0.6738 -1.5875
10785SOL     OW33253   0.774   5.288   3.717 -0.1276  0.4178  0.4633
10785SOL    HW133254   0.859   5.277   3.769  0.1479  0.8551  0.1046
10785SOL    HW233255   0.795   5.321   3.625 -0.7839  1.8060  0.7996
10786SOL     OW33256   4.074   1.110   1.791 -0.0932  0.1953  0.2504
10786SOL    HW133257   4.007   1.097   1.718 -0.2047 -0.1413  0.4110
10786SOL    HW233258   4.133   1.030   1.797 -1.2371 -0.5869  1.7137
10787SOL     OW33259   5.622   1.363   4.818  0.1594 -0.1258  0.2775
10787SOL    HW133260   5.676   1.292   4.773  1.1833  1.1959 -0.7003
10787SOL    HW233261   5.600   1.335   4.911  2.3417 -0.8602  0.6446
10788SOL     OW33262   0.711   2.957   0.648 -0.4976 -0.1890 -0.1605
10788SOL    HW133263   0.661   2.965   0.561 -0.4904 -4.0469 -0.6922
10788SOL    HW233264   0.647   2.938   0.722 -0.2055 -0.5889 -0.0076
10789SOL     OW33265   6.512   2.198   1.045 -0.4718  0.4533  0.9223
10789SOL    HW133266   6.598   2.249   1.039 -0.4522  0.3122 -0.3109
10789SOL    HW233267   6.462   2.207   0.959 -0.9888 -0.7123  1.0808
10790SOL     OW33268   6.718   1.451   4.392 -0.5695  0.0603  0.1191
10790SOL    HW133269   6.759   1.476   4.304 -0.1629 -1.4271 -0.1398
10790SOL    HW233270   6.619   1.463   4.388 -0.6613 -0.9015 -0.8861
10791SOL     OW33271   1.737   1.228   2.525  0.4589 -0.1842  0.6163
10791SOL    HW133272   1.771   1.203   2.435  3.6161  1.3615  1.2303
10791SOL    HW233273   1.804   1.201   2.595 -2.1126 -1.8165  2.6593
10792SOL     OW33274   3.217   2.818   0.308 -0.6148 -0.2127  0.5638
10792SOL    HW133275   3.148   2.761   0.352 -0.7537 -0.1714  0.4022
10792SOL    HW233276   3.190   2.914   0.313 -1.0196 -0.2734 -0.2894
10793SOL     OW33277   6.561   2.441   2.050  0.1521  0.4122 -0.0766
10793SOL    HW133278   6.547   2.502   2.128  0.3782  1.4019 -0.7867
10793SOL    HW233279   6.589   2.495   1.970  1.2228 -0.7224 -0.5049
10794SOL     OW33280   3.460   4.273   0.660  0.3770  0.1821 -0.0061
10794SOL    HW133281   3.414   4.209   0.722  1.3819  0.7849  1.4119
10794SOL    HW233282   3.508   4.343   0.714 -0.7715  2.2170 -1.5119
10795SOL     OW33283   0.760   2.865   3.772  0.4226  0.3527 -0.8286
10795SOL    HW133284   0.670   2.905   3.790  0.0216 -0.5890 -0.6669
10795SOL    HW233285   0.826   2.938   3.755 -0.3390  1.0638 -0.8160
10796SOL     OW33286   6.505   2.192   6.573  0.1329 -0.0657 -0.7353
10796SOL    HW133287   6.412   2.161   6.595  0.6618 -0.7506  0.6197
10796SOL    HW233288   6.502   2.289   6.547 -0.9462 -0.0559 -0.6396
10797SOL     OW33289   5.088   4.369   6.857 -0.2231  0.2420  0.3831
10797SOL    HW133290   5.026   4.329   6.789  0.0483  1.8880 -0.8847
10797SOL    HW233291   5.160   4.420   6.811  2.1238 -1.5524  1.8289
10798SOL     OW33292   0.522   5.215   6.772 -0.6300 -0.1313  0.0758
10798SOL    HW133293   0.612   5.217   6.815  0.0312  1.1889 -1.2361
10798SOL    HW233294   0.525   5.157   6.691 -0.2214  1.7101 -1.3141
10799SOL     OW33295   2.568   1.328   2.070  0.4102 -0.5012  0.7813
10799SOL    HW133296   2.558   1.228   2.072 -0.0727 -0.4767  0.1407
10799SOL    HW233297   2.664   1.352   2.064  0.4410 -0.9929 -1.1739
10800SOL     OW33298   1.866   0.991   5.436 -0.5012  0.7491 -0.2002
10800SOL    HW133299   1.854   0.978   5.535  0.2654 -2.0049 -0.4112
10800SOL    HW233300   1.958   1.025   5.418 -0.5718  1.0534 -0.0113
10801SOL     OW33301   3.280   6.197   5.464 -0.0443 -0.4157 -0.0826
10801SOL    HW133302   3.372   6.235   5.463 -0.1922 -0.0354 -1.2061
10801SOL    HW233303   3.213   6.271   5.452 -0.4343 -0.8019 -0.3387
10802SOL     OW33304   0.552   4.651   3.380  0.0719  0.5787 -0.3180
10802SOL    HW133305   0.564   4.749   3.398  0.9058  0.8778 -2.2219
10802SOL    HW233306   0.641   4.608   3.370 -0.2763 -0.5159  0.9778
10803SOL     OW33307   6.563   3.674   5.055 -0.6869  0.5593 -0.0132
10803SOL    HW133308   6.474   3.647   5.018 -1.2310  0.5835  1.2400
10803SOL    HW233309   6.605   3.596   5.101 -0.1848  0.6288 -0.3479
10804SOL     OW33310   5.196   3.777   1.385  0.1040  0.1715 -0.3538
10804SOL    HW133311   5.283   3.765   1.431 -0.7736  0.1994  1.3983
10804SOL    HW233312   5.124   3.791   1.453 -1.2889  0.0290 -1.7413
10805SOL     OW33313   3.745   6.314   6.244 -0.1830 -0.5713  0.3232
10805SOL    HW133314   3.659   6.263   6.247 -0.8053  0.1038 -2.5694
10805SOL    HW233315   3.731   6.405   6.282  0.4876 -1.7800  3.8750
10806SOL     OW33316   5.523   4.217   4.759  0.1643 -0.0944  0.1900
10806SOL    HW133317   5.439   4.230   4.811 -0.1869  1.1260 -0.6321
10806SOL    HW233318   5.581   4.150   4.805 -1.0054 -0.5415  1.0645
10807SOL     OW33319   5.069   6.686   1.536 -0.3980 -0.0830 -0.3364
10807SOL    HW133320   5.146   6.643   1.583 -0.8969 -0.3770  0.2351
10807SOL    HW233321   5.088   6.692   1.438  1.7033  2.7525  0.1493
10808SOL     OW33322   6.300   3.600   0.000  0.2762  0.5562  0.0280
10808SOL    HW133323   6.351   3.646  -0.073  1.3154  1.7420  1.4198
10808SOL    HW233324   6.215   3.563  -0.036  2.6932 -2.9687 -2.8591
10809SOL     OW33325   3.686   5.892   0.864 -0.4268 -0.3597  0.1996
10809SOL    HW133326   3.655   5.815   0.809 -0.1685 -1.5918  1.7261
10809SOL    HW233327   3.779   5.874   0.897  1.2755  2.3289 -2.5594
10810SOL     OW33328   6.444   1.669   1.637 -0.6028 -0.0006  0.2718
10810SOL    HW133329   6.440   1.751   1.579 -2.4164 -0.8451 -0.9042
10810SOL    HW233330   6.539   1.640   1.647 -0.1048  1.0065 -1.1319
10811SOL     OW33331   2.396   4.681   5.208 -0.1359  0.8077 -0.3447
10811SOL    HW133332   2.406   4.778   5.186  0.5632  1.0933  1.0706
10811SOL    HW233333   2.305   4.664   5.245 -0.0776  1.0339 -0.0973
10812SOL     OW33334   6.574   2.710   4.444 -0.6402  0.0418  0.3852
10812SOL    HW133335   6.608   2.675   4.532  0.3526  0.8481  0.3366
10812SOL    HW233336   6.624   2.665   4.370 -1.9726 -1.1640  0.1873
10813SOL     OW33337   1.006   5.170   1.705 -0.4319 -0.1884  0.2769
10813SOL    HW133338   0.961   5.256   1.683 -0.0901  0.1709  0.9306
10813SOL    HW233339   1.088   5.160   1.650 -0.3173  0.0414  0.4063
10814SOL     OW33340   1.451   6.035   0.900 -0.1843 -0.2927 -0.5498
10814SOL    HW133341   1.367   6.067   0.944  0.4306 -0.1825  0.5713
10814SOL    HW233342   1.433   5.946   0.857 -0.6986 -0.6118  0.2959
10815SOL     OW33343   5.217   1.802   2.694  0.5673 -0.2352 -0.0335
10815SOL    HW133344   5.269   1.802   2.780  1.1143 -1.0848 -0.3572
10815SOL    HW233345   5.256   1.870   2.632  1.7114 -1.3115 -0.5140
10816SOL     OW33346   3.033   0.929   0.891  0.3064  0.2553  0.1274
10816SOL    HW133347   2.978   0.929   0.807  0.2974 -2.3206  0.0671
10816SOL    HW233348   2.976   0.901   0.968  0.9824 -0.1841  0.4788
10817SOL     OW33349   3.174   6.085   1.133  0.5518 -0.2935  0.1693
10817SOL    HW133350   3.104   6.018   1.159 -0.6050  0.8702  0.1357
10817SOL    HW233351   3.229   6.048   1.057  0.3292 -1.4232  0.5324
10818SOL     OW33352   3.265   2.579   6.953  0.0193 -0.1767 -0.7548
10818SOL    HW133353   3.170   2.550   6.963 -0.2776  1.1786  0.8587
10818SOL    HW233354   3.317   2.551   7.034  0.5420  0.6657 -0.7896
10819SOL     OW33355   0.465   3.517   0.125  0.5775  0.4551  0.7219
10819SOL    HW133356   0.531   3.583   0.161  0.1657  0.2112  2.0098
10819SOL    HW233357   0.374   3.559   0.122  0.5903  0.4374  0.0435
10820SOL     OW33358   0.018   6.224   3.730 -0.0947 -0.2114  0.0322
10820SOL    HW133359   0.115   6.231   3.705 -0.6400  1.0151 -1.9403
10820SOL    HW233360  -0.018   6.136   3.699  0.5659 -1.0658  1.5859
10821SOL     OW33361   1.484   0.891   1.776 -0.4506  0.3382 -0.3007
10821SOL    HW133362   1.403   0.913   1.722 -0.5644 -1.1660 -0.7694
10821SOL    HW233363   1.483   0.794   1.800  0.5066  0.6008  0.8959
10822SOL     OW33364   0.108   3.758   0.927  0.4042  0.0334  0.1491
10822SOL    HW133365   0.066   3.814   0.856 -1.2791 -1.8023 -0.3924
10822SOL    HW233366   0.202   3.736   0.902 -0.2692 -0.8683 -1.7052
10823SOL     OW33367   1.666   1.688   2.055 -0.1316 -0.5305  0.2486
10823SOL    HW133368   1.685   1.594   2.083  1.9031  0.0115  0.8919
10823SOL    HW233369   1.730   1.714   1.981 -1.1183  0.1372 -0.3918
10824SOL     OW33370   0.422   0.124   2.841 -0.5915  0.0932 -0.2965
10824SOL    HW133371   0.480   0.043   2.837 -1.1766 -0.4361  1.3520
10824SOL    HW233372   0.467   0.200   2.793  1.4067 -0.3333  0.8061
10825SOL     OW33373   3.187   6.310   2.896 -0.7845 -0.3287  0.0900
10825SOL    HW133374   3.230   6.399   2.878 -0.0721 -0.2966  1.7625
10825SOL    HW233375   3.241   6.238   2.854 -2.0218  0.0420 -2.3469
10826SOL     OW33376   5.798   4.063   1.310  0.5884 -0.2544  0.1602
10826SOL    HW133377   5.733   4.125   1.265  1.7755  1.9579  1.3439
10826SOL    HW233378   5.887   4.070   1.265  1.4283  0.9611  1.9372
10827SOL     OW33379   0.251   1.323   4.434  0.4916  0.0874 -0.1345
10827SOL    HW133380   0.308   1.243   4.420  0.5313  0.1074 -0.0897
10827SOL    HW233381   0.187   1.306   4.510  0.7945  0.2537  0.1632
10828SOL     OW33382   2.156   6.230   6.065  0.2426  0.0510  0.6030
10828SOL    HW133383   2.108   6.260   5.982  0.3103 -0.7481  0.2685
10828SOL    HW233384   2.101   6.161   6.112  0.2970  0.3561  1.1238
10829SOL     OW33385   3.709   2.893   3.405  0.4129 -0.1197  0.4382
10829SOL    HW133386   3.803   2.907   3.375  0.2993  0.3649  0.3044
10829SOL    HW233387   3.650   2.880   3.326  0.0964  1.2664  0.4306
10830SOL     OW33388   3.827   0.182   2.994  0.1140  0.2964 -0.5314
10830SOL    HW133389   3.909   0.161   2.941  1.1618  0.2264  1.0429
10830SOL    HW233390   3.747   0.144   2.949  1.0071 -0.1014 -1.8280
10831SOL     OW33391   5.489   4.213   2.347 -0.7942  0.3359 -0.3655
10831SOL    HW133392   5.480   4.286   2.414 -1.7430 -1.0416  1.0675
10831SOL    HW233393   5.586   4.193   2.332 -0.5679  0.4890  0.8075
10832SOL     OW33394   5.149   2.542   5.796  0.0151 -0.0473  0.4917
10832SOL    HW133395   5.192   2.453   5.786  2.6961  1.4315 -2.8878
10832SOL    HW233396   5.067   2.546   5.739  1.3544  0.3678 -1.5008
10833SOL     OW33397   2.272   4.468   5.373 -0.3563 -0.2266 -0.2903
10833SOL    HW133398   2.215   4.533   5.423  0.6511 -0.2463  0.9445
10833SOL    HW233399   2.358   4.513   5.347 -0.1590 -0.7176 -0.4885
10834SOL     OW33400   0.834   6.896   6.059 -0.3789  0.1372  0.4189
10834SOL    HW133401   0.845   6.996   6.054  0.0448  0.0285 -1.9078
10834SOL    HW233402   0.765   6.874   6.128 -0.1741  2.0028  1.2851
10835SOL     OW33403   0.486   1.866   0.659  0.1341 -0.3523 -0.3636
10835SOL    HW133404   0.408   1.825   0.611  1.1270 -3.0595  0.1314
10835SOL    HW233405   0.460   1.886   0.753 -0.0553 -0.9983 -0.2742
10836SOL     OW33406   2.505   0.813   0.073 -0.5796 -0.5692 -0.1355
10836SOL    HW133407   2.440   0.767   0.134  0.1076  0.8386  1.7748
10836SOL    HW233408   2.590   0.761   0.068 -0.0587  0.0570  1.4565
10837SOL     OW33409   1.384   4.736   2.124  0.7468  0.0304  0.3019
10837SOL    HW133410   1.318   4.811   2.119  0.8157  0.0999  0.4305
10837SOL    HW233411   1.335   4.649   2.130  0.5115 -0.3267 -3.6073
10838SOL     OW33412   5.996   1.952   1.813 -0.1599 -0.1507 -0.7207
10838SOL    HW133413   5.946   2.039   1.816  1.6588  0.9151  0.5504
10838SOL    HW233414   6.054   1.950   1.732 -1.6943 -1.1017 -1.8396
10839SOL     OW33415   2.255   0.061   6.860  0.1896 -0.2661 -0.2951
10839SOL    HW133416   2.303   0.037   6.945 -0.3541 -1.0693 -0.2029
10839SOL    HW233417   2.316   0.047   6.782  0.2648 -0.8343 -0.1408
10840SOL     OW33418   2.820   5.746   2.513 -0.2665 -0.5256 -0.2467
10840SOL    HW133419   2.751   5.786   2.573  1.3286  2.5746 -0.2698
10840SOL    HW233420   2.870   5.820   2.466  2.7247 -2.6096 -0.5902
10841SOL     OW33421   2.995   5.131   6.188 -0.0630  0.0701  0.5141
10841SOL    HW133422   2.916   5.106   6.243 -0.5570  1.4579  0.4754
10841SOL    HW233423   2.996   5.230   6.173  1.5162  0.0551  0.2614
10842SOL     OW33424   1.106   2.503   1.177 -0.3955 -0.5304 -0.5990
10842SOL    HW133425   1.112   2.460   1.267  2.5908  0.7514 -0.0975
10842SOL    HW233426   1.122   2.434   1.106 -0.2148 -1.0764 -0.0366
10843SOL     OW33427   0.032   3.384   2.366  0.6862  0.7232  0.6654
10843SOL    HW133428   0.030   3.293   2.409  2.3141 -0.5406 -1.7269
10843SOL    HW233429   0.074   3.449   2.430  2.1114 -0.8474  1.4069
10844SOL     OW33430   3.959   6.230   4.348 -0.5107  0.2917 -0.2866
10844SOL    HW133431   3.918   6.139   4.346 -1.6521  0.7308  1.2436
10844SOL    HW233432   3.913   6.288   4.281 -0.6602  0.0803 -0.3692
10845SOL     OW33433   6.999   2.838   0.396  0.0129  0.5761 -0.3601
10845SOL    HW133434   6.962   2.791   0.477  0.7472  0.3615 -0.1435
10845SOL    HW233435   6.982   2.783   0.315  1.2177 -0.2905 -0.0599
10846SOL     OW33436   3.181   2.154   1.887 -0.2113  0.6561  0.2451
10846SOL    HW133437   3.242   2.213   1.834  0.1169 -2.2939 -3.0003
10846SOL    HW233438   3.086   2.175   1.865 -0.1875  1.3079  0.7285
10847SOL     OW33439   5.658   3.364   0.214  0.7413  0.5401  0.6126
10847SOL    HW133440   5.715   3.352   0.295  0.8575  2.3804  0.8458
10847SOL    HW233441   5.590   3.434   0.232 -0.9302 -0.8365 -0.0448
10848SOL     OW33442   1.712   2.083   0.290 -0.1428 -0.0992 -0.3354
10848SOL    HW133443   1.763   1.997   0.293 -1.6381 -0.9914  0.8261
10848SOL    HW233444   1.676   2.103   0.381 -1.1859  0.9152 -0.9479
10849SOL     OW33445   1.100   4.898   3.340 -0.4493  0.2991  0.4002
10849SOL    HW133446   1.035   4.953   3.289  0.0766 -1.5835 -2.5779
10849SOL    HW233447   1.186   4.891   3.288  0.5853 -0.7918  2.1457
10850SOL     OW33448   5.636   6.077   0.048  0.3681 -0.3271  0.6471
10850SOL    HW133449   5.574   6.109  -0.024 -0.6093  0.0403  1.6126
10850SOL    HW233450   5.707   6.019   0.008 -0.8694 -1.1576 -0.4609
10851SOL     OW33451   3.893   2.491   6.010 -0.6713 -0.4018 -0.0629
10851SOL    HW133452   3.963   2.459   6.075 -2.3019  1.0291  2.6066
10851SOL    HW233453   3.936   2.550   5.941  1.3921 -3.2742 -1.4504
10852SOL     OW33454   0.664   0.915   5.845 -0.1607  0.2360 -0.3072
10852SOL    HW133455   0.722   0.993   5.821 -0.5654  0.7525  0.3326
10852SOL    HW233456   0.596   0.900   5.772  0.4693 -0.0767 -0.8372
10853SOL     OW33457   3.977   0.477   5.086 -0.2767 -0.6014 -0.2415
10853SOL    HW133458   4.014   0.569   5.076 -0.0620 -0.7270 -0.6433
10853SOL    HW233459   3.977   0.431   4.997  1.0701 -1.5443  0.2116
10854SOL     OW33460   5.798   6.189   6.691 -0.0615  0.2205  0.1351
10854SOL    HW133461   5.795   6.211   6.594 -0.6013  0.5564  0.2259
10854SOL    HW233462   5.888   6.151   6.714  0.2697  0.6857 -0.3764
10855SOL     OW33463   1.068   6.759   6.820  0.3935  0.2236 -0.0399
10855SOL    HW133464   1.106   6.670   6.842  0.6247  0.5355  0.9083
10855SOL    HW233465   1.122   6.802   6.748  0.8148 -0.0332  0.1223
10856SOL     OW33466   6.036   0.794   6.826  0.3454 -0.1065 -0.5921
10856SOL    HW133467   6.019   0.826   6.733  1.4872  0.4723 -0.6145
10856SOL    HW233468   6.002   0.861   6.892 -0.9795 -0.7775 -0.5650
10857SOL     OW33469   4.844   2.825   6.458  0.2739  0.1509 -0.4015
10857SOL    HW133470   4.854   2.798   6.362 -4.9653 -1.3877 -0.8275
10857SOL    HW233471   4.787   2.906   6.464 -0.8572 -0.7142  1.3865
10858SOL     OW33472   2.085   3.459   6.247 -0.2066 -0.2357 -0.0957
10858SOL    HW133473   2.178   3.426   6.233 -0.2170  0.3846 -1.8568
10858SOL    HW233474   2.062   3.453   6.345  1.9473  0.3413  0.5046
10859SOL     OW33475   3.416   5.613   2.456 -0.0893 -0.4626  0.1768
10859SOL    HW133476   3.427   5.631   2.359  0.4490 -0.4052  0.2455
10859SOL    HW233477   3.491   5.556   2.489 -0.8910 -1.4604  0.3181
10860SOL     OW33478   5.893   2.698   0.875 -0.0585  0.1217 -0.2552
10860SOL    HW133479   5.803   2.738   0.890 -0.6398 -0.4273 -2.0237
10860SOL    HW233480   5.916   2.638   0.952 -1.1941  0.2740  0.2247
10861SOL     OW33481   3.558   3.305   0.656  0.2483  0.1133 -0.6823
10861SOL    HW133482   3.648   3.333   0.624  0.8451 -0.9579  0.0298
10861SOL    HW233483   3.526   3.227   0.603 -0.1488  0.3120 -0.7442
10862SOL     OW33484   3.482   4.292   5.609 -0.2197 -0.2109 -0.2076
10862SOL    HW133485   3.408   4.328   5.666 -0.2923  0.2094 -0.5632
10862SOL    HW233486   3.499   4.196   5.633 -0.8609 -0.3023 -0.1019
10863SOL     OW33487   2.400   0.178   3.719 -0.5842  0.3386 -0.2933
10863SOL    HW133488   2.485   0.134   3.691 -1.2201 -1.1386 -0.0227
10863SOL    HW233489   2.415   0.228   3.805  0.5651  2.1688 -1.4809
10864SOL     OW33490   3.169   4.909   4.041 -0.0869  0.4511 -0.4393
10864SOL    HW133491   3.143   4.876   3.950  0.2659 -1.5024  0.1154
10864SOL    HW233492   3.198   5.005   4.035 -0.4420  0.4816 -2.2990
10865SOL     OW33493   3.742   1.139   1.962 -0.0727 -0.4197  0.2419
10865SOL    HW133494   3.768   1.107   2.053 -3.3607 -0.9827  1.1320
10865SOL    HW233495   3.651   1.182   1.967  0.4947  1.3307 -2.4686
10866SOL     OW33496   0.333   2.363   3.290  0.0987 -0.2959  0.1677
10866SOL    HW133497   0.376   2.278   3.319  1.5794  0.6008  0.7285
10866SOL    HW233498   0.404   2.428   3.261 -1.0129  0.6441 -0.5226
10867SOL     OW33499   4.447   3.408   6.658  0.4311  0.2218 -0.3730
10867SOL    HW133500   4.389   3.478   6.617  1.4244  0.5560 -1.2601
10867SOL    HW233501   4.504   3.449   6.729  0.5143  0.1633 -0.4055
10868SOL     OW33502   2.378   1.406   3.121 -0.2214 -0.0943  0.4140
10868SOL    HW133503   2.453   1.434   3.181  0.7064 -1.1809 -0.1866
10868SOL    HW233504   2.410   1.402   3.027 -1.2499  0.1234  0.0396
10869NA      NA33505   5.535   2.678   4.667 -0.1013 -0.0028 -0.0783
10870NA      NA33506   4.400   4.501   5.281 -0.1051  0.0290  0.1515
10871NA      NA33507   1.045   6.175   3.136  0.3272  0.1221 -0.2663
10872NA      NA33508   6.460   3.151   3.715  0.5078  0.4184  0.2137
10873NA      NA33509   3.884   1.588   3.973 -0.0517  0.0990 -0.1118
10874NA      NA33510   2.424   3.891   0.320  0.5589 -0.1604 -0.0296
10875NA      NA33511   6.784   5.773   6.136 -0.2790  0.0065  0.0584
10876NA      NA33512   3.452   4.492   1.177 -0.2635  0.6804  0.2487
10877NA      NA33513   5.007   6.445   0.675 -0.0536  0.1709  0.3976
10878NA      NA33514   2.723   0.946   1.285 -0.5000  0.0498  0.0050
10879NA      NA33515   5.743   1.306   1.437 -0.2052  0.0845 -0.0287
10880NA      NA33516   3.303   0.219   5.505  0.4969  0.1959  0.0180
10881NA      NA33517   4.626   5.441   1.841 -0.2464 -0.2733 -0.4092
10882NA      NA33518   3.368   2.804   6.873  0.4985  0.3302  0.2991
   7.02216   7.02216   7.02216
