CNT in water
33518
    1C        C    1   2.843   2.767   4.743  0.7043  0.3310  0.3476
    1C        C    2   2.896   2.715   4.863  0.1468 -0.0724  0.4199
    1C        C    3   2.842   2.768   4.981 -0.6455 -0.6023  0.3018
    1C        C    4   2.852   2.777   4.255 -0.1363  0.0271  0.2373
    1C        C    5   2.901   2.728   4.378 -0.2123 -0.5757  0.0335
    1C        C    6   2.846   2.770   4.501  0.6095  0.0042  0.2199
    1C        C    7   3.007   2.632   4.621  0.0993 -0.5840  0.2675
    1C        C    8   2.893   2.714   4.622  0.8238  0.4457  0.3442
    1C        C    9   3.075   2.598   4.740  0.3717  0.2020  0.3414
    1C        C   10   3.009   2.631   4.861  0.3775  0.2386  0.3357
    1C        C   11   3.182   2.493   4.970 -0.1242  0.1669 -0.0974
    1C        C   12   3.064   2.568   4.974  0.0542  0.4162  0.5928
    1C        C   13   2.853   2.773   3.767 -0.1022 -0.4006 -0.2040
    1C        C   14   2.903   2.723   3.890 -0.0336 -0.0456 -0.0819
    1C        C   15   2.851   2.773   4.012 -0.1290 -0.3403  0.0059
    1C        C   16   3.015   2.639   4.133 -0.5201 -0.3292  0.0621
    1C        C   17   2.904   2.726   4.134 -0.3646 -0.1233  0.1967
    1C        C   18   3.077   2.608   4.256 -0.1651 -0.0885 -0.0498
    1C        C   19   3.014   2.642   4.377 -0.1813 -0.5410  0.0747
    1C        C   20   3.203   2.547   4.497  0.2475  0.4027 -0.1029
    1C        C   21   3.073   2.602   4.499  0.0076 -0.1613  0.1113
    1C        C   22   3.276   2.524   4.615  0.0999 -0.5032 -0.1837
    1C        C   23   3.205   2.543   4.736  0.1680 -0.2430 -0.1840
    1C        C   24   3.408   2.471   4.858 -0.0941 -0.4375 -0.0272
    1C        C   25   3.268   2.501   4.856 -0.0582 -0.2817 -0.0803
    1C        C   26   3.484   2.482   4.975  0.1152 -0.5711 -0.1509
    1C        C   27   2.852   2.769   3.281 -0.0758 -0.2073 -0.1065
    1C        C   28   2.906   2.721   3.402 -0.2782 -0.3266 -0.0600
    1C        C   29   2.854   2.770   3.524  0.2210  0.0483  0.0122
    1C        C   30   3.018   2.638   3.645 -0.4475 -0.9030  0.1291
    1C        C   31   2.904   2.720   3.646 -0.6295 -1.1464 -0.1091
    1C        C   32   3.080   2.604   3.768 -0.1992 -0.3544  0.1602
    1C        C   33   3.016   2.638   3.889 -0.2714 -0.3754  0.1317
    1C        C   34   3.205   2.546   4.010 -0.1553 -0.0245  0.2504
    1C        C   35   3.075   2.601   4.011 -0.2622 -0.2650  0.1639
    1C        C   36   3.274   2.530   4.132 -0.1558 -0.1638  0.2346
    1C        C   37   3.210   2.559   4.254 -0.1750 -0.1368  0.2203
    1C        C   38   3.413   2.507   4.376  0.3804  0.5032 -0.1420
    1C        C   39   3.275   2.533   4.377  0.2092 -0.4005 -0.0363
    1C        C   40   3.487   2.497   4.496  0.2141 -0.0349 -0.0853
    1C        C   41   3.414   2.495   4.617  0.2357  0.1466 -0.0701
    1C        C   42   3.626   2.483   4.738 -0.1227 -0.6314  0.0895
    1C        C   43   3.485   2.474   4.738 -0.1043 -0.8943 -0.0474
    1C        C   44   3.701   2.485   4.858  0.4222 -0.5150 -0.2470
    1C        C   45   3.623   2.477   4.975  0.1472  0.3115 -0.3692
    1C        C   46   2.832   2.748   2.790  0.1993  0.0246  0.0513
    1C        C   47   2.892   2.709   2.913 -0.5407 -0.6517  0.2024
    1C        C   48   2.844   2.759   3.036 -0.4343 -0.4669  0.1700
    1C        C   49   3.013   2.632   3.159 -0.2357 -0.6809  0.0086
    1C        C   50   2.902   2.720   3.158 -0.0620 -0.4596 -0.0022
    1C        C   51   3.076   2.594   3.279 -0.5331 -0.6879  0.1624
    1C        C   52   3.019   2.636   3.401 -0.3354 -0.4081  0.1599
    1C        C   53   3.206   2.540   3.522 -0.0584  0.0857  0.1345
    1C        C   54   3.075   2.593   3.524 -0.3898 -0.7096  0.0826
    1C        C   55   3.275   2.523   3.644  0.1378 -0.1852 -0.0139
    1C        C   56   3.208   2.544   3.766  0.0484  0.1702 -0.1229
    1C        C   57   3.414   2.509   3.889 -0.1748  0.8475 -0.0094
    1C        C   58   3.273   2.520   3.889 -0.1969  0.5730  0.0917
    1C        C   59   3.485   2.503   4.011 -0.2221  0.5236  0.0018
    1C        C   60   3.413   2.508   4.132 -0.0671  0.3610  0.1007
    1C        C   61   3.625   2.501   4.254  0.2913  0.5832 -0.2893
    1C        C   62   3.484   2.497   4.254  0.3081  0.0410 -0.1442
    1C        C   63   3.700   2.501   4.374  0.0454 -0.0146 -0.1345
    1C        C   64   3.628   2.493   4.496  0.2168  0.1039 -0.0273
    1C        C   65   3.835   2.535   4.618 -0.0958  0.1980 -0.3973
    1C        C   66   3.699   2.496   4.618 -0.1416  0.3474  0.1745
    1C        C   67   3.898   2.564   4.741 -0.3038 -0.3272 -0.1669
    1C        C   68   3.835   2.528   4.863  0.2204  0.0721  0.2226
    1C        C   69   4.045   2.581   4.973 -0.2999 -0.1139 -0.1458
    1C        C   70   3.918   2.523   4.975 -0.1716 -0.3762  0.4903
    1C        C   71   2.821   2.734   2.305  0.3408  0.4556 -0.0446
    1C        C   72   2.879   2.690   2.426  0.0270  0.3758  0.0760
    1C        C   73   2.829   2.746   2.546  0.3894  0.3692  0.2287
    1C        C   74   3.003   2.624   2.668  0.4574  0.1498 -0.2849
    1C        C   75   2.887   2.704   2.668  0.4802  0.1805  0.1203
    1C        C   76   3.065   2.587   2.790 -0.0549 -0.0571 -0.0883
    1C        C   77   3.008   2.629   2.912 -0.2851 -0.2812 -0.1180
    1C        C   78   3.195   2.533   3.032  0.0358  0.1573  0.2306
    1C        C   79   3.067   2.593   3.034 -0.0014  0.0935 -0.1422
    1C        C   80   3.268   2.518   3.152  0.1167  0.2559  0.1934
    1C        C   81   3.205   2.538   3.277 -0.4175 -0.4198  0.0333
    1C        C   82   3.410   2.493   3.397 -0.2037 -0.3232 -0.1483
    1C        C   83   3.271   2.515   3.400 -0.0669  0.5490  0.0323
    1C        C   84   3.481   2.489   3.519 -0.0744  0.1236 -0.2089
    1C        C   85   3.414   2.497   3.643  0.1636 -0.0447 -0.0696
    1C        C   86   3.624   2.500   3.765 -0.0876  0.3074  0.0839
    1C        C   87   3.483   2.501   3.766 -0.0843  0.7217  0.0492
    1C        C   88   3.695   2.507   3.887  0.2952  0.1733 -0.1310
    1C        C   89   3.626   2.504   4.010 -0.2163 -0.1119 -0.4211
    1C        C   90   3.834   2.539   4.132 -0.1970  0.1713 -0.4806
    1C        C   91   3.697   2.505   4.133 -0.0320 -0.5013 -0.5233
    1C        C   92   3.902   2.564   4.253 -0.2858 -0.0881 -0.3798
    1C        C   93   3.836   2.538   4.375  0.0594 -0.0770 -0.1923
    1C        C   94   4.023   2.635   4.496 -0.0059  0.3389  0.1817
    1C        C   95   3.902   2.562   4.497  0.1783  0.0305 -0.2801
    1C        C   96   4.087   2.665   4.618 -0.2258 -0.0745  0.4003
    1C        C   97   4.025   2.627   4.739 -0.1303 -0.6633  0.2608
    1C        C   98   4.181   2.766   4.861 -0.3868  0.2956 -0.0753
    1C        C   99   4.095   2.652   4.860 -0.0417  0.0361  0.0646
    1C        C  100   4.202   2.845   4.975 -0.1417  0.2785 -0.1093
    1C        C  101   2.821   2.733   2.067  0.3558  0.4353 -0.3978
    1C        C  102   2.985   2.589   2.189 -0.0172  0.3750 -0.3241
    1C        C  103   2.874   2.680   2.185  0.3536  0.8380 -0.2130
    1C        C  104   3.062   2.577   2.308 -0.1123  0.1578 -0.2865
    1C        C  105   2.998   2.614   2.428 -0.1906  0.0303 -0.2918
    1C        C  106   3.195   2.527   2.548 -0.0714 -0.3356  0.1046
    1C        C  107   3.064   2.582   2.548  0.1053  0.0895 -0.4419
    1C        C  108   3.267   2.514   2.668  0.0094  0.0614  0.1001
    1C        C  109   3.197   2.537   2.788 -0.0437 -0.0279  0.0846
    1C        C  110   3.406   2.501   2.910 -0.0727  0.4062 -0.1309
    1C        C  111   3.266   2.520   2.910 -0.0942  0.2327  0.1484
    1C        C  112   3.479   2.492   3.030 -0.1387  0.7377 -0.0678
    1C        C  113   3.408   2.496   3.152  0.0996  0.1536  0.0892
    1C        C  114   3.620   2.498   3.274  0.1031  0.3445 -0.0252
    1C        C  115   3.479   2.491   3.274  0.1387 -0.4163  0.0445
    1C        C  116   3.689   2.505   3.397 -0.0131 -0.0897  0.0644
    1C        C  117   3.622   2.499   3.521 -0.0648 -0.0666  0.0370
    1C        C  118   3.829   2.548   3.642  0.1215 -0.9804 -0.2784
    1C        C  119   3.693   2.508   3.642 -0.0554 -0.4047  0.0540
    1C        C  120   3.898   2.569   3.764  0.4821 -0.6849 -0.5322
    1C        C  121   3.831   2.544   3.886  0.1493  0.6956 -0.4191
    1C        C  122   4.021   2.634   4.010  0.1039  0.2140 -0.0458
    1C        C  123   3.897   2.566   4.009  0.1142  0.2019 -0.3122
    1C        C  124   4.085   2.672   4.130 -0.1883 -0.1964  0.2389
    1C        C  125   4.026   2.631   4.252 -0.2694 -0.1102  0.2256
    1C        C  126   4.185   2.771   4.375  0.1069 -0.1248  0.0121
    1C        C  127   4.079   2.678   4.374 -0.1186  0.1386  0.0633
    1C        C  128   4.236   2.819   4.498 -0.0837 -0.1980  0.1160
    1C        C  129   4.189   2.763   4.618 -0.1531 -0.1554  0.1042
    1C        C  130   4.320   2.931   4.741  0.0015 -0.0362 -0.3218
    1C        C  131   4.239   2.814   4.740  0.0100 -0.0392 -0.0166
    1C        C  132   4.346   3.004   4.859 -0.1860 -0.0407 -0.2814
    1C        C  133   4.276   2.962   4.972  0.1960  0.0659 -0.0067
    1C        C  134   3.168   2.470   2.079 -0.1902 -0.3413  0.1461
    1C        C  135   3.031   2.501   2.087 -0.2034 -0.4334  0.2798
    1C        C  136   3.255   2.477   2.188 -0.3443  0.2903  0.2281
    1C        C  137   3.195   2.526   2.306 -0.1124  0.1310  0.4109
    1C        C  138   3.404   2.482   2.424  0.3333  0.4296 -0.0287
    1C        C  139   3.265   2.505   2.427  0.3344  0.3984  0.2009
    1C        C  140   3.478   2.481   2.545  0.2271 -0.4589  0.0313
    1C        C  141   3.407   2.493   2.666 -0.0477 -0.2973 -0.1462
    1C        C  142   3.618   2.497   2.786 -0.0874 -0.2457  0.3133
    1C        C  143   3.477   2.490   2.788 -0.1033 -0.0410 -0.1103
    1C        C  144   3.688   2.506   2.909  0.1784  0.0133  0.1420
    1C        C  145   3.620   2.496   3.032 -0.1312  0.3386 -0.0014
    1C        C  146   3.829   2.539   3.154  0.1244  0.0384 -0.3523
    1C        C  147   3.692   2.506   3.153 -0.0402  0.7040 -0.0870
    1C        C  148   3.896   2.564   3.276 -0.2180  0.5761 -0.2727
    1C        C  149   3.825   2.545   3.396  0.1005 -0.4753 -0.2377
    1C        C  150   4.021   2.625   3.520  0.0019 -0.3709  0.0051
    1C        C  151   3.893   2.567   3.518  0.1274 -0.6393 -0.2240
    1C        C  152   4.085   2.661   3.641 -0.0166 -0.2595 -0.0174
    1C        C  153   4.027   2.625   3.765  0.2723 -0.1997  0.1366
    1C        C  154   4.191   2.758   3.887  0.1046  0.3318  0.2721
    1C        C  155   4.081   2.670   3.887  0.3984 -0.0399  0.0220
    1C        C  156   4.246   2.805   4.008  0.1625  0.1363  0.3200
    1C        C  157   4.198   2.756   4.131 -0.1954 -0.1883  0.0492
    1C        C  158   4.335   2.918   4.251 -0.1274 -0.0591 -0.0738
    1C        C  159   4.244   2.810   4.253  0.0324 -0.1890 -0.0395
    1C        C  160   4.372   2.979   4.372  0.4837 -0.3635 -0.1088
    1C        C  161   4.322   2.932   4.496 -0.1576 -0.1548 -0.2920
    1C        C  162   4.426   3.115   4.618 -0.7016  0.2656 -0.0495
    1C        C  163   4.361   2.989   4.618 -0.1745 -0.0069 -0.3609
    1C        C  164   4.457   3.185   4.736 -0.5091  0.2290 -0.0833
    1C        C  165   4.423   3.123   4.859 -0.4251  0.1088 -0.1246
    1C        C  166   4.514   3.317   4.972  0.4472 -0.3524 -0.1231
    1C        C  167   4.478   3.182   4.973  0.2555 -0.3012 -0.2400
    1C        C  168   3.470   2.432   2.069 -0.4519 -0.1877 -0.0483
    1C        C  169   3.396   2.463   2.184 -0.4127 -0.3447  0.0190
    1C        C  170   3.615   2.472   2.301 -0.0696  0.0536  0.2646
    1C        C  171   3.473   2.467   2.302 -0.0741  0.0660 -0.2102
    1C        C  172   3.690   2.480   2.420  0.0747 -0.3092  0.1981
    1C        C  173   3.619   2.481   2.543  0.2308  0.0250  0.2830
    1C        C  174   3.825   2.535   2.664  0.2007 -0.7702 -0.1651
    1C        C  175   3.689   2.498   2.664  0.0946 -0.3908  0.4183
    1C        C  176   3.889   2.566   2.787  0.3407 -0.1907 -0.3839
    1C        C  177   3.824   2.541   2.910  0.2507 -0.2441 -0.4437
    1C        C  178   4.020   2.628   3.030  0.0535 -0.0529 -0.2656
    1C        C  179   3.894   2.564   3.031  0.1755 -0.2945 -0.3935
    1C        C  180   4.085   2.657   3.152  0.1439 -0.6974 -0.1578
    1C        C  181   4.026   2.618   3.274  0.2048 -0.4047 -0.0360
    1C        C  182   4.193   2.744   3.397  0.0297 -0.3802  0.4470
    1C        C  183   4.084   2.654   3.397  0.0942 -0.4600  0.0317
    1C        C  184   4.243   2.797   3.518  0.3232  0.1856  0.0816
    1C        C  185   4.197   2.748   3.642  0.4964 -0.9059 -0.2801
    1C        C  186   4.342   2.905   3.760 -0.0458 -0.7267 -0.0410
    1C        C  187   4.247   2.800   3.764  0.1788 -0.9336 -0.1362
    1C        C  188   4.374   2.970   3.881 -0.6695  0.1204 -0.3230
    1C        C  189   4.337   2.914   4.005  0.2220  0.0761 -0.0734
    1C        C  190   4.444   3.097   4.129 -0.4922  0.3509  0.0483
    1C        C  191   4.376   2.973   4.128 -0.2849  0.2415  0.0104
    1C        C  192   4.471   3.165   4.249 -0.9360  0.3327  0.1556
    1C        C  193   4.438   3.104   4.372 -0.4682  0.1494  0.1870
    1C        C  194   4.495   3.309   4.490 -0.5100  0.3654 -0.1928
    1C        C  195   4.456   3.174   4.493 -0.4560  0.3590  0.0592
    1C        C  196   4.520   3.382   4.609 -0.2650  0.1471 -0.1150
    1C        C  197   4.508   3.317   4.734 -0.2672  0.1297 -0.1292
    1C        C  198   4.548   3.531   4.845  0.0436 -0.1368 -0.3551
    1C        C  199   4.533   3.389   4.853  0.0062 -0.1119 -0.0441
    1C        C  200   4.571   3.617   4.958 -0.1795 -0.1430 -0.3087
    1C        C  201   3.609   2.417   2.071 -0.4539 -0.1663  0.3188
    1C        C  202   3.825   2.508   2.178 -0.3309  0.1544 -0.1917
    1C        C  203   3.689   2.465   2.180 -0.3996  0.3758  0.0440
    1C        C  204   3.892   2.543   2.298  0.3563 -0.8978 -0.2523
    1C        C  205   3.824   2.522   2.420 -0.1291  0.3581 -0.2834
    1C        C  206   4.018   2.616   2.544  0.1583 -0.5799  0.0311
    1C        C  207   3.890   2.556   2.541 -0.0229 -0.1839 -0.1868
    1C        C  208   4.080   2.658   2.663  0.3959 -0.2940 -0.1939
    1C        C  209   4.016   2.627   2.785  0.6204 -0.7669 -0.1965
    1C        C  210   4.193   2.746   2.905  0.3258 -0.2716  0.0302
    1C        C  211   4.077   2.667   2.907  0.6575 -0.7652 -0.2183
    1C        C  212   4.248   2.790   3.028 -0.0055 -0.2309  0.1610
    1C        C  213   4.197   2.743   3.151 -0.0694 -0.4200  0.0615
    1C        C  214   4.331   2.903   3.270 -0.6560 -0.3660 -0.3536
    1C        C  215   4.244   2.792   3.275 -0.1841 -0.7184  0.2242
    1C        C  216   4.372   2.962   3.392  0.3927 -0.4397 -0.6597
    1C        C  217   4.329   2.909   3.515  0.1525  0.3087 -0.4144
    1C        C  218   4.436   3.091   3.635 -0.6809 -0.0804  0.0547
    1C        C  219   4.380   2.961   3.636 -0.5183 -0.1512  0.0740
    1C        C  220   4.456   3.160   3.756 -1.3497  0.4865 -0.1511
    1C        C  221   4.435   3.097   3.881 -1.4364  0.4929 -0.1636
    1C        C  222   4.486   3.300   4.001 -0.8916  0.1365 -0.0852
    1C        C  223   4.462   3.160   4.004 -0.8067  0.1237 -0.1123
    1C        C  224   4.495   3.372   4.122 -0.8460  0.2837 -0.1793
    1C        C  225   4.495   3.304   4.246 -0.7817  0.2958 -0.1757
    1C        C  226   4.496   3.518   4.363  0.2131  0.3304 -0.0027
    1C        C  227   4.501   3.377   4.367 -0.2789  0.3074 -0.2099
    1C        C  228   4.500   3.592   4.484 -0.4470  0.2745  0.0565
    1C        C  229   4.520   3.523   4.606 -0.3103  0.1443 -0.0441
    1C        C  230   4.492   3.739   4.721 -0.6234  0.0317 -0.0282
    1C        C  231   4.528   3.601   4.723  0.2163  0.2534 -0.1559
    1C        C  232   4.491   3.819   4.837 -0.3401 -0.1324  0.0852
    1C        C  233   4.538   3.753   4.952 -0.3189 -0.1630  0.0562
    1C        C  234   4.023   2.592   2.058  0.1509 -0.4874 -0.4119
    1C        C  235   3.897   2.533   2.060  0.0054 -0.1629 -0.0564
    1C        C  236   4.079   2.642   2.175 -0.1797 -0.8549 -0.0898
    1C        C  237   4.021   2.604   2.298  0.3156 -0.8019  0.1677
    1C        C  238   4.192   2.731   2.418  0.6853 -1.0730 -0.3793
    1C        C  239   4.077   2.648   2.419  0.0681 -0.2269  0.0791
    1C        C  240   4.251   2.779   2.537  0.5605 -0.7971 -0.4309
    1C        C  241   4.191   2.745   2.660  0.2404 -0.1095 -0.3970
    1C        C  242   4.339   2.895   2.783 -0.4089 -0.1895  0.1146
    1C        C  243   4.249   2.786   2.782  0.1431 -0.6455 -0.1727
    1C        C  244   4.377   2.955   2.905 -0.3182 -0.0404  0.0103
    1C        C  245   4.340   2.897   3.029  0.2843 -0.4814 -0.0120
    1C        C  246   4.427   3.093   3.148 -0.6782  0.0681  0.1086
    1C        C  247   4.374   2.962   3.149 -0.1496 -0.1487 -0.0683
    1C        C  248   4.457   3.157   3.270 -0.9808  0.3536  0.0361
    1C        C  249   4.434   3.089   3.392 -0.8477  0.1909 -0.0280
    1C        C  250   4.485   3.296   3.512 -0.3724 -0.1681 -0.0248
    1C        C  251   4.462   3.156   3.512 -0.3806 -0.1688  0.0695
    1C        C  252   4.491   3.366   3.634 -0.8409  0.2234 -0.2196
    1C        C  253   4.483   3.299   3.759 -1.1766  0.4514 -0.1146
    1C        C  254   4.505   3.511   3.876 -0.6012  0.2154  0.1565
    1C        C  255   4.499   3.370   3.879 -0.7989  0.2200 -0.0254
    1C        C  256   4.499   3.583   3.998  0.4846  0.3361  0.1493
    1C        C  257   4.496   3.513   4.120  0.5097  0.2863  0.1201
    1C        C  258   4.471   3.727   4.237  1.0165  0.5394 -0.0580
    1C        C  259   4.490   3.588   4.240 -0.2641  0.3616  0.0380
    1C        C  260   4.464   3.800   4.358  0.4047  0.3266  0.0353
    1C        C  261   4.476   3.731   4.480 -0.1605  0.3230  0.0876
    1C        C  262   4.411   3.936   4.598  0.6406  0.6355  0.0538
    1C        C  263   4.464   3.805   4.600  0.3474  0.5174  0.0137
    1C        C  264   4.394   4.009   4.718  0.2498  0.3433  0.1767
    1C        C  265   4.429   3.946   4.839 -0.6078 -0.2640  0.1179
    1C        C  266   4.315   4.129   4.953 -0.1036  0.2048  0.5753
    1C        C  267   4.392   4.013   4.956 -0.7610 -0.2538  0.0623
    1C        C  268   4.246   2.781   2.059  0.2905 -0.2892  0.2432
    1C        C  269   4.188   2.733   2.177  0.1052 -1.1908 -0.2056
    1C        C  270   4.337   2.889   2.296  0.2763 -0.7697  0.0764
    1C        C  271   4.246   2.781   2.297  0.2160 -0.7223 -0.4433
    1C        C  272   4.383   2.947   2.417  0.2312 -0.5944  0.0087
    1C        C  273   4.343   2.887   2.538 -0.1773 -0.1645  0.0883
    1C        C  274   4.446   3.073   2.660 -0.1942 -0.2475  0.1136
    1C        C  275   4.381   2.947   2.659 -0.3864 -0.1466  0.1436
    1C        C  276   4.468   3.145   2.779 -0.4210  0.0650 -0.0359
    1C        C  277   4.436   3.083   2.902 -0.5769  0.0749 -0.0731
    1C        C  278   4.493   3.288   3.023 -0.8428 -0.0053 -0.1650
    1C        C  279   4.457   3.152   3.023 -0.9540  0.0243  0.0207
    1C        C  280   4.501   3.360   3.145 -0.8860  0.0315 -0.1835
    1C        C  281   4.494   3.294   3.269 -1.1918  0.4105  0.0025
    1C        C  282   4.494   3.506   3.388  0.1122  0.2466  0.0741
    1C        C  283   4.503   3.366   3.391 -0.7788  0.1824  0.1111
    1C        C  284   4.492   3.576   3.511  0.0020  0.0843  0.1665
    1C        C  285   4.496   3.507   3.634 -0.2926  0.2076  0.2473
    1C        C  286   4.477   3.721   3.752  0.7017  0.3712 -0.1662
    1C        C  287   4.500   3.582   3.754  0.2762  0.3038  0.1706
    1C        C  288   4.462   3.792   3.872  0.4647  0.2245 -0.1085
    1C        C  289   4.475   3.722   3.994  0.4892  0.3312 -0.0501
    1C        C  290   4.417   3.928   4.112  1.2910  0.4824 -0.0721
    1C        C  291   4.470   3.797   4.114  1.2663  0.4725 -0.0989
    1C        C  292   4.387   3.994   4.233  0.6345  0.0668 -0.0025
    1C        C  293   4.418   3.934   4.356  0.6439  0.4101  0.1641
    1C        C  294   4.317   4.125   4.474  0.4072  0.5668  0.5068
    1C        C  295   4.387   4.002   4.476  0.2330  0.4554  0.0351
    1C        C  296   4.276   4.185   4.595  0.1735  0.6924  0.3651
    1C        C  297   4.320   4.130   4.717  0.3541  0.4061  0.1734
    1C        C  298   4.194   4.312   4.834  0.2080 -0.0186  0.0815
    1C        C  299   4.276   4.195   4.836  0.2025 -0.0179  0.3479
    1C        C  300   4.172   4.404   4.942  0.1258  0.1814 -0.1056
    1C        C  301   4.337   2.886   2.058  0.1850 -0.2009 -0.1368
    1C        C  302   4.463   3.066   2.172  0.2948 -0.7026  0.2527
    1C        C  303   4.385   2.946   2.175  0.0644 -0.5555  0.0952
    1C        C  304   4.480   3.135   2.295  0.1807 -0.3371  0.0659
    1C        C  305   4.451   3.071   2.418  0.1016 -0.5234 -0.0505
    1C        C  306   4.498   3.278   2.536  0.3927 -0.5032  0.0494
    1C        C  307   4.478   3.138   2.539 -0.3724 -0.3984 -0.0135
    1C        C  308   4.505   3.353   2.655 -0.8994 -0.1033 -0.1098
    1C        C  309   4.493   3.284   2.778 -0.7172  0.1183  0.0320
    1C        C  310   4.518   3.496   2.902 -0.5275  0.1895  0.0660
    1C        C  311   4.505   3.355   2.900 -0.5223  0.1904 -0.0294
    1C        C  312   4.503   3.570   3.021 -0.9103  0.0666  0.0946
    1C        C  313   4.500   3.501   3.144 -1.3752  0.0324  0.0657
    1C        C  314   4.465   3.713   3.263  0.0878  0.3549 -0.0273
    1C        C  315   4.490   3.574   3.264 -1.0672  0.1341  0.0311
    1C        C  316   4.454   3.784   3.384  1.1810  0.5470 -0.0328
    1C        C  317   4.472   3.715   3.506  0.5671  0.1584 -0.1553
    1C        C  318   4.416   3.921   3.625  1.2896  0.5049  0.1251
    1C        C  319   4.457   3.786   3.628  0.3152  0.1875 -0.2018
    1C        C  320   4.386   3.987   3.746  1.5277  0.4827  0.1972
    1C        C  321   4.419   3.927   3.869  0.6580  0.2996  0.3499
    1C        C  322   4.323   4.117   3.987  0.7407  0.7219  0.5587
    1C        C  323   4.393   3.995   3.990  0.6631  0.6664  0.1468
    1C        C  324   4.283   4.178   4.109  0.5153  0.5109  0.5933
    1C        C  325   4.320   4.119   4.232  0.0094 -0.2586  0.3883
    1C        C  326   4.187   4.291   4.348  0.3987  0.1512 -0.1887
    1C        C  327   4.275   4.180   4.351  0.3672  0.1372  0.3251
    1C        C  328   4.135   4.342   4.469  0.3102  0.0900 -0.2001
    1C        C  329   4.184   4.292   4.591 -0.2733  0.3057  0.1224
    1C        C  330   4.021   4.434   4.711 -0.2374 -0.0774  0.0401
    1C        C  331   4.138   4.353   4.710 -0.0378  0.2051  0.2663
    1C        C  332   3.969   4.495   4.827  0.2482  0.5962 -0.0918
    1C        C  333   4.054   4.479   4.938  0.0214  0.0247  0.0024
    1C        C  334   4.554   3.262   2.066 -0.0745 -0.5552  0.4811
    1C        C  335   4.528   3.124   2.058 -0.4989 -0.4491 -0.0759
    1C        C  336   4.535   3.347   2.175 -0.6388 -0.2612  0.1576
    1C        C  337   4.508   3.274   2.293 -0.4168 -0.2109  0.2397
    1C        C  338   4.515   3.488   2.412  0.5110 -0.1741 -0.0424
    1C        C  339   4.509   3.347   2.414 -0.0942 -0.1495  0.2016
    1C        C  340   4.514   3.560   2.533 -0.5534 -0.0793 -0.0994
    1C        C  341   4.515   3.494   2.658 -0.7956 -0.1096 -0.1134
    1C        C  342   4.488   3.704   2.775 -0.0969 -0.0899 -0.0524
    1C        C  343   4.515   3.565   2.779 -0.1638 -0.1046 -0.1134
    1C        C  344   4.463   3.775   2.894  0.0084  0.2052 -0.2061
    1C        C  345   4.474   3.709   3.018  0.0042  0.2595 -0.1776
    1C        C  346   4.414   3.915   3.136  0.5543  0.2588  0.0176
    1C        C  347   4.458   3.781   3.139  0.5938  0.2699 -0.1035
    1C        C  348   4.388   3.982   3.257  0.9268  0.5303 -0.0511
    1C        C  349   4.417   3.920   3.380  1.0937  0.5224 -0.0935
    1C        C  350   4.317   4.107   3.501  0.7169  0.1117  0.1503
    1C        C  351   4.388   3.985   3.502  0.7145  0.1075  0.0408
    1C        C  352   4.272   4.166   3.621  0.2970 -0.1790  0.1407
    1C        C  353   4.316   4.110   3.743  0.9249  0.1411  0.0669
    1C        C  354   4.180   4.272   3.862  0.3377 -0.4850 -0.1658
    1C        C  355   4.276   4.169   3.865  0.3242 -0.4925  0.1865
    1C        C  356   4.126   4.320   3.984  0.0658 -1.0293 -0.0646
    1C        C  357   4.182   4.276   4.106 -0.0497 -0.0647  0.3438
    1C        C  358   4.013   4.408   4.224 -0.0190  0.3747 -0.1314
    1C        C  359   4.133   4.334   4.225  0.1306  0.6180  0.0916
    1C        C  360   3.953   4.446   4.346  0.1082  0.1718 -0.0032
    1C        C  361   4.016   4.417   4.469  0.1186 -0.2143 -0.0979
    1C        C  362   3.827   4.520   4.587  0.0521 -0.2774  0.0792
    1C        C  363   3.957   4.463   4.588  0.2178  0.0878 -0.1640
    1C        C  364   3.761   4.548   4.709 -0.0907 -0.3781  0.0254
    1C        C  365   3.837   4.544   4.827  0.1752  0.3998 -0.1140
    1C        C  366   3.628   4.588   4.947  0.2493  0.0510 -0.2333
    1C        C  367   3.766   4.571   4.945  0.2909  0.3488 -0.0326
    1C        C  368   4.506   3.559   2.053 -0.7409 -0.0987  0.2209
    1C        C  369   4.528   3.488   2.171 -0.8491 -0.2695  0.1409
    1C        C  370   4.499   3.702   2.287 -0.0035 -0.0061 -0.1046
    1C        C  371   4.519   3.562   2.291  0.0691  0.0071  0.0509
    1C        C  372   4.472   3.767   2.410 -0.5549 -0.4412  0.0081
    1C        C  373   4.491   3.700   2.532 -0.2277 -0.0224  0.1893
    1C        C  374   4.416   3.901   2.649  0.1441  0.1775  0.0134
    1C        C  375   4.475   3.773   2.652  0.3067  0.2548  0.0967
    1C        C  376   4.378   3.967   2.767  0.1360  0.3381 -0.0813
    1C        C  377   4.413   3.907   2.890  0.5727  0.4216 -0.1654
    1C        C  378   4.320   4.098   3.009  0.3676  0.0192  0.0362
    1C        C  379   4.392   3.976   3.011  0.7085  0.2208 -0.0276
    1C        C  380   4.276   4.158   3.129  0.4695 -0.0963  0.1311
    1C        C  381   4.314   4.103   3.253  0.5511  0.3126  0.2888
    1C        C  382   4.180   4.264   3.372  0.6071  0.3872  0.1389
    1C        C  383   4.276   4.160   3.376  0.4197  0.2201  0.2919
    1C        C  384   4.127   4.315   3.493 -0.2759 -0.6022  0.1796
    1C        C  385   4.177   4.270   3.618  0.1728 -0.2900  0.1147
    1C        C  386   4.006   4.393   3.736 -0.3799 -0.9155 -0.0831
    1C        C  387   4.127   4.320   3.740 -0.0140 -0.3141  0.0491
    1C        C  388   3.947   4.430   3.859  0.0866 -0.8249  0.1188
    1C        C  389   4.009   4.398   3.982  0.0290 -1.0789  0.0840
    1C        C  390   3.819   4.497   4.104 -0.2669 -0.6946 -0.2087
    1C        C  391   3.949   4.441   4.103 -0.0188 -0.1214 -0.2728
    1C        C  392   3.752   4.517   4.226  0.3002 -0.1151  0.0131
    1C        C  393   3.823   4.501   4.347  0.1027  0.1586  0.1680
    1C        C  394   3.613   4.548   4.470 -0.0147 -0.2070 -0.0456
    1C        C  395   3.753   4.529   4.467  0.0542  0.2577  0.1176
    1C        C  396   3.543   4.559   4.592 -0.1677 -0.0749 -0.1434
    1C        C  397   3.620   4.558   4.711 -0.0849 -0.2354 -0.1989
    1C        C  398   3.411   4.542   4.835  0.1310 -0.0423 -0.0425
    1C        C  399   3.550   4.568   4.833  0.0710  0.2663 -0.1489
    1C        C  400   3.342   4.509   4.953  0.0501  0.4075  0.0362
    1C        C  401   4.494   3.698   2.049  0.1603 -0.0206 -0.1506
    1C        C  402   4.452   3.910   2.167  0.7139  0.1604  0.2915
    1C        C  403   4.488   3.774   2.167 -0.1340 -0.0694 -0.1320
    1C        C  404   4.407   3.971   2.286 -0.5602 -0.2100  0.0135
    1C        C  405   4.423   3.899   2.407  0.1253 -0.1862 -0.0590
    1C        C  406   4.320   4.089   2.521  0.4023  0.0668 -0.0552
    1C        C  407   4.386   3.965   2.526  0.0766 -0.1088 -0.1182
    1C        C  408   4.276   4.148   2.642  0.0558  0.3362 -0.3099
    1C        C  409   4.310   4.091   2.767  0.3976  0.4813 -0.3370
    1C        C  410   4.175   4.255   2.884  0.1783 -0.2211 -0.1477
    1C        C  411   4.273   4.154   2.888  0.0163 -0.3689 -0.0070
    1C        C  412   4.128   4.310   3.005  0.3713 -0.3880  0.0003
    1C        C  413   4.182   4.264   3.127 -0.0153 -0.5206  0.1230
    1C        C  414   4.004   4.379   3.248  0.3287 -0.0513 -0.1829
    1C        C  415   4.124   4.305   3.249  0.4072  0.0791  0.1256
    1C        C  416   3.944   4.417   3.370 -0.2244 -0.9236 -0.1748
    1C        C  417   4.008   4.389   3.492 -0.2115 -0.4967 -0.0829
    1C        C  418   3.812   4.474   3.615 -0.0350 -0.1706 -0.0102
    1C        C  419   3.945   4.426   3.614 -0.0909 -0.3260 -0.0726
    1C        C  420   3.748   4.500   3.738 -0.3370 -0.9066 -0.0077
    1C        C  421   3.817   4.484   3.860  0.2376 -0.4529 -0.2680
    1C        C  422   3.609   4.526   3.983  0.0126  0.0372 -0.0238
    1C        C  423   3.750   4.511   3.981 -0.0775 -0.8881 -0.3419
    1C        C  424   3.540   4.532   4.106  0.0445  0.2472 -0.0145
    1C        C  425   3.612   4.533   4.228  0.3673  0.5272 -0.2046
    1C        C  426   3.400   4.537   4.353  0.2038  0.0955  0.0085
    1C        C  427   3.541   4.546   4.349  0.2283 -0.3265 -0.1905
    1C        C  428   3.330   4.534   4.475  0.2076 -0.3919  0.0042
    1C        C  429   3.403   4.548   4.595 -0.1541 -0.1770  0.1996
    1C        C  430   3.194   4.506   4.718 -0.1983 -0.1764 -0.3781
    1C        C  431   3.333   4.535   4.718 -0.1877 -0.2035  0.1779
    1C        C  432   3.127   4.484   4.842  0.2556 -0.4028 -0.1681
    1C        C  433   3.205   4.490   4.958  0.0916  0.0764 -0.0790
    1C        C  434   4.380   4.116   2.049 -0.2843  0.2762 -0.3360
    1C        C  435   4.445   3.992   2.053 -0.3419  0.2663  0.4170
    1C        C  436   4.297   4.154   2.159 -0.4495 -0.0422 -0.3504
    1C        C  437   4.332   4.092   2.281 -0.1101  0.0543 -0.3995
    1C        C  438   4.179   4.246   2.398 -0.0499 -0.3674  0.0189
    1C        C  439   4.283   4.151   2.400 -0.1022 -0.4255 -0.1554
    1C        C  440   4.125   4.297   2.518  0.0939  0.0825 -0.1095
    1C        C  441   4.181   4.251   2.639  0.0555  0.3425  0.0027
    1C        C  442   4.008   4.378   2.761  0.0614  0.1546  0.2048
    1C        C  443   4.126   4.301   2.760  0.1815  0.3436  0.0570
    1C        C  444   3.947   4.419   2.882  0.3270  0.1661  0.3324
    1C        C  445   4.005   4.379   3.004  0.4461 -0.2530  0.1381
    1C        C  446   3.815   4.473   3.125  0.0593 -0.1665  0.2905
    1C        C  447   3.944   4.418   3.126  0.0762 -0.1320 -0.0845
    1C        C  448   3.748   4.492   3.248  0.0230 -0.2728  0.2859
    1C        C  449   3.814   4.473   3.371 -0.1785 -0.8246  0.3107
    1C        C  450   3.608   4.527   3.495 -0.3351 -0.2079  0.2024
    1C        C  451   3.747   4.501   3.492 -0.3832 -0.4509  0.1126
    1C        C  452   3.536   4.537   3.616 -0.3040 -0.4333  0.2393
    1C        C  453   3.610   4.527   3.736 -0.3601 -1.0096  0.2251
    1C        C  454   3.400   4.521   3.863 -0.4763 -0.4504 -0.0260
    1C        C  455   3.541   4.531   3.859 -0.4389 -0.8933  0.1766
    1C        C  456   3.330   4.517   3.986  0.0476 -0.3226  0.2841
    1C        C  457   3.399   4.527   4.108  0.0713 -0.6761  0.3004
    1C        C  458   3.191   4.499   4.232 -0.0889 -0.4254  0.0248
    1C        C  459   3.331   4.518   4.231 -0.1217 -0.1698  0.2336
    1C        C  460   3.122   4.485   4.354  0.2512 -0.6226  0.1939
    1C        C  461   3.191   4.508   4.475  0.1061  0.1322  0.1364
    1C        C  462   2.997   4.424   4.600 -0.3540 -0.4669  0.0098
    1C        C  463   3.124   4.487   4.598 -0.4034 -0.3739 -0.2284
    1C        C  464   2.933   4.394   4.722 -0.0729 -0.0003  0.2769
    1C        C  465   2.992   4.436   4.844  0.0378  0.2141  0.1494
    1C        C  466   2.805   4.331   4.959 -0.1746  0.2162 -0.2863
    1C        C  467   2.908   4.426   4.959  0.0129  0.0163  0.1148
    1C        C  468   4.127   4.288   2.037 -0.3410 -0.4932 -0.2167
    1C        C  469   4.189   4.249   2.157 -0.3451  0.0824 -0.0250
    1C        C  470   4.002   4.365   2.274  0.1069  0.2735  0.1651
    1C        C  471   4.123   4.290   2.276 -0.0981 -0.0566  0.1565
    1C        C  472   3.939   4.397   2.396 -0.0060 -0.0097  0.1792
    1C        C  473   4.005   4.372   2.519  0.4005  0.5681  0.0781
    1C        C  474   3.812   4.462   2.640 -0.0269 -0.3751  0.2373
    1C        C  475   3.943   4.409   2.640  0.0547 -0.1644  0.1288
    1C        C  476   3.743   4.483   2.761  0.0717 -0.6279  0.3367
    1C        C  477   3.815   4.470   2.882  0.0629 -0.5088  0.3539
    1C        C  478   3.606   4.508   3.007 -0.0858 -1.1695  0.2801
    1C        C  479   3.747   4.493   3.003  0.0047 -0.3594  0.2910
    1C        C  480   3.535   4.511   3.129 -0.3308 -0.3416  0.1220
    1C        C  481   3.607   4.505   3.251 -0.0278 -0.7255 -0.0742
    1C        C  482   3.397   4.518   3.374  0.1240 -0.1442  0.0258
    1C        C  483   3.538   4.520   3.373  0.1211 -0.0792 -0.0698
    1C        C  484   3.328   4.514   3.497 -0.1207 -0.1532 -0.1117
    1C        C  485   3.395   4.535   3.620 -0.3174 -0.0084 -0.0305
    1C        C  486   3.191   4.490   3.742 -0.2578 -0.3001 -0.1507
    1C        C  487   3.327   4.526   3.743 -0.3852  0.1700 -0.0571
    1C        C  488   3.125   4.470   3.866  0.2653 -0.5020  0.0965
    1C        C  489   3.191   4.492   3.989  0.0424 -0.2976  0.1778
    1C        C  490   3.000   4.401   4.113 -0.2852 -0.1449  0.0368
    1C        C  491   3.123   4.471   4.111 -0.1621 -0.3621  0.0525
    1C        C  492   2.937   4.375   4.237 -0.3978  0.6278  0.1441
    1C        C  493   2.998   4.418   4.357 -0.2275  0.2427  0.1935
    1C        C  494   2.824   4.299   4.480 -0.4741 -0.1966 -0.0348
    1C        C  495   2.935   4.385   4.479 -0.3658 -0.3347 -0.0268
    1C        C  496   2.768   4.255   4.602 -0.0340 -0.2933  0.1339
    1C        C  497   2.819   4.309   4.722  0.1069 -0.2467  0.0545
    1C        C  498   2.665   4.163   4.848 -0.2852 -0.0446  0.1936
    1C        C  499   2.754   4.273   4.842 -0.3025 -0.0438 -0.1021
    1C        C  500   2.594   4.115   4.958  0.0262  0.0001  0.4162
    1C        C  501   4.001   4.348   2.036 -0.1458 -0.0807 -0.0580
    1C        C  502   3.814   4.461   2.153 -0.0597 -0.4141  0.4202
    1C        C  503   3.940   4.397   2.152  0.1137 -0.0685  0.0741
    1C        C  504   3.742   4.475   2.274 -0.0633 -0.0262  0.3704
    1C        C  505   3.808   4.448   2.395 -0.0785 -0.1995  0.3378
    1C        C  506   3.604   4.501   2.517 -0.0154  0.0107  0.0677
    1C        C  507   3.744   4.478   2.518  0.0135  0.1942  0.2889
    1C        C  508   3.534   4.514   2.638  0.1334 -0.3955  0.1976
    1C        C  509   3.604   4.507   2.761  0.0716 -0.6367  0.2217
    1C        C  510   3.395   4.519   2.884  0.1337 -0.0895  0.3802
    1C        C  511   3.536   4.517   2.885  0.1348 -0.1281  0.2203
    1C        C  512   3.324   4.520   3.006 -0.6435  0.1930 -0.0641
    1C        C  513   3.394   4.520   3.129 -0.3310 -0.3437 -0.2360
    1C        C  514   3.188   4.482   3.253  0.0194  0.1228 -0.0055
    1C        C  515   3.326   4.511   3.252  0.1608 -0.5281  0.0254
    1C        C  516   3.121   4.463   3.376 -0.3392  0.5228 -0.1358
    1C        C  517   3.190   4.481   3.498 -0.1784  0.0976 -0.1622
    1C        C  518   2.998   4.397   3.622 -0.2324 -0.0343  0.0544
    1C        C  519   3.126   4.458   3.621 -0.3319  0.1660 -0.2311
    1C        C  520   2.939   4.365   3.746 -0.1631 -0.0161  0.0887
    1C        C  521   3.000   4.403   3.867  0.0864 -0.1638  0.0078
    1C        C  522   2.829   4.280   3.994 -0.1441  0.0065 -0.0298
    1C        C  523   2.942   4.365   3.990 -0.2565  0.1495 -0.0602
    1C        C  524   2.779   4.233   4.117 -0.2151  0.4491  0.1106
    1C        C  525   2.825   4.289   4.238 -0.2136  0.3895  0.1362
    1C        C  526   2.684   4.134   4.363 -0.7426 -0.0153 -0.4605
    1C        C  527   2.771   4.246   4.361  0.0632 -0.6184 -0.0904
    1C        C  528   2.639   4.082   4.486 -0.6663  0.3060 -0.2949
    1C        C  529   2.680   4.145   4.606 -0.7547  0.2641 -0.2408
    1C        C  530   2.582   3.961   4.730  0.1644  0.0854  0.0796
    1C        C  531   2.635   4.092   4.729  0.0556  0.1309 -0.0006
    1C        C  532   2.540   3.901   4.852  0.1600  0.1835  0.1296
    1C        C  533   2.522   3.995   4.958 -0.1979  0.1326  0.1185
    1C        C  534   3.616   4.544   2.035  0.1919  0.4465  0.1149
    1C        C  535   3.752   4.510   2.038  0.0450 -0.1290  0.4846
    1C        C  536   3.534   4.519   2.150  0.2641  0.1840  0.1110
    1C        C  537   3.603   4.504   2.273  0.0415  0.4856  0.2718
    1C        C  538   3.391   4.512   2.395 -0.1868 -0.4442  0.1433
    1C        C  539   3.532   4.510   2.396 -0.1766  0.0690  0.1672
    1C        C  540   3.322   4.500   2.518 -0.2965 -0.0575  0.1207
    1C        C  541   3.393   4.505   2.641  0.0774  0.3769 -0.1059
    1C        C  542   3.184   4.480   2.764  0.5331 -0.4929  0.0299
    1C        C  543   3.323   4.506   2.763  0.5413 -0.5174  0.1761
    1C        C  544   3.120   4.458   2.888  0.0760  0.2060 -0.0724
    1C        C  545   3.188   4.482   3.009 -0.7514  0.5993  0.3225
    1C        C  546   2.995   4.395   3.132 -0.7036  0.4458  0.1465
    1C        C  547   3.121   4.458   3.131 -0.7076  0.4611  0.3212
    1C        C  548   2.936   4.358   3.255 -0.9218  0.7557  0.1347
    1C        C  549   2.998   4.394   3.377 -0.5667  0.9262 -0.0974
    1C        C  550   2.827   4.272   3.503 -0.4828  0.7460  0.1375
    1C        C  551   2.938   4.360   3.500 -0.2822  0.4833 -0.0800
    1C        C  552   2.774   4.229   3.627 -0.3836  0.2477  0.0054
    1C        C  553   2.830   4.276   3.748 -0.1528 -0.0257  0.0027
    1C        C  554   2.688   4.122   3.872  0.4695 -0.5981 -0.1823
    1C        C  555   2.780   4.229   3.872  0.0343 -0.2273 -0.0006
    1C        C  556   2.649   4.064   3.995  0.2478 -0.2193 -0.0774
    1C        C  557   2.687   4.126   4.116  0.1839  0.1060 -0.2258
    1C        C  558   2.593   3.942   4.245 -0.1876 -0.2293 -0.1464
    1C        C  559   2.651   4.071   4.241 -0.3245 -0.1761 -0.4923
    1C        C  560   2.562   3.880   4.368 -0.6019  0.1871 -0.0339
    1C        C  561   2.581   3.953   4.488 -0.4971  0.2301 -0.0742
    1C        C  562   2.527   3.750   4.612 -0.4763  0.3622  0.0992
    1C        C  563   2.560   3.888   4.611 -0.2731  0.3171  0.0141
    1C        C  564   2.516   3.681   4.735 -0.3681  0.0222 -0.0773
    1C        C  565   2.521   3.759   4.854 -0.3194  0.2397 -0.2174
    1C        C  566   2.517   3.545   4.973  0.5004 -0.0151 -0.0979
    1C        C  567   2.520   3.684   4.972 -0.5600  0.0157 -0.3570
    1C        C  568   3.319   4.473   2.036  0.0081  0.0222  0.3471
    1C        C  569   3.393   4.503   2.152  0.3332 -0.4492  0.2675
    1C        C  570   3.182   4.472   2.278 -0.0912  0.0418  0.0030
    1C        C  571   3.320   4.503   2.274 -0.0573 -0.0929  0.0394
    1C        C  572   3.113   4.453   2.400 -0.1606  0.6977  0.0701
    1C        C  573   3.184   4.472   2.521 -0.3180  0.0480  0.2736
    1C        C  574   2.989   4.393   2.644 -0.1386  0.0671 -0.1868
    1C        C  575   3.115   4.456   2.643 -0.3589  0.5265  0.3173
    1C        C  576   2.934   4.351   2.767 -0.1664  0.2507 -0.1338
    1C        C  577   2.998   4.387   2.888  0.1323  0.1048 -0.2442
    1C        C  578   2.826   4.266   3.013  0.1860  0.1489  0.0850
    1C        C  579   2.936   4.353   3.011  0.2539  0.0573 -0.1943
    1C        C  580   2.777   4.218   3.137 -0.2173  0.3650  0.0106
    1C        C  581   2.827   4.268   3.259 -0.5650  0.3234  0.1707
    1C        C  582   2.692   4.108   3.384 -0.3382  0.4517 -0.5187
    1C        C  583   2.776   4.221   3.382 -0.8716  0.8669  0.2525
    1C        C  584   2.647   4.058   3.508 -0.0726  0.4798 -0.4145
    1C        C  585   2.685   4.120   3.629 -0.0993  0.0119 -0.1679
    1C        C  586   2.594   3.929   3.753 -0.3352 -0.0404  0.1277
    1C        C  587   2.653   4.058   3.752 -0.0504 -0.1763 -0.2535
    1C        C  588   2.565   3.869   3.877 -0.4623 -0.1072  0.0633
    1C        C  589   2.596   3.933   3.999  0.2124 -0.2024 -0.0551
    1C        C  590   2.527   3.739   4.126 -0.4608 -0.1122 -0.0262
    1C        C  591   2.568   3.874   4.124 -0.4267 -0.1241 -0.1570
    1C        C  592   2.515   3.671   4.249  0.1843  0.2333  0.2366
    1C        C  593   2.528   3.743   4.370 -0.0488  0.0460  0.3801
    1C        C  594   2.512   3.535   4.497  0.6174 -0.1158 -0.0318
    1C        C  595   2.515   3.676   4.493  0.0255 -0.0874  0.3190
    1C        C  596   2.516   3.462   4.618 -0.1489 -0.2365 -0.0706
    1C        C  597   2.513   3.539   4.737  0.1129  0.0035 -0.2135
    1C        C  598   2.536   3.326   4.860  0.4559  0.1175  0.2783
    1C        C  599   2.520   3.466   4.857 -0.1057  0.0536 -0.1655
    1C        C  600   2.533   3.245   4.974  1.0131 -0.0704  0.1642
    1C        C  601   3.186   4.435   2.040 -0.0092  0.0476  0.0396
    1C        C  602   2.977   4.391   2.159 -0.2993  0.4167  0.0571
    1C        C  603   3.111   4.441   2.158 -0.0274 -0.2907  0.0472
    1C        C  604   2.923   4.350   2.284 -0.1713  0.5904  0.1694
    1C        C  605   2.990   4.385   2.404  0.0075  0.3913  0.1290
    1C        C  606   2.814   4.264   2.526  0.0352 -0.3547 -0.1658
    1C        C  607   2.925   4.351   2.525 -0.2676  0.0376 -0.1098
    1C        C  608   2.768   4.213   2.649  0.2100  0.1867  0.1287
    1C        C  609   2.821   4.267   2.769 -0.1667  0.2552  0.2671
    1C        C  610   2.688   4.105   2.893  0.2318 -0.2446 -0.1422
    1C        C  611   2.771   4.219   2.892  0.1447 -0.1758  0.2265
    1C        C  612   2.651   4.046   3.016  0.4366 -0.3563 -0.1340
    1C        C  613   2.692   4.105   3.138  0.1489  0.0829 -0.2527
    1C        C  614   2.578   3.930   3.261 -0.8116  0.4607 -0.0521
    1C        C  615   2.647   4.053   3.261 -0.4423  0.2541 -0.3910
    1C        C  616   2.557   3.865   3.385 -0.1230  0.3579  0.0143
    1C        C  617   2.591   3.929   3.506  0.1806  0.3667 -0.0776
    1C        C  618   2.525   3.730   3.635 -0.0888  0.3581 -0.1565
    1C        C  619   2.571   3.864   3.630  0.0738  0.3020 -0.1313
    1C        C  620   2.516   3.663   3.759 -0.1782  0.3113 -0.1898
    1C        C  621   2.527   3.733   3.880 -0.6097 -0.0639  0.0678
    1C        C  622   2.509   3.527   4.006 -0.3691 -0.1755 -0.2749
    1C        C  623   2.515   3.668   4.005 -0.6527 -0.1567  0.0157
    1C        C  624   2.516   3.459   4.130 -0.7344 -0.0293 -0.1665
    1C        C  625   2.512   3.529   4.252  0.0389  0.2212 -0.2734
    1C        C  626   2.542   3.324   4.376 -0.0628  0.1039 -0.0598
    1C        C  627   2.513   3.462   4.376  0.5885  0.2475 -0.2569
    1C        C  628   2.555   3.253   4.498 -0.0569  0.0296 -0.0979
    1C        C  629   2.541   3.323   4.620  0.3034 -0.1586  0.0611
    1C        C  630   2.593   3.115   4.741  0.3183  0.1360 -0.0077
    1C        C  631   2.558   3.253   4.741  0.4175  0.1648  0.2385
    1C        C  632   2.612   3.041   4.860  0.1994 -0.1399 -0.1560
    1C        C  633   2.557   3.107   4.975 -0.5239 -0.3651 -0.3684
    1C        C  634   2.780   4.298   2.052  0.1090 -0.1093  0.2054
    1C        C  635   2.887   4.388   2.048 -0.0583  0.0775 -0.1321
    1C        C  636   2.748   4.224   2.166 -0.0145 -0.3827 -0.0028
    1C        C  637   2.809   4.266   2.286  0.1337  0.1542 -0.2626
    1C        C  638   2.664   4.109   2.407  0.0040  0.1693 -0.0226
    1C        C  639   2.754   4.217   2.407 -0.1946  0.3404 -0.3323
    1C        C  640   2.628   4.049   2.529  0.4072 -0.1860 -0.0747
    1C        C  641   2.673   4.109   2.649  0.0524  0.3281 -0.1948
    1C        C  642   2.580   3.921   2.774  0.0499  0.1714 -0.1501
    1C        C  643   2.644   4.047   2.772  0.0526  0.1683 -0.2748
    1C        C  644   2.554   3.858   2.897 -0.1672  0.3530 -0.1014
    1C        C  645   2.580   3.924   3.019  0.4690 -0.3665  0.1636
    1C        C  646   2.518   3.723   3.145  0.2249 -0.2930 -0.1648
    1C        C  647   2.549   3.861   3.142  0.1276 -0.2656  0.1291
    1C        C  648   2.514   3.656   3.269  0.0942  0.3904  0.2050
    1C        C  649   2.525   3.727   3.390 -0.0988  0.3622  0.2374
    1C        C  650   2.501   3.519   3.515 -1.0341  0.0757 -0.4896
    1C        C  651   2.512   3.660   3.513 -0.1375  0.0209  0.0455
    1C        C  652   2.513   3.451   3.639 -0.0823  0.2599 -0.4757
    1C        C  653   2.512   3.522   3.761  0.2876  0.2910 -0.4884
    1C        C  654   2.538   3.315   3.887  0.4534  0.1975 -0.1945
    1C        C  655   2.510   3.453   3.885  0.5673  0.2200 -0.5184
    1C        C  656   2.556   3.251   4.011  0.5314  0.4889 -0.0488
    1C        C  657   2.537   3.319   4.133  0.5438  0.1511  0.1504
    1C        C  658   2.608   3.120   4.255 -0.0071 -0.1956 -0.1192
    1C        C  659   2.563   3.253   4.256  1.0679  0.1833  0.0667
    1C        C  660   2.637   3.056   4.377  0.3182 -0.0859 -0.1313
    1C        C  661   2.606   3.121   4.498 -0.1527 -0.0120 -0.2851
    1C        C  662   2.712   2.938   4.619  0.1742  0.3742  0.1583
    1C        C  663   2.631   3.054   4.620 -0.0670  0.2119 -0.1715
    1C        C  664   2.753   2.876   4.740  0.2441 -0.0593 -0.0816
    1C        C  665   2.695   2.924   4.860 -0.2445 -0.4561 -0.1555
    1C        C  666   2.741   2.864   4.978 -0.0278  0.0461  0.0201
    1C        C  667   2.682   4.019   2.053 -0.2010 -0.0108 -0.2348
    1C        C  668   2.678   4.101   2.166 -0.3080 -0.2174 -0.0877
    1C        C  669   2.579   3.911   2.289  0.3719 -0.1796 -0.3363
    1C        C  670   2.630   4.044   2.286 -0.1961  0.0560  0.0907
    1C        C  671   2.551   3.846   2.411 -0.2580  0.1826 -0.2811
    1C        C  672   2.578   3.917   2.531 -0.0401 -0.0201 -0.2059
    1C        C  673   2.514   3.716   2.657  0.4644  0.0182  0.0480
    1C        C  674   2.551   3.852   2.654 -0.1025  0.1735 -0.1157
    1C        C  675   2.502   3.648   2.781 -0.2879  0.1220  0.0378
    1C        C  676   2.522   3.720   2.900 -0.0999  0.3385 -0.1257
    1C        C  677   2.503   3.512   3.027  0.1266  0.1522 -0.0623
    1C        C  678   2.502   3.653   3.023 -0.5895  0.1427 -0.3127
    1C        C  679   2.510   3.443   3.150  0.1735  0.3286  0.0337
    1C        C  680   2.508   3.515   3.271  0.2734  0.3798  0.0041
    1C        C  681   2.540   3.309   3.397  0.5869 -0.0154 -0.0784
    1C        C  682   2.507   3.446   3.395 -0.0399 -0.1664 -0.2983
    1C        C  683   2.559   3.243   3.521  0.3750  0.1742  0.0572
    1C        C  684   2.542   3.313   3.642 -0.0112  0.2818 -0.0545
    1C        C  685   2.604   3.113   3.767  0.5450  0.1772  0.0452
    1C        C  686   2.555   3.246   3.765  0.4712  0.1522 -0.1705
    1C        C  687   2.637   3.053   3.891  0.4772  0.1933  0.0771
    1C        C  688   2.603   3.118   4.012  0.8086  0.5819 -0.0329
    1C        C  689   2.707   2.932   4.133  0.3056  0.0269  0.0465
    1C        C  690   2.634   3.053   4.133  0.3186  0.0425 -0.1891
    1C        C  691   2.755   2.880   4.255  0.1523  0.3090  0.2354
    1C        C  692   2.713   2.936   4.378  0.5696  0.0652  0.5008
    1C        C  693   2.755   2.878   4.499  0.7590  0.1405  0.4766
    1C        C  694   2.633   3.888   2.056 -0.1667 -0.0280 -0.3429
    1C        C  695   2.525   3.702   2.172 -0.2569 -0.1055  0.1211
    1C        C  696   2.573   3.834   2.171  0.1391 -0.2479 -0.2826
    1C        C  697   2.504   3.636   2.295 -0.4124 -0.2500  0.0210
    1C        C  698   2.511   3.711   2.415  0.2523  0.0280 -0.1839
    1C        C  699   2.492   3.502   2.539  0.6862  0.1949  0.2002
    1C        C  700   2.500   3.643   2.538  0.4304  0.2086 -0.0653
    1C        C  701   2.502   3.435   2.663  0.4534 -0.1152  0.0537
    1C        C  702   2.496   3.507   2.784  0.0040  0.1067 -0.0999
    1C        C  703   2.525   3.298   2.909 -0.0096  0.1350 -0.0445
    1C        C  704   2.506   3.438   2.907  0.4495  0.1973 -0.0830
    1C        C  705   2.543   3.232   3.032 -0.0940  0.1088 -0.0460
    1C        C  706   2.535   3.304   3.153 -0.0674  0.2792 -0.1456
    1C        C  707   2.599   3.104   3.277  0.5932  0.3245  0.1422
    1C        C  708   2.550   3.237   3.276  0.1991  0.1821 -0.2302
    1C        C  709   2.634   3.044   3.400 -0.1986 -0.1874  0.1249
    1C        C  710   2.611   3.112   3.522  0.2375  0.1160  0.0406
    1C        C  711   2.720   2.935   3.646 -0.2323 -0.3232  0.2283
    1C        C  712   2.637   3.049   3.646  0.3489  0.1119  0.0201
    1C        C  713   2.763   2.881   3.770  0.4760  0.0921  0.1810
    1C        C  714   2.715   2.936   3.891 -0.1719 -0.2556  0.0975
    1C        C  715   2.755   2.876   4.013 -0.2327 -0.4304  0.0384
    1C        C  716   2.437   3.498   2.062  0.0458 -0.3636 -0.2301
    1C        C  717   2.474   3.633   2.061  0.1811 -0.3969  0.0978
    1C        C  718   2.473   3.419   2.176 -0.3332 -0.1072  0.0658
    1C        C  719   2.484   3.495   2.296 -0.0620 -0.3016  0.1650
    1C        C  720   2.515   3.287   2.421  0.4091  0.0455  0.3962
    1C        C  721   2.491   3.427   2.419  0.1552  0.0015  0.3246
    1C        C  722   2.538   3.221   2.544  0.6297 -0.2624  0.1888
    1C        C  723   2.525   3.295   2.663  0.2367 -0.1507  0.0771
    1C        C  724   2.598   3.100   2.788  0.1871 -0.0119  0.2544
    1C        C  725   2.542   3.229   2.787 -0.2841 -0.2161  0.1129
    1C        C  726   2.630   3.037   2.911  0.3184 -0.0491  0.2014
    1C        C  727   2.596   3.100   3.032  0.4488  0.3224  0.0454
    1C        C  728   2.714   2.927   3.157  0.5187  0.5353  0.4410
    1C        C  729   2.628   3.039   3.155  0.0636  0.1881  0.0836
    1C        C  730   2.758   2.875   3.280  0.3164  0.1515  0.3545
    1C        C  731   2.717   2.930   3.403  0.0439 -0.0074  0.3393
    1C        C  732   2.756   2.872   3.526 -0.2396 -0.3865  0.2544
    1C        C  733   2.499   3.197   2.065  0.6093 -0.0666  0.0705
    1C        C  734   2.490   3.277   2.180  0.1948 -0.0471  0.0248
    1C        C  735   2.564   3.076   2.303 -0.2495  0.1850  0.4255
    1C        C  736   2.522   3.212   2.302 -0.2233  0.1917  0.2636
    1C        C  737   2.606   3.018   2.425  0.2666 -0.3126  0.0088
    1C        C  738   2.586   3.088   2.545 -0.3774 -0.6361  0.0969
    1C        C  739   2.691   2.907   2.669 -0.1532 -0.0240  0.5560
    1C        C  740   2.617   3.027   2.669 -0.6932 -0.3563  0.3145
    1C        C  741   2.739   2.854   2.791 -0.0192 -0.1667  0.4412
    1C        C  742   2.710   2.921   2.911  0.0121 -0.2644  0.5033
    1C        C  743   2.755   2.868   3.035 -0.3056 -0.3524  0.5819
    1C        C  744   2.546   3.066   2.066 -0.0583 -0.3052  0.1814
    1C        C  745   2.679   2.895   2.183 -0.2170  0.1923  0.1350
    1C        C  746   2.594   3.007   2.184 -0.6632 -0.1480  0.5117
    1C        C  747   2.725   2.839   2.304 -0.0632  0.0870  0.0279
    1C        C  748   2.689   2.903   2.424 -0.0553 -0.5465  0.3695
    1C        C  749   2.736   2.852   2.547  0.0400  0.0626  0.5879
    1C        C  750   2.728   2.836   2.065  0.2616  0.3666  0.2435
    1C        C  751   3.657   2.295   2.003  0.0163  0.2686 -0.1415
    1C        O  752   3.704   2.203   2.075  0.4531  0.2852 -0.3997
    1C        O  753   3.602   2.244   1.884 -0.2093 -0.0510  0.0988
    1C        C  754   4.627   3.049   1.978 -0.0827 -0.1364  0.1388
    1C        O  755   4.639   3.057   1.853 -0.2001 -0.3566  0.1130
    1C        O  756   4.756   3.020   2.024 -0.0337  0.6101  0.4841
    1C        C  757   4.445   4.218   1.964 -0.3098  0.3733 -0.2398
    1C        O  758   4.518   4.308   2.013  0.4831 -0.2734 -0.1931
    1C        O  759   4.466   4.207   1.826  0.5350  0.0924 -0.0954
    1C        C  760   3.579   4.655   1.945 -0.1017 -0.0109 -0.3391
    1C        O  761   3.599   4.773   1.986 -0.6166  0.0606 -0.2787
    1C        O  762   3.605   4.656   1.808  0.6872  0.4159 -0.1918
    1C        C  763   2.864   4.505   1.960  0.1744  0.2390  0.0194
    1C        O  764   2.858   4.488   1.835  0.1849  0.1990  0.0242
    1C        O  765   2.831   4.631   2.010 -0.0852  0.2113 -0.0766
    1C        C  766   2.316   3.464   1.984 -0.2096  0.3129 -0.1318
    1C        O  767   2.330   3.437   1.862 -0.0981 -0.5764  0.0713
    1C        O  768   2.183   3.490   2.019 -0.1309 -0.1754  0.5523
    1C        C  769   4.672   3.598   5.064  0.0308  0.0615 -0.4759
    1C        O  770   4.640   3.557   5.178 -0.5855  0.4468 -0.5055
    1C        O  771   4.810   3.586   5.042  0.0429 -0.3081 -0.1929
    1C        C  772   4.291   4.464   5.006  0.6747 -0.1331 -0.8158
    1C        O  773   4.345   4.402   5.101  0.1017 -0.2322 -0.5497
    1C        O  774   4.313   4.602   5.022 -0.2369 -0.0784  0.0643
    1C        C  775   4.141   2.505   5.057  0.0526  0.5745  0.0783
    1C        O  776   4.186   2.398   5.008 -0.2104  0.4682  0.0671
    1C        O  777   4.124   2.495   5.196  0.0610 -0.0820  0.0335
    1C        C  778   2.885   4.536   5.056 -0.0021 -0.0433  0.1803
    1C        O  779   2.810   4.632   5.022  0.3637  0.2811  0.2765
    1C        O  780   2.877   4.512   5.193 -0.2736  0.5454  0.2721
    1C        C  781   2.473   3.034   5.073 -0.2614  0.2736  0.3436
    1C        O  782   2.360   2.986   5.044 -0.1119  0.0149  0.1832
    1C        O  783   2.478   3.060   5.209  0.2069  1.1242  0.1754
    1C        C  784   2.405   3.991   5.048 -0.0408  0.4562  0.3445
    1C        O  785   2.283   3.975   5.018  0.1225 -0.5719  0.1715
    1C        O  786   2.430   3.991   5.186 -0.0641  0.2826  0.3495
    1C        C  787   2.930   2.429   2.006 -0.2626 -0.1612  0.1091
    1C        O  788   2.896   2.471   1.893  0.2444  0.0354  0.0268
    1C        O  789   2.926   2.290   2.014 -0.1133 -0.2200 -0.8142
    1C        C  790   3.178   2.376   5.061 -0.0953  0.2238 -0.0256
    1C        O  791   3.156   2.260   5.016  0.1322  0.1073  0.1616
    1C        O  792   3.154   2.391   5.198 -0.5318  0.0749 -0.0822
    1C        H  793   4.249   3.034   5.046  0.8815  0.4300 -0.1024
    1C        H  794   4.180   2.799   5.069 -1.2805  0.4163 -0.2919
    1C        H  795   4.508   3.119   5.054  1.5755 -0.2896 -0.6887
    1C        H  796   4.510   3.370   5.064  1.7154 -0.6402  0.1180
    1C        H  797   4.539   3.805   5.045  1.5482 -0.0686  0.0131
    1C        H  798   4.397   3.963   5.051  2.0107  0.9078  0.6104
    1C        H  799   4.299   4.175   5.049  2.4097 -0.3579  1.3285
    1C        H  800   4.027   4.534   5.025 -0.9105 -2.5619  1.4542
    1C        H  801   3.812   4.556   5.041 -0.7415  2.0389  0.7596
    1C        H  802   3.585   4.654   5.020 -1.5051 -1.7299  0.4247
    1C        H  803   3.400   4.455   5.024  0.2501 -0.0153 -0.4427
    1C        H  804   3.160   4.479   5.055 -0.6807  4.1661  0.1943
    1C        H  805   3.877   2.506   5.073 -0.2684  1.0744  0.7103
    1C        H  806   3.669   2.423   5.055 -1.9424 -2.6086 -0.9677
    1C        H  807   3.012   2.563   5.067  1.7760  0.7152  1.6056
    1C        H  808   3.440   2.520   5.065  0.5854 -1.1309  0.3235
    1C        H  809   2.890   2.748   5.075  1.1693 -1.1898 -0.7094
    1C        H  810   2.688   2.876   5.071 -0.3962  1.3504 -0.3394
    1C        H  811   2.471   3.276   5.055 -0.3746 -1.6918 -0.2093
    1C        H  812   2.496   3.497   5.067  0.4947  0.2804  0.0554
    1C        H  813   2.547   3.731   5.064 -0.2424 -1.4040  0.3011
    1C        H  814   2.610   4.162   5.053  2.4223 -1.4276  0.7912
    1C        H  815   2.774   4.287   5.052  0.5928 -1.0527 -0.6078
    1C        H  816   2.726   2.899   1.978 -0.6406  0.6016  0.4223
    1C        H  817   2.841   2.689   1.972  0.1752 -0.2416 -0.1248
    1C        H  818   3.202   2.423   1.989  0.3660  0.7481 -0.2241
    1C        H  819   3.432   2.465   1.974 -0.2750  2.9238  0.8536
    1C        H  820   3.867   2.480   1.972  0.5248 -0.6986  0.0862
    1C        H  821   4.089   2.558   1.980 -0.3366  2.3709 -2.2263
    1C        H  822   4.236   2.727   1.967  1.0273  1.0158 -0.6367
    1C        H  823   4.408   2.879   1.979 -0.5701  1.3927 -1.0115
    1C        H  824   4.551   3.311   1.971 -0.1960 -0.6899  0.4141
    1C        H  825   4.464   3.506   1.970  2.0885 -1.3664 -0.5395
    1C        H  826   4.507   3.747   1.955 -0.3105  0.6170  0.1069
    1C        H  827   3.819   4.560   1.972 -0.1134  1.3408  1.4066
    1C        H  828   3.936   4.321   1.955  0.5170  2.3734 -1.5088
    1C        H  829   4.169   4.248   1.947  0.0853 -1.2611  0.3074
    1C        H  830   4.520   3.978   1.978 -0.9661 -0.3035 -0.1111
    1C        H  831   2.660   3.826   1.974  1.0633  0.5735 -0.4190
    1C        H  832   2.695   4.064   1.956  2.9905  0.9161  0.4908
    1C        H  833   2.715   4.294   1.966 -0.4500  1.8736  0.5025
    1C        H  834   3.365   4.468   1.940  0.3606 -1.8378  0.5723
    1C        H  835   3.165   4.348   1.982 -1.6899  2.0326 -2.5577
    1C        H  836   2.493   3.004   1.998  0.2876  0.2307 -0.5869
    1C        H  837   2.428   3.220   1.988  0.2584  2.2069  0.9912
    1C        H  838   2.465   3.684   1.967 -1.0985  0.0286  0.4342
    2V3OU   H29  839   2.803   3.546   0.551  2.5545 -2.9488 -0.7291
    2V3OU   C27  840   2.776   3.496   0.647  0.0614 -0.8109 -0.1948
    2V3OU   H27  841   2.716   3.564   0.712  0.9802  0.1700 -0.3585
    2V3OU   H28  842   2.720   3.401   0.628 -0.0780 -0.5320 -1.2033
    2V3OU   O11  843   2.904   3.469   0.705  0.2012 -0.4522 -0.3417
    2V3OU   C15  844   2.917   3.397   0.822  0.1185 -0.2529 -0.2097
    2V3OU   C13  845   3.048   3.371   0.867  0.1854 -0.2963 -0.4288
    2V3OU   C14  846   3.071   3.268   0.959  0.2317 -0.1025 -0.2237
    2V3OU   C16  847   2.970   3.184   1.005 -0.0058  0.1549 -0.2705
    2V3OU    H6  848   2.989   3.097   1.070  0.5581  0.3604 -0.1523
    2V3OU   C12  849   3.211   3.231   0.986  0.0550 -0.6006  0.0068
    2V3OU    O2  850   3.233   3.117   1.035 -0.4140 -0.8904 -0.4540
    2V3OU   C10  851   3.324   3.311   0.938 -0.2145 -0.1492  0.1264
    2V3OU    C8  852   3.456   3.271   0.952 -0.0909  0.3821  0.4978
    2V3OU   O10  853   3.484   3.145   0.996  0.6070  0.2547 -0.2762
    2V3OU   H26  854   3.398   3.109   1.025  1.9971 -2.9044  0.2642
    2V3OU    C6  855   3.563   3.348   0.897  0.1675  0.0201  0.4886
    2V3OU    C5  856   3.539   3.468   0.831 -0.1220 -0.2379  0.1247
    2V3OU    C4  857   3.700   3.289   0.896  0.0788 -0.1809  0.1379
    2V3OU    H4  858   3.726   3.227   0.987  0.0928 -0.7342 -0.2420
    2V3OU    H5  859   3.709   3.221   0.807 -0.3434 -0.5848  0.3979
    2V3OU    C2  860   3.810   3.395   0.890 -0.3742  0.2721 -0.2370
    2V3OU    O6  861   3.801   3.468   1.013  0.4139  0.3044 -0.1923
    2V3OU   H21  862   3.770   3.556   0.988  0.1056  0.1189 -0.4814
    2V3OU    C3  863   3.784   3.492   0.775 -0.5271 -0.0572 -0.4822
    2V3OU    H2  864   3.866   3.569   0.770  1.6009 -2.2544 -1.8171
    2V3OU    H3  865   3.782   3.435   0.678 -0.9561  0.7084 -0.9362
    2V3OU   C25  866   3.946   3.327   0.881 -0.3089  0.3652  0.0292
    2V3OU    O7  867   3.988   3.292   0.771  0.1099  0.9435 -0.0003
    2V3OU   C26  868   4.026   3.287   1.004  0.1689  0.0029 -0.3930
    2V3OU   H22  869   4.061   3.381   1.055 -1.2077  1.3789 -1.8573
    2V3OU   H23  870   4.117   3.229   0.975  0.5469  0.8116 -0.8756
    2V3OU    O8  871   3.951   3.200   1.085 -0.0332  0.6181  0.0927
    2V3OU   H24  872   3.930   3.258   1.160  1.7188 -0.1941  1.3015
    2V3OU    C1  873   3.650   3.562   0.795 -0.3305  0.0947  0.3374
    2V3OU    H1  874   3.623   3.618   0.701 -0.1549  0.6400  0.6095
    2V3OU    O3  875   3.662   3.654   0.903  0.3825  0.3542  0.0474
    2V3OU   C19  876   3.616   3.788   0.880 -0.3348  0.0163 -0.5045
    2V3OU    H9  877   3.517   3.789   0.825  0.1833 -0.2160 -1.4739
    2V3OU    O4  878   3.712   3.846   0.794  0.1514 -0.0429 -0.0069
    2V3OU   C20  879   3.841   3.873   0.849  0.0912 -0.0393  0.1343
    2V3OU   H10  880   3.888   3.770   0.860  0.0689  0.0118  0.7295
    2V3OU   C24  881   3.608   3.858   1.016  0.5167 -0.3069 -0.2793
    2V3OU   H16  882   3.538   3.797   1.079  0.7840  0.3803  0.6945
    2V3OU   H17  883   3.557   3.955   0.993  0.5452  0.3927  2.3157
    2V3OU   C23  884   3.744   3.880   1.081  0.2623 -0.3213  0.2661
    2V3OU   H15  885   3.786   3.776   1.105  0.0969 -0.5124 -0.2581
    2V3OU    N1  886   3.727   3.956   1.203 -0.1940  0.2102 -0.1231
    2V3OU   H19  887   3.799   3.915   1.259 -1.3213 -0.6258  0.7585
    2V3OU   H20  888   3.638   3.930   1.241 -0.2107 -1.0986 -0.9775
    2V3OU   C21  889   3.850   3.943   0.985  0.2254 -0.2826  0.2513
    2V3OU   H11  890   3.949   3.917   1.032  0.3846 -0.6306 -0.2596
    2V3OU    O5  891   3.832   4.083   0.992  0.1216 -0.2910  0.1528
    2V3OU   H18  892   3.774   4.101   1.068 -1.2664  1.1719 -1.1539
    2V3OU   C22  893   3.915   3.946   0.738 -0.3003 -0.0542 -0.1373
    2V3OU   H12  894   3.864   4.044   0.719 -0.6073  0.2702  2.1300
    2V3OU   H13  895   3.912   3.886   0.643 -1.2125 -2.1817  1.1664
    2V3OU   H14  896   4.023   3.953   0.765 -0.5863 -1.1833  1.4162
    2V3OU   C11  897   3.154   3.471   0.847  0.2053 -0.3315 -0.4888
    2V3OU    O1  898   3.136   3.594   0.837  0.0918 -0.2839  0.2794
    2V3OU    C9  899   3.294   3.427   0.860  0.2368 -0.0572  0.0906
    2V3OU    C7  900   3.401   3.504   0.817  0.0335  0.7620  1.0132
    2V3OU    O9  901   3.381   3.627   0.758 -0.5484  0.6642  1.0056
    2V3OU   H25  902   3.286   3.637   0.773 -0.5936  0.1270  1.0997
    2V3OU   C17  903   2.813   3.320   0.878  0.0577 -0.1654 -0.2045
    2V3OU    H7  904   2.711   3.336   0.842  0.2799 -1.1848 -1.3443
    2V3OU   C18  905   2.841   3.219   0.969 -0.1348 -0.0163  0.0214
    2V3OU    H8  906   2.763   3.154   1.011 -1.6823  1.2814 -0.7338
    3SOL     OW  907   1.213   4.029   2.031  0.6061  0.0431 -0.2480
    3SOL    HW1  908   1.290   4.079   1.991 -0.8978  1.3079 -1.7072
    3SOL    HW2  909   1.183   4.077   2.114  0.4747  0.3900 -0.4932
    4SOL     OW  910   5.076   1.522   3.938 -0.2566  0.0463  0.1729
    4SOL    HW1  911   5.005   1.555   3.876 -0.2062  0.1148  0.1508
    4SOL    HW2  912   5.036   1.506   4.029 -0.6201 -1.3160 -0.2051
    5SOL     OW  913   3.169   2.900   5.693 -0.2411  0.1157 -0.3565
    5SOL    HW1  914   3.157   2.905   5.792 -0.1884 -1.3112 -0.2478
    5SOL    HW2  915   3.129   2.980   5.649  0.1034  0.9704  0.8438
    6SOL     OW  916   2.999   2.133   0.812 -0.3337  0.3678 -0.3193
    6SOL    HW1  917   3.024   2.143   0.716  0.2398  0.2755 -0.1804
    6SOL    HW2  918   2.944   2.051   0.824  1.6545 -1.0153 -0.1868
    7SOL     OW  919   0.188   5.131   2.672 -0.0603 -0.0948 -0.2951
    7SOL    HW1  920   0.203   5.105   2.576 -0.8383  0.4437 -0.5787
    7SOL    HW2  921   0.096   5.102   2.700 -0.2545  0.7198 -0.0603
    8SOL     OW  922   3.690   1.982   1.855 -0.4228 -0.1900  0.5827
    8SOL    HW1  923   3.656   2.072   1.881 -0.5199 -0.4694  1.4806
    8SOL    HW2  924   3.619   1.913   1.873  0.3677 -0.7020  1.9132
    9SOL     OW  925   0.077   5.490   5.310  0.6987 -0.0459 -0.4367
    9SOL    HW1  926   0.107   5.396   5.328 -0.1064 -0.3009 -0.3845
    9SOL    HW2  927   0.047   5.533   5.395 -3.5157 -1.3953 -0.9832
   10SOL     OW  928   6.613   3.540   0.918  0.6512  0.3504 -0.3067
   10SOL    HW1  929   6.685   3.552   0.986 -0.3775  2.6685  0.4825
   10SOL    HW2  930   6.526   3.571   0.956 -0.9151 -2.6836 -1.1054
   11SOL     OW  931   4.051   6.738   2.031 -0.2136  0.0988 -0.3862
   11SOL    HW1  932   3.999   6.800   2.089  0.1999  0.6705 -0.6253
   11SOL    HW2  933   4.148   6.747   2.051 -0.2313 -1.6340  0.7270
   12SOL     OW  934   5.790   5.316   4.263  0.1420 -0.1613  0.2498
   12SOL    HW1  935   5.779   5.414   4.281  0.3841  0.0021 -0.4437
   12SOL    HW2  936   5.861   5.303   4.193 -0.5173 -0.7799 -0.3151
   13SOL     OW  937   0.867   5.519   1.328  0.2765  0.4132  0.2194
   13SOL    HW1  938   0.895   5.446   1.265  1.3267 -0.0616  1.1953
   13SOL    HW2  939   0.821   5.478   1.407 -0.5539  0.9567  0.0279
   14SOL     OW  940   1.862   1.384   2.146  0.8170  1.0124  0.1902
   14SOL    HW1  941   1.937   1.449   2.157  0.6736  1.7420 -2.3985
   14SOL    HW2  942   1.878   1.329   2.064 -0.3866 -0.3920  0.8646
   15SOL     OW  943   2.155   1.261   5.352  0.6993 -0.3022  0.7659
   15SOL    HW1  944   2.069   1.296   5.315 -0.2296 -1.3282  1.8885
   15SOL    HW2  945   2.225   1.332   5.345 -0.4493  0.8653  0.6289
   16SOL     OW  946   6.714   1.166   0.575  0.4397  0.1445 -0.8467
   16SOL    HW1  947   6.664   1.088   0.537  1.6086 -2.0438  1.7512
   16SOL    HW2  948   6.811   1.143   0.580  0.4767  0.6013  2.4381
   17SOL     OW  949   4.131   4.806   2.852 -0.0516  0.0953 -0.3637
   17SOL    HW1  950   4.185   4.748   2.791  1.8113 -0.4748  1.6677
   17SOL    HW2  951   4.096   4.885   2.801  0.4637 -0.8943 -2.3600
   18SOL     OW  952   0.566   0.102   0.335 -0.0044 -0.4361  0.0853
   18SOL    HW1  953   0.510   0.023   0.312 -0.7606 -0.0274  0.5040
   18SOL    HW2  954   0.594   0.148   0.250  1.0462 -1.5408 -0.2010
   19SOL     OW  955   5.461   6.818   1.665  0.2420 -0.3048 -0.3597
   19SOL    HW1  956   5.379   6.798   1.720  0.5594  1.6881  0.9295
   19SOL    HW2  957   5.524   6.740   1.670 -1.4993 -1.8463 -1.3240
   20SOL     OW  958   3.885   1.553   3.947 -0.1353 -0.4937 -0.3288
   20SOL    HW1  959   3.964   1.581   3.893  0.4654  1.1823  1.3036
   20SOL    HW2  960   3.917   1.520   4.037 -1.3082  1.7796  0.9910
   21SOL     OW  961   2.042   1.908   0.782  0.7325  0.4688  0.1209
   21SOL    HW1  962   2.012   1.812   0.782  0.6178  0.4939  1.1120
   21SOL    HW2  963   2.008   1.954   0.864  1.9601  0.9769  0.3751
   22SOL     OW  964   1.355   6.252   6.857 -0.0749  0.2221 -0.2546
   22SOL    HW1  965   1.333   6.332   6.801  0.2098  0.5973  0.1651
   22SOL    HW2  966   1.424   6.276   6.925 -0.0892 -0.3444 -0.0289
   23SOL     OW  967   2.950   5.191   5.041 -0.4630 -0.4628 -0.5671
   23SOL    HW1  968   2.998   5.203   4.953 -0.1869 -0.2193 -0.3869
   23SOL    HW2  969   2.852   5.189   5.025 -0.4404  0.0929 -0.8322
   24SOL     OW  970   3.333   2.449   6.363  0.3981  0.0346  0.0971
   24SOL    HW1  971   3.431   2.427   6.360  0.2002 -0.8328 -3.0422
   24SOL    HW2  972   3.284   2.374   6.408  1.0118 -0.2686  0.2730
   25SOL     OW  973   2.357   6.975   0.957  0.0800  0.2741  0.0959
   25SOL    HW1  974   2.266   6.962   0.994  1.0648  0.1874  2.7003
   25SOL    HW2  975   2.356   7.049   0.890 -1.6763  1.0580  0.9396
   26SOL     OW  976   4.740   0.397   2.801  0.1002 -0.4442 -0.4390
   26SOL    HW1  977   4.667   0.453   2.841  0.3844  0.4574 -1.1558
   26SOL    HW2  978   4.699   0.318   2.754 -0.5452  0.7462 -1.9626
   27SOL     OW  979   4.975   0.747   2.810  0.1865 -0.4506  0.1320
   27SOL    HW1  980   4.907   0.819   2.794 -0.4145 -0.6834  1.5117
   27SOL    HW2  981   4.991   0.698   2.724  0.5039  1.2096 -0.8028
   28SOL     OW  982   3.289   1.331   1.783  0.1880  0.3002  0.4156
   28SOL    HW1  983   3.340   1.417   1.773  0.9930  0.2452  3.1816
   28SOL    HW2  984   3.354   1.255   1.782 -0.4144 -0.2296 -0.8817
   29SOL     OW  985   6.102   5.192   2.208 -0.2316 -1.2214  0.9981
   29SOL    HW1  986   6.178   5.188   2.272  0.5086  1.4026  0.3964
   29SOL    HW2  987   6.122   5.135   2.129  0.2609 -1.9829  1.6534
   30SOL     OW  988   4.268   1.049   5.724 -0.2105  0.2309  0.1112
   30SOL    HW1  989   4.281   0.954   5.695  0.0587  0.7740 -1.7149
   30SOL    HW2  990   4.313   1.065   5.811 -1.3289 -1.6230  1.0906
   31SOL     OW  991   0.624   2.384   6.143  0.2340 -0.1473 -0.4071
   31SOL    HW1  992   0.639   2.481   6.161  1.1985  0.1780 -2.6211
   31SOL    HW2  993   0.532   2.359   6.174 -0.3745  1.6935 -0.5691
   32SOL     OW  994   0.328   3.076   2.355  0.1181 -0.8462  0.0393
   32SOL    HW1  995   0.367   3.045   2.269 -1.7429  0.1927 -1.2416
   32SOL    HW2  996   0.270   3.004   2.393  0.3131 -1.0099  0.0291
   33SOL     OW  997   2.799   1.658   5.634  0.6796 -0.3889  0.2282
   33SOL    HW1  998   2.829   1.729   5.571 -1.5952 -0.8378 -1.4921
   33SOL    HW2  999   2.836   1.570   5.606  2.3467 -0.1730  1.5430
   34SOL     OW 1000   1.997   6.843   3.660 -0.0580 -0.2829  0.3360
   34SOL    HW1 1001   1.948   6.845   3.747 -0.4609 -0.4655  0.1153
   34SOL    HW2 1002   2.087   6.885   3.671 -0.9457  1.7388  0.3159
   35SOL     OW 1003   3.665   2.854   5.183 -0.0036  0.7326  0.9470
   35SOL    HW1 1004   3.652   2.871   5.085  0.1463  0.9660  0.9685
   35SOL    HW2 1005   3.748   2.800   5.197  0.0432  0.8068  0.9555
   36SOL     OW 1006   1.008   4.091   5.490  0.4468  0.3604 -0.1126
   36SOL    HW1 1007   1.069   4.040   5.430 -1.7913 -1.1615 -1.2360
   36SOL    HW2 1008   0.950   4.151   5.434  0.6310  1.4962  0.8805
   37SOL     OW 1009   2.866   6.372   1.910  0.0128 -0.3589 -0.3399
   37SOL    HW1 1010   2.903   6.322   1.989  1.3290  0.6319 -0.3035
   37SOL    HW2 1011   2.831   6.461   1.940  0.2972 -0.0753 -0.8313
   38SOL     OW 1012   6.552   4.505   1.144 -0.1814  0.0365 -0.9364
   38SOL    HW1 1013   6.481   4.564   1.104 -1.1840 -0.5714 -0.0818
   38SOL    HW2 1014   6.545   4.507   1.243  0.2383 -0.9467 -0.8752
   39SOL     OW 1015   6.323   2.162   5.316  0.2114 -0.1362 -0.0806
   39SOL    HW1 1016   6.348   2.248   5.361 -2.3035  0.2007  0.8249
   39SOL    HW2 1017   6.406   2.119   5.279  1.8310  1.5660  1.3325
   40SOL     OW 1018   0.319   1.565   1.151  0.4369  0.2263 -0.0889
   40SOL    HW1 1019   0.335   1.519   1.239 -0.3601  1.8571  0.9614
   40SOL    HW2 1020   0.361   1.656   1.154  2.2943 -0.4853 -2.2447
   41SOL     OW 1021   0.705   2.590   6.671  0.2865 -0.1867  0.1139
   41SOL    HW1 1022   0.643   2.515   6.648 -0.2656  0.1780  0.3923
   41SOL    HW2 1023   0.770   2.559   6.740  0.2102 -0.4809  0.0551
   42SOL     OW 1024   4.593   6.989   5.775  0.1256 -0.4145 -0.2536
   42SOL    HW1 1025   4.654   7.068   5.775 -0.4493  0.0324 -0.3401
   42SOL    HW2 1026   4.526   6.999   5.702 -0.6015 -0.4782  0.3954
   43SOL     OW 1027   4.431   0.303   6.085 -0.1196 -0.1922  0.4241
   43SOL    HW1 1028   4.358   0.241   6.113  0.0381 -0.1697  0.8925
   43SOL    HW2 1029   4.514   0.283   6.137  0.1150 -0.0015  0.1301
   44SOL     OW 1030   6.859   0.390   0.293  0.0209  0.0110  0.2348
   44SOL    HW1 1031   6.813   0.301   0.290  0.3768 -0.1515 -0.6347
   44SOL    HW2 1032   6.929   0.389   0.364  0.6109 -0.6989 -0.3465
   45SOL     OW 1033   2.777   0.444   1.219 -0.1864  0.0728 -0.1867
   45SOL    HW1 1034   2.723   0.387   1.282 -0.7680  0.9548  0.1299
   45SOL    HW2 1035   2.787   0.397   1.132 -0.2108 -0.7403  0.2379
   46SOL     OW 1036   0.983   5.954   3.448  0.0720  0.1559  0.4465
   46SOL    HW1 1037   1.063   6.002   3.413 -1.0329  1.3412 -0.5748
   46SOL    HW2 1038   0.936   5.908   3.373 -0.0030 -0.8530  1.0944
   47SOL     OW 1039   0.383   3.974   1.282 -0.3470 -0.2145 -0.3566
   47SOL    HW1 1040   0.307   3.958   1.345 -0.7348  1.2480 -0.4083
   47SOL    HW2 1041   0.362   4.053   1.224  1.8582  1.2675  0.7115
   48SOL     OW 1042   0.305   6.928   5.636  0.2260 -0.5153  0.1022
   48SOL    HW1 1043   0.314   6.828   5.633 -0.2660 -0.5564 -2.6708
   48SOL    HW2 1044   0.393   6.969   5.613  0.1337 -0.3465  0.0515
   49SOL     OW 1045   6.432   3.818   1.281 -0.3115 -0.0055 -0.4580
   49SOL    HW1 1046   6.526   3.819   1.247 -0.0624  1.3141  0.1902
   49SOL    HW2 1047   6.380   3.891   1.236 -0.1247  1.4133  1.4843
   50SOL     OW 1048   2.114   5.664   5.057  0.0365 -0.1554 -0.0750
   50SOL    HW1 1049   2.165   5.592   5.104  2.7723 -0.1358 -2.7107
   50SOL    HW2 1050   2.155   5.753   5.078  0.6850 -0.0541 -1.6706
   51SOL     OW 1051   4.577   6.011   0.780  0.0632 -1.0267 -0.1394
   51SOL    HW1 1052   4.641   6.068   0.728 -0.4683 -0.3160 -0.0122
   51SOL    HW2 1053   4.486   6.052   0.779  0.0283 -1.0015  1.3388
   52SOL     OW 1054   0.000   1.422   1.860 -0.3247  0.3853  0.5949
   52SOL    HW1 1055   0.076   1.465   1.810 -0.1801 -1.4536 -0.8952
   52SOL    HW2 1056   0.036   1.347   1.915 -0.8989  0.4001  0.9881
   53SOL     OW 1057   6.567   6.001   3.068 -0.4595 -0.0459  0.3106
   53SOL    HW1 1058   6.496   5.949   3.020 -1.4505  2.0897 -0.6773
   53SOL    HW2 1059   6.650   6.001   3.013 -0.5686 -0.2898  0.1418
   54SOL     OW 1060   4.698   4.578   6.179 -0.6371 -0.0527  0.3614
   54SOL    HW1 1061   4.671   4.629   6.098 -0.5387 -0.0141  0.3534
   54SOL    HW2 1062   4.744   4.639   6.244 -1.3694  0.0856  0.7663
   55SOL     OW 1063   5.161   1.637   1.292 -0.1517 -0.3688 -0.1804
   55SOL    HW1 1064   5.252   1.604   1.267 -0.2882 -0.2366 -0.8720
   55SOL    HW2 1065   5.158   1.736   1.286  0.6422 -0.0433  3.1972
   56SOL     OW 1066   0.678   6.940   1.176 -0.5528 -0.3506  0.1949
   56SOL    HW1 1067   0.699   6.846   1.149 -1.0676 -0.0208 -1.4563
   56SOL    HW2 1068   0.707   6.954   1.270  0.0368 -1.9981  0.3013
   57SOL     OW 1069   5.997   0.870   0.367  0.0996  0.2333 -0.4592
   57SOL    HW1 1070   5.986   0.812   0.286 -0.5984 -1.5918  0.8829
   57SOL    HW2 1071   5.919   0.931   0.375 -1.5048 -1.8345  0.5373
   58SOL     OW 1072   0.552   0.675   6.981  0.1941 -0.1863  0.4091
   58SOL    HW1 1073   0.506   0.633   7.059 -0.7046 -1.7448 -0.9029
   58SOL    HW2 1074   0.485   0.722   6.924  0.5135 -0.7772 -0.4692
   59SOL     OW 1075   5.408   0.437   5.396  0.0152 -0.3713 -0.0529
   59SOL    HW1 1076   5.503   0.418   5.419 -1.0385 -3.1551  2.6617
   59SOL    HW2 1077   5.391   0.411   5.301  1.7382 -0.6937 -0.3137
   60SOL     OW 1078   1.846   0.473   5.489 -0.5878  0.1388  0.0017
   60SOL    HW1 1079   1.856   0.564   5.529 -2.3731  0.8148 -0.9593
   60SOL    HW2 1080   1.935   0.441   5.455  0.0803  1.4835  0.4247
   61SOL     OW 1081   3.725   1.801   5.579  0.7843 -0.0949  0.5908
   61SOL    HW1 1082   3.781   1.821   5.659  0.1691 -0.9413  1.2524
   61SOL    HW2 1083   3.631   1.783   5.608  0.7179 -1.1958 -0.2273
   62SOL     OW 1084   2.620   1.361   6.125  0.0645 -0.5604 -0.7481
   62SOL    HW1 1085   2.671   1.419   6.190 -1.9856  1.7710 -1.0540
   62SOL    HW2 1086   2.531   1.338   6.164 -0.2977 -1.0393 -1.8307
   63SOL     OW 1087   1.048   3.498   4.466 -0.5471  0.0290 -0.5281
   63SOL    HW1 1088   1.127   3.475   4.410 -1.0891  0.4710 -1.5150
   63SOL    HW2 1089   0.968   3.448   4.433 -1.0570  0.9263 -0.7103
   64SOL     OW 1090   5.089   1.309   6.046  0.1731  0.2195  0.6516
   64SOL    HW1 1091   5.055   1.300   5.952 -1.3059 -1.7376  1.3137
   64SOL    HW2 1092   5.012   1.319   6.109  0.7484 -2.8609  2.0490
   65SOL     OW 1093   1.863   5.862   5.916 -0.0091 -0.0366  1.1368
   65SOL    HW1 1094   1.827   5.863   6.009 -0.9711 -0.7153  0.7916
   65SOL    HW2 1095   1.893   5.770   5.893 -2.0911 -0.5030 -0.0417
   66SOL     OW 1096   4.570   2.545   1.409  0.3930  1.2365 -0.0534
   66SOL    HW1 1097   4.500   2.596   1.460 -1.4141 -0.8899 -0.2348
   66SOL    HW2 1098   4.639   2.510   1.473 -1.0291 -0.1379  0.8139
   67SOL     OW 1099   4.985   4.195   4.506  0.1121  0.5300 -0.2229
   67SOL    HW1 1100   5.029   4.203   4.417  1.9340  1.1989  0.6896
   67SOL    HW2 1101   4.901   4.249   4.507  0.9393  1.8695 -1.0116
   68SOL     OW 1102   4.945   1.874   0.159  0.7238  0.2535  0.2018
   68SOL    HW1 1103   5.023   1.928   0.127 -0.0151  0.1855 -1.8178
   68SOL    HW2 1104   4.869   1.883   0.095 -0.0091 -1.8295  0.6900
   69SOL     OW 1105   3.716   4.179   5.052 -0.2200 -0.4232  0.0809
   69SOL    HW1 1106   3.672   4.153   4.966  1.9063 -0.2195 -1.1603
   69SOL    HW2 1107   3.815   4.164   5.044  0.1288  0.4417  2.1955
   70SOL     OW 1108   6.700   0.473   2.833  0.3931  0.1082 -0.1113
   70SOL    HW1 1109   6.741   0.562   2.854  0.4039  0.3126 -0.9614
   70SOL    HW2 1110   6.617   0.461   2.888  1.8233 -0.5359  2.0087
   71SOL     OW 1111   1.183   3.912   1.649 -0.2967  0.6486  0.2501
   71SOL    HW1 1112   1.141   3.997   1.680  0.4399  0.8167  0.8076
   71SOL    HW2 1113   1.283   3.922   1.649 -0.2365  0.7560 -2.4275
   72SOL     OW 1114   4.791   6.828   2.157  0.2139 -0.6671  0.0964
   72SOL    HW1 1115   4.884   6.862   2.175  0.4518 -1.4581  0.3934
   72SOL    HW2 1116   4.764   6.854   2.065  0.6195 -0.1870  0.1064
   73SOL     OW 1117   2.829   3.721   0.091 -0.2097  0.1435  0.1062
   73SOL    HW1 1118   2.890   3.694   0.016 -0.6328 -0.9702  0.1363
   73SOL    HW2 1119   2.745   3.667   0.085  0.0759 -0.5399  1.8522
   74SOL     OW 1120   5.448   6.516   4.910 -0.1020  0.1353  0.1018
   74SOL    HW1 1121   5.422   6.542   4.817  0.8630 -1.1422 -0.5565
   74SOL    HW2 1122   5.523   6.575   4.941 -1.0176  1.1528  0.4434
   75SOL     OW 1123   5.742   5.087   4.055  0.7707 -0.2143 -0.3495
   75SOL    HW1 1124   5.751   5.005   4.113 -1.2209  0.4006  0.9261
   75SOL    HW2 1125   5.833   5.125   4.038  1.5596 -1.3710  1.0134
   76SOL     OW 1126   2.607   3.768   0.496 -0.5017  0.1864  0.6559
   76SOL    HW1 1127   2.589   3.827   0.417  2.1861  1.7654  1.0884
   76SOL    HW2 1128   2.627   3.675   0.464  0.3082  0.7381 -0.5389
   77SOL     OW 1129   4.898   3.400   6.229  0.3762 -0.3055 -0.1451
   77SOL    HW1 1130   4.858   3.491   6.238  0.5840 -0.1170 -0.9848
   77SOL    HW2 1131   4.979   3.393   6.287 -0.9343 -0.7520  1.7046
   78SOL     OW 1132   5.047   0.824   5.651 -0.0860 -0.3697  0.2325
   78SOL    HW1 1133   5.001   0.750   5.701 -0.8458 -1.3418 -1.8080
   78SOL    HW2 1134   5.139   0.794   5.626 -0.1097 -0.3142  0.0823
   79SOL     OW 1135   2.293   6.857   0.348 -0.9368  0.0238  0.0733
   79SOL    HW1 1136   2.243   6.914   0.282  0.4536  2.3688  0.9255
   79SOL    HW2 1137   2.383   6.834   0.312 -0.6683  0.2071  0.6124
   80SOL     OW 1138   1.042   1.293   3.998 -0.4350  0.1583 -0.2096
   80SOL    HW1 1139   0.944   1.300   4.018 -0.4012  0.8685 -0.2812
   80SOL    HW2 1140   1.063   1.344   3.915 -0.2248 -1.1267 -0.9678
   81SOL     OW 1141   0.859   0.339   1.918 -0.1930  0.2355  0.3719
   81SOL    HW1 1142   0.918   0.279   1.972 -1.0186  0.0215  1.0643
   81SOL    HW2 1143   0.863   0.312   1.822  1.4650  0.7559  0.2648
   82SOL     OW 1144   0.280   3.877   6.098  0.6687 -0.3616 -0.5200
   82SOL    HW1 1145   0.333   3.884   6.183  0.0912 -0.9256 -0.1069
   82SOL    HW2 1146   0.300   3.955   6.039  0.4211  0.4816  0.5000
   83SOL     OW 1147   5.503   4.706   5.553  0.0366  0.0616  0.2019
   83SOL    HW1 1148   5.570   4.644   5.514  0.5308  0.2547  0.7226
   83SOL    HW2 1149   5.433   4.726   5.485  0.5783 -0.0365 -0.4023
   84SOL     OW 1150   0.459   3.091   3.290 -0.0336  0.2445 -0.1923
   84SOL    HW1 1151   0.366   3.056   3.302  0.0849 -0.0693 -0.1711
   84SOL    HW2 1152   0.478   3.103   3.193 -0.1334  0.4105 -0.1912
   85SOL     OW 1153   1.577   0.423   4.644  0.5637 -0.5825 -0.2925
   85SOL    HW1 1154   1.489   0.428   4.596  0.6860  2.3737 -0.3838
   85SOL    HW2 1155   1.590   0.331   4.681 -3.1828 -0.7901  0.9029
   86SOL     OW 1156   4.300   1.937   1.577  0.1443  0.5513  0.1724
   86SOL    HW1 1157   4.234   2.000   1.535  0.2682 -0.5514 -1.7860
   86SOL    HW2 1158   4.315   1.964   1.672 -1.2254  2.3270 -0.0503
   87SOL     OW 1159   3.326   4.154   0.001  0.4858  0.0186 -0.3858
   87SOL    HW1 1160   3.391   4.166   0.076 -0.0668  1.2330 -0.0812
   87SOL    HW2 1161   3.294   4.059  -0.000 -0.9205  0.3642  2.1173
   88SOL     OW 1162   6.228   6.971   2.082 -0.1275 -0.1429 -0.1424
   88SOL    HW1 1163   6.264   6.947   1.992 -0.9741  0.8762 -0.7648
   88SOL    HW2 1164   6.219   7.070   2.090  0.9612 -0.1327  1.4757
   89SOL     OW 1165   0.707   2.277   5.920  0.4848  0.1476 -0.5910
   89SOL    HW1 1166   0.803   2.265   5.896  0.5348  0.3877 -0.5173
   89SOL    HW2 1167   0.701   2.308   6.016  0.2760 -1.1843 -0.1613
   90SOL     OW 1168   6.825   5.505   1.822 -0.4504 -0.0320 -0.8467
   90SOL    HW1 1169   6.826   5.453   1.908  0.0748 -1.0463 -1.4510
   90SOL    HW2 1170   6.730   5.525   1.797 -0.5779  2.2160  1.0781
   91SOL     OW 1171   4.974   6.116   5.756  0.3322  0.7368  0.4616
   91SOL    HW1 1172   4.959   6.137   5.853  2.4816 -1.0410  1.2556
   91SOL    HW2 1173   5.063   6.150   5.728 -0.0359  0.7424 -0.7606
   92SOL     OW 1174   2.230   6.644   6.980  0.4397 -0.2025 -0.3812
   92SOL    HW1 1175   2.212   6.695   7.064  1.6340  1.8455 -1.3013
   92SOL    HW2 1176   2.190   6.692   6.902 -0.2255 -1.8113 -1.0871
   93SOL     OW 1177   2.179   4.109   5.232 -0.1209 -0.5759  0.1291
   93SOL    HW1 1178   2.222   4.041   5.172 -0.2870 -0.0712 -0.5835
   93SOL    HW2 1179   2.231   4.117   5.317 -0.0375 -1.5049  0.1702
   94SOL     OW 1180   1.625   0.451   3.009  0.3354  0.5019  0.5295
   94SOL    HW1 1181   1.587   0.461   2.917  0.4736  0.8981  0.5128
   94SOL    HW2 1182   1.556   0.479   3.076 -0.2370 -1.0393  0.6199
   95SOL     OW 1183   1.233   6.083   2.798 -0.5090 -0.3532  0.2551
   95SOL    HW1 1184   1.156   6.145   2.813 -0.8383 -0.5323 -0.6407
   95SOL    HW2 1185   1.315   6.137   2.775 -0.3787 -0.1684  1.1217
   96SOL     OW 1186   0.680   5.275   5.014  0.0399  0.1412  0.3454
   96SOL    HW1 1187   0.722   5.364   4.996 -1.0895  1.2332  2.6297
   96SOL    HW2 1188   0.624   5.281   5.097 -1.4764 -2.2690 -0.3992
   97SOL     OW 1189   1.708   1.787   3.040 -0.4784  0.3250  0.1748
   97SOL    HW1 1190   1.736   1.873   2.997  1.2998  0.0163  0.6305
   97SOL    HW2 1191   1.761   1.772   3.124  1.2236 -2.4799 -1.2595
   98SOL     OW 1192   5.242   0.980   6.325 -0.0890  0.1510  0.5017
   98SOL    HW1 1193   5.146   0.953   6.337 -0.0377  0.1632  0.9736
   98SOL    HW2 1194   5.276   1.018   6.411 -0.0888  1.5124 -0.0908
   99SOL     OW 1195   4.381   0.736   2.500  0.0955 -0.0931 -0.0577
   99SOL    HW1 1196   4.427   0.724   2.588  1.6685  0.2564 -0.8023
   99SOL    HW2 1197   4.426   0.679   2.431 -2.1774 -1.7114 -0.3323
  100SOL     OW 1198   0.328   6.050   0.404  0.6904  0.3059  0.2376
  100SOL    HW1 1199   0.332   6.036   0.305  2.6332 -0.3661  0.3797
  100SOL    HW2 1200   0.361   6.142   0.427  1.9987 -0.1811  0.3725
  101SOL     OW 1201   2.127   6.849   3.026  0.0439  0.3092 -0.2639
  101SOL    HW1 1202   2.063   6.804   2.965 -0.6966  0.6510  0.2359
  101SOL    HW2 1203   2.201   6.890   2.973 -0.9626  1.2170 -1.0073
  102SOL     OW 1204   3.834   4.910   3.769 -0.1313 -0.4786  0.2111
  102SOL    HW1 1205   3.755   4.956   3.810 -0.7687 -0.1624 -1.2829
  102SOL    HW2 1206   3.801   4.837   3.708  0.7849 -1.1287  0.4770
  103SOL     OW 1207   5.722   1.265   3.026 -0.6047 -0.1570  0.2220
  103SOL    HW1 1208   5.731   1.206   2.946 -0.5885 -0.8207  0.7114
  103SOL    HW2 1209   5.668   1.219   3.096 -0.2217  0.2354  0.7799
  104SOL     OW 1210   0.346   4.683   3.865 -0.2866  0.2361 -0.0540
  104SOL    HW1 1211   0.418   4.750   3.877 -0.6420  0.2299  2.5593
  104SOL    HW2 1212   0.386   4.595   3.839  0.4789  0.6074 -0.1639
  105SOL     OW 1213   5.779   1.786   0.663  0.7374 -0.4434 -0.3583
  105SOL    HW1 1214   5.854   1.840   0.701  0.6414  0.4708 -1.4148
  105SOL    HW2 1215   5.745   1.722   0.732  0.9350  0.7626  0.8962
  106SOL     OW 1216   3.720   6.662   3.500  0.0055  0.3419 -0.2284
  106SOL    HW1 1217   3.746   6.566   3.494  2.1089  0.8804 -0.5484
  106SOL    HW2 1218   3.666   6.677   3.582 -0.0911 -1.0559 -0.0209
  107SOL     OW 1219   3.245   4.272   0.574 -0.7599  0.0085  0.1277
  107SOL    HW1 1220   3.329   4.218   0.567 -1.0811 -0.3063 -1.9593
  107SOL    HW2 1221   3.257   4.359   0.527 -1.5094  0.0570  0.0029
  108SOL     OW 1222   3.864   3.856   5.307 -0.0366  0.3935  0.1705
  108SOL    HW1 1223   3.774   3.891   5.281 -0.5053 -0.0734  1.1519
  108SOL    HW2 1224   3.882   3.770   5.259 -1.4114 -1.0993  2.1889
  109SOL     OW 1225   5.137   0.050   1.343 -0.0163  0.0614  0.1227
  109SOL    HW1 1226   5.132   0.150   1.347 -0.5864 -0.0033  2.6591
  109SOL    HW2 1227   5.232   0.021   1.355  0.0001  0.2789  0.5335
  110SOL     OW 1228   3.985   6.193   5.133  0.0976  0.2314 -0.1886
  110SOL    HW1 1229   4.049   6.255   5.178 -0.1318  0.4188 -0.1198
  110SOL    HW2 1230   3.896   6.238   5.123  0.1438  0.1863 -0.8239
  111SOL     OW 1231   3.004   1.203   4.247  0.0640 -0.5225  0.4222
  111SOL    HW1 1232   2.917   1.248   4.266 -0.7433 -0.8094 -2.1993
  111SOL    HW2 1233   3.054   1.254   4.177  0.8317 -1.7216  0.0603
  112SOL     OW 1234   0.890   1.322   1.472  0.1073 -0.0471  0.2380
  112SOL    HW1 1235   0.849   1.412   1.486  1.5059  0.4393  1.4906
  112SOL    HW2 1236   0.834   1.253   1.519  0.1596  0.4677  1.0816
  113SOL     OW 1237   0.308   6.223   4.076 -0.3127 -0.4891 -0.8200
  113SOL    HW1 1238   0.228   6.283   4.082  0.7713  1.2984 -2.8748
  113SOL    HW2 1239   0.375   6.250   4.145 -0.6565 -0.7069 -0.3936
  114SOL     OW 1240   1.218   6.919   0.258  0.3509 -0.5585 -0.0984
  114SOL    HW1 1241   1.306   6.964   0.270 -0.4685  1.5478 -1.4609
  114SOL    HW2 1242   1.232   6.824   0.230  2.1554 -0.4535  0.3478
  115SOL     OW 1243   5.071   1.203   5.449  0.3638  0.2879  0.3272
  115SOL    HW1 1244   5.026   1.127   5.495  3.0120 -3.1102 -2.1586
  115SOL    HW2 1245   5.026   1.221   5.362  0.2108  1.0764  0.5634
  116SOL     OW 1246   0.000   4.704   2.632 -0.0041  0.1529  0.3849
  116SOL    HW1 1247  -0.031   4.675   2.541 -0.5756  1.2679  0.2112
  116SOL    HW2 1248  -0.031   4.638   2.700  1.1561 -1.1602 -0.3005
  117SOL     OW 1249   1.689   5.963   4.400 -0.0251 -0.2300  0.2818
  117SOL    HW1 1250   1.756   5.895   4.429 -0.3608 -0.8325 -0.3410
  117SOL    HW2 1251   1.726   6.055   4.416  0.0303 -0.5214  2.0795
  118SOL     OW 1252   1.524   1.574   2.973  0.2218 -0.0311 -0.0988
  118SOL    HW1 1253   1.447   1.571   3.037 -0.0571  0.0163 -0.4253
  118SOL    HW2 1254   1.594   1.636   3.007  0.8982 -1.3911  1.0555
  119SOL     OW 1255   0.751   1.938   0.403 -0.2817 -0.1194 -0.2492
  119SOL    HW1 1256   0.788   2.009   0.343 -0.8960  0.4919  0.0786
  119SOL    HW2 1257   0.656   1.919   0.377  0.1519 -1.4952 -0.9316
  120SOL     OW 1258   4.366   4.692   2.224  0.1214  0.3330  0.2960
  120SOL    HW1 1259   4.335   4.629   2.153 -1.4191  2.8749 -1.4713
  120SOL    HW2 1260   4.466   4.695   2.224  0.2073 -1.4563 -0.1284
  121SOL     OW 1261   2.733   3.650   5.264  0.4781 -0.2458  0.9711
  121SOL    HW1 1262   2.721   3.749   5.255  0.0092 -0.3296  0.6335
  121SOL    HW2 1263   2.778   3.615   5.183 -1.4976 -0.6409 -0.0274
  122SOL     OW 1264   0.683   3.326   5.060 -0.3953 -0.6407 -0.5402
  122SOL    HW1 1265   0.692   3.338   4.961  1.1937  0.0715 -0.3443
  122SOL    HW2 1266   0.773   3.334   5.103 -1.1092 -0.5240  1.0155
  123SOL     OW 1267   6.797   3.126   3.123  0.0409  0.4565  0.0696
  123SOL    HW1 1268   6.796   3.039   3.172  1.9417 -0.1910 -0.9596
  123SOL    HW2 1269   6.759   3.114   3.031  0.6231  0.6377 -0.1971
  124SOL     OW 1270   5.246   3.426   1.476  0.4639 -0.1024 -0.1511
  124SOL    HW1 1271   5.301   3.502   1.441  2.2116 -1.2343  0.0032
  124SOL    HW2 1272   5.191   3.457   1.553  0.6350  1.1474 -0.5052
  125SOL     OW 1273   1.715   2.084   1.015 -0.1732 -0.3288 -0.1787
  125SOL    HW1 1274   1.615   2.084   1.028 -0.3427  0.4177 -1.3687
  125SOL    HW2 1275   1.747   1.990   1.009 -0.5370 -0.6529  1.9350
  126SOL     OW 1276   3.484   4.288   6.764  0.0023  0.5085 -0.2431
  126SOL    HW1 1277   3.454   4.288   6.859  2.1520 -1.6197  0.5371
  126SOL    HW2 1278   3.421   4.232   6.709  0.0848 -0.2700  0.4430
  127SOL     OW 1279   0.172   6.142   5.768  0.6176 -0.5395  0.1013
  127SOL    HW1 1280   0.172   6.118   5.670 -0.2876 -0.3046  0.0356
  127SOL    HW2 1281   0.155   6.060   5.822  0.1760 -0.5180  0.0045
  128SOL     OW 1282   4.970   2.008   0.584 -0.0303  0.0689 -0.2910
  128SOL    HW1 1283   4.971   2.009   0.684  2.1882 -0.2674 -0.2491
  128SOL    HW2 1284   4.979   2.101   0.550 -0.7448  0.1802 -0.1803
  129SOL     OW 1285   2.126   5.598   6.087 -0.0902 -0.6337  0.3108
  129SOL    HW1 1286   2.201   5.536   6.065 -0.1571 -0.3419 -0.8172
  129SOL    HW2 1287   2.046   5.574   6.031 -0.2753  0.1518  0.2292
  130SOL     OW 1288   3.254   1.321   5.492 -0.5658  0.3518 -1.0340
  130SOL    HW1 1289   3.337   1.375   5.506  0.5510 -1.6886  0.7504
  130SOL    HW2 1290   3.279   1.225   5.481 -2.7076 -0.3197 -0.4043
  131SOL     OW 1291   0.100   0.468   2.726 -0.0390  0.1555  0.0629
  131SOL    HW1 1292   0.048   0.519   2.658 -2.8009 -0.0821  1.8505
  131SOL    HW2 1293   0.109   0.373   2.697 -0.8585  0.1417 -0.1672
  132SOL     OW 1294   0.947   0.386   0.889  0.0906 -0.2981 -0.2964
  132SOL    HW1 1295   1.036   0.341   0.879  0.0027 -1.0690  1.8547
  132SOL    HW2 1296   0.946   0.440   0.973 -1.1990  0.4145 -0.7394
  133SOL     OW 1297   1.593   5.112   3.851  0.3457  0.0997 -0.4636
  133SOL    HW1 1298   1.677   5.163   3.870  0.3798 -0.3097  0.5209
  133SOL    HW2 1299   1.519   5.149   3.907  0.1768 -0.4069 -0.3525
  134SOL     OW 1300   1.759   1.652   3.987 -0.2173  0.2774  0.5232
  134SOL    HW1 1301   1.787   1.701   4.070  0.0855  0.0421  0.5634
  134SOL    HW2 1302   1.836   1.644   3.925 -0.0978 -0.6344  0.7611
  135SOL     OW 1303   4.865   0.556   5.409  0.2457 -0.4140 -0.2843
  135SOL    HW1 1304   4.945   0.535   5.464  0.3469  2.0095  0.6285
  135SOL    HW2 1305   4.894   0.580   5.316  0.5646  0.0638 -0.0671
  136SOL     OW 1306   3.913   4.876   6.652  0.1967  0.5902 -0.1222
  136SOL    HW1 1307   3.916   4.828   6.739  0.2958 -1.1767 -1.0624
  136SOL    HW2 1308   3.940   4.972   6.666 -0.6410  0.5772  1.8948
  137SOL     OW 1309   3.928   0.911   5.563  0.0277  0.2519  0.1688
  137SOL    HW1 1310   3.947   0.902   5.465  0.7239 -1.8208  0.4454
  137SOL    HW2 1311   3.903   1.006   5.583 -2.6436  0.2752 -2.4398
  138SOL     OW 1312   5.887   4.537   4.797  0.0714 -0.6613  0.8278
  138SOL    HW1 1313   5.874   4.478   4.876  2.0533 -0.2444  1.5102
  138SOL    HW2 1314   5.842   4.625   4.813 -0.5824 -1.0163  0.9528
  139SOL     OW 1315   4.022   5.143   4.199  0.8002  0.2104 -0.0655
  139SOL    HW1 1316   4.056   5.085   4.124  1.4576  1.9817 -1.2227
  139SOL    HW2 1317   4.032   5.095   4.286  3.6288 -0.5094 -0.6764
  140SOL     OW 1318   3.309   5.125   5.093  0.3949  0.0520  0.0420
  140SOL    HW1 1319   3.305   5.225   5.093  1.6241  0.1217  0.9418
  140SOL    HW2 1320   3.229   5.089   5.141  1.6719  0.7569  2.8738
  141SOL     OW 1321   2.274   2.878   2.636 -0.9779  0.5180 -0.0466
  141SOL    HW1 1322   2.356   2.839   2.677  0.0205  1.1535 -1.3714
  141SOL    HW2 1323   2.225   2.932   2.704 -0.2722  0.1889  0.7370
  142SOL     OW 1324   2.615   6.143   6.689  0.1997 -0.2351 -0.0170
  142SOL    HW1 1325   2.643   6.239   6.682 -0.0374 -0.2139 -0.7279
  142SOL    HW2 1326   2.693   6.088   6.719 -0.0344  0.3688  1.8421
  143SOL     OW 1327   5.106   3.289   3.199 -0.0053 -0.4026 -0.4619
  143SOL    HW1 1328   5.131   3.193   3.191  0.1762 -0.3158 -0.9786
  143SOL    HW2 1329   5.035   3.310   3.132 -0.5691 -0.3493  0.1464
  144SOL     OW 1330   1.954   1.075   0.422 -0.2364 -0.4879 -0.1818
  144SOL    HW1 1331   1.929   1.044   0.513  1.7448 -0.1126  0.5364
  144SOL    HW2 1332   1.987   1.169   0.426  0.1201 -0.5493 -1.2388
  145SOL     OW 1333   6.324   4.707   1.261 -0.4246  0.0461  0.3504
  145SOL    HW1 1334   6.254   4.761   1.214 -2.1423 -1.6054  0.9121
  145SOL    HW2 1335   6.381   4.769   1.316 -0.4747  1.5924 -1.2256
  146SOL     OW 1336   0.509   0.091   6.484 -0.4138  0.4897 -0.0765
  146SOL    HW1 1337   0.510   0.181   6.526  1.0035  0.3506  0.2121
  146SOL    HW2 1338   0.464   0.026   6.546 -0.5317  0.7784  0.1440
  147SOL     OW 1339   5.115   3.553   1.698 -0.1250  0.0552  0.2210
  147SOL    HW1 1340   5.119   3.649   1.670  0.2882 -0.6775 -2.5516
  147SOL    HW2 1341   5.109   3.548   1.798 -0.2459  2.9331  0.4611
  148SOL     OW 1342   6.862   6.521   3.490  0.3383  0.1290  0.0219
  148SOL    HW1 1343   6.946   6.485   3.448  0.8512  1.5189 -0.2202
  148SOL    HW2 1344   6.818   6.584   3.426 -1.1785 -0.9625 -0.0413
  149SOL     OW 1345   3.277   0.461   0.108 -0.1147  0.1190  0.2464
  149SOL    HW1 1346   3.213   0.435   0.180  0.3350 -0.4444  0.4517
  149SOL    HW2 1347   3.291   0.560   0.109  1.6923 -0.0967  2.4908
  150SOL     OW 1348   5.400   6.753   0.075  0.0735 -0.1172 -0.1208
  150SOL    HW1 1349   5.391   6.709  -0.014 -0.8799 -0.0815 -0.0466
  150SOL    HW2 1350   5.310   6.777   0.111  0.4797  0.4404  0.5731
  151SOL     OW 1351   4.209   6.627   0.428 -0.5404 -0.1606  0.3248
  151SOL    HW1 1352   4.279   6.617   0.357  1.2965  0.9152  1.8719
  151SOL    HW2 1353   4.123   6.657   0.386  0.3105 -0.1208 -1.4863
  152SOL     OW 1354   3.460   6.637   5.008 -0.0035  0.1112 -0.4411
  152SOL    HW1 1355   3.445   6.720   4.953  1.4127  0.6645 -0.0244
  152SOL    HW2 1356   3.371   6.599   5.035 -0.6774  1.4239 -0.7231
  153SOL     OW 1357   2.700   0.726   2.106  0.4460 -0.8230 -0.0868
  153SOL    HW1 1358   2.705   0.826   2.096 -1.1868 -0.4963  1.6355
  153SOL    HW2 1359   2.754   0.683   2.034 -0.2913  1.2674 -2.0587
  154SOL     OW 1360   6.608   0.779   1.760  0.0764 -0.3901 -0.0806
  154SOL    HW1 1361   6.537   0.786   1.690  0.8730 -0.2907 -0.8885
  154SOL    HW2 1362   6.587   0.842   1.835 -1.0625 -0.8831  0.0389
  155SOL     OW 1363   1.089   2.406   4.577  0.0585 -0.3502 -0.0063
  155SOL    HW1 1364   0.998   2.429   4.544  0.9051  1.2692 -1.3854
  155SOL    HW2 1365   1.109   2.459   4.660 -1.1771 -2.6614  1.8779
  156SOL     OW 1366   6.400   3.046   5.953 -0.5588 -0.1619  0.1047
  156SOL    HW1 1367   6.411   3.145   5.955  1.0404 -0.3249  0.3936
  156SOL    HW2 1368   6.321   3.023   5.896 -1.1490  1.2771  0.2863
  157SOL     OW 1369   6.950   0.318   3.204 -0.5281 -0.1223 -0.6027
  157SOL    HW1 1370   6.974   0.281   3.115  1.6706  3.3492 -1.6782
  157SOL    HW2 1371   7.027   0.306   3.267 -0.2660  1.3078 -0.6056
  158SOL     OW 1372   2.015   1.425   4.052  0.8244 -0.2362  0.4020
  158SOL    HW1 1373   2.083   1.496   4.067  0.1213  0.6094 -0.2814
  158SOL    HW2 1374   1.997   1.415   3.954 -2.3297  1.8938  0.5931
  159SOL     OW 1375   4.304   3.663   1.601  0.3373 -0.0256 -0.2279
  159SOL    HW1 1376   4.297   3.756   1.635  0.3405 -0.7957  2.0817
  159SOL    HW2 1377   4.335   3.603   1.675 -0.7619 -2.0521 -1.3292
  160SOL     OW 1378   5.794   4.978   4.878  0.3936 -0.4138 -0.4397
  160SOL    HW1 1379   5.769   4.932   4.963  0.8983  0.8781  0.4253
  160SOL    HW2 1380   5.876   4.935   4.839  0.5756 -0.5548  0.1010
  161SOL     OW 1381   1.756   4.857   6.435  0.3985 -0.1925 -0.2495
  161SOL    HW1 1382   1.685   4.869   6.504 -1.2862 -0.2661 -1.8659
  161SOL    HW2 1383   1.764   4.760   6.412 -2.6664  0.0747 -3.5113
  162SOL     OW 1384   5.014   4.304   3.458 -0.8785  0.0756  0.0858
  162SOL    HW1 1385   5.075   4.255   3.520 -0.5738 -0.7274 -0.8195
  162SOL    HW2 1386   4.919   4.289   3.485 -0.7428 -0.1094  0.4585
  163SOL     OW 1387   6.179   5.923   2.121 -0.3480  0.8865  0.0899
  163SOL    HW1 1388   6.255   5.908   2.184  0.9130  1.4420 -1.2494
  163SOL    HW2 1389   6.211   5.972   2.040 -1.5337 -1.3133 -1.8189
  164SOL     OW 1390   6.015   0.143   1.008 -0.1395 -0.5555 -0.4155
  164SOL    HW1 1391   6.107   0.178   1.025  0.1108 -1.6541  0.5624
  164SOL    HW2 1392   5.949   0.217   1.019  0.5129 -0.0324  0.0887
  165SOL     OW 1393   6.669   3.682   6.411  0.7014  0.6521 -0.2971
  165SOL    HW1 1394   6.657   3.682   6.510  1.7390 -1.2134 -0.1404
  165SOL    HW2 1395   6.622   3.603   6.371  1.4925  0.5858 -1.1280
  166SOL     OW 1396   2.436   1.141   0.159 -0.3356 -0.3672 -0.0033
  166SOL    HW1 1397   2.502   1.079   0.201 -0.4749  0.7721  2.0190
  166SOL    HW2 1398   2.445   1.137   0.060  1.9150 -1.1328  0.1819
  167SOL     OW 1399   6.917   1.830   1.990 -0.2921 -0.4522  0.1516
  167SOL    HW1 1400   6.872   1.843   2.078 -0.2460 -1.0466  0.2706
  167SOL    HW2 1401   7.016   1.824   2.004 -0.0721  1.7093 -0.2029
  168SOL     OW 1402   1.761   4.605   0.435  0.6381 -0.4192 -0.0186
  168SOL    HW1 1403   1.829   4.677   0.421  0.8973 -0.3816  1.3136
  168SOL    HW2 1404   1.782   4.528   0.375  0.4694  0.5146 -1.3146
  169SOL     OW 1405   0.917   0.871   3.185  0.6483 -0.2195 -0.3570
  169SOL    HW1 1406   0.844   0.920   3.137  0.9367  0.8452  0.2609
  169SOL    HW2 1407   0.915   0.774   3.158 -2.4726 -0.7586  1.3299
  170SOL     OW 1408   6.622   2.692   3.669  0.0093  0.1313 -0.0232
  170SOL    HW1 1409   6.547   2.718   3.731  0.9298  1.3388  0.6411
  170SOL    HW2 1410   6.592   2.619   3.609 -1.0315 -0.8855  1.6507
  171SOL     OW 1411   3.151   4.725   0.931  0.3657  0.9583 -0.0167
  171SOL    HW1 1412   3.228   4.668   0.958  1.5546  1.0913 -2.8163
  171SOL    HW2 1413   3.072   4.666   0.910  1.0440  0.4441 -1.2003
  172SOL     OW 1414   0.169   1.785   2.023  0.0188 -0.0696  0.2571
  172SOL    HW1 1415   0.225   1.724   1.966 -0.2388 -1.3346  1.3110
  172SOL    HW2 1416   0.221   1.867   2.044  0.6082 -0.1817 -0.6933
  173SOL     OW 1417   0.681   6.699   5.629  0.4825  0.0663 -0.3444
  173SOL    HW1 1418   0.692   6.647   5.714  0.8280 -0.2624 -0.5904
  173SOL    HW2 1419   0.711   6.794   5.644 -1.3916  0.5763  0.4855
  174SOL     OW 1420   0.912   6.829   2.477 -0.1291  0.4155  0.1613
  174SOL    HW1 1421   0.823   6.843   2.520 -0.5499 -0.4181 -0.4042
  174SOL    HW2 1422   0.954   6.747   2.514 -0.4705 -0.2778 -0.9297
  175SOL     OW 1423   0.952   4.316   3.481 -0.2658 -0.2015  0.1973
  175SOL    HW1 1424   1.010   4.343   3.404 -3.0705 -0.1720 -2.0919
  175SOL    HW2 1425   0.976   4.222   3.509  1.7370  0.2956  0.3344
  176SOL     OW 1426   2.509   0.959   6.395  0.6256  0.2698 -0.1356
  176SOL    HW1 1427   2.486   0.934   6.301 -1.1527  0.1984  0.2775
  176SOL    HW2 1428   2.427   0.993   6.441  1.7903  1.7136  0.9575
  177SOL     OW 1429   5.944   1.370   2.219 -0.5518 -0.4606  0.0625
  177SOL    HW1 1430   5.961   1.332   2.128  1.0774 -1.6712  0.8087
  177SOL    HW2 1431   5.987   1.311   2.287  1.5680  2.3484  1.3731
  178SOL     OW 1432   6.420   4.863   0.282  0.5188 -0.2911  0.0285
  178SOL    HW1 1433   6.465   4.927   0.345 -0.0550  1.2135 -1.0085
  178SOL    HW2 1434   6.338   4.906   0.245 -0.6114 -2.1698  0.2575
  179SOL     OW 1435   4.762   5.677   6.682 -0.1898  0.5262 -0.1332
  179SOL    HW1 1436   4.745   5.727   6.597 -0.9933  0.6208  0.0765
  179SOL    HW2 1437   4.705   5.595   6.685  0.5927 -0.0268 -0.1439
  180SOL     OW 1438   0.479   1.848   0.407  0.0704  0.4067 -0.4373
  180SOL    HW1 1439   0.456   1.851   0.310  0.1786 -2.7403 -0.6707
  180SOL    HW2 1440   0.399   1.817   0.459  0.9761 -1.4652 -0.0608
  181SOL     OW 1441   3.201   3.959   3.511  0.2822 -0.1270 -0.3063
  181SOL    HW1 1442   3.188   4.006   3.599  1.5552  0.0367 -0.1825
  181SOL    HW2 1443   3.272   4.006   3.459 -0.2473 -0.4158 -1.2939
  182SOL     OW 1444   5.448   1.716   4.970  0.1739  0.0489 -0.3309
  182SOL    HW1 1445   5.482   1.633   4.926 -1.1612  0.1244 -1.5327
  182SOL    HW2 1446   5.387   1.691   5.045 -1.2274 -0.0781 -1.4867
  183SOL     OW 1447   0.660   0.864   3.054  0.1924 -0.1134  0.0192
  183SOL    HW1 1448   0.660   0.924   3.134  0.7184 -1.5166  1.0914
  183SOL    HW2 1449   0.616   0.778   3.076 -0.1986 -0.2991 -1.3953
  184SOL     OW 1450   6.070   4.613   1.783  0.2059 -0.1868 -0.2242
  184SOL    HW1 1451   6.104   4.541   1.721  0.1863  1.0140 -1.6880
  184SOL    HW2 1452   6.127   4.616   1.865  0.5573 -1.4798 -0.3964
  185SOL     OW 1453   2.870   3.246   5.165  0.1637  0.2623  0.8542
  185SOL    HW1 1454   2.952   3.217   5.214  0.3648  1.0356  0.9882
  185SOL    HW2 1455   2.891   3.326   5.109 -0.6033  0.7423  1.2324
  186SOL     OW 1456   6.253   0.820   5.952 -0.8079  0.2389  0.0282
  186SOL    HW1 1457   6.293   0.732   5.978 -1.4754  0.0200  0.3635
  186SOL    HW2 1458   6.275   0.840   5.857 -1.3431 -0.7054 -0.3104
  187SOL     OW 1459   1.052   0.388   3.493 -0.4905  0.5391  0.5127
  187SOL    HW1 1460   1.038   0.487   3.502 -0.2461  0.5584  0.6880
  187SOL    HW2 1461   1.133   0.361   3.544  0.5388  0.5337 -1.0735
  188SOL     OW 1462   5.534   1.159   6.493 -0.4357  0.5508  0.1540
  188SOL    HW1 1463   5.515   1.133   6.398  0.3037  1.4609 -0.2479
  188SOL    HW2 1464   5.632   1.166   6.507 -0.5780  1.6817  0.6500
  189SOL     OW 1465   2.232   5.013   4.788  0.6520 -0.3686 -0.4262
  189SOL    HW1 1466   2.259   5.109   4.797 -1.8554  0.5834 -1.9130
  189SOL    HW2 1467   2.277   4.973   4.708 -2.3108  1.3071 -3.1140
  190SOL     OW 1468   3.683   2.646   0.147  0.3072  0.3243 -0.0936
  190SOL    HW1 1469   3.644   2.589   0.075  3.1231  0.0098 -1.4944
  190SOL    HW2 1470   3.667   2.743   0.127 -0.1770  0.1945 -0.3431
  191SOL     OW 1471   5.694   4.998   6.616  0.0046  0.0308  0.0888
  191SOL    HW1 1472   5.635   5.027   6.691 -0.3247 -0.4525  0.0193
  191SOL    HW2 1473   5.648   4.927   6.562  1.0335 -1.0826  0.6187
  192SOL     OW 1474   5.410   1.777   6.546  0.8689 -0.2077  0.0176
  192SOL    HW1 1475   5.396   1.684   6.513  0.4416  0.4523 -1.8371
  192SOL    HW2 1476   5.337   1.802   6.610 -1.4354  0.1158 -2.5235
  193SOL     OW 1477   0.367   5.931   6.656 -0.6932  0.5060  0.3105
  193SOL    HW1 1478   0.332   6.021   6.629 -1.7393 -0.1022 -0.4258
  193SOL    HW2 1479   0.308   5.892   6.726 -1.8334 -0.7296 -1.2705
  194SOL     OW 1480   4.074   6.323   4.519 -0.4514  0.6541  0.3766
  194SOL    HW1 1481   4.119   6.308   4.607 -0.1205 -0.8044 -0.0256
  194SOL    HW2 1482   4.083   6.420   4.494 -0.7737  1.1524  2.0467
  195SOL     OW 1483   0.048   6.230   3.444 -0.0857 -0.6446  0.1422
  195SOL    HW1 1484   0.052   6.168   3.522 -0.5730 -1.1761 -0.2430
  195SOL    HW2 1485  -0.026   6.202   3.383  0.1470 -0.1074 -0.4007
  196SOL     OW 1486   2.879   1.835   0.863 -0.0472  0.7711 -0.1591
  196SOL    HW1 1487   2.814   1.759   0.853  0.0461  0.7077 -0.2815
  196SOL    HW2 1488   2.965   1.801   0.901  0.1288  0.7481 -0.5746
  197SOL     OW 1489   3.495   0.156   1.013  0.2437  0.2124 -0.0868
  197SOL    HW1 1490   3.560   0.094   0.968 -0.1519 -1.1531  1.1355
  197SOL    HW2 1491   3.501   0.246   0.971  0.9396 -0.5991 -1.8541
  198SOL     OW 1492   3.559   3.166   0.033  0.0334 -0.3899 -0.2985
  198SOL    HW1 1493   3.624   3.237   0.005 -0.8423  0.1198 -1.0719
  198SOL    HW2 1494   3.546   3.170   0.132 -0.7487  1.1855 -0.4404
  199SOL     OW 1495   3.155   1.398   3.769 -0.6011 -0.2656 -0.7110
  199SOL    HW1 1496   3.171   1.324   3.704 -1.5227 -0.9633 -0.1736
  199SOL    HW2 1497   3.204   1.378   3.854 -1.7460 -0.8790 -0.1537
  200SOL     OW 1498   5.576   1.385   6.652 -0.9849 -0.1587 -0.7484
  200SOL    HW1 1499   5.501   1.381   6.717 -0.1063 -0.2560  0.2793
  200SOL    HW2 1500   5.597   1.293   6.619 -0.2505 -0.3558  0.2278
  201SOL     OW 1501   0.545   1.293   0.089 -0.4164 -0.1943  0.4593
  201SOL    HW1 1502   0.641   1.287   0.060 -0.4433 -0.5979  0.4384
  201SOL    HW2 1503   0.510   1.201   0.106 -0.9656 -0.0845 -0.0671
  202SOL     OW 1504   6.338   4.796   6.055  0.8928  0.3032 -0.3559
  202SOL    HW1 1505   6.260   4.734   6.040  1.2205 -1.0704  2.8913
  202SOL    HW2 1506   6.410   4.749   6.105  2.1138  2.7181  0.3328
  203SOL     OW 1507   6.232   4.374   6.802  0.4225 -0.1192  0.3837
  203SOL    HW1 1508   6.244   4.358   6.900  0.2470 -1.2050  0.2389
  203SOL    HW2 1509   6.242   4.472   6.783  0.0757  0.1567  1.5362
  204SOL     OW 1510   4.380   6.955   3.460  0.3118 -0.1916  0.1104
  204SOL    HW1 1511   4.314   6.883   3.481  0.2744  0.6673  3.6891
  204SOL    HW2 1512   4.472   6.923   3.481  0.8415 -0.5017 -2.3561
  205SOL     OW 1513   2.975   4.605   1.460  0.0168  0.0701  0.4267
  205SOL    HW1 1514   2.999   4.530   1.521 -1.2914 -0.6174  0.1266
  205SOL    HW2 1515   2.986   4.576   1.365 -2.1079 -0.3623  0.2659
  206SOL     OW 1516   2.754   4.756   1.487 -0.4788 -0.1148 -0.3965
  206SOL    HW1 1517   2.814   4.681   1.459 -1.9738 -0.8279 -1.8393
  206SOL    HW2 1518   2.785   4.792   1.575  1.7310 -0.7793 -0.8395
  207SOL     OW 1519   0.031   1.375   1.134  0.5100  0.3456  0.5083
  207SOL    HW1 1520   0.018   1.460   1.184 -0.4322  1.2575 -1.2165
  207SOL    HW2 1521   0.106   1.386   1.068  0.1241 -0.0185 -0.0025
  208SOL     OW 1522   1.438   2.640   4.622  0.5916  0.9507  0.1580
  208SOL    HW1 1523   1.518   2.681   4.579  0.1973  0.4161 -1.1363
  208SOL    HW2 1524   1.386   2.589   4.554  0.2160 -0.3774  1.3883
  209SOL     OW 1525   5.488   4.236   1.038  0.5631 -0.0909 -0.1521
  209SOL    HW1 1526   5.512   4.159   0.980 -0.4317 -0.8969  0.4613
  209SOL    HW2 1527   5.432   4.203   1.115  0.3831  1.1961  0.2878
  210SOL     OW 1528   4.221   3.850   1.005 -0.5501  0.4001 -0.1821
  210SOL    HW1 1529   4.192   3.772   0.949 -0.8700 -0.7306  1.4808
  210SOL    HW2 1530   4.256   3.922   0.946  1.2768 -1.6250 -1.7236
  211SOL     OW 1531   2.814   1.963   1.593  0.1523  0.1961 -0.2786
  211SOL    HW1 1532   2.729   1.940   1.641  0.2328 -0.7966 -0.5717
  211SOL    HW2 1533   2.872   2.019   1.652  0.0297 -0.5624  0.5879
  212SOL     OW 1534   1.251   4.231   0.446  0.6868  0.4095  0.1894
  212SOL    HW1 1535   1.302   4.218   0.361  3.3553 -0.9275  1.8651
  212SOL    HW2 1536   1.222   4.142   0.482 -1.9242  1.0519 -0.0719
  213SOL     OW 1537   0.559   6.288   1.796 -0.1051 -0.4133 -0.1042
  213SOL    HW1 1538   0.544   6.318   1.890  0.4897 -0.8317  0.1294
  213SOL    HW2 1539   0.541   6.363   1.733 -0.8211 -0.2182  0.3172
  214SOL     OW 1540   5.300   5.744   4.111 -0.6517  0.5467 -0.7539
  214SOL    HW1 1541   5.253   5.826   4.145 -0.0962  0.8501 -0.6983
  214SOL    HW2 1542   5.386   5.733   4.161 -1.5764 -1.1224  0.5479
  215SOL     OW 1543   3.174   5.356   2.283 -0.2303  0.5248  0.0660
  215SOL    HW1 1544   3.273   5.354   2.298 -0.1786  2.6620  0.3018
  215SOL    HW2 1545   3.137   5.263   2.290  1.3577 -0.0116  2.7058
  216SOL     OW 1546   1.856   5.964   1.820  0.6159 -0.1037 -0.1566
  216SOL    HW1 1547   1.788   5.891   1.818  1.5061 -0.9389 -0.9743
  216SOL    HW2 1548   1.811   6.052   1.804 -0.3952 -0.5161  0.3333
  217SOL     OW 1549   1.029   5.726   3.963  0.1536 -0.2313 -0.3355
  217SOL    HW1 1550   1.065   5.740   3.870 -1.7498 -2.5730 -1.5088
  217SOL    HW2 1551   0.929   5.722   3.960 -0.0236  0.6978  2.0339
  218SOL     OW 1552   6.179   4.693   0.375  0.0568  0.3180  0.2014
  218SOL    HW1 1553   6.257   4.755   0.366 -0.1472  0.3899 -1.3533
  218SOL    HW2 1554   6.117   4.727   0.446  0.4443  1.3553  0.0596
  219SOL     OW 1555   4.913   2.014   3.140  0.1958 -0.2802 -0.3373
  219SOL    HW1 1556   4.865   2.096   3.109 -1.0252 -0.9626 -0.3591
  219SOL    HW2 1557   4.952   1.966   3.061 -0.6137 -0.6214 -0.5480
  220SOL     OW 1558   2.402   0.264   1.929 -0.0675  0.0641 -0.0777
  220SOL    HW1 1559   2.463   0.335   1.896  0.3095  0.1192  0.7345
  220SOL    HW2 1560   2.395   0.268   2.028 -0.0756 -0.9936 -0.0167
  221SOL     OW 1561   6.523   4.401   3.184 -0.0274  0.3725  0.3345
  221SOL    HW1 1562   6.562   4.376   3.095 -0.8542 -0.6028  0.2239
  221SOL    HW2 1563   6.500   4.498   3.184  1.0936  0.6465 -0.0843
  222SOL     OW 1564   6.518   3.944   5.175  1.1920 -0.3285 -0.1055
  222SOL    HW1 1565   6.526   4.006   5.253  0.2227 -2.3332  1.6878
  222SOL    HW2 1566   6.608   3.907   5.153  1.0778 -2.5274  2.5608
  223SOL     OW 1567   0.095   0.414   0.436  0.5254 -0.4576  0.1466
  223SOL    HW1 1568   0.113   0.507   0.467  0.1281  0.0099 -0.9942
  223SOL    HW2 1569   0.174   0.380   0.385 -0.0629 -0.0123 -1.1042
  224SOL     OW 1570   4.091   2.127   4.485  0.1653  0.4694  0.1144
  224SOL    HW1 1571   4.140   2.198   4.436  0.6955 -0.1053 -0.2036
  224SOL    HW2 1572   4.126   2.120   4.579  0.6718  0.0843 -0.1007
  225SOL     OW 1573   3.903   6.125   0.304  0.2730  0.1900 -0.5093
  225SOL    HW1 1574   3.933   6.179   0.383 -0.8787  1.1611 -0.7078
  225SOL    HW2 1575   3.814   6.159   0.273  0.9255  0.1530 -2.5429
  226SOL     OW 1576   0.863   2.405   3.262  0.7127 -0.3239 -0.1088
  226SOL    HW1 1577   0.836   2.434   3.354  0.4730  0.3647 -0.3855
  226SOL    HW2 1578   0.959   2.428   3.247  0.3329  1.0616 -0.5887
  227SOL     OW 1579   2.187   1.366   2.323 -0.3432 -0.7528  0.2083
  227SOL    HW1 1580   2.218   1.461   2.318  0.3090 -0.9921 -0.5120
  227SOL    HW2 1581   2.262   1.305   2.297 -1.3340 -1.3626 -1.4534
  228SOL     OW 1582   0.783   6.118   1.846  0.4964  0.0997  0.0096
  228SOL    HW1 1583   0.722   6.189   1.810  0.0727 -0.4729 -0.4061
  228SOL    HW2 1584   0.745   6.081   1.931  0.1143 -0.4708 -0.4119
  229SOL     OW 1585   2.386   1.299   6.248 -0.1537 -0.0981  0.2499
  229SOL    HW1 1586   2.309   1.328   6.192  0.8741 -0.0406 -1.2044
  229SOL    HW2 1587   2.358   1.224   6.308 -0.8228 -1.6164 -1.8573
  230SOL     OW 1588   5.890   5.279   6.943 -0.0104 -1.0636 -0.4668
  230SOL    HW1 1589   5.934   5.195   6.912  1.8434 -0.2933 -0.0167
  230SOL    HW2 1590   5.911   5.353   6.880 -1.0227 -0.7483 -0.4554
  231SOL     OW 1591   5.272   1.985   1.578 -0.1005  0.5888  0.0324
  231SOL    HW1 1592   5.234   1.903   1.622 -1.0910  1.2091  0.3619
  231SOL    HW2 1593   5.239   2.067   1.626 -1.8804  1.3547 -2.2766
  232SOL     OW 1594   0.756   4.540   4.885 -0.4057 -0.2360  0.7079
  232SOL    HW1 1595   0.761   4.456   4.939 -2.7448  0.1027  1.6089
  232SOL    HW2 1596   0.662   4.553   4.854  0.2710  1.1916 -0.8778
  233SOL     OW 1597   2.739   2.326   3.422  0.0065 -0.1784  0.1643
  233SOL    HW1 1598   2.763   2.281   3.508  2.3755  3.9956  1.9726
  233SOL    HW2 1599   2.681   2.405   3.440  0.6753  0.8965 -2.0315
  234SOL     OW 1600   3.144   6.701   6.834  0.4520  0.0833  0.1158
  234SOL    HW1 1601   3.179   6.665   6.920  0.4306  0.2639  0.2006
  234SOL    HW2 1602   3.202   6.670   6.759  0.2981 -0.3186  0.1623
  235SOL     OW 1603   5.486   1.543   3.649 -0.0704 -0.0089  0.1028
  235SOL    HW1 1604   5.460   1.639   3.638 -0.9908 -0.4063 -1.7114
  235SOL    HW2 1605   5.407   1.490   3.679 -0.1715 -0.4977 -0.9525
  236SOL     OW 1606   2.878   3.483   4.714  0.1165  0.1142  0.0277
  236SOL    HW1 1607   2.780   3.499   4.725 -0.3979 -1.1974 -2.0864
  236SOL    HW2 1608   2.901   3.479   4.617  2.2989  0.4476  0.4756
  237SOL     OW 1609   5.290   4.554   3.544 -0.0740 -0.2827  0.1188
  237SOL    HW1 1610   5.258   4.618   3.474  0.4728 -1.4501 -1.2511
  237SOL    HW2 1611   5.383   4.523   3.521  0.1843 -0.5703  1.4634
  238SOL     OW 1612   6.379   2.367   6.897  0.6421 -0.0335 -0.3778
  238SOL    HW1 1613   6.396   2.296   6.965 -0.0322 -0.1134 -0.2892
  238SOL    HW2 1614   6.299   2.343   6.842  0.0270  0.9482  0.0519
  239SOL     OW 1615   1.543   4.169   1.316 -1.0045 -0.2718  0.1045
  239SOL    HW1 1616   1.484   4.137   1.242 -2.0993 -0.2968  0.9603
  239SOL    HW2 1617   1.495   4.160   1.403  0.1723 -0.0259  0.8014
  240SOL     OW 1618   5.444   3.936   3.325 -0.1374 -0.1493 -0.0087
  240SOL    HW1 1619   5.473   3.841   3.334  1.1940 -0.1627 -3.1973
  240SOL    HW2 1620   5.355   3.940   3.279 -0.0382  0.1374 -0.1795
  241SOL     OW 1621   3.369   2.095   4.546  0.2876 -0.0709  0.3962
  241SOL    HW1 1622   3.373   2.119   4.643  0.8002 -1.2027  0.6707
  241SOL    HW2 1623   3.440   2.027   4.526 -1.1320 -1.3916 -0.3220
  242SOL     OW 1624   3.403   2.653   1.756 -0.8264 -0.0019  0.4157
  242SOL    HW1 1625   3.404   2.730   1.692  0.5447  0.9232  1.4939
  242SOL    HW2 1626   3.343   2.674   1.833 -2.1832 -0.9624 -0.3295
  243SOL     OW 1627   4.682   3.420   1.148  0.0965  1.0410  0.7709
  243SOL    HW1 1628   4.596   3.369   1.158  0.4540 -0.1219 -1.4364
  243SOL    HW2 1629   4.743   3.396   1.223 -0.8489  0.4722  1.3782
  244SOL     OW 1630   4.995   3.394   4.697 -0.4865  0.2296 -0.4669
  244SOL    HW1 1631   5.029   3.312   4.743 -0.3684  0.2377 -0.5382
  244SOL    HW2 1632   4.984   3.467   4.764  0.6243  0.5381 -0.5995
  245SOL     OW 1633   2.270   6.758   3.257 -0.1505  0.4370 -0.0013
  245SOL    HW1 1634   2.242   6.815   3.179 -1.7201 -0.6574 -0.2905
  245SOL    HW2 1635   2.193   6.751   3.321  0.2388 -0.8191  0.3422
  246SOL     OW 1636   1.192   1.535   2.591  0.1813 -0.0290  0.2427
  246SOL    HW1 1637   1.226   1.458   2.537  2.4415  1.0388  0.0458
  246SOL    HW2 1638   1.211   1.621   2.543  0.1398  0.8037  1.6633
  247SOL     OW 1639   2.748   1.082   2.920  0.5011  0.6463  0.1008
  247SOL    HW1 1640   2.753   1.181   2.909  2.3639  0.7619  1.5416
  247SOL    HW2 1641   2.675   1.059   2.985 -1.5311  0.8383 -1.9792
  248SOL     OW 1642   5.808   2.455   1.712  0.2041 -0.0079  0.4484
  248SOL    HW1 1643   5.897   2.499   1.724  0.4642  0.2682 -1.9863
  248SOL    HW2 1644   5.739   2.525   1.697  0.0495 -0.2992 -0.2279
  249SOL     OW 1645   4.590   0.306   5.142  0.0442 -0.8549  0.0842
  249SOL    HW1 1646   4.678   0.286   5.186 -0.0600 -0.7651  0.3343
  249SOL    HW2 1647   4.587   0.262   5.053  0.5568 -0.4176 -0.1528
  250SOL     OW 1648   3.130   1.594   0.579 -0.4370  0.6303  0.2169
  250SOL    HW1 1649   3.199   1.588   0.507  1.0826  0.0530  1.6343
  250SOL    HW2 1650   3.057   1.656   0.550  0.0128  0.2754 -1.8541
  251SOL     OW 1651   4.162   4.826   4.963 -0.1030 -0.6940 -0.0059
  251SOL    HW1 1652   4.198   4.735   4.981  3.4019  0.4029 -0.6447
  251SOL    HW2 1653   4.237   4.893   4.964 -2.4444  2.1656  0.0469
  252SOL     OW 1654   5.346   6.310   5.761 -0.0261  0.3284 -0.1463
  252SOL    HW1 1655   5.362   6.214   5.787 -0.6506  0.3678  0.3962
  252SOL    HW2 1656   5.434   6.357   5.754  0.3136 -0.3578 -0.7366
  253SOL     OW 1657   4.866   5.407   0.089  0.3369  0.7332  0.5438
  253SOL    HW1 1658   4.866   5.489   0.031  2.5078  0.4141 -0.0083
  253SOL    HW2 1659   4.958   5.394   0.127 -0.5582 -0.1689  2.5123
  254SOL     OW 1660   6.624   2.742   5.116  0.3072  1.6542 -0.0599
  254SOL    HW1 1661   6.527   2.720   5.118  0.8258 -0.9841 -0.0034
  254SOL    HW2 1662   6.648   2.781   5.027 -0.6853  1.7266 -0.3074
  255SOL     OW 1663   6.666   3.968   5.660 -0.4171  0.7516 -0.0218
  255SOL    HW1 1664   6.585   4.000   5.710  0.5461  1.2215  1.2960
  255SOL    HW2 1665   6.740   4.035   5.670  0.7522 -0.5690  0.4427
  256SOL     OW 1666   2.910   1.907   5.190  0.4082 -0.1175 -0.2341
  256SOL    HW1 1667   2.987   1.971   5.192 -0.0465  0.4337 -0.2021
  256SOL    HW2 1668   2.925   1.840   5.117  1.2752 -0.4733  0.2536
  257SOL     OW 1669   6.354   5.290   3.112  0.4692  0.3270  0.4722
  257SOL    HW1 1670   6.317   5.198   3.118  1.5850 -0.1494  0.3687
  257SOL    HW2 1671   6.380   5.310   3.017 -0.2575  0.9616  0.3916
  258SOL     OW 1672   4.130   2.172   5.944  0.3979 -0.0795 -0.4148
  258SOL    HW1 1673   4.062   2.132   6.006  0.2652  1.1441  0.2516
  258SOL    HW2 1674   4.085   2.235   5.881  0.8838  0.6453 -0.0528
  259SOL     OW 1675   3.516   1.802   3.833 -0.1225 -0.0810 -0.0968
  259SOL    HW1 1676   3.428   1.763   3.806  1.0196 -1.2208 -2.4628
  259SOL    HW2 1677   3.501   1.877   3.897 -2.8886  0.5908 -1.4055
  260SOL     OW 1678   4.919   5.854   3.371 -0.3171 -1.0190  0.5739
  260SOL    HW1 1679   4.878   5.945   3.382 -0.0554 -0.8550  0.2024
  260SOL    HW2 1680   4.990   5.841   3.439 -0.5600 -1.0627  0.8216
  261SOL     OW 1681   4.518   3.588   0.038 -0.7194 -0.0528 -0.3348
  261SOL    HW1 1682   4.543   3.610  -0.056 -1.8078 -0.1411 -0.6605
  261SOL    HW2 1683   4.554   3.658   0.100 -0.5134  0.3350 -0.8871
  262SOL     OW 1684   1.194   4.156   5.937 -0.2728 -0.0385 -0.3845
  262SOL    HW1 1685   1.102   4.196   5.936 -0.3722 -0.2761 -1.3541
  262SOL    HW2 1686   1.247   4.193   5.861 -0.1278 -1.2122 -0.8613
  263SOL     OW 1687   2.294   1.054   3.636 -0.7643  0.3665 -0.2984
  263SOL    HW1 1688   2.199   1.029   3.618 -0.0576 -0.4876 -3.2577
  263SOL    HW2 1689   2.333   1.100   3.557  0.4983  3.5385  1.9390
  264SOL     OW 1690   6.716   1.530   1.296 -0.0063  0.0369  0.1783
  264SOL    HW1 1691   6.794   1.527   1.359  0.0602 -1.9417  0.0852
  264SOL    HW2 1692   6.738   1.587   1.217  0.4394  1.4005  1.2482
  265SOL     OW 1693   0.276   0.793   2.587  0.2539 -0.0644  0.0452
  265SOL    HW1 1694   0.200   0.737   2.556  0.0425 -0.2673  0.9050
  265SOL    HW2 1695   0.246   0.853   2.661  0.9339 -0.1986  0.4467
  266SOL     OW 1696   3.221   2.061   0.541  0.0414 -0.1474  0.3304
  266SOL    HW1 1697   3.268   2.005   0.472  1.6506  0.2708  1.0551
  266SOL    HW2 1698   3.122   2.048   0.532  0.2772 -1.1814 -1.1313
  267SOL     OW 1699   1.963   0.736   2.123 -0.9087 -0.5213 -0.7037
  267SOL    HW1 1700   1.921   0.653   2.086 -0.6487 -0.6296 -0.7569
  267SOL    HW2 1701   2.033   0.769   2.059 -1.0658 -0.2166 -0.7216
  268SOL     OW 1702   4.156   3.192   1.719 -0.2423 -0.0673 -0.5007
  268SOL    HW1 1703   4.239   3.143   1.693 -0.4221  0.2651 -1.7741
  268SOL    HW2 1704   4.078   3.156   1.668 -0.4828  1.0980 -1.0001
  269SOL     OW 1705   5.109   2.090   0.097  0.3436 -0.1161  0.6884
  269SOL    HW1 1706   5.080   2.108   0.003  0.6157 -2.0676  0.1795
  269SOL    HW2 1707   5.080   2.165   0.156 -0.0316  1.0433 -0.9039
  270SOL     OW 1708   4.948   1.425   1.833  0.0349  0.1395  0.3512
  270SOL    HW1 1709   5.034   1.452   1.877 -0.1046  2.0048 -0.4589
  270SOL    HW2 1710   4.952   1.444   1.735 -1.0279 -0.4841  0.1662
  271SOL     OW 1711   0.905   5.870   6.640  0.6462 -0.2682 -0.0489
  271SOL    HW1 1712   0.931   5.941   6.574 -1.0683  0.0009 -0.4630
  271SOL    HW2 1713   0.806   5.862   6.643  0.7733 -1.7362  0.9841
  272SOL     OW 1714   3.728   5.743   2.438  0.6609 -0.6484  0.6747
  272SOL    HW1 1715   3.793   5.778   2.370  1.2754 -0.4830  1.3294
  272SOL    HW2 1716   3.733   5.643   2.441 -0.8308 -0.8065 -0.9369
  273SOL     OW 1717   0.929   5.378   5.903  0.2534  0.3659 -0.2453
  273SOL    HW1 1718   0.900   5.291   5.942  2.0707 -0.6141 -0.9872
  273SOL    HW2 1719   0.943   5.368   5.805  2.0648  1.0425 -0.0876
  274SOL     OW 1720   3.262   1.760   3.013  0.1880  0.5022 -0.0962
  274SOL    HW1 1721   3.256   1.859   3.007 -0.4765  0.4258 -0.7761
  274SOL    HW2 1722   3.284   1.722   2.923  0.7548  0.0491  0.2218
  275SOL     OW 1723   6.031   5.890   0.269  0.4343 -0.3375 -0.3819
  275SOL    HW1 1724   6.011   5.950   0.347  0.7261 -1.4607  0.5857
  275SOL    HW2 1725   6.108   5.928   0.217  0.6031  0.1454  0.2029
  276SOL     OW 1726   5.926   0.117   6.741  0.7228  0.4986 -1.0572
  276SOL    HW1 1727   5.968   0.046   6.684 -1.1961 -1.7602  0.1799
  276SOL    HW2 1728   5.890   0.076   6.824 -2.1851  2.5685 -1.1600
  277SOL     OW 1729   1.304   5.197   1.261 -0.0584  0.4314 -0.2148
  277SOL    HW1 1730   1.338   5.289   1.240  0.4493  0.3004  0.0187
  277SOL    HW2 1731   1.379   5.131   1.252  0.7434  0.5567  3.6247
  278SOL     OW 1732   6.474   2.307   4.629  0.4005 -0.6043 -0.6811
  278SOL    HW1 1733   6.390   2.349   4.595  0.5711  0.9169  0.6471
  278SOL    HW2 1734   6.529   2.376   4.678  2.3446 -1.5917 -1.3451
  279SOL     OW 1735   4.974   0.651   5.170  0.5397 -0.1903  0.4128
  279SOL    HW1 1736   5.031   0.732   5.157 -0.5046  0.1324 -3.5634
  279SOL    HW2 1737   5.003   0.579   5.106 -0.9650 -1.5434  1.1694
  280SOL     OW 1738   1.945   4.428   2.050  0.0131 -0.5050  0.0271
  280SOL    HW1 1739   1.947   4.445   2.148 -0.5501 -0.9689  0.1220
  280SOL    HW2 1740   1.926   4.331   2.033 -0.6343 -0.2882 -0.5352
  281SOL     OW 1741   3.087   4.165   0.208  0.7998 -0.0257 -0.7831
  281SOL    HW1 1742   3.179   4.201   0.195  0.5845  0.2251 -1.7044
  281SOL    HW2 1743   3.091   4.075   0.252  1.2678  2.0489  3.9925
  282SOL     OW 1744   1.974   0.813   4.121  0.1083 -0.1298 -0.3189
  282SOL    HW1 1745   2.056   0.803   4.064  0.9943 -0.2712  0.9566
  282SOL    HW2 1746   1.948   0.910   4.123  0.4709 -0.0256 -0.4231
  283SOL     OW 1747   1.879   2.449   0.362 -0.0209 -0.3409  0.4038
  283SOL    HW1 1748   1.810   2.481   0.427  0.0281  1.3233 -0.3020
  283SOL    HW2 1749   1.914   2.527   0.311  1.2670 -1.3791 -0.3418
  284SOL     OW 1750   1.365   4.430   5.104 -0.4575 -0.6580 -0.6964
  284SOL    HW1 1751   1.325   4.496   5.041 -0.9765  2.8281  2.9401
  284SOL    HW2 1752   1.463   4.421   5.084 -0.8217 -0.6812 -2.7007
  285SOL     OW 1753   5.443   4.969   5.240 -0.3563 -0.7556  0.4286
  285SOL    HW1 1754   5.396   4.882   5.255  0.9719 -1.9429 -1.8489
  285SOL    HW2 1755   5.527   4.972   5.295 -0.7211 -0.6037  0.9903
  286SOL     OW 1756   1.572   4.024   1.985 -0.3212 -0.0777  0.2872
  286SOL    HW1 1757   1.621   3.989   1.905  2.6786  0.2495  1.8289
  286SOL    HW2 1758   1.503   4.090   1.956  0.0610 -0.6300 -2.0575
  287SOL     OW 1759   3.106   3.993   6.793 -0.5065 -0.1291 -0.5629
  287SOL    HW1 1760   3.051   4.041   6.861 -0.1698 -0.1933 -0.2437
  287SOL    HW2 1761   3.172   3.933   6.840 -0.6540 -0.5976 -0.9487
  288SOL     OW 1762   5.867   2.567   3.101 -0.1730  0.0436  0.3080
  288SOL    HW1 1763   5.900   2.478   3.134 -0.7292 -0.5561 -0.7114
  288SOL    HW2 1764   5.938   2.610   3.046 -0.4157 -0.4220 -0.3774
  289SOL     OW 1765   2.615   4.752   6.731 -0.1690 -0.2650 -0.6497
  289SOL    HW1 1766   2.566   4.748   6.644 -1.8666 -0.5171  0.2668
  289SOL    HW2 1767   2.558   4.799   6.798  1.0505 -0.2093  0.3638
  290SOL     OW 1768   1.247   0.020   4.992  0.4075 -0.1023  0.1434
  290SOL    HW1 1769   1.284   0.008   5.084 -0.0453 -1.0201  0.2091
  290SOL    HW2 1770   1.323   0.020   4.926  0.5551 -2.7369  0.1989
  291SOL     OW 1771   6.379   2.820   3.733  0.5126  0.0453  0.3569
  291SOL    HW1 1772   6.372   2.912   3.771 -0.9440  0.0891  0.0462
  291SOL    HW2 1773   6.288   2.778   3.732  0.9794 -0.9733 -0.5632
  292SOL     OW 1774   3.799   6.121   2.274  0.2575 -0.3954 -0.1172
  292SOL    HW1 1775   3.897   6.130   2.256 -0.0438 -0.4496 -2.0430
  292SOL    HW2 1776   3.751   6.106   2.188 -1.7779  2.4316  0.3805
  293SOL     OW 1777   3.257   6.143   1.943  0.2153  0.4743 -0.2237
  293SOL    HW1 1778   3.258   6.043   1.954 -1.6772  0.1967 -2.0121
  293SOL    HW2 1779   3.266   6.186   2.033 -0.9682 -1.3356  0.8326
  294SOL     OW 1780   5.265   0.991   0.818 -0.0959  0.5552 -0.3398
  294SOL    HW1 1781   5.233   1.086   0.812  0.3297  0.8210  1.0608
  294SOL    HW2 1782   5.211   0.943   0.887 -0.6950 -0.4079 -1.4534
  295SOL     OW 1783   1.367   1.515   3.695  0.0383  0.1113 -0.1275
  295SOL    HW1 1784   1.448   1.562   3.730  0.4769  0.3662 -1.4000
  295SOL    HW2 1785   1.293   1.520   3.762  0.8965  0.3705  0.8210
  296SOL     OW 1786   2.438   1.419   4.160 -0.2286  0.0574  0.4849
  296SOL    HW1 1787   2.436   1.355   4.237 -2.5496  0.6603  1.0101
  296SOL    HW2 1788   2.435   1.367   4.075  2.7763 -0.6310  0.7044
  297SOL     OW 1789   2.233   4.325   0.116  0.1851 -0.2080 -0.4121
  297SOL    HW1 1790   2.290   4.407   0.121 -0.3775  0.1212  1.2624
  297SOL    HW2 1791   2.207   4.308   0.021  0.4198  1.4700 -0.8055
  298SOL     OW 1792   6.918   5.188   0.252  0.6393 -0.6132  0.5448
  298SOL    HW1 1793   7.010   5.155   0.231  0.2116 -0.9832 -0.9048
  298SOL    HW2 1794   6.852   5.143   0.191 -0.1736  1.6002 -0.3152
  299SOL     OW 1795   4.628   4.235   3.847 -0.2470  0.1959  0.6951
  299SOL    HW1 1796   4.539   4.271   3.818  0.9472  1.7810 -1.2455
  299SOL    HW2 1797   4.669   4.298   3.913 -0.1368 -0.0240  0.8361
  300SOL     OW 1798   0.312   0.084   3.774  0.4393 -0.4708  0.3816
  300SOL    HW1 1799   0.274   0.113   3.862 -1.9375  0.0649 -0.7343
  300SOL    HW2 1800   0.256   0.010   3.736  1.4966 -0.7830 -0.6438
  301SOL     OW 1801   4.916   1.394   6.820  0.3572  0.2998 -0.0407
  301SOL    HW1 1802   4.920   1.342   6.905  3.2824 -0.7781 -0.7202
  301SOL    HW2 1803   4.840   1.361   6.763 -0.1791 -0.5565  1.1460
  302SOL     OW 1804   1.280   6.446   5.564 -0.8530 -0.5653 -0.1067
  302SOL    HW1 1805   1.182   6.438   5.578 -1.0389 -1.0423 -1.5088
  302SOL    HW2 1806   1.300   6.445   5.466  0.5499 -0.4079  0.1530
  303SOL     OW 1807   5.936   2.898   2.065 -0.2538 -0.5228 -0.2912
  303SOL    HW1 1808   5.872   2.918   2.139 -1.4845  0.7033 -1.6357
  303SOL    HW2 1809   5.944   2.798   2.055 -0.5509 -0.7055  1.0388
  304SOL     OW 1810   3.638   1.908   4.478  0.3625  0.7534 -0.3876
  304SOL    HW1 1811   3.731   1.881   4.452  0.2067 -1.9394  1.4504
  304SOL    HW2 1812   3.575   1.888   4.403  0.6660 -1.8345 -0.0326
  305SOL     OW 1813   3.328   1.711   6.998 -0.2616  0.1284 -0.0689
  305SOL    HW1 1814   3.413   1.723   6.948 -0.3136 -0.9394 -0.4292
  305SOL    HW2 1815   3.306   1.614   7.005 -0.7008  0.2962  1.2934
  306SOL     OW 1816   1.633   1.419   3.809 -0.7098 -0.2935 -0.1598
  306SOL    HW1 1817   1.548   1.393   3.856 -0.9671 -0.3675 -0.6556
  306SOL    HW2 1818   1.676   1.494   3.857  0.1749 -1.7717  1.4612
  307SOL     OW 1819   5.797   6.406   1.184 -0.4575 -0.0291  0.0514
  307SOL    HW1 1820   5.896   6.395   1.180 -0.3089  0.5825  1.3778
  307SOL    HW2 1821   5.753   6.325   1.146  0.5158  0.3075 -1.9775
  308SOL     OW 1822   0.700   3.925   3.406 -0.1895  0.3007 -0.1066
  308SOL    HW1 1823   0.655   4.011   3.429  0.7386  0.6440  0.4887
  308SOL    HW2 1824   0.720   3.874   3.490 -0.2132 -0.2252 -0.4141
  309SOL     OW 1825   4.358   4.130   6.693 -0.3449 -0.2362  0.0230
  309SOL    HW1 1826   4.298   4.064   6.740 -0.3284 -2.1478 -2.4444
  309SOL    HW2 1827   4.446   4.133   6.739 -0.7937 -0.9405  0.9737
  310SOL     OW 1828   0.223   6.950   0.644  0.0160  0.8106  1.0340
  310SOL    HW1 1829   0.315   6.986   0.661  1.7998 -2.6147 -0.3112
  310SOL    HW2 1830   0.210   6.938   0.545 -0.1536 -2.4116  1.3145
  311SOL     OW 1831   3.408   5.511   1.744  0.4571 -0.0343  0.0910
  311SOL    HW1 1832   3.321   5.561   1.750  0.2260 -0.5333  1.1568
  311SOL    HW2 1833   3.457   5.539   1.662  0.1651  1.6943  0.4658
  312SOL     OW 1834   4.034   1.261   5.958  0.4343 -0.5751  0.1240
  312SOL    HW1 1835   4.012   1.175   5.913 -1.5947 -0.0117 -0.1002
  312SOL    HW2 1836   4.054   1.331   5.889 -0.6415 -0.2197  0.1494
  313SOL     OW 1837   0.834   5.568   2.075 -0.0498 -0.6343  0.5245
  313SOL    HW1 1838   0.739   5.544   2.059 -0.0282 -2.1280  2.2781
  313SOL    HW2 1839   0.840   5.636   2.148  0.2332 -0.7798  0.6412
  314SOL     OW 1840   4.039   4.545   1.737  0.4398  0.1713  0.2834
  314SOL    HW1 1841   3.941   4.538   1.716  0.5670  0.4504 -0.4252
  314SOL    HW2 1842   4.084   4.458   1.715  0.5420  0.4059 -0.4839
  315SOL     OW 1843   1.463   3.680   3.111 -0.7191 -0.3505  0.2120
  315SOL    HW1 1844   1.464   3.752   3.181 -0.8546 -0.4975  0.3663
  315SOL    HW2 1845   1.557   3.651   3.092 -0.5789  0.5485 -0.5614
  316SOL     OW 1846   1.416   3.318   3.763 -0.0538  0.4761 -0.2282
  316SOL    HW1 1847   1.366   3.397   3.727 -0.8820 -0.3634 -1.0042
  316SOL    HW2 1848   1.366   3.280   3.841  0.3467  0.7233  0.1494
  317SOL     OW 1849   6.005   3.165   6.917 -0.4702 -0.5061  0.2100
  317SOL    HW1 1850   6.100   3.172   6.884 -0.4833 -0.9965  0.0685
  317SOL    HW2 1851   5.969   3.257   6.932  0.6336 -0.3103  2.0077
  318SOL     OW 1852   3.689   4.258   0.829  0.2908  0.1486 -0.7144
  318SOL    HW1 1853   3.732   4.260   0.739  1.4035 -0.3356 -0.2174
  318SOL    HW2 1854   3.741   4.197   0.889  0.6307  1.7764  0.7655
  319SOL     OW 1855   6.776   0.728   0.022 -0.6283 -0.3191  0.0786
  319SOL    HW1 1856   6.730   0.639   0.024 -0.8203 -0.2284 -0.2458
  319SOL    HW2 1857   6.725   0.790  -0.037  1.3163 -0.9955 -2.5235
  320SOL     OW 1858   6.048   1.762   2.063  0.4589  0.1297  0.2150
  320SOL    HW1 1859   6.009   1.853   2.045  0.4644  0.5604  2.1357
  320SOL    HW2 1860   5.980   1.692   2.042 -0.9042  0.7978  2.0762
  321SOL     OW 1861   2.313   6.928   2.301 -0.2903 -0.3976 -0.7808
  321SOL    HW1 1862   2.413   6.939   2.299 -0.1135 -1.8652 -1.4122
  321SOL    HW2 1863   2.286   6.885   2.387 -0.4397  0.3790 -0.4301
  322SOL     OW 1864   3.434   4.129   4.026  0.5910  0.1492 -0.1939
  322SOL    HW1 1865   3.417   4.033   4.050  0.3484  0.3659  0.5091
  322SOL    HW2 1866   3.486   4.132   3.940 -1.1511 -0.5611 -1.3314
  323SOL     OW 1867   1.102   4.806   2.173  0.1076 -0.0486  0.3829
  323SOL    HW1 1868   1.104   4.744   2.251  0.2790 -0.7747 -0.1871
  323SOL    HW2 1869   1.134   4.758   2.092 -0.8908  0.4319 -0.3212
  324SOL     OW 1870   1.949   2.926   2.648  0.5676 -0.0757  0.0601
  324SOL    HW1 1871   1.882   2.858   2.619 -0.3268  1.0248 -0.5413
  324SOL    HW2 1872   1.989   2.899   2.735  1.5902 -2.2928 -1.0075
  325SOL     OW 1873   2.015   1.935   5.141 -0.0604 -0.0690  0.2169
  325SOL    HW1 1874   1.931   1.989   5.151  0.2174  0.1738  1.3385
  325SOL    HW2 1875   2.019   1.898   5.049  0.3171  2.7858 -1.0321
  326SOL     OW 1876   1.795   3.138   4.594  0.4701  0.1448 -0.0391
  326SOL    HW1 1877   1.873   3.087   4.628  0.5114 -0.4329 -0.9666
  326SOL    HW2 1878   1.820   3.235   4.585  0.1074  0.5690  2.5925
  327SOL     OW 1879   6.577   5.930   4.712 -0.1006  0.4106 -0.5285
  327SOL    HW1 1880   6.656   5.953   4.656  0.7341  1.8101  1.1210
  327SOL    HW2 1881   6.502   5.994   4.694 -0.4267 -0.1429 -1.1845
  328SOL     OW 1882   3.496   6.135   2.637 -0.0884 -0.4253  0.1850
  328SOL    HW1 1883   3.436   6.201   2.682  0.4739 -0.2069  0.6246
  328SOL    HW2 1884   3.504   6.053   2.694  1.0839  0.0805  0.7921
  329SOL     OW 1885   1.969   4.585   6.847 -0.0858 -0.2573 -0.6373
  329SOL    HW1 1886   1.909   4.650   6.800  1.4762  4.3233  2.8803
  329SOL    HW2 1887   1.930   4.563   6.937  0.8582 -1.8943 -0.5839
  330SOL     OW 1888   1.464   2.140   1.132 -0.1612  0.4331 -0.3515
  330SOL    HW1 1889   1.391   2.092   1.083 -1.2770  1.7365 -0.0407
  330SOL    HW2 1890   1.441   2.237   1.138  0.2686  0.4454  2.1350
  331SOL     OW 1891   1.008   4.014   4.896 -0.9053 -0.0347 -0.2120
  331SOL    HW1 1892   1.078   4.072   4.938 -0.7799 -0.6618  0.4473
  331SOL    HW2 1893   0.987   4.049   4.804 -0.9360  1.1476  0.2254
  332SOL     OW 1894   4.244   1.068   3.611  0.6663  0.9378 -0.3075
  332SOL    HW1 1895   4.199   1.048   3.698  0.4438 -0.0799 -0.6484
  332SOL    HW2 1896   4.240   0.988   3.552  2.3457  1.0490 -0.6136
  333SOL     OW 1897   6.335   5.938   1.782 -0.2468 -0.4198 -0.0865
  333SOL    HW1 1898   6.417   5.922   1.837 -0.8955  1.0421  1.3987
  333SOL    HW2 1899   6.356   6.002   1.708  0.0554 -0.4236 -0.0046
  334SOL     OW 1900   6.498   6.753   2.621  0.4137  0.1092  0.0902
  334SOL    HW1 1901   6.546   6.805   2.692 -1.0735  0.2773  0.9940
  334SOL    HW2 1902   6.475   6.815   2.545 -0.0681  0.4570  0.5148
  335SOL     OW 1903   4.069   5.140   1.852 -0.1183  0.0327  0.0480
  335SOL    HW1 1904   4.058   5.090   1.937  0.2536 -1.1213 -0.5525
  335SOL    HW2 1905   4.162   5.178   1.847  0.4141 -1.2680 -0.5110
  336SOL     OW 1906   3.300   0.708   5.155 -0.2865  0.1584  0.3680
  336SOL    HW1 1907   3.247   0.647   5.097 -0.2963  1.4296 -1.0286
  336SOL    HW2 1908   3.279   0.690   5.251 -1.1567 -1.2069 -0.0493
  337SOL     OW 1909   1.215   4.579   2.293 -0.5747  0.0845  0.7241
  337SOL    HW1 1910   1.230   4.645   2.366  1.8817 -2.3187  2.5899
  337SOL    HW2 1911   1.297   4.570   2.237 -1.6446  0.1930 -0.9624
  338SOL     OW 1912   2.117   4.209   1.733  0.6151 -0.6551 -0.3195
  338SOL    HW1 1913   2.121   4.301   1.771  0.4247 -0.6583 -0.2937
  338SOL    HW2 1914   2.131   4.142   1.806  0.4830 -0.6541 -0.2926
  339SOL     OW 1915   4.171   0.255   1.833  0.3962  0.1544 -0.4130
  339SOL    HW1 1916   4.121   0.208   1.760 -2.6017 -0.4986  1.8452
  339SOL    HW2 1917   4.229   0.190   1.881 -0.5659 -0.3472  0.1072
  340SOL     OW 1918   5.328   4.183   3.359  0.7411  0.1821 -0.3663
  340SOL    HW1 1919   5.368   4.239   3.286  0.4613  1.9239  0.7600
  340SOL    HW2 1920   5.376   4.096   3.363  2.3979  1.0048 -1.0741
  341SOL     OW 1921   3.559   4.543   6.508  0.5349  0.0501 -0.0019
  341SOL    HW1 1922   3.587   4.556   6.413 -0.7226 -1.1810 -0.5648
  341SOL    HW2 1923   3.559   4.632   6.555  2.6973  0.4755 -0.6705
  342SOL     OW 1924   5.850   3.289   2.167  0.2498  0.0880  0.4829
  342SOL    HW1 1925   5.803   3.281   2.079 -0.5860  0.0979  0.9243
  342SOL    HW2 1926   5.801   3.353   2.226  1.0174  0.3760  0.8237
  343SOL     OW 1927   0.765   0.328   2.941  0.3938  0.2002 -0.5252
  343SOL    HW1 1928   0.688   0.335   2.877  0.4186 -0.5685 -0.6497
  343SOL    HW2 1929   0.745   0.382   3.023 -0.0653  0.3941 -0.7583
  344SOL     OW 1930   5.010   5.809   1.055 -0.6518  0.1915  0.0519
  344SOL    HW1 1931   5.097   5.854   1.075 -0.7882  1.1501 -1.3444
  344SOL    HW2 1932   4.936   5.877   1.058 -1.2240 -0.4330  0.3130
  345SOL     OW 1933   0.791   0.460   5.877  0.5374  0.0052  0.0087
  345SOL    HW1 1934   0.798   0.395   5.803  1.6065  1.0026 -0.7976
  345SOL    HW2 1935   0.712   0.437   5.934 -1.0320 -0.1043 -2.0977
  346SOL     OW 1936   3.927   1.515   6.041 -0.1330  0.4540  0.4677
  346SOL    HW1 1937   3.827   1.505   6.048 -0.0886  0.4126  1.1043
  346SOL    HW2 1938   3.957   1.487   5.950 -0.9331  2.3990 -0.4582
  347SOL     OW 1939   6.509   0.376   5.141 -0.6497  0.5772 -0.4141
  347SOL    HW1 1940   6.592   0.429   5.160  0.5794 -1.0238 -1.0510
  347SOL    HW2 1941   6.506   0.297   5.203 -0.6368 -0.4661 -1.7180
  348SOL     OW 1942   2.396   2.682   4.837 -0.0338  0.0167 -0.1523
  348SOL    HW1 1943   2.426   2.657   4.930  0.1661  1.6072  0.2341
  348SOL    HW2 1944   2.389   2.781   4.830 -2.4596 -0.1670 -1.1120
  349SOL     OW 1945   6.821   4.528   1.884  0.7392 -0.6568 -0.2278
  349SOL    HW1 1946   6.806   4.565   1.792 -1.5168 -0.8149  0.0021
  349SOL    HW2 1947   6.779   4.438   1.891 -0.5494  0.0114  1.3620
  350SOL     OW 1948   4.008   4.058   1.692  0.1380  0.0757  0.4390
  350SOL    HW1 1949   3.930   4.115   1.715 -0.8781 -1.1084  0.0653
  350SOL    HW2 1950   4.028   3.996   1.768  1.1626  0.8381  0.8040
  351SOL     OW 1951   3.328   2.516   0.834 -0.2043 -0.5823  0.0977
  351SOL    HW1 1952   3.355   2.493   0.740  2.7296 -0.2723  0.7868
  351SOL    HW2 1953   3.364   2.448   0.897 -1.0757 -0.1030  1.1457
  352SOL     OW 1954   3.296   0.931   0.618 -0.2442 -0.2232  0.2088
  352SOL    HW1 1955   3.213   0.977   0.588 -1.2888 -2.0737  0.1226
  352SOL    HW2 1956   3.273   0.841   0.655  1.5911 -0.2292  1.4856
  353SOL     OW 1957   3.628   1.475   1.602 -0.3344  0.1098  0.1248
  353SOL    HW1 1958   3.564   1.506   1.671 -1.2484 -0.0281 -0.6416
  353SOL    HW2 1959   3.654   1.551   1.543  0.7044  0.3027  0.7932
  354SOL     OW 1960   4.255   6.665   3.498 -0.4627 -0.5555  0.4537
  354SOL    HW1 1961   4.328   6.597   3.495 -0.8879 -0.9764 -1.0085
  354SOL    HW2 1962   4.200   6.651   3.581  0.0913 -1.3101  0.7034
  355SOL     OW 1963   0.778   1.188   1.662 -0.1321 -0.5264 -0.0793
  355SOL    HW1 1964   0.806   1.179   1.758 -1.0506  0.2921  0.2779
  355SOL    HW2 1965   0.679   1.189   1.656 -0.1303  1.9146 -0.7624
  356SOL     OW 1966   2.670   5.940   2.240 -0.3185 -0.5503  0.0141
  356SOL    HW1 1967   2.698   6.035   2.253 -2.2360 -0.1202  1.5571
  356SOL    HW2 1968   2.577   5.937   2.203 -0.1091 -1.8516 -0.4878
  357SOL     OW 1969   0.920   5.263   4.024  0.0735 -0.0971  0.5461
  357SOL    HW1 1970   0.881   5.215   4.103 -0.9429 -0.8361 -0.3801
  357SOL    HW2 1971   0.872   5.349   4.010  0.9045  0.5193  1.2921
  358SOL     OW 1972   4.367   0.304   2.569 -0.6588 -0.2918 -0.5038
  358SOL    HW1 1973   4.368   0.305   2.469 -1.1623  1.7110 -0.5304
  358SOL    HW2 1974   4.309   0.377   2.602  1.6663  0.8861  1.2727
  359SOL     OW 1975   5.156   0.049   1.718  0.3043 -0.7382 -0.4845
  359SOL    HW1 1976   5.100  -0.005   1.655  0.8521 -0.8992 -0.8360
  359SOL    HW2 1977   5.167   0.141   1.681 -1.6117  0.0247  0.6689
  360SOL     OW 1978   4.318   5.015   0.318  0.2924 -0.5687 -0.0537
  360SOL    HW1 1979   4.308   5.060   0.406 -1.4379 -0.7028 -0.1626
  360SOL    HW2 1980   4.238   5.032   0.262  2.2505  1.4051 -2.5230
  361SOL     OW 1981   4.214   1.567   2.940  0.2767  0.5504 -0.0982
  361SOL    HW1 1982   4.133   1.622   2.961  0.7202  2.8411 -3.4445
  361SOL    HW2 1983   4.296   1.612   2.976  0.3862  0.4496 -0.2174
  362SOL     OW 1984   2.674   3.905   5.267 -0.0731 -0.1079 -0.1718
  362SOL    HW1 1985   2.598   3.954   5.225 -0.5950 -0.1761  0.6632
  362SOL    HW2 1986   2.682   3.932   5.363 -0.7447 -2.0711  0.4900
  363SOL     OW 1987   0.434   4.505   3.507 -0.2889 -0.3451 -0.2216
  363SOL    HW1 1988   0.485   4.489   3.591 -0.0786  0.5063 -0.1784
  363SOL    HW2 1989   0.497   4.497   3.429 -0.2290  0.0110 -0.2138
  364SOL     OW 1990   0.360   4.646   6.954  0.1314  0.0531 -0.7230
  364SOL    HW1 1991   0.433   4.714   6.957 -0.0429  0.4229 -2.9312
  364SOL    HW2 1992   0.326   4.637   6.860 -3.6437  0.9232  0.3665
  365SOL     OW 1993   6.181   4.511   2.939  0.2571 -0.3121 -0.8902
  365SOL    HW1 1994   6.215   4.473   2.854 -0.5950 -1.0764 -0.8991
  365SOL    HW2 1995   6.138   4.439   2.993  0.6270  0.1945  0.1156
  366SOL     OW 1996   3.574   0.461   1.251 -0.2442 -0.5760 -0.2535
  366SOL    HW1 1997   3.627   0.420   1.177  1.0540 -1.5510  1.1646
  366SOL    HW2 1998   3.598   0.558   1.259  1.0819 -0.9215  0.1386
  367SOL     OW 1999   6.656   2.230   1.737  0.4964  0.0653  0.8694
  367SOL    HW1 2000   6.617   2.165   1.671  1.8702  0.6001 -0.5295
  367SOL    HW2 2001   6.589   2.300   1.758 -0.8287 -1.4519  1.9868
  368SOL     OW 2002   0.054   2.757   3.838  0.0460 -0.4062 -0.2026
  368SOL    HW1 2003   0.028   2.661   3.840 -0.1298 -0.3479  0.6039
  368SOL    HW2 2004   0.053   2.794   3.931 -1.1009  0.7067 -0.6366
  369SOL     OW 2005   1.186   4.264   3.178 -0.5406  0.2926  0.1049
  369SOL    HW1 2006   1.195   4.194   3.107  0.2801 -0.5359  0.9821
  369SOL    HW2 2007   1.206   4.354   3.140 -1.5340  0.0526 -1.0319
  370SOL     OW 2008   3.125   2.993   6.226 -0.2885  0.6269 -0.4095
  370SOL    HW1 2009   3.110   2.969   6.130  2.3982  1.8334 -1.2499
  370SOL    HW2 2010   3.088   3.084   6.244 -1.5848  0.0386 -0.0210
  371SOL     OW 2011   3.475   3.155   4.556  0.2462  0.3266  0.2037
  371SOL    HW1 2012   3.396   3.096   4.543  0.7736 -0.1335 -1.0725
  371SOL    HW2 2013   3.495   3.204   4.471  1.2009  0.5889  0.5684
  372SOL     OW 2014   3.449   6.825   5.298 -0.0100  0.1368  0.2538
  372SOL    HW1 2015   3.378   6.795   5.235  0.1506 -1.2353  0.6954
  372SOL    HW2 2016   3.538   6.791   5.268  0.6680  2.6225 -0.8184
  373SOL     OW 2017   5.747   0.937   5.653  0.4019  0.4174  0.2221
  373SOL    HW1 2018   5.708   1.030   5.654 -0.3686  0.0971  0.4294
  373SOL    HW2 2019   5.847   0.944   5.652  0.4602  1.2758  3.2067
  374SOL     OW 2020   4.843   0.928   1.945  0.4446 -0.0622 -0.0992
  374SOL    HW1 2021   4.913   0.994   1.916  0.3878  0.6670  1.3605
  374SOL    HW2 2022   4.887   0.853   1.995  0.2645  0.0387  0.2116
  375SOL     OW 2023   0.306   2.965   1.662  0.0958 -0.0722 -0.1469
  375SOL    HW1 2024   0.286   3.039   1.599  0.9111  0.1596 -0.1414
  375SOL    HW2 2025   0.280   2.878   1.621 -1.4366  0.2463  0.0886
  376SOL     OW 2026   2.969   4.009   6.242  0.2848  0.3235 -0.4561
  376SOL    HW1 2027   2.914   4.081   6.283  0.6349  0.5398 -0.3633
  376SOL    HW2 2028   3.007   4.041   6.155  1.0085  0.5054 -0.0830
  377SOL     OW 2029   5.274   6.938   3.981 -0.1989 -0.6366 -0.3103
  377SOL    HW1 2030   5.218   6.857   3.967 -2.5712  0.4830  1.9507
  377SOL    HW2 2031   5.289   6.952   4.079  1.5531  0.7936 -0.7178
  378SOL     OW 2032   5.732   1.599   0.862 -0.1606 -0.3684  0.1474
  378SOL    HW1 2033   5.832   1.595   0.872 -0.0018  0.6244 -0.8701
  378SOL    HW2 2034   5.698   1.508   0.837  0.7471 -0.2847 -1.5114
  379SOL     OW 2035   0.103   3.530   1.584  0.2526 -0.2052 -0.9557
  379SOL    HW1 2036   0.170   3.530   1.510 -1.8175 -0.9071 -2.9182
  379SOL    HW2 2037   0.036   3.458   1.570 -0.6120  0.0567  1.2776
  380SOL     OW 2038   0.313   2.652   0.967 -0.4717 -0.4531  0.4050
  380SOL    HW1 2039   0.245   2.718   0.936  0.8671  0.9077  0.2319
  380SOL    HW2 2040   0.279   2.603   1.047 -0.6691  2.0999  1.9951
  381SOL     OW 2041   5.760   5.989   0.153  0.7230 -0.3172  0.3595
  381SOL    HW1 2042   5.775   5.969   0.250 -1.3073  1.4969  1.1373
  381SOL    HW2 2043   5.802   6.078   0.130  1.0560 -0.6600 -0.3973
  382SOL     OW 2044   2.585   6.843   6.415  0.2761 -0.2835 -0.1223
  382SOL    HW1 2045   2.495   6.872   6.382 -0.1719  1.6692  2.4423
  382SOL    HW2 2046   2.594   6.867   6.512  3.9769  0.5809 -0.5300
  383SOL     OW 2047   5.826   3.229   1.413  0.1678 -0.4998 -0.2167
  383SOL    HW1 2048   5.747   3.173   1.388  0.0857  0.0129 -1.1423
  383SOL    HW2 2049   5.826   3.313   1.359  1.6323 -0.7267 -0.6015
  384SOL     OW 2050   2.340   5.286   4.793  0.2926 -0.2214  0.1054
  384SOL    HW1 2051   2.242   5.306   4.805 -0.0757 -1.8546  0.0239
  384SOL    HW2 2052   2.394   5.360   4.833 -0.9633  1.2745 -0.8211
  385SOL     OW 2053   4.235   5.448   5.964 -0.3063  0.3225 -0.5999
  385SOL    HW1 2054   4.245   5.406   6.054 -0.5363 -0.6420 -1.0128
  385SOL    HW2 2055   4.318   5.434   5.911 -1.0927 -1.4626 -1.4696
  386SOL     OW 2056   3.032   6.482   6.002 -0.7529  0.4533 -0.2548
  386SOL    HW1 2057   2.967   6.558   6.014 -1.3584  0.0547 -0.9062
  386SOL    HW2 2058   3.065   6.453   6.091 -1.0878  0.9988  0.0562
  387SOL     OW 2059   0.027   0.837   0.437 -0.0153  0.8021 -0.0952
  387SOL    HW1 2060   0.104   0.861   0.376 -1.2054  1.8316 -1.2686
  387SOL    HW2 2061   0.027   0.898   0.516 -0.2889  1.5828 -0.6873
  388SOL     OW 2062   0.044   1.673   6.147  0.4795  0.3914 -0.7097
  388SOL    HW1 2063   0.130   1.637   6.112  0.8016  1.2081 -0.7804
  388SOL    HW2 2064  -0.010   1.598   6.186  1.8620  0.0628  0.7010
  389SOL     OW 2065   6.514   4.237   2.732 -0.1901  0.1088  0.2931
  389SOL    HW1 2066   6.496   4.202   2.824  1.5435  0.3132  0.7469
  389SOL    HW2 2067   6.603   4.205   2.701 -1.0670 -0.6211 -1.6749
  390SOL     OW 2068   2.598   3.993   5.966 -0.7193  0.0279  0.0009
  390SOL    HW1 2069   2.528   3.933   5.929 -0.2911  0.3477 -1.3734
  390SOL    HW2 2070   2.685   3.975   5.920 -0.0240  0.0671  1.2395
  391SOL     OW 2071   3.799   3.806   2.836  0.2742 -0.0677  0.2110
  391SOL    HW1 2072   3.722   3.749   2.865  1.8816 -0.6243  4.1661
  391SOL    HW2 2073   3.845   3.763   2.759 -2.4041 -0.5023 -1.2486
  392SOL     OW 2074   2.440   4.987   3.588 -0.2323 -0.2878 -0.0224
  392SOL    HW1 2075   2.345   4.976   3.615 -0.9542  1.7509 -1.4402
  392SOL    HW2 2076   2.448   4.974   3.489  0.1875  2.9899 -0.5553
  393SOL     OW 2077   3.008   0.631   1.554 -0.2167 -0.2938  0.2775
  393SOL    HW1 2078   2.983   0.540   1.587  1.6673 -0.8296  0.3176
  393SOL    HW2 2079   3.041   0.624   1.459 -2.1971  0.7124 -0.5485
  394SOL     OW 2080   5.575   2.977   6.225  0.1161  0.2978  0.3947
  394SOL    HW1 2081   5.603   3.015   6.313 -1.8007 -2.1096  2.1773
  394SOL    HW2 2082   5.491   3.021   6.195  0.3021  0.5095  0.1739
  395SOL     OW 2083   5.451   3.711   6.504 -0.1115  0.6523 -0.0856
  395SOL    HW1 2084   5.357   3.678   6.505 -0.4719  1.6441  0.2748
  395SOL    HW2 2085   5.496   3.689   6.590  0.1207 -0.1641 -0.4057
  396SOL     OW 2086   0.362   1.165   0.905  0.0701 -0.5782 -0.3578
  396SOL    HW1 2087   0.421   1.166   0.825 -0.7322  0.3392 -0.9621
  396SOL    HW2 2088   0.414   1.136   0.985  1.5499  0.9772 -0.7030
  397SOL     OW 2089   4.452   2.292   5.077 -0.6346 -0.1967 -0.2934
  397SOL    HW1 2090   4.357   2.321   5.073 -0.3921  0.4925 -1.3657
  397SOL    HW2 2091   4.510   2.361   5.035  0.4635 -0.1593  1.1918
  398SOL     OW 2092   5.668   0.560   5.018  0.1442  0.3309  0.0335
  398SOL    HW1 2093   5.592   0.535   4.958  0.0944  0.7468 -0.0828
  398SOL    HW2 2094   5.686   0.486   5.082 -1.0008  0.6203  0.7083
  399SOL     OW 2095   0.383   4.424   4.117  0.5128 -0.5036  0.4753
  399SOL    HW1 2096   0.353   4.395   4.208 -0.1711 -1.1128  0.0582
  399SOL    HW2 2097   0.306   4.422   4.054  1.0718 -0.4538 -0.2148
  400SOL     OW 2098   6.989   6.286   4.175 -0.5362 -0.3031 -0.1879
  400SOL    HW1 2099   6.922   6.358   4.195 -0.1111 -0.2854  1.2114
  400SOL    HW2 2100   7.006   6.231   4.257 -0.6191 -1.8325 -1.1503
  401SOL     OW 2101   2.103   5.308   3.044  0.4812 -0.0257 -0.4895
  401SOL    HW1 2102   2.155   5.319   2.959 -1.8894 -1.0067 -2.1628
  401SOL    HW2 2103   2.007   5.291   3.023 -0.2989  0.1628  2.4389
  402SOL     OW 2104   5.312   1.049   5.496  0.1238 -0.1776 -0.3407
  402SOL    HW1 2105   5.241   1.111   5.461 -0.0603  1.0120  1.9330
  402SOL    HW2 2106   5.277   0.956   5.499 -1.9017  0.5410  1.8369
  403SOL     OW 2107   1.005   6.748   5.646  0.3849 -0.1385 -0.0104
  403SOL    HW1 2108   1.095   6.789   5.627  1.2304 -0.6779  2.4616
  403SOL    HW2 2109   0.933   6.808   5.610  1.6853  0.8364 -1.1181
  404SOL     OW 2110   3.390   0.208   2.960  0.0050 -0.3394  0.2257
  404SOL    HW1 2111   3.486   0.231   2.972  0.0285 -1.3959  2.4381
  404SOL    HW2 2112   3.382   0.120   2.911  0.2134 -0.7475  0.9126
  405SOL     OW 2113   4.145   4.632   1.963 -0.1723 -0.7983 -0.6612
  405SOL    HW1 2114   4.211   4.701   1.934  0.1976 -0.9040 -0.1040
  405SOL    HW2 2115   4.093   4.600   1.884 -1.2335  1.0081 -0.7379
  406SOL     OW 2116   1.951   2.062   1.879 -0.5981 -0.5881  0.0201
  406SOL    HW1 2117   1.978   1.966   1.871 -1.5578 -0.7770 -1.1318
  406SOL    HW2 2118   1.986   2.114   1.801 -0.7696 -0.1597  0.2204
  407SOL     OW 2119   2.602   4.793   3.901  0.2974 -0.8918 -0.0130
  407SOL    HW1 2120   2.503   4.795   3.918  0.3426 -1.3156  0.3134
  407SOL    HW2 2121   2.619   4.752   3.811  0.2380 -2.1856  0.5443
  408SOL     OW 2122   3.378   2.385   1.699 -0.9098 -0.3888 -0.4836
  408SOL    HW1 2123   3.383   2.481   1.726 -1.9696  0.0270 -1.6788
  408SOL    HW2 2124   3.465   2.341   1.718 -0.6789  0.5741  0.8945
  409SOL     OW 2125   6.063   0.258   3.639  0.6325  0.2175 -0.1165
  409SOL    HW1 2126   6.148   0.308   3.659  1.2182 -1.1664  1.0505
  409SOL    HW2 2127   6.085   0.173   3.592 -0.1316 -0.0003 -0.0882
  410SOL     OW 2128   1.231   3.467   1.323  0.2608 -0.2372 -0.7712
  410SOL    HW1 2129   1.289   3.440   1.400 -0.0262 -0.3593 -0.5939
  410SOL    HW2 2130   1.136   3.470   1.354  0.3773  2.1618 -0.4370
  411SOL     OW 2131   5.968   5.666   1.343 -0.2287  0.0815 -0.1954
  411SOL    HW1 2132   5.874   5.662   1.377 -1.2655  1.5708 -2.6347
  411SOL    HW2 2133   6.019   5.736   1.394 -0.6826 -0.1532  0.5913
  412SOL     OW 2134   2.136   3.630   4.663 -0.0308 -0.0826 -0.0674
  412SOL    HW1 2135   2.119   3.659   4.569  0.9690  1.9320  0.3176
  412SOL    HW2 2136   2.182   3.704   4.713 -0.0129 -1.3200  1.8496
  413SOL     OW 2137   0.294   4.778   2.707 -0.0008 -0.0265 -0.1129
  413SOL    HW1 2138   0.302   4.835   2.789 -0.0966  1.0608 -0.8361
  413SOL    HW2 2139   0.201   4.786   2.670 -0.4284 -1.7311  0.5251
  414SOL     OW 2140   1.780   5.874   2.250  0.2048  0.0276  0.0396
  414SOL    HW1 2141   1.880   5.877   2.253  0.2650 -1.7442  0.7311
  414SOL    HW2 2142   1.750   5.790   2.205 -1.0124  0.9525 -0.9836
  415SOL     OW 2143   5.866   2.864   1.717 -0.3412  0.1666 -0.8916
  415SOL    HW1 2144   5.930   2.935   1.746 -1.1027  0.5995 -0.2361
  415SOL    HW2 2145   5.879   2.782   1.773 -0.5370  0.3436 -0.5876
  416SOL     OW 2146   6.526   3.970   6.959  0.5956  0.3499 -0.2453
  416SOL    HW1 2147   6.530   4.018   6.871  0.9705  0.7084 -0.0328
  416SOL    HW2 2148   6.430   3.948   6.980  0.2465  2.1722  0.2716
  417SOL     OW 2149   1.382   0.462   6.197 -0.0115  0.0326  0.0153
  417SOL    HW1 2150   1.334   0.458   6.284  0.6609  3.5991  0.7265
  417SOL    HW2 2151   1.321   0.502   6.128  0.7051  1.1260 -0.0150
  418SOL     OW 2152   3.176   4.746   5.968 -0.3249 -0.1130  0.9956
  418SOL    HW1 2153   3.080   4.722   5.985 -0.5331  0.6901  1.0159
  418SOL    HW2 2154   3.222   4.761   6.055 -0.7554  1.5952  0.9785
  419SOL     OW 2155   5.698   6.734   6.641  0.1900 -0.1358 -0.3364
  419SOL    HW1 2156   5.789   6.695   6.656 -0.5620 -2.1336 -0.5622
  419SOL    HW2 2157   5.666   6.777   6.725  1.4692  0.9085 -0.3586
  420SOL     OW 2158   3.222   6.820   1.019  0.1478 -0.1492 -0.5853
  420SOL    HW1 2159   3.306   6.849   1.066 -0.1181 -2.5347  1.6031
  420SOL    HW2 2160   3.166   6.765   1.081 -2.4675  0.2774 -2.3975
  421SOL     OW 2161   6.012   4.365   3.420  0.5157  0.0896  0.2952
  421SOL    HW1 2162   5.959   4.356   3.504  1.3503 -0.2935  0.7859
  421SOL    HW2 2163   6.038   4.461   3.407 -1.3232  0.5060 -0.5987
  422SOL     OW 2164   4.328   2.242   1.196  0.3759  0.4306 -0.2723
  422SOL    HW1 2165   4.401   2.190   1.242  0.8922  1.6892  0.3714
  422SOL    HW2 2166   4.241   2.196   1.210  0.4632  0.9119  2.2858
  423SOL     OW 2167   2.589   1.073   6.028 -0.5388 -0.0674  0.0428
  423SOL    HW1 2168   2.649   1.142   6.069 -0.2765 -0.8530  1.0088
  423SOL    HW2 2169   2.638   1.026   5.955 -1.3770  2.1261 -2.0863
  424SOL     OW 2170   1.176   3.918   3.469 -0.0110 -0.2262  0.2329
  424SOL    HW1 2171   1.240   3.850   3.504  1.5838 -0.0873 -2.1158
  424SOL    HW2 2172   1.192   4.005   3.514  0.6919 -0.4662  0.4628
  425SOL     OW 2173   4.351   2.440   0.867 -0.2679 -0.2046 -0.4553
  425SOL    HW1 2174   4.327   2.520   0.922  1.6722  0.3036 -0.2795
  425SOL    HW2 2175   4.407   2.377   0.922  0.5426 -0.3449 -1.4083
  426SOL     OW 2176   0.898   2.922   4.956 -0.1264  0.0565 -0.7016
  426SOL    HW1 2177   0.992   2.887   4.951 -0.2731 -0.5753  0.5511
  426SOL    HW2 2178   0.846   2.868   5.022 -0.2341  2.9508  1.7877
  427SOL     OW 2179   6.153   1.061   6.049  0.1763  0.5705 -0.2679
  427SOL    HW1 2180   6.145   0.966   6.019  2.0159  0.8309 -1.8079
  427SOL    HW2 2181   6.109   1.121   5.981  0.2040  0.8939 -0.0039
  428SOL     OW 2182   2.266   1.402   5.685  0.0999  0.3197  0.0820
  428SOL    HW1 2183   2.351   1.367   5.723  0.0006 -1.2876 -1.0605
  428SOL    HW2 2184   2.283   1.436   5.592 -0.4443  0.2118 -0.0606
  429SOL     OW 2185   6.934   0.909   3.615 -0.5558  0.0512 -0.8314
  429SOL    HW1 2186   7.034   0.907   3.628 -0.6137  0.2203 -0.3428
  429SOL    HW2 2187   6.912   0.882   3.522 -0.1207 -1.1452 -0.6007
  430SOL     OW 2188   3.195   2.017   6.133 -0.5841  0.1837 -0.2842
  430SOL    HW1 2189   3.107   2.023   6.180  0.2961  0.9861  1.3161
  430SOL    HW2 2190   3.221   2.107   6.098 -0.7799 -0.2183 -1.5373
  431SOL     OW 2191   1.585   5.728   3.691 -0.3922 -0.0401 -0.0505
  431SOL    HW1 2192   1.553   5.729   3.785 -1.1289 -1.8077 -0.2426
  431SOL    HW2 2193   1.526   5.669   3.636 -0.8351  2.0185 -1.9627
  432SOL     OW 2194   6.109   5.827   1.520  0.1817  0.0804 -0.2336
  432SOL    HW1 2195   6.196   5.874   1.503 -0.2606  0.1983 -2.4693
  432SOL    HW2 2196   6.071   5.857   1.608  2.2564  0.1923  0.6788
  433SOL     OW 2197   1.517   4.591   0.006  0.4549 -0.4285 -0.0740
  433SOL    HW1 2198   1.450   4.519  -0.008 -0.8545  0.6557  0.4089
  433SOL    HW2 2199   1.489   4.673  -0.045  1.1397  0.2078  0.5489
  434SOL     OW 2200   4.900   5.257   2.525 -0.2575  0.6407  0.3537
  434SOL    HW1 2201   4.913   5.190   2.598 -1.7415 -0.8798 -0.6997
  434SOL    HW2 2202   4.805   5.287   2.524 -0.7378 -0.7727 -2.0710
  435SOL     OW 2203   2.810   3.328   0.287 -0.1482 -0.0579 -0.6257
  435SOL    HW1 2204   2.790   3.333   0.190 -1.2092  1.1941 -0.3625
  435SOL    HW2 2205   2.873   3.401   0.312 -1.2705  0.7503 -0.0717
  436SOL     OW 2206   1.783   5.171   1.413  0.3125  0.0109 -0.2313
  436SOL    HW1 2207   1.759   5.078   1.385  0.9267 -0.7159  1.5270
  436SOL    HW2 2208   1.844   5.168   1.491 -0.3891  1.9126  0.4584
  437SOL     OW 2209   0.238   2.327   0.958 -0.0277  0.5225  0.2747
  437SOL    HW1 2210   0.308   2.330   0.886  0.0512  1.4524  0.3801
  437SOL    HW2 2211   0.261   2.256   1.024  0.5419  0.4685  0.0234
  438SOL     OW 2212   0.503   2.850   1.329 -0.4177 -0.3202 -0.1390
  438SOL    HW1 2213   0.525   2.916   1.258 -1.5664  0.9982  0.6828
  438SOL    HW2 2214   0.404   2.843   1.339 -0.2848 -1.0588  0.7959
  439SOL     OW 2215   0.237   0.327   6.408  0.0489  0.3374 -0.2624
  439SOL    HW1 2216   0.336   0.325   6.419  0.3096 -0.9034 -2.2512
  439SOL    HW2 2217   0.196   0.258   6.468  0.0633  2.5198  2.4493
  440SOL     OW 2218   3.285   2.876   6.406 -0.0282  0.0606  0.4226
  440SOL    HW1 2219   3.288   2.924   6.494  1.1157 -0.1568  0.5188
  440SOL    HW2 2220   3.244   2.936   6.337 -0.0065  0.6111  0.8804
  441SOL     OW 2221   1.473   5.513   3.582 -0.1045  0.2102 -0.0434
  441SOL    HW1 2222   1.420   5.458   3.518  0.8651 -0.1537 -0.5437
  441SOL    HW2 2223   1.565   5.475   3.591 -0.7961 -1.0340  3.1718
  442SOL     OW 2224   4.039   3.117   3.331 -0.4241 -0.0853  0.4511
  442SOL    HW1 2225   4.029   3.083   3.238 -0.1986 -0.5354  0.5858
  442SOL    HW2 2226   3.969   3.076   3.390  0.6132 -1.3297  0.8766
  443SOL     OW 2227   0.890   3.512   2.517 -0.5882 -0.5826  0.3768
  443SOL    HW1 2228   0.956   3.537   2.587  0.1390 -0.3022 -0.3957
  443SOL    HW2 2229   0.844   3.593   2.483  2.3311 -0.0112 -2.6872
  444SOL     OW 2230   3.239   2.834   1.123 -0.3194 -0.8636  0.2244
  444SOL    HW1 2231   3.211   2.778   1.045 -0.7557 -1.1051  0.5484
  444SOL    HW2 2232   3.206   2.927   1.110  0.9430 -0.5036 -0.6165
  445SOL     OW 2233   2.779   6.131   5.321  0.2768 -0.1905  0.9177
  445SOL    HW1 2234   2.685   6.139   5.353 -0.2973 -0.1900 -0.6835
  445SOL    HW2 2235   2.817   6.044   5.354 -1.0063 -1.1913 -0.1292
  446SOL     OW 2236   5.205   5.531   0.653 -0.2431  0.2053 -0.0605
  446SOL    HW1 2237   5.244   5.548   0.563  0.3267  2.3935  0.5390
  446SOL    HW2 2238   5.255   5.584   0.722 -1.4607 -0.4267  1.3668
  447SOL     OW 2239   6.116   2.790   6.386 -0.0742  0.3168  0.2999
  447SOL    HW1 2240   6.021   2.763   6.369  0.1233  0.2763 -0.8098
  447SOL    HW2 2241   6.118   2.880   6.430 -0.6477 -0.2090  1.4509
  448SOL     OW 2242   3.146   6.461   4.355 -0.3818 -0.2426 -0.2889
  448SOL    HW1 2243   3.244   6.475   4.369 -0.2894 -0.5203 -0.6528
  448SOL    HW2 2244   3.115   6.513   4.276 -0.0038 -2.1167 -1.7472
  449SOL     OW 2245   0.152   3.510   4.590 -0.8072 -0.0436  0.0341
  449SOL    HW1 2246   0.212   3.472   4.520  3.1652  1.6522  2.2041
  449SOL    HW2 2247   0.099   3.436   4.632  0.1926 -1.7611 -1.5663
  450SOL     OW 2248   0.065   2.694   3.424 -0.2404 -0.3441 -0.1610
  450SOL    HW1 2249   0.063   2.684   3.325 -0.7287 -0.2730 -0.1611
  450SOL    HW2 2250   0.008   2.772   3.451 -0.5934 -0.7248  0.2128
  451SOL     OW 2251   3.957   1.577   6.313 -0.0269  0.2466 -0.1691
  451SOL    HW1 2252   3.922   1.670   6.301 -0.4659 -0.1115 -1.9596
  451SOL    HW2 2253   3.961   1.531   6.224  0.7378 -1.2607  0.6041
  452SOL     OW 2254   5.568   4.400   5.764 -0.2594 -0.3616  0.0204
  452SOL    HW1 2255   5.469   4.389   5.764 -0.3517  0.3805  0.6272
  452SOL    HW2 2256   5.596   4.443   5.849  0.6874 -1.4002  0.2576
  453SOL     OW 2257   4.981   0.043   1.041 -0.0354  0.6973  0.0759
  453SOL    HW1 2258   4.986   0.142   1.055 -0.8297  0.6886  0.4678
  453SOL    HW2 2259   5.063   0.000   1.078 -0.6589  1.0026  1.9048
  454SOL     OW 2260   0.773   2.982   2.039 -0.0103  0.4105 -0.5197
  454SOL    HW1 2261   0.735   3.032   2.117  2.6802  0.7154  0.7251
  454SOL    HW2 2262   0.762   3.037   1.956  1.5844  2.5411  0.5695
  455SOL     OW 2263   4.022   6.322   0.019  0.1968  0.1798  0.1068
  455SOL    HW1 2264   4.104   6.378   0.013 -1.2145  2.3300 -0.1575
  455SOL    HW2 2265   3.971   6.347   0.101 -1.5049  0.8374 -1.0955
  456SOL     OW 2266   0.924   0.307   1.629  0.5684 -0.1240  0.3052
  456SOL    HW1 2267   0.883   0.352   1.550 -0.3006 -0.3408  0.6236
  456SOL    HW2 2268   1.019   0.338   1.639  0.0629  1.5123  0.4133
  457SOL     OW 2269   2.478   5.768   0.401 -0.0981  0.0338 -0.2272
  457SOL    HW1 2270   2.553   5.779   0.337 -0.2547 -0.5081 -0.5039
  457SOL    HW2 2271   2.407   5.710   0.361 -0.4129  0.0801  0.2478
  458SOL     OW 2272   2.553   1.946   5.500  0.3316 -0.1763  1.0050
  458SOL    HW1 2273   2.637   1.984   5.538  1.2896 -1.4210  0.2085
  458SOL    HW2 2274   2.533   1.858   5.543  0.0678 -0.4236  0.3995
  459SOL     OW 2275   3.893   2.156   2.266 -0.1626 -0.1318 -0.0369
  459SOL    HW1 2276   3.824   2.202   2.209  0.5584  1.0222 -0.0192
  459SOL    HW2 2277   3.949   2.097   2.208  0.6239  1.1052 -0.5802
  460SOL     OW 2278   6.837   2.036   6.659 -0.7593  0.4240 -0.0354
  460SOL    HW1 2279   6.923   2.007   6.700 -0.5502 -0.2105 -0.8993
  460SOL    HW2 2280   6.851   2.123   6.610 -0.8832  0.9011  0.7634
  461SOL     OW 2281   2.065   0.547   2.284 -0.0779 -0.5288  0.1991
  461SOL    HW1 2282   2.117   0.627   2.311  0.4175 -0.3361 -1.2208
  461SOL    HW2 2283   2.054   0.547   2.184 -1.6621 -1.2602  0.3507
  462SOL     OW 2284   3.962   3.418   3.507  0.0704 -0.0381 -0.3245
  462SOL    HW1 2285   3.931   3.498   3.558  1.3583  0.6782 -0.6036
  462SOL    HW2 2286   3.893   3.346   3.511 -0.9265  0.9275  0.2968
  463SOL     OW 2287   0.195   6.809   3.573  0.3403  0.0127  0.2756
  463SOL    HW1 2288   0.286   6.818   3.614  0.0589  0.9011  0.7443
  463SOL    HW2 2289   0.156   6.720   3.597  0.1285  0.5429  2.0863
  464SOL     OW 2290   3.645   6.175   4.116 -0.4760  0.5345 -0.2128
  464SOL    HW1 2291   3.668   6.101   4.053 -1.1980  0.2305 -0.1357
  464SOL    HW2 2292   3.687   6.158   4.205 -1.7138 -0.5064  0.2117
  465SOL     OW 2293   6.199   6.384   6.339 -0.1097 -0.3479  0.3595
  465SOL    HW1 2294   6.141   6.464   6.358  0.0781 -0.2551  0.5447
  465SOL    HW2 2295   6.226   6.341   6.425  1.8705  0.8778  0.4007
  466SOL     OW 2296   4.343   4.813   3.320  0.5967  0.1215  0.0580
  466SOL    HW1 2297   4.383   4.745   3.381  1.0445 -0.2352 -0.6131
  466SOL    HW2 2298   4.311   4.769   3.237  2.6186  0.9226 -1.2397
  467SOL     OW 2299   6.467   6.156   0.239 -0.2215 -0.4999  0.5438
  467SOL    HW1 2300   6.539   6.118   0.181 -0.6656 -0.9418  0.2781
  467SOL    HW2 2301   6.507   6.183   0.327  0.1759 -1.2451  0.6009
  468SOL     OW 2302   2.348   0.071   5.552  0.3552  0.0942 -0.4009
  468SOL    HW1 2303   2.257   0.040   5.578  0.5814 -0.2702 -0.0262
  468SOL    HW2 2304   2.360   0.062   5.453  0.2066 -0.4430 -0.3706
  469SOL     OW 2305   3.314   4.336   5.281 -0.4977 -0.2434 -0.0248
  469SOL    HW1 2306   3.397   4.392   5.277  0.2405 -0.8415  3.3129
  469SOL    HW2 2307   3.235   4.394   5.299  0.2727 -0.0274  3.4964
  470SOL     OW 2308   2.731   5.577   1.986  0.2609 -0.2102  0.0760
  470SOL    HW1 2309   2.813   5.594   1.931 -0.4583 -0.2899 -1.0603
  470SOL    HW2 2310   2.717   5.478   1.994 -0.4141 -0.2006 -0.8279
  471SOL     OW 2311   1.500   2.180   4.481  0.2457 -0.3905 -0.2617
  471SOL    HW1 2312   1.425   2.214   4.424  0.5510  1.0496  0.1402
  471SOL    HW2 2313   1.572   2.142   4.423 -0.9842 -2.3047 -0.6334
  472SOL     OW 2314   3.704   1.660   5.918 -0.5999 -0.3567 -0.1356
  472SOL    HW1 2315   3.765   1.736   5.894 -0.5299 -0.5650 -0.6268
  472SOL    HW2 2316   3.644   1.640   5.840  0.8593 -2.2429 -0.8554
  473SOL     OW 2317   0.025   4.546   2.942 -0.3932  0.1793  0.2859
  473SOL    HW1 2318   0.118   4.563   2.910 -0.9968  0.6055 -1.3863
  473SOL    HW2 2319  -0.026   4.632   2.942 -1.1219 -0.2423 -0.0229
  474SOL     OW 2320   5.429   4.197   5.024  0.0557 -0.2981  0.3913
  474SOL    HW1 2321   5.346   4.247   5.046  0.7306  1.9548 -1.7509
  474SOL    HW2 2322   5.407   4.121   4.962 -0.4496  0.3222 -0.2151
  475SOL     OW 2323   4.443   2.082   5.606 -0.8034 -0.7886 -0.5270
  475SOL    HW1 2324   4.540   2.079   5.582 -0.9354  0.4340 -1.3116
  475SOL    HW2 2325   4.388   2.078   5.523 -1.2767  3.4514 -0.6701
  476SOL     OW 2326   2.588   3.230   1.293  0.6559 -0.1093  0.2948
  476SOL    HW1 2327   2.641   3.145   1.295  1.0253  0.0305 -1.7276
  476SOL    HW2 2328   2.649   3.306   1.273  0.4876  0.8367  2.9808
  477SOL     OW 2329   6.473   5.373   4.123  0.5730  0.3222  0.0545
  477SOL    HW1 2330   6.400   5.313   4.091 -0.6767  2.7026 -1.8546
  477SOL    HW2 2331   6.435   5.444   4.182  1.7257  0.3565  0.7884
  478SOL     OW 2332   0.030   5.856   1.483  0.0914  0.0617 -0.0942
  478SOL    HW1 2333   0.067   5.922   1.548 -0.3009  0.0109  0.1831
  478SOL    HW2 2334   0.021   5.767   1.527  1.0050 -0.2895 -0.5821
  479SOL     OW 2335   3.188   3.387   1.419  0.3771  0.5663 -0.1111
  479SOL    HW1 2336   3.258   3.428   1.478  0.2829  0.6357 -0.0478
  479SOL    HW2 2337   3.171   3.447   1.341 -0.1848  0.9361  0.2847
  480SOL     OW 2338   7.010   2.055   0.805 -0.3321 -0.1473 -0.4273
  480SOL    HW1 2339   7.105   2.027   0.805 -0.3418 -0.2420 -2.0548
  480SOL    HW2 2340   6.976   2.057   0.899  1.2788 -0.0489  0.1799
  481SOL     OW 2341   4.365   5.574   0.540  0.2287  0.6438 -0.5932
  481SOL    HW1 2342   4.384   5.558   0.637 -1.4494 -1.0161 -0.4764
  481SOL    HW2 2343   4.396   5.495   0.487 -0.3457  0.8017 -1.1788
  482SOL     OW 2344   4.825   5.159   1.917 -0.0488 -0.1844  0.2446
  482SOL    HW1 2345   4.791   5.247   1.950 -1.9238 -0.3698 -0.9873
  482SOL    HW2 2346   4.906   5.132   1.969  1.7418  3.1257 -0.5407
  483SOL     OW 2347   5.422   1.517   6.465  0.2055 -0.1895  0.1870
  483SOL    HW1 2348   5.503   1.481   6.511 -0.2029 -1.5591 -0.0919
  483SOL    HW2 2349   5.423   1.487   6.369 -0.3012  0.3319  0.0151
  484SOL     OW 2350   4.050   4.802   3.112 -0.5040  0.7628 -0.2966
  484SOL    HW1 2351   3.967   4.750   3.094 -0.1280  0.3150 -0.7747
  484SOL    HW2 2352   4.106   4.805   3.029  1.0900 -1.0330  0.6212
  485SOL     OW 2353   0.384   3.013   0.383 -0.4943 -0.1862 -0.1679
  485SOL    HW1 2354   0.482   3.014   0.363 -0.6903 -0.4424 -1.2431
  485SOL    HW2 2355   0.336   3.066   0.312 -1.0367  0.8791  0.9576
  486SOL     OW 2356   4.284   5.043   5.216 -0.5518  0.4598 -0.0490
  486SOL    HW1 2357   4.296   4.950   5.250 -0.8029  0.3342 -0.2876
  486SOL    HW2 2358   4.309   5.047   5.119 -1.7918  0.3264 -0.3954
  487SOL     OW 2359   6.923   2.089   1.068 -0.3015  1.0685 -0.2466
  487SOL    HW1 2360   6.967   2.171   1.103 -0.4054  0.3623  1.6635
  487SOL    HW2 2361   6.830   2.083   1.105 -0.5042  0.4051 -0.8486
  488SOL     OW 2362   1.135   4.620   5.679  0.0564  0.3714  0.3473
  488SOL    HW1 2363   1.125   4.536   5.625 -0.4836  1.0959 -0.7196
  488SOL    HW2 2364   1.175   4.691   5.621  0.7906  0.7625  1.3304
  489SOL     OW 2365   1.497   2.654   0.006 -0.3025 -0.3126 -0.5702
  489SOL    HW1 2366   1.555   2.575  -0.012 -0.3932 -0.7370  0.8712
  489SOL    HW2 2367   1.414   2.623   0.054 -0.1047  0.7087  0.4585
  490SOL     OW 2368   0.856   3.615   3.694 -0.1913  0.1252 -0.0974
  490SOL    HW1 2369   0.928   3.680   3.717 -1.9833  2.1473  0.1155
  490SOL    HW2 2370   0.890   3.550   3.626  1.5850  1.4441 -0.5362
  491SOL     OW 2371   2.115   3.677   3.426  0.0960  0.5717 -0.3320
  491SOL    HW1 2372   2.122   3.743   3.351  2.9197 -1.0808 -1.6780
  491SOL    HW2 2373   2.069   3.594   3.394  0.9841 -0.0005 -0.1462
  492SOL     OW 2374   1.177   2.767   0.682 -0.1026  0.0611 -0.0267
  492SOL    HW1 2375   1.189   2.844   0.744 -2.2184  0.3468  0.0844
  492SOL    HW2 2376   1.176   2.800   0.587 -2.2167  0.3839  0.0737
  493SOL     OW 2377   2.313   4.190   2.708 -0.0313  0.2965 -0.5387
  493SOL    HW1 2378   2.397   4.243   2.717  0.0269 -0.0919  1.9447
  493SOL    HW2 2379   2.297   4.138   2.793 -2.4387 -0.1442 -1.1785
  494SOL     OW 2380   1.312   5.847   3.462 -0.2023 -0.1608  0.0901
  494SOL    HW1 2381   1.263   5.760   3.463  1.5812 -1.1985 -0.2279
  494SOL    HW2 2382   1.290   5.898   3.545 -3.1046  0.2002 -0.7891
  495SOL     OW 2383   2.941   2.164   5.957 -0.1069 -0.0201 -1.2360
  495SOL    HW1 2384   2.871   2.200   5.896  1.2531  0.8931 -2.3208
  495SOL    HW2 2385   2.922   2.194   6.050 -1.9244 -0.9992 -1.2431
  496SOL     OW 2386   4.736   4.446   1.453  0.3599  0.0476 -0.8290
  496SOL    HW1 2387   4.656   4.424   1.508  1.4287  0.4966  1.0171
  496SOL    HW2 2388   4.710   4.453   1.357 -1.5470 -1.0311 -0.4458
  497SOL     OW 2389   4.696   2.255   0.796  0.0964 -0.3821 -0.7579
  497SOL    HW1 2390   4.617   2.268   0.856 -0.8579  4.4698 -2.6216
  497SOL    HW2 2391   4.679   2.177   0.736 -0.8376 -2.6454  2.2054
  498SOL     OW 2392   1.298   6.345   0.836  0.2364  0.4023 -0.1126
  498SOL    HW1 2393   1.329   6.275   0.771  2.8164 -1.4550  2.8503
  498SOL    HW2 2394   1.255   6.302   0.915  1.4427  2.1343  1.5874
  499SOL     OW 2395   2.503   6.715   6.896 -1.1472  0.2872 -0.5661
  499SOL    HW1 2396   2.574   6.678   6.957 -0.8384  1.0563 -0.4461
  499SOL    HW2 2397   2.413   6.692   6.932 -0.9660 -0.3447 -0.4960
  500SOL     OW 2398   5.841   2.490   5.660  0.2532 -0.4598 -0.0032
  500SOL    HW1 2399   5.897   2.481   5.577  0.4228 -0.2617  0.0898
  500SOL    HW2 2400   5.751   2.451   5.643  0.6168 -1.3400  0.0351
  501SOL     OW 2401   2.011   3.023   4.727 -0.2421  0.3192  0.0782
  501SOL    HW1 2402   2.085   3.056   4.668  0.2241  0.6509  0.8285
  501SOL    HW2 2403   2.013   3.073   4.814  0.5020 -1.6551  1.2650
  502SOL     OW 2404   3.769   3.765   5.693  0.0926 -0.0079 -0.7877
  502SOL    HW1 2405   3.706   3.732   5.623  0.4006  0.8182 -1.4599
  502SOL    HW2 2406   3.858   3.784   5.652  0.2516  0.5689 -0.1873
  503SOL     OW 2407   4.146   5.706   0.155 -0.3856 -0.3028  0.1220
  503SOL    HW1 2408   4.144   5.804   0.174  2.6688 -0.1616  0.1324
  503SOL    HW2 2409   4.149   5.655   0.242  1.6502 -0.1870  0.1629
  504SOL     OW 2410   6.196   0.716   0.483  0.3408  0.3396  0.1740
  504SOL    HW1 2411   6.263   0.769   0.536  0.2921 -0.9238  1.5506
  504SOL    HW2 2412   6.122   0.777   0.454 -0.3834  0.8354  2.8121
  505SOL     OW 2413   0.684   2.993   4.786 -0.2058  0.2888 -0.4859
  505SOL    HW1 2414   0.625   3.024   4.860  0.9827  0.8939  0.2348
  505SOL    HW2 2415   0.778   2.984   4.819  0.4341  0.9814 -2.0188
  506SOL     OW 2416   4.116   5.084   1.267  0.3875  0.2835 -0.0602
  506SOL    HW1 2417   4.164   4.997   1.259  0.3938  0.2440  0.4032
  506SOL    HW2 2418   4.044   5.076   1.336 -0.4162  0.2830 -0.8800
  507SOL     OW 2419   2.316   1.646   1.880  0.0345 -0.5374  0.1319
  507SOL    HW1 2420   2.382   1.597   1.937  0.5742  0.0517  0.0233
  507SOL    HW2 2421   2.342   1.639   1.784 -1.1694 -1.9834 -0.1244
  508SOL     OW 2422   1.380   3.707   2.822  0.2873 -0.3849 -0.1000
  508SOL    HW1 2423   1.413   3.782   2.764 -0.2548  0.4107  0.6016
  508SOL    HW2 2424   1.431   3.706   2.908 -0.8035  0.2403  0.5843
  509SOL     OW 2425   5.428   2.297   6.838 -0.1696 -0.3410  0.5499
  509SOL    HW1 2426   5.337   2.333   6.858 -0.8101 -2.2697  1.4207
  509SOL    HW2 2427   5.424   2.240   6.756  0.2843 -0.3175  0.5054
  510SOL     OW 2428   6.159   5.408   1.458 -0.3251  0.0214  0.5495
  510SOL    HW1 2429   6.132   5.478   1.392 -2.3381  0.3921  1.6612
  510SOL    HW2 2430   6.126   5.435   1.549  1.5708 -0.9021  1.5551
  511SOL     OW 2431   6.833   2.749   0.312  0.2002  0.0703  0.6623
  511SOL    HW1 2432   6.830   2.698   0.226 -0.2158 -0.8344  1.1964
  511SOL    HW2 2433   6.797   2.842   0.297 -0.9832 -0.4573  0.1051
  512SOL     OW 2434   1.179   1.779   6.099  0.6336 -0.8031 -0.3176
  512SOL    HW1 2435   1.174   1.733   6.188  0.1458  0.4398  0.3303
  512SOL    HW2 2436   1.270   1.818   6.087  0.7554 -1.1250 -0.4452
  513SOL     OW 2437   6.654   5.065   1.640  0.4155  0.1285 -0.1591
  513SOL    HW1 2438   6.621   5.105   1.726 -1.5626  0.4490 -1.0099
  513SOL    HW2 2439   6.654   5.135   1.568 -0.5473 -0.7209 -1.0316
  514SOL     OW 2440   5.881   2.162   4.852 -0.3488 -0.1016  0.1304
  514SOL    HW1 2441   5.785   2.139   4.867 -0.4844  1.5690  2.3582
  514SOL    HW2 2442   5.898   2.256   4.883  2.2240 -0.7117  0.8356
  515SOL     OW 2443   1.351   0.631   5.471 -0.6103  0.1040  0.3280
  515SOL    HW1 2444   1.416   0.557   5.454 -0.2172  0.4353  0.3437
  515SOL    HW2 2445   1.401   0.718   5.472 -1.2678  0.5256 -1.1564
  516SOL     OW 2446   0.686   4.433   2.601  0.7684  0.4661  0.1696
  516SOL    HW1 2447   0.757   4.367   2.628  1.1172 -0.4632 -2.7291
  516SOL    HW2 2448   0.599   4.386   2.590  0.0788  1.2644  1.7965
  517SOL     OW 2449   3.938   4.535   6.119 -0.4162 -0.0601 -0.0090
  517SOL    HW1 2450   3.909   4.526   6.214 -1.5120  0.6315 -0.2669
  517SOL    HW2 2451   3.874   4.593   6.070  0.2963 -0.1817 -1.1102
  518SOL     OW 2452   2.248   0.022   1.869 -0.3977 -0.4832  0.2764
  518SOL    HW1 2453   2.276  -0.040   1.943  0.0258 -0.0112  0.5163
  518SOL    HW2 2454   2.300   0.107   1.875 -2.7523  0.9883  1.5297
  519SOL     OW 2455   0.727   6.277   5.175  0.2723 -0.6243  0.5426
  519SOL    HW1 2456   0.759   6.204   5.236 -0.5215  0.9782  3.0447
  519SOL    HW2 2457   0.798   6.348   5.169 -0.6569  0.4732  1.8585
  520SOL     OW 2458   1.576   0.272   6.081 -0.1505 -0.0010 -0.8874
  520SOL    HW1 2459   1.672   0.270   6.106 -0.3086 -1.9058 -0.3117
  520SOL    HW2 2460   1.527   0.337   6.140  0.7833  1.1371 -1.3293
  521SOL     OW 2461   1.302   0.977   4.223  0.4428  0.1848 -0.6749
  521SOL    HW1 2462   1.336   0.884   4.210  2.0117  0.4691  0.9709
  521SOL    HW2 2463   1.336   1.013   4.310 -1.9193  1.5188 -0.1996
  522SOL     OW 2464   2.028   4.319   5.129  0.3516 -0.3255  0.1930
  522SOL    HW1 2465   2.096   4.269   5.183  0.1609 -1.5384 -0.6491
  522SOL    HW2 2466   1.949   4.340   5.186  0.1087 -1.6877  0.3899
  523SOL     OW 2467   0.185   2.166   6.169  0.5274  0.2211 -0.8253
  523SOL    HW1 2468   0.098   2.146   6.214 -0.1988  1.7764 -1.4689
  523SOL    HW2 2469   0.249   2.091   6.184 -0.8788 -0.8819 -0.2217
  524SOL     OW 2470   1.729   0.548   2.417  0.5214  0.2661 -0.6917
  524SOL    HW1 2471   1.646   0.572   2.468  0.7870  0.3328 -0.2877
  524SOL    HW2 2472   1.704   0.496   2.336  0.1227 -0.1675 -0.2958
  525SOL     OW 2473   5.638   3.379   3.431  0.0622 -0.3100 -0.0306
  525SOL    HW1 2474   5.697   3.458   3.412  0.0807  0.5985  3.2052
  525SOL    HW2 2475   5.643   3.356   3.528 -2.3548 -2.3466 -0.2866
  526SOL     OW 2476   5.209   6.940   4.909 -0.1269  0.0335 -0.3790
  526SOL    HW1 2477   5.288   6.939   4.970 -0.2989  1.2830 -0.1122
  526SOL    HW2 2478   5.159   7.026   4.920 -0.4224  0.1035 -1.9539
  527SOL     OW 2479   5.845   2.221   6.873 -0.3567  0.3523 -0.5787
  527SOL    HW1 2480   5.838   2.122   6.863 -0.1151  0.1691  0.8360
  527SOL    HW2 2481   5.843   2.264   6.783 -1.5165 -0.8584 -1.1688
  528SOL     OW 2482   6.490   2.646   3.325 -1.1957 -0.0317  0.6852
  528SOL    HW1 2483   6.585   2.648   3.296 -0.8691  1.2227  1.7483
  528SOL    HW2 2484   6.452   2.555   3.310 -0.4896 -0.0101 -1.7521
  529SOL     OW 2485   2.578   0.547   4.957 -0.7256 -0.5751  0.1468
  529SOL    HW1 2486   2.490   0.552   5.005 -1.5912  0.0515 -1.4195
  529SOL    HW2 2487   2.562   0.556   4.858  1.0370 -1.2618 -0.2274
  530SOL     OW 2488   3.684   5.546   1.269  0.0577 -0.7819  0.2802
  530SOL    HW1 2489   3.641   5.601   1.197  1.1049  0.6171  0.6895
  530SOL    HW2 2490   3.778   5.526   1.243 -0.6089 -3.4584 -0.4137
  531SOL     OW 2491   6.278   0.365   6.737 -0.1430  0.1761 -0.4253
  531SOL    HW1 2492   6.195   0.332   6.691 -1.1181 -0.3952  1.6443
  531SOL    HW2 2493   6.268   0.462   6.757  0.4406  0.5166 -1.6810
  532SOL     OW 2494   3.089   2.692   0.344 -0.5049  0.5292 -0.3015
  532SOL    HW1 2495   3.102   2.596   0.319 -0.9189  0.4934 -0.3841
  532SOL    HW2 2496   3.119   2.705   0.439  0.8673  0.6247 -0.7304
  533SOL     OW 2497   3.702   1.253   5.813 -0.3096 -0.5026 -0.0714
  533SOL    HW1 2498   3.694   1.300   5.901  0.4122 -1.2774  0.4291
  533SOL    HW2 2499   3.617   1.263   5.762 -1.7831 -2.3056  1.8770
  534SOL     OW 2500   1.544   3.866   0.399 -0.1275  0.2454 -0.1066
  534SOL    HW1 2501   1.453   3.889   0.365  0.1341  1.0503 -0.2868
  534SOL    HW2 2502   1.605   3.848   0.322 -0.4536 -1.6281  0.0383
  535SOL     OW 2503   0.068   4.011   3.479  0.1257  0.0744  0.1960
  535SOL    HW1 2504   0.097   4.089   3.534  1.2122 -1.8044  2.4953
  535SOL    HW2 2505   0.145   3.948   3.467 -0.7432 -0.7388 -1.4672
  536SOL     OW 2506   5.143   5.886   1.745  0.4596  0.0918  0.6360
  536SOL    HW1 2507   5.170   5.981   1.760  0.2930  0.4582 -1.2235
  536SOL    HW2 2508   5.219   5.826   1.772  0.7873  0.7627  1.2587
  537SOL     OW 2509   3.042   1.985   2.758 -0.6095 -0.6026 -0.1717
  537SOL    HW1 2510   2.989   2.062   2.724  1.0324  0.1492 -1.1375
  537SOL    HW2 2511   3.114   2.018   2.819  0.9907 -1.1662 -1.6716
  538SOL     OW 2512   3.883   6.549   6.049  0.8225 -0.1080  0.5349
  538SOL    HW1 2513   3.825   6.628   6.030 -1.0929 -1.2845  1.2137
  538SOL    HW2 2514   3.870   6.520   6.144  3.1836  0.0595  0.9712
  539SOL     OW 2515   4.442   6.144   5.796 -0.1512 -0.4209  0.3625
  539SOL    HW1 2516   4.468   6.116   5.704 -0.5698 -0.0146  0.1139
  539SOL    HW2 2517   4.347   6.176   5.796 -0.5180 -1.4453  1.1546
  540SOL     OW 2518   0.788   1.231   5.351  0.1051  0.1507 -0.0965
  540SOL    HW1 2519   0.812   1.223   5.447  1.7127  0.1560 -0.4696
  540SOL    HW2 2520   0.870   1.218   5.295 -1.1621 -2.1066 -1.5889
  541SOL     OW 2521   6.700   4.711   0.814  0.2619  0.4593  0.0664
  541SOL    HW1 2522   6.797   4.687   0.821  0.6703  1.3261 -1.9482
  541SOL    HW2 2523   6.653   4.641   0.759 -0.5264 -0.5239  1.9017
  542SOL     OW 2524   2.957   5.306   4.658 -0.1967 -0.1373  0.3778
  542SOL    HW1 2525   2.942   5.346   4.568  0.2745 -1.7717 -0.4726
  542SOL    HW2 2526   2.880   5.247   4.682 -0.1708  0.0395  0.9034
  543SOL     OW 2527   5.609   2.169   4.832 -0.4770  0.3554 -0.9434
  543SOL    HW1 2528   5.609   2.164   4.732  1.2423  2.6371 -1.1217
  543SOL    HW2 2529   5.581   2.260   4.861  1.1759  0.4198  0.5700
  544SOL     OW 2530   2.099   0.834   1.056  0.8082 -0.9240  0.0231
  544SOL    HW1 2531   2.000   0.844   1.053  0.8402  0.3213  1.5499
  544SOL    HW2 2532   2.122   0.740   1.080 -0.0736 -0.9338  0.9163
  545SOL     OW 2533   6.824   5.215   6.908 -0.2119 -0.1108 -0.1220
  545SOL    HW1 2534   6.878   5.136   6.879  0.0773 -0.5823  1.5952
  545SOL    HW2 2535   6.884   5.292   6.926 -0.4716  0.4568 -1.5474
  546SOL     OW 2536   1.412   6.918   3.579  0.1313  0.5545  0.2005
  546SOL    HW1 2537   1.382   6.867   3.660  1.6477  0.7939  0.9504
  546SOL    HW2 2538   1.509   6.898   3.562  0.8984  3.3865  0.7367
  547SOL     OW 2539   3.232   1.876   6.770  0.4946 -0.3649  0.0685
  547SOL    HW1 2540   3.329   1.852   6.775  0.6980  0.6373  1.2675
  547SOL    HW2 2541   3.184   1.840   6.850  0.0572 -0.0514 -0.0473
  548SOL     OW 2542   4.866   4.613   0.645  0.7134 -0.4359 -0.1399
  548SOL    HW1 2543   4.948   4.671   0.643  0.3713  0.0253 -1.1031
  548SOL    HW2 2544   4.827   4.615   0.737  1.3941 -0.1066  0.1477
  549SOL     OW 2545   4.032   1.242   2.303 -0.0766 -0.3032  0.1608
  549SOL    HW1 2546   4.005   1.277   2.213 -0.6562  0.0425  0.4575
  549SOL    HW2 2547   3.954   1.250   2.365 -0.1782 -1.9747  0.2924
  550SOL     OW 2548   6.576   5.697   2.908  0.5724  0.1902 -0.0929
  550SOL    HW1 2549   6.616   5.690   2.817 -2.0648 -1.5227 -1.2426
  550SOL    HW2 2550   6.496   5.757   2.904  0.0873 -0.3719  0.9467
  551SOL     OW 2551   6.043   2.489   6.976  0.5739 -0.0441  0.2176
  551SOL    HW1 2552   6.033   2.521   6.882 -0.0422 -0.9752 -0.0438
  551SOL    HW2 2553   6.140   2.480   6.999  0.7214 -0.1671 -0.4472
  552SOL     OW 2554   6.541   0.420   6.288  0.4240 -1.1586 -0.1471
  552SOL    HW1 2555   6.496   0.370   6.362  0.3509 -1.9844 -0.7411
  552SOL    HW2 2556   6.564   0.357   6.214 -3.8343  0.2179 -3.0298
  553SOL     OW 2557   6.250   2.139   3.748 -0.7709  0.2254 -0.3982
  553SOL    HW1 2558   6.242   2.238   3.759  0.9356  0.3209  0.3184
  553SOL    HW2 2559   6.307   2.102   3.821 -0.5262 -1.1480 -1.2482
  554SOL     OW 2560   0.327   6.092   6.305  0.0258  0.0150  0.3330
  554SOL    HW1 2561   0.295   6.139   6.387  0.5482  0.3646  0.3423
  554SOL    HW2 2562   0.327   6.155   6.227 -0.7714 -0.3957 -0.0230
  555SOL     OW 2563   3.661   5.209   6.633 -0.0324 -0.0151  0.0265
  555SOL    HW1 2564   3.751   5.223   6.593  0.6716  3.3281  2.3945
  555SOL    HW2 2565   3.668   5.143   6.708  0.5353  0.4620  0.4013
  556SOL     OW 2566   4.513   5.285   3.147 -0.5970  0.0658  0.2923
  556SOL    HW1 2567   4.595   5.253   3.099  0.7118 -0.7833  2.9288
  556SOL    HW2 2568   4.532   5.293   3.245 -2.2497  4.4527  0.4871
  557SOL     OW 2569   0.116   3.644   1.838  0.0890  0.3116 -0.1260
  557SOL    HW1 2570   0.087   3.575   1.904 -2.0411  0.0468 -1.2393
  557SOL    HW2 2571   0.125   3.603   1.747 -0.1663  1.2626 -0.5983
  558SOL     OW 2572   4.174   4.261   0.542  0.0707  0.1435  0.1728
  558SOL    HW1 2573   4.139   4.265   0.449  0.8701  1.4172 -0.0790
  558SOL    HW2 2574   4.100   4.232   0.603 -0.5221 -0.4670 -0.8061
  559SOL     OW 2575   5.483   3.116   4.293  0.6050  0.4933  0.4723
  559SOL    HW1 2576   5.467   3.023   4.260 -1.0443  0.6015  0.8626
  559SOL    HW2 2577   5.449   3.123   4.387  2.5823  0.9605  1.1995
  560SOL     OW 2578   1.816   1.473   3.221 -0.1980  0.5635  0.0198
  560SOL    HW1 2579   1.724   1.439   3.238  0.7723 -2.2863  0.2112
  560SOL    HW2 2580   1.820   1.571   3.241 -2.7698  0.4445  1.5914
  561SOL     OW 2581   6.637   3.898   0.907 -0.0275  0.4373  0.2988
  561SOL    HW1 2582   6.582   3.982   0.909  1.1797  1.2474  0.4722
  561SOL    HW2 2583   6.646   3.863   1.000 -1.5520 -0.5936  0.0855
  562SOL     OW 2584   4.585   4.493   6.590 -0.0069  0.2950 -0.0194
  562SOL    HW1 2585   4.674   4.480   6.546 -0.3427  0.9982 -0.9481
  562SOL    HW2 2586   4.514   4.450   6.535 -0.2857  0.0644  0.5166
  563SOL     OW 2587   0.562   1.675   3.904 -0.1109  0.6448  0.3247
  563SOL    HW1 2588   0.655   1.640   3.918  0.1702  0.8430 -0.9324
  563SOL    HW2 2589   0.567   1.763   3.856 -0.9885 -0.7208 -2.4757
  564SOL     OW 2590   5.876   1.116   6.219 -0.1263  0.7693  0.2869
  564SOL    HW1 2591   5.880   1.164   6.131  1.3716 -0.9978 -0.6847
  564SOL    HW2 2592   5.796   1.056   6.221  1.1578 -1.1365 -1.0500
  565SOL     OW 2593   3.164   3.203   2.792  0.2212 -0.0115 -0.4904
  565SOL    HW1 2594   3.189   3.109   2.768 -0.5762 -0.8993  1.9275
  565SOL    HW2 2595   3.222   3.266   2.741  1.3398 -1.8098 -1.5641
  566SOL     OW 2596   6.404   2.866   3.475 -0.4571 -0.2435  0.5543
  566SOL    HW1 2597   6.439   2.845   3.567 -1.3126 -1.7874  0.5507
  566SOL    HW2 2598   6.440   2.801   3.409 -0.0938  0.6728 -0.1769
  567SOL     OW 2599   1.879   3.935   4.815 -0.2239  0.5834 -0.6717
  567SOL    HW1 2600   1.833   4.010   4.863 -1.2534 -0.4776  0.0677
  567SOL    HW2 2601   1.962   3.910   4.865 -0.1934  0.8293 -0.5955
  568SOL     OW 2602   1.133   5.428   0.310 -0.3867 -0.1844  0.1507
  568SOL    HW1 2603   1.050   5.387   0.350 -0.7417 -1.4025 -1.7130
  568SOL    HW2 2604   1.206   5.360   0.309 -0.4697 -0.2939 -1.4271
  569SOL     OW 2605   4.820   4.606   4.427  0.2958 -0.5336  0.1516
  569SOL    HW1 2606   4.903   4.578   4.380  1.0342  2.5041 -0.5691
  569SOL    HW2 2607   4.740   4.582   4.372  0.8551 -1.3020 -0.3327
  570SOL     OW 2608   1.283   0.853   6.173  0.1993  0.0229  0.1009
  570SOL    HW1 2609   1.362   0.875   6.117  0.4734 -0.4080  0.3122
  570SOL    HW2 2610   1.312   0.804   6.255 -0.3362 -0.6938 -0.1219
  571SOL     OW 2611   1.284   5.343   3.447  0.2531 -0.7279 -0.6034
  571SOL    HW1 2612   1.216   5.276   3.476  0.6857 -0.9365 -0.0554
  571SOL    HW2 2613   1.247   5.398   3.372 -0.5445 -0.7934 -0.2653
  572SOL     OW 2614   2.719   2.063   4.879  0.2478 -0.2336  0.2472
  572SOL    HW1 2615   2.694   2.150   4.837 -3.0750 -1.8923 -1.6027
  572SOL    HW2 2616   2.715   2.072   4.978  0.2762  1.7940  0.1051
  573SOL     OW 2617   6.154   6.976   6.037 -0.2990  0.5434  0.2935
  573SOL    HW1 2618   6.196   6.911   6.101 -0.0886  1.6354  1.2996
  573SOL    HW2 2619   6.225   7.017   5.980 -0.2894  0.7610  0.4647
  574SOL     OW 2620   3.410   1.354   6.587  0.3345  0.1100  0.2997
  574SOL    HW1 2621   3.473   1.419   6.545  0.6274  0.1823  0.8403
  574SOL    HW2 2622   3.320   1.396   6.598  0.1592 -0.0310 -0.5800
  575SOL     OW 2623   6.327   5.148   6.319 -0.9065 -0.0400 -0.0833
  575SOL    HW1 2624   6.367   5.231   6.358 -1.0971  0.2640 -0.5198
  575SOL    HW2 2625   6.252   5.117   6.377  1.0069 -1.6260  1.7263
  576SOL     OW 2626   4.927   2.545   3.937 -0.4107  0.0257 -1.0883
  576SOL    HW1 2627   4.857   2.614   3.917  1.4413  2.3151 -0.1644
  576SOL    HW2 2628   4.943   2.488   3.857 -0.8942  1.7173 -2.4299
  577SOL     OW 2629   6.077   6.392   1.947  0.0841  0.3300 -0.3227
  577SOL    HW1 2630   6.081   6.344   1.859  0.3042 -1.9561  0.8578
  577SOL    HW2 2631   5.983   6.394   1.980  0.1474  0.2724 -0.1384
  578SOL     OW 2632   3.215   0.724   0.159 -0.3934 -0.3487 -0.1466
  578SOL    HW1 2633   3.133   0.778   0.176  0.1366  1.1466 -1.9614
  578SOL    HW2 2634   3.285   0.782   0.117  0.1683 -2.4623 -2.3554
  579SOL     OW 2635   5.814   4.589   0.599  0.1250  0.1682 -0.4711
  579SOL    HW1 2636   5.780   4.656   0.665  0.3390  0.3178 -0.5106
  579SOL    HW2 2637   5.737   4.539   0.559  0.0348 -0.4951  0.4999
  580SOL     OW 2638   6.137   4.985   4.404  0.1916 -0.4529 -0.2704
  580SOL    HW1 2639   6.167   5.079   4.391 -1.9089  0.3123  0.1286
  580SOL    HW2 2640   6.124   4.942   4.315  0.2688 -0.0736 -0.4667
  581SOL     OW 2641   2.831   2.199   3.659  0.4625 -0.4309  0.2674
  581SOL    HW1 2642   2.930   2.197   3.646  0.4405 -1.2190  0.1983
  581SOL    HW2 2643   2.798   2.108   3.682 -0.4372 -0.4772 -1.0863
  582SOL     OW 2644   6.002   5.487   4.936 -0.4907  0.0434  0.0229
  582SOL    HW1 2645   6.066   5.446   4.871  0.4560 -0.3743  1.1593
  582SOL    HW2 2646   6.050   5.502   5.023 -1.6129  0.9214  0.5055
  583SOL     OW 2647   3.949   5.867   4.541 -0.0195 -0.6728  0.7286
  583SOL    HW1 2648   3.939   5.882   4.443  0.6170 -0.7454  0.6487
  583SOL    HW2 2649   4.044   5.882   4.567 -0.5585  1.5289  1.6992
  584SOL     OW 2650   3.589   0.590   4.929 -0.1472 -0.1882  0.3852
  584SOL    HW1 2651   3.508   0.564   4.877  0.2800 -0.1176 -0.3405
  584SOL    HW2 2652   3.589   0.544   5.018  0.4124 -2.4611 -0.7038
  585SOL     OW 2653   3.916   6.292   1.937 -0.0383 -0.0948 -0.4834
  585SOL    HW1 2654   3.922   6.373   1.994 -0.6148  0.4609 -1.1862
  585SOL    HW2 2655   3.983   6.298   1.863  0.1956 -0.4507 -0.3019
  586SOL     OW 2656   3.704   0.050   6.808  0.1279 -0.2952 -0.6581
  586SOL    HW1 2657   3.731   0.099   6.892 -0.7789  0.0423 -0.5539
  586SOL    HW2 2658   3.605   0.037   6.808  0.2347 -1.1333 -1.2381
  587SOL     OW 2659   3.614   6.656   1.269  0.6696  0.4540 -0.3995
  587SOL    HW1 2660   3.619   6.680   1.172  0.9310  0.6384 -0.3409
  587SOL    HW2 2661   3.699   6.682   1.315  0.0091  1.6691  0.1775
  588SOL     OW 2662   3.044   4.984   1.061 -0.5465  0.1958  0.0150
  588SOL    HW1 2663   3.124   4.933   1.027  0.0342  1.1317 -0.0680
  588SOL    HW2 2664   2.960   4.941   1.028 -0.0270  0.4405 -1.7516
  589SOL     OW 2665   2.198   3.902   5.566  0.0561  0.1402 -0.9098
  589SOL    HW1 2666   2.275   3.867   5.514  1.3544  2.1875 -0.4730
  589SOL    HW2 2667   2.162   3.830   5.626  2.2135 -0.6251 -0.4589
  590SOL     OW 2668   6.519   0.096   6.499  0.2318  0.2547  0.4521
  590SOL    HW1 2669   6.616   0.079   6.481  0.6162  3.0174 -0.6217
  590SOL    HW2 2670   6.509   0.140   6.588 -0.1851 -0.9815  1.0327
  591SOL     OW 2671   2.723   6.350   2.563 -0.0727 -0.4967 -0.0508
  591SOL    HW1 2672   2.668   6.267   2.574 -0.0988 -0.4658  0.0540
  591SOL    HW2 2673   2.665   6.430   2.578 -0.0836 -0.4556 -0.3084
  592SOL     OW 2674   6.557   1.396   4.122  0.3005  0.3089 -0.0130
  592SOL    HW1 2675   6.493   1.357   4.188  0.2799 -0.1559 -0.2988
  592SOL    HW2 2676   6.570   1.493   4.141 -0.2867  0.3480  0.2089
  593SOL     OW 2677   0.751   5.750   5.998 -0.8297  0.2277 -0.1659
  593SOL    HW1 2678   0.725   5.657   6.024 -4.5476  0.9028 -1.0299
  593SOL    HW2 2679   0.792   5.748   5.907 -1.1578 -0.4987 -0.3061
  594SOL     OW 2680   2.587   6.214   4.916  0.0844  0.2680  0.0907
  594SOL    HW1 2681   2.492   6.194   4.894 -0.2031  1.1020  0.5429
  594SOL    HW2 2682   2.613   6.166   5.000 -0.1841  0.6877  0.4142
  595SOL     OW 2683   6.476   2.310   2.780 -0.1099  0.4832 -0.7631
  595SOL    HW1 2684   6.556   2.352   2.738  0.9182 -0.1660  0.4691
  595SOL    HW2 2685   6.501   2.220   2.817 -1.2075  0.6204  0.3786
  596SOL     OW 2686   6.407   3.860   0.748 -0.0042 -0.5122  0.3179
  596SOL    HW1 2687   6.358   3.787   0.795 -1.5056  1.5095  2.0833
  596SOL    HW2 2688   6.468   3.906   0.812 -2.1395  2.3552  0.4780
  597SOL     OW 2689   5.587   2.379   0.934  0.2420 -0.2547  0.1976
  597SOL    HW1 2690   5.626   2.288   0.925 -1.1329 -0.8541  0.1676
  597SOL    HW2 2691   5.492   2.378   0.906  0.6294  1.5679 -1.4102
  598SOL     OW 2692   2.962   3.274   2.455 -0.5258 -0.2904  0.0924
  598SOL    HW1 2693   2.929   3.358   2.413 -0.9016  0.5891  2.0521
  598SOL    HW2 2694   2.914   3.259   2.541 -0.3087 -2.4164 -0.0976
  599SOL     OW 2695   0.892   5.668   1.114  0.0652 -0.1084 -0.4194
  599SOL    HW1 2696   0.888   5.618   1.200 -1.6317  1.1784  0.3072
  599SOL    HW2 2697   0.946   5.616   1.048 -0.2530 -2.0855  0.7895
  600SOL     OW 2698   1.755   5.900   6.170  0.5149 -0.1383 -0.2917
  600SOL    HW1 2699   1.724   5.814   6.211 -0.1510 -0.4433 -1.4061
  600SOL    HW2 2700   1.832   5.935   6.223  1.1889 -1.7188 -0.1564
  601SOL     OW 2701   4.799   6.807   5.790  0.5289 -0.0399 -0.6520
  601SOL    HW1 2702   4.812   6.767   5.700  0.8722  0.0444 -0.6419
  601SOL    HW2 2703   4.730   6.880   5.785 -0.6131 -1.0862 -0.5347
  602SOL     OW 2704   0.170   0.850   3.856  0.2595 -0.1918 -0.1453
  602SOL    HW1 2705   0.177   0.843   3.757  0.5374 -2.3252 -0.0119
  602SOL    HW2 2706   0.186   0.945   3.884 -1.1621  0.7375 -2.2139
  603SOL     OW 2707   1.553   0.909   3.964  0.0788 -0.2337 -0.7038
  603SOL    HW1 2708   1.462   0.873   3.942 -0.3193  0.2904  0.0639
  603SOL    HW2 2709   1.607   0.915   3.880 -0.8431  0.1613 -1.2826
  604SOL     OW 2710   4.934   2.730   2.967  0.3103 -0.3809  0.1941
  604SOL    HW1 2711   4.867   2.723   3.041  0.4172 -1.8364  0.1789
  604SOL    HW2 2712   4.904   2.799   2.901 -1.2777 -1.1472  0.0768
  605SOL     OW 2713   6.965   5.725   2.975  0.2536  0.3947  1.0426
  605SOL    HW1 2714   6.960   5.669   3.058  1.9188 -2.3594 -0.5579
  605SOL    HW2 2715   6.915   5.679   2.901  0.8797  1.5052 -0.1046
  606SOL     OW 2716   2.254   0.345   3.435 -0.0491  0.5290  0.8004
  606SOL    HW1 2717   2.220   0.417   3.375  0.6319 -0.3862 -0.7409
  606SOL    HW2 2718   2.182   0.319   3.501 -0.9063  1.3758  0.2192
  607SOL     OW 2719   1.337   3.065   5.856  0.6373  0.4337 -0.1887
  607SOL    HW1 2720   1.380   3.054   5.945 -0.9598 -0.9976  0.4438
  607SOL    HW2 2721   1.397   3.027   5.785  1.0635 -0.1596  0.4850
  608SOL     OW 2722   2.013   0.677   5.076  0.3090  0.7935 -0.5680
  608SOL    HW1 2723   2.043   0.707   4.985 -0.9999  2.0130 -0.6411
  608SOL    HW2 2724   1.942   0.739   5.109 -0.6438 -0.7756  0.4551
  609SOL     OW 2725   5.049   3.765   1.334 -0.4600  0.4169 -0.5358
  609SOL    HW1 2726   4.996   3.844   1.301 -0.3116  2.0552  2.7993
  609SOL    HW2 2727   4.989   3.705   1.387  0.2736  0.5179  0.4309
  610SOL     OW 2728   6.664   1.858   2.920  0.2847  0.1079  0.1881
  610SOL    HW1 2729   6.740   1.794   2.926 -0.6593 -1.0161  0.8155
  610SOL    HW2 2730   6.585   1.820   2.970 -1.3619  0.2379 -2.1516
  611SOL     OW 2731   3.798   1.516   6.714  0.4352  0.3926 -0.1453
  611SOL    HW1 2732   3.755   1.603   6.740 -1.2586 -0.2315 -0.6715
  611SOL    HW2 2733   3.820   1.518   6.616 -1.4651 -0.4211 -0.6505
  612SOL     OW 2734   4.837   6.588   4.765  0.4063  0.1790  0.0578
  612SOL    HW1 2735   4.902   6.635   4.825  0.6381 -0.6728  0.4933
  612SOL    HW2 2736   4.751   6.575   4.813  0.5965 -0.5155  0.2206
  613SOL     OW 2737   4.750   6.621   6.978 -0.2487 -0.3875  0.1017
  613SOL    HW1 2738   4.789   6.693   7.035  0.5057  0.5098 -1.4948
  613SOL    HW2 2739   4.663   6.651   6.941 -0.2150 -0.5369 -0.0986
  614SOL     OW 2740   3.450   6.115   5.749 -0.3854  0.3814  0.1101
  614SOL    HW1 2741   3.460   6.212   5.771  0.2285  0.7125 -1.4747
  614SOL    HW2 2742   3.357   6.098   5.717 -0.8006  0.2193  1.3546
  615SOL     OW 2743   1.199   5.454   5.193  0.6656  0.3124  0.0672
  615SOL    HW1 2744   1.102   5.435   5.187  0.5602  0.2702  1.5639
  615SOL    HW2 2745   1.251   5.369   5.186  0.4596  0.0425  1.5214
  616SOL     OW 2746   6.441   2.161   4.242  0.7396 -0.0587  0.3976
  616SOL    HW1 2747   6.374   2.160   4.316 -0.3750 -0.3516 -0.5888
  616SOL    HW2 2748   6.395   2.143   4.155  2.0338  0.2088 -0.3652
  617SOL     OW 2749   4.129   1.580   7.011  0.3980 -0.2984 -0.5474
  617SOL    HW1 2750   4.143   1.675   6.983 -0.7476  0.3437  0.9031
  617SOL    HW2 2751   4.071   1.534   6.944  1.2403 -0.1047 -1.4384
  618SOL     OW 2752   0.522   6.402   1.505 -0.4894 -0.7251 -0.6785
  618SOL    HW1 2753   0.430   6.432   1.528  0.2748 -0.8897  3.2416
  618SOL    HW2 2754   0.520   6.307   1.473 -1.6143 -0.9852  0.1114
  619SOL     OW 2755   0.024   3.050   6.989 -0.0609 -0.0926 -0.0929
  619SOL    HW1 2756   0.058   3.070   7.081  0.9422 -0.1028 -0.4539
  619SOL    HW2 2757   0.052   2.958   6.961  1.3599  0.6121 -1.1530
  620SOL     OW 2758   6.113   3.664   0.179 -0.1088  0.7073 -0.1946
  620SOL    HW1 2759   6.170   3.609   0.118  2.0502  2.4097  0.1423
  620SOL    HW2 2760   6.140   3.647   0.274 -1.3837  0.2856  0.1072
  621SOL     OW 2761   6.952   5.985   2.415 -0.1092  0.4246 -0.2620
  621SOL    HW1 2762   6.867   5.938   2.435  0.0302  0.2241 -0.1353
  621SOL    HW2 2763   6.999   5.937   2.340 -1.2083  1.8573 -1.9482
  622SOL     OW 2764   1.390   3.750   1.435 -0.7275  0.2451  0.5557
  622SOL    HW1 2765   1.304   3.711   1.466 -1.4846  1.3064 -0.1461
  622SOL    HW2 2766   1.466   3.707   1.484 -1.8025  1.1416  3.1958
  623SOL     OW 2767   0.163   4.457   6.067 -0.0854  0.1646  0.1217
  623SOL    HW1 2768   0.195   4.544   6.031  1.2496 -0.3260  0.0576
  623SOL    HW2 2769   0.168   4.387   5.995 -0.7871 -0.0541  0.2761
  624SOL     OW 2770   5.333   0.914   1.441 -0.4860  0.3832 -0.5276
  624SOL    HW1 2771   5.294   0.831   1.402 -0.3681  1.6099 -3.4980
  624SOL    HW2 2772   5.420   0.935   1.396  1.6524 -0.0155  3.0261
  625SOL     OW 2773   2.843   0.814   6.819  0.3341  0.0309 -0.1887
  625SOL    HW1 2774   2.763   0.754   6.822 -0.1640  0.7410  1.0787
  625SOL    HW2 2775   2.844   0.874   6.899  3.1682 -1.2885  0.9355
  626SOL     OW 2776   3.188   4.653   5.682  0.4985  0.3594 -0.0742
  626SOL    HW1 2777   3.275   4.605   5.674  0.0659 -0.4611  0.0132
  626SOL    HW2 2778   3.173   4.680   5.777  0.0670 -0.6733  0.1704
  627SOL     OW 2779   3.274   4.520   0.440  0.5608 -0.4953  0.3025
  627SOL    HW1 2780   3.199   4.579   0.472 -1.1605 -1.7976 -1.1680
  627SOL    HW2 2781   3.360   4.572   0.444 -0.9398  2.4239 -1.5900
  628SOL     OW 2782   5.725   3.126   2.959 -0.2260 -0.3718  0.0956
  628SOL    HW1 2783   5.724   3.127   3.059  1.6806  0.0958  0.1464
  628SOL    HW2 2784   5.707   3.218   2.925  1.6661  0.0339  0.1059
  629SOL     OW 2785   1.541   6.151   4.044 -0.5932  0.1301  0.0199
  629SOL    HW1 2786   1.528   6.075   4.108  0.6448  0.0717  0.2384
  629SOL    HW2 2787   1.558   6.235   4.096 -0.5426  0.2694 -0.2214
  630SOL     OW 2788   3.838   0.878   2.703 -0.0311  0.4758 -0.3313
  630SOL    HW1 2789   3.869   0.822   2.780 -2.7131  1.0894  1.3175
  630SOL    HW2 2790   3.906   0.949   2.684  1.0660 -0.1935  0.9237
  631SOL     OW 2791   4.286   0.356   3.949 -0.0201  0.4148 -0.0012
  631SOL    HW1 2792   4.254   0.278   3.895  0.2444  1.0469 -1.1060
  631SOL    HW2 2793   4.338   0.323   4.028 -1.3929 -0.5584  0.5281
  632SOL     OW 2794   3.746   2.785   1.515  0.0333  0.4990 -0.0826
  632SOL    HW1 2795   3.807   2.803   1.592  0.1448 -1.2815  0.3077
  632SOL    HW2 2796   3.653   2.816   1.538  0.2403  0.7447  0.4368
  633SOL     OW 2797   3.752   6.373   3.453  0.0059  0.3040 -0.0421
  633SOL    HW1 2798   3.691   6.354   3.377  0.3868  2.3348 -0.9137
  633SOL    HW2 2799   3.843   6.395   3.418  0.6849 -0.5380  1.1181
  634SOL     OW 2800   2.207   5.008   1.527  0.0526 -0.0245  0.0971
  634SOL    HW1 2801   2.303   5.033   1.543  0.0527  0.9761 -1.2129
  634SOL    HW2 2802   2.164   4.982   1.613  1.9190 -2.1255  0.5036
  635SOL     OW 2803   2.445   0.865   1.292 -0.7750 -0.9780  0.4746
  635SOL    HW1 2804   2.478   0.795   1.356  1.0608  0.1902  0.9078
  635SOL    HW2 2805   2.356   0.899   1.323 -1.7622 -3.1318  0.1949
  636SOL     OW 2806   5.192   5.713   5.824 -0.1484  0.4529 -0.0859
  636SOL    HW1 2807   5.189   5.750   5.917 -0.7537  1.8731 -0.6306
  636SOL    HW2 2808   5.151   5.779   5.761 -0.8083 -0.9705 -1.2106
  637SOL     OW 2809   5.658   3.611   5.526 -0.3818 -0.2243  0.0522
  637SOL    HW1 2810   5.617   3.638   5.439 -0.1565  0.0005  0.0135
  637SOL    HW2 2811   5.586   3.595   5.593 -0.6749 -2.2263 -0.6734
  638SOL     OW 2812   5.312   1.186   4.537  0.2918  0.0962 -0.4954
  638SOL    HW1 2813   5.372   1.107   4.524  0.0450 -0.2596  0.4800
  638SOL    HW2 2814   5.344   1.262   4.480  1.8670  0.0161  0.2497
  639SOL     OW 2815   3.999   3.182   1.469  0.1157  0.0787 -0.1252
  639SOL    HW1 2816   4.017   3.102   1.413 -0.7808 -0.5541  0.4803
  639SOL    HW2 2817   3.924   3.164   1.532  0.5783  1.0398  0.7470
  640SOL     OW 2818   3.093   3.705   5.905 -0.1664  0.3044 -0.3449
  640SOL    HW1 2819   3.013   3.741   5.951  1.5249  2.6217  1.0039
  640SOL    HW2 2820   3.111   3.758   5.822  1.0146  1.1016  0.3926
  641SOL     OW 2821   1.198   0.378   0.489  0.2358  0.4433  0.0323
  641SOL    HW1 2822   1.178   0.291   0.444  0.7263  0.8466 -1.0035
  641SOL    HW2 2823   1.114   0.432   0.497  0.0422  0.1305  0.1243
  642SOL     OW 2824   2.697   4.819   0.468 -0.2866 -0.0321 -0.0394
  642SOL    HW1 2825   2.676   4.904   0.420  1.3457 -0.5951 -1.8749
  642SOL    HW2 2826   2.621   4.755   0.455 -0.2031  0.0961 -1.2519
  643SOL     OW 2827   6.423   0.394   5.443 -0.2153  0.4018 -0.7902
  643SOL    HW1 2828   6.330   0.356   5.438 -0.1446 -0.0219  0.6557
  643SOL    HW2 2829   6.483   0.330   5.491  0.5941  1.1127 -0.8189
  644SOL     OW 2830   3.988   4.392   1.389 -0.6612 -0.2622 -0.4133
  644SOL    HW1 2831   4.005   4.314   1.328 -1.7578 -0.5106 -0.4198
  644SOL    HW2 2832   4.014   4.366   1.482  0.7526  0.0233 -0.7057
  645SOL     OW 2833   1.061   2.339   3.796  0.3543 -0.2607  0.0172
  645SOL    HW1 2834   1.144   2.285   3.807 -0.3969 -1.2854  0.8622
  645SOL    HW2 2835   1.034   2.377   3.884  0.2347  0.5390 -0.3598
  646SOL     OW 2836   6.747   3.092   4.446  0.2083  0.3757  0.0045
  646SOL    HW1 2837   6.659   3.141   4.446  0.8363  1.5579 -0.6345
  646SOL    HW2 2838   6.793   3.107   4.359 -0.8804 -3.9174 -1.5362
  647SOL     OW 2839   6.177   5.960   6.152  0.1911 -0.5116  0.3923
  647SOL    HW1 2840   6.186   6.057   6.130 -0.9235 -0.3350  0.6581
  647SOL    HW2 2841   6.268   5.919   6.159  0.6931  0.6416  0.8578
  648SOL     OW 2842   5.760   1.503   3.803 -0.3418 -0.5810  0.2239
  648SOL    HW1 2843   5.773   1.406   3.783  0.7951 -0.3116 -0.4448
  648SOL    HW2 2844   5.673   1.534   3.764  0.3386 -0.8248 -1.5994
  649SOL     OW 2845   5.657   4.815   0.563 -0.0786 -0.4387 -0.0749
  649SOL    HW1 2846   5.645   4.883   0.491  1.6938 -1.0786 -1.0558
  649SOL    HW2 2847   5.575   4.759   0.571 -1.7685  2.0534  1.0912
  650SOL     OW 2848   5.765   5.457   0.126 -0.3854  0.1345  0.4966
  650SOL    HW1 2849   5.811   5.447   0.038  0.7324  1.0463  0.9646
  650SOL    HW2 2850   5.758   5.367   0.170  0.1698 -0.1379  0.0429
  651SOL     OW 2851   1.668   5.928   6.734  0.4845  0.5482  0.2117
  651SOL    HW1 2852   1.690   6.025   6.725  0.3936  0.5597  0.1060
  651SOL    HW2 2853   1.639   5.909   6.827  0.6995  0.5824  0.2864
  652SOL     OW 2854   4.669   1.886   2.404  0.1398 -0.4242 -0.3376
  652SOL    HW1 2855   4.705   1.975   2.377 -0.6424  0.0971  0.3042
  652SOL    HW2 2856   4.653   1.831   2.322  0.3435  0.1417 -0.7647
  653SOL     OW 2857   4.818   5.646   3.221 -0.7151 -0.1777  0.5208
  653SOL    HW1 2858   4.890   5.600   3.169 -1.6029 -2.5614  1.2909
  653SOL    HW2 2859   4.857   5.723   3.271  0.4656  1.2699 -2.3542
  654SOL     OW 2860   4.945   3.542   0.154 -0.2823 -0.0157  0.2557
  654SOL    HW1 2861   5.000   3.478   0.208  0.8413  1.9638  1.5700
  654SOL    HW2 2862   4.870   3.577   0.210 -0.5983  0.1774 -0.2843
  655SOL     OW 2863   1.219   2.745   3.227  0.2384  0.2541 -0.0187
  655SOL    HW1 2864   1.240   2.769   3.132 -2.7894 -1.1290 -1.1662
  655SOL    HW2 2865   1.154   2.812   3.264  1.1240  0.5797  0.9998
  656SOL     OW 2866   2.444   5.631   6.762  0.0525 -0.2899  0.4422
  656SOL    HW1 2867   2.390   5.626   6.847 -0.1524 -2.5869  0.2374
  656SOL    HW2 2868   2.541   5.619   6.784 -0.1269 -2.4316  0.2813
  657SOL     OW 2869   3.191   0.117   6.823  0.2129  0.2070  0.4299
  657SOL    HW1 2870   3.165   0.133   6.728  1.2431 -2.5767 -0.4344
  657SOL    HW2 2871   3.291   0.114   6.830  0.1614  1.0688  1.7569
  658SOL     OW 2872   4.737   4.727   1.495 -0.0972  1.1062 -0.5710
  658SOL    HW1 2873   4.646   4.744   1.533  0.9547  1.6429  1.8997
  658SOL    HW2 2874   4.757   4.629   1.499  0.4365  1.2456  1.5495
  659SOL     OW 2875   2.208   0.867   5.914  0.5228  0.1006  0.1132
  659SOL    HW1 2876   2.246   0.957   5.891  0.7198 -0.0942 -0.3109
  659SOL    HW2 2877   2.220   0.804   5.838 -1.0826  0.1656 -0.2265
  660SOL     OW 2878   2.964   6.086   3.286  0.0751 -0.1918  0.4074
  660SOL    HW1 2879   2.973   6.036   3.199  2.5483 -1.5587  1.3555
  660SOL    HW2 2880   3.016   6.172   3.280 -0.9301  0.4135  0.1007
  661SOL     OW 2881   1.384   4.878   1.745 -0.6988 -0.4826  0.4218
  661SOL    HW1 2882   1.386   4.945   1.670 -0.9420  1.0572  1.7440
  661SOL    HW2 2883   1.429   4.916   1.825 -0.1253 -2.2470  0.9901
  662SOL     OW 2884   5.711   2.749   0.980  0.0845  0.2361 -0.0837
  662SOL    HW1 2885   5.744   2.828   1.032  0.1569  0.1245  0.0420
  662SOL    HW2 2886   5.701   2.670   1.042  1.3926 -0.2515 -0.4748
  663SOL     OW 2887   0.452   3.272   4.781  0.1762  0.5704 -0.2004
  663SOL    HW1 2888   0.540   3.315   4.761  1.1490 -1.2503 -0.0935
  663SOL    HW2 2889   0.460   3.217   4.864 -0.9446  0.0148 -0.4409
  664SOL     OW 2890   4.720   0.368   6.637  0.0784  0.2458 -0.0992
  664SOL    HW1 2891   4.649   0.437   6.620 -0.7273  0.3909  3.2892
  664SOL    HW2 2892   4.686   0.301   6.702  1.7566 -2.0074 -1.4022
  665SOL     OW 2893   1.380   5.217   2.602 -0.2155  0.0353 -1.0588
  665SOL    HW1 2894   1.469   5.186   2.568  0.5100  2.6753 -1.8462
  665SOL    HW2 2895   1.308   5.164   2.558  0.9146 -1.2768 -1.4297
  666SOL     OW 2896   3.902   0.539   3.466  0.3661 -0.6590  0.3042
  666SOL    HW1 2897   3.983   0.591   3.495  0.8093  0.0273 -1.9774
  666SOL    HW2 2898   3.821   0.596   3.476  0.5073 -0.4369  0.1947
  667SOL     OW 2899   6.149   0.517   2.221 -0.2307  0.5653  0.1906
  667SOL    HW1 2900   6.224   0.579   2.200 -1.1870  1.3350 -1.1088
  667SOL    HW2 2901   6.066   0.569   2.240 -1.1070 -0.2639 -1.1442
  668SOL     OW 2902   4.760   3.754   0.827 -0.0780 -0.2711 -0.0383
  668SOL    HW1 2903   4.724   3.683   0.767 -2.4764  0.9636 -0.1491
  668SOL    HW2 2904   4.725   3.742   0.920 -1.3678  1.2889 -0.2735
  669SOL     OW 2905   5.393   1.250   2.658 -0.4349  0.3430  0.4528
  669SOL    HW1 2906   5.347   1.185   2.718  0.1833 -0.4819  0.0510
  669SOL    HW2 2907   5.464   1.299   2.709  1.2944 -1.5983  0.0487
  670SOL     OW 2908   1.596   1.442   1.452 -0.7529  0.1512 -0.4142
  670SOL    HW1 2909   1.635   1.530   1.425 -2.0760  0.7037 -0.6287
  670SOL    HW2 2910   1.583   1.385   1.371  2.4798 -1.3240 -0.0255
  671SOL     OW 2911   6.003   5.417   0.657 -0.3669 -0.1632  0.5208
  671SOL    HW1 2912   5.911   5.379   0.664 -0.5085  0.2362  0.8138
  671SOL    HW2 2913   5.999   5.516   0.667 -0.0015 -0.0603 -0.2865
  672SOL     OW 2914   5.788   6.334   1.487 -0.1252  0.6318  0.2012
  672SOL    HW1 2915   5.888   6.327   1.480 -0.0986  0.6603  0.5557
  672SOL    HW2 2916   5.746   6.269   1.423  0.1189 -0.5260  1.1760
  673SOL     OW 2917   6.848   5.732   5.794 -0.0966 -0.4765 -0.0619
  673SOL    HW1 2918   6.756   5.737   5.754 -0.2671 -2.2458  0.0031
  673SOL    HW2 2919   6.876   5.636   5.799  1.9571  0.0581 -0.4870
  674SOL     OW 2920   4.492   6.396   5.918 -0.1031 -0.0419  0.0982
  674SOL    HW1 2921   4.503   6.316   5.859  1.5136  0.5020 -0.3755
  674SOL    HW2 2922   4.581   6.437   5.936 -0.6587  0.3991  2.1235
  675SOL     OW 2923   0.822   6.736   2.870  0.0492  0.1437 -0.3278
  675SOL    HW1 2924   0.891   6.800   2.903  1.3778 -0.9803 -0.8213
  675SOL    HW2 2925   0.781   6.687   2.948  0.8799 -0.2244 -0.1099
  676SOL     OW 2926   2.893   6.140   6.793 -0.1676  0.1525  0.2404
  676SOL    HW1 2927   2.966   6.191   6.838  0.2427  1.0692 -1.4040
  676SOL    HW2 2928   2.932   6.062   6.744 -0.5703 -0.6008  1.0752
  677SOL     OW 2929   7.002   6.511   1.630 -0.3331  0.0889 -0.0804
  677SOL    HW1 2930   6.951   6.492   1.714 -0.0703 -1.5375 -0.2556
  677SOL    HW2 2931   6.942   6.499   1.551 -0.7068  2.0674 -0.1536
  678SOL     OW 2932   0.579   5.085   4.015 -0.1217 -0.0742  0.0231
  678SOL    HW1 2933   0.671   5.061   4.046 -0.6118  0.2877  1.9165
  678SOL    HW2 2934   0.515   5.079   4.092 -1.1515  2.5153 -0.4970
  679SOL     OW 2935   3.787   0.829   0.292  0.4297 -0.1324 -0.6907
  679SOL    HW1 2936   3.871   0.864   0.251  2.7559 -0.1147  3.5426
  679SOL    HW2 2937   3.769   0.737   0.257  1.5235  0.2848 -2.5044
  680SOL     OW 2938   6.401   0.582   3.199 -0.2326 -0.3310  0.2446
  680SOL    HW1 2939   6.306   0.550   3.196 -0.0305 -0.8961 -0.2379
  680SOL    HW2 2940   6.444   0.551   3.284 -0.7231  0.6462  0.8662
  681SOL     OW 2941   6.113   4.536   3.648  0.2587  0.5128  0.0948
  681SOL    HW1 2942   6.093   4.536   3.746  1.6384 -0.2333  0.3950
  681SOL    HW2 2943   6.211   4.522   3.633  0.0522  0.4502 -1.3974
  682SOL     OW 2944   6.523   2.036   2.793 -0.1190  0.1354 -0.2068
  682SOL    HW1 2945   6.449   2.039   2.860 -0.1209  2.4714 -0.2042
  682SOL    HW2 2946   6.586   1.962   2.815 -0.2891  0.6268  2.2250
  683SOL     OW 2947   3.520   6.185   6.248 -0.0229 -0.2070  0.4457
  683SOL    HW1 2948   3.498   6.100   6.201  1.6180  0.1059 -0.9957
  683SOL    HW2 2949   3.619   6.200   6.247  0.0502  0.2050  3.4366
  684SOL     OW 2950   5.208   2.498   5.366  0.8794 -0.1036  0.0603
  684SOL    HW1 2951   5.296   2.509   5.318  0.0099 -0.0318 -1.6055
  684SOL    HW2 2952   5.157   2.583   5.360  0.2299 -0.4945  0.0165
  685SOL     OW 2953   2.663   5.897   2.621 -0.3499  0.4243 -0.1031
  685SOL    HW1 2954   2.622   5.965   2.559  1.8769  2.9537  1.0248
  685SOL    HW2 2955   2.669   5.936   2.713 -0.5995 -2.0470  1.0300
  686SOL     OW 2956   3.099   0.754   2.701  0.3905  0.3830  0.2209
  686SOL    HW1 2957   3.026   0.779   2.765  0.3148 -1.4077  0.8877
  686SOL    HW2 2958   3.178   0.720   2.753  0.8533  0.1837 -0.5996
  687SOL     OW 2959   2.055   5.493   3.234 -0.5291  0.4827  0.3133
  687SOL    HW1 2960   2.089   5.547   3.157  1.7999  2.3011  2.4488
  687SOL    HW2 2961   2.050   5.397   3.207 -2.5602  1.3364 -2.9071
  688SOL     OW 2962   5.492   4.209   0.553  0.0366 -0.7273  0.9194
  688SOL    HW1 2963   5.508   4.150   0.474 -0.2292 -0.7050  0.8479
  688SOL    HW2 2964   5.578   4.221   0.604  0.3700 -0.1708  0.2426
  689SOL     OW 2965   1.678   0.258   0.768  0.6953 -0.4398  0.1363
  689SOL    HW1 2966   1.659   0.212   0.681  2.6448  0.0897 -0.6066
  689SOL    HW2 2967   1.774   0.244   0.793  0.7656  1.3792  1.0128
  690SOL     OW 2968   5.293   3.800   4.318 -0.0523 -0.0153  0.4019
  690SOL    HW1 2969   5.218   3.823   4.257  0.1517  0.7937  0.4386
  690SOL    HW2 2970   5.311   3.877   4.379 -1.1317 -1.2753  2.4109
  691SOL     OW 2971   0.379   0.220   3.566 -0.1086 -0.2454  0.0434
  691SOL    HW1 2972   0.352   0.158   3.492  2.1983 -1.0452 -0.2131
  691SOL    HW2 2973   0.360   0.177   3.654  1.2421 -1.2898 -0.1310
  692SOL     OW 2974   1.746   0.747   4.870 -0.0060 -0.3305 -0.0842
  692SOL    HW1 2975   1.704   0.796   4.946  0.7659  0.4259 -0.1297
  692SOL    HW2 2976   1.737   0.649   4.884 -2.1979 -0.2180 -0.3304
  693SOL     OW 2977   6.561   3.308   2.146  0.0640  0.0822  0.0718
  693SOL    HW1 2978   6.649   3.262   2.148 -0.2990 -0.6112  1.4795
  693SOL    HW2 2979   6.488   3.241   2.159 -0.7339  0.5814 -1.4582
  694SOL     OW 2980   3.191   5.131   3.813 -0.0177 -0.0173  0.2182
  694SOL    HW1 2981   3.192   5.041   3.769 -1.5482 -0.7986  1.6409
  694SOL    HW2 2982   3.096   5.161   3.824  0.4778  2.4271 -1.4157
  695SOL     OW 2983   5.581   6.950   4.663  0.2100 -0.1689  0.5721
  695SOL    HW1 2984   5.551   6.997   4.580  0.2501 -0.2272  0.5245
  695SOL    HW2 2985   5.621   6.862   4.638 -2.4519 -1.5714  0.8323
  696SOL     OW 2986   6.380   4.398   5.533 -0.2961  0.3265 -0.0928
  696SOL    HW1 2987   6.461   4.362   5.578 -1.0711 -2.0177 -0.4186
  696SOL    HW2 2988   6.300   4.385   5.592 -0.9121 -0.3410 -1.0379
  697SOL     OW 2989   1.623   1.565   1.742 -0.1869  0.0449 -0.4477
  697SOL    HW1 2990   1.694   1.603   1.683  1.3109 -0.1718  1.1336
  697SOL    HW2 2991   1.577   1.490   1.695  0.2690  0.5230 -1.6978
  698SOL     OW 2992   5.331   0.403   4.429 -0.0908 -0.0980 -0.5268
  698SOL    HW1 2993   5.318   0.358   4.517 -2.7397  0.7884 -0.3751
  698SOL    HW2 2994   5.342   0.501   4.444  1.4717 -0.1625 -1.1005
  699SOL     OW 2995   4.090   3.983   0.181 -0.0274 -0.0296  0.3820
  699SOL    HW1 2996   4.008   3.926   0.178 -0.0911  0.0593  0.4108
  699SOL    HW2 2997   4.147   3.964   0.101 -0.2684  0.1929  0.1541
  700SOL     OW 2998   3.721   1.320   2.720  0.2452 -0.1455 -0.7772
  700SOL    HW1 2999   3.770   1.306   2.806 -2.6928 -0.4915  0.9521
  700SOL    HW2 3000   3.758   1.401   2.674  1.9307  0.0136  0.7503
  701SOL     OW 3001   4.113   4.148   1.259  0.0437  0.1201  0.1077
  701SOL    HW1 3002   4.112   4.091   1.341 -2.0517  0.9601  0.7275
  701SOL    HW2 3003   4.187   4.119   1.199 -0.6934 -2.9612  0.5552
  702SOL     OW 3004   4.104   0.816   6.071  0.4724  0.5405  0.3194
  702SOL    HW1 3005   4.029   0.823   6.137 -0.4252 -1.9591 -0.3181
  702SOL    HW2 3006   4.098   0.892   6.006 -0.9547  0.8989  0.8191
  703SOL     OW 3007   4.868   5.514   0.541 -0.9714 -0.3006  0.5081
  703SOL    HW1 3008   4.825   5.472   0.462 -0.9060 -0.5968  0.6296
  703SOL    HW2 3009   4.921   5.446   0.591 -1.2041 -0.1709  0.9411
  704SOL     OW 3010   4.920   4.703   0.258  0.1956 -0.0125  0.3217
  704SOL    HW1 3011   4.912   4.791   0.212 -1.1088 -0.3748 -0.1791
  704SOL    HW2 3012   4.850   4.695   0.329  1.0192 -0.2076  1.1365
  705SOL     OW 3013   1.131   5.871   6.097 -0.6589  0.1906  0.3802
  705SOL    HW1 3014   1.039   5.898   6.127 -0.8991  0.4037 -0.5065
  705SOL    HW2 3015   1.142   5.895   6.001 -0.4715 -1.8161 -0.1461
  706SOL     OW 3016   3.744   6.262   5.797  0.2092 -0.6656 -0.3690
  706SOL    HW1 3017   3.691   6.347   5.804  0.5665 -0.5495  1.4021
  706SOL    HW2 3018   3.684   6.184   5.811 -0.0788 -0.7167 -1.7721
  707SOL     OW 3019   3.079   5.241   3.202  0.3172  0.3618  0.9122
  707SOL    HW1 3020   3.046   5.203   3.287  0.3711  0.5848  1.0348
  707SOL    HW2 3021   3.175   5.215   3.188 -0.3053 -1.5606 -0.1874
  708SOL     OW 3022   3.470   6.497   3.988 -0.1931 -0.0674  0.1826
  708SOL    HW1 3023   3.476   6.416   3.929  0.9459  1.5100 -1.9782
  708SOL    HW2 3024   3.404   6.479   4.062 -0.9921 -2.4606 -1.0036
  709SOL     OW 3025   2.125   6.832   1.242  0.3403 -0.3420  0.3704
  709SOL    HW1 3026   2.026   6.840   1.226  0.2995 -1.4201  0.0035
  709SOL    HW2 3027   2.161   6.921   1.270 -0.8964 -0.1476  1.4590
  710SOL     OW 3028   4.819   2.967   3.223 -0.1124  0.1721 -0.1896
  710SOL    HW1 3029   4.768   2.881   3.222  0.8048 -0.3876 -0.1540
  710SOL    HW2 3030   4.808   3.011   3.312 -1.0627  0.3893 -0.4100
  711SOL     OW 3031   5.393   2.390   1.734  0.2260 -0.0266  0.0161
  711SOL    HW1 3032   5.409   2.473   1.786 -1.9474  0.8220 -0.5376
  711SOL    HW2 3033   5.415   2.406   1.638 -0.4044  0.0053 -0.1300
  712SOL     OW 3034   4.866   4.898   0.508 -0.2350  0.0422 -0.1080
  712SOL    HW1 3035   4.961   4.885   0.535 -0.7193  1.1047  2.3748
  712SOL    HW2 3036   4.820   4.809   0.501  0.1751 -0.3643  1.8588
  713SOL     OW 3037   2.465   3.940   6.663  0.1425  0.2888  0.2099
  713SOL    HW1 3038   2.561   3.953   6.691 -0.5210  2.1453  1.8136
  713SOL    HW2 3039   2.449   3.988   6.577  0.6104  0.0987  0.0125
  714SOL     OW 3040   1.884   6.048   2.735  0.4485 -0.3520  0.3101
  714SOL    HW1 3041   1.826   6.035   2.655  0.9778  2.1368 -0.5746
  714SOL    HW2 3042   1.832   6.094   2.807  0.8236  0.2864  0.1799
  715SOL     OW 3043   5.137   2.023   4.854  0.0908 -0.8669  0.0188
  715SOL    HW1 3044   5.137   2.014   4.954 -1.2786  0.3193  0.1543
  715SOL    HW2 3045   5.084   2.103   4.828  1.3778 -0.4975 -1.6294
  716SOL     OW 3046   2.982   1.491   3.562 -0.3391 -0.4634 -0.3496
  716SOL    HW1 3047   2.995   1.454   3.470  0.7449  0.9586 -0.8074
  716SOL    HW2 3048   3.053   1.455   3.623 -0.7494 -1.0099 -0.1918
  717SOL     OW 3049   5.620   4.042   4.032  0.0854  0.5753 -0.0291
  717SOL    HW1 3050   5.657   3.989   3.956 -0.4908 -0.3076  0.2969
  717SOL    HW2 3051   5.587   4.130   3.997  0.8718  0.6559 -0.6041
  718SOL     OW 3052   5.611   2.904   5.724  0.0874 -0.1654  0.0023
  718SOL    HW1 3053   5.709   2.918   5.707 -0.5389  3.2014 -1.9682
  718SOL    HW2 3054   5.571   2.990   5.757 -2.2393 -1.4112  0.6215
  719SOL     OW 3055   6.023   6.520   2.541 -0.5505  0.0573 -0.4719
  719SOL    HW1 3056   6.026   6.480   2.633  0.6043  1.5383  0.1717
  719SOL    HW2 3057   6.110   6.565   2.522 -0.3337 -1.2152 -2.7877
  720SOL     OW 3058   4.977   0.732   0.725 -0.2995 -0.2151 -0.0318
  720SOL    HW1 3059   4.977   0.745   0.626  1.8221  1.2631  0.1075
  720SOL    HW2 3060   4.913   0.797   0.767 -1.4915 -1.1049 -0.4277
  721SOL     OW 3061   0.112   3.617   3.362  0.5213  0.1708 -0.1027
  721SOL    HW1 3062   0.026   3.584   3.322  1.5868 -3.2100  0.1111
  721SOL    HW2 3063   0.189   3.588   3.306  1.7597 -0.5810  1.8793
  722SOL     OW 3064   6.282   5.576   2.893  0.2217 -0.2975 -0.1669
  722SOL    HW1 3065   6.291   5.638   2.816  1.9085  0.8566  0.9129
  722SOL    HW2 3066   6.323   5.617   2.975 -0.3205 -2.0362  1.0341
  723SOL     OW 3067   2.991   1.248   5.346 -0.8504  0.1444 -0.6071
  723SOL    HW1 3068   3.083   1.235   5.384 -1.3341 -0.6136  0.3415
  723SOL    HW2 3069   2.990   1.222   5.250  0.5389  2.6202 -1.3807
  724SOL     OW 3070   0.363   2.725   5.540  0.6987 -0.0774  0.2886
  724SOL    HW1 3071   0.343   2.766   5.629  1.9321  0.4778  0.3328
  724SOL    HW2 3072   0.420   2.644   5.553  1.1746  0.2059 -0.0124
  725SOL     OW 3073   0.703   2.713   2.921 -0.3018  0.3923  0.5762
  725SOL    HW1 3074   0.721   2.629   2.971  0.0828  1.0592  1.5924
  725SOL    HW2 3075   0.788   2.763   2.908 -0.7466  1.4321  1.4911
  726SOL     OW 3076   1.727   4.235   1.661 -0.4951 -0.4154 -0.0146
  726SOL    HW1 3077   1.628   4.231   1.677 -0.9719  0.9561 -2.2368
  726SOL    HW2 3078   1.764   4.317   1.704 -0.2204 -1.1211  1.1368
  727SOL     OW 3079   2.794   4.891   4.949  0.3404  0.5310 -0.1864
  727SOL    HW1 3080   2.709   4.940   4.964  1.3183  1.9814  0.9024
  727SOL    HW2 3081   2.792   4.804   4.999 -0.6704  0.3135 -0.5847
  728SOL     OW 3082   6.795   4.468   3.418  0.2037  0.0354  0.8081
  728SOL    HW1 3083   6.871   4.491   3.478 -1.4421  1.2394  2.5243
  728SOL    HW2 3084   6.780   4.369   3.419  2.3153 -0.3653 -0.3759
  729SOL     OW 3085   5.806   5.675   0.917 -0.4993 -0.3568  0.1633
  729SOL    HW1 3086   5.901   5.666   0.947 -0.2712  1.1938 -0.0528
  729SOL    HW2 3087   5.749   5.707   0.992 -0.9706 -1.7421  0.4293
  730SOL     OW 3088   3.924   0.793   5.279 -0.1308 -0.2390 -0.5586
  730SOL    HW1 3089   3.847   0.746   5.321  0.4160 -0.5674  0.1064
  730SOL    HW2 3090   3.910   0.801   5.181 -0.9657 -0.3694 -0.4535
  731SOL     OW 3091   4.338   4.981   4.494 -0.1734 -0.0121 -0.2039
  731SOL    HW1 3092   4.286   4.907   4.537 -3.2395  2.3036  0.4445
  731SOL    HW2 3093   4.398   5.024   4.562 -0.1586 -0.4226  0.0415
  732SOL     OW 3094   4.607   6.707   2.852 -0.4371  0.1996  0.4462
  732SOL    HW1 3095   4.520   6.723   2.898 -0.1533  2.4679  0.3428
  732SOL    HW2 3096   4.592   6.701   2.753 -0.7899 -2.5029  0.6092
  733SOL     OW 3097   0.564   6.696   3.377  0.0757 -0.1957  0.2724
  733SOL    HW1 3098   0.657   6.691   3.414  0.0913 -2.3303  0.0817
  733SOL    HW2 3099   0.507   6.628   3.423 -0.7871 -0.4939 -1.1917
  734SOL     OW 3100   1.430   5.137   4.055  0.0174 -0.1039  0.1564
  734SOL    HW1 3101   1.407   5.139   4.152 -2.0519 -0.4717 -0.2912
  734SOL    HW2 3102   1.347   5.132   4.000  1.1061  0.7828 -1.6867
  735SOL     OW 3103   6.792   6.923   2.687  0.9881 -0.3350  0.0756
  735SOL    HW1 3104   6.873   6.979   2.702  1.2394 -0.5342 -0.5044
  735SOL    HW2 3105   6.819   6.834   2.650  0.6136 -0.9514  1.2377
  736SOL     OW 3106   3.715   0.875   3.682 -0.4299 -0.2598  0.2053
  736SOL    HW1 3107   3.809   0.903   3.702 -0.9552  1.4964  0.3856
  736SOL    HW2 3108   3.662   0.871   3.767 -0.6997 -0.5079  0.0281
  737SOL     OW 3109   3.117   1.575   5.344  0.7612  0.0036 -0.6634
  737SOL    HW1 3110   3.174   1.602   5.266  1.2010 -2.1775 -1.1560
  737SOL    HW2 3111   3.145   1.485   5.376 -1.3705 -0.4369  0.1268
  738SOL     OW 3112   2.927   5.205   5.963  0.2428  0.2671  0.1680
  738SOL    HW1 3113   3.017   5.162   5.953  0.0388  0.0523 -0.8886
  738SOL    HW2 3114   2.860   5.136   5.991  0.2308  0.2179  0.0228
  739SOL     OW 3115   2.887   6.914   4.655  0.0469  0.0766  0.3570
  739SOL    HW1 3116   2.830   6.840   4.690  0.3020 -0.2198  0.1521
  739SOL    HW2 3117   2.972   6.919   4.708  1.0804 -1.2965 -1.0685
  740SOL     OW 3118   5.146   1.758   2.666  0.3298  0.1685 -0.5644
  740SOL    HW1 3119   5.110   1.665   2.662 -0.0765  0.3623 -1.7445
  740SOL    HW2 3120   5.229   1.765   2.611 -0.0382  0.6729 -1.0649
  741SOL     OW 3121   2.787   0.993   2.095  1.0813  0.9064  0.1870
  741SOL    HW1 3122   2.768   1.053   2.173  1.7535  1.3137  0.0493
  741SOL    HW2 3123   2.886   0.979   2.087  0.8724 -1.1073  0.8519
  742SOL     OW 3124   3.122   0.089   1.851  0.3252 -0.4037 -0.4510
  742SOL    HW1 3125   3.181   0.032   1.793  2.0970  0.3359  0.5178
  742SOL    HW2 3126   3.149   0.078   1.947 -2.4170 -1.4617  0.2827
  743SOL     OW 3127   0.543   0.419   3.675 -0.2002  0.2172  0.7285
  743SOL    HW1 3128   0.491   0.343   3.635  0.1321  0.8115 -0.8850
  743SOL    HW2 3129   0.598   0.385   3.752 -0.6488 -1.0120  0.5280
  744SOL     OW 3130   4.853   1.568   2.779 -0.1032 -0.2968  0.0688
  744SOL    HW1 3131   4.797   1.485   2.783 -2.7525  1.3460 -0.0940
  744SOL    HW2 3132   4.806   1.637   2.723  0.3608  2.3981  2.7088
  745SOL     OW 3133   1.250   7.006   4.467 -0.9999  0.3524 -0.0339
  745SOL    HW1 3134   1.165   6.971   4.508  0.2024 -3.0873 -0.1579
  745SOL    HW2 3135   1.228   7.056   4.383 -2.8943 -1.4272 -0.6844
  746SOL     OW 3136   3.903   4.877   5.172 -0.7250 -0.0064 -0.0496
  746SOL    HW1 3137   3.949   4.963   5.195  1.0990 -1.5504  2.6146
  746SOL    HW2 3138   3.947   4.836   5.092  0.4047  0.1564  0.4587
  747SOL     OW 3139   2.580   5.959   1.312 -0.1529  0.3335 -0.0927
  747SOL    HW1 3140   2.491   5.980   1.273 -1.7503 -0.6925  2.7535
  747SOL    HW2 3141   2.594   5.860   1.313  2.0614  0.5012 -2.4159
  748SOL     OW 3142   6.436   5.465   3.755 -0.0538 -0.2031  0.1600
  748SOL    HW1 3143   6.360   5.439   3.814 -0.7880  2.3236  0.4425
  748SOL    HW2 3144   6.520   5.424   3.789 -0.8308 -0.6900  1.5799
  749SOL     OW 3145   3.801   5.650   5.307 -0.4719 -0.4231 -0.8540
  749SOL    HW1 3146   3.723   5.596   5.275 -1.1896  0.1839 -0.1665
  749SOL    HW2 3147   3.872   5.588   5.341 -0.7086 -0.9773 -1.3419
  750SOL     OW 3148   3.206   0.784   1.686  0.7571  0.5189  0.0531
  750SOL    HW1 3149   3.129   0.731   1.651  0.5645  0.1608  0.9773
  750SOL    HW2 3150   3.222   0.760   1.782  3.0664 -0.6683 -0.5477
  751SOL     OW 3151   4.491   6.308   1.989 -0.0031  0.2967 -0.3902
  751SOL    HW1 3152   4.512   6.311   1.892  1.8342 -0.0362 -0.0485
  751SOL    HW2 3153   4.523   6.392   2.033 -1.9525  1.0114 -0.2399
  752SOL     OW 3154   3.190   3.087   1.558 -0.7354 -0.1749 -0.2052
  752SOL    HW1 3155   3.092   3.094   1.539 -0.1832  2.2945 -2.6002
  752SOL    HW2 3156   3.239   3.065   1.474  0.8686 -0.3329  0.7400
  753SOL     OW 3157   3.628   3.594   1.677  0.0283 -0.1318  0.7313
  753SOL    HW1 3158   3.690   3.625   1.605 -0.5920 -1.0241 -0.2256
  753SOL    HW2 3159   3.652   3.637   1.763  0.8910  0.8510  0.0214
  754SOL     OW 3160   3.626   0.910   6.300 -0.1553 -0.2832 -0.2690
  754SOL    HW1 3161   3.549   0.896   6.362 -0.7204 -1.1085 -1.1381
  754SOL    HW2 3162   3.659   0.821   6.267  0.4999  0.1152 -0.7082
  755SOL     OW 3163   6.727   5.254   0.726 -0.4916 -0.5229 -0.2955
  755SOL    HW1 3164   6.756   5.160   0.712  0.0466 -0.4621  0.4112
  755SOL    HW2 3165   6.746   5.307   0.643  2.4980 -0.2123  0.4923
  756SOL     OW 3166   1.302   5.773   6.476 -0.3016  0.2668 -0.3435
  756SOL    HW1 3167   1.385   5.826   6.492  0.2974 -0.4543 -0.9314
  756SOL    HW2 3168   1.233   5.795   6.545  0.5252  0.5794  0.3956
  757SOL     OW 3169   4.415   6.435   0.932  0.1438 -0.2636 -0.3141
  757SOL    HW1 3170   4.485   6.486   0.883  1.0092 -1.9163 -0.8466
  757SOL    HW2 3171   4.368   6.497   0.996  0.3647  1.4446 -1.7250
  758SOL     OW 3172   3.466   1.247   6.243 -0.0551  0.0639 -0.6771
  758SOL    HW1 3173   3.487   1.326   6.301 -0.6132 -0.0595 -0.2966
  758SOL    HW2 3174   3.506   1.165   6.284 -2.3403 -0.3972  0.7882
  759SOL     OW 3175   0.416   1.222   2.593  0.2843  0.2371 -0.1092
  759SOL    HW1 3176   0.339   1.181   2.642 -0.2470 -0.7912 -1.7138
  759SOL    HW2 3177   0.475   1.271   2.657 -1.4109  0.5910  1.2222
  760SOL     OW 3178   6.951   0.500   5.195 -0.1811  0.5321  0.5413
  760SOL    HW1 3179   6.999   0.498   5.283  2.1885 -0.5784 -0.6739
  760SOL    HW2 3180   6.967   0.588   5.151  0.1360  0.4308  0.4527
  761SOL     OW 3181   6.432   5.878   6.555 -0.3932 -0.7148 -0.6597
  761SOL    HW1 3182   6.449   5.964   6.508 -2.0558 -0.3706 -0.7068
  761SOL    HW2 3183   6.508   5.859   6.617  1.4241 -0.7332 -2.7569
  762SOL     OW 3184   3.541   6.343   2.246 -0.0811 -0.0122  0.6844
  762SOL    HW1 3185   3.530   6.271   2.315 -0.5008 -0.2536  0.3690
  762SOL    HW2 3186   3.580   6.305   2.163 -1.7016 -0.2145 -0.0298
  763SOL     OW 3187   4.884   2.002   1.406  0.0921 -0.3429  0.4118
  763SOL    HW1 3188   4.979   1.992   1.378  0.7550 -1.6703  2.9092
  763SOL    HW2 3189   4.842   1.912   1.414 -1.0894  0.1839  0.3521
  764SOL     OW 3190   3.983   5.956   5.290  0.6373  0.0562 -0.4764
  764SOL    HW1 3191   4.029   5.870   5.271 -0.6164 -0.6408 -0.5142
  764SOL    HW2 3192   4.003   6.022   5.217  2.4986  0.1988  0.1215
  765SOL     OW 3193   3.262   5.505   6.408 -0.2331  0.7135 -0.6987
  765SOL    HW1 3194   3.200   5.429   6.430  0.0388  0.6021 -0.3100
  765SOL    HW2 3195   3.238   5.584   6.464 -0.5729  0.9453 -1.1671
  766SOL     OW 3196   2.445   0.548   3.939  0.4173 -0.8054  0.2990
  766SOL    HW1 3197   2.380   0.624   3.941 -0.6755 -1.7141  1.7972
  766SOL    HW2 3198   2.497   0.547   4.025  1.7518 -0.6714 -0.4859
  767SOL     OW 3199   0.594   6.895   3.037  0.6038  0.6466 -0.1227
  767SOL    HW1 3200   0.549   6.891   3.127 -1.2571  1.3817 -0.9541
  767SOL    HW2 3201   0.686   6.932   3.047  1.0904 -0.8907  1.6758
  768SOL     OW 3202   3.644   6.217   0.310  0.5030  0.2437  0.3016
  768SOL    HW1 3203   3.648   6.251   0.404  0.9130  1.2688 -0.0774
  768SOL    HW2 3204   3.564   6.256   0.264  0.3570 -0.1780  0.1950
  769SOL     OW 3205   3.560   0.803   6.706  0.0577 -0.1338  0.2644
  769SOL    HW1 3206   3.634   0.834   6.646  2.0009 -0.6176  2.2780
  769SOL    HW2 3207   3.595   0.792   6.799 -2.2470 -1.6798  1.0350
  770SOL     OW 3208   0.446   4.738   4.409  0.5129  0.3148 -0.9451
  770SOL    HW1 3209   0.475   4.756   4.315 -0.3868 -0.2427 -1.3504
  770SOL    HW2 3210   0.521   4.757   4.471  2.2062 -2.2037 -2.0365
  771SOL     OW 3211   1.943   0.227   0.839  0.0059  0.3242 -0.3063
  771SOL    HW1 3212   2.014   0.297   0.827 -0.0930  0.7563  1.3930
  771SOL    HW2 3213   1.985   0.141   0.868  0.0036  0.0492 -1.1114
  772SOL     OW 3214   5.526   4.831   1.184 -0.5128 -0.2858  0.6935
  772SOL    HW1 3215   5.512   4.738   1.151 -2.0706  0.4914 -1.0133
  772SOL    HW2 3216   5.438   4.872   1.209 -0.1153  1.3603 -0.4374
  773SOL     OW 3217   2.973   4.819   3.261 -0.1506  0.2814 -0.1829
  773SOL    HW1 3218   2.961   4.855   3.168  0.5101  1.6485  0.2320
  773SOL    HW2 3219   2.928   4.730   3.268  1.8336 -1.0764 -2.5566
  774SOL     OW 3220   2.323   4.762   3.922 -0.2686 -0.7343  0.1066
  774SOL    HW1 3221   2.235   4.793   3.958  0.7582  1.8176  0.6003
  774SOL    HW2 3222   2.317   4.665   3.901 -3.3329 -0.5627 -0.3058
  775SOL     OW 3223   0.427   3.442   2.939  0.0763  0.1709 -0.0836
  775SOL    HW1 3224   0.489   3.511   2.901  1.2102 -1.2281 -0.8888
  775SOL    HW2 3225   0.338   3.449   2.895  0.4934  0.4600 -0.8930
  776SOL     OW 3226   1.736   4.282   0.008 -0.0551 -0.1246  0.2795
  776SOL    HW1 3227   1.697   4.362  -0.038 -1.2115 -0.4275  0.6941
  776SOL    HW2 3228   1.782   4.311   0.092 -0.8534  0.0768  0.6620
  777SOL     OW 3229   0.242   3.366   6.441 -0.5117  0.4780 -0.4433
  777SOL    HW1 3230   0.259   3.373   6.540 -2.6696 -0.6623  0.0737
  777SOL    HW2 3231   0.264   3.453   6.398 -1.8650  1.8447  1.4579
  778SOL     OW 3232   2.561   5.811   6.259 -0.4651 -0.3076  0.3906
  778SOL    HW1 3233   2.608   5.856   6.183  2.1253 -1.9826  0.8794
  778SOL    HW2 3234   2.471   5.854   6.273 -1.3693 -0.3291 -3.9623
  779SOL     OW 3235   6.750   1.618   3.953  0.2391 -0.5556 -0.6352
  779SOL    HW1 3236   6.695   1.607   4.036 -0.7122 -1.8595 -1.3981
  779SOL    HW2 3237   6.847   1.606   3.975  0.3366  2.0670  0.7959
  780SOL     OW 3238   5.869   2.172   2.914  0.1092  0.1889 -0.0293
  780SOL    HW1 3239   5.791   2.151   2.973 -1.2482  2.0442 -1.0449
  780SOL    HW2 3240   5.892   2.091   2.860 -0.1037 -0.8417  1.3659
  781SOL     OW 3241   0.312   5.191   5.548  0.1892 -0.2674 -0.7144
  781SOL    HW1 3242   0.349   5.272   5.594  0.5148 -0.7604 -0.0998
  781SOL    HW2 3243   0.329   5.110   5.604 -1.9815 -0.5079 -0.3351
  782SOL     OW 3244   3.051   4.748   5.272  0.4302 -0.6619  0.6502
  782SOL    HW1 3245   3.089   4.740   5.181 -0.7296 -0.6604  0.1443
  782SOL    HW2 3246   2.966   4.696   5.278 -1.2957  1.9657  0.6812
  783SOL     OW 3247   1.682   5.295   4.679 -0.1586 -0.2430  0.1486
  783SOL    HW1 3248   1.683   5.233   4.758 -0.6604 -0.3803  0.0511
  783SOL    HW2 3249   1.616   5.369   4.696  0.1710  0.0615  0.1106
  784SOL     OW 3250   0.014   6.748   4.955  0.3882  0.0199  0.5082
  784SOL    HW1 3251  -0.011   6.654   4.933  1.0120  0.1114 -0.7229
  784SOL    HW2 3252  -0.041   6.781   5.031 -0.2788 -1.1235  0.5416
  785SOL     OW 3253   1.314   6.795   3.958  0.5607 -0.6261  0.2163
  785SOL    HW1 3254   1.296   6.879   4.009 -0.0402 -0.4489 -0.2762
  785SOL    HW2 3255   1.312   6.717   4.021  2.1493 -0.1924  0.8612
  786SOL     OW 3256   1.165   2.575   4.768  0.1550 -0.0627 -0.0932
  786SOL    HW1 3257   1.189   2.653   4.709 -1.1500 -0.7695 -1.6259
  786SOL    HW2 3258   1.078   2.594   4.813  1.1287  0.4559  1.6528
  787SOL     OW 3259   0.952   2.375   0.376  0.1600 -0.1313 -0.2086
  787SOL    HW1 3260   1.021   2.365   0.304 -0.0300 -0.9037 -0.2869
  787SOL    HW2 3261   0.990   2.344   0.463  0.2951  0.5391 -0.0209
  788SOL     OW 3262   1.465   2.828   3.940 -0.1719  0.0490 -0.4914
  788SOL    HW1 3263   1.504   2.908   3.987 -0.1560  0.3040 -0.9366
  788SOL    HW2 3264   1.372   2.850   3.911  0.7330  0.8858 -3.0069
  789SOL     OW 3265   3.516   5.995   1.206 -0.8828 -0.1684  1.0496
  789SOL    HW1 3266   3.555   6.085   1.188  1.2454 -0.8282  2.0590
  789SOL    HW2 3267   3.424   6.005   1.244 -1.6656  1.4565 -1.0715
  790SOL     OW 3268   6.853   2.427   2.315  0.0234 -0.2760  0.0398
  790SOL    HW1 3269   6.818   2.504   2.369 -0.5630  0.4507 -1.3112
  790SOL    HW2 3270   6.935   2.391   2.358  0.7621  1.6179  0.3254
  791SOL     OW 3271   3.650   0.339   2.984 -0.4350 -0.0049  0.0466
  791SOL    HW1 3272   3.728   0.381   2.939 -0.7489 -1.2859 -1.7879
  791SOL    HW2 3273   3.682   0.279   3.058  0.2867 -0.0825 -0.3252
  792SOL     OW 3274   3.631   1.423   2.142 -0.0765  0.0854 -0.4576
  792SOL    HW1 3275   3.607   1.469   2.228 -1.3306 -1.1191 -0.1285
  792SOL    HW2 3276   3.666   1.490   2.077 -0.3555  1.2286  0.5381
  793SOL     OW 3277   1.081   5.597   4.915 -0.1722  0.3799  0.1402
  793SOL    HW1 3278   1.009   5.659   4.883  0.7531  0.6145 -1.6627
  793SOL    HW2 3279   1.072   5.509   4.868  1.3680  0.8064 -1.0493
  794SOL     OW 3280   3.994   1.687   1.315  0.4446  0.3896 -0.0795
  794SOL    HW1 3281   4.015   1.627   1.392  0.5036  1.6601  0.9310
  794SOL    HW2 3282   3.896   1.708   1.315  0.4826  0.5700 -0.2244
  795SOL     OW 3283   3.020   0.941   6.586  0.4376 -0.4197  0.5538
  795SOL    HW1 3284   2.940   1.001   6.575  1.1858  0.3999 -0.5785
  795SOL    HW2 3285   3.103   0.996   6.588  1.1212 -1.3865 -0.1793
  796SOL     OW 3286   0.699   3.071   6.728 -0.4018  0.0100 -0.1509
  796SOL    HW1 3287   0.627   3.104   6.787 -1.1901 -0.0504 -1.0581
  796SOL    HW2 3288   0.674   3.086   6.632  0.8632  0.1514 -0.4811
  797SOL     OW 3289   1.876   0.254   0.047 -0.0601  0.0027  0.9451
  797SOL    HW1 3290   1.777   0.261   0.034 -0.1267 -0.2624  1.3215
  797SOL    HW2 3291   1.904   0.313   0.122  0.2813  1.2541 -0.1165
  798SOL     OW 3292   0.418   5.286   2.574  0.1352  0.5598  0.1105
  798SOL    HW1 3293   0.337   5.228   2.575  0.5167 -0.0486 -1.5544
  798SOL    HW2 3294   0.397   5.372   2.620 -1.4905  0.4409 -0.3303
  799SOL     OW 3295   3.747   3.455   4.117  0.2445  0.4505  0.2557
  799SOL    HW1 3296   3.829   3.442   4.061  1.4724  0.5169  1.9394
  799SOL    HW2 3297   3.689   3.374   4.110  0.1805  0.6171 -1.3723
  800SOL     OW 3298   4.890   3.269   3.632  0.5800 -0.1870  0.4470
  800SOL    HW1 3299   4.874   3.274   3.730  1.6926  0.3891  0.6148
  800SOL    HW2 3300   4.986   3.245   3.615  0.5254  0.2241 -0.4971
  801SOL     OW 3301   1.832   6.316   5.938 -0.4728 -0.2321 -0.1799
  801SOL    HW1 3302   1.908   6.251   5.947  0.2228  0.4605 -0.8774
  801SOL    HW2 3303   1.761   6.276   5.881  0.3057 -0.0968 -1.2794
  802SOL     OW 3304   5.372   2.945   0.530 -0.1481 -0.2138 -0.1005
  802SOL    HW1 3305   5.331   2.899   0.451 -1.8227  0.1059  0.5419
  802SOL    HW2 3306   5.333   3.037   0.540  1.2984  0.4090  0.1190
  803SOL     OW 3307   4.622   1.825   3.863 -0.0587 -0.1725  0.3507
  803SOL    HW1 3308   4.529   1.819   3.826 -0.1681  1.5979  0.2700
  803SOL    HW2 3309   4.683   1.860   3.793  0.4790 -0.3880  0.7072
  804SOL     OW 3310   5.353   6.756   2.423 -0.0375  0.0796  0.2052
  804SOL    HW1 3311   5.425   6.817   2.454  0.0514  0.0237  0.1095
  804SOL    HW2 3312   5.394   6.677   2.376 -0.2435  1.0817 -1.7282
  805SOL     OW 3313   2.957   1.522   3.953 -0.0448  0.0608  0.6688
  805SOL    HW1 3314   3.016   1.565   4.022  0.5805 -0.3643  0.3974
  805SOL    HW2 3315   3.008   1.452   3.903 -0.6678 -0.0479  0.1704
  806SOL     OW 3316   4.632   0.587   1.742  0.0752 -0.4060  0.0698
  806SOL    HW1 3317   4.601   0.665   1.796  1.7097  0.1382  0.2940
  806SOL    HW2 3318   4.582   0.583   1.656 -1.4136 -0.3046  0.9071
  807SOL     OW 3319   2.080   0.783   6.834  0.0451 -0.6373  0.1969
  807SOL    HW1 3320   2.116   0.868   6.793 -0.8221 -0.6824 -0.6809
  807SOL    HW2 3321   2.154   0.736   6.883  0.4152  0.9100  1.2061
  808SOL     OW 3322   6.901   0.937   4.090  0.1865 -0.0617 -0.5995
  808SOL    HW1 3323   6.870   1.017   4.037  0.1933  0.6497  0.4284
  808SOL    HW2 3324   6.981   0.962   4.144  0.5126 -0.9297 -0.6737
  809SOL     OW 3325   2.424   5.507   4.167 -0.2504  0.3670  0.4238
  809SOL    HW1 3326   2.471   5.581   4.118  1.5322 -0.2635  1.1089
  809SOL    HW2 3327   2.489   5.460   4.227 -0.6984 -3.1803 -1.5981
  810SOL     OW 3328   2.830   3.726   6.039 -0.1741  0.1835 -0.2183
  810SOL    HW1 3329   2.819   3.819   6.003 -1.9578  0.5713  1.1473
  810SOL    HW2 3330   2.740   3.682   6.045 -0.2089  0.3676  4.0903
  811SOL     OW 3331   5.876   6.025   3.960 -0.2723 -0.1305  0.3358
  811SOL    HW1 3332   5.787   5.995   3.995 -1.5933 -0.1592 -2.7805
  811SOL    HW2 3333   5.911   5.957   3.896  1.5246  0.3963  0.7078
  812SOL     OW 3334   1.584   4.293   0.362 -0.6270 -0.3720 -0.3842
  812SOL    HW1 3335   1.559   4.299   0.458 -0.7310 -2.1364 -0.2625
  812SOL    HW2 3336   1.507   4.321   0.305 -0.8518 -0.1259  0.0400
  813SOL     OW 3337   2.801   0.108   5.152 -0.0449  0.0493  0.0128
  813SOL    HW1 3338   2.717   0.092   5.203  0.3021  0.0304  0.5814
  813SOL    HW2 3339   2.880   0.085   5.209  0.4338  2.1650  0.2695
  814SOL     OW 3340   0.924   4.263   0.824  0.1656 -0.4779  0.0573
  814SOL    HW1 3341   0.949   4.167   0.840  1.4306 -0.2706 -0.5369
  814SOL    HW2 3342   0.995   4.322   0.860 -0.9409  0.2861  1.0460
  815SOL     OW 3343   4.902   5.890   4.046  0.2001 -0.3565 -0.1980
  815SOL    HW1 3344   4.829   5.829   4.078 -2.3721  3.1802  1.2631
  815SOL    HW2 3345   4.955   5.922   4.124  0.1057  0.9227 -0.6386
  816SOL     OW 3346   4.809   3.398   5.765  0.0623 -0.0354  0.0954
  816SOL    HW1 3347   4.785   3.302   5.750 -0.3700  0.0308  0.3391
  816SOL    HW2 3348   4.902   3.404   5.800 -0.9559 -0.6320  3.2405
  817SOL     OW 3349   4.591   5.646   2.099 -0.1514  0.1564  0.4921
  817SOL    HW1 3350   4.541   5.612   2.020 -0.7104 -0.3325  1.0411
  817SOL    HW2 3351   4.688   5.657   2.075  0.0297 -1.6832  0.2189
  818SOL     OW 3352   6.328   1.486   4.735 -0.0212 -0.2405 -0.4041
  818SOL    HW1 3353   6.321   1.535   4.822  0.6171  0.9188 -0.9734
  818SOL    HW2 3354   6.399   1.416   4.743  0.6116  0.3962 -0.2050
  819SOL     OW 3355   5.066   3.369   0.318 -0.4940  0.2621 -0.2327
  819SOL    HW1 3356   5.149   3.404   0.362  0.3926  0.7222 -2.1453
  819SOL    HW2 3357   5.078   3.272   0.297 -0.4584  0.3174 -0.4679
  820SOL     OW 3358   6.546   1.080   6.259  0.3052  0.2434  0.4539
  820SOL    HW1 3359   6.463   1.127   6.229  0.4633 -0.7803 -1.8683
  820SOL    HW2 3360   6.555   0.995   6.207  1.1986 -1.2418  2.9012
  821SOL     OW 3361   4.049   4.266   0.834  0.0142  0.3543 -0.3438
  821SOL    HW1 3362   4.008   4.240   0.921 -2.6253  0.5940 -1.4372
  821SOL    HW2 3363   4.022   4.360   0.811 -0.4828 -0.1906 -2.0691
  822SOL     OW 3364   6.853   2.578   4.539  0.2546  0.0802  0.4257
  822SOL    HW1 3365   6.870   2.675   4.522  0.8265 -0.2912 -1.3328
  822SOL    HW2 3366   6.925   2.541   4.596  1.9769 -0.0232 -1.6829
  823SOL     OW 3367   1.259   3.655   3.953 -0.4715  0.3666  0.9265
  823SOL    HW1 3368   1.228   3.592   3.882 -1.3184  0.3591  1.2922
  823SOL    HW2 3369   1.302   3.734   3.911  1.5869 -0.9237  0.4776
  824SOL     OW 3370   5.700   1.968   5.833  0.1237  0.5209 -0.1428
  824SOL    HW1 3371   5.698   1.982   5.734 -0.2829 -1.4788 -0.4600
  824SOL    HW2 3372   5.679   2.054   5.879 -1.1915  1.1741 -1.8393
  825SOL     OW 3373   6.903   4.941   1.935  0.0025 -0.2366 -0.3656
  825SOL    HW1 3374   6.885   5.032   1.896  1.0267  0.9526  1.7546
  825SOL    HW2 3375   6.991   4.907   1.900 -0.4971 -0.5528 -1.3526
  826SOL     OW 3376   4.678   2.179   5.450  0.0512  0.2162 -0.2501
  826SOL    HW1 3377   4.657   2.084   5.428  1.4508 -0.8632  2.6073
  826SOL    HW2 3378   4.610   2.239   5.406 -2.9628 -2.3034  0.5717
  827SOL     OW 3379   3.013   3.776   4.419  0.3641 -0.0025  0.3440
  827SOL    HW1 3380   3.028   3.869   4.453 -0.6720  0.0192  0.7580
  827SOL    HW2 3381   2.973   3.780   4.328 -0.7457 -0.0187  0.8170
  828SOL     OW 3382   5.893   1.650   1.189 -0.0705 -0.3256 -0.4335
  828SOL    HW1 3383   5.899   1.559   1.229  2.9011 -0.2731 -0.5758
  828SOL    HW2 3384   5.889   1.718   1.263 -0.5631 -0.4699 -0.3204
  829SOL     OW 3385   3.603   2.890   0.581  0.1385 -0.2190 -0.5152
  829SOL    HW1 3386   3.625   2.957   0.653 -0.4663 -0.2101 -0.3266
  829SOL    HW2 3387   3.679   2.828   0.569  0.1698 -0.3546  0.2989
  830SOL     OW 3388   0.156   4.855   5.788  0.0917 -0.2427  0.0486
  830SOL    HW1 3389   0.180   4.760   5.809  1.3706  0.2660  1.0120
  830SOL    HW2 3390   0.216   4.889   5.716  1.7795  0.7569  1.8404
  831SOL     OW 3391   6.869   2.041   3.534 -0.4158 -0.1134 -0.4624
  831SOL    HW1 3392   6.916   2.120   3.495  1.8212 -0.7268  0.8248
  831SOL    HW2 3393   6.910   1.957   3.498 -0.0259 -0.6687  1.1930
  832SOL     OW 3394   4.131   1.879   4.399 -0.5020 -0.3561 -0.2388
  832SOL    HW1 3395   4.058   1.815   4.425 -0.0585 -0.5201  0.6406
  832SOL    HW2 3396   4.110   1.970   4.434 -0.3992 -0.3529 -0.1845
  833SOL     OW 3397   4.920   3.856   5.977  0.0322  0.0931 -0.5637
  833SOL    HW1 3398   4.880   3.772   5.941  1.7749 -1.6366  1.2732
  833SOL    HW2 3399   5.019   3.853   5.968  0.6357 -0.4192  3.8228
  834SOL     OW 3400   6.458   2.965   1.626 -0.0355 -0.1965  0.4167
  834SOL    HW1 3401   6.400   2.954   1.545  1.7930 -0.1889 -0.9393
  834SOL    HW2 3402   6.470   3.062   1.646 -1.9141 -0.1879  1.8319
  835SOL     OW 3403   0.175   5.981   5.189  0.1356 -0.2651 -0.1926
  835SOL    HW1 3404   0.261   5.987   5.138 -0.4668  0.5023 -1.1667
  835SOL    HW2 3405   0.184   6.030   5.275  0.5797  0.0919 -0.4338
  836SOL     OW 3406   5.690   0.694   3.985  0.7294  0.0904  0.1124
  836SOL    HW1 3407   5.728   0.718   4.074 -0.8041 -0.0377  0.8379
  836SOL    HW2 3408   5.635   0.770   3.951  0.3233 -0.3237 -0.1634
  837SOL     OW 3409   5.976   1.637   0.183  0.1882 -0.2185  0.3995
  837SOL    HW1 3410   6.041   1.560   0.186 -1.2014 -1.5293 -1.1428
  837SOL    HW2 3411   5.912   1.623   0.107  0.3815  2.9088 -0.4477
  838SOL     OW 3412   0.469   4.847   2.519  0.3287 -0.4141  0.0789
  838SOL    HW1 3413   0.388   4.822   2.573 -1.0879 -0.5922 -2.0017
  838SOL    HW2 3414   0.512   4.927   2.561 -0.4457 -0.7832  1.6854
  839SOL     OW 3415   3.011   1.659   1.039  0.4324 -0.0661 -0.0275
  839SOL    HW1 3416   3.071   1.654   1.119  1.0980  1.7497 -0.3688
  839SOL    HW2 3417   3.022   1.576   0.984  0.6713 -0.9128  1.2581
  840SOL     OW 3418   0.231   5.544   6.306  0.2119  0.0167  0.5323
  840SOL    HW1 3419   0.293   5.593   6.368  3.2030 -1.8881 -0.7021
  840SOL    HW2 3420   0.194   5.464   6.352 -0.8439  0.7814  1.0542
  841SOL     OW 3421   2.619   5.064   0.377 -0.0421 -0.2776  0.2439
  841SOL    HW1 3422   2.574   5.103   0.457 -0.5528 -1.2235  0.4353
  841SOL    HW2 3423   2.629   5.134   0.307 -0.3192  0.3601  0.8303
  842SOL     OW 3424   3.521   5.356   5.853 -0.0988  0.0157 -0.2199
  842SOL    HW1 3425   3.445   5.415   5.829  0.4610  1.3424  1.1005
  842SOL    HW2 3426   3.517   5.334   5.951  0.1923 -1.4249 -0.5070
  843SOL     OW 3427   1.123   0.148   2.409 -0.7140  0.1415  0.3467
  843SOL    HW1 3428   1.151   0.242   2.390  0.1498 -0.2270 -0.2438
  843SOL    HW2 3429   1.048   0.123   2.349  0.6045 -0.3120 -1.1703
  844SOL     OW 3430   1.491   0.766   0.459 -0.4111 -0.2937 -0.1424
  844SOL    HW1 3431   1.469   0.674   0.427 -0.7757 -0.3865  0.3637
  844SOL    HW2 3432   1.588   0.771   0.483 -0.2279 -0.3377 -0.8615
  845SOL     OW 3433   2.708   2.092   6.590  0.1012 -0.4823  0.3791
  845SOL    HW1 3434   2.726   2.054   6.681  0.4184 -1.4612 -0.0842
  845SOL    HW2 3435   2.689   2.018   6.526  2.2902 -0.0296 -0.8970
  846SOL     OW 3436   0.083   6.599   3.170  0.5613 -0.2597 -0.4470
  846SOL    HW1 3437  -0.013   6.595   3.143  0.3183  0.4966  0.2814
  846SOL    HW2 3438   0.092   6.578   3.267  1.1398 -0.3825 -0.5219
  847SOL     OW 3439   3.079   1.661   2.260  0.3537  0.3758  0.3772
  847SOL    HW1 3440   3.022   1.646   2.341  1.4866  0.0772  1.1352
  847SOL    HW2 3441   3.025   1.643   2.178 -0.9390  1.0890  1.0413
  848SOL     OW 3442   0.433   4.784   2.254  0.1889 -0.2335 -0.2699
  848SOL    HW1 3443   0.436   4.834   2.340  0.1726  0.1005 -0.4604
  848SOL    HW2 3444   0.523   4.788   2.210 -0.5280  2.2286 -1.7349
  849SOL     OW 3445   5.495   3.295   0.402 -0.3425  0.0270  0.8436
  849SOL    HW1 3446   5.556   3.217   0.418 -1.7877 -0.9693  1.7318
  849SOL    HW2 3447   5.457   3.326   0.489 -2.4291 -0.5122  0.1901
  850SOL     OW 3448   5.375   6.888   5.144  0.3262 -0.3633 -0.3033
  850SOL    HW1 3449   5.376   6.802   5.196 -0.4042  0.6816  1.5301
  850SOL    HW2 3450   5.411   6.962   5.201 -0.8103  0.9052 -1.1845
  851SOL     OW 3451   3.331   3.260   5.893 -0.3744  0.1545  0.2387
  851SOL    HW1 3452   3.376   3.271   5.982 -1.3607  2.0163  0.5646
  851SOL    HW2 3453   3.365   3.177   5.848  0.4631 -0.5874  2.1429
  852SOL     OW 3454   1.390   4.598   6.751  0.2546  0.0455  0.2363
  852SOL    HW1 3455   1.373   4.536   6.828  1.5320 -0.3264  0.2496
  852SOL    HW2 3456   1.304   4.621   6.706 -0.2446 -1.8459  0.1564
  853SOL     OW 3457   5.004   4.487   6.798 -1.0109 -0.3079  0.1954
  853SOL    HW1 3458   4.905   4.475   6.808 -1.4791  2.0170 -0.9791
  853SOL    HW2 3459   5.025   4.509   6.703  0.0757  3.2845  1.1222
  854SOL     OW 3460   6.474   1.232   5.940 -0.1475  0.2801 -0.2889
  854SOL    HW1 3461   6.407   1.217   6.014  1.0610  1.1707  1.0422
  854SOL    HW2 3462   6.534   1.308   5.965  2.7796 -1.8458 -0.4291
  855SOL     OW 3463   3.852   3.490   0.347 -0.6903 -0.3195 -0.3294
  855SOL    HW1 3464   3.950   3.486   0.328 -0.5575 -0.4221  0.3539
  855SOL    HW2 3465   3.821   3.403   0.385 -0.9121 -0.0734  0.0679
  856SOL     OW 3466   1.290   6.912   1.343  0.3906  0.2315 -0.4520
  856SOL    HW1 3467   1.345   6.840   1.300  1.1443  0.9280 -0.6839
  856SOL    HW2 3468   1.277   6.986   1.277  0.8735  0.9568  0.2642
  857SOL     OW 3469   6.220   5.031   0.154 -0.2088  0.1158 -0.3977
  857SOL    HW1 3470   6.218   4.961   0.082 -0.6994  0.3602 -0.6279
  857SOL    HW2 3471   6.204   5.120   0.113 -0.4412  0.2618  0.0108
  858SOL     OW 3472   3.382   4.039   6.230  0.0036  0.1963  1.0359
  858SOL    HW1 3473   3.349   4.027   6.136 -2.3282  0.7227  1.7135
  858SOL    HW2 3474   3.439   4.121   6.235  1.9701 -1.0251 -0.3021
  859SOL     OW 3475   4.090   0.247   6.216  0.1406 -0.7203 -0.3866
  859SOL    HW1 3476   4.064   0.176   6.150  0.9046 -1.0670 -0.3218
  859SOL    HW2 3477   4.176   0.221   6.260 -0.3917 -0.5442  0.8055
  860SOL     OW 3478   2.727   3.469   6.396 -0.6646 -0.1843  0.0479
  860SOL    HW1 3479   2.798   3.479   6.326 -1.1766 -0.2589 -0.4839
  860SOL    HW2 3480   2.693   3.559   6.423 -0.0115 -0.1165  0.6796
  861SOL     OW 3481   0.120   4.404   2.557 -0.2653 -0.2559  0.7298
  861SOL    HW1 3482   0.132   4.367   2.649  1.3653 -0.5483  0.4204
  861SOL    HW2 3483   0.201   4.455   2.530 -0.5618 -0.4938 -0.7003
  862SOL     OW 3484   0.293   3.921   4.556 -0.5029  0.2657 -0.2917
  862SOL    HW1 3485   0.373   3.866   4.532 -1.1569 -0.3869 -1.0516
  862SOL    HW2 3486   0.273   3.985   4.481 -1.6911 -0.7582 -0.8723
  863SOL     OW 3487   5.365   6.957   1.434 -0.4504  0.0027 -0.0465
  863SOL    HW1 3488   5.347   6.874   1.381  1.3528 -0.4867  0.0554
  863SOL    HW2 3489   5.382   6.932   1.530  1.1799  0.3344 -0.2198
  864SOL     OW 3490   6.333   3.928   3.710 -0.1095  0.0580  0.1464
  864SOL    HW1 3491   6.340   4.027   3.699 -1.7721  0.0960 -1.0197
  864SOL    HW2 3492   6.343   3.904   3.807 -3.6184  1.8526  1.1430
  865SOL     OW 3493   2.690   5.833   5.399  0.2853  0.3378 -0.0044
  865SOL    HW1 3494   2.713   5.901   5.468  0.2565 -1.2942  1.7050
  865SOL    HW2 3495   2.595   5.805   5.409  0.5748 -0.6877  0.0150
  866SOL     OW 3496   4.035   5.260   2.313 -0.2599 -0.3654 -0.6627
  866SOL    HW1 3497   4.114   5.237   2.370 -0.0601  0.6705 -0.4944
  866SOL    HW2 3498   4.021   5.189   2.245  0.0773 -1.1572  0.0812
  867SOL     OW 3499   5.323   3.254   3.863  0.1598  0.6071  0.9403
  867SOL    HW1 3500   5.301   3.165   3.823  2.0254  0.3793  0.3554
  867SOL    HW2 3501   5.268   3.266   3.946 -1.0416 -0.5247  0.3606
  868SOL     OW 3502   6.959   6.765   1.017  0.0811 -0.7981  0.2370
  868SOL    HW1 3503   6.921   6.845   0.971  1.6044  0.1213  0.5329
  868SOL    HW2 3504   6.910   6.683   0.987 -0.4084  0.0345 -1.3174
  869SOL     OW 3505   3.102   1.629   4.146  0.7946 -0.4144 -0.7320
  869SOL    HW1 3506   3.033   1.646   4.216 -1.9475 -0.7853 -3.1253
  869SOL    HW2 3507   3.180   1.581   4.186  0.0289  0.6617  2.2685
  870SOL     OW 3508   3.369   4.642   6.920 -0.4192  0.3292 -0.7262
  870SOL    HW1 3509   3.345   4.545   6.912  0.0533  0.0324  1.0168
  870SOL    HW2 3510   3.318   4.695   6.853 -2.1465 -0.8894 -0.4373
  871SOL     OW 3511   4.123   1.959   3.415 -0.0344  0.2412 -0.6304
  871SOL    HW1 3512   4.041   2.011   3.392  0.0967  0.5978 -0.3026
  871SOL    HW2 3513   4.204   2.013   3.392  0.1114 -0.1756 -1.1062
  872SOL     OW 3514   0.473   2.643   5.939 -0.4242  0.2725  0.4181
  872SOL    HW1 3515   0.568   2.621   5.962 -0.4682  0.2770  0.6079
  872SOL    HW2 3516   0.438   2.577   5.873 -0.1406  0.5432 -0.0046
  873SOL     OW 3517   2.918   0.874   5.202 -0.4828 -0.2917  0.0901
  873SOL    HW1 3518   2.865   0.825   5.132 -0.7427 -0.9785  0.7559
  873SOL    HW2 3519   2.901   0.972   5.193  0.6717 -0.2025 -1.7860
  874SOL     OW 3520   5.473   4.174   2.384  0.1219  0.0146  0.0046
  874SOL    HW1 3521   5.390   4.215   2.423 -0.1132 -0.3970 -0.0494
  874SOL    HW2 3522   5.545   4.172   2.452  0.5204  1.5786 -0.3337
  875SOL     OW 3523   4.965   5.898   2.213 -0.1949 -0.2631  0.0638
  875SOL    HW1 3524   4.878   5.934   2.178  0.8085  0.1151 -2.2276
  875SOL    HW2 3525   4.969   5.800   2.195  0.3074 -0.0745 -0.9194
  876SOL     OW 3526   6.051   1.933   0.600  0.5566  0.1885 -0.6142
  876SOL    HW1 3527   6.046   2.027   0.568 -1.4919  0.3680  0.0823
  876SOL    HW2 3528   6.099   1.877   0.532  1.4005  1.6169 -1.2457
  877SOL     OW 3529   6.550   3.342   6.502  0.4147  0.4079 -0.2621
  877SOL    HW1 3530   6.608   3.340   6.421 -0.1060  0.2374 -0.6340
  877SOL    HW2 3531   6.457   3.368   6.476  0.1536 -0.0247  0.2193
  878SOL     OW 3532   5.756   1.333   5.375 -0.4452 -0.4157  0.0684
  878SOL    HW1 3533   5.773   1.249   5.323  1.3531 -0.8018  1.1624
  878SOL    HW2 3534   5.658   1.349   5.382 -0.8936 -3.0109  0.6643
  879SOL     OW 3535   5.014   1.649   6.787 -0.3438 -0.0094  0.2865
  879SOL    HW1 3536   4.934   1.708   6.784  0.5190  1.3004  1.6388
  879SOL    HW2 3537   4.986   1.555   6.805 -1.5757  0.4575  0.8960
  880SOL     OW 3538   2.985   2.757   1.540 -0.8503  0.8986 -0.1541
  880SOL    HW1 3539   3.021   2.726   1.452 -0.1599  1.0370  0.0747
  880SOL    HW2 3540   2.973   2.856   1.538  1.0194  1.1580  0.5539
  881SOL     OW 3541   5.408   2.975   1.481  0.2174  0.1369  0.5764
  881SOL    HW1 3542   5.377   2.904   1.418  1.7139  0.2995 -0.3986
  881SOL    HW2 3543   5.413   2.938   1.574 -1.0402 -0.4088  0.4365
  882SOL     OW 3544   1.880   3.429   4.594 -0.0973  0.5078  0.0100
  882SOL    HW1 3545   1.843   3.438   4.501  0.3233  1.4015 -0.0861
  882SOL    HW2 3546   1.893   3.520   4.633 -1.2153  0.1346  1.3399
  883SOL     OW 3547   1.727   5.673   2.085 -0.2797  0.1177 -0.3496
  883SOL    HW1 3548   1.684   5.729   2.015 -1.1699  0.6141  0.5763
  883SOL    HW2 3549   1.657   5.622   2.135  0.2963  0.1361  0.4997
  884SOL     OW 3550   3.431   2.924   5.305  0.0589  0.4420  0.4635
  884SOL    HW1 3551   3.379   2.923   5.220  0.1610 -0.9256  0.3853
  884SOL    HW2 3552   3.527   2.904   5.285  0.0740  0.0607  0.9006
  885SOL     OW 3553   4.951   1.846   6.363  0.4226 -0.2328  1.0426
  885SOL    HW1 3554   4.992   1.924   6.316  0.7830 -0.1771  1.4448
  885SOL    HW2 3555   5.023   1.784   6.394  0.0981 -1.1999 -0.0695
  886SOL     OW 3556   4.525   1.606   1.765  0.3099 -0.2140 -0.2744
  886SOL    HW1 3557   4.552   1.516   1.730  0.0647 -1.2943  2.1030
  886SOL    HW2 3558   4.596   1.640   1.826  1.6494  2.5298 -3.0814
  887SOL     OW 3559   4.098   7.013   4.778  0.5430  0.0471  0.5717
  887SOL    HW1 3560   4.034   7.007   4.701  0.6438 -0.9711  0.5489
  887SOL    HW2 3561   4.094   7.105   4.818 -0.1178  0.3330 -0.1223
  888SOL     OW 3562   1.439   5.410   1.196 -0.9010  0.1217 -0.6757
  888SOL    HW1 3563   1.428   5.509   1.198  1.4290  0.4322  1.2838
  888SOL    HW2 3564   1.505   5.385   1.125 -2.8932 -0.3359 -2.5214
  889SOL     OW 3565   6.724   3.521   1.445  0.3014 -0.8426 -0.0241
  889SOL    HW1 3566   6.630   3.550   1.427  0.2740 -1.0652 -0.2406
  889SOL    HW2 3567   6.728   3.421   1.445  0.9013 -0.8604 -1.9546
  890SOL     OW 3568   2.601   6.533   3.612 -0.2135  0.1043 -0.5245
  890SOL    HW1 3569   2.511   6.575   3.600 -1.0517 -1.3456  0.3394
  890SOL    HW2 3570   2.602   6.481   3.697  1.3868 -0.0984 -0.6344
  891SOL     OW 3571   4.368   4.054   1.143 -0.0716  0.2285  0.2027
  891SOL    HW1 3572   4.419   4.092   1.066  0.0595  0.7025  0.5161
  891SOL    HW2 3573   4.354   3.956   1.129  0.2124  0.2521 -0.2763
  892SOL     OW 3574   2.930   4.126   7.001 -0.0620  0.3768  0.1326
  892SOL    HW1 3575   2.835   4.158   6.997  0.0302  0.5514 -1.2414
  892SOL    HW2 3576   2.966   4.139   7.093 -1.1204  1.0422  0.4704
  893SOL     OW 3577   5.764   4.428   1.319 -0.6768  0.2052 -0.5537
  893SOL    HW1 3578   5.783   4.483   1.400  0.1729 -2.0546  0.8982
  893SOL    HW2 3579   5.775   4.483   1.236 -0.0958  2.2090  0.8078
  894SOL     OW 3580   1.574   2.482   1.261 -0.5986  0.0709  0.1143
  894SOL    HW1 3581   1.613   2.432   1.184  1.1607 -0.0733  1.0552
  894SOL    HW2 3582   1.628   2.564   1.278 -2.2250  1.2282 -0.0921
  895SOL     OW 3583   0.399   5.377   4.604  0.3689  0.4771  1.1659
  895SOL    HW1 3584   0.303   5.398   4.586  0.9274  3.1633  0.8459
  895SOL    HW2 3585   0.415   5.379   4.703 -0.0396 -0.7922  1.2698
  896SOL     OW 3586   0.684   0.347   0.850 -0.2079  0.6499 -0.1173
  896SOL    HW1 3587   0.784   0.349   0.847 -0.0899 -2.0915  0.0419
  896SOL    HW2 3588   0.654   0.340   0.945 -0.6303  2.0899 -0.1133
  897SOL     OW 3589   6.061   0.680   1.050  0.4328  0.3550 -0.1568
  897SOL    HW1 3590   6.057   0.780   1.054  0.7614  0.3273  1.8073
  897SOL    HW2 3591   5.975   0.645   1.012  0.3394  1.3680 -0.9306
  898SOL     OW 3592   3.642   1.575   4.401 -0.2446  0.0171 -0.1953
  898SOL    HW1 3593   3.679   1.629   4.325 -0.8909  0.2989 -0.3184
  898SOL    HW2 3594   3.585   1.634   4.458 -0.9378 -0.5364 -0.3116
  899SOL     OW 3595   6.738   5.177   5.732 -0.2454 -0.4378  0.0031
  899SOL    HW1 3596   6.754   5.240   5.656  2.1552  0.6072  1.2679
  899SOL    HW2 3597   6.821   5.123   5.750 -0.8563 -0.9113  1.6443
  900SOL     OW 3598   5.050   3.704   3.061  0.2405 -0.0142  0.8788
  900SOL    HW1 3599   5.114   3.781   3.067 -0.2033  0.6052 -1.4407
  900SOL    HW2 3600   4.976   3.718   3.127  0.1193  1.6382  0.4422
  901SOL     OW 3601   1.488   0.362   2.756 -0.6015 -0.4769 -0.3552
  901SOL    HW1 3602   1.423   0.306   2.808 -0.9918  0.1603 -0.1388
  901SOL    HW2 3603   1.441   0.444   2.723  0.4579  0.7454  1.1005
  902SOL     OW 3604   0.846   6.154   2.665  0.2527 -0.5854  0.0273
  902SOL    HW1 3605   0.934   6.108   2.651 -0.5948 -2.1720 -0.3164
  902SOL    HW2 3606   0.792   6.103   2.731 -0.7127 -0.0577 -0.3357
  903SOL     OW 3607   5.207   1.857   6.769  0.0685 -0.3740 -0.1486
  903SOL    HW1 3608   5.142   1.782   6.778  1.0242 -1.3965 -1.4707
  903SOL    HW2 3609   5.167   1.929   6.712 -0.9613  0.2996  1.3606
  904SOL     OW 3610   3.059   6.025   4.184 -0.2013 -0.3196 -0.1433
  904SOL    HW1 3611   3.116   6.066   4.113 -0.4877 -1.6559 -1.1999
  904SOL    HW2 3612   3.073   6.073   4.270  2.4671 -0.5179 -0.3658
  905SOL     OW 3613   4.138   1.980   0.607  0.0744  0.4196  0.2366
  905SOL    HW1 3614   4.098   2.069   0.583  1.0703  1.3833  1.9695
  905SOL    HW2 3615   4.199   1.950   0.534  0.8949  1.9053  0.2758
  906SOL     OW 3616   5.908   2.216   1.786  0.0312 -0.1028  0.3648
  906SOL    HW1 3617   5.854   2.296   1.758 -1.6597 -1.8196 -1.6093
  906SOL    HW2 3618   5.965   2.186   1.709 -0.2229 -1.4790  0.6999
  907SOL     OW 3619   4.371   5.338   6.187  0.2538  0.0049 -0.5264
  907SOL    HW1 3620   4.299   5.291   6.237 -0.6221 -1.0054 -2.6243
  907SOL    HW2 3621   4.459   5.321   6.231 -0.4219 -1.0905  0.4633
  908SOL     OW 3622   2.834   1.959   3.991  0.0394 -0.6039 -0.0184
  908SOL    HW1 3623   2.818   1.907   3.907  3.0079 -0.4741 -0.7613
  908SOL    HW2 3624   2.746   1.986   4.030 -1.4652 -1.4022 -2.5926
  909SOL     OW 3625   5.823   5.860   5.339  0.3770  0.2289 -0.3305
  909SOL    HW1 3626   5.826   5.825   5.432 -0.0832  2.4146  0.5744
  909SOL    HW2 3627   5.744   5.821   5.292 -1.8783  2.1035  1.6012
  910SOL     OW 3628   3.136   5.058   6.651 -0.1470  0.1466  0.4152
  910SOL    HW1 3629   3.159   5.137   6.594  1.0003 -0.6788 -0.3022
  910SOL    HW2 3630   3.038   5.058   6.670 -0.3025  1.2583 -0.2990
  911SOL     OW 3631   2.427   5.744   5.502  0.4947 -0.3108 -0.6759
  911SOL    HW1 3632   2.398   5.668   5.560 -0.2034 -0.2410 -0.9287
  911SOL    HW2 3633   2.419   5.718   5.405 -1.7579  0.7708 -0.8321
  912SOL     OW 3634   4.978   1.000   6.030  0.0881  0.5032  0.1983
  912SOL    HW1 3635   5.072   0.967   6.028  0.9564  2.7951 -0.3379
  912SOL    HW2 3636   4.945   1.014   5.937 -0.1916  1.1900  0.3895
  913SOL     OW 3637   0.983   6.174   4.304  0.1145 -0.0937  0.4786
  913SOL    HW1 3638   0.924   6.099   4.277  1.2827 -0.7978 -0.2094
  913SOL    HW2 3639   0.986   6.181   4.404  0.9126 -1.7559  0.6064
  914SOL     OW 3640   0.574   5.884   4.979 -0.3133 -0.1959 -1.0029
  914SOL    HW1 3641   0.519   5.933   5.046 -0.3600 -0.4000 -0.8883
  914SOL    HW2 3642   0.625   5.949   4.923  0.2824 -0.0402 -0.2964
  915SOL     OW 3643   5.793   6.045   3.619 -0.1869  0.5476  0.2202
  915SOL    HW1 3644   5.838   6.119   3.569 -2.3134  0.8254 -1.4218
  915SOL    HW2 3645   5.713   6.014   3.568  0.8796 -3.3027  0.5155
  916SOL     OW 3646   1.174   4.597   2.827  0.2254  0.4297  0.0489
  916SOL    HW1 3647   1.252   4.534   2.828  0.2985  0.5101  1.0775
  916SOL    HW2 3648   1.141   4.608   2.733  0.8215 -0.3785 -0.2703
  917SOL     OW 3649   5.320   0.776   5.501  0.6961  0.1998  0.1729
  917SOL    HW1 3650   5.420   0.773   5.499  0.6893 -2.3426 -0.0009
  917SOL    HW2 3651   5.284   0.685   5.524 -1.5983  0.7195 -1.0093
  918SOL     OW 3652   3.056   6.707   4.154  0.2373  0.5898  0.1628
  918SOL    HW1 3653   3.063   6.790   4.099  0.1888 -0.4723 -1.5186
  918SOL    HW2 3654   2.967   6.664   4.138  1.1034 -0.9446 -0.7700
  919SOL     OW 3655   2.970   0.138   6.137  0.2510  0.2348  0.1638
  919SOL    HW1 3656   2.889   0.119   6.193 -0.5810 -0.1823 -1.1501
  919SOL    HW2 3657   3.033   0.196   6.189  0.8133 -2.3396  2.6323
  920SOL     OW 3658   2.149   4.446   1.879 -0.4384 -0.6023  0.1390
  920SOL    HW1 3659   2.084   4.434   1.954  0.7138 -0.0661  1.2649
  920SOL    HW2 3660   2.161   4.544   1.861  0.2767 -0.6863  0.1397
  921SOL     OW 3661   4.610   5.399   6.737  0.6126 -0.0866 -0.2096
  921SOL    HW1 3662   4.668   5.335   6.787 -1.9713 -2.5863 -0.1930
  921SOL    HW2 3663   4.629   5.390   6.639 -0.3823 -1.6496 -0.2860
  922SOL     OW 3664   3.476   3.436   2.585  0.1023 -0.3062 -0.7290
  922SOL    HW1 3665   3.379   3.413   2.577 -0.0224  0.6097 -2.0851
  922SOL    HW2 3666   3.500   3.445   2.682 -1.1750 -0.4944 -0.3819
  923SOL     OW 3667   2.526   5.158   6.607 -0.2354  0.4891  0.0425
  923SOL    HW1 3668   2.503   5.081   6.547 -0.2294  0.5268 -0.0091
  923SOL    HW2 3669   2.467   5.236   6.585  1.4162  1.3568 -1.6417
  924SOL     OW 3670   1.696   1.023   0.892 -0.2903  0.2362  0.2749
  924SOL    HW1 3671   1.733   1.113   0.915 -0.5426 -0.0797  2.0738
  924SOL    HW2 3672   1.598   1.021   0.910 -0.2973 -0.3869  0.2033
  925SOL     OW 3673   0.910   2.098   6.496  0.1621 -0.4031 -0.0684
  925SOL    HW1 3674   0.935   2.022   6.435  0.3703  0.0111 -0.5105
  925SOL    HW2 3675   0.989   2.122   6.553 -0.3102 -1.4065  1.0510
  926SOL     OW 3676   3.167   3.236   2.278 -0.3250  0.1174  0.6686
  926SOL    HW1 3677   3.170   3.136   2.283 -2.1267  0.0775  1.5679
  926SOL    HW2 3678   3.084   3.270   2.321  0.5870  2.0727  1.0384
  927SOL     OW 3679   0.229   2.678   0.042 -0.2072  0.1979  0.4318
  927SOL    HW1 3680   0.286   2.608   0.084 -0.4859 -0.3896 -0.1497
  927SOL    HW2 3681   0.160   2.709   0.108  0.3328  0.4124  0.9060
  928SOL     OW 3682   3.402   6.590   5.909 -0.6590  0.0096  0.1312
  928SOL    HW1 3683   3.438   6.643   5.985 -1.7624  1.7124 -0.4835
  928SOL    HW2 3684   3.327   6.640   5.865 -0.3556 -1.1169 -1.8060
  929SOL     OW 3685   2.741   2.712   5.743  0.1638  0.2379  0.1108
  929SOL    HW1 3686   2.776   2.765   5.820  0.4680  1.0904 -0.5930
  929SOL    HW2 3687   2.700   2.774   5.676  1.6324 -0.2766 -1.3145
  930SOL     OW 3688   5.226   4.302   5.417 -0.0527  0.6894  0.0583
  930SOL    HW1 3689   5.178   4.250   5.346  0.2170  1.3586 -0.6244
  930SOL    HW2 3690   5.324   4.295   5.402  0.0073  0.7966  0.4000
  931SOL     OW 3691   5.617   0.435   3.382 -0.8871 -0.0875  0.7328
  931SOL    HW1 3692   5.584   0.340   3.376 -0.7864 -0.0512 -0.8195
  931SOL    HW2 3693   5.712   0.436   3.412 -0.7564 -0.5089  0.3426
  932SOL     OW 3694   4.898   5.240   4.807  0.3719  0.1470 -0.0718
  932SOL    HW1 3695   4.937   5.253   4.898 -0.0175  4.0136 -0.2937
  932SOL    HW2 3696   4.958   5.182   4.752  1.4752 -0.8618  2.0861
  933SOL     OW 3697   2.111   0.250   6.919  0.5761  0.6847 -0.2355
  933SOL    HW1 3698   2.029   0.253   6.977 -1.0093 -1.1608 -2.2205
  933SOL    HW2 3699   2.109   0.326   6.854  1.2193  1.4712  0.6408
  934SOL     OW 3700   1.713   4.119   1.022 -0.5413  0.4564  0.2660
  934SOL    HW1 3701   1.646   4.187   0.992 -0.5056  1.0955  1.5831
  934SOL    HW2 3702   1.710   4.111   1.121  1.6903  0.8936  0.4122
  935SOL     OW 3703   4.948   1.576   5.896  0.2546  0.5490 -0.3501
  935SOL    HW1 3704   4.935   1.572   5.995 -0.2422 -0.5519 -0.4465
  935SOL    HW2 3705   4.931   1.485   5.856  2.3029  0.4868 -1.2154
  936SOL     OW 3706   6.797   3.184   6.965  0.2258 -0.2560  0.1579
  936SOL    HW1 3707   6.750   3.168   6.878  0.8846  1.5957 -0.5963
  936SOL    HW2 3708   6.893   3.155   6.957  0.4259  0.4068  0.0586
  937SOL     OW 3709   3.105   3.269   6.393 -0.0174 -0.4301  0.0350
  937SOL    HW1 3710   3.020   3.259   6.341 -0.5580 -0.4592  0.9072
  937SOL    HW2 3711   3.160   3.342   6.352 -1.0270  0.4457  0.1806
  938SOL     OW 3712   4.873   0.881   4.015 -0.2031 -0.2425 -0.0722
  938SOL    HW1 3713   4.820   0.931   3.946 -1.3424 -0.4050  0.6630
  938SOL    HW2 3714   4.967   0.917   4.017 -0.0827 -0.3642 -1.8197
  939SOL     OW 3715   1.905   5.502   3.596  0.2328  0.0103  0.4237
  939SOL    HW1 3716   1.821   5.449   3.591 -0.1750  0.7047 -0.4272
  939SOL    HW2 3717   1.946   5.493   3.687 -0.7447 -0.3505  0.8337
  940SOL     OW 3718   1.481   4.719   6.046  0.5441  0.0967  0.2514
  940SOL    HW1 3719   1.567   4.710   5.996 -0.2080 -0.5463 -0.9894
  940SOL    HW2 3720   1.407   4.679   5.992 -0.7478  1.6882  0.7423
  941SOL     OW 3721   4.200   6.194   1.993  0.3690  0.6485  0.3023
  941SOL    HW1 3722   4.225   6.290   1.984 -1.5007  1.0027 -1.6863
  941SOL    HW2 3723   4.264   6.137   1.940 -0.5622  1.1603 -1.4288
  942SOL     OW 3724   5.810   4.077   0.219  0.5820 -0.6458 -0.3566
  942SOL    HW1 3725   5.790   4.100   0.124 -0.1071  0.4053  0.0316
  942SOL    HW2 3726   5.831   4.160   0.270  0.8239 -1.1882  0.4493
  943SOL     OW 3727   2.826   0.016   1.150  0.7183 -0.0774  0.0283
  943SOL    HW1 3728   2.785  -0.065   1.192  2.1186 -0.5095  0.6080
  943SOL    HW2 3729   2.845  -0.002   1.054 -1.1898  0.4253 -0.4840
  944SOL     OW 3730   5.963   5.590   3.535 -0.5816  0.1716  0.5990
  944SOL    HW1 3731   6.052   5.622   3.504 -0.3876  0.7209  1.7018
  944SOL    HW2 3732   5.975   5.519   3.604 -1.0138 -1.0196 -0.4921
  945SOL     OW 3733   0.502   4.668   6.136  0.3098 -0.2325  0.2217
  945SOL    HW1 3734   0.465   4.589   6.185 -2.6587  0.0539 -1.3527
  945SOL    HW2 3735   0.461   4.752   6.171  0.3439  0.2333 -0.8306
  946SOL     OW 3736   0.249   2.215   3.029 -0.4035 -0.1280  0.2983
  946SOL    HW1 3737   0.330   2.158   3.024 -0.1004  0.2059  1.2654
  946SOL    HW2 3738   0.275   2.308   3.056 -1.2354 -0.3521  2.0175
  947SOL     OW 3739   3.021   3.669   4.014 -0.0429  0.6415  0.0244
  947SOL    HW1 3740   3.045   3.751   4.066  2.6147 -0.3778  0.5326
  947SOL    HW2 3741   2.967   3.696   3.934 -0.4800  2.7019  0.9445
  948SOL     OW 3742   3.660   0.827   3.412  0.4227 -0.3860  0.4419
  948SOL    HW1 3743   3.692   0.833   3.507 -2.5932 -1.1519  1.6519
  948SOL    HW2 3744   3.643   0.731   3.389 -0.9302 -0.0531 -0.0570
  949SOL     OW 3745   0.298   0.658   4.718 -0.0582 -0.1199 -0.3198
  949SOL    HW1 3746   0.208   0.697   4.733 -0.2055 -0.6382  0.1247
  949SOL    HW2 3747   0.290   0.564   4.684  0.2960  0.2316 -1.4256
  950SOL     OW 3748   1.666   1.092   1.338  0.3601 -0.5348  0.8319
  950SOL    HW1 3749   1.754   1.045   1.333 -0.1007 -1.2739 -1.9404
  950SOL    HW2 3750   1.593   1.030   1.309 -0.4248  1.3870 -1.7659
  951SOL     OW 3751   2.135   0.658   2.732  0.2057 -0.3727  0.5773
  951SOL    HW1 3752   2.112   0.755   2.731  0.1823 -0.3791  0.4860
  951SOL    HW2 3753   2.054   0.605   2.705  0.1225 -0.4354  0.9379
  952SOL     OW 3754   2.515   1.790   3.208  0.0333 -0.3507 -0.4017
  952SOL    HW1 3755   2.586   1.786   3.139 -1.3405  0.3561 -1.9262
  952SOL    HW2 3756   2.501   1.884   3.238  0.8937 -0.6942  1.1890
  953SOL     OW 3757   5.021   5.086   6.912 -0.1260  0.2592  0.0145
  953SOL    HW1 3758   4.932   5.125   6.890  0.5201  1.0425 -1.3169
  953SOL    HW2 3759   5.055   5.127   6.997 -0.6864  0.5163  0.1218
  954SOL     OW 3760   4.021   0.087   1.688  0.0765 -0.3030  0.1719
  954SOL    HW1 3761   4.029  -0.009   1.712  0.0961 -0.2675  0.3124
  954SOL    HW2 3762   3.995   0.096   1.592 -0.4719 -0.4583  0.3022
  955SOL     OW 3763   3.566   6.429   0.726  0.9332 -0.8888 -0.1186
  955SOL    HW1 3764   3.558   6.343   0.675 -0.2747 -0.9724  0.1635
  955SOL    HW2 3765   3.529   6.416   0.818  0.0259  0.1212 -0.3183
  956SOL     OW 3766   3.974   0.345   2.372  0.3983 -0.3030  0.4980
  956SOL    HW1 3767   4.003   0.280   2.301  1.3013 -0.5784  1.1029
  956SOL    HW2 3768   3.972   0.298   2.460  0.4981  0.3560  0.8510
  957SOL     OW 3769   6.276   5.882   3.945 -0.5072 -0.2660 -0.0799
  957SOL    HW1 3770   6.365   5.889   3.991 -1.3607  0.5962  1.5578
  957SOL    HW2 3771   6.261   5.787   3.917  1.0588 -0.3631 -0.7060
  958SOL     OW 3772   5.735   5.655   3.180  0.2357 -0.6133 -0.4101
  958SOL    HW1 3773   5.784   5.588   3.123  1.7593 -0.4712  0.6621
  958SOL    HW2 3774   5.644   5.670   3.143  1.1106 -0.6392 -2.7039
  959SOL     OW 3775   6.525   6.153   0.936  0.3709  0.4171 -0.0063
  959SOL    HW1 3776   6.439   6.118   0.899  0.2199 -0.2577  0.9575
  959SOL    HW2 3777   6.570   6.082   0.990  0.0767  1.6337  1.9484
  960SOL     OW 3778   6.972   5.836   5.094  0.0674  0.3394  0.6847
  960SOL    HW1 3779   6.973   5.815   4.996  0.5257 -1.4356  1.0345
  960SOL    HW2 3780   7.044   5.902   5.115 -0.0156  0.7137 -0.1568
  961SOL     OW 3781   5.571   1.442   4.905  0.0176 -0.3268  0.3336
  961SOL    HW1 3782   5.575   1.381   4.827 -1.3836  2.4379 -2.1074
  961SOL    HW2 3783   5.649   1.504   4.904 -0.7133  0.6285  0.2744
  962SOL     OW 3784   6.019   1.067   3.779 -0.6900  0.2079  0.2846
  962SOL    HW1 3785   6.078   0.988   3.792 -0.0901  0.6197  0.0925
  962SOL    HW2 3786   5.929   1.049   3.819 -0.3893 -0.3680  0.7026
  963SOL     OW 3787   0.252   1.317   3.177 -0.0581  0.3342  0.1363
  963SOL    HW1 3788   0.271   1.394   3.116  0.0734 -1.0619 -1.6766
  963SOL    HW2 3789   0.155   1.317   3.202  0.0518  1.3796  0.5927
  964SOL     OW 3790   3.776   6.427   4.464 -0.5148 -0.4397  0.1364
  964SOL    HW1 3791   3.796   6.406   4.559 -1.6841 -1.3936  0.1976
  964SOL    HW2 3792   3.827   6.366   4.404  0.5380  0.4284  0.1095
  965SOL     OW 3793   5.374   6.548   3.608 -0.2997 -0.5324  0.1108
  965SOL    HW1 3794   5.281   6.513   3.603  0.1557 -1.7123 -0.6087
  965SOL    HW2 3795   5.437   6.473   3.631  0.5678  0.0723 -0.2201
  966SOL     OW 3796   4.837   3.681   4.143  0.1647  0.0839  0.0925
  966SOL    HW1 3797   4.879   3.598   4.105  0.8686  0.7689 -0.6523
  966SOL    HW2 3798   4.828   3.671   4.242  0.9152 -0.5953  0.1028
  967SOL     OW 3799   5.080   4.492   0.188  0.1783  0.3234 -0.4642
  967SOL    HW1 3800   4.994   4.543   0.196 -0.1948 -0.1081 -1.5966
  967SOL    HW2 3801   5.147   4.546   0.137 -0.3944 -0.4775 -2.1484
  968SOL     OW 3802   4.136   5.681   2.143 -0.3289 -0.4508  0.2136
  968SOL    HW1 3803   4.159   5.727   2.058 -2.1525 -0.1681 -0.1850
  968SOL    HW2 3804   4.168   5.587   2.141  1.9510  0.2778  0.3323
  969SOL     OW 3805   4.293   3.348   0.641  0.1791  0.1769 -0.1879
  969SOL    HW1 3806   4.302   3.273   0.575  0.1557  0.4175 -0.4715
  969SOL    HW2 3807   4.198   3.355   0.671 -0.3023  1.4599 -1.8322
  970SOL     OW 3808   2.297   0.188   0.580  0.3695 -0.1705 -0.1602
  970SOL    HW1 3809   2.357   0.210   0.503  0.8804 -2.1168 -0.3886
  970SOL    HW2 3810   2.315   0.094   0.610 -1.1250 -0.0843  1.1388
  971SOL     OW 3811   6.914   3.693   2.120 -0.2708  0.3896  0.2287
  971SOL    HW1 3812   6.898   3.710   2.023  1.2346 -2.8930 -0.7555
  971SOL    HW2 3813   6.993   3.746   2.151  0.3297  0.1686 -0.8739
  972SOL     OW 3814   1.331   1.703   6.901  0.1401  0.0987 -0.7920
  972SOL    HW1 3815   1.346   1.635   6.829  1.0475 -0.7891  0.2078
  972SOL    HW2 3816   1.410   1.764   6.906  0.7720 -0.7782  0.4194
  973SOL     OW 3817   1.166   4.813   5.425 -0.1846  0.0099 -1.0768
  973SOL    HW1 3818   1.070   4.810   5.399 -0.6137  0.6430  0.3355
  973SOL    HW2 3819   1.194   4.908   5.439 -0.7431 -0.2357  3.1266
  974SOL     OW 3820   3.085   4.145   1.610 -0.8077  0.1951  0.1460
  974SOL    HW1 3821   3.022   4.100   1.672  1.3236 -1.9443  0.9015
  974SOL    HW2 3822   3.147   4.077   1.571  0.5474  2.0853 -1.1373
  975SOL     OW 3823   5.430   6.326   0.522 -0.3197  0.2724 -0.1430
  975SOL    HW1 3824   5.374   6.279   0.453  0.0842  1.1614 -1.1001
  975SOL    HW2 3825   5.377   6.398   0.565  0.0409  1.0823 -1.0151
  976SOL     OW 3826   0.421   2.087   4.119  0.0906 -0.2659 -0.4475
  976SOL    HW1 3827   0.406   2.168   4.063 -0.4554 -0.5247 -0.6827
  976SOL    HW2 3828   0.426   2.006   4.061 -2.9651 -0.8812 -0.0210
  977SOL     OW 3829   1.174   1.136   6.867  0.1398 -0.0867  0.1131
  977SOL    HW1 3830   1.136   1.229   6.870  1.1112  0.3153  0.6421
  977SOL    HW2 3831   1.103   1.071   6.842 -0.4474  0.8623 -0.7402
  978SOL     OW 3832   6.137   2.427   1.251 -0.4269 -0.0626 -0.5375
  978SOL    HW1 3833   6.151   2.328   1.258  1.7823  0.3054  1.7740
  978SOL    HW2 3834   6.101   2.462   1.337 -4.0650  0.8861 -2.2494
  979SOL     OW 3835   0.238   4.357   0.292  0.1456  0.2850  0.2103
  979SOL    HW1 3836   0.304   4.284   0.312  0.4970  0.2417 -1.0157
  979SOL    HW2 3837   0.276   4.444   0.321  0.4866  0.1884  0.0630
  980SOL     OW 3838   3.343   2.142   4.240  0.1449  0.5280  0.0390
  980SOL    HW1 3839   3.400   2.204   4.294 -0.0064  0.5923  0.1234
  980SOL    HW2 3840   3.247   2.156   4.262  0.1769 -0.6048  0.9694
  981SOL     OW 3841   0.863   5.920   6.150  0.4307  0.4851 -0.3875
  981SOL    HW1 3842   0.801   5.895   6.225  3.6405 -1.5716  1.8474
  981SOL    HW2 3843   0.844   5.862   6.071  0.2360 -1.0048  0.6934
  982SOL     OW 3844   1.593   3.156   0.961  0.4416 -0.0139 -0.2938
  982SOL    HW1 3845   1.680   3.107   0.971  1.1696  1.4038  0.7384
  982SOL    HW2 3846   1.593   3.235   1.023 -2.0388 -0.6001  0.5398
  983SOL     OW 3847   6.876   3.429   1.859 -0.3389  0.1222 -0.2014
  983SOL    HW1 3848   6.898   3.454   1.764 -1.8400 -0.3847 -0.7066
  983SOL    HW2 3849   6.793   3.476   1.887 -0.8614 -1.0488  0.2754
  984SOL     OW 3850   1.314   3.647   5.966  0.5705 -0.2241 -0.1014
  984SOL    HW1 3851   1.361   3.666   6.052  0.7376 -1.4335  0.0960
  984SOL    HW2 3852   1.264   3.561   5.973  0.0350 -0.0026 -1.0016
  985SOL     OW 3853   5.077   5.705   5.517  0.1825 -0.4875  0.1598
  985SOL    HW1 3854   5.118   5.758   5.443  0.5152 -0.4457  0.3686
  985SOL    HW2 3855   5.006   5.760   5.561 -0.7252 -0.8975 -0.7772
  986SOL     OW 3856   3.094   6.039   6.278  0.1825  0.2118 -0.3678
  986SOL    HW1 3857   3.028   6.110   6.301 -2.5128 -2.1170 -0.2959
  986SOL    HW2 3858   3.157   6.072   6.208  0.0707  3.0986  0.7678
  987SOL     OW 3859   5.084   5.432   4.430  0.2769  0.1599  0.6894
  987SOL    HW1 3860   5.113   5.353   4.484 -0.2132 -0.2718  0.3250
  987SOL    HW2 3861   5.118   5.423   4.337 -2.3038 -1.1671 -0.2098
  988SOL     OW 3862   1.693   3.439   0.882 -0.3864  0.5548 -0.3726
  988SOL    HW1 3863   1.627   3.443   0.957  0.3299  0.6420  0.2650
  988SOL    HW2 3864   1.744   3.525   0.878  0.8371 -0.1187  0.2102
  989SOL     OW 3865   6.861   0.109   1.391 -0.6085 -0.0838  0.6860
  989SOL    HW1 3866   6.882   0.061   1.476 -1.2069  1.0372  1.4975
  989SOL    HW2 3867   6.921   0.076   1.318  2.2374  1.1666  2.2906
  990SOL     OW 3868   4.075   0.261   5.836 -1.1322 -0.1357  0.0031
  990SOL    HW1 3869   4.158   0.266   5.779 -0.6888  0.2232  0.6707
  990SOL    HW2 3870   4.075   0.337   5.901 -0.0288 -2.2356  2.6424
  991SOL     OW 3871   2.391   6.175   3.209 -0.5338 -0.4316 -0.3394
  991SOL    HW1 3872   2.374   6.274   3.211  1.1371 -0.1178  1.7112
  991SOL    HW2 3873   2.413   6.146   3.116 -2.1653  0.8880 -1.1800
  992SOL     OW 3874   5.786   4.948   2.536 -0.0761  0.0822 -0.4643
  992SOL    HW1 3875   5.722   4.872   2.539 -0.1102  0.1247 -0.0669
  992SOL    HW2 3876   5.867   4.926   2.589 -0.3331  0.5434  0.1355
  993SOL     OW 3877   3.294   6.490   0.515 -0.6182 -0.4654 -0.0808
  993SOL    HW1 3878   3.210   6.535   0.545 -0.0835  0.8883 -0.5243
  993SOL    HW2 3879   3.354   6.475   0.593 -0.5550  0.1749  0.0057
  994SOL     OW 3880   3.760   4.899   2.732 -0.9367  0.3318 -0.6095
  994SOL    HW1 3881   3.814   4.860   2.657 -0.2496 -2.1363  1.0427
  994SOL    HW2 3882   3.805   4.981   2.766  2.1255 -1.7633  0.8764
  995SOL     OW 3883   6.502   4.042   4.417  0.5491  0.6389 -0.1667
  995SOL    HW1 3884   6.528   3.959   4.466 -0.3529  0.6361  0.3321
  995SOL    HW2 3885   6.569   4.061   4.345  0.7342 -0.5461 -0.3298
  996SOL     OW 3886   3.711   0.003   6.542 -0.0747  0.4959  0.1544
  996SOL    HW1 3887   3.690  -0.094   6.529  1.5271  0.0436  0.6905
  996SOL    HW2 3888   3.713   0.023   6.640  0.2363  0.9201  0.0643
  997SOL     OW 3889   2.029   0.647   3.005 -0.6065 -0.2650 -0.0167
  997SOL    HW1 3890   1.930   0.643   2.993 -0.5403 -0.1185 -0.6487
  997SOL    HW2 3891   2.074   0.619   2.921 -0.1201  0.7100 -0.0957
  998SOL     OW 3892   3.795   4.898   2.116  0.0981 -0.2145 -0.2588
  998SOL    HW1 3893   3.858   4.827   2.147  0.2424 -0.5815 -1.3405
  998SOL    HW2 3894   3.720   4.856   2.065 -0.8112  0.2576  0.6438
  999SOL     OW 3895   0.452   2.029   3.003 -0.0596 -0.3250  0.2648
  999SOL    HW1 3896   0.517   2.000   3.074 -0.3412  0.2684  0.7866
  999SOL    HW2 3897   0.387   1.956   2.984  0.2396 -0.6163  0.3660
 1000SOL     OW 3898   0.254   0.001   3.160 -0.5754  0.3590  0.4908
 1000SOL    HW1 3899   0.315  -0.020   3.237  0.0310  0.3642  0.0209
 1000SOL    HW2 3900   0.309   0.018   3.078 -1.2247  0.0812 -0.0105
 1001SOL     OW 3901   2.804   6.673   1.983  0.2224 -0.1729  0.1844
 1001SOL    HW1 3902   2.827   6.686   1.886 -0.1383 -1.9775 -0.1776
 1001SOL    HW2 3903   2.875   6.715   2.039  1.6235 -1.0237 -0.8824
 1002SOL     OW 3904   5.980   3.070   1.880  0.6082 -0.0920 -0.0260
 1002SOL    HW1 3905   6.021   3.159   1.898 -0.1402  0.1276  0.6479
 1002SOL    HW2 3906   5.955   3.027   1.966  0.8678 -0.9135 -0.3522
 1003SOL     OW 3907   2.244   0.891   5.180  0.1642  0.0709 -0.1020
 1003SOL    HW1 3908   2.149   0.902   5.150 -0.0674 -2.6690 -0.5522
 1003SOL    HW2 3909   2.297   0.970   5.148 -1.7558  1.2743 -0.5386
 1004SOL     OW 3910   4.796   0.044   4.686 -0.3366 -0.1684 -0.7479
 1004SOL    HW1 3911   4.804   0.143   4.690  2.7433 -0.3300  0.8782
 1004SOL    HW2 3912   4.766   0.009   4.775  0.9017 -0.7490 -0.5308
 1005SOL     OW 3913   0.512   6.580   2.255 -0.2248 -0.3741 -0.5916
 1005SOL    HW1 3914   0.546   6.536   2.338 -0.4555 -0.9954 -0.8246
 1005SOL    HW2 3915   0.583   6.640   2.218  1.1303 -2.5032 -1.7017
 1006SOL     OW 3916   1.578   4.338   2.487  0.4727  0.0846 -0.3109
 1006SOL    HW1 3917   1.653   4.312   2.548  0.3692 -0.6088 -0.4711
 1006SOL    HW2 3918   1.609   4.335   2.392  0.0764 -0.8396 -0.4232
 1007SOL     OW 3919   3.488   1.526   6.386  0.3789  0.2236 -0.0944
 1007SOL    HW1 3920   3.453   1.620   6.387  1.8526  0.7895  0.8474
 1007SOL    HW2 3921   3.586   1.526   6.403  0.4831 -1.4841 -0.4486
 1008SOL     OW 3922   1.491   4.487   4.467 -0.4863  0.2322 -0.0093
 1008SOL    HW1 3923   1.500   4.403   4.415  0.5538  0.8022 -0.7896
 1008SOL    HW2 3924   1.513   4.470   4.563 -0.4514 -0.4104 -0.1295
 1009SOL     OW 3925   5.426   6.236   4.952  0.5310 -0.0290 -0.3802
 1009SOL    HW1 3926   5.428   6.333   4.928 -0.0539  0.0926  0.0613
 1009SOL    HW2 3927   5.430   6.226   5.051  1.2635 -0.4837 -0.4430
 1010SOL     OW 3928   2.152   2.752   6.940 -0.4118 -0.0051  0.4615
 1010SOL    HW1 3929   2.138   2.701   7.025 -2.1385  0.3811  0.4546
 1010SOL    HW2 3930   2.137   2.691   6.862 -2.4583  0.4388  0.4534
 1011SOL     OW 3931   1.236   5.268   3.055 -0.3618  0.0441  0.3822
 1011SOL    HW1 3932   1.158   5.242   3.111  0.0919 -1.1282  0.5004
 1011SOL    HW2 3933   1.209   5.270   2.959 -0.4062 -0.9985  0.3569
 1012SOL     OW 3934   6.228   6.891   3.955 -0.6354  0.4849  0.6411
 1012SOL    HW1 3935   6.294   6.821   3.982  1.0690  1.4237 -0.8946
 1012SOL    HW2 3936   6.273   6.980   3.948 -2.1458  1.2424 -0.1292
 1013SOL     OW 3937   0.499   2.420   6.592  0.2428  0.5616  0.5616
 1013SOL    HW1 3938   0.422   2.396   6.651 -0.4339  0.0710 -0.4825
 1013SOL    HW2 3939   0.465   2.470   6.512  1.0796  0.7815  0.3327
 1014SOL     OW 3940   0.852   3.833   4.382 -0.3291 -0.2628 -0.0475
 1014SOL    HW1 3941   0.840   3.744   4.339  0.1150 -0.3577  0.0222
 1014SOL    HW2 3942   0.949   3.855   4.387 -0.4745  0.7540 -1.1390
 1015SOL     OW 3943   6.334   0.348   5.882 -0.0586  0.4451  0.0887
 1015SOL    HW1 3944   6.239   0.377   5.875 -0.6798 -1.5131 -0.2798
 1015SOL    HW2 3945   6.391   0.404   5.823 -1.1604  0.9291 -0.5384
 1016SOL     OW 3946   6.957   4.973   2.548 -0.3809 -0.5609  0.2704
 1016SOL    HW1 3947   6.983   4.970   2.451  0.8880 -0.1852  0.5816
 1016SOL    HW2 3948   6.998   4.896   2.596  1.0119  0.5484  0.9505
 1017SOL     OW 3949   0.525   5.275   1.312  0.5574  0.4569  0.0963
 1017SOL    HW1 3950   0.512   5.269   1.411  0.8110 -1.8700  0.0456
 1017SOL    HW2 3951   0.436   5.282   1.267  0.4383  1.4647  0.4801
 1018SOL     OW 3952   4.135   6.300   6.301  0.1995 -0.2051 -0.0313
 1018SOL    HW1 3953   4.065   6.371   6.295  1.0592  0.7119  0.7175
 1018SOL    HW2 3954   4.104   6.219   6.250 -1.7432 -0.1048  0.8899
 1019SOL     OW 3955   5.061   3.180   2.782 -0.2081 -0.1571 -0.3394
 1019SOL    HW1 3956   4.981   3.163   2.838  0.0405 -1.6007 -0.3980
 1019SOL    HW2 3957   5.041   3.156   2.687 -0.1073  0.7368 -0.6023
 1020SOL     OW 3958   4.997   2.261   2.194  0.2197 -0.1224 -0.3230
 1020SOL    HW1 3959   4.995   2.179   2.137  0.4949 -0.4133  0.0780
 1020SOL    HW2 3960   4.927   2.254   2.264  1.6056 -1.0068  1.0401
 1021SOL     OW 3961   0.719   6.113   1.236 -0.4923 -0.2928  0.4902
 1021SOL    HW1 3962   0.693   6.031   1.186 -2.7597  0.7053 -0.1016
 1021SOL    HW2 3963   0.731   6.189   1.172 -3.1272  0.9302  1.2987
 1022SOL     OW 3964   1.748   6.368   2.865  0.2492  0.4703  0.0304
 1022SOL    HW1 3965   1.759   6.433   2.941  0.8301 -1.5809  1.8234
 1022SOL    HW2 3966   1.726   6.278   2.902  0.4370 -0.5984 -2.2883
 1023SOL     OW 3967   2.242   2.389   3.301  0.0208 -0.1462 -0.2162
 1023SOL    HW1 3968   2.152   2.346   3.302 -0.9372  1.7277  0.3439
 1023SOL    HW2 3969   2.306   2.334   3.354 -1.6548  0.0559  2.2106
 1024SOL     OW 3970   1.887   3.452   4.013 -0.2312  0.7408 -0.6917
 1024SOL    HW1 3971   1.882   3.420   3.919  0.1582 -0.9001 -0.1984
 1024SOL    HW2 3972   1.971   3.504   4.026 -0.9865  2.2274 -1.5821
 1025SOL     OW 3973   5.709   3.450   1.593 -0.3922 -0.5374  0.4009
 1025SOL    HW1 3974   5.743   3.366   1.551  2.6922  0.6324  0.3142
 1025SOL    HW2 3975   5.643   3.427   1.664 -2.5879 -2.7750 -2.1223
 1026SOL     OW 3976   2.605   2.808   0.983  0.0711  0.5514  0.2412
 1026SOL    HW1 3977   2.606   2.846   0.891  0.1223 -2.1970 -0.9937
 1026SOL    HW2 3978   2.699   2.797   1.016  0.2124 -0.9999 -0.5788
 1027SOL     OW 3979   4.976   0.458   0.370 -0.5240  0.1438  0.3226
 1027SOL    HW1 3980   5.075   0.470   0.365 -0.4713 -0.6766 -0.8729
 1027SOL    HW2 3981   4.933   0.545   0.397  0.5605  0.2812  1.7264
 1028SOL     OW 3982   1.140   6.220   4.874  0.4671  0.5599 -0.3141
 1028SOL    HW1 3983   1.080   6.300   4.875 -0.5373 -0.1809  0.2020
 1028SOL    HW2 3984   1.201   6.225   4.795  0.9393  2.1928  0.1016
 1029SOL     OW 3985   6.635   5.852   5.509 -0.3042  0.0078  0.2680
 1029SOL    HW1 3986   6.722   5.832   5.465  0.9253 -0.4551  2.7009
 1029SOL    HW2 3987   6.560   5.823   5.450  1.2216 -1.5882 -0.9981
 1030SOL     OW 3988   5.415   2.935   0.891 -0.1470 -0.1653  0.1656
 1030SOL    HW1 3989   5.486   2.879   0.932 -0.2222 -0.8485 -0.5978
 1030SOL    HW2 3990   5.426   2.934   0.791 -0.3817  0.8722  0.1207
 1031SOL     OW 3991   4.220   4.676   5.601  0.1662 -0.3599  0.0417
 1031SOL    HW1 3992   4.316   4.648   5.612  0.8344  2.2715  1.6504
 1031SOL    HW2 3993   4.162   4.612   5.652  0.9545 -2.1789 -1.2052
 1032SOL     OW 3994   1.320   0.569   0.646 -0.1962 -0.4141 -0.2863
 1032SOL    HW1 3995   1.294   0.489   0.592  0.4240  0.6888 -2.3129
 1032SOL    HW2 3996   1.263   0.647   0.620  1.1498  0.5341 -0.4846
 1033SOL     OW 3997   6.751   6.312   2.808 -0.6916 -0.3695  0.2332
 1033SOL    HW1 3998   6.753   6.217   2.839  0.6466 -0.1101  1.0373
 1033SOL    HW2 3999   6.816   6.323   2.732 -0.5570 -0.0154  0.3997
 1034SOL     OW 4000   3.496   6.331   3.565 -0.0048 -0.1265 -0.1486
 1034SOL    HW1 4001   3.433   6.369   3.633  0.6951  0.6614  0.0734
 1034SOL    HW2 4002   3.589   6.361   3.585  0.4768 -1.3871 -0.3947
 1035SOL     OW 4003   1.908   6.408   6.217 -0.1801 -0.9943  0.0306
 1035SOL    HW1 4004   1.846   6.403   6.296  0.1267 -0.8127  0.2839
 1035SOL    HW2 4005   1.854   6.414   6.133 -0.5177 -2.2188  0.1400
 1036SOL     OW 4006   5.416   1.781   3.960  0.5877  0.1887  0.1390
 1036SOL    HW1 4007   5.348   1.810   3.893  0.0313  1.4422  1.2113
 1036SOL    HW2 4008   5.396   1.687   3.989 -0.7695  0.5644  0.5111
 1037SOL     OW 4009   0.678   2.854   1.520  0.2360 -0.0524 -0.2166
 1037SOL    HW1 4010   0.768   2.814   1.502 -0.0853 -1.9594  1.9405
 1037SOL    HW2 4011   0.619   2.840   1.440  1.3725 -0.1459 -1.0760
 1038SOL     OW 4012   0.072   0.558   6.122 -0.0387 -0.0170  0.3130
 1038SOL    HW1 4013   0.103   0.477   6.172  0.5469  0.9109  1.4902
 1038SOL    HW2 4014   0.044   0.629   6.186 -2.1994  0.1485 -0.6865
 1039SOL     OW 4015   2.856   3.798   1.304  0.2900 -0.1411 -0.2442
 1039SOL    HW1 4016   2.914   3.718   1.286  0.1072 -0.7232  1.5668
 1039SOL    HW2 4017   2.802   3.782   1.386  1.8880  2.7465  1.5184
 1040SOL     OW 4018   4.115   1.266   2.911  0.3983  0.0051  0.4909
 1040SOL    HW1 4019   4.198   1.319   2.894  0.5560  0.0053  1.2179
 1040SOL    HW2 4020   4.035   1.323   2.895  0.5257 -0.0780 -0.4901
 1041SOL     OW 4021   6.461   6.816   5.988  0.1049 -0.0392 -0.1347
 1041SOL    HW1 4022   6.394   6.783   6.054 -0.0358 -0.2793 -0.3979
 1041SOL    HW2 4023   6.497   6.905   6.019  1.8501 -1.2274  1.5601
 1042SOL     OW 4024   5.379   4.448   2.898 -0.0409 -0.4984 -0.3005
 1042SOL    HW1 4025   5.470   4.410   2.886  0.3048 -0.0749  0.7904
 1042SOL    HW2 4026   5.312   4.373   2.900  0.3491 -0.8603 -0.5136
 1043SOL     OW 4027   2.122   0.598   5.566  0.4351  0.0115 -0.3010
 1043SOL    HW1 4028   2.146   0.518   5.512  0.3132 -2.2450  2.7229
 1043SOL    HW2 4029   2.203   0.631   5.615 -0.2439 -0.7111  1.3884
 1044SOL     OW 4030   6.581   5.914   3.795 -0.0377 -0.0731 -0.0962
 1044SOL    HW1 4031   6.515   5.970   3.744  0.4437  0.7129  0.1292
 1044SOL    HW2 4032   6.645   5.872   3.731 -1.3767 -1.7281 -0.4295
 1045SOL     OW 4033   0.619   0.683   4.939  0.4774 -0.4274 -0.4289
 1045SOL    HW1 4034   0.696   0.725   4.987 -0.4990  1.1563 -0.1796
 1045SOL    HW2 4035   0.614   0.720   4.847 -2.3023  2.6591  0.7817
 1046SOL     OW 4036   4.663   3.101   5.690 -0.3702 -0.8914 -0.2070
 1046SOL    HW1 4037   4.625   3.011   5.711 -0.9599 -0.9606 -1.4747
 1046SOL    HW2 4038   4.604   3.147   5.623  0.2531  0.1932 -0.0379
 1047SOL     OW 4039   5.976   2.160   3.772 -0.1577 -0.1742 -0.1266
 1047SOL    HW1 4040   5.950   2.090   3.839  0.9545 -1.8343 -1.3627
 1047SOL    HW2 4041   6.075   2.161   3.762 -0.3216 -0.1865 -1.9862
 1048SOL     OW 4042   6.442   6.375   3.296 -0.1377  0.1011  0.5360
 1048SOL    HW1 4043   6.471   6.471   3.298  1.0384 -0.1360 -1.7827
 1048SOL    HW2 4044   6.347   6.369   3.267 -0.1585  0.5583  0.5128
 1049SOL     OW 4045   4.343   6.463   6.624  0.5134 -0.3333  0.1547
 1049SOL    HW1 4046   4.315   6.372   6.593  0.2511  0.6297 -2.7269
 1049SOL    HW2 4047   4.325   6.530   6.552 -0.0196  2.1843  2.4397
 1050SOL     OW 4048   3.602   6.088   4.754 -0.3244 -0.2553 -0.0004
 1050SOL    HW1 4049   3.688   6.102   4.705 -0.7523  1.7694 -0.2952
 1050SOL    HW2 4050   3.577   6.173   4.801 -0.8093 -1.6014  2.3478
 1051SOL     OW 4051   3.393   2.316   5.600  0.0289  0.4023  0.4651
 1051SOL    HW1 4052   3.475   2.286   5.550 -0.8412 -1.3678  0.0010
 1051SOL    HW2 4053   3.381   2.259   5.681 -0.4988  0.9571  0.7804
 1052SOL     OW 4054   3.503   3.238   5.192  0.5154 -0.0957  0.2619
 1052SOL    HW1 4055   3.553   3.218   5.277 -0.9596  0.3492  1.2824
 1052SOL    HW2 4056   3.559   3.296   5.133  1.3618  0.0505  1.1781
 1053SOL     OW 4057   5.817   3.644   3.355 -0.2394 -0.2530  0.1439
 1053SOL    HW1 4058   5.856   3.735   3.369 -1.1782  0.0995  0.6257
 1053SOL    HW2 4059   5.842   3.609   3.265  0.0122  0.5444 -0.1005
 1054SOL     OW 4060   5.060   4.872   6.581  0.0490  0.4002  0.0201
 1054SOL    HW1 4061   5.092   4.966   6.591 -0.0904  0.3335  1.3137
 1054SOL    HW2 4062   5.007   4.846   6.662 -0.4694 -0.5823 -0.6100
 1055SOL     OW 4063   0.283   6.499   6.548  0.4623  0.0431  0.0083
 1055SOL    HW1 4064   0.309   6.540   6.461  0.7424 -0.7883 -0.3145
 1055SOL    HW2 4065   0.363   6.496   6.608  0.2463  0.7026  0.3351
 1056SOL     OW 4066   1.643   2.970   6.415  0.1726 -0.3557 -0.0200
 1056SOL    HW1 4067   1.603   2.899   6.474  1.4342 -1.2914 -0.2618
 1056SOL    HW2 4068   1.608   3.059   6.443 -0.7458 -0.9704  0.8819
 1057SOL     OW 4069   1.987   3.663   6.549  0.0897 -0.4068 -0.1927
 1057SOL    HW1 4070   1.917   3.603   6.588 -0.6083  0.1127 -0.6239
 1057SOL    HW2 4071   1.968   3.758   6.575  0.3646 -0.2084 -0.7078
 1058SOL     OW 4072   3.090   2.653   1.767 -0.2770 -0.1650 -0.4832
 1058SOL    HW1 4073   3.049   2.668   1.676 -0.7068 -1.8230 -0.5852
 1058SOL    HW2 4074   3.030   2.594   1.821  0.8278 -0.6408  0.2494
 1059SOL     OW 4075   2.441   0.925   2.343  0.4860  0.1042  0.0332
 1059SOL    HW1 4076   2.379   0.864   2.393  0.9646  0.0496  0.5701
 1059SOL    HW2 4077   2.533   0.886   2.343  0.6535  0.4942 -0.2216
 1060SOL     OW 4078   5.844   0.483   4.742  0.4184 -0.2386  0.0929
 1060SOL    HW1 4079   5.785   0.404   4.722  1.4593 -0.8519 -0.6882
 1060SOL    HW2 4080   5.911   0.457   4.811  0.4681  0.1066  0.1731
 1061SOL     OW 4081   5.606   3.625   6.729 -0.1423 -0.3694  0.1402
 1061SOL    HW1 4082   5.667   3.550   6.754 -3.2143 -2.8728  0.7829
 1061SOL    HW2 4083   5.595   3.687   6.806  0.3222 -0.8021  0.5600
 1062SOL     OW 4084   3.746   5.395   4.957  0.4198 -0.2399 -0.3238
 1062SOL    HW1 4085   3.773   5.467   4.892 -0.0270  0.4318  0.2205
 1062SOL    HW2 4086   3.706   5.319   4.907  0.3077  0.1626 -0.8600
 1063SOL     OW 4087   4.445   5.075   4.069 -0.6253  0.2107 -0.8265
 1063SOL    HW1 4088   4.438   4.992   4.125 -1.6910 -0.7158 -2.2448
 1063SOL    HW2 4089   4.357   5.093   4.025  0.0974  1.0192 -2.0030
 1064SOL     OW 4090   0.409   3.719   1.157 -0.2456 -0.1796  0.1194
 1064SOL    HW1 4091   0.408   3.797   1.221  0.3286 -1.2884  1.5289
 1064SOL    HW2 4092   0.321   3.672   1.161 -0.4478  0.1408 -0.4304
 1065SOL     OW 4093   6.786   0.972   5.186 -0.4815 -0.0870  0.0609
 1065SOL    HW1 4094   6.858   1.035   5.216 -0.0598  0.1748 -1.4076
 1065SOL    HW2 4095   6.752   1.001   5.096  0.9287 -2.8946 -1.4985
 1066SOL     OW 4096   4.202   6.576   0.792  0.1152  0.0734  0.0697
 1066SOL    HW1 4097   4.169   6.496   0.742 -1.9603  0.8233  0.1639
 1066SOL    HW2 4098   4.125   6.634   0.818  1.3325  0.8757  2.1649
 1067SOL     OW 4099   3.891   6.901   2.198  0.0486  0.2400 -0.0529
 1067SOL    HW1 4100   3.815   6.964   2.183 -0.0295  0.6592  1.8296
 1067SOL    HW2 4101   3.868   6.838   2.272  1.6633  0.6169  0.8185
 1068SOL     OW 4102   6.367   1.838   4.574  0.2341 -0.8379 -0.1119
 1068SOL    HW1 4103   6.341   1.934   4.564 -0.0578 -1.0267 -1.3570
 1068SOL    HW2 4104   6.466   1.832   4.584  0.1148 -0.3143  1.6000
 1069SOL     OW 4105   6.596   1.089   3.384  0.0233  0.4381  0.5514
 1069SOL    HW1 4106   6.617   1.183   3.409 -0.2925  1.1001 -1.4832
 1069SOL    HW2 4107   6.504   1.084   3.346 -1.5368 -1.4329  4.0906
 1070SOL     OW 4108   1.564   0.722   2.571 -0.1365 -0.2296 -0.1893
 1070SOL    HW1 4109   1.632   0.731   2.644 -0.5750 -0.2247  0.2229
 1070SOL    HW2 4110   1.578   0.795   2.504  1.5079 -1.3498 -1.1489
 1071SOL     OW 4111   6.695   3.845   1.162  0.0503 -0.1262  0.5285
 1071SOL    HW1 4112   6.723   3.940   1.177  1.1431 -0.4800  0.8438
 1071SOL    HW2 4113   6.770   3.795   1.119 -0.5066 -0.8570  0.3944
 1072SOL     OW 4114   3.105   1.081   2.864  0.7550  0.4840 -0.0759
 1072SOL    HW1 4115   3.016   1.107   2.827 -0.4427  0.7420  2.6969
 1072SOL    HW2 4116   3.174   1.084   2.792 -1.0452  2.5100 -1.8500
 1073SOL     OW 4117   3.802   1.776   2.255  0.6457 -0.5198 -0.1306
 1073SOL    HW1 4118   3.882   1.831   2.231  0.2984 -0.6714 -1.7121
 1073SOL    HW2 4119   3.765   1.808   2.342  2.2447 -0.2599  0.4954
 1074SOL     OW 4120   2.381   0.009   1.467 -0.5260  0.2807  0.0172
 1074SOL    HW1 4121   2.425   0.069   1.533 -2.8365  1.7991  0.3057
 1074SOL    HW2 4122   2.395   0.044   1.374 -0.4181  0.2835  0.0349
 1075SOL     OW 4123   0.254   3.829   5.737  0.8560  0.5555  0.2739
 1075SOL    HW1 4124   0.236   3.846   5.640  1.2680  0.1348  0.1192
 1075SOL    HW2 4125   0.275   3.732   5.750 -0.0805  0.4309  0.9189
 1076SOL     OW 4126   3.519   6.427   6.911 -0.0345  0.2014  0.5895
 1076SOL    HW1 4127   3.471   6.460   6.830  1.9808 -0.0498 -0.7821
 1076SOL    HW2 4128   3.593   6.490   6.934  1.2436 -1.1772  0.4475
 1077SOL     OW 4129   5.359   6.323   1.184 -0.1947  0.4245  0.2485
 1077SOL    HW1 4130   5.422   6.342   1.260  0.9653  0.1869 -0.6338
 1077SOL    HW2 4131   5.407   6.275   1.112 -1.0933  1.2887 -0.9686
 1078SOL     OW 4132   0.210   5.951   4.263 -0.4540 -0.1869 -0.6355
 1078SOL    HW1 4133   0.297   5.998   4.243  0.5900 -1.0183  1.6658
 1078SOL    HW2 4134   0.149   6.014   4.310 -0.0047 -0.3997  0.2453
 1079SOL     OW 4135   2.486   0.202   6.453  0.2424 -0.0640  0.0663
 1079SOL    HW1 4136   2.451   0.126   6.398 -0.3760  0.7777 -0.7442
 1079SOL    HW2 4137   2.585   0.207   6.444  0.0630  0.7555 -1.9699
 1080SOL     OW 4138   4.717   5.277   5.669 -0.8299 -0.3057 -0.3301
 1080SOL    HW1 4139   4.663   5.233   5.598 -1.2018  0.9695 -0.8753
 1080SOL    HW2 4140   4.773   5.349   5.628 -0.9754  0.3794  0.6465
 1081SOL     OW 4141   1.124   5.296   0.632  0.1954  0.1596  0.0240
 1081SOL    HW1 4142   1.200   5.361   0.644 -1.7329  2.2857  1.5564
 1081SOL    HW2 4143   1.065   5.327   0.557 -1.8346  1.4681  2.0251
 1082SOL     OW 4144   4.331   6.964   0.069 -0.4549  0.1249  0.1249
 1082SOL    HW1 4145   4.284   6.966   0.157 -0.7868 -1.4524 -0.0002
 1082SOL    HW2 4146   4.357   6.870   0.047  0.3618  0.6116 -1.0846
 1083SOL     OW 4147   6.141   5.077   1.941 -0.1483 -0.4828  0.1781
 1083SOL    HW1 4148   6.077   5.036   1.876  0.1930 -0.8777  0.0846
 1083SOL    HW2 4149   6.177   5.162   1.903  0.0005 -0.6802 -0.1287
 1084SOL     OW 4150   4.512   0.363   4.250  0.3300  0.6192 -0.6965
 1084SOL    HW1 4151   4.542   0.295   4.184  2.9040  0.1896  0.7861
 1084SOL    HW2 4152   4.493   0.449   4.203 -0.2669 -0.3079 -2.2401
 1085SOL     OW 4153   1.540   2.991   5.669  0.3016 -0.3395  0.4960
 1085SOL    HW1 4154   1.532   3.058   5.595  0.6592 -0.5508  0.2668
 1085SOL    HW2 4155   1.578   2.906   5.633 -2.8270 -1.7352  0.1151
 1086SOL     OW 4156   4.447   2.652   1.690  0.4385  0.2474  0.4968
 1086SOL    HW1 4157   4.390   2.649   1.608 -0.7059 -0.6156  1.2869
 1086SOL    HW2 4158   4.493   2.741   1.696 -0.2041  0.6711 -0.5752
 1087SOL     OW 4159   2.562   0.845   6.975 -0.1543 -0.3461 -0.0447
 1087SOL    HW1 4160   2.651   0.856   7.018  0.1829 -1.2791 -0.4667
 1087SOL    HW2 4161   2.562   0.762   6.919 -0.9200  0.2480 -0.9706
 1088SOL     OW 4162   6.037   4.855   3.926  0.6545  0.7343 -0.2242
 1088SOL    HW1 4163   6.085   4.861   3.839  0.4989  0.1517 -0.3582
 1088SOL    HW2 4164   5.938   4.863   3.910  0.5921  0.1626 -0.1658
 1089SOL     OW 4165   6.359   6.499   4.247  0.1487  0.2672 -0.0445
 1089SOL    HW1 4166   6.369   6.583   4.301  0.8080 -0.3336  0.7914
 1089SOL    HW2 4167   6.417   6.428   4.285 -0.5388 -0.6333 -0.6357
 1090SOL     OW 4168   4.563   2.613   4.670  0.6862  0.2276 -0.3010
 1090SOL    HW1 4169   4.603   2.680   4.732  0.1983  1.3837 -1.2186
 1090SOL    HW2 4170   4.514   2.659   4.596  0.3752 -1.1318 -0.9867
 1091SOL     OW 4171   1.575   5.284   5.019  0.2045  0.0373  0.5437
 1091SOL    HW1 4172   1.590   5.202   4.965  2.1929  1.3758 -1.0650
 1091SOL    HW2 4173   1.661   5.313   5.061 -0.8510  0.2562  2.7588
 1092SOL     OW 4174   0.623   4.533   0.855  0.5105  0.5327  0.0841
 1092SOL    HW1 4175   0.634   4.518   0.954  1.7086  1.0791  0.0473
 1092SOL    HW2 4176   0.570   4.458   0.816  0.5435 -0.0059  1.0336
 1093SOL     OW 4177   1.198   1.070   3.984 -0.5643  0.0715 -0.2234
 1093SOL    HW1 4178   1.231   1.036   4.072 -0.2920  0.4898 -0.1650
 1093SOL    HW2 4179   1.166   1.164   3.993 -1.0503 -0.0665 -0.4522
 1094SOL     OW 4180   0.160   0.483   2.037  0.1559  0.6424 -0.2198
 1094SOL    HW1 4181   0.088   0.477   1.968  0.7951 -3.6501 -0.7969
 1094SOL    HW2 4182   0.204   0.573   2.032 -1.5973  1.4726 -3.5286
 1095SOL     OW 4183   0.165   4.032   0.457 -0.4605  0.3373 -0.3297
 1095SOL    HW1 4184   0.224   3.973   0.401 -0.7820 -1.1610  0.8533
 1095SOL    HW2 4185   0.069   4.014   0.435 -0.5507  0.9699 -0.4760
 1096SOL     OW 4186   2.056   4.882   1.314  0.1806  0.3043  0.3449
 1096SOL    HW1 4187   2.064   4.946   1.390 -4.2765  1.3349  0.2711
 1096SOL    HW2 4188   2.066   4.788   1.347 -1.5418  0.7262  2.3094
 1097SOL     OW 4189   1.837   6.596   5.895  0.3673 -0.2991 -0.4920
 1097SOL    HW1 4190   1.825   6.511   5.945  0.6775 -0.0160  0.0748
 1097SOL    HW2 4191   1.933   6.609   5.872  0.6151  0.7515  0.9954
 1098SOL     OW 4192   6.845   6.553   0.874 -0.1661 -0.0905  0.0412
 1098SOL    HW1 4193   6.791   6.469   0.865 -0.3376  0.1642 -1.5673
 1098SOL    HW2 4194   6.789   6.632   0.849  0.2306  0.4244  0.7577
 1099SOL     OW 4195   6.125   0.951   0.973  0.2465  0.2621 -0.8074
 1099SOL    HW1 4196   6.201   0.969   1.035  2.1925 -0.5746 -2.8242
 1099SOL    HW2 4197   6.160   0.918   0.885 -2.5098 -2.8993 -0.9563
 1100SOL     OW 4198   4.792   1.062   4.718  0.9610  0.1163 -0.1563
 1100SOL    HW1 4199   4.878   1.095   4.680  2.7169 -2.3176  1.3935
 1100SOL    HW2 4200   4.787   0.963   4.709 -1.0323  0.0416  1.0994
 1101SOL     OW 4201   4.757   2.197   6.994  0.6261  0.5481 -0.1453
 1101SOL    HW1 4202   4.832   2.232   6.938 -2.1773  1.2912 -3.8130
 1101SOL    HW2 4203   4.754   2.097   6.987 -0.2712  0.6728 -2.3601
 1102SOL     OW 4204   5.814   2.648   2.230  0.2207  0.4122  0.1952
 1102SOL    HW1 4205   5.851   2.651   2.323 -0.5413 -2.4959  0.7181
 1102SOL    HW2 4206   5.886   2.619   2.166  0.4339  1.1917  0.0741
 1103SOL     OW 4207   2.857   0.048   6.871 -0.0299  0.2902 -0.0221
 1103SOL    HW1 4208   2.907  -0.004   6.940 -0.2419  0.3474  0.1773
 1103SOL    HW2 4209   2.796  -0.014   6.821 -3.0876  0.8564  2.6854
 1104SOL     OW 4210   5.125   0.541   4.976  0.8175 -0.1002  0.0029
 1104SOL    HW1 4211   5.067   0.500   4.906  1.2533 -0.2245 -0.2931
 1104SOL    HW2 4212   5.188   0.607   4.933  0.8064  0.1329  0.3336
 1105SOL     OW 4213   4.736   6.477   6.550 -0.3851  0.5375  0.9200
 1105SOL    HW1 4214   4.680   6.451   6.629  0.5820 -1.3097  1.0637
 1105SOL    HW2 4215   4.691   6.447   6.466 -1.0238  1.7793  0.7926
 1106SOL     OW 4216   6.192   1.197   2.167  0.1118  0.6804 -0.2736
 1106SOL    HW1 4217   6.252   1.275   2.186 -0.5177  0.9497  0.6704
 1106SOL    HW2 4218   6.152   1.163   2.253 -0.0370 -0.3525 -0.7310
 1107SOL     OW 4219   3.234   1.459   6.899  0.2074  0.2692 -0.1632
 1107SOL    HW1 4220   3.181   1.380   6.872  1.1702 -0.2602 -0.5700
 1107SOL    HW2 4221   3.220   1.533   6.833 -1.1618  0.6710  0.5464
 1108SOL     OW 4222   1.411   1.917   4.045 -0.0132  0.0340 -0.1495
 1108SOL    HW1 4223   1.341   1.957   4.104  0.2172  0.0576  0.1097
 1108SOL    HW2 4224   1.487   1.981   4.035 -1.2869  1.2817 -2.8258
 1109SOL     OW 4225   6.185   1.841   4.796  0.1314  0.5140  0.4593
 1109SOL    HW1 4226   6.254   1.911   4.782  0.7059  0.2074  1.6960
 1109SOL    HW2 4227   6.219   1.754   4.759  0.1143  0.5141  0.4436
 1110SOL     OW 4228   1.983   1.380   2.518 -0.6431 -0.4412 -0.3793
 1110SOL    HW1 4229   1.934   1.293   2.518 -1.0811 -0.2037 -1.2489
 1110SOL    HW2 4230   2.053   1.379   2.446 -0.4324 -0.1935 -0.1808
 1111SOL     OW 4231   4.023   4.683   5.330  0.0497  0.0129  0.2595
 1111SOL    HW1 4232   3.980   4.760   5.283  0.1202  0.0163  0.2001
 1111SOL    HW2 4233   4.001   4.687   5.428  0.1405  0.1678  0.2746
 1112SOL     OW 4234   4.403   6.719   1.649  0.1878  0.1371  0.6886
 1112SOL    HW1 4235   4.386   6.629   1.609  0.1396  0.5538 -0.2615
 1112SOL    HW2 4236   4.360   6.789   1.592 -0.2355  0.7244  1.7147
 1113SOL     OW 4237   5.963   1.681   3.649 -0.3554  0.2575  0.1685
 1113SOL    HW1 4238   6.034   1.720   3.589 -1.2299  1.0044 -0.4091
 1113SOL    HW2 4239   5.908   1.615   3.597 -0.8651  0.6099  0.2572
 1114SOL     OW 4240   3.818   3.970   3.817 -0.1241 -0.1214  0.2472
 1114SOL    HW1 4241   3.869   3.954   3.733 -1.4389 -0.4651 -0.5239
 1114SOL    HW2 4242   3.835   3.896   3.882  0.4297 -0.1715  0.0500
 1115SOL     OW 4243   2.562   5.644   4.466  0.9478  0.0185 -0.2426
 1115SOL    HW1 4244   2.474   5.672   4.427  0.4302  1.0956  1.5788
 1115SOL    HW2 4245   2.562   5.545   4.480 -0.9877  0.2190  1.8705
 1116SOL     OW 4246   5.569   6.494   6.492 -0.1154  0.4601 -0.8672
 1116SOL    HW1 4247   5.483   6.534   6.458 -0.8159  1.8127  2.2160
 1116SOL    HW2 4248   5.626   6.566   6.531  1.0346 -0.8723 -0.0226
 1117SOL     OW 4249   2.119   2.116   2.820 -0.1231 -0.1331  0.7419
 1117SOL    HW1 4250   2.139   2.193   2.880  2.4784  0.5892 -0.8710
 1117SOL    HW2 4251   2.184   2.042   2.837 -1.0210 -0.9797  0.5824
 1118SOL     OW 4252   3.649   5.715   6.962 -0.0150  0.3233  0.3252
 1118SOL    HW1 4253   3.746   5.721   6.937  0.1759 -0.4993  0.8265
 1118SOL    HW2 4254   3.599   5.667   6.891 -0.1831  1.3019 -0.2342
 1119SOL     OW 4255   3.568   5.010   0.908  0.0410 -0.5280 -0.0064
 1119SOL    HW1 4256   3.636   5.057   0.965 -0.3149  0.3178 -0.2714
 1119SOL    HW2 4257   3.615   4.960   0.834  0.3131  1.9048 -1.5820
 1120SOL     OW 4258   1.041   2.788   1.772  0.0756  0.1947  0.1216
 1120SOL    HW1 4259   1.010   2.783   1.677 -0.7129  0.4735  0.3562
 1120SOL    HW2 4260   1.083   2.878   1.788 -1.0766  0.6947  0.4057
 1121SOL     OW 4261   4.733   4.316   0.801 -0.0333  0.1114  0.1495
 1121SOL    HW1 4262   4.717   4.219   0.818  0.9566 -0.0706  0.0869
 1121SOL    HW2 4263   4.702   4.340   0.709  0.5569 -0.3501 -0.1722
 1122SOL     OW 4264   6.118   1.476   3.513  0.0909 -0.1916 -0.2275
 1122SOL    HW1 4265   6.115   1.575   3.501  0.3290 -0.1026  0.4525
 1122SOL    HW2 4266   6.029   1.437   3.489  0.3140  0.0524 -1.5776
 1123SOL     OW 4267   2.855   2.321   5.127 -0.2836 -0.7369 -0.6250
 1123SOL    HW1 4268   2.863   2.224   5.151 -0.2899 -0.8783 -1.1781
 1123SOL    HW2 4269   2.945   2.363   5.129 -0.5142 -0.2025  1.7981
 1124SOL     OW 4270   3.630   1.484   4.000 -0.1469 -0.3824 -0.8959
 1124SOL    HW1 4271   3.579   1.568   3.978 -0.9959 -1.1718 -2.0607
 1124SOL    HW2 4272   3.727   1.500   3.987 -0.4532 -0.2181 -3.4841
 1125SOL     OW 4273   1.398   0.888   3.055  0.5292  0.0454 -0.0528
 1125SOL    HW1 4274   1.372   0.847   2.968 -0.8957  0.8072 -0.0182
 1125SOL    HW2 4275   1.316   0.904   3.110  1.3531  0.0830  1.2115
 1126SOL     OW 4276   6.007   4.118   4.490  0.7180 -0.2587 -0.6604
 1126SOL    HW1 4277   5.942   4.056   4.447  2.3137 -1.3126 -1.6415
 1126SOL    HW2 4278   6.100   4.082   4.480  1.3184  0.1379  2.4832
 1127SOL     OW 4279   4.371   6.042   1.810 -0.0505  0.3800 -0.5326
 1127SOL    HW1 4280   4.436   5.966   1.804  0.2404  0.7096 -2.3077
 1127SOL    HW2 4281   4.415   6.125   1.777 -1.6465  0.3785 -2.9278
 1128SOL     OW 4282   2.742   0.775   4.691  0.2357 -0.1626 -0.5663
 1128SOL    HW1 4283   2.751   0.789   4.790  0.7283  1.4404 -0.7945
 1128SOL    HW2 4284   2.649   0.746   4.669 -0.3678  1.0789  0.2372
 1129SOL     OW 4285   0.822   0.020   6.644 -0.7363  0.1915 -0.3708
 1129SOL    HW1 4286   0.834  -0.012   6.550 -1.8936 -0.0193 -0.4570
 1129SOL    HW2 4287   0.806   0.119   6.644 -0.6560  0.2041 -0.3927
 1130SOL     OW 4288   2.928   6.699   1.731  0.0784  0.1323  0.0322
 1130SOL    HW1 4289   3.025   6.721   1.742  0.1321 -0.9464  2.5856
 1130SOL    HW2 4290   2.917   6.631   1.658  1.2015  0.4694 -0.4757
 1131SOL     OW 4291   2.381   4.841   2.405  0.5910 -0.3156  0.5097
 1131SOL    HW1 4292   2.460   4.900   2.421 -1.3624  2.7314 -0.2150
 1131SOL    HW2 4293   2.350   4.803   2.492  1.0804  0.9317  1.2674
 1132SOL     OW 4294   2.521   1.465   2.551 -0.2428 -0.4509 -0.2030
 1132SOL    HW1 4295   2.582   1.538   2.583 -0.5602  0.2256 -1.1089
 1132SOL    HW2 4296   2.571   1.378   2.551  0.6345  0.0339 -0.5990
 1133SOL     OW 4297   0.548   0.391   1.343  0.3775  1.0026 -0.2962
 1133SOL    HW1 4298   0.483   0.318   1.364  1.4171  0.1538  0.0841
 1133SOL    HW2 4299   0.500   0.479   1.343 -0.6922  0.4454  0.3424
 1134SOL     OW 4300   4.712   4.407   0.546 -0.3220  0.2608 -0.3213
 1134SOL    HW1 4301   4.691   4.502   0.524 -1.9112  0.1160  0.4292
 1134SOL    HW2 4302   4.705   4.351   0.463  0.2684  0.7238 -0.6941
 1135SOL     OW 4303   0.876   5.937   1.054 -0.1760 -0.5688  0.3823
 1135SOL    HW1 4304   0.884   5.839   1.074  0.5157 -0.8349 -1.0767
 1135SOL    HW2 4305   0.811   5.951   0.980  0.6081 -0.0510 -0.2270
 1136SOL     OW 4306   1.998   4.692   3.527  0.5220  0.1999  0.5330
 1136SOL    HW1 4307   2.083   4.729   3.566  0.5763  0.6549  0.0106
 1136SOL    HW2 4308   1.930   4.765   3.521 -0.0195 -0.2398  1.2449
 1137SOL     OW 4309   2.102   4.604   2.961  0.3982 -0.1689  0.3236
 1137SOL    HW1 4310   2.018   4.656   2.976  0.3409 -0.7468  2.2900
 1137SOL    HW2 4311   2.180   4.666   2.963  0.1790  0.1004  0.5644
 1138SOL     OW 4312   2.654   4.869   2.916 -0.0856  0.3912 -0.5322
 1138SOL    HW1 4313   2.596   4.851   2.836 -1.6602  0.9279  0.4391
 1138SOL    HW2 4314   2.648   4.792   2.979  0.1350  0.5200 -0.3540
 1139SOL     OW 4315   5.051   5.896   5.301  0.5987  0.1841  0.4607
 1139SOL    HW1 4316   5.145   5.903   5.334  0.4313  0.6940  0.8469
 1139SOL    HW2 4317   5.046   5.929   5.207  0.7503  0.4454  0.5430
 1140SOL     OW 4318   1.555   3.203   2.289 -0.0972 -0.6872 -0.2092
 1140SOL    HW1 4319   1.612   3.251   2.355 -0.9335  1.2609 -0.8382
 1140SOL    HW2 4320   1.466   3.182   2.330 -0.4227  0.0433 -0.5228
 1141SOL     OW 4321   6.552   4.506   0.690 -0.0675 -0.1588  0.4250
 1141SOL    HW1 4322   6.517   4.448   0.617 -0.6639 -0.7585  1.1685
 1141SOL    HW2 4323   6.608   4.451   0.752 -0.6757  0.0259  1.1644
 1142SOL     OW 4324   0.845   4.425   4.651  0.6114  0.2264  0.0616
 1142SOL    HW1 4325   0.828   4.460   4.743  0.1201 -1.2953  0.5881
 1142SOL    HW2 4326   0.888   4.496   4.595 -0.4606  1.6760  1.0027
 1143SOL     OW 4327   6.857   5.203   6.410  0.0535  0.0598  0.2603
 1143SOL    HW1 4328   6.859   5.303   6.411  0.5937  0.0633  2.0460
 1143SOL    HW2 4329   6.945   5.168   6.441  0.1934 -1.0060 -1.2517
 1144SOL     OW 4330   4.854   4.526   6.496  0.5761  0.3448  0.2322
 1144SOL    HW1 4331   4.928   4.591   6.479  2.3406 -1.7460 -0.3804
 1144SOL    HW2 4332   4.855   4.455   6.426  0.0097 -1.4950  1.9940
 1145SOL     OW 4333   5.949   6.675   1.253 -0.0260 -0.6607 -0.6402
 1145SOL    HW1 4334   5.934   6.745   1.183  0.5240 -0.9646 -1.0636
 1145SOL    HW2 4335   5.952   6.585   1.211 -1.2997 -1.0128 -0.0248
 1146SOL     OW 4336   1.839   6.737   2.478 -1.1287 -0.4255 -0.0946
 1146SOL    HW1 4337   1.795   6.742   2.389 -2.9856 -1.0784  0.7285
 1146SOL    HW2 4338   1.782   6.782   2.546  1.0083  1.4810  0.5527
 1147SOL     OW 4339   1.775   6.732   4.535 -0.1638 -0.3732 -0.4278
 1147SOL    HW1 4340   1.716   6.803   4.573 -0.8158 -0.6859 -0.8293
 1147SOL    HW2 4341   1.797   6.754   4.440 -0.0343 -0.5063 -0.4300
 1148SOL     OW 4342   1.695   6.379   0.650  0.2933  0.0142 -0.4754
 1148SOL    HW1 4343   1.744   6.441   0.712  0.3615  0.1889 -0.7028
 1148SOL    HW2 4344   1.654   6.305   0.703 -1.7758  1.4905  0.1069
 1149SOL     OW 4345   6.179   2.858   2.303 -0.0324 -0.4946  0.1560
 1149SOL    HW1 4346   6.213   2.918   2.231  1.6527 -0.3348  1.0356
 1149SOL    HW2 4347   6.146   2.773   2.263 -0.1206  0.0182 -0.8785
 1150SOL     OW 4348   6.762   2.839   1.255 -0.4240  0.4577 -0.8562
 1150SOL    HW1 4349   6.723   2.779   1.185 -1.3609  0.0899 -0.0369
 1150SOL    HW2 4350   6.716   2.927   1.254 -2.0494 -0.3157  0.7812
 1151SOL     OW 4351   5.753   5.635   4.935  0.0805 -0.3318  0.0444
 1151SOL    HW1 4352   5.838   5.591   4.908  1.3803  0.7810  2.0366
 1151SOL    HW2 4353   5.767   5.734   4.938 -0.7266 -0.2287  2.0413
 1152SOL     OW 4354   2.744   5.448   4.926 -0.3011  0.3512  0.1351
 1152SOL    HW1 4355   2.696   5.373   4.974  0.5022  0.2633  0.8257
 1152SOL    HW2 4356   2.769   5.418   4.834 -2.0455  0.5883 -0.4507
 1153SOL     OW 4357   5.366   6.226   2.065  0.1086 -0.5331  0.2907
 1153SOL    HW1 4358   5.346   6.196   2.158  1.6092  3.3102  2.0585
 1153SOL    HW2 4359   5.281   6.238   2.015 -1.0470  0.8746  2.4614
 1154SOL     OW 4360   1.316   2.739   2.514 -0.2573 -0.4786  0.1390
 1154SOL    HW1 4361   1.281   2.688   2.436 -0.1339 -2.2674  1.1970
 1154SOL    HW2 4362   1.244   2.750   2.582  0.1051 -0.4997  0.5328
 1155SOL     OW 4363   3.152   4.900   3.451 -0.1395 -0.8350  0.0132
 1155SOL    HW1 4364   3.112   4.862   3.368  0.1354 -0.6517 -0.2048
 1155SOL    HW2 4365   3.205   4.982   3.428  0.3489 -1.0655  0.2959
 1156SOL     OW 4366   3.035   1.477   0.825  0.9777 -0.0426  0.1075
 1156SOL    HW1 4367   2.981   1.398   0.796 -0.9920  0.8455  1.0923
 1156SOL    HW2 4368   3.084   1.515   0.747  0.5214 -1.1723 -0.7461
 1157SOL     OW 4369   1.636   1.504   2.017 -0.8431 -0.3540  0.0127
 1157SOL    HW1 4370   1.713   1.451   2.051 -1.2541  0.1180  1.7564
 1157SOL    HW2 4371   1.660   1.543   1.928  0.9595 -0.1649  0.5320
 1158SOL     OW 4372   5.749   5.327   4.577 -0.2746  0.3108 -0.2970
 1158SOL    HW1 4373   5.811   5.254   4.548 -1.5961 -1.5472  1.2849
 1158SOL    HW2 4374   5.773   5.412   4.530  3.7763 -0.1281  0.6405
 1159SOL     OW 4375   4.932   4.762   4.630  0.2103 -0.0333  0.1503
 1159SOL    HW1 4376   4.890   4.692   4.571  0.5387 -2.2996  2.4127
 1159SOL    HW2 4377   4.980   4.717   4.706  0.3901  2.6955  1.7855
 1160SOL     OW 4378   3.599   4.388   5.228 -0.4565  0.1169  0.8857
 1160SOL    HW1 4379   3.690   4.420   5.256 -0.0298 -1.8365  1.9874
 1160SOL    HW2 4380   3.609   4.310   5.167 -1.4452  1.7413 -1.4700
 1161SOL     OW 4381   2.117   4.347   6.862 -0.5291  0.2117 -0.4786
 1161SOL    HW1 4382   2.074   4.436   6.850  1.3274  0.8675 -3.3316
 1161SOL    HW2 4383   2.098   4.290   6.783  0.5247 -0.9335  0.0615
 1162SOL     OW 4384   0.595   3.000   6.235  0.0670 -0.1254  0.8938
 1162SOL    HW1 4385   0.687   3.040   6.230 -0.6230  1.7806  2.2658
 1162SOL    HW2 4386   0.559   3.012   6.327 -1.6598 -0.6655  0.3227
 1163SOL     OW 4387   3.351   1.307   2.968  0.8182 -0.6907 -0.9659
 1163SOL    HW1 4388   3.294   1.306   3.051 -0.7184 -0.3546 -1.9758
 1163SOL    HW2 4389   3.343   1.396   2.923  0.2447 -1.4191 -2.3685
 1164SOL     OW 4390   2.537   2.105   5.972 -0.0866  0.0899 -0.0516
 1164SOL    HW1 4391   2.512   2.094   5.876 -1.4840 -0.4370  0.3420
 1164SOL    HW2 4392   2.610   2.040   5.994  1.0443  0.9960 -1.0101
 1165SOL     OW 4393   4.339   0.972   2.320  0.2835  0.0426  0.2133
 1165SOL    HW1 4394   4.331   1.066   2.354  0.8712  0.2112 -0.0846
 1165SOL    HW2 4395   4.361   0.910   2.395 -1.8574 -0.1596  0.7346
 1166SOL     OW 4396   4.489   5.348   0.436  0.2079  0.4528  0.2274
 1166SOL    HW1 4397   4.498   5.289   0.516 -1.2639 -0.6424 -0.3772
 1166SOL    HW2 4398   4.561   5.325   0.369  0.6031  0.4495  0.6469
 1167SOL     OW 4399   6.149   4.288   3.813 -0.0095  0.2307  0.7161
 1167SOL    HW1 4400   6.082   4.306   3.886 -0.0258  1.6230  0.3812
 1167SOL    HW2 4401   6.129   4.346   3.735  0.7391 -0.3872  0.0528
 1168SOL     OW 4402   5.647   0.234   0.148 -0.1515  0.4339  0.3123
 1168SOL    HW1 4403   5.650   0.135   0.138 -0.0502  0.2703  1.7592
 1168SOL    HW2 4404   5.708   0.262   0.222  0.0676  1.6198 -0.2824
 1169SOL     OW 4405   3.418   1.349   3.868  0.3365 -0.0510  0.6874
 1169SOL    HW1 4406   3.498   1.395   3.906  0.1181 -0.1289  1.2491
 1169SOL    HW2 4407   3.448   1.269   3.816  0.6907  0.5045  0.0153
 1170SOL     OW 4408   5.662   5.691   4.554 -0.1805 -0.2399  0.3907
 1170SOL    HW1 4409   5.595   5.674   4.627  0.3563 -2.7013  0.3924
 1170SOL    HW2 4410   5.754   5.683   4.591  0.0971 -0.7032 -0.3841
 1171SOL     OW 4411   1.559   0.616   1.996 -0.0628  0.5026 -0.1654
 1171SOL    HW1 4412   1.521   0.708   1.992 -1.2274  0.0028 -1.8746
 1171SOL    HW2 4413   1.524   0.562   1.919 -2.3921 -2.5415  2.7484
 1172SOL     OW 4414   4.748   0.927   0.542 -0.4627  0.6859 -0.0789
 1172SOL    HW1 4415   4.802   1.004   0.578 -0.5271 -0.4285  2.6345
 1172SOL    HW2 4416   4.809   0.852   0.520 -0.7210 -0.1693  1.9183
 1173SOL     OW 4417   5.897   3.526   2.806 -0.2165  0.3318  0.5026
 1173SOL    HW1 4418   5.940   3.479   2.728  1.1601 -0.1453  1.5175
 1173SOL    HW2 4419   5.811   3.480   2.828 -1.2960  1.2349 -1.4879
 1174SOL     OW 4420   1.685   0.459   6.432  0.4312  0.8119  0.4706
 1174SOL    HW1 4421   1.768   0.423   6.390  0.2563  0.3712  0.5007
 1174SOL    HW2 4422   1.677   0.557   6.412  1.0046  0.8748  0.5499
 1175SOL     OW 4423   3.128   3.269   3.070  0.1803 -0.3170 -0.2521
 1175SOL    HW1 4424   3.044   3.325   3.073  0.7160  0.5192 -0.4931
 1175SOL    HW2 4425   3.157   3.259   2.975  0.3717 -0.5772 -0.1650
 1176SOL     OW 4426   5.628   4.449   5.116  0.1536  0.2819 -0.7872
 1176SOL    HW1 4427   5.720   4.468   5.081  1.4285 -1.5163  1.3717
 1176SOL    HW2 4428   5.597   4.360   5.082  0.1335 -0.0982  0.2123
 1177SOL     OW 4429   1.230   1.373   4.224  0.1953 -0.0672 -0.3926
 1177SOL    HW1 4430   1.227   1.291   4.282  0.2051  1.0664  1.2544
 1177SOL    HW2 4431   1.157   1.368   4.156  0.1218 -1.3825 -0.2449
 1178SOL     OW 4432   3.908   0.409   1.498  0.4801  0.2002  0.5449
 1178SOL    HW1 4433   3.883   0.504   1.516  1.6907  0.1388  3.0558
 1178SOL    HW2 4434   3.863   0.350   1.565 -0.0390 -1.0218 -0.8159
 1179SOL     OW 4435   0.983   6.253   0.327 -0.2904 -0.2265 -0.3194
 1179SOL    HW1 4436   1.071   6.233   0.283 -0.2357  2.7584 -1.7876
 1179SOL    HW2 4437   0.913   6.267   0.257 -1.1462  0.7128  0.6919
 1180SOL     OW 4438   4.368   1.340   1.181 -0.2262  0.8200  0.4607
 1180SOL    HW1 4439   4.280   1.341   1.132 -0.3407  0.1788  0.6369
 1180SOL    HW2 4440   4.370   1.413   1.248 -1.2763 -0.1160  1.5568
 1181SOL     OW 4441   0.580   6.107   6.391 -0.3203 -0.0861 -0.5092
 1181SOL    HW1 4442   0.481   6.113   6.384 -0.3622 -0.1081  0.0729
 1181SOL    HW2 4443   0.609   6.126   6.484  0.2627  0.4161 -0.7833
 1182SOL     OW 4444   5.203   5.453   5.797 -0.7962 -0.3016  0.1691
 1182SOL    HW1 4445   5.195   5.552   5.782  1.7150  0.0351  0.4619
 1182SOL    HW2 4446   5.164   5.430   5.886  0.5025  0.8601  1.0976
 1183SOL     OW 4447   1.565   4.912   6.641  0.0618  0.3857 -0.2497
 1183SOL    HW1 4448   1.576   5.003   6.602  0.9422  0.9006  1.1092
 1183SOL    HW2 4449   1.595   4.913   6.737 -1.0664 -1.0487  0.1533
 1184SOL     OW 4450   6.255   0.634   3.538 -0.1186 -0.2843  0.3226
 1184SOL    HW1 4451   6.305   0.547   3.542 -0.5975 -0.6166 -0.5503
 1184SOL    HW2 4452   6.319   0.708   3.518  0.0407 -0.7190 -0.8863
 1185SOL     OW 4453   6.526   0.445   0.232  0.5271 -0.1688  0.4966
 1185SOL    HW1 4454   6.587   0.513   0.192  0.8462 -1.8905 -2.2621
 1185SOL    HW2 4455   6.454   0.423   0.166 -0.7441 -1.0752  2.1104
 1186SOL     OW 4456   5.079   3.862   4.183  0.0228 -0.1429 -0.2692
 1186SOL    HW1 4457   5.027   3.861   4.269 -0.0007 -0.2234 -0.2842
 1186SOL    HW2 4458   5.019   3.835   4.107 -0.0340  0.2184 -0.3534
 1187SOL     OW 4459   5.528   1.287   0.347 -0.0655 -0.1862 -0.3716
 1187SOL    HW1 4460   5.538   1.323   0.254  0.4627 -2.1118 -1.1189
 1187SOL    HW2 4461   5.439   1.243   0.356  0.4692 -1.3297 -0.4889
 1188SOL     OW 4462   5.261   1.955   5.770  0.0678 -0.5271 -0.0008
 1188SOL    HW1 4463   5.223   2.031   5.821  0.1244 -0.5526  0.0801
 1188SOL    HW2 4464   5.196   1.879   5.769  0.4327 -0.8570  0.8018
 1189SOL     OW 4465   5.401   3.687   3.973 -0.1356 -0.0644 -0.1871
 1189SOL    HW1 4466   5.454   3.748   3.914  2.3477 -1.0846  0.8784
 1189SOL    HW2 4467   5.331   3.640   3.918  0.7518  0.5192 -1.8831
 1190SOL     OW 4468   1.576   3.279   5.585  0.0507  0.2245  0.3678
 1190SOL    HW1 4469   1.606   3.374   5.598 -0.9356  0.3070  2.4685
 1190SOL    HW2 4470   1.545   3.242   5.673 -0.9916 -1.5686 -0.7079
 1191SOL     OW 4471   2.452   5.729   2.305  0.6604  0.2197  0.1363
 1191SOL    HW1 4472   2.438   5.694   2.212 -1.2076  0.0844  0.4356
 1191SOL    HW2 4473   2.550   5.736   2.323  1.0923 -1.8700 -1.0514
 1192SOL     OW 4474   6.309   4.801   3.456 -0.0558 -0.0633  0.0871
 1192SOL    HW1 4475   6.325   4.897   3.432 -1.1317  0.3411  0.9178
 1192SOL    HW2 4476   6.394   4.760   3.488 -0.1036  1.4055  2.3331
 1193SOL     OW 4477   1.125   5.013   4.167 -0.0416 -0.0456 -0.1626
 1193SOL    HW1 4478   1.198   4.959   4.210  0.8428  0.7378 -0.6333
 1193SOL    HW2 4479   1.166   5.085   4.111 -1.1580  1.9552  1.4541
 1194SOL     OW 4480   2.988   6.860   0.715 -0.4733  0.2552  0.1562
 1194SOL    HW1 4481   3.088   6.867   0.713 -0.5813  2.3220  0.4468
 1194SOL    HW2 4482   2.962   6.778   0.767  1.0509  0.5789  1.5045
 1195SOL     OW 4483   6.675   2.870   4.153 -0.1977 -0.2907 -0.5055
 1195SOL    HW1 4484   6.701   2.819   4.071  3.0746  2.2429 -1.2772
 1195SOL    HW2 4485   6.683   2.811   4.233  2.1751 -1.4192 -1.4614
 1196SOL     OW 4486   6.744   0.337   4.342  0.2379  0.2558  0.6450
 1196SOL    HW1 4487   6.745   0.240   4.320  0.0437  0.2060  0.8528
 1196SOL    HW2 4488   6.679   0.354   4.416  1.3707  0.3198  1.6581
 1197SOL     OW 4489   2.476   1.119   6.896 -0.4330  0.0626  0.2647
 1197SOL    HW1 4490   2.529   1.151   6.818 -1.8871 -1.1801 -1.2895
 1197SOL    HW2 4491   2.506   1.026   6.920 -0.5415  0.1358  0.6922
 1198SOL     OW 4492   0.157   0.732   1.429 -0.1289  0.8630 -0.5030
 1198SOL    HW1 4493   0.253   0.716   1.405  0.1499  1.8989 -0.1016
 1198SOL    HW2 4494   0.121   0.651   1.475  1.5164  1.5775  2.2924
 1199SOL     OW 4495   6.775   5.287   4.424  0.3066 -0.2557 -0.6487
 1199SOL    HW1 4496   6.789   5.301   4.522  0.1333 -1.8673 -0.3643
 1199SOL    HW2 4497   6.862   5.298   4.377  0.2134  1.5454 -0.4858
 1200SOL     OW 4498   2.758   3.457   1.306  0.3090  0.3926  0.3491
 1200SOL    HW1 4499   2.744   3.513   1.388 -0.6852 -1.1740  1.2831
 1200SOL    HW2 4500   2.850   3.474   1.270  1.1946  0.2949  2.4393
 1201SOL     OW 4501   6.955   2.361   4.966 -0.2349 -0.0799  0.0464
 1201SOL    HW1 4502   7.021   2.305   4.917  0.1650  0.3079  0.1432
 1201SOL    HW2 4503   6.954   2.334   5.063 -2.2684 -2.0596 -0.4290
 1202SOL     OW 4504   6.826   0.356   6.602 -0.0926 -0.1919 -0.4391
 1202SOL    HW1 4505   6.772   0.303   6.537  2.3478 -0.7867 -2.0833
 1202SOL    HW2 4506   6.856   0.296   6.677  0.7785 -0.6109 -1.1119
 1203SOL     OW 4507   3.868   6.545   3.844 -0.0092 -0.3349  0.1442
 1203SOL    HW1 4508   3.862   6.572   3.940 -1.2186  1.2235 -0.3310
 1203SOL    HW2 4509   3.870   6.445   3.838  0.6787 -0.4576  1.7931
 1204SOL     OW 4510   2.200   5.875   3.721 -0.0214 -0.4508  0.5352
 1204SOL    HW1 4511   2.199   5.974   3.711 -1.4121 -0.4155  0.7006
 1204SOL    HW2 4512   2.135   5.834   3.657  0.7465 -1.2830  0.2708
 1205SOL     OW 4513   0.987   2.864   2.143  0.0212  0.3375 -0.2187
 1205SOL    HW1 4514   0.923   2.931   2.107 -0.0648  0.9762  1.0774
 1205SOL    HW2 4515   0.996   2.788   2.078 -0.9613  0.9085 -1.0477
 1206SOL     OW 4516   3.975   3.856   3.564 -0.2993  0.5554  0.1652
 1206SOL    HW1 4517   4.045   3.926   3.571 -0.4604  0.7698 -0.3384
 1206SOL    HW2 4518   3.916   3.875   3.486 -0.6099  0.0997  0.2829
 1207SOL     OW 4519   6.997   4.502   3.592 -0.1556 -0.0782 -0.1756
 1207SOL    HW1 4520   7.064   4.573   3.574 -0.0301  0.0620  0.7787
 1207SOL    HW2 4521   7.022   4.419   3.542  2.1231 -0.8133  1.9561
 1208SOL     OW 4522   3.556   1.253   0.113  1.1619 -0.7431  0.1533
 1208SOL    HW1 4523   3.639   1.200   0.127  3.1669  1.2406 -2.8392
 1208SOL    HW2 4524   3.521   1.237   0.021 -0.1862  0.4822  0.4040
 1209SOL     OW 4525   5.497   6.885   6.075 -0.2189  0.1109  0.1812
 1209SOL    HW1 4526   5.579   6.940   6.059 -0.2095  0.1523  0.3622
 1209SOL    HW2 4527   5.472   6.837   5.991 -0.6634  0.9751 -0.1943
 1210SOL     OW 4528   2.029   1.926   4.575  0.4260  0.3694 -0.2671
 1210SOL    HW1 4529   2.093   1.950   4.648  1.4153  0.2956 -1.0894
 1210SOL    HW2 4530   2.064   1.847   4.525 -1.2220 -0.8203  0.4058
 1211SOL     OW 4531   1.895   4.669   1.166  0.1686  0.0836 -0.1236
 1211SOL    HW1 4532   1.930   4.762   1.175 -0.2020  0.1031  1.4098
 1211SOL    HW2 4533   1.851   4.658   1.077 -0.7190  1.7129  0.0688
 1212SOL     OW 4534   0.358   6.652   0.426 -0.0756  0.0751  0.2579
 1212SOL    HW1 4535   0.382   6.652   0.523  1.0976  0.5454 -0.0168
 1212SOL    HW2 4536   0.270   6.605   0.413  1.0843 -2.4925  1.2017
 1213SOL     OW 4537   0.669   3.355   2.617  0.5695 -0.3050 -0.3629
 1213SOL    HW1 4538   0.735   3.409   2.565 -0.2498  0.5162 -0.5879
 1213SOL    HW2 4539   0.700   3.347   2.712  0.6071  0.7764 -0.2651
 1214SOL     OW 4540   0.853   1.507   4.637 -0.0589  0.1401 -0.0361
 1214SOL    HW1 4541   0.810   1.576   4.696  1.4088 -0.9476  2.4677
 1214SOL    HW2 4542   0.940   1.542   4.604  0.5783 -0.3609  1.0484
 1215SOL     OW 4543   2.069   6.328   1.189 -0.3440 -0.7169  0.4090
 1215SOL    HW1 4544   2.074   6.312   1.288  1.0947  1.6973  0.8091
 1215SOL    HW2 4545   2.102   6.420   1.169 -0.9232 -1.0333 -2.3212
 1216SOL     OW 4546   4.279   5.321   3.038  0.0310 -0.2683  0.5567
 1216SOL    HW1 4547   4.363   5.287   3.079 -0.4859 -0.0797  1.8040
 1216SOL    HW2 4548   4.260   5.413   3.071 -0.1856  0.0552 -0.4343
 1217SOL     OW 4549   1.944   5.027   6.351 -0.3490  0.1990  0.1180
 1217SOL    HW1 4550   1.878   5.075   6.294  0.0970 -0.9967 -1.5074
 1217SOL    HW2 4551   1.900   4.948   6.394 -0.8539  1.4728  2.0475
 1218SOL     OW 4552   1.524   5.839   3.974 -0.1606  0.2736  0.0814
 1218SOL    HW1 4553   1.578   5.808   4.052 -0.7252 -0.0768  0.3417
 1218SOL    HW2 4554   1.428   5.848   4.002 -0.5033 -0.6023 -0.7689
 1219SOL     OW 4555   3.564   5.331   3.525 -0.4045  0.1339 -0.8613
 1219SOL    HW1 4556   3.467   5.352   3.540 -0.6619 -0.6478 -1.3891
 1219SOL    HW2 4557   3.599   5.387   3.450 -0.6443 -0.1149 -1.1592
 1220SOL     OW 4558   0.816   3.861   5.907 -0.4419  0.0632 -0.7770
 1220SOL    HW1 4559   0.915   3.858   5.891 -0.2297 -1.4690  0.4370
 1220SOL    HW2 4560   0.783   3.767   5.923 -1.6947  0.7363  0.9011
 1221SOL     OW 4561   3.407   1.877   6.019  0.2791 -0.1952 -0.0802
 1221SOL    HW1 4562   3.403   1.913   5.926  1.2680  0.4177  0.0892
 1221SOL    HW2 4563   3.330   1.913   6.072 -0.1346 -0.3279 -0.5838
 1222SOL     OW 4564   6.922   2.909   1.592 -0.3850  0.3892 -0.4138
 1222SOL    HW1 4565   6.994   2.843   1.614 -0.8070  0.5514  1.6622
 1222SOL    HW2 4566   6.834   2.861   1.582 -0.0804  0.2159 -2.7423
 1223SOL     OW 4567   6.695   5.571   3.657 -0.0754 -0.2355 -0.1381
 1223SOL    HW1 4568   6.729   5.665   3.655 -0.2921 -0.1528 -0.0526
 1223SOL    HW2 4569   6.718   5.529   3.744  0.1385 -0.3058 -0.2286
 1224SOL     OW 4570   2.301   1.337   0.265  0.9409  0.0794  0.0535
 1224SOL    HW1 4571   2.347   1.261   0.219  0.7222 -1.0983  1.7161
 1224SOL    HW2 4572   2.264   1.400   0.196  1.4268 -1.1234 -1.3528
 1225SOL     OW 4573   3.284   5.167   0.506  1.0226  0.2481 -0.0741
 1225SOL    HW1 4574   3.363   5.107   0.519  2.0893  1.6859  0.4100
 1225SOL    HW2 4575   3.250   5.197   0.595 -0.5002 -0.8386 -0.2484
 1226SOL     OW 4576   2.203   6.315   6.153  0.3152  0.3741  0.8198
 1226SOL    HW1 4577   2.152   6.396   6.180  0.1993  0.6569 -0.2019
 1226SOL    HW2 4578   2.171   6.236   6.206 -0.6680  0.6980  0.7273
 1227SOL     OW 4579   1.973   6.582   0.254  0.1186 -0.7730 -0.1002
 1227SOL    HW1 4580   1.944   6.612   0.163  0.3220 -0.1434  0.0346
 1227SOL    HW2 4581   1.946   6.651   0.322  0.3799 -1.0161  0.2574
 1228SOL     OW 4582   3.924   2.783   1.178 -0.2822 -0.3607 -0.6336
 1228SOL    HW1 4583   3.826   2.784   1.198 -0.5129 -0.8761 -1.6354
 1228SOL    HW2 4584   3.962   2.693   1.200  0.1158  0.0320  0.3507
 1229SOL     OW 4585   3.270   4.617   5.390  0.0445 -0.2954 -0.4261
 1229SOL    HW1 4586   3.182   4.641   5.348 -0.7689  2.3467  2.4313
 1229SOL    HW2 4587   3.343   4.671   5.348 -0.0178 -0.8786 -1.3107
 1230SOL     OW 4588   4.413   5.248   2.654  0.0699 -0.9565 -0.2911
 1230SOL    HW1 4589   4.422   5.322   2.722 -0.4474 -0.7135 -0.4799
 1230SOL    HW2 4590   4.433   5.160   2.697  0.7601 -0.7018 -0.0773
 1231SOL     OW 4591   2.000   3.030   4.081  0.1076  0.2812  0.1855
 1231SOL    HW1 4592   2.018   3.124   4.052  1.7967  0.5206  1.8112
 1231SOL    HW2 4593   1.938   3.031   4.159  1.0490  0.1718  0.9587
 1232SOL     OW 4594   2.086   2.587   3.206  0.8243 -0.0265  0.0293
 1232SOL    HW1 4595   2.029   2.537   3.142  0.0783  0.1403  0.5457
 1232SOL    HW2 4596   2.135   2.523   3.265 -0.1628 -0.1553  0.7189
 1233SOL     OW 4597   7.007   3.258   3.582  0.2567 -0.3562  0.4529
 1233SOL    HW1 4598   6.982   3.354   3.594  0.6797 -0.0816 -0.7650
 1233SOL    HW2 4599   7.087   3.237   3.638 -1.4149 -0.7422  2.8665
 1234SOL     OW 4600   0.996   3.994   2.523 -0.2855 -0.3410 -0.3961
 1234SOL    HW1 4601   0.935   3.919   2.548  0.5646 -0.8824  0.1357
 1234SOL    HW2 4602   1.033   3.979   2.432  0.5112 -1.0200  0.0198
 1235SOL     OW 4603   0.312   4.514   2.846  0.0002  0.4489  0.5270
 1235SOL    HW1 4604   0.366   4.556   2.773  1.7151  0.5760  1.8007
 1235SOL    HW2 4605   0.354   4.535   2.934 -1.5247 -0.4272  1.4986
 1236SOL     OW 4606   4.910   0.033   6.484  0.3594 -0.3018  0.1217
 1236SOL    HW1 4607   4.915   0.044   6.385  0.1822  0.7989  0.2189
 1236SOL    HW2 4608   4.814   0.033   6.513  0.3973 -1.0500  0.2510
 1237SOL     OW 4609   1.951   4.677   6.197  0.2995  0.2889  0.2396
 1237SOL    HW1 4610   1.955   4.697   6.099  0.5839 -1.2719 -0.1043
 1237SOL    HW2 4611   2.031   4.715   6.243  0.7178  0.1124 -0.3340
 1238SOL     OW 4612   2.332   2.304   0.940 -0.6689  0.0895  0.2372
 1238SOL    HW1 4613   2.259   2.335   0.880  1.3699  0.5316 -2.1565
 1238SOL    HW2 4614   2.376   2.224   0.900  0.2510 -0.1039  1.5737
 1239SOL     OW 4615   6.342   0.691   5.557  0.0003 -0.1379 -0.5778
 1239SOL    HW1 4616   6.337   0.707   5.459 -1.2516  0.8704 -0.3807
 1239SOL    HW2 4617   6.251   0.666   5.592  0.6534 -1.5757  0.1554
 1240SOL     OW 4618   5.958   3.578   1.708  0.0766  0.4412  0.5190
 1240SOL    HW1 4619   5.958   3.536   1.799  0.2011  2.7179  1.6495
 1240SOL    HW2 4620   5.887   3.537   1.652  0.1463 -1.1736  1.5544
 1241SOL     OW 4621   6.254   0.789   0.031  0.2052  0.0882  0.2110
 1241SOL    HW1 4622   6.270   0.863   0.096 -0.9233  1.0805 -0.5967
 1241SOL    HW2 4623   6.162   0.752   0.045  0.0782  0.0884 -0.6168
 1242SOL     OW 4624   2.593   2.316   0.282 -0.3683  0.0543  0.0145
 1242SOL    HW1 4625   2.610   2.376   0.360 -0.6238  0.4275 -0.2113
 1242SOL    HW2 4626   2.549   2.232   0.313  0.5146 -0.2698  0.4080
 1243SOL     OW 4627   3.506   6.504   5.507  0.0456  0.0132 -0.5109
 1243SOL    HW1 4628   3.589   6.472   5.552  0.6957  2.2577  0.0017
 1243SOL    HW2 4629   3.426   6.461   5.551  0.7443  0.8253  1.6983
 1244SOL     OW 4630   0.028   0.471   2.313 -0.1248  0.4876  0.1969
 1244SOL    HW1 4631   0.070   0.475   2.222  1.3413  0.2850  0.8383
 1244SOL    HW2 4632  -0.054   0.414   2.309 -0.8897  1.6211 -1.2786
 1245SOL     OW 4633   2.864   3.450   4.145  0.0243 -0.6726  0.0914
 1245SOL    HW1 4634   2.870   3.385   4.069  2.0429 -0.2338 -0.1877
 1245SOL    HW2 4635   2.910   3.535   4.119  0.9957 -0.6126  1.8814
 1246SOL     OW 4636   2.246   1.615   2.264  0.1563  0.3153 -0.0549
 1246SOL    HW1 4637   2.210   1.680   2.330 -0.4160  0.3856 -0.4381
 1246SOL    HW2 4638   2.187   1.611   2.184 -0.7796 -1.9237  0.6775
 1247SOL     OW 4639   5.555   0.943   5.323  0.0768  0.1208  0.1556
 1247SOL    HW1 4640   5.489   0.983   5.387 -0.5410 -0.1370 -0.3125
 1247SOL    HW2 4641   5.517   0.859   5.285  0.6217  0.0500 -0.2323
 1248SOL     OW 4642   1.296   5.179   1.811 -1.1421 -0.7889  0.5669
 1248SOL    HW1 4643   1.340   5.116   1.875 -1.3047 -0.1938  1.2896
 1248SOL    HW2 4644   1.317   5.273   1.838  0.4248 -0.5254 -1.4304
 1249SOL     OW 4645   5.682   2.008   3.721  0.0639  0.2335 -0.0998
 1249SOL    HW1 4646   5.771   1.963   3.715 -0.1847 -0.0962 -1.6596
 1249SOL    HW2 4647   5.692   2.104   3.696  0.0334  0.2793  0.0624
 1250SOL     OW 4648   1.412   3.661   5.082 -1.1616 -0.3415  0.0690
 1250SOL    HW1 4649   1.410   3.602   5.162  1.2633 -1.0075 -0.2860
 1250SOL    HW2 4650   1.387   3.754   5.108 -0.9530 -0.6647  1.4824
 1251SOL     OW 4651   3.020   0.355   0.219 -0.3696  0.5454 -0.5959
 1251SOL    HW1 4652   3.008   0.262   0.254  1.4848  0.7660  0.7954
 1251SOL    HW2 4653   3.023   0.352   0.119  2.1881 -1.3376 -0.5800
 1252SOL     OW 4654   4.022   2.902   0.192  0.0623 -0.2377 -0.0680
 1252SOL    HW1 4655   4.117   2.906   0.220 -0.4806  1.0683  1.7568
 1252SOL    HW2 4656   3.973   2.835   0.248 -0.3120 -0.1900 -0.3330
 1253SOL     OW 4657   5.300   2.863   4.405 -0.1134  0.2154  0.1062
 1253SOL    HW1 4658   5.362   2.850   4.483 -0.2950  2.9242  0.7828
 1253SOL    HW2 4659   5.350   2.847   4.320  1.7148  2.6092  0.6130
 1254SOL     OW 4660   6.275   0.516   5.096  0.0181  0.3982 -0.3536
 1254SOL    HW1 4661   6.353   0.454   5.100 -0.2337  0.1304  0.6810
 1254SOL    HW2 4662   6.269   0.557   5.005 -0.9173 -2.5275 -1.7178
 1255SOL     OW 4663   5.947   0.542   1.359 -0.2489 -0.2077 -0.7262
 1255SOL    HW1 4664   5.999   0.621   1.327 -0.8160  0.2833 -0.4513
 1255SOL    HW2 4665   5.917   0.558   1.453  0.0169 -0.9471 -0.5110
 1256SOL     OW 4666   4.838   3.879   3.951  0.1870  0.0713 -0.0072
 1256SOL    HW1 4667   4.804   3.967   3.984  0.5708 -0.3118  1.4804
 1256SOL    HW2 4668   4.812   3.807   4.015  1.0791 -0.6979 -0.4844
 1257SOL     OW 4669   0.115   0.977   3.110  0.3251  0.4226  0.1801
 1257SOL    HW1 4670   0.201   1.002   3.067  0.4439 -0.7589 -0.2960
 1257SOL    HW2 4671   0.123   0.887   3.153  0.0082  1.2712  2.1291
 1258SOL     OW 4672   0.733   5.629   3.539  0.0084  0.1463  0.4395
 1258SOL    HW1 4673   0.806   5.560   3.547  0.2373  0.5552  2.5523
 1258SOL    HW2 4674   0.650   5.595   3.584 -1.4059 -0.5808 -2.5027
 1259SOL     OW 4675   4.896   1.042   5.610  0.1958 -0.1404 -0.2429
 1259SOL    HW1 4676   4.836   1.040   5.690  0.3706  0.2166 -0.1023
 1259SOL    HW2 4677   4.933   0.950   5.593  0.3866 -0.1581  0.2619
 1260SOL     OW 4678   0.883   0.877   2.295 -0.3879 -0.4049 -0.0677
 1260SOL    HW1 4679   0.801   0.843   2.341 -0.7719  1.4448  0.7134
 1260SOL    HW2 4680   0.885   0.977   2.299  1.3609 -0.3485 -1.0430
 1261SOL     OW 4681   1.009   6.633   1.168 -0.0440  0.5431  0.1522
 1261SOL    HW1 4682   0.917   6.657   1.137  0.7316  0.4113 -2.4933
 1261SOL    HW2 4683   1.016   6.533   1.177 -0.0479  0.5298  0.0023
 1262SOL     OW 4684   5.641   5.144   2.632  0.1948  0.4381  0.4038
 1262SOL    HW1 4685   5.690   5.069   2.588  2.4393  1.6053  0.7815
 1262SOL    HW2 4686   5.611   5.116   2.724  0.5599 -0.1542  0.3433
 1263SOL     OW 4687   0.787   2.014   4.614 -0.2920 -1.0959 -0.4987
 1263SOL    HW1 4688   0.740   2.045   4.697  0.7528  1.1498 -0.6773
 1263SOL    HW2 4689   0.722   2.006   4.540 -0.6204  1.1334 -0.5218
 1264SOL     OW 4690   1.279   3.048   5.388 -0.5956  0.1650 -0.8598
 1264SOL    HW1 4691   1.202   3.003   5.343 -0.7426 -0.4236 -0.0398
 1264SOL    HW2 4692   1.362   2.994   5.371 -0.8041 -0.5488  0.2799
 1265SOL     OW 4693   3.423   0.852   0.026  0.4344  0.7309 -0.5529
 1265SOL    HW1 4694   3.501   0.806  -0.016  0.9854  1.5925 -0.4919
 1265SOL    HW2 4695   3.452   0.940   0.063 -0.7098  1.3762 -1.1356
 1266SOL     OW 4696   2.968   1.687   5.061  0.1831 -0.0045  0.1737
 1266SOL    HW1 4697   2.915   1.680   4.976  0.1034 -0.3596  0.2518
 1266SOL    HW2 4698   2.949   1.608   5.119  0.9106 -0.2126  0.1382
 1267SOL     OW 4699   3.868   2.035   1.055 -0.0588  0.9894  1.1459
 1267SOL    HW1 4700   3.821   2.082   0.981  1.8907  0.1155 -0.7913
 1267SOL    HW2 4701   3.880   1.938   1.031  2.8154  1.1865  1.3609
 1268SOL     OW 4702   4.297   3.293   5.362 -0.7910 -0.4101  0.2771
 1268SOL    HW1 4703   4.320   3.391   5.356 -1.8232 -0.2423 -1.8694
 1268SOL    HW2 4704   4.244   3.277   5.446 -0.1819  0.7647  0.9219
 1269SOL     OW 4705   4.697   4.205   3.345  0.2844 -0.3862 -0.4088
 1269SOL    HW1 4706   4.695   4.287   3.288 -1.0771 -1.6796 -2.3782
 1269SOL    HW2 4707   4.677   4.229   3.440  1.1601  1.6742 -0.6974
 1270SOL     OW 4708   6.704   5.184   3.437 -0.4878 -0.6803  0.8743
 1270SOL    HW1 4709   6.647   5.110   3.403  0.1029  0.0197 -1.9087
 1270SOL    HW2 4710   6.647   5.262   3.462 -0.9023  0.2420 -2.4684
 1271SOL     OW 4711   3.173   0.335   3.060 -0.5061 -0.0398  0.6444
 1271SOL    HW1 4712   3.103   0.308   2.994 -1.9585 -0.1852  2.1664
 1271SOL    HW2 4713   3.264   0.326   3.019 -1.1641 -2.9779 -0.3853
 1272SOL     OW 4714   0.386   2.016   2.014 -0.1167 -0.1809  0.4179
 1272SOL    HW1 4715   0.352   2.016   2.108 -1.0316  0.1770  0.0888
 1272SOL    HW2 4716   0.380   2.108   1.976  2.8055  0.3186  0.8976
 1273SOL     OW 4717   1.783   3.862   5.644  0.0495 -0.4265  0.2471
 1273SOL    HW1 4718   1.844   3.913   5.704  1.2556 -1.1640 -0.3028
 1273SOL    HW2 4719   1.693   3.905   5.643  0.4105  0.4165  1.4529
 1274SOL     OW 4720   0.693   3.853   3.657  0.7749  0.5260 -0.3179
 1274SOL    HW1 4721   0.682   3.754   3.669 -0.8794  0.6979 -0.0712
 1274SOL    HW2 4722   0.611   3.899   3.691  0.8556  1.8851 -1.8494
 1275SOL     OW 4723   2.494   1.670   4.561 -0.0317  0.2177 -0.0718
 1275SOL    HW1 4724   2.589   1.703   4.565 -0.5157  1.5831  0.7373
 1275SOL    HW2 4725   2.440   1.731   4.503 -0.5382 -0.2730 -0.1245
 1276SOL     OW 4726   5.766   4.410   4.612  0.2325  0.4181  0.4568
 1276SOL    HW1 4727   5.817   4.459   4.683  4.7064 -2.2346 -0.4833
 1276SOL    HW2 4728   5.763   4.464   4.528  0.0727  1.2565  0.9961
 1277SOL     OW 4729   1.034   0.748   4.890  0.4125  0.7204 -0.3735
 1277SOL    HW1 4730   1.067   0.822   4.831 -1.6602  1.2749 -0.8950
 1277SOL    HW2 4731   0.961   0.698   4.844 -0.1838  0.1595  1.1107
 1278SOL     OW 4732   6.215   6.932   2.767  0.1149  0.2540 -0.2025
 1278SOL    HW1 4733   6.295   6.919   2.707 -1.1528  1.3407 -2.2588
 1278SOL    HW2 4734   6.134   6.894   2.721 -1.1079  2.1737  0.2789
 1279SOL     OW 4735   3.422   4.285   5.529  0.0625 -0.2024  0.1920
 1279SOL    HW1 4736   3.369   4.298   5.446  2.0621  1.1675 -0.9324
 1279SOL    HW2 4737   3.419   4.369   5.584 -1.6260 -1.2370  1.8224
 1280SOL     OW 4738   2.106   2.682   4.837  0.2254  0.2637 -0.9229
 1280SOL    HW1 4739   2.181   2.618   4.856  0.7704  1.1544  0.0128
 1280SOL    HW2 4740   2.142   2.774   4.828 -0.6326  0.5438 -1.6602
 1281SOL     OW 4741   0.025   5.729   6.243 -0.2292  0.1522  0.0362
 1281SOL    HW1 4742   0.083   5.650   6.265 -1.3317 -0.5398  0.5731
 1281SOL    HW2 4743  -0.012   5.768   6.328 -0.1457  0.9020 -0.2625
 1282SOL     OW 4744   0.123   1.325   2.123  0.6198  0.2533 -0.0914
 1282SOL    HW1 4745   0.041   1.345   2.177  0.8952 -0.8658  0.7854
 1282SOL    HW2 4746   0.155   1.232   2.144  2.3364  0.8048 -0.1459
 1283SOL     OW 4747   6.942   0.630   5.713  0.5450  0.0745 -0.7409
 1283SOL    HW1 4748   6.888   0.554   5.675 -2.0138  1.1324  0.5345
 1283SOL    HW2 4749   6.941   0.707   5.649 -1.7369  0.9902  0.2665
 1284SOL     OW 4750   4.122   1.704   1.721  0.4401 -0.2210 -0.6409
 1284SOL    HW1 4751   4.086   1.624   1.674  0.5763  1.1261 -3.2274
 1284SOL    HW2 4752   4.158   1.769   1.653  0.1610  2.1178  1.3207
 1285SOL     OW 4753   3.324   1.518   5.766  0.2635  0.3316  0.4827
 1285SOL    HW1 4754   3.288   1.527   5.859 -0.0336  0.9913  0.3052
 1285SOL    HW2 4755   3.267   1.570   5.702 -0.1292 -0.9279 -0.2255
 1286SOL     OW 4756   6.807   0.161   3.484  0.1244 -0.8912  0.1838
 1286SOL    HW1 4757   6.766   0.166   3.393 -0.1385 -1.4487  0.2646
 1286SOL    HW2 4758   6.880   0.093   3.484 -0.1526 -1.1945  0.4891
 1287SOL     OW 4759   0.365   3.820   5.368  0.5897 -0.2255 -1.0285
 1287SOL    HW1 4760   0.323   3.889   5.426 -1.3036 -0.9414 -1.4824
 1287SOL    HW2 4761   0.354   3.846   5.272  0.4070 -0.8415 -1.1810
 1288SOL     OW 4762   5.408   4.108   6.256 -0.5511  0.3094  0.0080
 1288SOL    HW1 4763   5.320   4.155   6.268  0.1112  1.8080 -0.6816
 1288SOL    HW2 4764   5.434   4.063   6.342 -1.1465  1.3738  0.7749
 1289SOL     OW 4765   3.103   1.549   6.642 -0.4855  0.0068 -0.2525
 1289SOL    HW1 4766   3.063   1.466   6.605 -0.5291  0.0479 -0.2980
 1289SOL    HW2 4767   3.093   1.623   6.576 -0.1438 -0.0345 -0.3528
 1290SOL     OW 4768   6.591   6.349   3.606  0.1646  0.2838 -0.4906
 1290SOL    HW1 4769   6.581   6.384   3.513  0.8116  0.3650 -0.5358
 1290SOL    HW2 4770   6.537   6.266   3.617 -1.5048  1.3524 -0.3415
 1291SOL     OW 4771   5.570   6.243   3.308  0.5104 -0.6872  0.3116
 1291SOL    HW1 4772   5.489   6.186   3.319 -0.7292  0.5637 -1.7067
 1291SOL    HW2 4773   5.641   6.192   3.259 -0.1039 -0.9311 -0.3374
 1292SOL     OW 4774   6.911   0.594   3.161 -0.1612 -0.2488 -0.1848
 1292SOL    HW1 4775   6.814   0.617   3.160 -0.4847 -1.5658  0.2122
 1292SOL    HW2 4776   6.923   0.495   3.162  1.1999 -0.1466 -1.4930
 1293SOL     OW 4777   4.083   6.331   1.083 -0.5553 -0.0013 -0.4047
 1293SOL    HW1 4778   4.132   6.418   1.080  1.4703 -1.0014  0.8858
 1293SOL    HW2 4779   4.014   6.333   1.155 -0.9736  0.7362 -0.8194
 1294SOL     OW 4780   2.798   4.787   4.583  0.8909  0.1614 -0.1123
 1294SOL    HW1 4781   2.768   4.702   4.626 -0.3513 -0.7756 -2.6270
 1294SOL    HW2 4782   2.718   4.839   4.553  1.6825  1.1488 -0.5727
 1295SOL     OW 4783   6.448   4.201   5.736 -0.0258  0.0912  0.0337
 1295SOL    HW1 4784   6.379   4.234   5.800  1.3496 -0.3070  1.7798
 1295SOL    HW2 4785   6.540   4.226   5.769  0.8304 -1.7926 -0.7764
 1296SOL     OW 4786   3.957   0.712   1.150  0.2699  0.1784  0.7404
 1296SOL    HW1 4787   3.942   0.766   1.232 -0.1640 -0.5275  1.1308
 1296SOL    HW2 4788   3.871   0.700   1.101  0.7182  1.5940 -0.4624
 1297SOL     OW 4789   5.199   6.632   6.190 -0.0999  0.0298  0.0465
 1297SOL    HW1 4790   5.179   6.672   6.101  2.0830  1.5703  0.1625
 1297SOL    HW2 4791   5.137   6.670   6.259 -0.7567  0.0278 -0.5297
 1298SOL     OW 4792   0.162   0.199   3.329  0.1852 -0.2400  0.7691
 1298SOL    HW1 4793   0.209   0.140   3.264 -0.3367  0.0037  0.1638
 1298SOL    HW2 4794   0.120   0.143   3.401  1.0140 -0.4888  1.0774
 1299SOL     OW 4795   0.582   5.106   5.481 -0.3675 -0.1670  0.5561
 1299SOL    HW1 4796   0.596   5.110   5.383 -0.4892  0.4913  0.5642
 1299SOL    HW2 4797   0.504   5.163   5.507  0.2326  0.4157  1.1397
 1300SOL     OW 4798   0.749   4.532   2.047 -0.3974  0.1266 -0.2003
 1300SOL    HW1 4799   0.797   4.444   2.048  0.0459  0.3624  1.1847
 1300SOL    HW2 4800   0.686   4.535   1.969 -0.9948 -1.7369  0.1581
 1301SOL     OW 4801   5.918   1.654   0.451 -0.2088 -0.3072 -0.2341
 1301SOL    HW1 4802   5.878   1.733   0.496 -1.8687 -1.8010  1.0662
 1301SOL    HW2 4803   5.934   1.674   0.355 -0.3075  1.6695  0.1229
 1302SOL     OW 4804   0.261   0.218   4.742 -0.4106 -0.8102  0.1826
 1302SOL    HW1 4805   0.275   0.124   4.774 -2.1621 -0.8462  0.9317
 1302SOL    HW2 4806   0.290   0.283   4.812  0.4899 -0.7891 -0.2032
 1303SOL     OW 4807   2.915   6.630   0.863  0.3947  0.0260 -0.2212
 1303SOL    HW1 4808   2.819   6.603   0.858 -0.1154  1.7678 -0.5694
 1303SOL    HW2 4809   2.943   6.636   0.959 -0.9703  2.9694  0.1242
 1304SOL     OW 4810   6.596   1.001   0.407  0.4167  0.1585 -0.5038
 1304SOL    HW1 4811   6.572   0.907   0.433  0.4036 -0.2741 -2.0138
 1304SOL    HW2 4812   6.610   1.006   0.308  2.3763  1.3358 -0.2097
 1305SOL     OW 4813   4.043   5.118   5.183  0.2224  0.5176  0.0585
 1305SOL    HW1 4814   4.001   5.168   5.259  0.9766  1.1611  0.0684
 1305SOL    HW2 4815   4.140   5.103   5.204  0.1917 -0.2242 -0.3161
 1306SOL     OW 4816   2.613   1.024   3.323 -0.5876  0.0899 -0.3191
 1306SOL    HW1 4817   2.606   1.030   3.223  0.8457 -0.7208 -0.5046
 1306SOL    HW2 4818   2.599   0.930   3.352  1.9465 -0.3114 -0.1164
 1307SOL     OW 4819   1.039   3.544   4.113 -0.1525  0.3651  0.0447
 1307SOL    HW1 4820   1.089   3.518   4.030 -1.4838  1.9403 -1.3121
 1307SOL    HW2 4821   1.095   3.607   4.167 -0.2139  1.2684 -0.9169
 1308SOL     OW 4822   6.722   5.785   4.336 -0.2465  0.4901 -0.1774
 1308SOL    HW1 4823   6.673   5.703   4.365 -0.1922 -0.1492 -1.8344
 1308SOL    HW2 4824   6.759   5.772   4.244  0.0320  2.2656 -0.3526
 1309SOL     OW 4825   6.351   5.122   1.246  0.5068  0.2956  0.2937
 1309SOL    HW1 4826   6.416   5.086   1.179 -1.2460 -1.1672 -0.6913
 1309SOL    HW2 4827   6.337   5.055   1.319  0.8684  1.0427  1.0669
 1310SOL     OW 4828   2.532   2.170   4.386 -0.1737  0.0067  0.5028
 1310SOL    HW1 4829   2.575   2.241   4.442  0.2185  1.1477 -1.1643
 1310SOL    HW2 4830   2.444   2.204   4.352  0.4941  0.1504 -1.1677
 1311SOL     OW 4831   4.782   6.500   6.128 -0.0561  0.0253 -0.1789
 1311SOL    HW1 4832   4.761   6.583   6.180 -2.0251  0.0327 -0.9129
 1311SOL    HW2 4833   4.781   6.422   6.190 -0.7190  0.2372  0.0897
 1312SOL     OW 4834   1.959   1.211   6.560  0.6853  0.2212  1.0481
 1312SOL    HW1 4835   1.971   1.252   6.470  0.8367 -2.0040 -0.0166
 1312SOL    HW2 4836   1.873   1.243   6.601 -0.1962  0.0381 -0.5968
 1313SOL     OW 4837   4.943   4.330   2.435  0.4855  0.1566 -0.1824
 1313SOL    HW1 4838   4.955   4.369   2.527  1.5479 -1.2276  0.3156
 1313SOL    HW2 4839   4.846   4.328   2.411  0.1664  0.2838  1.0347
 1314SOL     OW 4840   4.079   1.729   3.880 -0.4269  0.2318  0.3202
 1314SOL    HW1 4841   4.037   1.802   3.826  0.4169 -0.0517 -0.7601
 1314SOL    HW2 4842   4.105   1.765   3.970 -2.4111  0.5538  0.8082
 1315SOL     OW 4843   4.060   1.402   3.657 -0.0463 -0.3022  0.0768
 1315SOL    HW1 4844   3.965   1.425   3.678  0.6974  2.1704  1.0620
 1315SOL    HW2 4845   4.096   1.467   3.590  0.9650 -1.1918 -0.2637
 1316SOL     OW 4846   4.137   6.937   6.843  0.0445 -0.2742 -0.4315
 1316SOL    HW1 4847   4.190   6.968   6.923  0.0441 -1.3522  0.0018
 1316SOL    HW2 4848   4.078   7.011   6.812 -0.9505 -0.2424  1.4107
 1317SOL     OW 4849   3.555   3.546   2.100  0.2326 -0.3066 -0.1139
 1317SOL    HW1 4850   3.631   3.488   2.070 -0.5655 -0.5483 -1.7528
 1317SOL    HW2 4851   3.504   3.498   2.171  1.1634 -0.4496  0.4817
 1318SOL     OW 4852   2.773   3.006   6.451  0.6585 -0.1354 -0.0031
 1318SOL    HW1 4853   2.748   3.025   6.546  1.8676  0.7798  0.1654
 1318SOL    HW2 4854   2.774   3.091   6.399 -1.4947 -0.8234 -1.2543
 1319SOL     OW 4855   0.219   1.704   0.820  0.1295 -0.5117  0.3018
 1319SOL    HW1 4856   0.127   1.676   0.851  0.3593 -0.0576  1.4608
 1319SOL    HW2 4857   0.237   1.797   0.852  0.9137 -0.5225 -0.1116
 1320SOL     OW 4858   3.560   2.053   4.894 -0.2510  0.1963  0.0250
 1320SOL    HW1 4859   3.639   2.086   4.946 -0.9049 -1.0002  1.8779
 1320SOL    HW2 4860   3.590   1.986   4.827  0.4251  0.5899 -0.0783
 1321SOL     OW 4861   0.630   1.383   1.116 -0.2677  0.5742  0.1437
 1321SOL    HW1 4862   0.552   1.342   1.162  1.0756 -2.5058 -0.1325
 1321SOL    HW2 4863   0.715   1.355   1.161  0.8172  1.8218 -1.0341
 1322SOL     OW 4864   1.527   4.638   0.294  0.4991  0.3381 -0.0190
 1322SOL    HW1 4865   1.605   4.624   0.355  0.8726  2.1441 -0.0332
 1322SOL    HW2 4866   1.540   4.722   0.242 -1.6785  0.9552  0.3457
 1323SOL     OW 4867   4.578   0.803   1.911  0.6622 -0.1462  0.4991
 1323SOL    HW1 4868   4.500   0.842   1.960  1.1913  0.9753  0.4750
 1323SOL    HW2 4869   4.658   0.863   1.921  1.4409 -1.1080  0.2538
 1324SOL     OW 4870   3.701   2.910   4.602  0.0419 -0.4573 -0.2699
 1324SOL    HW1 4871   3.618   2.961   4.624 -0.0048 -0.2169 -0.9689
 1324SOL    HW2 4872   3.780   2.970   4.614  0.0066 -0.2906 -0.8611
 1325SOL     OW 4873   5.390   3.470   3.563 -0.1011  0.0397 -0.1733
 1325SOL    HW1 4874   5.350   3.542   3.507  0.8962  0.7660  0.0306
 1325SOL    HW2 4875   5.467   3.428   3.515  0.7115  0.6133  0.5929
 1326SOL     OW 4876   3.200   1.292   4.053 -0.1382  0.0012 -0.4694
 1326SOL    HW1 4877   3.282   1.292   3.996  0.0763 -0.7191 -0.1744
 1326SOL    HW2 4878   3.218   1.344   4.137  0.0175 -0.1636 -0.4012
 1327SOL     OW 4879   5.913   6.598   4.177 -0.7865 -0.4211 -0.5146
 1327SOL    HW1 4880   5.894   6.606   4.080 -0.9063  1.0132 -0.3960
 1327SOL    HW2 4881   5.991   6.536   4.192  0.4504  0.7964 -1.6661
 1328SOL     OW 4882   6.740   2.012   6.319 -0.3553 -0.1495 -0.2631
 1328SOL    HW1 4883   6.712   1.920   6.293  1.6973 -1.1113  0.6916
 1328SOL    HW2 4884   6.676   2.048   6.387 -0.9779 -0.9968 -0.3782
 1329SOL     OW 4885   1.978   1.764   6.573 -0.1447  0.1443  0.1523
 1329SOL    HW1 4886   1.954   1.685   6.517 -0.2983 -0.0749  0.5243
 1329SOL    HW2 4887   1.976   1.739   6.669  0.2361  0.4866  0.2561
 1330SOL     OW 4888   5.767   3.235   2.577  0.3145 -0.6515 -0.0099
 1330SOL    HW1 4889   5.715   3.313   2.612  1.4955  0.9559 -1.6200
 1330SOL    HW2 4890   5.714   3.151   2.589 -1.5477  0.5611  0.6657
 1331SOL     OW 4891   4.044   0.554   2.692  0.3759  0.3156 -0.5080
 1331SOL    HW1 4892   4.123   0.572   2.752 -0.6003  0.2599  0.8323
 1331SOL    HW2 4893   4.049   0.615   2.613  1.1977  1.0731  0.0968
 1332SOL     OW 4894   6.604   0.612   5.386 -0.1979 -0.0112 -0.2297
 1332SOL    HW1 4895   6.638   0.608   5.292  0.4086 -0.6894  0.0123
 1332SOL    HW2 4896   6.526   0.551   5.396 -1.4860  1.4846 -0.7649
 1333SOL     OW 4897   3.304   2.911   3.264 -0.2254  0.0851 -0.2008
 1333SOL    HW1 4898   3.266   2.920   3.172  1.2913 -0.3264 -0.8886
 1333SOL    HW2 4899   3.400   2.937   3.263  0.1121 -1.0068  1.0254
 1334SOL     OW 4900   0.735   2.024   1.245 -0.0228  0.1510  0.2458
 1334SOL    HW1 4901   0.782   1.951   1.295  0.3130  0.1260 -0.1073
 1334SOL    HW2 4902   0.654   2.052   1.296  0.4624  0.3131  0.9541
 1335SOL     OW 4903   5.173   2.325   3.451 -0.1122  0.4322 -0.3724
 1335SOL    HW1 4904   5.120   2.404   3.421 -0.0945  0.8423  0.6023
 1335SOL    HW2 4905   5.267   2.333   3.416 -0.0691  0.9379 -0.1634
 1336SOL     OW 4906   0.573   1.214   6.667  0.0575 -0.3446  0.2395
 1336SOL    HW1 4907   0.577   1.187   6.571  2.6401 -2.1196  0.7455
 1336SOL    HW2 4908   0.493   1.172   6.710  0.3167 -1.7077 -0.5562
 1337SOL     OW 4909   1.870   0.234   1.410  0.2493 -0.3569 -0.4020
 1337SOL    HW1 4910   1.774   0.206   1.416 -0.4694  1.7682 -1.1573
 1337SOL    HW2 4911   1.883   0.320   1.459  1.7082 -0.4273 -0.6184
 1338SOL     OW 4912   1.671   4.372   6.343  0.5387 -0.0029  0.1070
 1338SOL    HW1 4913   1.603   4.410   6.281  2.1244  0.1832 -1.5906
 1338SOL    HW2 4914   1.690   4.438   6.416 -0.4228  0.3037  0.0969
 1339SOL     OW 4915   4.626   1.463   0.597  0.0405 -0.0870 -0.3170
 1339SOL    HW1 4916   4.712   1.463   0.648 -0.9564  0.6197  1.4785
 1339SOL    HW2 4917   4.634   1.522   0.517  1.3741 -0.4653 -0.4808
 1340SOL     OW 4918   1.785   3.383   2.158  0.3064 -0.2076  0.5698
 1340SOL    HW1 4919   1.880   3.364   2.183  0.0909 -0.3989  1.2697
 1340SOL    HW2 4920   1.740   3.298   2.132 -0.0208 -0.3213  1.4742
 1341SOL     OW 4921   0.363   4.470   6.256  0.0238 -0.3044  0.8468
 1341SOL    HW1 4922   0.287   4.447   6.196  0.4480 -1.5912  0.7805
 1341SOL    HW2 4923   0.367   4.405   6.332  1.0093 -0.2032  0.8980
 1342SOL     OW 4924   0.566   4.021   6.548 -0.2148 -0.0488 -0.4358
 1342SOL    HW1 4925   0.538   3.936   6.594  1.2259  0.3028  1.1766
 1342SOL    HW2 4926   0.650   4.005   6.497  0.5689  0.5915  0.6192
 1343SOL     OW 4927   5.790   0.210   2.823  0.0329  0.3668 -0.2366
 1343SOL    HW1 4928   5.738   0.160   2.893  1.7848 -0.0276  0.8689
 1343SOL    HW2 4929   5.807   0.303   2.854  1.3438  0.0114  0.2049
 1344SOL     OW 4930   0.091   1.096   5.952  0.1291 -0.1605  0.0093
 1344SOL    HW1 4931   0.137   1.149   5.880  2.4376 -2.7076 -0.5791
 1344SOL    HW2 4932   0.094   0.999   5.928  0.6793 -1.0838  3.3762
 1345SOL     OW 4933   6.670   6.612   4.341  0.2940  0.2437  0.2434
 1345SOL    HW1 4934   6.632   6.635   4.431  0.6593  1.5875  0.0904
 1345SOL    HW2 4935   6.622   6.534   4.303  0.0253 -0.2500  1.5425
 1346SOL     OW 4936   1.223   6.054   1.623 -0.7858 -0.2047  0.1688
 1346SOL    HW1 4937   1.226   6.066   1.722 -2.9547  2.0623  0.0688
 1346SOL    HW2 4938   1.130   6.032   1.595 -1.1138  2.7455 -1.5650
 1347SOL     OW 4939   5.773   5.709   6.400 -0.4597  0.3312  0.2753
 1347SOL    HW1 4940   5.738   5.617   6.417  0.9683 -0.3083 -0.0610
 1347SOL    HW2 4941   5.847   5.704   6.333  1.2128  1.3989  1.9598
 1348SOL     OW 4942   2.334   6.641   3.654  0.5441 -0.2019 -0.1834
 1348SOL    HW1 4943   2.381   6.637   3.742  0.4918  0.0973 -0.1387
 1348SOL    HW2 4944   2.332   6.736   3.622 -0.2403 -0.1680 -0.0650
 1349SOL     OW 4945   6.341   4.056   4.993  0.5531 -0.3056 -0.2558
 1349SOL    HW1 4946   6.258   4.087   5.039  0.9089 -0.7210  0.6696
 1349SOL    HW2 4947   6.410   4.032   5.060  0.9459 -1.3071 -0.9921
 1350SOL     OW 4948   6.335   4.541   6.281 -0.1571 -0.3222  0.1112
 1350SOL    HW1 4949   6.277   4.568   6.204 -0.1580  1.8199  0.7841
 1350SOL    HW2 4950   6.428   4.528   6.249 -0.0425  1.0941 -0.2176
 1351SOL     OW 4951   5.406   3.559   0.048  0.8394  0.3966  0.1507
 1351SOL    HW1 4952   5.313   3.583   0.074  0.5253 -0.8279  0.2154
 1351SOL    HW2 4953   5.403   3.493  -0.027  1.6561  0.1761  0.3052
 1352SOL     OW 4954   6.837   1.553   4.243 -0.0601 -0.1931 -0.0898
 1352SOL    HW1 4955   6.886   1.612   4.307 -2.2552  0.6515  0.8894
 1352SOL    HW2 4956   6.748   1.528   4.282 -0.3145 -1.9462 -1.6536
 1353SOL     OW 4957   6.056   3.767   4.809 -0.3930 -0.4302 -0.0113
 1353SOL    HW1 4958   6.095   3.846   4.762 -1.6250  0.9479  1.2013
 1353SOL    HW2 4959   6.019   3.795   4.898 -1.5044 -2.2340  0.1496
 1354SOL     OW 4960   6.411   4.988   4.199 -0.2632 -0.5844  0.3911
 1354SOL    HW1 4961   6.421   4.986   4.299 -0.3445  1.0991  0.4527
 1354SOL    HW2 4962   6.491   5.032   4.158 -0.2216 -1.2821 -0.3135
 1355SOL     OW 4963   3.759   2.970   3.425 -0.6662  0.3439 -0.1481
 1355SOL    HW1 4964   3.727   2.893   3.370 -0.1938  0.1152 -0.1069
 1355SOL    HW2 4965   3.777   2.939   3.519  0.1496  0.3556 -0.2963
 1356SOL     OW 4966   3.711   3.695   4.499 -0.1024  0.2852 -0.3985
 1356SOL    HW1 4967   3.795   3.652   4.533 -0.9902 -0.8956  0.3797
 1356SOL    HW2 4968   3.660   3.733   4.576  0.5358  2.6321 -1.0360
 1357SOL     OW 4969   0.548   4.109   3.788  0.5050 -0.0653  0.2876
 1357SOL    HW1 4970   0.553   4.018   3.829  2.1793 -0.9141 -1.6212
 1357SOL    HW2 4971   0.624   4.165   3.822  0.9660 -0.2471 -0.4250
 1358SOL     OW 4972   0.667   6.524   6.309  0.1131  0.6503  0.6916
 1358SOL    HW1 4973   0.730   6.595   6.278 -1.4607  2.1926  0.8375
 1358SOL    HW2 4974   0.575   6.544   6.274 -0.6891 -0.4244  2.0785
 1359SOL     OW 4975   5.534   5.784   6.286  0.0412 -0.1976 -0.0813
 1359SOL    HW1 4976   5.613   5.753   6.339  0.4575  1.9225  0.6694
 1359SOL    HW2 4977   5.453   5.734   6.315  0.6755 -0.6858  0.9341
 1360SOL     OW 4978   2.589   1.689   6.070  0.4092 -0.2723  0.0178
 1360SOL    HW1 4979   2.504   1.712   6.023  0.4955  0.5954  0.2655
 1360SOL    HW2 4980   2.660   1.667   6.003  0.1894 -0.2822 -0.2113
 1361SOL     OW 4981   5.593   5.032   2.881 -0.5656  0.4477  0.0408
 1361SOL    HW1 4982   5.505   5.000   2.916 -0.2867 -1.4182 -0.7911
 1361SOL    HW2 4983   5.660   5.032   2.955 -0.8645  0.1844  0.3168
 1362SOL     OW 4984   3.579   2.918   3.955  0.0980  0.8143  0.4603
 1362SOL    HW1 4985   3.665   2.961   3.982  0.2354  1.5603 -1.0146
 1362SOL    HW2 4986   3.552   2.851   4.023  3.1005 -1.2251 -0.1709
 1363SOL     OW 4987   0.439   6.652   3.965 -0.0776 -0.1108 -0.0705
 1363SOL    HW1 4988   0.478   6.710   3.893  1.0306  1.0267  1.3663
 1363SOL    HW2 4989   0.350   6.689   3.992  0.1083  0.2661  0.0440
 1364SOL     OW 4990   5.627   3.966   0.412 -0.4121  0.2154 -0.0951
 1364SOL    HW1 4991   5.696   3.942   0.480 -1.0829 -0.6651  0.2889
 1364SOL    HW2 4992   5.669   4.023   0.341  0.6089  0.0231  0.3331
 1365SOL     OW 4993   5.532   0.828   6.402  0.3080  0.2941 -0.1744
 1365SOL    HW1 4994   5.548   0.742   6.450 -1.2062 -0.2090 -0.5336
 1365SOL    HW2 4995   5.582   0.902   6.449  1.0870 -0.6509  0.5166
 1366SOL     OW 4996   1.683   1.310   4.340 -0.3014  0.3112 -0.8859
 1366SOL    HW1 4997   1.670   1.243   4.266 -0.2245  1.0605 -1.5954
 1366SOL    HW2 4998   1.778   1.341   4.341  0.4176 -1.6447  1.2641
 1367SOL     OW 4999   2.855   0.569   1.922  0.2791  0.4693  0.0752
 1367SOL    HW1 5000   2.908   0.486   1.941  0.6714  0.7005 -0.0039
 1367SOL    HW2 5001   2.836   0.575   1.824  0.9516  0.8860 -0.0372
 1368SOL     OW 5002   6.332   5.635   1.751 -0.2669  0.0867 -0.4813
 1368SOL    HW1 5003   6.287   5.723   1.769  0.1739  0.2377 -0.0904
 1368SOL    HW2 5004   6.428   5.651   1.730 -0.1456 -0.3172 -0.2380
 1369SOL     OW 5005   2.651   6.551   3.349  0.8849 -0.0407 -0.1990
 1369SOL    HW1 5006   2.646   6.513   3.442  1.3586 -0.9822 -0.5582
 1369SOL    HW2 5007   2.695   6.486   3.288 -1.7935 -0.5887 -1.6975
 1370SOL     OW 5008   3.293   0.256   2.594 -0.8910 -0.3251  0.2504
 1370SOL    HW1 5009   3.211   0.219   2.636 -0.2935 -1.5224  0.4149
 1370SOL    HW2 5010   3.281   0.354   2.577 -2.0554 -0.3306  0.9418
 1371SOL     OW 5011   2.042   6.746   3.384  0.4855 -0.4692 -0.5488
 1371SOL    HW1 5012   2.056   6.789   3.473 -0.1960 -0.2499 -0.5470
 1371SOL    HW2 5013   1.951   6.705   3.380  0.6138 -0.7145 -1.0486
 1372SOL     OW 5014   3.065   3.190   0.551  0.0849  0.0250 -0.2162
 1372SOL    HW1 5015   3.114   3.135   0.618  0.0383 -0.2047 -0.3681
 1372SOL    HW2 5016   3.040   3.132   0.473  0.2751  0.3235 -0.5020
 1373SOL     OW 5017   0.957   0.471   0.395 -0.0205 -0.0772  0.0801
 1373SOL    HW1 5018   0.921   0.416   0.319 -0.9888  0.9988 -0.2704
 1373SOL    HW2 5019   0.986   0.560   0.361 -3.2955  1.6400  1.3148
 1374SOL     OW 5020   4.744   4.203   4.777  0.3725 -0.0324  0.0020
 1374SOL    HW1 5021   4.791   4.121   4.811 -0.3819 -0.3173  0.3965
 1374SOL    HW2 5022   4.685   4.240   4.850  1.1449  1.2111  0.0190
 1375SOL     OW 5023   0.454   4.328   2.467 -0.4464 -0.1436  0.7880
 1375SOL    HW1 5024   0.436   4.424   2.444  0.5468 -0.4965 -1.8246
 1375SOL    HW2 5025   0.483   4.279   2.384  0.3149 -2.4091  2.3102
 1376SOL     OW 5026   4.907   6.944   2.541  0.7257  0.2929 -0.5203
 1376SOL    HW1 5027   4.950   6.856   2.562  0.9394  0.5530  0.1634
 1376SOL    HW2 5028   4.885   6.991   2.626 -0.5235  0.3652 -0.8643
 1377SOL     OW 5029   0.671   4.760   4.597  0.3811 -0.2050  0.2741
 1377SOL    HW1 5030   0.722   4.824   4.655 -2.6499  1.5640  1.2190
 1377SOL    HW2 5031   0.621   4.695   4.654  0.1642 -0.7621 -0.5265
 1378SOL     OW 5032   2.301   2.732   0.417  0.4446  0.2629  0.1540
 1378SOL    HW1 5033   2.365   2.770   0.483  0.5722  0.4441 -0.0739
 1378SOL    HW2 5034   2.208   2.741   0.453  0.6058 -0.8601  0.9100
 1379SOL     OW 5035   5.061   4.740   2.913 -0.3267 -0.3465 -0.3630
 1379SOL    HW1 5036   5.101   4.678   2.846  2.6302  0.0942  0.8186
 1379SOL    HW2 5037   5.064   4.834   2.878  1.3667 -0.0949  0.3397
 1380SOL     OW 5038   6.797   5.321   1.543 -0.0143  0.2145  0.5094
 1380SOL    HW1 5039   6.881   5.300   1.493  1.0766  1.9792  1.5010
 1380SOL    HW2 5040   6.718   5.294   1.488  1.1659 -1.1593 -0.6037
 1381SOL     OW 5041   5.616   5.935   4.008 -0.1779 -0.0622  0.1066
 1381SOL    HW1 5042   5.562   6.018   3.992 -0.2238 -0.2447 -0.6911
 1381SOL    HW2 5043   5.586   5.863   3.945 -1.4795 -1.3183  2.0475
 1382SOL     OW 5044   0.223   3.331   6.949 -0.1186  0.1176 -0.7625
 1382SOL    HW1 5045   0.302   3.301   7.001 -0.0325  1.9299  0.2293
 1382SOL    HW2 5046   0.167   3.252   6.925  0.8724 -0.9701  0.3698
 1383SOL     OW 5047   3.512   1.154   1.067 -0.7887 -0.4302  0.2539
 1383SOL    HW1 5048   3.435   1.193   1.016  0.2935  3.0973  1.0531
 1383SOL    HW2 5049   3.592   1.148   1.008 -0.0779  1.8022  0.8829
 1384SOL     OW 5050   6.978   1.762   3.543  0.3829  0.1935  0.0227
 1384SOL    HW1 5051   6.996   1.795   3.636  0.1287 -1.1108  0.5611
 1384SOL    HW2 5052   7.064   1.731   3.501  0.2909 -0.6172  0.4067
 1385SOL     OW 5053   5.509   2.632   3.705 -0.1274  0.2183 -0.1714
 1385SOL    HW1 5054   5.558   2.691   3.769  0.4986  0.9895 -1.3164
 1385SOL    HW2 5055   5.411   2.648   3.714 -0.0088  0.8430  0.0996
 1386SOL     OW 5056   1.200   1.751   4.235  0.1052 -0.1755 -0.2126
 1386SOL    HW1 5057   1.206   1.840   4.279 -1.4186 -0.5197  0.7830
 1386SOL    HW2 5058   1.292   1.721   4.207  0.9332  0.7668  1.3371
 1387SOL     OW 5059   2.274   1.010   5.424  0.4367  0.6005  0.0438
 1387SOL    HW1 5060   2.244   0.953   5.348  0.2839  1.8598 -0.8769
 1387SOL    HW2 5061   2.240   1.103   5.411  3.1772  1.6664 -0.1096
 1388SOL     OW 5062   5.084   3.226   4.441  0.4849  0.6119 -0.4047
 1388SOL    HW1 5063   5.045   3.277   4.518 -0.1799 -2.4862  1.4880
 1388SOL    HW2 5064   5.161   3.170   4.474 -0.5321 -1.6537 -1.6567
 1389SOL     OW 5065   0.008   0.234   4.637  0.6530  1.2372  0.5255
 1389SOL    HW1 5066   0.098   0.225   4.680  1.6944  3.3554 -1.0312
 1389SOL    HW2 5067  -0.061   0.192   4.695  2.4139  1.0560  2.6100
 1390SOL     OW 5068   6.446   4.223   2.176 -0.0066  0.1764 -0.1622
 1390SOL    HW1 5069   6.366   4.183   2.132  0.3894 -0.8702  0.0587
 1390SOL    HW2 5070   6.498   4.152   2.222  0.3571  1.0401  0.7998
 1391SOL     OW 5071   4.202   1.923   6.180  0.7951  0.1665 -0.3946
 1391SOL    HW1 5072   4.291   1.958   6.151  1.1016  0.9946  1.4286
 1391SOL    HW2 5073   4.174   1.849   6.118  2.9093 -0.3682 -0.7935
 1392SOL     OW 5074   2.813   6.574   4.193 -0.3441  0.5129 -0.3552
 1392SOL    HW1 5075   2.753   6.623   4.257 -1.3976 -0.5095 -0.5115
 1392SOL    HW2 5076   2.779   6.481   4.182  0.4166  0.3752 -1.6455
 1393SOL     OW 5077   4.548   5.776   6.496  0.3173  0.1749 -0.5646
 1393SOL    HW1 5078   4.458   5.762   6.455 -0.7188  2.0251  0.8885
 1393SOL    HW2 5079   4.554   5.870   6.529  2.5415 -0.1293  0.0162
 1394SOL     OW 5080   4.192   1.659   4.868  0.2790  0.3296  0.3266
 1394SOL    HW1 5081   4.258   1.713   4.920  0.7263 -0.0043  0.1101
 1394SOL    HW2 5082   4.112   1.716   4.847  0.3500  0.6336  0.8776
 1395SOL     OW 5083   0.922   3.961   1.478  0.7488  0.1870 -0.2211
 1395SOL    HW1 5084   0.888   4.020   1.405 -1.9001  0.8313  1.3983
 1395SOL    HW2 5085   0.954   4.016   1.555  0.4699 -0.4677  0.3828
 1396SOL     OW 5086   0.646   2.029   5.533  0.3162 -0.3773 -0.5148
 1396SOL    HW1 5087   0.701   2.034   5.450  2.2332  1.1626  0.7608
 1396SOL    HW2 5088   0.705   2.011   5.612 -1.0716  0.7260  0.8492
 1397SOL     OW 5089   1.450   5.332   6.000 -0.0223 -0.0269 -0.3910
 1397SOL    HW1 5090   1.515   5.266   6.037 -0.6813 -0.4217  0.0820
 1397SOL    HW2 5091   1.359   5.314   6.037 -0.0922  1.5718  0.2775
 1398SOL     OW 5092   0.051   1.110   5.508  0.6759 -0.2982 -0.0451
 1398SOL    HW1 5093   0.001   1.148   5.430  0.3013 -1.1863 -0.2461
 1398SOL    HW2 5094   0.129   1.057   5.475  1.8205  1.1356  0.2677
 1399SOL     OW 5095   4.868   1.392   0.751  0.3478  0.5404  0.4801
 1399SOL    HW1 5096   4.822   1.371   0.837  1.2005  0.6839  0.9720
 1399SOL    HW2 5097   4.947   1.451   0.768  2.0430 -1.4721 -0.0641
 1400SOL     OW 5098   0.191   2.266   5.899 -0.3640  0.0151  0.2184
 1400SOL    HW1 5099   0.288   2.239   5.898 -0.2452  0.4182 -1.5669
 1400SOL    HW2 5100   0.147   2.226   5.980  0.5537 -2.8379 -0.5575
 1401SOL     OW 5101   6.268   0.549   2.509 -0.4903 -0.1443  0.2358
 1401SOL    HW1 5102   6.247   0.538   2.412  2.7752  0.0164 -0.5917
 1401SOL    HW2 5103   6.270   0.460   2.554  2.0674 -0.7079 -0.8666
 1402SOL     OW 5104   5.534   3.877   2.859 -0.0697  0.0999 -0.2418
 1402SOL    HW1 5105   5.442   3.913   2.875  0.8482  1.9245  1.5299
 1402SOL    HW2 5106   5.571   3.842   2.945  1.4621  0.9067 -0.5261
 1403SOL     OW 5107   4.596   3.332   0.776  0.3503  0.0089 -0.3321
 1403SOL    HW1 5108   4.557   3.307   0.865  1.0720 -0.6334 -0.1836
 1403SOL    HW2 5109   4.579   3.259   0.710 -0.0099  0.3981 -0.6756
 1404SOL     OW 5110   4.117   4.546   6.890  0.1784  0.5297 -0.0600
 1404SOL    HW1 5111   4.075   4.625   6.934  2.4040  1.6981  0.1331
 1404SOL    HW2 5112   4.214   4.565   6.874  0.3185 -1.3935 -1.9060
 1405SOL     OW 5113   1.535   6.068   6.057  0.1696  0.6320  0.0421
 1405SOL    HW1 5114   1.625   6.058   6.099  0.3136  1.2175 -0.1187
 1405SOL    HW2 5115   1.493   5.978   6.046  0.6474  0.3738  0.3038
 1406SOL     OW 5116   2.453   4.788   1.684  0.0378  0.2126  0.1997
 1406SOL    HW1 5117   2.477   4.769   1.589 -1.7023 -0.3619 -0.1690
 1406SOL    HW2 5118   2.528   4.763   1.744  0.6684 -0.6491 -0.9231
 1407SOL     OW 5119   6.098   2.604   2.225 -0.1444  0.6263 -0.3676
 1407SOL    HW1 5120   6.126   2.572   2.134  0.5812  0.4789 -0.1038
 1407SOL    HW2 5121   6.109   2.529   2.290  3.6205  1.8448  0.6791
 1408SOL     OW 5122   0.986   6.170   3.168  0.2642  0.5684 -0.4181
 1408SOL    HW1 5123   0.992   6.219   3.081  2.1302 -1.9481 -1.8569
 1408SOL    HW2 5124   0.973   6.072   3.150 -0.6005  0.1087  2.2119
 1409SOL     OW 5125   6.466   3.169   4.459 -1.0230 -0.0143  0.1845
 1409SOL    HW1 5126   6.389   3.156   4.521  0.3683 -6.3817  1.3097
 1409SOL    HW2 5127   6.459   3.105   4.382  2.1119  0.5706 -0.7532
 1410SOL     OW 5128   1.108   0.757   0.618 -0.4560 -0.0586 -0.0024
 1410SOL    HW1 5129   1.059   0.725   0.699  1.2069  0.8037  1.4156
 1410SOL    HW2 5130   1.095   0.856   0.608 -2.3095 -0.4233 -2.0425
 1411SOL     OW 5131   5.138   1.198   0.904  0.1008 -0.5109  0.4183
 1411SOL    HW1 5132   5.077   1.258   0.850  1.2275  0.3407  0.0361
 1411SOL    HW2 5133   5.184   1.253   0.973 -0.6307 -1.4334  1.6672
 1412SOL     OW 5134   1.456   1.614   6.184 -0.3255  0.0442 -0.2291
 1412SOL    HW1 5135   1.417   1.528   6.216  0.1451  0.5105  1.6712
 1412SOL    HW2 5136   1.401   1.691   6.218  0.1398  0.5595 -0.6122
 1413SOL     OW 5137   1.708   2.362   4.097 -0.0640  0.3270 -0.0929
 1413SOL    HW1 5138   1.777   2.359   4.024  1.5763  0.4225  1.3892
 1413SOL    HW2 5139   1.653   2.445   4.086  0.2015  0.3877 -1.1493
 1414SOL     OW 5140   6.120   4.290   1.970 -0.5689  0.2870 -0.1968
 1414SOL    HW1 5141   6.192   4.314   1.905 -0.9490 -0.0146 -0.7400
 1414SOL    HW2 5142   6.031   4.301   1.926 -0.8172 -0.1771  0.1860
 1415SOL     OW 5143   3.458   0.154   6.927  0.2990 -0.0692  0.0003
 1415SOL    HW1 5144   3.384   0.149   6.993 -1.1294 -2.1443 -1.6044
 1415SOL    HW2 5145   3.467   0.248   6.893  1.3472  1.1391  3.2872
 1416SOL     OW 5146   4.201   0.266   5.029  0.3400 -0.1848  0.1980
 1416SOL    HW1 5147   4.159   0.303   4.946 -1.0016  1.4227  1.5072
 1416SOL    HW2 5148   4.150   0.186   5.059  0.4027 -0.3545 -0.1387
 1417SOL     OW 5149   3.236   2.996   4.034 -0.7310 -0.3477  0.0155
 1417SOL    HW1 5150   3.264   2.960   3.946 -0.8599 -0.5554  0.0587
 1417SOL    HW2 5151   3.309   2.982   4.101  0.1908  1.5803 -0.5075
 1418SOL     OW 5152   2.184   4.081   4.623  0.4973 -0.5190 -0.0188
 1418SOL    HW1 5153   2.276   4.102   4.588  0.1496  0.7495 -0.2054
 1418SOL    HW2 5154   2.171   4.126   4.711 -0.0183 -0.5588 -0.0729
 1419SOL     OW 5155   1.975   5.653   0.029 -0.1870  0.6118 -0.3257
 1419SOL    HW1 5156   1.948   5.566  -0.011  0.7700 -0.2966  0.9386
 1419SOL    HW2 5157   2.065   5.679  -0.006  0.4509  0.0397  0.8542
 1420SOL     OW 5158   2.797   0.076   4.059 -0.3883 -0.4140  0.1359
 1420SOL    HW1 5159   2.840   0.109   4.143 -1.4679 -0.1014  0.5854
 1420SOL    HW2 5160   2.856   0.096   3.981  0.0957  0.3487  0.6862
 1421SOL     OW 5161   1.416   4.480   1.179 -0.0636  0.0071  0.2128
 1421SOL    HW1 5162   1.401   4.439   1.269 -1.5700  1.4087  0.6494
 1421SOL    HW2 5163   1.502   4.531   1.180  0.8384 -1.4446  0.2593
 1422SOL     OW 5164   0.882   3.940   0.318 -0.0143  0.5236  0.0312
 1422SOL    HW1 5165   0.936   3.858   0.300 -1.5255 -0.0527 -2.3298
 1422SOL    HW2 5166   0.788   3.926   0.285 -0.9331  2.4220  1.5875
 1423SOL     OW 5167   4.368   2.398   3.874  0.2484 -0.4315  0.2441
 1423SOL    HW1 5168   4.303   2.387   3.799  2.2853 -2.6623 -1.3574
 1423SOL    HW2 5169   4.342   2.338   3.949 -0.2067 -0.3712  0.1385
 1424SOL     OW 5170   6.393   2.648   1.298 -0.0290  0.7472  0.2845
 1424SOL    HW1 5171   6.328   2.600   1.239  1.6800  0.6383 -1.6640
 1424SOL    HW2 5172   6.423   2.587   1.372 -1.0597  0.3270  0.3676
 1425SOL     OW 5173   0.441   5.950   3.182 -0.4328 -0.4243 -0.1513
 1425SOL    HW1 5174   0.365   5.917   3.126 -0.7943  0.1711 -0.0219
 1425SOL    HW2 5175   0.405   6.002   3.260  0.1294  1.1630 -0.9042
 1426SOL     OW 5176   2.794   0.996   1.725 -0.2760 -0.2952 -0.5096
 1426SOL    HW1 5177   2.870   1.051   1.761 -0.4291  0.9716 -2.0578
 1426SOL    HW2 5178   2.727   0.981   1.797  0.2448  0.6990  0.2036
 1427SOL     OW 5179   0.363   0.420   4.584  0.0260  0.4026 -0.0832
 1427SOL    HW1 5180   0.321   0.336   4.619  2.0301 -0.0663  1.3591
 1427SOL    HW2 5181   0.315   0.448   4.501 -1.7273 -1.2516  0.2853
 1428SOL     OW 5182   3.829   5.484   3.908 -0.4379  0.0979 -0.0565
 1428SOL    HW1 5183   3.834   5.472   3.809  0.4204  1.0097 -0.1329
 1428SOL    HW2 5184   3.742   5.527   3.933 -1.2510 -1.3372 -0.2622
 1429SOL     OW 5185   5.169   1.280   6.761 -0.0605 -0.4525 -0.2753
 1429SOL    HW1 5186   5.236   1.342   6.802  0.5757 -2.0939  1.3122
 1429SOL    HW2 5187   5.079   1.324   6.759  0.9819  1.7711 -2.4066
 1430SOL     OW 5188   1.416   4.132   4.551  0.5717  0.0431 -0.0731
 1430SOL    HW1 5189   1.483   4.164   4.618 -0.2811 -0.9233  1.2954
 1430SOL    HW2 5190   1.419   4.032   4.547 -1.0007 -0.0392  0.2609
 1431SOL     OW 5191   4.119   2.090   1.473  0.1742 -0.5884  0.2030
 1431SOL    HW1 5192   4.081   2.079   1.381 -0.6657  0.3639  0.4140
 1431SOL    HW2 5193   4.061   2.153   1.525  0.7752 -0.9316  1.3077
 1432SOL     OW 5194   2.953   6.829   2.498 -0.1017 -0.0556  0.3787
 1432SOL    HW1 5195   3.037   6.798   2.542  1.2327  1.7307 -0.7760
 1432SOL    HW2 5196   2.932   6.923   2.527 -0.1693  0.5117 -1.3773
 1433SOL     OW 5197   5.043   1.382   4.203  0.0837 -0.0732 -1.0487
 1433SOL    HW1 5198   4.949   1.416   4.199  0.3645  0.8558 -0.2340
 1433SOL    HW2 5199   5.098   1.445   4.257  1.5834  0.3432 -2.9869
 1434SOL     OW 5200   0.106   2.749   1.663  0.1481 -0.4408  0.0484
 1434SOL    HW1 5201   0.125   2.691   1.743  0.6695  1.7798  1.6072
 1434SOL    HW2 5202   0.145   2.705   1.581  1.1206 -1.9553  1.2554
 1435SOL     OW 5203   0.666   5.297   4.410 -0.1577  0.2163  0.0283
 1435SOL    HW1 5204   0.568   5.276   4.419 -0.2735  1.0391  0.9923
 1435SOL    HW2 5205   0.679   5.364   4.336 -0.4630  0.8746  0.5585
 1436SOL     OW 5206   6.869   0.296   0.766 -0.2869 -0.2809 -0.1435
 1436SOL    HW1 5207   6.953   0.255   0.801 -0.3136 -1.4019 -1.3481
 1436SOL    HW2 5208   6.891   0.374   0.707 -0.1263 -0.2528 -0.0470
 1437SOL     OW 5209   3.943   0.088   1.412 -0.0520 -0.7998 -0.2396
 1437SOL    HW1 5210   3.843   0.091   1.421  0.1068  0.4076  1.5279
 1437SOL    HW2 5211   3.979   0.181   1.406  1.0007 -1.2213 -0.7302
 1438SOL     OW 5212   2.722   6.671   4.760  0.0578 -0.0004  0.0040
 1438SOL    HW1 5213   2.624   6.670   4.779  0.2577  1.2931  1.3008
 1438SOL    HW2 5214   2.752   6.580   4.731 -1.3174 -0.6990  0.6977
 1439SOL     OW 5215   6.763   3.633   4.356  0.3471  0.9336  0.1068
 1439SOL    HW1 5216   6.760   3.548   4.303 -1.9869  0.3990  0.9504
 1439SOL    HW2 5217   6.718   3.706   4.305  0.7291  1.1926  0.1379
 1440SOL     OW 5218   3.542   3.323   1.836 -0.4974  0.4496 -0.4500
 1440SOL    HW1 5219   3.561   3.391   1.764  0.0572 -0.9778 -1.7061
 1440SOL    HW2 5220   3.607   3.336   1.911 -1.2584  2.1394 -0.0379
 1441SOL     OW 5221   6.305   2.333   0.683  0.3734  0.3059  0.3543
 1441SOL    HW1 5222   6.368   2.409   0.693  0.7911 -0.1007  0.9052
 1441SOL    HW2 5223   6.306   2.277   0.767 -0.6093  0.2120  0.3173
 1442SOL     OW 5224   6.069   5.405   6.485 -0.1181  0.1861 -0.3009
 1442SOL    HW1 5225   6.001   5.355   6.432  0.2819  1.1266 -1.7819
 1442SOL    HW2 5226   6.100   5.485   6.432  0.6975  0.8726  1.1506
 1443SOL     OW 5227   1.111   1.936   5.629 -0.1344  0.2475 -0.3827
 1443SOL    HW1 5228   1.138   2.029   5.655  1.9114 -0.7305  1.2056
 1443SOL    HW2 5229   1.137   1.919   5.535  3.5535 -0.0676  0.5532
 1444SOL     OW 5230   2.846   6.674   3.658  0.5509 -0.2337 -0.2723
 1444SOL    HW1 5231   2.829   6.765   3.696 -0.4004  1.2718 -3.8583
 1444SOL    HW2 5232   2.761   6.621   3.661  0.0951  0.3882 -1.3819
 1445SOL     OW 5233   0.958   4.262   6.728  0.0752 -0.0139  0.1814
 1445SOL    HW1 5234   1.048   4.281   6.690  0.5701  0.6760  1.6282
 1445SOL    HW2 5235   0.887   4.290   6.663  0.8415  3.2874  0.5993
 1446SOL     OW 5236   3.201   0.067   1.529  0.8590 -0.1146 -0.5355
 1446SOL    HW1 5237   3.193  -0.032   1.529  1.6807 -0.1987 -0.1498
 1446SOL    HW2 5238   3.117   0.108   1.496  0.8127 -0.9573 -1.5179
 1447SOL     OW 5239   6.858   0.950   5.825 -0.2464 -0.6781  0.6146
 1447SOL    HW1 5240   6.854   1.013   5.902 -1.0714 -1.3912  1.1780
 1447SOL    HW2 5241   6.946   0.902   5.825  1.4490  2.0766 -1.1916
 1448SOL     OW 5242   4.234   0.868   0.602  0.0095 -0.5017 -0.2822
 1448SOL    HW1 5243   4.136   0.879   0.586  0.3809  2.1706 -1.1505
 1448SOL    HW2 5244   4.255   0.896   0.696 -0.0340 -0.9776 -0.1285
 1449SOL     OW 5245   4.670   5.044   0.621  0.1775 -0.1372 -0.5630
 1449SOL    HW1 5246   4.762   5.006   0.618 -0.2021 -1.7092  2.7013
 1449SOL    HW2 5247   4.616   5.009   0.544  1.5155 -1.4886 -0.9204
 1450SOL     OW 5248   5.488   2.444   4.862  0.2321  0.2788  0.0942
 1450SOL    HW1 5249   5.430   2.374   4.903 -1.2242  1.6791  0.5406
 1450SOL    HW2 5250   5.439   2.489   4.788  0.2731  2.2399  1.1829
 1451SOL     OW 5251   6.593   4.611   2.340  0.4747  0.2329  0.4091
 1451SOL    HW1 5252   6.576   4.706   2.364 -0.6124  0.3027 -0.5312
 1451SOL    HW2 5253   6.688   4.587   2.361  2.1711  2.7952 -3.3051
 1452SOL     OW 5254   0.904   1.995   6.833 -0.7058  0.3985 -0.1232
 1452SOL    HW1 5255   0.832   2.041   6.780 -0.3634  1.5416  0.3676
 1452SOL    HW2 5256   0.862   1.930   6.896 -1.2577  0.4679 -0.4141
 1453SOL     OW 5257   6.648   3.562   3.481 -0.9712  0.0759 -1.0867
 1453SOL    HW1 5258   6.686   3.620   3.409  0.4507  2.2867  1.2534
 1453SOL    HW2 5259   6.593   3.617   3.543  1.3560 -0.6398  1.9059
 1454SOL     OW 5260   0.857   5.353   3.592 -0.3363 -0.8474  0.4494
 1454SOL    HW1 5261   0.943   5.391   3.625  0.1405 -0.6526 -0.9409
 1454SOL    HW2 5262   0.815   5.297   3.663  2.0849 -2.8727  0.4019
 1455SOL     OW 5263   3.005   1.406   1.725  0.1656 -0.5119 -0.6152
 1455SOL    HW1 5264   3.104   1.394   1.730  0.1741 -0.5147 -0.8084
 1455SOL    HW2 5265   2.984   1.487   1.671  0.0879 -0.0061  0.1482
 1456SOL     OW 5266   5.997   4.559   5.701  0.4497 -0.2706 -0.2046
 1456SOL    HW1 5267   5.917   4.501   5.684  0.5773 -0.3882 -0.4102
 1456SOL    HW2 5268   5.970   4.655   5.700  0.6357 -0.1872 -2.2190
 1457SOL     OW 5269   6.630   1.444   6.012 -0.3219 -0.3129 -0.1635
 1457SOL    HW1 5270   6.612   1.450   6.110  2.0733 -0.1480  0.3239
 1457SOL    HW2 5271   6.612   1.533   5.969 -1.2008 -0.3359  0.1382
 1458SOL     OW 5272   6.850   5.053   5.171 -0.0824 -0.1136 -0.1989
 1458SOL    HW1 5273   6.793   4.975   5.145 -0.8570  0.6090 -0.7225
 1458SOL    HW2 5274   6.945   5.036   5.143  0.0056 -1.3569  0.7426
 1459SOL     OW 5275   2.654   6.820   0.461 -0.5368  0.5031 -0.2201
 1459SOL    HW1 5276   2.682   6.727   0.487  1.9192  1.0128 -0.7547
 1459SOL    HW2 5277   2.642   6.824   0.361  2.0524  1.3075 -0.5727
 1460SOL     OW 5278   0.914   1.986   0.593  0.4096  0.1876  0.1355
 1460SOL    HW1 5279   0.954   1.896   0.610  1.0333  0.5097  0.4017
 1460SOL    HW2 5280   0.844   1.979   0.521  1.1857 -0.3286 -0.5801
 1461SOL     OW 5281   0.295   2.864   2.893  0.2380  0.7340 -0.1754
 1461SOL    HW1 5282   0.370   2.893   2.954  1.0027  0.1852 -0.8306
 1461SOL    HW2 5283   0.250   2.784   2.931  0.4215  0.6660 -0.0983
 1462SOL     OW 5284   4.051   6.111   6.097 -0.5831 -0.6011  0.6404
 1462SOL    HW1 5285   4.005   6.023   6.084 -0.3639 -0.8218  1.3144
 1462SOL    HW2 5286   4.052   6.161   6.011 -0.3349 -1.4422  0.1445
 1463SOL     OW 5287   0.910   2.752   6.204 -0.1221  0.6819  0.4980
 1463SOL    HW1 5288   0.944   2.705   6.123  0.2026  0.3710  0.8087
 1463SOL    HW2 5289   0.826   2.708   6.236 -0.0586  0.5867  0.5335
 1464SOL     OW 5290   5.269   6.274   0.075  0.3675  0.1746  0.0683
 1464SOL    HW1 5291   5.333   6.309   0.144  0.3123 -0.6138  0.5302
 1464SOL    HW2 5292   5.177   6.308   0.095  0.1596 -0.8975  1.0145
 1465SOL     OW 5293   5.006   1.347   5.021  0.2298 -0.1277  0.0036
 1465SOL    HW1 5294   5.018   1.445   5.038 -0.6338  0.2174 -1.2374
 1465SOL    HW2 5295   4.944   1.334   4.944  2.5829 -1.5808 -1.7854
 1466SOL     OW 5296   6.253   4.638   5.541  0.4114 -0.3890  0.4399
 1466SOL    HW1 5297   6.169   4.617   5.492  1.0172 -1.4769 -0.1722
 1466SOL    HW2 5298   6.296   4.553   5.571  0.7282  0.2052  1.7232
 1467SOL     OW 5299   1.756   6.769   6.080 -0.0474 -0.7570  0.3129
 1467SOL    HW1 5300   1.674   6.748   6.133 -2.6249  1.1920 -2.5314
 1467SOL    HW2 5301   1.773   6.696   6.013 -0.3654 -0.5000 -0.0540
 1468SOL     OW 5302   3.907   0.740   0.795 -0.0141  0.3067  0.1707
 1468SOL    HW1 5303   3.841   0.672   0.826  1.0432 -0.6502  0.3817
 1468SOL    HW2 5304   3.923   0.807   0.867  1.2976 -1.0439  1.1900
 1469SOL     OW 5305   1.043   0.316   2.939 -0.0151  0.0057  0.1297
 1469SOL    HW1 5306   1.060   0.337   3.035  0.8076 -2.7259  0.6673
 1469SOL    HW2 5307   0.945   0.303   2.924 -0.1349  0.3636  0.5817
 1470SOL     OW 5308   1.190   6.463   3.044 -0.3192 -0.1678  0.2543
 1470SOL    HW1 5309   1.243   6.400   3.101 -2.3230 -1.6398  0.6009
 1470SOL    HW2 5310   1.177   6.550   3.093 -1.8212 -1.3284  2.0356
 1471SOL     OW 5311   5.433   0.088   2.580  0.1854 -0.0115  0.1163
 1471SOL    HW1 5312   5.460   0.013   2.642  4.3610 -0.2317 -1.5964
 1471SOL    HW2 5313   5.336   0.081   2.560 -0.2894 -2.9684  2.5954
 1472SOL     OW 5314   4.718   4.144   5.086  0.1165 -0.5740 -0.1657
 1472SOL    HW1 5315   4.742   4.075   5.017  0.2600 -1.8919  1.1559
 1472SOL    HW2 5316   4.664   4.216   5.043  0.3803 -1.2456 -1.6982
 1473SOL     OW 5317   1.948   4.700   4.442 -0.3245 -0.0497 -0.1435
 1473SOL    HW1 5318   1.901   4.783   4.411  0.3550  0.5704  0.4429
 1473SOL    HW2 5319   1.881   4.632   4.472 -0.8837  0.3688 -0.4434
 1474SOL     OW 5320   4.879   5.133   0.390 -0.3320 -0.1335 -0.8098
 1474SOL    HW1 5321   4.788   5.168   0.366 -1.0269  0.0469  1.7786
 1474SOL    HW2 5322   4.869   5.046   0.439  1.0697 -1.2059 -2.3217
 1475SOL     OW 5323   1.070   6.149   1.869 -0.2678 -0.2853  0.2457
 1475SOL    HW1 5324   1.081   6.095   1.953  0.7246 -0.5142 -0.0181
 1475SOL    HW2 5325   0.973   6.172   1.857 -0.3386  0.3466  1.8128
 1476SOL     OW 5326   1.475   2.790   2.045 -0.2824 -0.2230 -0.1932
 1476SOL    HW1 5327   1.461   2.727   1.969 -0.3947  0.4366 -0.7317
 1476SOL    HW2 5328   1.412   2.767   2.119 -0.5093 -0.5691 -0.4908
 1477SOL     OW 5329   3.723   6.281   5.106  0.0802 -0.5016  0.2703
 1477SOL    HW1 5330   3.650   6.217   5.082  1.4913 -1.3801 -1.9826
 1477SOL    HW2 5331   3.707   6.368   5.060  0.1838 -0.5335  0.1723
 1478SOL     OW 5332   0.795   3.760   1.283 -0.3993 -0.4351 -0.7718
 1478SOL    HW1 5333   0.756   3.838   1.331 -0.0256  0.2038 -1.4933
 1478SOL    HW2 5334   0.888   3.743   1.316 -0.4872 -0.5933 -0.6016
 1479SOL     OW 5335   1.566   3.939   5.481 -0.1979 -0.5734 -0.1639
 1479SOL    HW1 5336   1.469   3.934   5.457  0.0603 -0.2793 -1.3090
 1479SOL    HW2 5337   1.618   3.879   5.421  0.7967  2.2166 -2.2780
 1480SOL     OW 5338   3.813   1.150   0.184 -0.5301 -0.6201 -0.2676
 1480SOL    HW1 5339   3.821   1.226   0.250  0.2910 -0.5268 -0.4583
 1480SOL    HW2 5340   3.884   1.082   0.203 -0.5473 -0.7911 -0.8024
 1481SOL     OW 5341   6.664   2.805   1.560 -0.2148  0.0311 -0.5596
 1481SOL    HW1 5342   6.705   2.826   1.472 -0.8087  0.6787 -0.6933
 1481SOL    HW2 5343   6.578   2.855   1.570 -1.5246 -2.0556 -0.7209
 1482SOL     OW 5344   6.267   6.777   5.360  0.2719  0.4222 -0.7271
 1482SOL    HW1 5345   6.256   6.681   5.334 -1.4064  0.6174 -0.8905
 1482SOL    HW2 5346   6.184   6.828   5.335  0.6830  1.6816  0.3472
 1483SOL     OW 5347   0.052   1.671   5.858  0.0804  0.8318  0.1231
 1483SOL    HW1 5348   0.029   1.595   5.918  1.9381  1.0037  1.1389
 1483SOL    HW2 5349   0.065   1.754   5.912  2.1006  0.9226 -0.4072
 1484SOL     OW 5350   5.629   0.113   3.015  0.7420  0.1541 -0.0327
 1484SOL    HW1 5351   5.643   0.015   3.021 -1.9139 -0.3165 -0.1257
 1484SOL    HW2 5352   5.589   0.146   3.101 -0.7493  0.6345 -0.8658
 1485SOL     OW 5353   5.572   5.920   5.004  0.0945 -0.0850  0.5635
 1485SOL    HW1 5354   5.627   5.885   5.081  0.1988 -0.3009  0.3897
 1485SOL    HW2 5355   5.632   5.965   4.938  0.4894 -2.8595 -1.0870
 1486SOL     OW 5356   0.045   4.065   2.714 -0.0988 -0.4306  0.2708
 1486SOL    HW1 5357   0.107   4.142   2.728  0.6248 -1.1913  1.4557
 1486SOL    HW2 5358   0.095   3.979   2.728 -1.5145 -1.0538  1.8341
 1487SOL     OW 5359   0.380   6.972   6.252  0.3556  0.7686  0.2989
 1487SOL    HW1 5360   0.421   7.037   6.316 -0.7136  1.9022 -0.1229
 1487SOL    HW2 5361   0.420   6.985   6.161 -0.5414  1.5162  0.0026
 1488SOL     OW 5362   3.810   6.723   2.423 -0.3422 -0.4847  0.2995
 1488SOL    HW1 5363   3.905   6.700   2.403 -0.7564 -0.6240 -1.7245
 1488SOL    HW2 5364   3.781   6.674   2.505  1.3790 -0.2524  1.1002
 1489SOL     OW 5365   4.799   0.167   5.256 -0.5599  0.0482 -0.3179
 1489SOL    HW1 5366   4.786   0.087   5.198  2.7292 -1.5046  0.8387
 1489SOL    HW2 5367   4.805   0.138   5.352  3.3894  1.0994 -0.0646
 1490SOL     OW 5368   2.256   3.240   1.152  0.3806  0.1336  0.0711
 1490SOL    HW1 5369   2.177   3.220   1.209 -0.6523  0.6876 -1.1236
 1490SOL    HW2 5370   2.324   3.167   1.164 -2.1882 -2.9626 -2.2687
 1491SOL     OW 5371   0.411   1.957   2.625 -0.9622  0.2505  0.1872
 1491SOL    HW1 5372   0.373   2.017   2.695 -1.5761 -0.3276  0.3649
 1491SOL    HW2 5373   0.450   1.876   2.669 -0.3363  0.4058 -0.0657
 1492SOL     OW 5374   6.273   0.651   1.278  0.1188  0.6766  0.1453
 1492SOL    HW1 5375   6.369   0.627   1.291 -0.3532 -1.5319 -0.0224
 1492SOL    HW2 5376   6.252   0.654   1.180 -0.6784 -2.3530  0.1140
 1493SOL     OW 5377   5.904   3.288   4.045  0.3266 -0.2314 -0.1128
 1493SOL    HW1 5378   5.858   3.365   4.090 -1.5161 -1.7210  0.6834
 1493SOL    HW2 5379   5.926   3.313   3.951 -2.3328  0.5387 -0.6130
 1494SOL     OW 5380   6.500   3.077   4.200 -0.6177  0.0918  0.0282
 1494SOL    HW1 5381   6.534   3.131   4.123 -1.6524  0.4831 -0.1678
 1494SOL    HW2 5382   6.539   2.985   4.197  0.3988  0.5180 -0.1891
 1495SOL     OW 5383   0.330   4.249   3.383  0.0996  0.6808  0.0351
 1495SOL    HW1 5384   0.238   4.280   3.409 -1.2207 -2.5214 -0.3490
 1495SOL    HW2 5385   0.388   4.245   3.465 -0.2605  2.1582  0.3884
 1496SOL     OW 5386   6.337   6.327   1.077  0.0011 -0.3045  0.2361
 1496SOL    HW1 5387   6.331   6.235   1.036 -0.0263  0.6376 -2.0619
 1496SOL    HW2 5388   6.433   6.355   1.080 -0.0948  0.0928 -0.3159
 1497SOL     OW 5389   6.235   3.206   6.789  0.0424  0.1467  0.1088
 1497SOL    HW1 5390   6.233   3.163   6.699  0.7948 -0.8862  0.5691
 1497SOL    HW2 5391   6.315   3.265   6.796 -0.3501  0.7121 -0.1069
 1498SOL     OW 5392   3.457   5.350   6.136  0.2278  0.0629 -0.0261
 1498SOL    HW1 5393   3.515   5.429   6.119 -1.6081  1.2726 -1.0856
 1498SOL    HW2 5394   3.372   5.380   6.178 -0.7390 -1.2477 -0.9522
 1499SOL     OW 5395   0.846   1.941   5.697  0.4087 -0.1508 -0.1356
 1499SOL    HW1 5396   0.818   1.849   5.727  0.1922  0.0834  0.4039
 1499SOL    HW2 5397   0.942   1.939   5.669  0.4000 -0.5459 -0.1468
 1500SOL     OW 5398   5.995   1.591   0.930 -0.2424 -0.4042 -0.0811
 1500SOL    HW1 5399   5.956   1.612   1.020  0.2430 -1.3037  0.3601
 1500SOL    HW2 5400   6.095   1.581   0.939 -0.0814  0.3735 -0.8961
 1501SOL     OW 5401   4.381   2.998   1.597 -0.4992 -0.3241 -0.1236
 1501SOL    HW1 5402   4.461   2.938   1.603 -0.8874 -1.0003 -1.4157
 1501SOL    HW2 5403   4.299   2.945   1.620 -0.8077 -0.2193 -0.9496
 1502SOL     OW 5404   0.575   1.136   6.401  0.2707  0.0162  0.1346
 1502SOL    HW1 5405   0.611   1.221   6.361 -0.0812  0.6650  1.1566
 1502SOL    HW2 5406   0.518   1.089   6.334  1.2256  0.0984 -0.7596
 1503SOL     OW 5407   3.255   3.899   4.690 -0.5496 -0.5271 -0.1095
 1503SOL    HW1 5408   3.205   3.927   4.608 -0.0113 -0.9203 -0.5769
 1503SOL    HW2 5409   3.195   3.910   4.770 -0.7484  0.8117 -0.4117
 1504SOL     OW 5410   2.859   6.877   3.432  0.1554  0.4383 -0.0237
 1504SOL    HW1 5411   2.956   6.886   3.455 -0.0135  2.5533  0.0709
 1504SOL    HW2 5412   2.819   6.803   3.486  1.7708 -0.7383 -0.3463
 1505SOL     OW 5413   6.321   6.216   4.877 -0.0033  0.3342  0.9466
 1505SOL    HW1 5414   6.222   6.225   4.869  0.0940  1.0073  0.3846
 1505SOL    HW2 5415   6.358   6.171   4.795  0.3052  1.4250  0.4648
 1506SOL     OW 5416   6.082   0.957   5.383  0.3769 -0.1122  0.0218
 1506SOL    HW1 5417   5.995   0.986   5.343  1.3740  2.4564 -0.4601
 1506SOL    HW2 5418   6.084   0.981   5.480  1.3446  1.9181 -0.4560
 1507SOL     OW 5419   4.532   4.355   6.303  0.1344  0.2778  0.4493
 1507SOL    HW1 5420   4.461   4.352   6.233  0.7646 -1.3407 -0.1775
 1507SOL    HW2 5421   4.616   4.392   6.265  0.3829 -0.2974  0.4208
 1508SOL     OW 5422   4.391   6.924   5.595 -0.5210  0.1769  0.0522
 1508SOL    HW1 5423   4.415   6.993   5.526  1.1615 -0.0098  0.3984
 1508SOL    HW2 5424   4.292   6.923   5.609 -0.6687  1.8575 -0.6496
 1509SOL     OW 5425   3.410   2.351   5.290  0.0736  0.1070  0.0056
 1509SOL    HW1 5426   3.426   2.446   5.316  1.5794 -0.1683  0.1863
 1509SOL    HW2 5427   3.316   2.340   5.260 -0.6382  1.2855  1.6593
 1510SOL     OW 5428   6.406   0.810   1.588 -0.8312 -0.4242  0.2685
 1510SOL    HW1 5429   6.413   0.910   1.582  1.0772 -0.5058  0.6763
 1510SOL    HW2 5430   6.320   0.781   1.547 -1.7665  1.4407  0.7671
 1511SOL     OW 5431   2.066   0.040   1.403  0.0435  0.2475  0.2736
 1511SOL    HW1 5432   2.101   0.010   1.492  0.3011  0.1912  0.1542
 1511SOL    HW2 5433   2.000   0.113   1.416 -0.1520  0.0285  0.5324
 1512SOL     OW 5434   0.476   6.963   3.351  0.4162  0.1144 -0.1593
 1512SOL    HW1 5435   0.562   7.011   3.339 -0.4353  2.6946  2.7296
 1512SOL    HW2 5436   0.490   6.882   3.408  0.7342  1.6059  1.9796
 1513SOL     OW 5437   2.348   0.048   3.220 -0.2441 -0.1384  0.3788
 1513SOL    HW1 5438   2.378   0.071   3.312  0.1531  0.6925  0.0555
 1513SOL    HW2 5439   2.249   0.032   3.220 -0.3564  0.5054  0.8376
 1514SOL     OW 5440   4.298   1.614   0.535  0.2564  0.1048 -0.6354
 1514SOL    HW1 5441   4.254   1.695   0.496  0.2179  0.9694  1.1028
 1514SOL    HW2 5442   4.376   1.588   0.479  1.4700  2.5531 -0.2011
 1515SOL     OW 5443   5.132   6.803   5.570  0.5254 -0.2327  0.3611
 1515SOL    HW1 5444   5.115   6.891   5.614  0.9057 -0.3680  0.7891
 1515SOL    HW2 5445   5.049   6.771   5.524  0.3315  0.2536  0.3683
 1516SOL     OW 5446   6.298   3.910   3.237 -0.5002 -0.5518 -0.4826
 1516SOL    HW1 5447   6.282   3.845   3.311 -1.2863  1.3230  1.0794
 1516SOL    HW2 5448   6.215   3.919   3.181 -0.9178  0.2253  0.2457
 1517SOL     OW 5449   2.969   5.406   1.131  0.5313 -0.4900  0.0093
 1517SOL    HW1 5450   2.984   5.497   1.171  0.4367  1.1100 -3.2333
 1517SOL    HW2 5451   2.878   5.373   1.155  0.5361  0.2947  1.1822
 1518SOL     OW 5452   0.590   1.760   5.450  0.0217 -0.7160 -0.4608
 1518SOL    HW1 5453   0.599   1.859   5.458  0.5613 -0.8562  0.9874
 1518SOL    HW2 5454   0.495   1.734   5.463  0.1016 -0.4900  0.7097
 1519SOL     OW 5455   1.625   3.991   2.275 -0.2018 -0.4882  0.5477
 1519SOL    HW1 5456   1.541   3.990   2.330  0.2588 -0.3383  1.2623
 1519SOL    HW2 5457   1.601   3.976   2.179 -1.2787  1.5094  0.4356
 1520SOL     OW 5458   2.058   4.355   2.901 -0.5177  0.4636 -0.3637
 1520SOL    HW1 5459   2.055   4.454   2.911 -1.5168  0.5478 -1.3577
 1520SOL    HW2 5460   2.066   4.331   2.804  1.3644 -0.4206 -0.0416
 1521SOL     OW 5461   1.652   6.563   4.794 -0.0562  0.3149  0.1996
 1521SOL    HW1 5462   1.737   6.511   4.795 -1.0359 -1.3437  0.9717
 1521SOL    HW2 5463   1.648   6.619   4.712  1.2444 -0.4873 -0.4415
 1522SOL     OW 5464   0.782   1.952   5.988  0.0902 -0.1663  0.4000
 1522SOL    HW1 5465   0.782   1.951   5.888 -0.2330 -0.1726  0.3966
 1522SOL    HW2 5466   0.774   1.858   6.022 -0.7429 -0.0995  0.4175
 1523SOL     OW 5467   5.610   6.335   0.788  0.9472 -0.1598 -0.0281
 1523SOL    HW1 5468   5.545   6.303   0.719  1.7845 -0.0270 -0.9075
 1523SOL    HW2 5469   5.607   6.435   0.792  2.1017 -0.0529 -1.1296
 1524SOL     OW 5470   0.381   1.534   3.516  0.3006  0.1981 -0.2081
 1524SOL    HW1 5471   0.372   1.526   3.615 -0.8918  2.5980 -0.0408
 1524SOL    HW2 5472   0.463   1.586   3.494  0.4539 -0.1533 -0.4768
 1525SOL     OW 5473   4.604   1.873   5.309 -0.0005  0.5823 -0.1722
 1525SOL    HW1 5474   4.649   1.798   5.261  2.5709  1.1219  1.1717
 1525SOL    HW2 5475   4.562   1.935   5.242 -1.8227 -1.7314 -1.3144
 1526SOL     OW 5476   6.718   0.894   2.097 -0.0584  0.0802 -0.2730
 1526SOL    HW1 5477   6.651   0.947   2.045  2.1715  1.7313 -1.6320
 1526SOL    HW2 5478   6.670   0.830   2.157 -2.8175  1.1933 -1.1240
 1527SOL     OW 5479   1.314   1.105   5.472  0.1378 -0.2301  0.0609
 1527SOL    HW1 5480   1.358   1.190   5.502  0.6238 -0.4721  0.0509
 1527SOL    HW2 5481   1.227   1.093   5.521 -0.0409  0.3784 -0.0958
 1528SOL     OW 5482   5.104   5.166   4.426 -0.3032  0.5484 -0.3597
 1528SOL    HW1 5483   5.186   5.134   4.378  0.0915  1.0688 -0.0452
 1528SOL    HW2 5484   5.035   5.094   4.426  0.0223  0.2328 -0.9399
 1529SOL     OW 5485   6.510   0.519   5.715 -0.6904  0.2724  0.1832
 1529SOL    HW1 5486   6.605   0.504   5.688 -0.6777  0.5345  0.0808
 1529SOL    HW2 5487   6.458   0.555   5.637 -1.0340 -0.5183  0.0406
 1530SOL     OW 5488   4.319   0.115   2.016 -0.3658  0.4735 -0.2509
 1530SOL    HW1 5489   4.392   0.108   2.085 -0.3074  0.6271 -0.2969
 1530SOL    HW2 5490   4.326   0.038   1.952 -0.9156 -0.1324  0.3945
 1531SOL     OW 5491   4.554   0.563   0.646 -0.0893  0.1450 -0.1501
 1531SOL    HW1 5492   4.613   0.483   0.659 -1.0268 -0.5185  0.1230
 1531SOL    HW2 5493   4.583   0.636   0.708  1.6922  0.5793 -1.4037
 1532SOL     OW 5494   2.852   1.217   4.827  0.3370  0.1957  0.2528
 1532SOL    HW1 5495   2.881   1.284   4.758 -0.9502 -0.5396 -1.0688
 1532SOL    HW2 5496   2.774   1.165   4.791 -0.2709 -0.3294  2.2313
 1533SOL     OW 5497   3.025   3.041   0.327  0.2611 -0.4694 -0.7108
 1533SOL    HW1 5498   3.060   2.948   0.311  0.6071 -0.3288 -0.7809
 1533SOL    HW2 5499   2.927   3.037   0.346  0.4452 -0.9482  0.2013
 1534SOL     OW 5500   5.903   1.208   0.654 -0.2347  0.3070  0.6173
 1534SOL    HW1 5501   5.862   1.200   0.563  0.7024  1.6637  0.0532
 1534SOL    HW2 5502   5.922   1.304   0.674  1.8613 -0.1872  1.2106
 1535SOL     OW 5503   5.032   3.480   4.257  0.1221 -0.1657 -0.1932
 1535SOL    HW1 5504   5.062   3.405   4.317 -1.5662 -0.2241  0.6626
 1535SOL    HW2 5505   5.009   3.443   4.167  1.4348 -0.2920 -0.4916
 1536SOL     OW 5506   2.598   6.523   3.021 -0.2540  0.2459  0.5430
 1536SOL    HW1 5507   2.526   6.506   3.089 -0.2824 -1.5403  0.1142
 1536SOL    HW2 5508   2.649   6.605   3.047 -2.1707  1.3410  1.0731
 1537SOL     OW 5509   2.193   3.608   5.185  0.0778 -0.0732 -0.1229
 1537SOL    HW1 5510   2.274   3.583   5.237 -0.5883 -2.8066 -0.2363
 1537SOL    HW2 5511   2.185   3.549   5.105 -1.7096  0.5216 -0.4338
 1538SOL     OW 5512   5.008   5.432   1.060  0.4846 -0.3598 -0.0055
 1538SOL    HW1 5513   5.014   5.531   1.054  0.3912 -0.3401  0.2153
 1538SOL    HW2 5514   4.931   5.400   1.004 -0.2018 -0.2034  0.8236
 1539SOL     OW 5515   1.882   6.649   0.022 -0.0946  0.4238 -0.0361
 1539SOL    HW1 5516   1.795   6.656   0.071 -0.6972  1.6207 -1.2255
 1539SOL    HW2 5517   1.878   6.703  -0.062  1.7518  0.3891 -0.1899
 1540SOL     OW 5518   5.357   1.874   4.746 -0.6216  0.0382 -0.1992
 1540SOL    HW1 5519   5.304   1.952   4.779 -2.7136 -1.5281  0.3735
 1540SOL    HW2 5520   5.390   1.821   4.824  2.2660  1.1639 -0.5216
 1541SOL     OW 5521   4.983   2.744   2.438 -0.2765  0.1284  0.2007
 1541SOL    HW1 5522   4.954   2.824   2.386  0.8148  0.3222 -0.1165
 1541SOL    HW2 5523   5.034   2.681   2.379  0.3442  0.0045  0.8490
 1542SOL     OW 5524   0.679   3.220   5.974  0.7679  0.4816  0.0634
 1542SOL    HW1 5525   0.699   3.176   6.062 -2.0793  2.2168  1.7460
 1542SOL    HW2 5526   0.622   3.301   5.990 -0.7036  0.3178 -3.4900
 1543SOL     OW 5527   3.126   3.930   2.282 -0.2688 -0.5768  0.2743
 1543SOL    HW1 5528   3.138   3.875   2.199  0.5047 -1.7598  1.1386
 1543SOL    HW2 5529   3.214   3.973   2.306 -0.8962  1.2445 -0.4865
 1544SOL     OW 5530   3.083   2.278   1.706 -0.6341  0.4348 -0.2127
 1544SOL    HW1 5531   3.153   2.346   1.681 -0.6072  1.5687  2.5824
 1544SOL    HW2 5532   3.021   2.318   1.774 -2.4035 -1.4515 -0.6305
 1545SOL     OW 5533   0.076   6.853   5.506  0.1847 -0.0746 -0.0685
 1545SOL    HW1 5534   0.144   6.880   5.574  0.7520  1.6355 -1.2609
 1545SOL    HW2 5535   0.123   6.816   5.425 -0.4710 -1.8275  0.2918
 1546SOL     OW 5536   6.650   6.854   1.522 -0.1410 -0.1450 -0.0070
 1546SOL    HW1 5537   6.556   6.878   1.497 -0.0686  0.3694  0.2106
 1546SOL    HW2 5538   6.649   6.789   1.598 -0.3473 -1.1281 -0.8213
 1547SOL     OW 5539   3.474   6.890   5.963 -0.2059 -0.1004 -0.2881
 1547SOL    HW1 5540   3.529   6.927   5.889  0.7320 -0.2486  0.3192
 1547SOL    HW2 5541   3.383   6.866   5.929 -0.3474  1.3770 -1.0134
 1548SOL     OW 5542   1.391   3.919   3.282  0.2806  0.1769  0.4609
 1548SOL    HW1 5543   1.295   3.918   3.308  0.9596 -0.2044  3.2760
 1548SOL    HW2 5544   1.438   3.993   3.331  2.1537 -2.2188  2.5415
 1549SOL     OW 5545   6.472   2.438   2.091  0.4972  0.5374 -0.4776
 1549SOL    HW1 5546   6.392   2.430   2.151 -0.5770  2.2434 -1.5818
 1549SOL    HW2 5547   6.548   2.385   2.129 -1.5388 -2.3597 -0.1154
 1550SOL     OW 5548   1.843   4.936   0.543 -0.1500  0.2650  0.6095
 1550SOL    HW1 5549   1.822   4.844   0.510 -0.9892  0.5437  0.3451
 1550SOL    HW2 5550   1.846   4.937   0.643  1.3815 -0.3646  0.5994
 1551SOL     OW 5551   0.838   0.420   1.348  0.4452  0.6712 -0.1446
 1551SOL    HW1 5552   0.854   0.505   1.297  0.8091  0.4328 -0.4324
 1551SOL    HW2 5553   0.743   0.417   1.378 -0.6334 -0.5180 -3.2829
 1552SOL     OW 5554   1.334   6.962   0.818  0.0071  0.4107  0.2001
 1552SOL    HW1 5555   1.378   7.003   0.738 -0.4808  1.1202  0.2815
 1552SOL    HW2 5556   1.277   6.886   0.788  0.1462  0.4144 -0.0828
 1553SOL     OW 5557   6.655   3.104   5.768 -1.3125 -0.2725  0.4078
 1553SOL    HW1 5558   6.598   3.104   5.686 -1.6479 -2.6482  0.5493
 1553SOL    HW2 5559   6.597   3.100   5.849 -0.9687  0.0568  0.6710
 1554SOL     OW 5560   2.451   4.818   6.519  0.2750  0.1605  0.1378
 1554SOL    HW1 5561   2.414   4.737   6.473  1.1387 -0.2317  0.0989
 1554SOL    HW2 5562   2.438   4.898   6.461  0.0833 -0.0849 -0.1606
 1555SOL     OW 5563   4.234   0.669   1.248  0.1718  0.3711  0.5193
 1555SOL    HW1 5564   4.156   0.669   1.185 -1.1562 -1.9978  2.0262
 1555SOL    HW2 5565   4.230   0.750   1.306  0.4730  1.7118 -1.2631
 1556SOL     OW 5566   2.786   3.307   6.994  0.5921  0.4304 -0.0820
 1556SOL    HW1 5567   2.707   3.265   6.950  1.1122 -0.4972 -0.1527
 1556SOL    HW2 5568   2.827   3.374   6.932  1.0601 -0.5461 -0.8550
 1557SOL     OW 5569   1.760   2.773   1.992  0.4220  0.3223 -0.1753
 1557SOL    HW1 5570   1.660   2.776   2.000  0.3489 -1.3569 -0.1409
 1557SOL    HW2 5571   1.786   2.779   1.895  0.1375 -1.5926 -0.4012
 1558SOL     OW 5572   4.956   2.414   1.094 -0.5009 -0.1379  0.1888
 1558SOL    HW1 5573   4.961   2.503   1.138  1.8958 -0.3650  0.5023
 1558SOL    HW2 5574   4.886   2.358   1.139 -0.8902  1.0120  1.0424
 1559SOL     OW 5575   2.047   5.880   2.356  0.6987 -0.1198  0.3065
 1559SOL    HW1 5576   2.027   5.785   2.335 -2.4304  0.2923  0.8296
 1559SOL    HW2 5577   2.061   5.891   2.455 -2.6639  0.3250  0.8670
 1560SOL     OW 5578   5.081   3.044   6.897  0.0237 -0.1498 -0.7026
 1560SOL    HW1 5579   5.101   3.127   6.845  1.3179  0.3780  0.5890
 1560SOL    HW2 5580   5.150   2.974   6.878 -0.4357 -0.5562 -0.9289
 1561SOL     OW 5581   6.397   5.790   2.259  0.1275 -0.5301 -0.4098
 1561SOL    HW1 5582   6.439   5.874   2.296  1.0921 -2.2518  2.7964
 1561SOL    HW2 5583   6.458   5.749   2.192 -0.0600  0.9229 -1.5266
 1562SOL     OW 5584   1.307   6.758   2.934 -0.6068  0.2122  0.6424
 1562SOL    HW1 5585   1.225   6.781   2.987 -0.6294 -0.5927  0.9794
 1562SOL    HW2 5586   1.283   6.744   2.838 -1.4939 -3.0328  1.1995
 1563SOL     OW 5587   1.209   5.338   6.154  0.2370  0.3341  0.0894
 1563SOL    HW1 5588   1.261   5.347   6.238  0.7381 -0.2139 -0.1616
 1563SOL    HW2 5589   1.127   5.395   6.160 -0.4744 -0.7708  1.5132
 1564SOL     OW 5590   0.999   1.225   3.678 -0.2774 -0.2936  0.6006
 1564SOL    HW1 5591   0.974   1.224   3.581 -0.0257 -2.5764  0.5096
 1564SOL    HW2 5592   0.994   1.132   3.715  0.5678  0.3826  2.5460
 1565SOL     OW 5593   0.339   0.663   3.440 -0.5266 -0.5196  0.6096
 1565SOL    HW1 5594   0.426   0.645   3.394 -0.1806  2.7204 -0.2638
 1565SOL    HW2 5595   0.299   0.577   3.470  1.5358 -2.3997 -1.5727
 1566SOL     OW 5596   0.611   2.581   4.690  0.1072 -0.3274 -0.0108
 1566SOL    HW1 5597   0.705   2.575   4.723  0.0521 -1.8930 -0.0506
 1566SOL    HW2 5598   0.576   2.673   4.706  1.1558 -0.1230  1.3427
 1567SOL     OW 5599   4.727   0.863   3.600 -0.2440 -0.3261 -0.2704
 1567SOL    HW1 5600   4.743   0.931   3.530  0.9582 -0.8826 -0.5602
 1567SOL    HW2 5601   4.783   0.782   3.582 -3.2466 -2.3548 -1.2070
 1568SOL     OW 5602   2.614   0.725   1.080 -0.1396 -0.0995  0.0625
 1568SOL    HW1 5603   2.634   0.719   1.177 -1.5887  1.6283  0.5149
 1568SOL    HW2 5604   2.580   0.816   1.058  0.0948 -0.4611 -2.0727
 1569SOL     OW 5605   3.721   0.016   2.910  0.4646 -0.0823 -0.3054
 1569SOL    HW1 5606   3.792   0.060   2.965 -0.0428  1.6781 -0.9729
 1569SOL    HW2 5607   3.723   0.053   2.817 -3.5182  2.8896  0.4911
 1570SOL     OW 5608   2.657   5.976   3.330  0.6845 -0.1539 -0.8533
 1570SOL    HW1 5609   2.750   6.013   3.323  0.2733  0.8385 -1.2328
 1570SOL    HW2 5610   2.603   6.036   3.389  0.6267 -1.4493  0.4695
 1571SOL     OW 5611   0.850   0.969   4.725 -0.0689 -0.0118 -0.0081
 1571SOL    HW1 5612   0.925   1.034   4.737 -1.2056  1.5726 -1.0692
 1571SOL    HW2 5613   0.862   0.920   4.638 -1.1835  1.6239 -1.1425
 1572SOL     OW 5614   3.276   5.361   3.487 -0.7288  0.3774  0.5860
 1572SOL    HW1 5615   3.232   5.374   3.576  1.3810  1.1119  1.5984
 1572SOL    HW2 5616   3.282   5.264   3.466 -0.4276  0.1477  1.6980
 1573SOL     OW 5617   5.943   5.613   5.780 -0.2520  0.1669  0.2501
 1573SOL    HW1 5618   5.863   5.560   5.751  0.1311 -0.7951  0.9042
 1573SOL    HW2 5619   6.016   5.550   5.809  0.2280  1.0593  1.0253
 1574SOL     OW 5620   0.296   3.035   4.416 -0.6608 -0.0757  0.3087
 1574SOL    HW1 5621   0.242   2.964   4.370  1.4941 -1.6685  0.0956
 1574SOL    HW2 5622   0.299   3.016   4.514  0.2001 -0.5250  0.2081
 1575SOL     OW 5623   1.200   1.940   1.193 -0.2286 -0.1354 -0.5821
 1575SOL    HW1 5624   1.161   2.032   1.191 -0.0366 -0.0437 -0.2037
 1575SOL    HW2 5625   1.243   1.924   1.282 -1.5977 -1.1604 -0.0789
 1576SOL     OW 5626   1.485   0.160   2.463 -0.4094  0.2752  0.5395
 1576SOL    HW1 5627   1.503   0.072   2.419 -2.4308  1.1786 -2.4469
 1576SOL    HW2 5628   1.563   0.221   2.449 -0.0048 -0.2724  0.4149
 1577SOL     OW 5629   3.982   5.393   4.495  0.0890  0.7514 -0.3012
 1577SOL    HW1 5630   4.000   5.453   4.573 -0.0808  0.7129 -0.2315
 1577SOL    HW2 5631   3.896   5.421   4.452 -1.0742 -0.7007  0.9552
 1578SOL     OW 5632   5.429   1.180   3.794  0.4152  0.3027 -0.3104
 1578SOL    HW1 5633   5.391   1.271   3.776 -2.2522 -0.8447 -0.9091
 1578SOL    HW2 5634   5.391   1.115   3.729  2.3292 -1.2762  0.0582
 1579SOL     OW 5635   2.800   5.911   1.842  0.5734  0.0932 -0.1236
 1579SOL    HW1 5636   2.824   5.830   1.896 -0.9468 -0.9554 -0.9317
 1579SOL    HW2 5637   2.858   5.988   1.869  0.6717 -0.7059  2.1152
 1580SOL     OW 5638   3.558   3.033   3.250 -0.0605  0.0056  0.5978
 1580SOL    HW1 5639   3.646   3.029   3.297  0.4459 -2.5609 -0.3982
 1580SOL    HW2 5640   3.567   3.089   3.167  0.0454  1.3818  1.4960
 1581SOL     OW 5641   5.298   3.063   5.068 -0.1856  0.0135 -0.7397
 1581SOL    HW1 5642   5.262   3.152   5.098 -0.7033 -0.6181  0.5689
 1581SOL    HW2 5643   5.318   3.006   5.147 -1.0507 -1.5265 -1.5777
 1582SOL     OW 5644   4.270   0.290   5.622 -0.0389  0.2518 -0.1096
 1582SOL    HW1 5645   4.334   0.237   5.567  0.2727  1.0963 -0.5734
 1582SOL    HW2 5646   4.319   0.340   5.692 -0.6285 -2.7115  2.6536
 1583SOL     OW 5647   6.375   2.602   5.313  0.5628  0.0407 -0.1811
 1583SOL    HW1 5648   6.317   2.654   5.374 -0.0449  0.4425 -1.0756
 1583SOL    HW2 5649   6.398   2.514   5.354  1.3361  0.8576  1.2126
 1584SOL     OW 5650   6.525   4.944   6.346 -0.1252  0.3273  0.2201
 1584SOL    HW1 5651   6.455   5.015   6.333 -0.8365 -0.4597 -0.3455
 1584SOL    HW2 5652   6.578   4.965   6.428  0.7121  2.3466 -0.7432
 1585SOL     OW 5653   5.290   5.148   4.712  0.1367 -0.0911 -0.2927
 1585SOL    HW1 5654   5.214   5.131   4.775 -0.7515 -0.9793 -1.5524
 1585SOL    HW2 5655   5.365   5.085   4.730 -0.7941 -1.4921 -1.1775
 1586SOL     OW 5656   4.382   6.714   4.337  0.2115  0.0044 -0.0427
 1586SOL    HW1 5657   4.286   6.723   4.310 -0.2901 -3.7183 -0.0077
 1586SOL    HW2 5658   4.387   6.685   4.433  1.3534 -0.2590 -0.1732
 1587SOL     OW 5659   4.129   5.482   1.071 -0.1441 -0.2359  0.3490
 1587SOL    HW1 5660   4.135   5.579   1.094 -1.4628 -0.5468  2.2969
 1587SOL    HW2 5661   4.199   5.431   1.120 -0.1778 -0.3887  0.2385
 1588SOL     OW 5662   6.731   2.332   3.167 -0.1152 -0.0755 -0.5084
 1588SOL    HW1 5663   6.726   2.247   3.114 -0.8107 -0.5738  0.3229
 1588SOL    HW2 5664   6.644   2.346   3.215  0.2656  0.7029 -0.0297
 1589SOL     OW 5665   0.574   0.996   5.568  0.2809 -0.1470 -0.0792
 1589SOL    HW1 5666   0.508   1.035   5.631  1.4659  0.4711  0.8154
 1589SOL    HW2 5667   0.562   1.037   5.477  1.0072  1.8187  0.6638
 1590SOL     OW 5668   5.329   5.706   4.922  0.2101  0.2619 -0.2131
 1590SOL    HW1 5669   5.296   5.625   4.970  1.5708 -1.5613 -2.1850
 1590SOL    HW2 5670   5.351   5.777   4.988 -2.9352 -0.1401  1.4830
 1591SOL     OW 5671   4.683   5.755   0.466  0.7037 -0.2371 -0.5113
 1591SOL    HW1 5672   4.585   5.751   0.484  0.5824  3.2426  0.2998
 1591SOL    HW2 5673   4.729   5.683   0.517 -1.3036 -1.4167 -0.2418
 1592SOL     OW 5674   6.696   2.541   6.338  0.0208  0.2305 -0.7819
 1592SOL    HW1 5675   6.641   2.478   6.393  0.9126 -0.9521 -1.2123
 1592SOL    HW2 5676   6.654   2.632   6.339 -1.2864 -0.3636 -0.1458
 1593SOL     OW 5677   3.170   4.526   0.204  0.4274  0.0417  0.8306
 1593SOL    HW1 5678   3.213   4.490   0.286  0.3939  0.8247  1.1969
 1593SOL    HW2 5679   3.179   4.460   0.130  0.0628 -0.8638  1.5798
 1594SOL     OW 5680   4.769   1.746   1.422  0.3233  0.4062  0.1170
 1594SOL    HW1 5681   4.769   1.704   1.332  1.0448 -0.3797  0.4684
 1594SOL    HW2 5682   4.678   1.739   1.462  0.0459  0.5997 -0.4762
 1595SOL     OW 5683   4.985   4.370   0.634  0.1912 -0.3000  0.3971
 1595SOL    HW1 5684   4.932   4.297   0.676 -0.3458  0.0883  0.4086
 1595SOL    HW2 5685   4.928   4.451   0.624  1.0107  0.3996  1.1708
 1596SOL     OW 5686   5.976   6.298   3.565  0.1286  0.1155 -0.1814
 1596SOL    HW1 5687   5.993   6.275   3.661  0.8615  0.9863 -0.0810
 1596SOL    HW2 5688   6.019   6.230   3.506  0.4220  0.0425  0.1138
 1597SOL     OW 5689   4.425   5.605   6.782 -0.2144  0.2446 -0.4515
 1597SOL    HW1 5690   4.498   5.537   6.787 -1.2847 -1.0087 -1.1972
 1597SOL    HW2 5691   4.384   5.603   6.691  0.3798  2.6484 -0.8615
 1598SOL     OW 5692   0.816   6.383   4.698  0.2544  0.1226 -0.2164
 1598SOL    HW1 5693   0.780   6.400   4.607  0.0623 -0.7980 -0.3303
 1598SOL    HW2 5694   0.755   6.422   4.766 -0.8633 -1.1861 -0.4185
 1599SOL     OW 5695   5.576   5.080   4.733 -0.7982  0.2230  0.4745
 1599SOL    HW1 5696   5.661   5.060   4.781 -0.7341  2.0799  1.1893
 1599SOL    HW2 5697   5.581   5.042   4.640  1.2593  1.2212  0.1190
 1600SOL     OW 5698   6.356   1.766   0.755  0.0177 -0.0887  0.4538
 1600SOL    HW1 5699   6.445   1.719   0.751 -0.6814 -1.4258  0.1712
 1600SOL    HW2 5700   6.295   1.716   0.816 -1.2280 -0.4069 -1.0001
 1601SOL     OW 5701   5.156   6.960   0.626  0.1418 -0.2183  0.0301
 1601SOL    HW1 5702   5.106   7.027   0.573 -1.0533 -0.3363  0.9662
 1601SOL    HW2 5703   5.239   7.002   0.664  0.7963 -0.0308 -1.5414
 1602SOL     OW 5704   6.052   5.405   2.737  0.5522  0.2422 -0.3329
 1602SOL    HW1 5705   5.959   5.373   2.752  0.1253  1.3369 -0.5180
 1602SOL    HW2 5706   6.096   5.424   2.825  0.2450  0.6761 -0.2694
 1603SOL     OW 5707   3.537   4.262   1.703 -0.7904 -0.0994 -0.2167
 1603SOL    HW1 5708   3.502   4.350   1.670  0.0145  0.1084 -0.5623
 1603SOL    HW2 5709   3.475   4.224   1.771 -0.4893  1.4029  0.9696
 1604SOL     OW 5710   6.311   4.945   1.459  0.2070  0.0217 -0.0993
 1604SOL    HW1 5711   6.402   4.922   1.495  0.1448 -0.7651 -0.4353
 1604SOL    HW2 5712   6.241   4.903   1.516  0.1022 -0.9768 -0.9468
 1605SOL     OW 5713   3.322   4.415   6.086 -0.0060  0.3075 -0.1897
 1605SOL    HW1 5714   3.371   4.384   6.168  0.5427  0.3756 -0.4854
 1605SOL    HW2 5715   3.306   4.513   6.092 -1.8226 -0.0203  0.7887
 1606SOL     OW 5716   4.279   5.215   4.841 -0.0900 -0.7536 -0.1142
 1606SOL    HW1 5717   4.185   5.206   4.809 -1.0292 -0.1997  2.2579
 1606SOL    HW2 5718   4.322   5.294   4.798 -1.3707  0.1208  0.1584
 1607SOL     OW 5719   5.039   3.460   5.915  0.2080  0.1331 -0.8098
 1607SOL    HW1 5720   5.125   3.501   5.948 -0.5541  1.0752  0.0774
 1607SOL    HW2 5721   5.001   3.401   5.986 -0.9114  1.3437 -0.3705
 1608SOL     OW 5722   6.983   3.249   2.962 -0.2193 -0.3432 -0.0187
 1608SOL    HW1 5723   7.058   3.200   3.006  0.5408 -0.6721 -1.5814
 1608SOL    HW2 5724   6.897   3.228   3.008  0.5912 -0.2418  1.5957
 1609SOL     OW 5725   0.411   5.912   0.731  0.1810 -0.7743 -0.5850
 1609SOL    HW1 5726   0.345   5.869   0.668  1.2595 -1.1516 -1.4911
 1609SOL    HW2 5727   0.429   5.850   0.807 -2.0927  0.1860  0.8673
 1610SOL     OW 5728   4.469   4.448   7.005  0.0279 -0.0417  0.3947
 1610SOL    HW1 5729   4.434   4.496   6.924 -0.6648 -2.0297 -0.5385
 1610SOL    HW2 5730   4.413   4.368   7.023 -0.0812  0.5469  3.1292
 1611SOL     OW 5731   6.802   3.288   5.165 -0.5528  0.5551  0.3743
 1611SOL    HW1 5732   6.757   3.367   5.124  0.0491  0.7198  0.0136
 1611SOL    HW2 5733   6.769   3.275   5.259 -2.2372 -0.0618 -0.2699
 1612SOL     OW 5734   5.341   6.769   2.108  0.0869  0.1192  0.0645
 1612SOL    HW1 5735   5.338   6.799   2.013  1.3929  1.1489  0.3162
 1612SOL    HW2 5736   5.291   6.834   2.165  0.4713  0.2566  0.2496
 1613SOL     OW 5737   6.543   4.696   2.059  0.1367  0.0456 -0.6894
 1613SOL    HW1 5738   6.569   4.669   2.152  0.8225 -0.1399 -0.9261
 1613SOL    HW2 5739   6.601   4.647   1.993 -0.7947 -0.3264 -1.2402
 1614SOL     OW 5740   5.748   0.620   0.535 -1.0280  0.0855  0.1526
 1614SOL    HW1 5741   5.750   0.714   0.500 -0.3039  0.1770  0.4183
 1614SOL    HW2 5742   5.659   0.602   0.578 -1.2493  0.5706 -0.0936
 1615SOL     OW 5743   6.121   2.728   4.631 -0.3782  0.1171 -0.4769
 1615SOL    HW1 5744   6.106   2.809   4.689  0.4589  0.0767 -0.1835
 1615SOL    HW2 5745   6.151   2.652   4.688  0.1130 -0.0256 -0.9227
 1616SOL     OW 5746   1.945   1.734   2.838 -0.3894 -0.0677  0.3732
 1616SOL    HW1 5747   1.891   1.816   2.854 -0.4712 -0.3178  1.4549
 1616SOL    HW2 5748   1.886   1.662   2.801 -0.2607  0.4215 -0.8450
 1617SOL     OW 5749   0.420   6.464   4.567 -0.2624 -0.3172  0.0635
 1617SOL    HW1 5750   0.489   6.524   4.528 -1.4333 -0.5324 -2.5175
 1617SOL    HW2 5751   0.360   6.516   4.627  1.7788 -0.0360  1.9824
 1618SOL     OW 5752   3.023   5.105   2.631  0.7648 -0.3421 -0.4139
 1618SOL    HW1 5753   3.101   5.166   2.652  0.9905 -1.3299  1.8946
 1618SOL    HW2 5754   3.057   5.014   2.608  0.3770  0.0578 -2.7980
 1619SOL     OW 5755   6.426   3.279   0.907 -0.2911  0.2624 -0.4995
 1619SOL    HW1 5756   6.429   3.205   0.840  0.8235 -0.7828  0.6521
 1619SOL    HW2 5757   6.519   3.307   0.930 -0.5947 -0.0970  1.3249
 1620SOL     OW 5758   2.303   5.951   2.974  0.4326  0.1516 -0.3356
 1620SOL    HW1 5759   2.203   5.953   2.970  0.1683 -3.4748  0.6726
 1620SOL    HW2 5760   2.340   6.015   2.907 -2.4948  2.1912 -0.2172
 1621SOL     OW 5761   4.682   4.700   6.849  0.3550  0.3744  0.3039
 1621SOL    HW1 5762   4.599   4.669   6.895  1.0215 -3.1954 -0.5873
 1621SOL    HW2 5763   4.659   4.740   6.760 -0.4545 -4.0299 -1.7133
 1622SOL     OW 5764   6.088   3.216   4.891 -0.3913 -0.4930 -0.3361
 1622SOL    HW1 5765   6.019   3.256   4.951  0.6454  0.1376  0.4899
 1622SOL    HW2 5766   6.053   3.133   4.848 -1.6500 -0.1664  0.0376
 1623SOL     OW 5767   5.951   3.457   4.433  0.1197 -0.3982  0.6259
 1623SOL    HW1 5768   5.945   3.367   4.389 -0.0291 -0.2141  0.2679
 1623SOL    HW2 5769   5.868   3.509   4.414  0.3618 -0.0461  0.5252
 1624SOL     OW 5770   5.049   3.304   5.324  0.0071  0.0602  0.0805
 1624SOL    HW1 5771   5.015   3.397   5.310 -0.3902  0.1344  1.4336
 1624SOL    HW2 5772   5.000   3.261   5.400 -1.6787 -2.2307 -2.1294
 1625SOL     OW 5773   1.511   1.426   5.196  0.0773 -0.1582 -0.0297
 1625SOL    HW1 5774   1.548   1.343   5.239 -1.9393 -2.0352 -1.6700
 1625SOL    HW2 5775   1.450   1.472   5.261  1.9022  0.6186  1.2111
 1626SOL     OW 5776   3.558   6.384   1.318  0.0302  0.6428  0.3514
 1626SOL    HW1 5777   3.590   6.478   1.306 -0.8233  0.7629 -1.3233
 1626SOL    HW2 5778   3.465   6.384   1.355  0.0915  0.4447  0.5113
 1627SOL     OW 5779   3.108   0.700   6.782 -0.5115 -0.4319  0.0596
 1627SOL    HW1 5780   3.125   0.730   6.688 -1.8392 -1.5887 -0.5799
 1627SOL    HW2 5781   3.052   0.768   6.829  0.3206  0.2451  0.1037
 1628SOL     OW 5782   5.714   6.308   2.829  0.0095 -0.5579 -0.5056
 1628SOL    HW1 5783   5.690   6.399   2.862  1.8050 -0.5553  0.9565
 1628SOL    HW2 5784   5.665   6.239   2.882  0.3578 -0.4798 -0.0780
 1629SOL     OW 5785   2.317   0.356   1.217  0.0506 -0.1592  0.0661
 1629SOL    HW1 5786   2.281   0.414   1.290 -2.5691 -2.2929  0.6449
 1629SOL    HW2 5787   2.389   0.405   1.168 -2.3961  3.8935  0.0067
 1630SOL     OW 5788   0.605   4.326   5.924  0.0892  0.8629  0.1750
 1630SOL    HW1 5789   0.579   4.232   5.944  0.0099  0.7462 -0.4527
 1630SOL    HW2 5790   0.642   4.369   6.007  0.5247  0.1481  0.3581
 1631SOL     OW 5791   6.137   4.593   6.054  0.0208 -0.2338 -0.3784
 1631SOL    HW1 5792   6.131   4.494   6.049 -0.1662 -0.2177 -0.4610
 1631SOL    HW2 5793   6.062   4.629   6.109  1.1918 -0.2896  1.3355
 1632SOL     OW 5794   4.938   3.091   1.474  0.1181 -0.2799 -0.1723
 1632SOL    HW1 5795   4.906   3.094   1.569 -0.7391 -1.9747 -0.3730
 1632SOL    HW2 5796   4.966   2.998   1.451  2.2717  0.5050 -0.9941
 1633SOL     OW 5797   0.595   4.617   0.589 -0.4334 -0.0402 -0.4550
 1633SOL    HW1 5798   0.602   4.550   0.514  0.7323 -0.3630 -0.0722
 1633SOL    HW2 5799   0.620   4.573   0.675 -1.2276  0.4781  0.0518
 1634SOL     OW 5800   0.227   4.390   4.426  0.3077  0.0530 -0.4995
 1634SOL    HW1 5801   0.185   4.300   4.419 -1.6681  0.9278 -0.3447
 1634SOL    HW2 5802   0.169   4.451   4.479  1.6942  1.3989 -0.4421
 1635SOL     OW 5803   3.546   0.121   4.386  0.0437 -0.0940  0.1987
 1635SOL    HW1 5804   3.493   0.038   4.369  1.2734 -0.6354 -1.2035
 1635SOL    HW2 5805   3.569   0.165   4.300 -0.1964  1.4885  0.9034
 1636SOL     OW 5806   1.461   5.069   3.164 -0.9334 -0.3939 -0.5395
 1636SOL    HW1 5807   1.412   5.073   3.077  0.5613 -1.8684 -1.5062
 1636SOL    HW2 5808   1.551   5.027   3.150 -0.6436 -0.6538  1.7160
 1637SOL     OW 5809   1.399   1.349   1.624  0.5532 -0.2828 -0.4397
 1637SOL    HW1 5810   1.327   1.362   1.557 -0.0396 -0.7503  0.0999
 1637SOL    HW2 5811   1.487   1.375   1.584 -0.1288  2.1996 -0.4868
 1638SOL     OW 5812   5.206   6.014   2.266 -0.3800  0.3537  0.1419
 1638SOL    HW1 5813   5.111   5.994   2.243 -0.0801 -0.3390 -0.5275
 1638SOL    HW2 5814   5.217   6.014   2.366 -1.4997  2.4835  0.3319
 1639SOL     OW 5815   3.887   3.472   2.424 -0.7880 -0.3920  0.0905
 1639SOL    HW1 5816   3.841   3.385   2.405  0.0795 -0.8002 -0.1928
 1639SOL    HW2 5817   3.977   3.471   2.380 -0.1293  0.0265  1.4101
 1640SOL     OW 5818   4.716   3.207   6.130  0.2041 -0.3083  0.0971
 1640SOL    HW1 5819   4.776   3.275   6.172  0.9939 -0.8272 -0.1699
 1640SOL    HW2 5820   4.622   3.243   6.127  0.2136 -0.0494  1.8163
 1641SOL     OW 5821   0.625   6.831   2.003  0.3036  0.0529  0.2801
 1641SOL    HW1 5822   0.560   6.896   2.044  0.2999  0.3601 -0.2067
 1641SOL    HW2 5823   0.713   6.876   1.992 -0.3955  0.9441 -2.6378
 1642SOL     OW 5824   0.924   1.631   1.484 -0.2894 -0.4296  0.3546
 1642SOL    HW1 5825   1.000   1.616   1.547 -0.7273 -2.0722  0.5326
 1642SOL    HW2 5826   0.942   1.712   1.428  0.8757  0.0761  1.4306
 1643SOL     OW 5827   1.007   5.480   2.412  0.0113  0.5072  0.3647
 1643SOL    HW1 5828   1.065   5.481   2.494  0.4349 -0.5252  0.0938
 1643SOL    HW2 5829   1.065   5.478   2.331 -0.3950 -0.4360  0.0862
 1644SOL     OW 5830   4.575   1.168   1.287 -0.3964 -0.1605 -0.2581
 1644SOL    HW1 5831   4.530   1.085   1.254 -1.7095  0.7010 -0.6709
 1644SOL    HW2 5832   4.528   1.249   1.251 -0.6460  0.8057  2.0914
 1645SOL     OW 5833   4.002   0.793   3.715  0.2130  0.0514 -0.2321
 1645SOL    HW1 5834   4.060   0.737   3.656  1.6511  1.5685 -0.3311
 1645SOL    HW2 5835   4.033   0.786   3.810 -1.7313 -1.9247  0.3425
 1646SOL     OW 5836   0.024   6.133   6.791 -0.4617 -0.0833 -0.4168
 1646SOL    HW1 5837   0.100   6.158   6.731 -0.5725  0.8841 -0.1736
 1646SOL    HW2 5838  -0.039   6.073   6.742 -0.9480  1.3023 -1.5464
 1647SOL     OW 5839   0.414   3.642   4.506 -0.2763 -0.3027 -0.2150
 1647SOL    HW1 5840   0.332   3.631   4.563 -0.8896 -0.2773 -1.0726
 1647SOL    HW2 5841   0.387   3.652   4.410  0.4733  3.3614 -0.2036
 1648SOL     OW 5842   4.341   6.719   2.955 -0.1884  0.0284  0.2858
 1648SOL    HW1 5843   4.306   6.625   2.953 -0.2129  0.0414 -0.6888
 1648SOL    HW2 5844   4.288   6.774   3.019 -0.6088 -0.4621  0.3637
 1649SOL     OW 5845   2.156   1.129   2.534 -0.1799  0.6228 -0.4329
 1649SOL    HW1 5846   2.199   1.218   2.553  0.8521  0.3027 -1.1719
 1649SOL    HW2 5847   2.201   1.087   2.455 -1.1707 -0.2169 -0.5615
 1650SOL     OW 5848   3.376   2.594   5.952  0.0317 -0.3980 -0.5634
 1650SOL    HW1 5849   3.404   2.613   5.857 -0.5237  0.6134 -0.5338
 1650SOL    HW2 5850   3.283   2.558   5.952  0.4372 -1.4800 -0.4747
 1651SOL     OW 5851   1.794   1.498   4.747  0.0736  0.1537 -0.1940
 1651SOL    HW1 5852   1.735   1.461   4.676 -0.2583 -0.1936  0.2600
 1651SOL    HW2 5853   1.777   1.597   4.755 -1.4562 -0.1611  0.8679
 1652SOL     OW 5854   1.461   3.730   2.138  0.0518 -0.3583 -0.4350
 1652SOL    HW1 5855   1.528   3.718   2.065  0.6055  1.7857 -0.3336
 1652SOL    HW2 5856   1.369   3.718   2.102  0.3401  0.2603 -1.4069
 1653SOL     OW 5857   0.158   5.601   2.372 -0.1392  0.2901  0.0166
 1653SOL    HW1 5858   0.091   5.533   2.404 -0.2325 -0.5672 -1.8813
 1653SOL    HW2 5859   0.112   5.666   2.312  0.5889  0.1017 -0.7510
 1654SOL     OW 5860   2.105   2.062   2.367 -0.0652  0.0981 -0.6496
 1654SOL    HW1 5861   2.195   2.043   2.329  0.2485  0.8571 -0.2955
 1654SOL    HW2 5862   2.040   2.083   2.294  0.2308  0.3074 -0.8495
 1655SOL     OW 5863   6.678   0.340   3.658 -0.1556  0.2192 -0.4876
 1655SOL    HW1 5864   6.715   0.266   3.601  0.9625  1.4867 -1.4818
 1655SOL    HW2 5865   6.639   0.411   3.599 -2.3643 -0.1273  0.4915
 1656SOL     OW 5866   1.869   4.157   3.032  0.1345 -0.0165 -0.8166
 1656SOL    HW1 5867   1.936   4.231   3.042 -0.2193  0.2542 -0.4384
 1656SOL    HW2 5868   1.841   4.150   2.936 -1.0462  1.4250 -0.6213
 1657SOL     OW 5869   0.517   2.735   0.343 -0.2049 -0.0400  0.0570
 1657SOL    HW1 5870   0.496   2.639   0.359 -0.6506  0.2210  1.1661
 1657SOL    HW2 5871   0.431   2.787   0.340  0.0837  0.4873  0.6824
 1658SOL     OW 5872   3.135   1.689   6.281 -0.1509  0.1582  0.5085
 1658SOL    HW1 5873   3.056   1.693   6.220 -1.1271 -2.5618  1.4012
 1658SOL    HW2 5874   3.112   1.731   6.369 -1.0868 -1.5553  1.1387
 1659SOL     OW 5875   4.824   1.826   6.728 -0.6254 -0.3150  0.0016
 1659SOL    HW1 5876   4.772   1.911   6.724 -0.4796 -0.0464  2.6462
 1659SOL    HW2 5877   4.852   1.801   6.635 -0.9954  2.2903 -0.9030
 1660SOL     OW 5878   2.655   6.799   1.558  0.1697  0.0357  0.0680
 1660SOL    HW1 5879   2.694   6.853   1.632  0.5579 -2.0146  1.4456
 1660SOL    HW2 5880   2.565   6.836   1.533  0.2610  1.0762  1.1964
 1661SOL     OW 5881   4.446   4.498   3.166 -0.5223 -0.4216  0.1361
 1661SOL    HW1 5882   4.437   4.535   3.258  0.2409  0.7592 -0.2393
 1661SOL    HW2 5883   4.541   4.471   3.150 -0.9222 -1.9612  0.1556
 1662SOL     OW 5884   0.196   1.923   2.880 -0.1459  0.1875 -0.3146
 1662SOL    HW1 5885   0.141   1.869   2.815 -0.5745 -0.2013  0.3613
 1662SOL    HW2 5886   0.137   1.987   2.928  0.2895  0.9501 -0.7821
 1663SOL     OW 5887   5.940   4.938   1.349 -0.0404 -0.5655 -0.3397
 1663SOL    HW1 5888   5.844   4.919   1.366  0.0373 -0.1807  0.5880
 1663SOL    HW2 5889   5.951   5.033   1.322 -0.0705 -0.9721 -1.8441
 1664SOL     OW 5890   0.843   0.788   6.008 -0.4698  0.2094  0.2066
 1664SOL    HW1 5891   0.871   0.774   6.103 -0.3081  1.8459  0.4290
 1664SOL    HW2 5892   0.893   0.725   5.949 -1.1394 -1.3763  1.2577
 1665SOL     OW 5893   1.449   2.592   1.810 -0.0425  0.2515  0.4335
 1665SOL    HW1 5894   1.521   2.533   1.773  0.7503  0.0599  2.1958
 1665SOL    HW2 5895   1.360   2.548   1.796  0.2696 -0.0898 -0.6459
 1666SOL     OW 5896   6.705   1.083   4.967 -0.2421  0.2893  0.5923
 1666SOL    HW1 5897   6.722   1.035   4.881  1.2302  2.4745 -0.4431
 1666SOL    HW2 5898   6.659   1.170   4.948  1.6712  1.6369  1.7379
 1667SOL     OW 5899   4.836   0.023   0.769 -0.2191 -0.0549 -0.1464
 1667SOL    HW1 5900   4.904   0.055   0.835 -0.6277  2.7266 -0.9321
 1667SOL    HW2 5901   4.812   0.097   0.707 -2.4000 -1.5664 -1.2678
 1668SOL     OW 5902   6.732   1.805   1.808 -0.5342  0.1918 -0.0710
 1668SOL    HW1 5903   6.755   1.853   1.722  1.3202  1.9877  1.3236
 1668SOL    HW2 5904   6.814   1.797   1.864 -1.7035 -1.0089  1.5500
 1669SOL     OW 5905   5.771   2.461   4.910 -0.4505  0.0282  0.1365
 1669SOL    HW1 5906   5.772   2.447   5.009  1.3977  0.6385  0.2502
 1669SOL    HW2 5907   5.677   2.463   4.878 -1.1079  0.0920  1.9250
 1670SOL     OW 5908   3.306   4.093   5.161 -0.1342  0.2107 -0.2145
 1670SOL    HW1 5909   3.301   4.184   5.203 -0.5444  0.3609 -0.5932
 1670SOL    HW2 5910   3.369   4.096   5.084 -1.4004  0.5942 -1.2735
 1671SOL     OW 5911   5.725   2.153   2.145  0.5626  0.7407 -0.4811
 1671SOL    HW1 5912   5.696   2.162   2.240  0.6820  0.8917 -0.4590
 1671SOL    HW2 5913   5.655   2.194   2.085  0.1520  0.0149 -0.5025
 1672SOL     OW 5914   2.012   1.207   1.267 -0.4379  0.3544 -0.1052
 1672SOL    HW1 5915   1.916   1.196   1.244  0.1455  0.9800 -3.2895
 1672SOL    HW2 5916   2.035   1.304   1.269  0.1360  0.2112  0.6404
 1673SOL     OW 5917   6.985   6.915   6.462  0.6593 -0.2819 -0.4184
 1673SOL    HW1 5918   7.081   6.889   6.455  0.5387 -0.9588  0.3048
 1673SOL    HW2 5919   6.940   6.857   6.529 -0.2585  0.0365 -0.7505
 1674SOL     OW 5920   3.118   2.143   3.553 -0.4373  0.3116 -0.0590
 1674SOL    HW1 5921   3.035   2.147   3.498 -1.0217  0.5490  0.8111
 1674SOL    HW2 5922   3.197   2.125   3.494 -1.0201  0.6762 -0.9731
 1675SOL     OW 5923   0.494   0.571   1.867 -0.0658  0.2181 -0.0667
 1675SOL    HW1 5924   0.404   0.600   1.833 -0.4536 -1.4031 -0.4731
 1675SOL    HW2 5925   0.502   0.596   1.964 -0.6477  1.0508 -0.2212
 1676SOL     OW 5926   2.728   1.090   5.242 -0.4215 -0.4933  0.5038
 1676SOL    HW1 5927   2.654   1.077   5.309 -0.2535  1.5546  1.1493
 1676SOL    HW2 5928   2.735   1.186   5.218  0.6421 -0.9572 -1.2264
 1677SOL     OW 5929   4.131   3.283   2.985  0.3186  0.0381 -0.5554
 1677SOL    HW1 5930   4.180   3.343   3.049  0.5912 -1.2414  0.4734
 1677SOL    HW2 5931   4.053   3.241   3.032 -0.9058  0.8851 -1.7537
 1678SOL     OW 5932   6.593   0.248   0.921  0.4637  0.3965  0.7581
 1678SOL    HW1 5933   6.617   0.244   1.018 -1.5844  1.4689  1.3751
 1678SOL    HW2 5934   6.674   0.270   0.868  1.3908  1.0920  2.3763
 1679SOL     OW 5935   0.189   1.540   1.705 -0.4866 -0.0503  0.0182
 1679SOL    HW1 5936   0.288   1.536   1.694 -0.5971 -0.7007 -0.8094
 1679SOL    HW2 5937   0.147   1.565   1.617 -1.1065 -0.6491  0.1376
 1680SOL     OW 5938   5.916   3.476   4.736 -0.2854 -0.4678  0.8571
 1680SOL    HW1 5939   5.821   3.490   4.707 -0.4766 -0.1463  1.6132
 1680SOL    HW2 5940   5.974   3.463   4.656 -0.6661  1.1752  0.2661
 1681SOL     OW 5941   6.304   4.882   2.985  0.0181  0.6034 -0.0620
 1681SOL    HW1 5942   6.394   4.916   2.958  0.0083  1.3761  0.8287
 1681SOL    HW2 5943   6.299   4.784   2.970  0.3438  0.8341 -1.9239
 1682SOL     OW 5944   5.042   2.976   3.968  0.5893  0.1302  0.2090
 1682SOL    HW1 5945   5.054   2.955   4.065  2.7054  0.3029  0.0358
 1682SOL    HW2 5946   5.131   2.977   3.923 -0.2457  1.0831 -1.5312
 1683SOL     OW 5947   0.403   6.131   5.070  0.0187 -0.1307 -0.6940
 1683SOL    HW1 5948   0.304   6.129   5.056 -0.2043  0.0507  0.6946
 1683SOL    HW2 5949   0.444   6.198   5.007 -0.7611 -0.0681 -1.1484
 1684SOL     OW 5950   1.542   5.066   1.185  0.1710 -0.2207 -0.1294
 1684SOL    HW1 5951   1.505   4.987   1.136 -0.6354  1.3362 -2.1541
 1684SOL    HW2 5952   1.629   5.040   1.228 -0.0455 -2.1760 -0.7657
 1685SOL     OW 5953   6.271   1.453   6.318  0.2283  0.1130  0.5746
 1685SOL    HW1 5954   6.176   1.466   6.347  0.3199  1.3728  0.3326
 1685SOL    HW2 5955   6.304   1.535   6.272  2.4344  0.9379  3.3726
 1686SOL     OW 5956   2.606   5.348   6.352  0.2623  0.6039  0.8613
 1686SOL    HW1 5957   2.639   5.389   6.438  0.4925  0.4444  0.8495
 1686SOL    HW2 5958   2.550   5.414   6.303  1.3144  1.2064  0.4396
 1687SOL     OW 5959   5.376   5.939   0.805  0.3418 -0.1479 -0.3483
 1687SOL    HW1 5960   5.309   5.865   0.807  0.9505 -0.6907  0.9346
 1687SOL    HW2 5961   5.334   6.021   0.765 -1.1310 -0.4238  0.5511
 1688SOL     OW 5962   2.631   0.001   3.014  0.3945  0.5122  0.1278
 1688SOL    HW1 5963   2.561  -0.011   3.084  1.7453  3.5010  2.1813
 1688SOL    HW2 5964   2.588   0.026   2.928 -1.1288  0.1905  0.7594
 1689SOL     OW 5965   3.518   0.780   2.375 -0.4791 -0.2141 -0.1545
 1689SOL    HW1 5966   3.575   0.732   2.442 -1.3730 -1.3470 -0.1675
 1689SOL    HW2 5967   3.493   0.870   2.410 -0.8532 -0.7500  1.0103
 1690SOL     OW 5968   1.794   4.563   3.302 -0.3158 -0.1986 -0.4390
 1690SOL    HW1 5969   1.847   4.630   3.354  1.9480 -3.1590  1.3652
 1690SOL    HW2 5970   1.714   4.535   3.356 -1.6413  1.3961 -1.4767
 1691SOL     OW 5971   6.158   2.027   5.815  0.2202 -0.2335 -0.0033
 1691SOL    HW1 5972   6.078   2.061   5.766 -1.0801 -2.0828  0.7444
 1691SOL    HW2 5973   6.220   2.103   5.834 -0.6395  1.0093 -1.8744
 1692SOL     OW 5974   6.553   6.339   3.049 -0.0019 -0.7108  0.4027
 1692SOL    HW1 5975   6.539   6.428   3.004  0.7313 -0.1988  1.1624
 1692SOL    HW2 5976   6.504   6.338   3.136 -0.2900 -1.1882  0.2378
 1693SOL     OW 5977   5.089   6.210   6.286  0.1419  0.1761  0.1828
 1693SOL    HW1 5978   5.154   6.160   6.343 -0.7600 -0.4665  0.6790
 1693SOL    HW2 5979   5.067   6.297   6.329  0.4502  0.2703  0.1541
 1694SOL     OW 5980   4.873   1.935   5.338  0.0457  0.8911  0.0153
 1694SOL    HW1 5981   4.777   1.914   5.320  0.6571 -1.1199 -1.3472
 1694SOL    HW2 5982   4.902   1.890   5.422 -0.6789  3.2437  1.5973
 1695SOL     OW 5983   4.180   5.336   6.604 -0.2628 -0.2213 -0.1606
 1695SOL    HW1 5984   4.251   5.292   6.659  0.7187  1.3802 -0.0930
 1695SOL    HW2 5985   4.215   5.421   6.565 -1.8060  0.0571 -1.0416
 1696SOL     OW 5986   0.057   5.776   1.044 -0.1505  0.3344  0.2887
 1696SOL    HW1 5987   0.111   5.776   1.128  1.0317  1.1889 -0.4379
 1696SOL    HW2 5988   0.063   5.865   1.000 -0.0918 -0.3305 -1.1158
 1697SOL     OW 5989   4.484   3.219   1.693  0.6112  0.0136 -0.1129
 1697SOL    HW1 5990   4.454   3.162   1.617  1.4568  0.4854 -0.8324
 1697SOL    HW2 5991   4.519   3.162   1.767  1.6773 -0.4106 -0.9242
 1698SOL     OW 5992   4.425   3.446   0.308 -0.1493 -0.0862  0.9060
 1698SOL    HW1 5993   4.491   3.419   0.238 -1.6980 -0.6021 -0.4218
 1698SOL    HW2 5994   4.426   3.379   0.382  0.4478 -0.3494  0.6698
 1699SOL     OW 5995   1.854   2.290   0.161  0.1778 -0.2147  0.4819
 1699SOL    HW1 5996   1.855   2.354   0.238 -1.5098  1.7810 -1.0698
 1699SOL    HW2 5997   1.771   2.234   0.166 -0.2826  0.3872 -0.2111
 1700SOL     OW 5998   5.230   2.577   3.198  0.3409 -0.3019  0.5933
 1700SOL    HW1 5999   5.166   2.574   3.275 -0.2442 -0.5509  0.1069
 1700SOL    HW2 6000   5.289   2.496   3.201 -2.1302 -2.3249 -1.2513
 1701SOL     OW 6001   2.055   0.947   3.552 -0.4725  0.4119 -0.1499
 1701SOL    HW1 6002   1.971   0.933   3.603 -1.2231  0.9542 -1.1963
 1701SOL    HW2 6003   2.087   0.859   3.515 -0.2698  0.1234  0.6915
 1702SOL     OW 6004   3.213   3.427   0.474  0.2525  1.0614 -0.0023
 1702SOL    HW1 6005   3.189   3.521   0.498 -0.6020  0.2953  2.4983
 1702SOL    HW2 6006   3.158   3.364   0.529  0.7936 -0.9218 -1.6181
 1703SOL     OW 6007   1.835   0.537   2.001  0.6260 -0.3633  0.3565
 1703SOL    HW1 6008   1.746   0.566   2.037  0.9852 -2.3400  3.1689
 1703SOL    HW2 6009   1.833   0.439   1.981  2.3459 -0.6092  1.1860
 1704SOL     OW 6010   3.245   2.638   6.563  0.2349  0.1976 -0.2209
 1704SOL    HW1 6011   3.242   2.718   6.502 -0.0171 -0.4245 -1.0503
 1704SOL    HW2 6012   3.295   2.564   6.518 -0.7902 -0.6053 -0.0827
 1705SOL     OW 6013   5.977   4.335   2.355  0.0700  0.6140 -0.5624
 1705SOL    HW1 6014   5.963   4.297   2.446 -0.6576  0.6356 -0.6545
 1705SOL    HW2 6015   5.977   4.261   2.288 -0.4282  0.6841 -0.6461
 1706SOL     OW 6016   5.341   0.962   0.172  0.5808 -0.5843  0.6544
 1706SOL    HW1 6017   5.301   0.977   0.082  1.3524  0.9062  0.5181
 1706SOL    HW2 6018   5.371   0.867   0.180 -0.6785 -1.0799 -0.1467
 1707SOL     OW 6019   2.755   1.275   3.646  0.2149  0.0834 -0.4468
 1707SOL    HW1 6020   2.780   1.240   3.737 -0.1970  1.0243  0.0475
 1707SOL    HW2 6021   2.821   1.344   3.617 -1.1421  1.8511  0.4277
 1708SOL     OW 6022   1.037   4.996   0.142  0.3521 -0.1193  0.0005
 1708SOL    HW1 6023   1.085   5.052   0.209 -0.1564  0.9682 -0.5120
 1708SOL    HW2 6024   0.941   4.987   0.167 -0.1516  1.4072 -1.2161
 1709SOL     OW 6025   0.880   5.031   1.878  0.0843 -0.3244 -0.1356
 1709SOL    HW1 6026   0.889   4.937   1.847  0.0308 -0.5089  0.3972
 1709SOL    HW2 6027   0.934   5.091   1.819  0.0395 -0.6722 -0.5384
 1710SOL     OW 6028   5.030   1.048   2.431  0.0132 -0.2225  0.4749
 1710SOL    HW1 6029   5.038   0.954   2.397 -0.2955 -0.0576 -0.0665
 1710SOL    HW2 6030   4.938   1.082   2.415  0.0364  0.0693  0.9479
 1711SOL     OW 6031   3.952   4.144   5.896  0.1961 -0.6399 -0.7374
 1711SOL    HW1 6032   3.949   4.194   5.810 -1.6357  0.1490 -0.2505
 1711SOL    HW2 6033   3.948   4.046   5.878  1.3671 -0.5587 -1.5838
 1712SOL     OW 6034   0.106   2.491   0.783  0.8414  0.3246 -0.2972
 1712SOL    HW1 6035   0.115   2.587   0.812  0.9259  0.3076 -0.2690
 1712SOL    HW2 6036   0.165   2.433   0.839  1.8205  0.4203 -1.1976
 1713SOL     OW 6037   2.639   2.467   2.657 -0.4362  0.5533 -0.4419
 1713SOL    HW1 6038   2.729   2.424   2.653 -0.5720  0.2170 -0.0487
 1713SOL    HW2 6039   2.593   2.459   2.569  0.1132  1.1587 -0.7853
 1714SOL     OW 6040   4.975   5.747   0.647  0.8495 -0.0137 -0.1360
 1714SOL    HW1 6041   4.915   5.682   0.599  0.9345  0.9633 -1.5999
 1714SOL    HW2 6042   5.038   5.789   0.583 -0.6220  3.1593  0.2780
 1715SOL     OW 6043   1.662   5.254   5.367 -0.3263 -0.8426  0.3362
 1715SOL    HW1 6044   1.695   5.318   5.298  0.6600 -2.1135 -0.4039
 1715SOL    HW2 6045   1.586   5.296   5.417 -1.9200 -0.2912 -2.3088
 1716SOL     OW 6046   4.349   2.084   3.284  0.0950  0.7547 -0.2761
 1716SOL    HW1 6047   4.349   2.151   3.358  0.0443  2.2781 -1.5978
 1716SOL    HW2 6048   4.325   2.130   3.198  0.4935 -0.8878 -1.3001
 1717SOL     OW 6049   4.185   0.416   4.573 -0.0667  0.3673  0.0164
 1717SOL    HW1 6050   4.147   0.367   4.495  0.6761  0.7411 -0.5898
 1717SOL    HW2 6051   4.284   0.408   4.573 -0.1311 -1.2703  2.0339
 1718SOL     OW 6052   6.615   3.219   1.426 -0.6836 -0.1309  0.1171
 1718SOL    HW1 6053   6.539   3.284   1.430  0.9376  1.9734 -1.0099
 1718SOL    HW2 6054   6.644   3.196   1.518 -1.6215  0.3306  0.5464
 1719SOL     OW 6055   1.294   5.688   1.721  0.0177  0.1791 -0.2675
 1719SOL    HW1 6056   1.273   5.772   1.671 -0.9053  0.4010  0.4604
 1719SOL    HW2 6057   1.245   5.611   1.679 -0.8756  0.3904  0.3532
 1720SOL     OW 6058   0.741   3.217   0.142 -0.2408  0.1012 -0.2691
 1720SOL    HW1 6059   0.829   3.182   0.173  0.2904  0.1303 -1.6865
 1720SOL    HW2 6060   0.755   3.280   0.066 -1.3474  1.6205  0.7248
 1721SOL     OW 6061   1.791   1.977   0.362 -0.1234 -0.3442  0.4886
 1721SOL    HW1 6062   1.828   2.054   0.413  0.9320  0.2206 -1.0556
 1721SOL    HW2 6063   1.733   2.010   0.288  0.6175 -0.9759 -0.4063
 1722SOL     OW 6064   1.673   2.027   4.344  0.2244  0.1924  0.4768
 1722SOL    HW1 6065   1.658   2.035   4.245  1.9616  1.7072  0.2659
 1722SOL    HW2 6066   1.637   1.940   4.376 -1.6579  0.2791 -1.2186
 1723SOL     OW 6067   5.968   5.662   2.528  0.5716 -0.0980  0.2288
 1723SOL    HW1 6068   5.952   5.661   2.627  0.5460 -0.4971  0.2213
 1723SOL    HW2 6069   5.972   5.568   2.494 -0.9720  0.0542 -0.4049
 1724SOL     OW 6070   6.542   4.044   1.660  0.1292  0.3773  0.7218
 1724SOL    HW1 6071   6.588   4.080   1.578  0.5408  1.7007  1.5084
 1724SOL    HW2 6072   6.601   4.055   1.739  0.5622 -2.7456  0.9315
 1725SOL     OW 6073   0.764   6.457   4.425 -0.1825  0.0772 -0.7162
 1725SOL    HW1 6074   0.695   6.528   4.410 -1.2019 -0.8828 -0.6815
 1725SOL    HW2 6075   0.852   6.488   4.388 -0.3711  1.7357  0.1284
 1726SOL     OW 6076   6.306   2.679   3.074  0.6718  0.1785  0.1904
 1726SOL    HW1 6077   6.300   2.648   3.169 -1.1391  1.5499  0.5778
 1726SOL    HW2 6078   6.239   2.630   3.018 -1.1347  2.1805  0.4981
 1727SOL     OW 6079   3.967   3.051   3.054  0.2050 -0.0801  0.0489
 1727SOL    HW1 6080   4.038   3.015   2.993  0.8611  3.9564 -1.8948
 1727SOL    HW2 6081   3.877   3.032   3.015  0.5718  1.1478 -1.5257
 1728SOL     OW 6082   6.322   1.579   4.486  0.8454 -0.4362  0.3084
 1728SOL    HW1 6083   6.320   1.539   4.577 -1.8407 -1.7613 -0.2156
 1728SOL    HW2 6084   6.285   1.672   4.489 -0.1107 -0.8077  0.4846
 1729SOL     OW 6085   2.485   4.998   3.323  0.4365  0.4487  0.4288
 1729SOL    HW1 6086   2.418   5.069   3.300 -0.5495 -0.4643  0.4033
 1729SOL    HW2 6087   2.553   4.992   3.251 -0.5432  0.1058 -0.4924
 1730SOL     OW 6088   4.545   5.808   4.184 -0.2306  0.8119 -0.8713
 1730SOL    HW1 6089   4.477   5.830   4.253 -1.0681 -0.5906 -1.2169
 1730SOL    HW2 6090   4.604   5.734   4.217 -0.4228  0.3642 -1.5067
 1731SOL     OW 6091   1.988   4.756   0.393 -0.4387 -0.1460 -0.4309
 1731SOL    HW1 6092   2.030   4.836   0.436 -1.6579  0.9548 -1.1685
 1731SOL    HW2 6093   2.028   4.672   0.429  0.8892  0.7999  0.3638
 1732SOL     OW 6094   3.561   3.491   5.022 -0.5039  0.1932  0.0974
 1732SOL    HW1 6095   3.482   3.527   4.971 -0.3939  1.3017  0.6608
 1732SOL    HW2 6096   3.643   3.501   4.967 -0.4905  0.7463  0.2082
 1733SOL     OW 6097   3.030   2.890   0.045 -0.3123 -0.7584 -0.9251
 1733SOL    HW1 6098   2.938   2.864   0.072  0.7330 -1.0037  3.0566
 1733SOL    HW2 6099   3.042   2.988   0.059 -0.1264 -0.6296 -1.9696
 1734SOL     OW 6100   2.931   5.981   2.431  0.5127 -0.0038 -0.3157
 1734SOL    HW1 6101   2.844   5.932   2.422  0.8745 -0.7050 -0.0727
 1734SOL    HW2 6102   2.996   5.945   2.364  1.4136 -1.2760  1.1913
 1735SOL     OW 6103   4.991   5.646   4.973  0.6436 -0.0693 -0.3026
 1735SOL    HW1 6104   4.930   5.661   5.051  0.1110  0.5841 -0.8277
 1735SOL    HW2 6105   4.955   5.573   4.916  1.2017 -0.7642  0.2233
 1736SOL     OW 6106   3.380   1.781   3.521  0.1958  0.2927 -0.4815
 1736SOL    HW1 6107   3.300   1.763   3.579  0.7419 -1.7919 -0.2937
 1736SOL    HW2 6108   3.460   1.795   3.578  0.1056  1.7954 -0.6868
 1737SOL     OW 6109   1.591   1.660   0.520  0.1031  0.4997 -0.4649
 1737SOL    HW1 6110   1.561   1.587   0.458 -0.3988  1.1420 -0.9919
 1737SOL    HW2 6111   1.686   1.683   0.502 -0.0877  0.7952 -1.1159
 1738SOL     OW 6112   0.709   1.739   2.376 -0.0399 -0.5811  0.1639
 1738SOL    HW1 6113   0.706   1.830   2.336 -2.0895 -0.3098  0.8174
 1738SOL    HW2 6114   0.669   1.673   2.311 -1.0120 -0.5574  0.7232
 1739SOL     OW 6115   3.647   5.458   1.532 -0.2597  0.2601  0.3832
 1739SOL    HW1 6116   3.747   5.449   1.531  0.0532  2.8831 -0.6570
 1739SOL    HW2 6117   3.615   5.476   1.440 -1.6991 -0.3355  0.7483
 1740SOL     OW 6118   5.839   2.814   4.984  0.1518 -0.2366 -0.8897
 1740SOL    HW1 6119   5.802   2.721   4.983  0.7318 -0.4808 -2.8007
 1740SOL    HW2 6120   5.763   2.880   4.984 -0.3106 -0.7348 -2.3288
 1741SOL     OW 6121   6.941   2.851   4.552 -0.7523 -0.2875  0.0799
 1741SOL    HW1 6122   6.986   2.852   4.642 -0.2550 -1.4670 -0.1261
 1741SOL    HW2 6123   6.928   2.945   4.520  1.1169  0.1234  0.3958
 1742SOL     OW 6124   6.359   1.401   5.445  0.4910 -0.3322  0.2220
 1742SOL    HW1 6125   6.395   1.335   5.379 -1.9614 -2.4659  0.8419
 1742SOL    HW2 6126   6.363   1.362   5.537  1.2633  1.4650  1.0007
 1743SOL     OW 6127   0.871   2.030   3.652  0.0315 -0.3197 -0.0074
 1743SOL    HW1 6128   0.908   1.991   3.736 -0.2126 -1.0262 -0.2265
 1743SOL    HW2 6129   0.884   2.129   3.654  0.9737 -0.4372  0.3909
 1744SOL     OW 6130   3.437   1.951   5.519  0.4105 -0.3221 -0.2136
 1744SOL    HW1 6131   3.409   1.881   5.585  2.2263 -2.2038 -1.3187
 1744SOL    HW2 6132   3.433   1.912   5.427 -1.4955  2.0548 -1.2221
 1745SOL     OW 6133   6.308   4.617   6.900 -0.0902 -0.3497 -0.8771
 1745SOL    HW1 6134   6.372   4.602   6.975 -0.3680 -0.5631 -0.6780
 1745SOL    HW2 6135   6.358   4.638   6.816  0.2720 -1.2267 -0.8880
 1746SOL     OW 6136   4.527   5.118   1.348  0.6709  0.1288  0.4230
 1746SOL    HW1 6137   4.531   5.019   1.338 -0.6835  0.0735  0.2415
 1746SOL    HW2 6138   4.576   5.161   1.271  1.3576 -0.3823  0.5628
 1747SOL     OW 6139   2.213   4.410   1.548  0.0003 -0.2547 -0.1721
 1747SOL    HW1 6140   2.134   4.439   1.493  1.1442  0.0369 -1.7130
 1747SOL    HW2 6141   2.187   4.330   1.602 -1.1036 -0.7463 -1.3554
 1748SOL     OW 6142   0.790   1.565   4.088 -0.1770 -0.8259 -0.3302
 1748SOL    HW1 6143   0.731   1.563   4.169  0.5860  0.1496  0.2738
 1748SOL    HW2 6144   0.869   1.624   4.106  0.3464 -1.1258 -1.5595
 1749SOL     OW 6145   6.893   5.184   3.210 -0.3840 -0.3220 -0.4128
 1749SOL    HW1 6146   6.809   5.214   3.164 -0.1042 -0.8732 -1.3161
 1749SOL    HW2 6147   6.869   5.131   3.291 -0.8848  1.1766  0.4691
 1750SOL     OW 6148   1.911   0.482   1.197  0.2639 -0.3685 -0.3225
 1750SOL    HW1 6149   1.912   0.382   1.204  1.0210 -0.4370 -1.2609
 1750SOL    HW2 6150   2.005   0.517   1.198 -0.0142  0.4535  1.2922
 1751SOL     OW 6151   0.066   4.324   3.417 -0.4795 -0.1544 -0.2923
 1751SOL    HW1 6152  -0.002   4.254   3.396  0.9264 -1.7654  0.2508
 1751SOL    HW2 6153   0.078   4.384   3.338 -0.9684 -1.1869 -1.1818
 1752SOL     OW 6154   1.172   5.664   3.003 -0.0641 -0.0928  0.4729
 1752SOL    HW1 6155   1.110   5.607   2.949 -2.2859  1.0216  1.7101
 1752SOL    HW2 6156   1.227   5.605   3.062 -0.5407 -1.0857 -0.0343
 1753SOL     OW 6157   6.189   1.473   0.231 -0.8133 -0.4451  0.0080
 1753SOL    HW1 6158   6.285   1.465   0.205 -0.8081  0.8457 -0.4311
 1753SOL    HW2 6159   6.179   1.452   0.328  0.2338  1.2716  0.5295
 1754SOL     OW 6160   2.084   5.630   2.991  0.6098 -0.3815 -0.3731
 1754SOL    HW1 6161   2.087   5.725   2.962 -2.0595 -0.1405 -0.0904
 1754SOL    HW2 6162   2.083   5.571   2.909  0.3757 -0.0652 -0.6010
 1755SOL     OW 6163   7.002   6.481   5.331  0.1359 -0.4647  0.9229
 1755SOL    HW1 6164   6.980   6.536   5.251  2.3633 -2.0207 -0.9054
 1755SOL    HW2 6165   6.969   6.526   5.414  0.6888  2.9227 -0.5565
 1756SOL     OW 6166   4.294   4.891   1.858  0.5037 -0.0354  0.1720
 1756SOL    HW1 6167   4.371   4.942   1.895  0.1513 -0.0258  0.9259
 1756SOL    HW2 6168   4.314   4.862   1.765  1.1484  0.5283  0.1310
 1757SOL     OW 6169   2.669   5.177   5.021  0.0605  0.6327  0.1723
 1757SOL    HW1 6170   2.608   5.139   4.952 -0.0356 -0.4880  0.8472
 1757SOL    HW2 6171   2.665   5.121   5.104 -0.0591  2.1236  1.2091
 1758SOL     OW 6172   4.548   0.556   3.272  0.3877  0.6739  0.9255
 1758SOL    HW1 6173   4.641   0.539   3.303  0.1179  0.3467  1.5636
 1758SOL    HW2 6174   4.483   0.532   3.344 -0.2485 -0.0141  0.1481
 1759SOL     OW 6175   0.727   6.653   5.339 -0.5687 -0.8161 -0.1648
 1759SOL    HW1 6176   0.724   6.649   5.439  0.9734 -0.0149 -0.0610
 1759SOL    HW2 6177   0.734   6.749   5.310  2.6914 -1.1586 -0.8499
 1760SOL     OW 6178   5.388   0.568   3.475  0.1867 -0.0070 -0.0386
 1760SOL    HW1 6179   5.348   0.497   3.533  1.1841 -0.7469 -0.2348
 1760SOL    HW2 6180   5.476   0.536   3.438 -1.0651 -0.1939 -3.1845
 1761SOL     OW 6181   4.981   2.404   3.698 -0.2801  0.7055 -0.7071
 1761SOL    HW1 6182   4.990   2.319   3.646 -2.4274 -0.2541  0.3518
 1761SOL    HW2 6183   4.930   2.471   3.645 -2.3938 -0.2423  0.0202
 1762SOL     OW 6184   0.434   1.521   5.805  0.3167 -0.5438 -0.5816
 1762SOL    HW1 6185   0.387   1.433   5.811 -0.7625 -0.0486 -1.4497
 1762SOL    HW2 6186   0.367   1.593   5.792  1.0629  0.5953  1.4717
 1763SOL     OW 6187   0.638   6.454   2.768 -0.2808  0.4076  0.3942
 1763SOL    HW1 6188   0.609   6.543   2.804 -3.1761 -0.9049  1.6288
 1763SOL    HW2 6189   0.655   6.391   2.843 -0.7850 -0.8028 -0.4796
 1764SOL     OW 6190   1.089   0.207   2.014  0.1888 -0.4937  0.0921
 1764SOL    HW1 6191   1.104   0.108   2.018 -2.8791 -1.0276  0.7172
 1764SOL    HW2 6192   1.136   0.250   2.092  2.3716 -1.2468 -0.7210
 1765SOL     OW 6193   5.330   5.301   2.513  0.0759  0.0053  0.5916
 1765SOL    HW1 6194   5.345   5.316   2.415  1.9540 -1.2675  0.6266
 1765SOL    HW2 6195   5.267   5.370   2.548 -0.2233  0.8084 -1.4008
 1766SOL     OW 6196   4.848   5.361   4.317 -0.2861 -0.5281  0.7826
 1766SOL    HW1 6197   4.919   5.383   4.384 -0.6939  1.7346  0.5797
 1766SOL    HW2 6198   4.790   5.288   4.353  0.4159 -0.4204  2.2374
 1767SOL     OW 6199   2.183   3.878   6.709 -0.4142 -0.4224 -0.1618
 1767SOL    HW1 6200   2.224   3.855   6.621  0.0171  2.3265 -0.7611
 1767SOL    HW2 6201   2.231   3.829   6.782 -0.2923 -2.1648 -1.3477
 1768SOL     OW 6202   4.341   5.743   3.411  0.4462  0.1162  0.9473
 1768SOL    HW1 6203   4.253   5.785   3.389  0.6662  0.0006 -0.2306
 1768SOL    HW2 6204   4.413   5.786   3.356  1.1431  0.2418  1.9316
 1769SOL     OW 6205   4.794   0.059   5.508 -0.7067  0.1692  0.3748
 1769SOL    HW1 6206   4.759  -0.034   5.500 -0.7254  0.1362  0.7954
 1769SOL    HW2 6207   4.876   0.059   5.565  0.9257  0.0223 -1.8326
 1770SOL     OW 6208   1.717   3.435   1.753 -0.6224 -0.6337  0.0641
 1770SOL    HW1 6209   1.794   3.497   1.764 -1.4992  0.5755 -0.4419
 1770SOL    HW2 6210   1.671   3.453   1.666 -2.2829 -0.4173  0.9478
 1771SOL     OW 6211   0.969   3.993   0.857  0.3648 -0.2927  0.1347
 1771SOL    HW1 6212   0.931   3.905   0.887  0.4849 -0.5190 -0.3797
 1771SOL    HW2 6213   1.066   3.998   0.881 -0.0306  0.4126  1.7348
 1772SOL     OW 6214   0.990   3.521   2.948 -0.5705 -0.3034  0.2712
 1772SOL    HW1 6215   1.086   3.497   2.935 -0.6404 -0.9269  0.8383
 1772SOL    HW2 6216   0.932   3.444   2.920 -0.9127  0.1130 -0.1848
 1773SOL     OW 6217   1.673   4.686   2.551  0.2395 -0.5897 -0.7474
 1773SOL    HW1 6218   1.728   4.606   2.572  0.8511 -0.6507 -2.5006
 1773SOL    HW2 6219   1.730   4.757   2.511 -0.2626  0.8156  0.9087
 1774SOL     OW 6220   0.121   4.845   1.097 -0.8030 -0.3892 -0.0777
 1774SOL    HW1 6221   0.115   4.816   1.193  1.6305  0.6501  0.4655
 1774SOL    HW2 6222   0.181   4.783   1.047 -1.1543 -0.2783 -0.6447
 1775SOL     OW 6223   2.110   0.162   1.169  0.1951  0.4145  0.0280
 1775SOL    HW1 6224   2.095   0.114   1.255  1.9005  0.4948  0.3991
 1775SOL    HW2 6225   2.172   0.239   1.183  1.3146 -0.1505 -1.4070
 1776SOL     OW 6226   4.811   2.544   4.814  0.1164 -0.4671 -0.1169
 1776SOL    HW1 6227   4.900   2.500   4.815  1.2223  1.6549  0.5695
 1776SOL    HW2 6228   4.814   2.625   4.754 -0.4633  1.2453  2.0264
 1777SOL     OW 6229   3.696   4.323   5.656 -0.4813  0.0196  0.3046
 1777SOL    HW1 6230   3.639   4.340   5.737 -2.2717  2.0043 -1.2534
 1777SOL    HW2 6231   3.656   4.250   5.602  0.4121 -0.9328  0.9003
 1778SOL     OW 6232   0.360   0.059   2.342  0.4504  0.3362  0.1196
 1778SOL    HW1 6233   0.300   0.135   2.317 -0.1804  0.3441  1.5969
 1778SOL    HW2 6234   0.307  -0.013   2.387  1.3582 -0.1788  0.4018
 1779SOL     OW 6235   6.988   6.328   5.852 -0.0076  0.0950 -0.1318
 1779SOL    HW1 6236   6.908   6.302   5.798  0.3706  1.7719 -1.6076
 1779SOL    HW2 6237   7.070   6.290   5.810 -0.0151 -2.2523  1.7985
 1780SOL     OW 6238   2.679   6.054   6.096 -0.4888 -0.5901  0.5178
 1780SOL    HW1 6239   2.591   6.047   6.143 -1.1217  1.1175 -0.3236
 1780SOL    HW2 6240   2.696   5.971   6.043 -1.7585 -0.7861  0.4029
 1781SOL     OW 6241   3.849   1.864   5.052 -0.4007  0.4003 -0.1135
 1781SOL    HW1 6242   3.857   1.963   5.042  1.8832  0.4896  1.9057
 1781SOL    HW2 6243   3.803   1.842   5.138 -0.9091 -0.3124 -0.5543
 1782SOL     OW 6244   0.282   5.648   3.400 -0.5286  0.5752 -0.2133
 1782SOL    HW1 6245   0.368   5.637   3.350 -0.0295 -2.2656  1.0439
 1782SOL    HW2 6246   0.296   5.711   3.477  0.5572 -0.1397  0.1917
 1783SOL     OW 6247   0.970   2.821   6.956 -1.0967  0.3770 -0.3390
 1783SOL    HW1 6248   0.900   2.852   7.020 -0.7191  0.2451  0.1410
 1783SOL    HW2 6249   0.946   2.852   6.864 -0.5952  2.3676  0.1474
 1784SOL     OW 6250   2.346   5.828   0.048  0.3480  0.2454 -0.0984
 1784SOL    HW1 6251   2.369   5.744   0.097 -2.1318 -0.3469  0.1349
 1784SOL    HW2 6252   2.285   5.807  -0.028  2.3800  1.4365 -2.2243
 1785SOL     OW 6253   2.508   4.900   4.936  0.6374  0.2714  0.0872
 1785SOL    HW1 6254   2.479   4.887   5.031  1.0512 -0.6080  0.0993
 1785SOL    HW2 6255   2.431   4.886   4.875  0.7388 -0.8312  0.1962
 1786SOL     OW 6256   2.120   5.536   2.731 -0.0689  0.0167  0.0001
 1786SOL    HW1 6257   2.186   5.461   2.740 -1.0630 -0.9597 -0.4738
 1786SOL    HW2 6258   2.162   5.611   2.679  0.2347 -1.1701 -1.5554
 1787SOL     OW 6259   2.535   1.861   6.777 -0.2183 -0.5991 -0.5101
 1787SOL    HW1 6260   2.618   1.850   6.833 -0.0092  1.4356 -0.3161
 1787SOL    HW2 6261   2.510   1.774   6.737  1.8410 -1.3500 -0.3100
 1788SOL     OW 6262   4.613   2.874   1.643  0.2751 -0.8002  0.5868
 1788SOL    HW1 6263   4.636   2.956   1.696  1.5298 -1.3466  0.9119
 1788SOL    HW2 6264   4.682   2.857   1.574 -0.6761 -0.8449 -0.3813
 1789SOL     OW 6265   5.869   3.554   3.121 -0.3106 -0.1774 -0.5479
 1789SOL    HW1 6266   5.885   3.456   3.132 -1.4237 -0.2894  0.2873
 1789SOL    HW2 6267   5.905   3.584   3.033  1.5274 -0.9916 -0.1259
 1790SOL     OW 6268   3.160   1.423   4.497 -0.1103  0.9612 -0.4285
 1790SOL    HW1 6269   3.070   1.400   4.533 -0.4841  3.4992  0.4823
 1790SOL    HW2 6270   3.190   1.510   4.537  2.7023  0.2549 -0.8134
 1791SOL     OW 6271   6.866   1.693   2.937 -0.0605  0.1025 -0.0476
 1791SOL    HW1 6272   6.822   1.607   2.912 -1.6225  0.6251  0.7967
 1791SOL    HW2 6273   6.917   1.681   3.022  1.7179 -0.5605 -1.1383
 1792SOL     OW 6274   6.823   2.562   0.109  0.0924 -0.0347  0.4716
 1792SOL    HW1 6275   6.885   2.498   0.065  0.5675 -0.1346  1.2745
 1792SOL    HW2 6276   6.769   2.610   0.039 -0.0993 -1.1238 -0.1456
 1793SOL     OW 6277   0.858   2.581   5.954  0.3509  0.3163  0.3189
 1793SOL    HW1 6278   0.813   2.493   5.945 -0.8668  0.9950 -0.5375
 1793SOL    HW2 6279   0.955   2.572   5.933 -0.1007 -0.4942 -1.5867
 1794SOL     OW 6280   0.551   4.044   0.935 -0.5170  0.4670  0.4030
 1794SOL    HW1 6281   0.452   4.049   0.929 -0.6649 -0.9812  0.9826
 1794SOL    HW2 6282   0.576   3.980   1.009  0.8560  1.6214  0.9877
 1795SOL     OW 6283   5.366   3.267   0.170 -0.0867 -0.7540 -0.7181
 1795SOL    HW1 6284   5.277   3.221   0.176 -0.3234 -0.2980 -0.7138
 1795SOL    HW2 6285   5.402   3.283   0.261  0.5350 -1.9475 -0.7237
 1796SOL     OW 6286   5.065   6.668   5.926 -0.0021 -0.5454 -0.4773
 1796SOL    HW1 6287   5.086   6.684   5.829 -0.2318 -0.3274 -0.4908
 1796SOL    HW2 6288   5.000   6.592   5.934 -1.1088  0.3648 -0.5871
 1797SOL     OW 6289   5.012   6.714   4.960 -0.0527  0.5087  0.1298
 1797SOL    HW1 6290   5.064   6.799   4.949 -1.4759  1.1226 -2.5045
 1797SOL    HW2 6291   5.075   6.638   4.975  1.3629  1.6993  0.4292
 1798SOL     OW 6292   2.041   5.546   0.573  0.0639 -0.8350  0.5893
 1798SOL    HW1 6293   1.969   5.507   0.631 -1.8582  1.1093 -0.3142
 1798SOL    HW2 6294   2.016   5.535   0.477 -0.4334  2.1076  0.2793
 1799SOL     OW 6295   4.607   0.491   1.475 -0.2315 -1.0224 -0.3363
 1799SOL    HW1 6296   4.698   0.470   1.510  0.2965  0.6735 -0.6376
 1799SOL    HW2 6297   4.593   0.442   1.389  1.1158  0.0527 -1.2174
 1800SOL     OW 6298   5.748   1.482   0.020 -0.0444 -0.1464  0.3197
 1800SOL    HW1 6299   5.817   1.416  -0.013  0.3049  0.8263 -0.9760
 1800SOL    HW2 6300   5.734   1.552  -0.050 -1.8842  0.0458  0.8442
 1801SOL     OW 6301   6.572   3.262   4.001  0.1549  0.0092 -0.1182
 1801SOL    HW1 6302   6.572   3.323   3.922 -1.1158  1.2437  0.7818
 1801SOL    HW2 6303   6.644   3.194   3.990  1.0037  1.0773 -1.6231
 1802SOL     OW 6304   6.254   3.469   6.059 -0.1539 -0.4958 -0.4077
 1802SOL    HW1 6305   6.200   3.386   6.072 -0.4429  0.0561  2.5832
 1802SOL    HW2 6306   6.203   3.548   6.092  1.3696  0.4423 -0.2088
 1803SOL     OW 6307   3.625   0.237   5.395  0.4752  0.3247  0.0521
 1803SOL    HW1 6308   3.703   0.174   5.396  0.0726 -0.1748  0.3170
 1803SOL    HW2 6309   3.583   0.236   5.305  0.8179  0.6533 -0.1147
 1804SOL     OW 6310   1.397   2.273   5.973 -0.0587 -0.0381  0.2380
 1804SOL    HW1 6311   1.482   2.248   6.019  1.0954 -1.2465 -2.3426
 1804SOL    HW2 6312   1.408   2.361   5.927 -0.5118  0.2173  0.6099
 1805SOL     OW 6313   6.709   4.247   5.829  0.5021 -0.0052 -0.2041
 1805SOL    HW1 6314   6.793   4.242   5.776  0.7942 -0.8185  0.3132
 1805SOL    HW2 6315   6.730   4.231   5.926 -0.0157  1.4676  0.1730
 1806SOL     OW 6316   0.765   2.972   3.358  0.4949  0.9526 -0.3785
 1806SOL    HW1 6317   0.681   2.921   3.377  0.4932  1.4496  1.0326
 1806SOL    HW2 6318   0.747   3.070   3.369  1.2886  1.0561  0.0207
 1807SOL     OW 6319   6.157   2.702   3.862  0.1109 -0.2197 -0.7027
 1807SOL    HW1 6320   6.210   2.718   3.945 -0.6102  1.5113 -0.5463
 1807SOL    HW2 6321   6.111   2.613   3.869 -0.7693  0.3383  1.2280
 1808SOL     OW 6322   5.060   2.040   6.641  0.6060 -0.3209 -0.0352
 1808SOL    HW1 6323   5.071   2.113   6.574 -0.8265  0.2064  0.2778
 1808SOL    HW2 6324   4.963   2.020   6.654  0.9558 -2.0936  0.1083
 1809SOL     OW 6325   4.099   5.639   5.541 -0.0680  0.0781  0.1331
 1809SOL    HW1 6326   4.025   5.706   5.535 -0.7866 -0.6049  1.0139
 1809SOL    HW2 6327   4.091   5.573   5.466 -1.4543 -1.0413  1.2090
 1810SOL     OW 6328   6.381   2.042   3.985  0.7557 -0.5981  0.1249
 1810SOL    HW1 6329   6.305   1.980   4.003 -0.1682  0.5524  0.2661
 1810SOL    HW2 6330   6.457   1.991   3.944 -0.6566 -1.4942 -1.4696
 1811SOL     OW 6331   2.035   6.903   0.674 -0.1342 -0.0314  0.4571
 1811SOL    HW1 6332   2.073   6.811   0.663  0.9945  0.5198 -0.4843
 1811SOL    HW2 6333   2.031   6.926   0.772 -0.8665 -1.2408  0.7289
 1812SOL     OW 6334   2.862   0.460   0.491 -0.3643  0.0417 -0.1897
 1812SOL    HW1 6335   2.786   0.524   0.477 -0.0683  0.0892 -1.7586
 1812SOL    HW2 6336   2.896   0.428   0.402  0.2841 -1.3736  0.5346
 1813SOL     OW 6337   4.805   4.689   0.937  0.2119  1.0651  0.0133
 1813SOL    HW1 6338   4.830   4.594   0.956  1.2537  0.6214 -3.0063
 1813SOL    HW2 6339   4.751   4.725   1.013  1.7749 -1.1363  2.3558
 1814SOL     OW 6340   6.831   4.565   1.215  0.3755 -0.4323  0.0445
 1814SOL    HW1 6341   6.908   4.579   1.153 -0.1385 -0.6400 -0.6617
 1814SOL    HW2 6342   6.747   4.559   1.162 -0.1151 -0.3312  0.7962
 1815SOL     OW 6343   6.604   6.224   0.474 -0.4718 -0.8482  0.2603
 1815SOL    HW1 6344   6.575   6.269   0.558  2.3722 -1.4390  1.6954
 1815SOL    HW2 6345   6.649   6.138   0.496  0.7079 -0.8456 -1.8232
 1816SOL     OW 6346   3.271   5.638   3.354  0.3319 -0.1819 -0.2257
 1816SOL    HW1 6347   3.342   5.638   3.282  3.5082  1.6901  2.5996
 1816SOL    HW2 6348   3.286   5.560   3.415 -0.8119 -0.3837 -0.1786
 1817SOL     OW 6349   6.157   2.763   3.438  0.0417  0.4511  0.4216
 1817SOL    HW1 6350   6.196   2.679   3.400 -1.1856 -0.6355  1.4395
 1817SOL    HW2 6351   6.229   2.816   3.484  0.7705 -0.2225  0.0777
 1818SOL     OW 6352   2.288   3.488   1.080 -0.1226 -0.1838  0.1323
 1818SOL    HW1 6353   2.264   3.392   1.092 -0.4768 -0.2020 -0.6568
 1818SOL    HW2 6354   2.353   3.516   1.151 -1.0061 -0.6532  1.1674
 1819SOL     OW 6355   0.852   2.876   1.160  0.1916 -0.0620  0.1633
 1819SOL    HW1 6356   0.761   2.915   1.145 -0.1021 -0.4783  0.8269
 1819SOL    HW2 6357   0.857   2.837   1.252  1.3578  0.8265  0.4986
 1820SOL     OW 6358   3.997   0.563   5.952  0.0614 -0.6557  0.1753
 1820SOL    HW1 6359   3.954   0.587   5.865  1.1872 -2.0964 -0.8364
 1820SOL    HW2 6360   4.041   0.644   5.991 -2.8182  0.6918  0.9002
 1821SOL     OW 6361   3.160   6.405   2.353  0.0126  0.5265  0.0575
 1821SOL    HW1 6362   3.075   6.366   2.387 -0.0792  1.9148  1.5450
 1821SOL    HW2 6363   3.213   6.441   2.430  0.2689  2.8957 -1.1399
 1822SOL     OW 6364   2.892   4.698   5.799 -0.6301  0.1356 -0.3469
 1822SOL    HW1 6365   2.886   4.695   5.899  1.3384  1.1015 -0.1631
 1822SOL    HW2 6366   2.925   4.610   5.766  1.5075  0.7129  0.1348
 1823SOL     OW 6367   4.646   6.326   6.305 -0.0144 -0.5378  0.4864
 1823SOL    HW1 6368   4.698   6.244   6.331 -0.5197 -0.7823  0.7396
 1823SOL    HW2 6369   4.563   6.298   6.257  0.3532 -0.1279 -0.3997
 1824SOL     OW 6370   4.944   3.216   2.077  0.0853 -0.0182  0.2644
 1824SOL    HW1 6371   4.865   3.156   2.065  0.3310 -0.4917  0.9242
 1824SOL    HW2 6372   4.948   3.282   2.002 -0.2312 -0.7922 -0.4611
 1825SOL     OW 6373   2.085   3.220   6.523  0.0596  0.2507 -0.1616
 1825SOL    HW1 6374   2.076   3.140   6.464  0.6365 -1.2882  1.7426
 1825SOL    HW2 6375   2.050   3.301   6.475 -2.2658 -1.4150 -1.4563
 1826SOL     OW 6376   5.030   4.666   1.331 -0.8256 -0.6552  0.2057
 1826SOL    HW1 6377   5.029   4.689   1.429  2.4725  1.4797 -0.0981
 1826SOL    HW2 6378   5.025   4.566   1.321 -1.7805 -0.9031  2.4964
 1827SOL     OW 6379   0.136   4.247   6.964  0.4234 -0.0406  0.0041
 1827SOL    HW1 6380   0.212   4.272   6.905 -0.9637 -0.8696 -2.2582
 1827SOL    HW2 6381   0.083   4.328   6.987  0.0662  0.1094 -1.2775
 1828SOL     OW 6382   1.857   5.770   4.507  0.1018  0.4341  0.7485
 1828SOL    HW1 6383   1.883   5.678   4.537  0.5236  0.2215 -0.2558
 1828SOL    HW2 6384   1.848   5.829   4.587 -1.2238 -0.7357  1.5046
 1829SOL     OW 6385   1.498   6.531   1.313  0.1651 -0.8856  0.1845
 1829SOL    HW1 6386   1.543   6.619   1.330  0.1847 -0.8743  0.0726
 1829SOL    HW2 6387   1.402   6.547   1.291  0.4383 -0.7980 -1.0248
 1830SOL     OW 6388   4.488   1.118   5.194  0.2604 -0.3124 -0.0871
 1830SOL    HW1 6389   4.547   1.115   5.274  0.9981 -2.2354 -0.6561
 1830SOL    HW2 6390   4.535   1.077   5.116 -0.5778  1.1715 -1.4456
 1831SOL     OW 6391   3.873   3.446   6.145  0.2211  0.4384 -0.0265
 1831SOL    HW1 6392   3.805   3.508   6.107 -1.1661 -1.2595 -0.4595
 1831SOL    HW2 6393   3.964   3.487   6.139 -0.8100  3.1675  1.3703
 1832SOL     OW 6394   4.713   1.726   5.738 -0.3640 -0.1522  0.0536
 1832SOL    HW1 6395   4.769   1.807   5.753 -2.1235  1.2491 -0.6461
 1832SOL    HW2 6396   4.681   1.690   5.826  2.4117 -1.6479  0.5667
 1833SOL     OW 6397   5.235   2.088   2.078  0.9746 -0.3327  0.1153
 1833SOL    HW1 6398   5.208   2.040   2.161 -0.4255  0.3868  0.1166
 1833SOL    HW2 6399   5.313   2.147   2.097  1.2995 -0.9304  0.6622
 1834SOL     OW 6400   2.350   4.463   6.807  0.6787  0.2043  0.0735
 1834SOL    HW1 6401   2.395   4.521   6.875  1.0968  2.1765 -1.7864
 1834SOL    HW2 6402   2.275   4.413   6.850  0.8302  1.4820  1.9312
 1835SOL     OW 6403   4.036   1.179   0.631  0.0481  0.3311 -0.2765
 1835SOL    HW1 6404   4.097   1.188   0.553  1.3451  1.3772  0.7965
 1835SOL    HW2 6405   3.984   1.094   0.624 -0.2764  0.6600 -2.5252
 1836SOL     OW 6406   6.114   1.727   6.920  0.4350  0.3711 -0.3038
 1836SOL    HW1 6407   6.068   1.648   6.880  1.0888 -0.3313  0.3210
 1836SOL    HW2 6408   6.203   1.740   6.876  0.6147  0.3586  0.0557
 1837SOL     OW 6409   0.860   0.105   2.231  0.3536  0.4462  0.4646
 1837SOL    HW1 6410   0.794   0.062   2.292  1.2348  0.7346  1.6447
 1837SOL    HW2 6411   0.830   0.198   2.210 -0.1971  0.1805  0.0588
 1838SOL     OW 6412   4.758   6.570   0.406 -0.2647  0.1924  0.1811
 1838SOL    HW1 6413   4.776   6.477   0.376 -2.9078 -0.5639  0.6308
 1838SOL    HW2 6414   4.674   6.603   0.362  0.0514  1.9638  0.8405
 1839SOL     OW 6415   0.527   2.144   0.004  0.2763 -0.2152 -0.0712
 1839SOL    HW1 6416   0.438   2.160  -0.039 -0.6452  0.7932  2.0620
 1839SOL    HW2 6417   0.586   2.222  -0.013  0.6527 -0.7283 -1.1909
 1840SOL     OW 6418   1.757   0.477   4.942  0.5793  0.1087 -0.4846
 1840SOL    HW1 6419   1.689   0.407   4.921  0.6926  0.0363 -0.6113
 1840SOL    HW2 6420   1.778   0.476   5.039 -0.1447  0.6173 -0.3145
 1841SOL     OW 6421   1.615   1.134   5.948  0.3504  0.1485 -0.2290
 1841SOL    HW1 6422   1.713   1.114   5.943  0.3115 -0.6844  1.5208
 1841SOL    HW2 6423   1.565   1.048   5.961 -0.7189  0.4639 -1.9364
 1842SOL     OW 6424   1.258   4.624   0.227 -0.0383 -0.1742 -0.7199
 1842SOL    HW1 6425   1.356   4.628   0.245  0.2590 -2.5117 -1.4283
 1842SOL    HW2 6426   1.215   4.561   0.292 -1.0581  0.7135 -0.5096
 1843SOL     OW 6427   4.694   2.245   0.237 -0.4980  0.3147 -0.4225
 1843SOL    HW1 6428   4.726   2.251   0.142 -1.0903  0.5625 -0.6112
 1843SOL    HW2 6429   4.662   2.335   0.267 -2.2796 -0.1843 -0.7013
 1844SOL     OW 6430   4.022   4.212   0.324 -0.0879 -0.6917  0.4097
 1844SOL    HW1 6431   3.955   4.163   0.380 -1.5904 -0.5347 -1.1674
 1844SOL    HW2 6432   4.065   4.148   0.261 -1.2898 -0.2222 -0.9307
 1845SOL     OW 6433   7.013   3.031   4.810 -0.1164 -0.0914  0.0193
 1845SOL    HW1 6434   6.962   3.117   4.816  1.7999  1.2686 -2.0911
 1845SOL    HW2 6435   7.000   2.980   4.896 -3.3860  1.0106  0.3517
 1846SOL     OW 6436   4.297   5.710   4.254  0.0935  0.2843  0.3661
 1846SOL    HW1 6437   4.360   5.717   4.177 -0.8297  0.7915 -0.3726
 1846SOL    HW2 6438   4.211   5.671   4.223  0.0425 -0.4203  1.3613
 1847SOL     OW 6439   0.830   1.277   0.716 -0.1759 -0.1344 -0.0550
 1847SOL    HW1 6440   0.770   1.205   0.681 -0.1351 -0.6825  0.9539
 1847SOL    HW2 6441   0.784   1.327   0.789 -0.2939  1.0454 -0.9132
 1848SOL     OW 6442   2.774   4.750   4.106 -0.0880 -0.5480  0.3585
 1848SOL    HW1 6443   2.716   4.749   4.025  0.6633 -2.3828 -0.2262
 1848SOL    HW2 6444   2.748   4.674   4.166  1.0689 -0.8375  0.5246
 1849SOL     OW 6445   4.189   1.759   2.575  0.1558 -0.8025 -0.2621
 1849SOL    HW1 6446   4.142   1.846   2.590  1.6665  0.1380 -0.7585
 1849SOL    HW2 6447   4.138   1.704   2.509 -0.1835  0.2511 -0.8976
 1850SOL     OW 6448   4.186   4.756   0.475 -0.3600  0.1157  0.0252
 1850SOL    HW1 6449   4.143   4.736   0.387  0.5399 -1.0152 -0.1829
 1850SOL    HW2 6450   4.285   4.768   0.461 -0.1809 -0.2808  0.9097
 1851SOL     OW 6451   1.731   5.683   3.423  0.4022 -1.1173  0.3781
 1851SOL    HW1 6452   1.694   5.729   3.504  1.6025 -0.2809  0.4874
 1851SOL    HW2 6453   1.661   5.624   3.382 -1.5943  1.5318 -0.3172
 1852SOL     OW 6454   6.389   1.078   4.137 -0.1130 -0.0870  0.3742
 1852SOL    HW1 6455   6.372   1.018   4.059  2.5808  0.7446 -0.9989
 1852SOL    HW2 6456   6.322   1.152   4.137 -0.2477 -0.1746 -1.1332
 1853SOL     OW 6457   0.319   1.873   4.892  0.1417  0.2735 -0.0656
 1853SOL    HW1 6458   0.318   1.818   4.975  1.9363 -3.6071 -2.3282
 1853SOL    HW2 6459   0.413   1.899   4.870 -0.2328  0.7689 -1.1726
 1854SOL     OW 6460   1.331   1.157   2.899  0.0076  0.6096 -0.4582
 1854SOL    HW1 6461   1.383   1.208   2.830  0.3158  0.6884 -0.1723
 1854SOL    HW2 6462   1.323   1.061   2.870  0.2817  0.6048 -0.5226
 1855SOL     OW 6463   6.423   1.643   5.733 -0.1774  0.1901  0.5617
 1855SOL    HW1 6464   6.425   1.544   5.743 -1.2403  0.1845  0.8360
 1855SOL    HW2 6465   6.345   1.669   5.676  1.2076  0.7522 -1.1890
 1856SOL     OW 6466   5.447   3.432   0.679  0.2148  0.7548  0.2002
 1856SOL    HW1 6467   5.426   3.470   0.769 -0.6326  0.3937  0.1700
 1856SOL    HW2 6468   5.528   3.476   0.642  0.8283  0.6073  1.3253
 1857SOL     OW 6469   4.786   6.289   5.616 -0.1350  0.3913  0.2558
 1857SOL    HW1 6470   4.841   6.236   5.680 -0.0649  0.8352  0.5696
 1857SOL    HW2 6471   4.840   6.365   5.580 -0.6842  1.1580  0.9823
 1858SOL     OW 6472   4.517   1.909   4.272 -0.3683 -0.1418  0.2078
 1858SOL    HW1 6473   4.611   1.907   4.238 -0.4797  0.4278 -0.1405
 1858SOL    HW2 6474   4.503   1.833   4.335 -0.1103 -1.1199 -0.8746
 1859SOL     OW 6475   1.074   5.470   3.685 -0.4886  0.6597 -0.4527
 1859SOL    HW1 6476   1.155   5.466   3.744 -0.2775  2.6891 -0.5407
 1859SOL    HW2 6477   1.088   5.540   3.615 -1.3515 -0.6787 -2.0097
 1860SOL     OW 6478   2.295   1.938   0.715  0.2841 -0.0939 -0.0849
 1860SOL    HW1 6479   2.346   1.852   0.707 -1.8034 -1.2587 -2.9189
 1860SOL    HW2 6480   2.198   1.918   0.730 -0.2839  1.7401 -0.9681
 1861SOL     OW 6481   6.258   5.825   5.570 -0.6066  0.1801  0.8276
 1861SOL    HW1 6482   6.289   5.919   5.554  3.0522 -0.8500  0.9594
 1861SOL    HW2 6483   6.271   5.771   5.487 -3.9033 -0.0531  0.3354
 1862SOL     OW 6484   3.516   5.816   4.806  0.2915  0.1618 -0.2953
 1862SOL    HW1 6485   3.588   5.786   4.744 -2.7710  0.1789 -4.2184
 1862SOL    HW2 6486   3.505   5.915   4.799 -0.0948  0.1685  0.3215
 1863SOL     OW 6487   5.497   1.056   0.688 -0.1504  0.3752 -0.1543
 1863SOL    HW1 6488   5.420   1.027   0.744 -0.0834  1.5296  0.5699
 1863SOL    HW2 6489   5.511   1.155   0.699  0.8941  0.3315 -0.9387
 1864SOL     OW 6490   2.086   5.905   2.626  0.4880  0.1123  0.5102
 1864SOL    HW1 6491   2.025   5.981   2.648 -0.3564  0.4745 -2.5910
 1864SOL    HW2 6492   2.181   5.933   2.639  0.1474  1.2418  0.6961
 1865SOL     OW 6493   6.952   1.444   1.462 -0.0122 -0.0251  0.4347
 1865SOL    HW1 6494   6.879   1.380   1.485 -1.3238  0.9905 -0.7614
 1865SOL    HW2 6495   7.041   1.398   1.474 -0.8530 -1.6708  0.7222
 1866SOL     OW 6496   0.094   3.257   6.031 -0.1081 -0.7040 -0.0224
 1866SOL    HW1 6497   0.035   3.204   5.970 -1.4163  0.9848 -0.2927
 1866SOL    HW2 6498   0.184   3.213   6.037 -1.3390 -3.3116  0.3579
 1867SOL     OW 6499   1.490   1.089   0.304 -0.3150 -0.1959  0.4841
 1867SOL    HW1 6500   1.465   1.088   0.401 -1.6122 -0.1625  0.1748
 1867SOL    HW2 6501   1.424   1.145   0.254 -0.2751 -1.0663 -0.5717
 1868SOL     OW 6502   6.098   3.379   5.311  0.4580  0.0766  0.4819
 1868SOL    HW1 6503   6.098   3.397   5.409 -1.7741 -0.5516  0.6672
 1868SOL    HW2 6504   6.074   3.463   5.262  1.3157  0.3267  0.4795
 1869SOL     OW 6505   1.740   2.652   6.620  0.0813 -0.5349  0.3557
 1869SOL    HW1 6506   1.817   2.693   6.669  0.3947  0.1911 -0.7165
 1869SOL    HW2 6507   1.662   2.714   6.622 -0.3463 -1.0762  1.0500
 1870SOL     OW 6508   6.207   2.798   5.456  0.4165  0.3016  0.5254
 1870SOL    HW1 6509   6.269   2.772   5.530 -0.2022  1.0509  1.3249
 1870SOL    HW2 6510   6.113   2.782   5.486  0.2030 -2.1821 -1.1780
 1871SOL     OW 6511   2.173   4.881   6.254  0.1207 -0.8468  0.1763
 1871SOL    HW1 6512   2.214   4.800   6.295  0.9297  0.2704  1.6196
 1871SOL    HW2 6513   2.133   4.939   6.325  0.2572  0.4211 -0.7370
 1872SOL     OW 6514   1.626   2.506   6.164 -0.4849 -0.0394  0.4512
 1872SOL    HW1 6515   1.592   2.429   6.110  0.8017 -1.0647  1.0358
 1872SOL    HW2 6516   1.551   2.546   6.216 -1.6438  0.6191 -1.6306
 1873SOL     OW 6517   3.594   1.228   3.128 -0.1544  0.5663  0.3126
 1873SOL    HW1 6518   3.558   1.286   3.200  0.2541  0.6317  0.4679
 1873SOL    HW2 6519   3.522   1.207   3.062 -0.9773 -0.9005  1.6310
 1874SOL     OW 6520   2.901   0.367   4.798 -0.0719  0.7456 -0.0573
 1874SOL    HW1 6521   2.959   0.428   4.744  2.5664 -1.1225  0.4748
 1874SOL    HW2 6522   2.877   0.411   4.884  0.0917  1.7423 -0.5032
 1875SOL     OW 6523   1.644   5.368   1.006 -0.3260  0.6715 -0.3514
 1875SOL    HW1 6524   1.607   5.299   0.943  1.9210  0.1746 -1.2197
 1875SOL    HW2 6525   1.660   5.453   0.957  0.7218  0.5259 -0.2719
 1876SOL     OW 6526   1.442   5.775   4.637  0.3230 -0.0805 -0.0781
 1876SOL    HW1 6527   1.460   5.764   4.735 -1.3138  0.5896  0.3267
 1876SOL    HW2 6528   1.509   5.837   4.598 -0.2971  1.3875  1.0985
 1877SOL     OW 6529   1.846   6.837   4.295  0.1412 -0.2627 -0.0209
 1877SOL    HW1 6530   1.870   6.768   4.227 -0.0862 -1.2615  0.8758
 1877SOL    HW2 6531   1.833   6.926   4.250 -1.6790 -1.2158 -1.5404
 1878SOL     OW 6532   6.692   4.358   4.499  0.4424 -0.3217  0.6616
 1878SOL    HW1 6533   6.743   4.419   4.439 -0.8390  0.6342  0.5104
 1878SOL    HW2 6534   6.595   4.363   4.477  0.1369 -1.2309  1.7070
 1879SOL     OW 6535   3.696   6.769   6.068 -0.1412 -0.2635  0.6996
 1879SOL    HW1 6536   3.656   6.722   6.147 -0.9607 -1.7502 -0.5520
 1879SOL    HW2 6537   3.626   6.824   6.023  0.1182 -0.0651  0.5383
 1880SOL     OW 6538   2.294   5.220   2.531 -0.0816  0.8875 -0.2839
 1880SOL    HW1 6539   2.331   5.174   2.451  3.6351  1.5149  0.9202
 1880SOL    HW2 6540   2.256   5.152   2.594  0.4685  0.0334 -0.8519
 1881SOL     OW 6541   2.920   2.190   3.001 -0.4268  0.0778  0.2919
 1881SOL    HW1 6542   2.866   2.110   2.973 -0.5296  0.5079 -0.8220
 1881SOL    HW2 6543   2.859   2.268   3.013 -0.1371  0.4208 -0.3910
 1882SOL     OW 6544   3.412   1.788   6.467 -0.3185  0.0835 -0.0436
 1882SOL    HW1 6545   3.313   1.786   6.462 -0.3467 -0.6851  0.5232
 1882SOL    HW2 6546   3.448   1.859   6.407 -1.1225 -0.8188 -1.6469
 1883SOL     OW 6547   3.655   4.333   1.320  0.0207  0.3109  0.6465
 1883SOL    HW1 6548   3.654   4.346   1.221 -1.1689  0.4164  0.6517
 1883SOL    HW2 6549   3.727   4.389   1.361  2.5394 -1.9323 -0.4019
 1884SOL     OW 6550   5.077   6.759   0.943  0.5070 -0.0788 -0.1200
 1884SOL    HW1 6551   5.029   6.769   0.856  0.3589  0.6388  0.0398
 1884SOL    HW2 6552   5.011   6.749   1.017  0.4438  3.0410  0.3933
 1885SOL     OW 6553   6.605   2.662   1.139  0.1613  0.2142  0.2845
 1885SOL    HW1 6554   6.529   2.697   1.194 -1.2066  0.2764 -1.5303
 1885SOL    HW2 6555   6.598   2.563   1.131  0.5681  0.1648  0.5232
 1886SOL     OW 6556   2.510   3.294   5.344  0.2732 -0.3361 -0.2843
 1886SOL    HW1 6557   2.582   3.276   5.410  0.2851 -0.4733 -0.3333
 1886SOL    HW2 6558   2.511   3.222   5.273 -0.6090 -0.9657  0.3207
 1887SOL     OW 6559   1.212   4.626   5.941  0.2127 -0.1773  0.3895
 1887SOL    HW1 6560   1.184   4.644   5.847  0.2551 -1.1883  0.1730
 1887SOL    HW2 6561   1.141   4.573   5.988  0.6506 -0.6015  0.5899
 1888SOL     OW 6562   1.994   1.291   5.580  0.3145  0.4023 -0.3257
 1888SOL    HW1 6563   2.067   1.323   5.641  0.4806 -0.6688  0.0725
 1888SOL    HW2 6564   2.032   1.271   5.490  0.3480  0.6695 -0.3696
 1889SOL     OW 6565   5.145   3.935   3.842  0.2654  0.6093  0.1732
 1889SOL    HW1 6566   5.056   3.915   3.883  0.2270  1.0771  0.3337
 1889SOL    HW2 6567   5.169   3.863   3.778 -0.8863  1.1733 -0.9498
 1890SOL     OW 6568   5.661   6.604   0.027  0.1812 -0.1878  0.6319
 1890SOL    HW1 6569   5.577   6.549   0.027 -0.4218  0.6626 -1.0625
 1890SOL    HW2 6570   5.676   6.643   0.118 -0.9255 -0.8373  1.1137
 1891SOL     OW 6571   4.585   2.786   6.712  0.5317 -0.1999  0.2498
 1891SOL    HW1 6572   4.679   2.800   6.742  0.5157  0.8522 -0.1454
 1891SOL    HW2 6573   4.523   2.794   6.791  0.6658  0.4626  0.2963
 1892SOL     OW 6574   2.987   0.649   2.452  0.2519 -0.5536 -0.4892
 1892SOL    HW1 6575   2.889   0.667   2.462  0.1610 -0.9733 -0.5828
 1892SOL    HW2 6576   3.038   0.701   2.520  0.1329  1.1532 -1.6427
 1893SOL     OW 6577   1.513   2.713   0.425  0.5907 -0.5025  0.0790
 1893SOL    HW1 6578   1.579   2.780   0.391  1.7989 -1.4608  0.4725
 1893SOL    HW2 6579   1.561   2.629   0.451 -0.5623 -0.6145  2.0324
 1894SOL     OW 6580   5.128   4.182   1.432  0.4906  0.5152 -0.8997
 1894SOL    HW1 6581   5.118   4.114   1.359 -0.2930 -2.3698  1.6701
 1894SOL    HW2 6582   5.165   4.267   1.394  2.2374 -1.5214 -4.2183
 1895SOL     OW 6583   4.919   6.315   3.403 -0.1384 -0.6622  0.0626
 1895SOL    HW1 6584   4.853   6.240   3.401 -0.0067 -0.7755 -1.3872
 1895SOL    HW2 6585   4.919   6.361   3.314  0.4835  0.4414  0.6177
 1896SOL     OW 6586   0.854   2.466   4.468 -0.4392 -0.0851 -0.5316
 1896SOL    HW1 6587   0.767   2.444   4.512 -0.6582  0.0597 -0.8884
 1896SOL    HW2 6588   0.838   2.496   4.375 -0.2609  2.6602  0.2315
 1897SOL     OW 6589   6.745   4.657   4.755 -0.3008  0.2677 -0.3897
 1897SOL    HW1 6590   6.696   4.734   4.796 -0.2938 -0.3501  0.8243
 1897SOL    HW2 6591   6.719   4.573   4.802 -0.1658 -0.4569 -1.5749
 1898SOL     OW 6592   6.069   4.218   6.467 -0.5278 -0.1857 -0.5651
 1898SOL    HW1 6593   6.166   4.236   6.482 -0.2439  0.4987 -2.8049
 1898SOL    HW2 6594   6.020   4.305   6.461 -0.6442 -0.3358 -2.7903
 1899SOL     OW 6595   3.081   3.645   4.821  0.2093 -0.1047  0.1721
 1899SOL    HW1 6596   3.112   3.717   4.758 -0.4377 -0.9162 -1.1260
 1899SOL    HW2 6597   3.003   3.596   4.780 -1.3450  0.4118  2.3535
 1900SOL     OW 6598   0.976   4.487   1.812 -0.2271  0.1344 -0.9133
 1900SOL    HW1 6599   1.000   4.484   1.909  0.0475 -0.7900 -0.9989
 1900SOL    HW2 6600   0.910   4.414   1.792  2.3532 -2.0836 -2.0748
 1901SOL     OW 6601   6.992   1.796   6.405  0.2694 -0.3553 -0.2976
 1901SOL    HW1 6602   7.022   1.764   6.315  0.0962  2.4862 -1.4760
 1901SOL    HW2 6603   6.975   1.894   6.401  2.1078  0.2938  3.3285
 1902SOL     OW 6604   2.607   2.903   5.576 -0.1706 -0.4939  0.4554
 1902SOL    HW1 6605   2.531   2.882   5.515 -0.1098 -1.2313  0.6167
 1902SOL    HW2 6606   2.686   2.932   5.521 -0.6001  0.4134  0.2993
 1903SOL     OW 6607   0.226   0.433   3.462 -0.1171  0.4562  0.0953
 1903SOL    HW1 6608   0.180   0.385   3.388  0.6959  1.1541 -0.8893
 1903SOL    HW2 6609   0.291   0.371   3.507  1.4618  0.7878 -1.6404
 1904SOL     OW 6610   0.214   1.799   4.202  0.2759 -0.7009  0.4616
 1904SOL    HW1 6611   0.118   1.820   4.184 -0.1116 -2.1946  0.6359
 1904SOL    HW2 6612   0.226   1.779   4.300  1.3798  2.3640  1.0698
 1905SOL     OW 6613   6.109   3.428   5.598  0.1660 -0.1416 -0.0750
 1905SOL    HW1 6614   6.010   3.420   5.605 -0.0458  0.3167 -2.0014
 1905SOL    HW2 6615   6.140   3.508   5.650 -0.1923 -1.3869  2.1533
 1906SOL     OW 6616   1.499   0.853   5.550 -0.1801 -0.1232  0.4458
 1906SOL    HW1 6617   1.478   0.947   5.523  1.7333  0.4185  0.6833
 1906SOL    HW2 6618   1.455   0.833   5.638 -0.2006  0.7328  0.6448
 1907SOL     OW 6619   4.302   0.464   2.043  0.0283 -0.5180  0.2243
 1907SOL    HW1 6620   4.263   0.408   1.971 -2.2094  0.8673  0.2753
 1907SOL    HW2 6621   4.264   0.556   2.039  2.1036  0.4837  1.3521
 1908SOL     OW 6622   6.477   6.058   6.152  0.3824  0.2798 -0.1981
 1908SOL    HW1 6623   6.519   5.970   6.127 -0.3794 -0.2383  0.3256
 1908SOL    HW2 6624   6.501   6.126   6.083  2.6285  0.1844  0.4012
 1909SOL     OW 6625   4.184   6.560   6.130  0.3373 -0.9055 -0.4574
 1909SOL    HW1 6626   4.259   6.588   6.070 -0.5932  2.7608 -0.1681
 1909SOL    HW2 6627   4.111   6.520   6.074  1.4249 -2.1289 -1.0585
 1910SOL     OW 6628   4.957   3.867   4.464  0.4956 -0.2119 -0.1328
 1910SOL    HW1 6629   5.015   3.897   4.540 -0.2117  0.6268  0.0941
 1910SOL    HW2 6630   4.896   3.794   4.496  0.0181  0.3183  0.1955
 1911SOL     OW 6631   6.778   2.324   0.789 -0.1445  0.2629  0.0815
 1911SOL    HW1 6632   6.843   2.357   0.858 -2.3493  1.1834  1.8412
 1911SOL    HW2 6633   6.825   2.260   0.728  2.3355  0.6918  1.3767
 1912SOL     OW 6634   4.103   6.849   2.600  0.3021  0.1343 -0.0341
 1912SOL    HW1 6635   4.034   6.821   2.667 -0.2159  0.2736 -0.5090
 1912SOL    HW2 6636   4.067   6.922   2.543  0.3546 -0.6956 -1.1593
 1913SOL     OW 6637   2.948   5.070   0.697 -0.2641  0.2879 -0.2177
 1913SOL    HW1 6638   2.923   5.121   0.614 -0.7425 -1.2200 -1.0452
 1913SOL    HW2 6639   2.912   4.977   0.690  1.3447 -0.4411  0.8472
 1914SOL     OW 6640   5.437   2.235   5.432 -0.0770  0.0142  0.6181
 1914SOL    HW1 6641   5.340   2.225   5.410  0.0622  1.7208 -1.0202
 1914SOL    HW2 6642   5.493   2.205   5.355  0.5533  2.0791  0.1961
 1915SOL     OW 6643   2.729   6.939   3.706 -0.0032  0.4044  0.1909
 1915SOL    HW1 6644   2.718   6.900   3.797  2.3131  0.5829  0.5935
 1915SOL    HW2 6645   2.646   6.988   3.680 -2.0994 -2.5905  0.7008
 1916SOL     OW 6646   2.944   6.550   3.416 -0.1491 -0.0795  0.5920
 1916SOL    HW1 6647   2.897   6.593   3.493 -1.0877  0.7287 -0.4088
 1916SOL    HW2 6648   2.877   6.510   3.354  0.4257  1.3380 -1.0026
 1917SOL     OW 6649   3.090   3.948   2.995 -0.0975 -0.1024 -0.4501
 1917SOL    HW1 6650   3.169   3.999   2.960  0.3846 -1.6769 -1.7798
 1917SOL    HW2 6651   3.101   3.934   3.094  1.1836 -0.1113 -0.5748
 1918SOL     OW 6652   5.872   1.885   6.019 -0.3754  0.0196  0.1006
 1918SOL    HW1 6653   5.811   1.924   5.950 -0.9867 -0.0024  0.6152
 1918SOL    HW2 6654   5.921   1.958   6.066  0.2801  0.0180 -0.5584
 1919SOL     OW 6655   4.555   0.580   2.341  0.1657  0.2204 -0.1148
 1919SOL    HW1 6656   4.509   0.515   2.281  1.8502  0.2431 -1.4877
 1919SOL    HW2 6657   4.610   0.530   2.408 -0.9979  0.2185  0.8858
 1920SOL     OW 6658   5.235   4.794   3.361 -0.4046 -0.1991 -0.4387
 1920SOL    HW1 6659   5.167   4.855   3.401 -0.5245 -0.7337  0.1976
 1920SOL    HW2 6660   5.319   4.845   3.341 -0.9916  0.4705 -1.2411
 1921SOL     OW 6661   1.539   1.438   0.370 -0.9943 -0.7992 -0.7176
 1921SOL    HW1 6662   1.483   1.430   0.288 -2.5414 -0.1443  0.2231
 1921SOL    HW2 6663   1.545   1.349   0.416  0.9337 -1.4781 -2.1295
 1922SOL     OW 6664   2.760   4.744   6.470 -0.2065  0.2243  0.1798
 1922SOL    HW1 6665   2.817   4.773   6.392  0.9103 -0.8219  0.5765
 1922SOL    HW2 6666   2.691   4.680   6.438 -1.0849  1.3607 -0.2768
 1923SOL     OW 6667   1.305   1.754   2.470 -0.1890  0.5142 -0.5772
 1923SOL    HW1 6668   1.319   1.742   2.372 -1.2327  1.7826 -0.9078
 1923SOL    HW2 6669   1.385   1.720   2.520 -0.4345 -1.9035 -1.7224
 1924SOL     OW 6670   0.300   2.640   3.561  0.0237 -0.1119 -0.2743
 1924SOL    HW1 6671   0.334   2.712   3.622 -1.6324 -1.5546  2.5922
 1924SOL    HW2 6672   0.223   2.674   3.508 -1.1598  0.1368  1.5283
 1925SOL     OW 6673   4.015   4.307   7.013  0.3035  0.3419 -0.4078
 1925SOL    HW1 6674   4.027   4.372   6.938 -3.1236  1.2817 -0.3192
 1925SOL    HW2 6675   3.964   4.227   6.980  3.3004 -1.8297 -0.1926
 1926SOL     OW 6676   1.884   0.914   1.329  0.2086 -0.8077  0.0580
 1926SOL    HW1 6677   1.864   0.905   1.231  1.0659 -1.4671 -0.0665
 1926SOL    HW2 6678   1.962   0.856   1.353  1.7859  1.3761  0.5661
 1927SOL     OW 6679   0.091   4.889   6.518  0.2799  0.0365 -0.2062
 1927SOL    HW1 6680  -0.001   4.916   6.546  0.6917  0.4868  0.7707
 1927SOL    HW2 6681   0.086   4.837   6.433 -1.0945 -2.0185  1.0330
 1928SOL     OW 6682   0.453   5.202   3.618  0.1826 -0.0698  0.2067
 1928SOL    HW1 6683   0.451   5.106   3.591  1.3635  0.1747 -0.8642
 1928SOL    HW2 6684   0.384   5.253   3.566  0.0964 -0.2070  0.1873
 1929SOL     OW 6685   1.296   5.098   1.546 -0.2743  0.3780 -0.0233
 1929SOL    HW1 6686   1.377   5.135   1.500 -0.0943  0.7975  0.6218
 1929SOL    HW2 6687   1.283   5.144   1.634 -1.8172  1.0618 -0.5676
 1930SOL     OW 6688   4.810   5.735   5.197  0.0009 -0.1584  0.4431
 1930SOL    HW1 6689   4.880   5.771   5.259 -1.9276  1.8897  1.5813
 1930SOL    HW2 6690   4.721   5.741   5.241 -1.2150 -0.4672 -1.8304
 1931SOL     OW 6691   2.631   1.391   4.604  0.2380  0.1946  0.0129
 1931SOL    HW1 6692   2.710   1.337   4.574  1.1868  1.7471 -0.3954
 1931SOL    HW2 6693   2.615   1.465   4.539 -2.6504 -1.0496 -0.8454
 1932SOL     OW 6694   4.684   1.414   3.563 -0.3225  0.1016 -0.2362
 1932SOL    HW1 6695   4.638   1.387   3.478  0.3732 -1.1335 -0.2517
 1932SOL    HW2 6696   4.634   1.375   3.640 -0.0986 -0.0663 -0.1746
 1933SOL     OW 6697   1.500   4.663   6.345 -0.0146  0.3221 -0.4052
 1933SOL    HW1 6698   1.406   4.697   6.343  0.2482  1.3183  1.5839
 1933SOL    HW2 6699   1.545   4.684   6.258 -1.7032 -0.5278 -1.5442
 1934SOL     OW 6700   1.818   0.999   0.650 -0.0557  0.0516 -0.5368
 1934SOL    HW1 6701   1.792   1.024   0.743 -0.6205 -0.9988 -0.4033
 1934SOL    HW2 6702   1.774   0.913   0.625 -0.5598  0.7185 -2.0691
 1935SOL     OW 6703   6.332   1.390   3.233  0.0895  0.2243  0.0414
 1935SOL    HW1 6704   6.305   1.433   3.319  0.1341 -1.4117  0.9179
 1935SOL    HW2 6705   6.302   1.446   3.156 -0.4975  1.4126  1.1106
 1936SOL     OW 6706   1.704   5.256   1.935  0.1124  0.1351 -1.2179
 1936SOL    HW1 6707   1.739   5.166   1.909  0.3870  0.5590 -2.3678
 1936SOL    HW2 6708   1.678   5.306   1.853 -3.5128 -0.2456 -0.4768
 1937SOL     OW 6709   4.388   6.953   2.747 -0.5671  0.4817  0.0856
 1937SOL    HW1 6710   4.360   6.950   2.651 -0.6446 -1.6556  0.1309
 1937SOL    HW2 6711   4.340   6.881   2.797  0.2017  0.9528  1.5328
 1938SOL     OW 6712   1.454   2.309   4.719 -0.4447 -0.1728 -0.6860
 1938SOL    HW1 6713   1.442   2.408   4.710  0.2571 -0.2279 -2.8995
 1938SOL    HW2 6714   1.444   2.267   4.629  1.8183 -1.8260 -0.2291
 1939SOL     OW 6715   2.746   1.981   3.299  0.3640  0.0843  0.6786
 1939SOL    HW1 6716   2.687   1.936   3.367 -1.8686  1.6984 -0.0413
 1939SOL    HW2 6717   2.731   1.938   3.209 -1.0306  1.4910  0.1845
 1940SOL     OW 6718   6.755   6.793   0.803  0.5296 -0.4394 -0.0349
 1940SOL    HW1 6719   6.666   6.805   0.759 -0.7881 -1.8591  2.0803
 1940SOL    HW2 6720   6.812   6.873   0.785 -1.0774  0.4102 -1.6224
 1941SOL     OW 6721   4.707   4.994   2.198  0.4451  0.0838  0.4690
 1941SOL    HW1 6722   4.753   4.970   2.283  2.4350  1.6277 -0.0870
 1941SOL    HW2 6723   4.775   5.026   2.131 -1.2453  0.5322 -1.1233
 1942SOL     OW 6724   6.388   3.970   4.128  0.3405  0.4084 -0.1479
 1942SOL    HW1 6725   6.314   4.028   4.163  0.2321 -0.0593  0.4184
 1942SOL    HW2 6726   6.349   3.900   4.067  0.3084  0.1576  0.1560
 1943SOL     OW 6727   3.931   4.845   4.250 -0.0125  0.1027  0.6429
 1943SOL    HW1 6728   3.998   4.898   4.302  1.7499  2.1280 -3.2379
 1943SOL    HW2 6729   3.840   4.882   4.267  0.2680 -0.1599  3.0944
 1944SOL     OW 6730   1.778   3.707   3.418 -0.0630 -0.2274  0.1162
 1944SOL    HW1 6731   1.835   3.689   3.338 -0.1581 -2.0327  0.4084
 1944SOL    HW2 6732   1.776   3.805   3.436  1.5609  0.0330 -0.9125
 1945SOL     OW 6733   5.786   5.886   2.413  0.0279  0.0413  0.2373
 1945SOL    HW1 6734   5.709   5.854   2.468 -1.5199  3.0840  0.0505
 1945SOL    HW2 6735   5.870   5.842   2.445 -1.2488 -0.6720  2.9145
 1946SOL     OW 6736   0.909   6.066   4.914 -0.0971  0.5111 -0.2127
 1946SOL    HW1 6737   0.829   6.102   4.865 -1.5540 -0.6400  1.2390
 1946SOL    HW2 6738   0.992   6.106   4.875 -1.2440  0.5870 -2.7886
 1947SOL     OW 6739   2.692   2.416   3.778  0.3133 -0.5943  0.0981
 1947SOL    HW1 6740   2.764   2.351   3.755  0.4577 -0.5228  0.3465
 1947SOL    HW2 6741   2.733   2.497   3.822  0.3329  0.3641 -1.5820
 1948SOL     OW 6742   1.278   5.225   4.712  0.0178 -0.0869 -0.1975
 1948SOL    HW1 6743   1.341   5.149   4.694 -1.7623 -1.1482 -2.4851
 1948SOL    HW2 6744   1.266   5.280   4.630 -2.1811 -0.0777  0.0482
 1949SOL     OW 6745   6.346   5.024   3.227  0.2446  0.2267  0.3686
 1949SOL    HW1 6746   6.435   5.046   3.267  0.7427 -1.2329  0.1295
 1949SOL    HW2 6747   6.358   4.955   3.155 -1.2730 -1.7738  1.8971
 1950SOL     OW 6748   1.813   5.188   0.469 -0.2059 -0.1343 -0.3481
 1950SOL    HW1 6749   1.833   5.091   0.481  1.5203  0.0851 -1.2128
 1950SOL    HW2 6750   1.896   5.242   0.483 -0.6805  1.0408 -1.7822
 1951SOL     OW 6751   5.292   0.305   0.818  0.0769 -0.0774  0.2346
 1951SOL    HW1 6752   5.306   0.219   0.769 -0.6095 -0.0738  0.0173
 1951SOL    HW2 6753   5.217   0.355   0.775 -1.0643 -0.4222  1.7579
 1952SOL     OW 6754   3.508   4.030   2.780  0.1719  0.0155 -0.1619
 1952SOL    HW1 6755   3.600   4.060   2.808  0.9327 -2.0343 -0.2836
 1952SOL    HW2 6756   3.490   4.063   2.687  1.2954 -0.5245 -0.5968
 1953SOL     OW 6757   6.744   3.396   5.995 -0.2131 -0.2436 -0.0345
 1953SOL    HW1 6758   6.826   3.409   6.050  0.5342 -0.8688 -0.9719
 1953SOL    HW2 6759   6.677   3.468   6.016  1.2400  1.2932 -0.4768
 1954SOL     OW 6760   4.070   1.468   5.783 -1.0712 -0.3301 -0.2126
 1954SOL    HW1 6761   3.988   1.456   5.727 -0.9692 -0.5576 -0.3148
 1954SOL    HW2 6762   4.138   1.520   5.732 -1.3020  0.2110  0.0230
 1955SOL     OW 6763   0.534   4.955   3.080 -0.3337 -0.7290 -0.6752
 1955SOL    HW1 6764   0.455   4.942   3.019  0.6431 -1.0282 -1.9168
 1955SOL    HW2 6765   0.585   4.869   3.086 -0.0089 -0.4924  0.0123
 1956SOL     OW 6766   2.814   6.013   4.119 -0.4855 -0.1897 -0.4572
 1956SOL    HW1 6767   2.910   6.005   4.147 -0.5635 -0.6921 -0.3304
 1956SOL    HW2 6768   2.759   5.946   4.168 -0.7663 -0.4940 -1.1723
 1957SOL     OW 6769   3.100   7.008   4.858 -0.1300  0.0412  0.0100
 1957SOL    HW1 6770   3.019   7.062   4.878 -0.4114 -0.4553  0.2267
 1957SOL    HW2 6771   3.136   6.968   4.943  0.8874  1.0080  0.0570
 1958SOL     OW 6772   3.713   2.905   5.533  0.2208 -0.0477  0.7845
 1958SOL    HW1 6773   3.620   2.925   5.561  0.2646 -0.6597  1.3801
 1958SOL    HW2 6774   3.719   2.810   5.501  0.6794 -0.0778  0.9438
 1959SOL     OW 6775   3.885   2.313   1.344  0.3753  0.1211  0.1810
 1959SOL    HW1 6776   3.871   2.366   1.428  0.8091  0.0051  0.3310
 1959SOL    HW2 6777   3.857   2.218   1.360  0.0042  0.2059  0.0443
 1960SOL     OW 6778   4.407   5.502   2.312  0.3963  0.0528  0.4870
 1960SOL    HW1 6779   4.489   5.557   2.327  0.7027 -1.0055  3.4675
 1960SOL    HW2 6780   4.328   5.550   2.352  0.1947 -0.4565  0.7077
 1961SOL     OW 6781   6.642   6.184   5.241 -0.0341 -0.6979 -0.0711
 1961SOL    HW1 6782   6.661   6.086   5.246 -0.6885 -0.8227  0.0745
 1961SOL    HW2 6783   6.641   6.222   5.334 -2.3858 -1.0800  0.1184
 1962SOL     OW 6784   0.865   0.568   4.764 -1.1647  0.2455  0.1613
 1962SOL    HW1 6785   0.766   0.565   4.755 -1.1298 -0.4298 -0.0564
 1962SOL    HW2 6786   0.906   0.495   4.709 -0.5468  0.5294  0.2321
 1963SOL     OW 6787   3.235   1.683   5.129  0.3231  0.7366 -0.7412
 1963SOL    HW1 6788   3.278   1.618   5.066  0.5598  0.6597 -0.5040
 1963SOL    HW2 6789   3.158   1.727   5.084 -0.0912  0.0006 -0.7719
 1964SOL     OW 6790   6.425   2.384   1.794 -0.2017  0.4277 -0.8316
 1964SOL    HW1 6791   6.403   2.403   1.889  0.2820  0.3952 -0.7101
 1964SOL    HW2 6792   6.419   2.469   1.741 -2.4943  0.1006 -1.1990
 1965SOL     OW 6793   0.601   6.706   4.517 -0.2323  0.3886  0.2154
 1965SOL    HW1 6794   0.537   6.780   4.535 -0.4361  0.5459 -1.0203
 1965SOL    HW2 6795   0.671   6.703   4.588 -2.5046 -0.8413  2.5568
 1966SOL     OW 6796   6.913   6.719   6.660  0.2413  0.0770  0.5187
 1966SOL    HW1 6797   6.971   6.649   6.701  1.6076  0.4068 -0.7740
 1966SOL    HW2 6798   6.837   6.675   6.611 -0.5758 -0.3571  2.0982
 1967SOL     OW 6799   6.727   2.826   2.493  0.0266 -0.7035  0.4755
 1967SOL    HW1 6800   6.649   2.806   2.433 -1.1632  0.2633  1.6404
 1967SOL    HW2 6801   6.791   2.885   2.445  0.5200 -2.2150 -0.8130
 1968SOL     OW 6802   5.251   5.476   4.210  0.2481  0.2342  0.1477
 1968SOL    HW1 6803   5.271   5.566   4.172  1.9930 -0.9869 -2.0399
 1968SOL    HW2 6804   5.334   5.438   4.252 -0.5964 -0.1848  1.5272
 1969SOL     OW 6805   6.309   6.788   0.948  0.0219 -0.0628 -0.1511
 1969SOL    HW1 6806   6.307   6.803   1.047 -3.0142  0.5190 -0.2095
 1969SOL    HW2 6807   6.322   6.876   0.901 -1.9771  0.2205 -0.2591
 1970SOL     OW 6808   0.297   1.007   5.460 -0.9576  0.3204  0.0057
 1970SOL    HW1 6809   0.292   0.974   5.366  2.2624 -1.4618  0.3398
 1970SOL    HW2 6810   0.353   1.090   5.463  2.2729 -1.7371  0.6646
 1971SOL     OW 6811   6.859   0.889   0.221  0.5342 -0.0162 -0.2850
 1971SOL    HW1 6812   6.830   0.821   0.154 -1.2814  0.4297  0.0040
 1971SOL    HW2 6813   6.932   0.850   0.278 -1.3348 -2.2624  0.7423
 1972SOL     OW 6814   6.995   1.498   4.527 -0.4104  0.3364  0.2952
 1972SOL    HW1 6815   7.079   1.470   4.481  0.3473  1.4908  0.9526
 1972SOL    HW2 6816   6.916   1.467   4.473  0.4373  0.9421 -1.3494
 1973SOL     OW 6817   4.431   4.259   5.654  0.6845  0.4262  0.6565
 1973SOL    HW1 6818   4.518   4.218   5.625 -0.7701 -0.6014 -2.7358
 1973SOL    HW2 6819   4.374   4.189   5.696 -0.2116 -0.1249 -1.3719
 1974SOL     OW 6820   4.853   6.798   4.019  0.3135  0.1284  0.2183
 1974SOL    HW1 6821   4.759   6.821   3.994  0.1318 -1.0350 -0.2410
 1974SOL    HW2 6822   4.855   6.761   4.112 -0.2888 -3.2288 -0.9773
 1975SOL     OW 6823   0.955   1.768   4.117  0.2029 -0.2708  0.6361
 1975SOL    HW1 6824   1.031   1.755   4.181  0.0297  3.1998  1.7826
 1975SOL    HW2 6825   0.885   1.824   4.161 -1.1196  0.0927 -1.7698
 1976SOL     OW 6826   6.755   4.838   5.817 -0.5942 -0.4906 -0.0630
 1976SOL    HW1 6827   6.813   4.919   5.825 -1.0437 -0.0449 -1.1015
 1976SOL    HW2 6828   6.777   4.774   5.890  1.1846 -0.3226 -0.4073
 1977SOL     OW 6829   2.293   2.523   5.559  0.2422 -0.1783  0.6902
 1977SOL    HW1 6830   2.372   2.497   5.503 -0.8593  1.4882 -1.8103
 1977SOL    HW2 6831   2.302   2.619   5.585 -0.5308 -0.2383  1.1967
 1978SOL     OW 6832   2.205   3.018   2.857  0.4576 -0.1130 -0.0054
 1978SOL    HW1 6833   2.171   3.111   2.847 -0.8103 -0.5593  0.0504
 1978SOL    HW2 6834   2.199   2.990   2.952  2.1495  0.2149  0.2351
 1979SOL     OW 6835   6.635   4.130   3.220 -0.2117 -0.1383  0.1464
 1979SOL    HW1 6836   6.575   4.137   3.300  1.1727  4.0980  1.0348
 1979SOL    HW2 6837   6.632   4.215   3.169  1.1301 -1.7317 -2.8086
 1980SOL     OW 6838   4.014   6.494   2.750 -0.5033 -0.3965  0.1941
 1980SOL    HW1 6839   4.007   6.548   2.834 -1.8211  0.9074 -0.7103
 1980SOL    HW2 6840   4.109   6.464   2.738 -0.4571 -1.4247  2.6042
 1981SOL     OW 6841   6.600   2.274   0.571  0.4075  0.2736  0.3219
 1981SOL    HW1 6842   6.639   2.308   0.656 -1.9646  1.2778  1.0909
 1981SOL    HW2 6843   6.549   2.347   0.525 -1.3937 -1.1379 -0.0653
 1982SOL     OW 6844   6.725   0.839   5.460 -0.2995  0.4839 -0.2025
 1982SOL    HW1 6845   6.718   0.893   5.377  1.0485 -0.1144 -0.7175
 1982SOL    HW2 6846   6.680   0.750   5.446  0.0812  0.3134 -0.3642
 1983SOL     OW 6847   0.262   5.159   0.372  0.3303  0.1689 -0.2298
 1983SOL    HW1 6848   0.245   5.084   0.308 -1.3448  0.3952 -0.0975
 1983SOL    HW2 6849   0.323   5.128   0.445 -1.6232 -1.6234  0.7493
 1984SOL     OW 6850   1.658   6.954   0.879 -0.1557 -0.0429 -0.3672
 1984SOL    HW1 6851   1.589   7.021   0.851  0.6623  1.2407  0.5899
 1984SOL    HW2 6852   1.703   6.916   0.798 -0.6058  0.5915 -0.9213
 1985SOL     OW 6853   6.991   5.666   2.015 -0.3264 -0.0623 -0.5219
 1985SOL    HW1 6854   6.922   5.688   1.946 -0.2326 -1.5014 -1.1036
 1985SOL    HW2 6855   6.985   5.569   2.040  0.0334  0.2884  1.0766
 1986SOL     OW 6856   5.695   3.402   1.234  0.4658 -0.1430  0.2810
 1986SOL    HW1 6857   5.609   3.352   1.232  0.7053 -0.6255 -2.5126
 1986SOL    HW2 6858   5.704   3.457   1.151  2.8895 -0.2112  0.4150
 1987SOL     OW 6859   1.201   4.713   1.931 -0.0738 -0.0431  0.0688
 1987SOL    HW1 6860   1.258   4.765   1.867  1.5973  0.0361  1.5367
 1987SOL    HW2 6861   1.155   4.639   1.882  1.6901 -0.4211 -1.1348
 1988SOL     OW 6862   5.584   2.717   2.106  0.6785  0.7563  0.0364
 1988SOL    HW1 6863   5.662   2.683   2.160  0.7275 -0.2235 -0.6270
 1988SOL    HW2 6864   5.503   2.721   2.164  1.3447  2.4673  0.9314
 1989SOL     OW 6865   1.437   2.581   3.289 -0.3354  0.1365  0.4125
 1989SOL    HW1 6866   1.372   2.648   3.252 -1.7772 -1.3124  0.2092
 1989SOL    HW2 6867   1.480   2.530   3.214 -0.3850 -0.1927  0.6042
 1990SOL     OW 6868   1.731   5.552   3.081  0.4616 -0.1851 -0.0487
 1990SOL    HW1 6869   1.821   5.578   3.119  0.2618  0.3965  0.0437
 1990SOL    HW2 6870   1.714   5.603   2.997  0.1964 -0.2610 -0.0428
 1991SOL     OW 6871   1.109   5.646   3.493 -0.1914  0.2776  0.4175
 1991SOL    HW1 6872   1.084   5.601   3.407 -0.7290  0.2288  0.6006
 1991SOL    HW2 6873   1.057   5.731   3.503  1.2662  1.3037 -0.2347
 1992SOL     OW 6874   3.177   0.066   4.083  0.5360 -0.2440 -0.2735
 1992SOL    HW1 6875   3.193   0.110   4.171 -1.2907  0.5080 -0.2737
 1992SOL    HW2 6876   3.237  -0.014   4.074  3.3923  1.7075  0.0679
 1993SOL     OW 6877   2.940   3.818   3.441  0.6539 -0.9014 -0.6351
 1993SOL    HW1 6878   2.920   3.850   3.348  1.1532 -0.0121 -0.4550
 1993SOL    HW2 6879   3.010   3.877   3.482  0.1550 -1.0348  0.4533
 1994SOL     OW 6880   6.275   1.599   0.943  0.0094  0.2693  0.1404
 1994SOL    HW1 6881   6.337   1.525   0.919  0.4671  0.1415  1.6168
 1994SOL    HW2 6882   6.320   1.663   1.005 -1.3320  0.1243  1.3243
 1995SOL     OW 6883   5.787   1.889   1.779  0.1681  0.2860  0.4041
 1995SOL    HW1 6884   5.864   1.835   1.746  0.1753  0.8219 -0.4849
 1995SOL    HW2 6885   5.822   1.961   1.839  0.3349  0.3430  0.2424
 1996SOL     OW 6886   1.169   0.589   5.666 -0.4672  0.0910  0.5064
 1996SOL    HW1 6887   1.128   0.499   5.650  2.3874 -1.6129  2.0533
 1996SOL    HW2 6888   1.225   0.615   5.588 -0.1665 -0.1365  0.6479
 1997SOL     OW 6889   4.638   5.099   5.030 -0.0444 -0.3000  0.0654
 1997SOL    HW1 6890   4.703   5.035   5.071 -0.5121 -0.3374  0.7811
 1997SOL    HW2 6891   4.672   5.192   5.041  0.2685 -0.3680 -0.2880
 1998SOL     OW 6892   3.214   1.296   3.219 -0.5567  0.1673  0.3295
 1998SOL    HW1 6893   3.191   1.205   3.252 -1.0919  0.6127  1.2414
 1998SOL    HW2 6894   3.131   1.350   3.208 -0.2513  0.5330 -0.2634
 1999SOL     OW 6895   3.691   1.223   3.760  0.6709  0.3061 -0.9170
 1999SOL    HW1 6896   3.625   1.154   3.731 -0.5886  0.5223  1.2270
 1999SOL    HW2 6897   3.677   1.307   3.707 -0.3698  0.1466 -0.9049
 2000SOL     OW 6898   3.498   0.698   6.066  0.2559  0.1743 -0.2697
 2000SOL    HW1 6899   3.502   0.776   6.004  0.0067  0.2530 -0.1905
 2000SOL    HW2 6900   3.407   0.694   6.108  0.7911  0.8073  0.9878
 2001SOL     OW 6901   2.211   5.062   0.217  0.2493  0.0136  0.3018
 2001SOL    HW1 6902   2.234   4.966   0.235  0.9304  0.2133  0.5535
 2001SOL    HW2 6903   2.112   5.074   0.219  0.2139 -0.2026  2.8028
 2002SOL     OW 6904   2.587   5.385   4.352  0.1097 -0.1444 -0.0521
 2002SOL    HW1 6905   2.660   5.320   4.331  1.1717  1.0518 -0.1850
 2002SOL    HW2 6906   2.523   5.342   4.416  1.2543 -1.0228  0.5607
 2003SOL     OW 6907   5.895   3.515   1.960  0.3840 -0.1260  0.0225
 2003SOL    HW1 6908   5.879   3.492   2.056 -0.5789 -1.1634 -0.3659
 2003SOL    HW2 6909   5.823   3.576   1.928 -0.4461 -1.3543 -0.5499
 2004SOL     OW 6910   1.675   5.090   4.862 -0.4740  0.6140  0.3009
 2004SOL    HW1 6911   1.685   5.010   4.921  1.0823  1.4902  1.3055
 2004SOL    HW2 6912   1.593   5.080   4.806 -0.5420 -1.4691  0.6963
 2005SOL     OW 6913   3.953   6.838   5.967  0.4084 -0.4482  0.2082
 2005SOL    HW1 6914   3.978   6.932   5.993 -0.8817  0.0876 -0.3504
 2005SOL    HW2 6915   3.865   6.815   6.010  0.0897 -0.9195 -0.6749
 2006SOL     OW 6916   4.517   6.731   1.004 -0.6752 -0.4927  0.1154
 2006SOL    HW1 6917   4.560   6.755   0.917  1.1761  0.1561  1.1633
 2006SOL    HW2 6918   4.439   6.791   1.021  0.4272  1.0000  0.0215
 2007SOL     OW 6919   6.474   5.752   0.711  0.3707 -0.1728  0.1065
 2007SOL    HW1 6920   6.402   5.805   0.755  0.2531 -0.2207 -0.0285
 2007SOL    HW2 6921   6.462   5.655   0.731 -0.4122 -0.3286 -1.0557
 2008SOL     OW 6922   0.349   4.058   5.886  0.0880  0.2102  0.6701
 2008SOL    HW1 6923   0.447   4.054   5.906 -0.3331 -0.0121  2.9573
 2008SOL    HW2 6924   0.317   3.967   5.858  0.5350  0.3095 -0.1950
 2009SOL     OW 6925   0.696   0.004   0.097 -0.2332 -0.0174  0.1205
 2009SOL    HW1 6926   0.728  -0.040   0.013 -1.7404  1.3392 -1.2123
 2009SOL    HW2 6927   0.667  -0.067   0.162 -0.9204 -1.0607 -1.2724
 2010SOL     OW 6928   3.933   1.146   1.119  0.0948  0.2075 -0.4068
 2010SOL    HW1 6929   3.891   1.210   1.054 -0.6617 -0.9237 -1.0689
 2010SOL    HW2 6930   3.948   1.192   1.206  1.2992  1.8275 -1.4067
 2011SOL     OW 6931   5.462   0.973   5.734 -0.3863  0.1099 -0.4165
 2011SOL    HW1 6932   5.401   0.926   5.670 -2.2168 -1.4920  2.3108
 2011SOL    HW2 6933   5.411   1.045   5.782  0.0104 -0.7378  1.3631
 2012SOL     OW 6934   0.945   3.781   2.940 -0.3416  0.1867  0.1565
 2012SOL    HW1 6935   0.998   3.819   3.016  0.8153  0.9259 -0.9801
 2012SOL    HW2 6936   0.963   3.682   2.934  1.4331  0.5068 -0.5531
 2013SOL     OW 6937   4.110   3.422   2.750 -0.1247  0.0437  0.5872
 2013SOL    HW1 6938   4.131   3.350   2.817  0.9174 -0.2108 -0.0057
 2013SOL    HW2 6939   4.122   3.387   2.658  4.1977  1.9344  0.1929
 2014SOL     OW 6940   2.321   5.113   1.045 -0.4679 -0.0435 -0.1235
 2014SOL    HW1 6941   2.256   5.074   0.979 -1.8904 -1.1461  1.8364
 2014SOL    HW2 6942   2.351   5.042   1.109 -0.7324  1.3900  1.6790
 2015SOL     OW 6943   2.975   1.157   5.078  0.2084 -0.0787  0.3458
 2015SOL    HW1 6944   3.048   1.149   5.010 -0.2068  1.3041 -0.3240
 2015SOL    HW2 6945   2.886   1.155   5.031 -0.0852  0.9503  0.8242
 2016SOL     OW 6946   1.445   3.821   4.569  0.0151  0.5895 -0.3389
 2016SOL    HW1 6947   1.496   3.790   4.649  0.0563  0.6361 -0.3469
 2016SOL    HW2 6948   1.364   3.764   4.557  0.2843  0.2548 -0.5677
 2017SOL     OW 6949   1.377   4.458   2.592 -0.0152 -0.3354 -0.3432
 2017SOL    HW1 6950   1.390   4.557   2.588 -1.5999 -0.1104 -0.7235
 2017SOL    HW2 6951   1.449   4.413   2.539  2.1070  0.4299  1.7313
 2018SOL     OW 6952   6.141   3.766   4.415  0.1014 -0.5293  1.0392
 2018SOL    HW1 6953   6.061   3.718   4.451 -0.4997 -0.4376 -0.1232
 2018SOL    HW2 6954   6.223   3.731   4.460 -0.2647 -2.9123  0.0076
 2019SOL     OW 6955   6.362   1.357   3.600  0.5092  0.1913  0.0354
 2019SOL    HW1 6956   6.269   1.380   3.572 -0.5737 -3.3179  0.3540
 2019SOL    HW2 6957   6.406   1.438   3.639 -0.9603  3.0154 -3.5737
 2020SOL     OW 6958   1.966   4.397   3.176 -0.1129  0.2151  0.3760
 2020SOL    HW1 6959   1.909   4.452   3.237  1.5565  2.4055  0.0978
 2020SOL    HW2 6960   1.993   4.452   3.097  2.1678 -0.7753  0.3851
 2021SOL     OW 6961   0.926   0.716   1.379  0.1776 -0.6169  0.2226
 2021SOL    HW1 6962   0.972   0.787   1.326  0.4729 -2.6051 -2.3795
 2021SOL    HW2 6963   0.991   0.674   1.442  0.5204  0.0701  0.3396
 2022SOL     OW 6964   6.873   5.981   6.594 -0.1120 -0.0593 -0.0837
 2022SOL    HW1 6965   6.836   6.071   6.572  0.7148  0.7449  1.6423
 2022SOL    HW2 6966   6.807   5.929   6.647  1.2198  1.5559  3.4163
 2023SOL     OW 6967   1.162   2.569   6.153  0.0171 -0.0843 -0.2853
 2023SOL    HW1 6968   1.149   2.477   6.117 -2.0778  0.3178 -0.6397
 2023SOL    HW2 6969   1.101   2.584   6.231  1.1931  0.6344  0.5438
 2024SOL     OW 6970   4.823   4.840   5.532  0.0680 -0.2030 -0.3770
 2024SOL    HW1 6971   4.752   4.788   5.483 -0.1222 -0.4274  0.1309
 2024SOL    HW2 6972   4.878   4.777   5.587 -0.1359  0.1288  0.2124
 2025SOL     OW 6973   5.395   1.555   1.219 -0.1257 -0.9662  0.0926
 2025SOL    HW1 6974   5.441   1.533   1.306 -0.2627 -0.0017  0.4165
 2025SOL    HW2 6975   5.462   1.594   1.156 -0.0044 -1.7617 -0.2829
 2026SOL     OW 6976   1.389   2.671   6.279  0.0798  0.7688  0.1664
 2026SOL    HW1 6977   1.317   2.611   6.248  0.2594  0.6315  0.0138
 2026SOL    HW2 6978   1.369   2.765   6.251 -0.4238  0.8536  0.7903
 2027SOL     OW 6979   6.566   6.854   3.490  0.0705  0.4448 -0.1137
 2027SOL    HW1 6980   6.565   6.936   3.546  0.0654 -0.2916  1.0065
 2027SOL    HW2 6981   6.472   6.822   3.475  0.0542 -2.0167  3.6301
 2028SOL     OW 6982   4.939   2.907   0.746  0.1113  0.3369  0.0188
 2028SOL    HW1 6983   4.839   2.900   0.748  0.1056  0.4674  0.8402
 2028SOL    HW2 6984   4.966   3.003   0.757  0.3320  0.0542  2.7412
 2029SOL     OW 6985   3.522   2.917   6.855 -0.1238  0.7971 -0.1351
 2029SOL    HW1 6986   3.424   2.899   6.863  0.1074  0.1261  1.4792
 2029SOL    HW2 6987   3.548   2.990   6.918  0.5913  0.2621  0.1966
 2030SOL     OW 6988   3.470   1.817   2.492 -0.3815 -0.2018 -0.1036
 2030SOL    HW1 6989   3.485   1.795   2.396  1.8556  1.5288 -0.2185
 2030SOL    HW2 6990   3.373   1.808   2.513 -0.9881 -0.2523 -2.6064
 2031SOL     OW 6991   5.573   6.597   1.748  0.3543 -0.2367 -0.0822
 2031SOL    HW1 6992   5.667   6.565   1.741  0.7743  0.5291  1.5584
 2031SOL    HW2 6993   5.538   6.578   1.840 -0.0883  2.0415  0.2836
 2032SOL     OW 6994   5.481   5.760   0.601  0.3757 -0.1548 -0.2945
 2032SOL    HW1 6995   5.429   5.813   0.668  1.4200 -1.0873  1.3342
 2032SOL    HW2 6996   5.542   5.697   0.649  1.0834 -0.9573 -2.1548
 2033SOL     OW 6997   0.267   5.129   0.772  0.5798 -0.0414  0.2942
 2033SOL    HW1 6998   0.220   5.048   0.736 -0.4514 -0.2088  1.8974
 2033SOL    HW2 6999   0.310   5.106   0.860 -1.6066  1.6106  1.9160
 2034SOL     OW 7000   0.988   0.313   4.178  0.3202  0.4485 -0.3127
 2034SOL    HW1 7001   1.006   0.406   4.208 -0.6196  0.6437 -0.3238
 2034SOL    HW2 7002   0.890   0.298   4.171  0.4702 -0.2881 -1.1191
 2035SOL     OW 7003   2.246   0.182   0.149  0.1772 -0.4120  1.1549
 2035SOL    HW1 7004   2.199   0.221   0.070 -2.2090  1.4026  3.3087
 2035SOL    HW2 7005   2.296   0.254   0.196  0.9374 -1.3144  1.7666
 2036SOL     OW 7006   6.741   3.051   1.939 -0.3403  0.0139 -0.0482
 2036SOL    HW1 7007   6.745   3.100   2.026 -1.6714  0.5666 -0.2715
 2036SOL    HW2 7008   6.833   3.025   1.911 -0.0167 -2.0620  2.5542
 2037SOL     OW 7009   6.839   3.582   6.867 -0.2163 -0.3117 -0.0687
 2037SOL    HW1 7010   6.871   3.634   6.946  0.6386  2.2723 -1.9510
 2037SOL    HW2 7011   6.891   3.611   6.786 -2.4591 -1.2865 -1.9489
 2038SOL     OW 7012   2.963   4.842   4.379  0.0037  0.0171  0.5965
 2038SOL    HW1 7013   2.911   4.823   4.462  1.0121  0.1299  1.2712
 2038SOL    HW2 7014   2.928   4.787   4.304 -1.3138  0.3521  0.9384
 2039SOL     OW 7015   1.517   2.555   2.594  0.5326  0.1098  0.0366
 2039SOL    HW1 7016   1.472   2.634   2.553 -0.0222 -0.2019  0.0415
 2039SOL    HW2 7017   1.460   2.518   2.667  0.6674 -0.4546 -0.1382
 2040SOL     OW 7018   3.974   3.570   4.501  0.2596 -0.5143  0.1810
 2040SOL    HW1 7019   3.987   3.643   4.433  1.8214  0.3526  1.3464
 2040SOL    HW2 7020   3.968   3.482   4.454 -0.9201  0.2447 -1.2145
 2041SOL     OW 7021   3.955   3.152   5.943  0.6788 -0.1031 -0.0604
 2041SOL    HW1 7022   4.019   3.194   5.878 -0.0859 -0.4912 -1.0911
 2041SOL    HW2 7023   3.953   3.053   5.929 -0.6717 -0.0290 -0.5580
 2042SOL     OW 7024   4.297   6.964   1.533  0.4980  0.0146  0.3054
 2042SOL    HW1 7025   4.283   7.035   1.602  1.6271  0.9094 -0.3334
 2042SOL    HW2 7026   4.347   7.003   1.455  0.5345 -1.3230 -0.3728
 2043SOL     OW 7027   5.413   4.955   4.917  0.9675 -0.2907 -0.1050
 2043SOL    HW1 7028   5.332   5.000   4.954  2.1506  0.3472  1.8141
 2043SOL    HW2 7029   5.477   5.024   4.885  1.6788 -0.7002  0.4203
 2044SOL     OW 7030   5.547   6.602   0.909  0.1909  0.0207 -0.0342
 2044SOL    HW1 7031   5.567   6.545   0.988 -0.2010  1.0650  0.8342
 2044SOL    HW2 7032   5.616   6.673   0.900  0.1169  0.0361 -0.5127
 2045SOL     OW 7033   3.489   5.922   5.400  0.3188 -0.5878 -0.5629
 2045SOL    HW1 7034   3.577   5.927   5.353 -0.1684 -0.7829 -1.5261
 2045SOL    HW2 7035   3.442   6.010   5.393  0.1036 -0.7146 -0.7330
 2046SOL     OW 7036   5.573   0.934   3.428 -0.5367 -0.4531 -0.2593
 2046SOL    HW1 7037   5.563   0.934   3.528 -0.6305  1.1384 -0.2524
 2046SOL    HW2 7038   5.522   0.857   3.390  1.0713 -2.2481  1.0445
 2047SOL     OW 7039   4.993   4.876   0.904  0.0327 -0.0795 -0.4147
 2047SOL    HW1 7040   5.089   4.846   0.902  0.0173 -0.1490 -2.6977
 2047SOL    HW2 7041   4.933   4.796   0.901 -0.0178 -0.0378 -2.8663
 2048SOL     OW 7042   5.302   0.743   4.834 -0.0392  0.1981  0.3390
 2048SOL    HW1 7043   5.375   0.782   4.890  0.5846  1.5831 -1.3607
 2048SOL    HW2 7044   5.235   0.813   4.813  0.1297 -0.0733 -1.2308
 2049SOL     OW 7045   3.630   4.646   6.270 -0.0859 -0.3527  0.4329
 2049SOL    HW1 7046   3.644   4.653   6.172 -1.7859  0.7902  0.2241
 2049SOL    HW2 7047   3.700   4.699   6.318 -0.0554  0.2374 -0.2466
 2050SOL     OW 7048   3.138   0.529   3.642  0.0956 -0.5259 -0.3690
 2050SOL    HW1 7049   3.166   0.522   3.737 -0.8994 -1.8744 -0.1336
 2050SOL    HW2 7050   3.147   0.624   3.611  1.2923 -0.2380  0.7690
 2051SOL     OW 7051   1.107   2.217   1.190  0.2933 -0.0512 -0.0805
 2051SOL    HW1 7052   1.176   2.288   1.174 -0.8115  1.0337 -0.1991
 2051SOL    HW2 7053   1.093   2.207   1.289 -2.8072  3.3122  0.0495
 2052SOL     OW 7054   1.037   3.135   6.889 -0.2992  0.5868 -0.4258
 2052SOL    HW1 7055   1.025   3.106   6.984 -0.4028  0.3345 -0.5131
 2052SOL    HW2 7056   1.029   3.055   6.829 -3.1618  1.1033 -0.8934
 2053SOL     OW 7057   6.023   6.293   6.958  0.6268 -0.1791 -0.8711
 2053SOL    HW1 7058   6.080   6.211   6.971  0.2313 -0.5660 -1.5067
 2053SOL    HW2 7059   6.045   6.334   6.869 -0.7713 -0.9156 -1.5955
 2054SOL     OW 7060   1.677   4.039   0.580  0.2512 -0.0330 -0.4448
 2054SOL    HW1 7061   1.616   3.992   0.517 -0.2786 -0.0459  0.0740
 2054SOL    HW2 7062   1.642   4.130   0.600  0.4433 -0.0092 -0.2045
 2055SOL     OW 7063   4.169   6.397   5.255  0.1856  0.2875  0.0046
 2055SOL    HW1 7064   4.180   6.490   5.289 -0.2753  0.5101 -0.4400
 2055SOL    HW2 7065   4.230   6.382   5.177 -1.9773  1.2968 -2.0155
 2056SOL     OW 7066   6.215   0.255   2.069 -0.3851  0.1424 -0.2699
 2056SOL    HW1 7067   6.302   0.257   2.020 -1.2663  0.8470 -1.8850
 2056SOL    HW2 7068   6.211   0.333   2.132 -0.0994  0.5053 -0.6852
 2057SOL     OW 7069   5.552   1.569   4.555  0.0818 -0.0051  0.2417
 2057SOL    HW1 7070   5.598   1.656   4.571  0.5594 -0.4133  1.1306
 2057SOL    HW2 7071   5.592   1.498   4.612 -1.4455 -0.4372  0.8389
 2058SOL     OW 7072   3.510   1.155   1.809 -0.9368 -0.1297 -0.1121
 2058SOL    HW1 7073   3.602   1.194   1.812 -1.1865  0.6937 -2.0223
 2058SOL    HW2 7074   3.515   1.057   1.826  0.2922 -0.1061 -0.2308
 2059SOL     OW 7075   1.264   2.051   6.293 -0.7833  0.5958  0.0009
 2059SOL    HW1 7076   1.346   2.028   6.239 -0.4111  0.1732  0.7255
 2059SOL    HW2 7077   1.263   2.149   6.311  0.9510  0.3209  2.1077
 2060SOL     OW 7078   0.126   4.235   1.598  0.3121 -0.3520  0.0896
 2060SOL    HW1 7079   0.196   4.196   1.658  0.3997 -0.5300 -0.1288
 2060SOL    HW2 7080   0.154   4.226   1.503  0.5547  0.6794  0.0547
 2061SOL     OW 7081   1.740   1.727   0.055  0.3448 -0.5326  0.0663
 2061SOL    HW1 7082   1.678   1.653   0.030  0.3053  0.2744 -2.4149
 2061SOL    HW2 7083   1.830   1.709   0.016  0.6920  0.1291  0.5396
 2062SOL     OW 7084   2.547   6.562   2.554  0.1536  0.1276  0.1115
 2062SOL    HW1 7085   2.512   6.524   2.468 -2.0283 -0.4422  1.1712
 2062SOL    HW2 7086   2.567   6.659   2.542 -1.8366  0.4866 -0.6050
 2063SOL     OW 7087   0.927   2.726   1.443  0.5729  0.0645  0.2516
 2063SOL    HW1 7088   0.931   2.628   1.422  1.2501  0.2388 -0.5271
 2063SOL    HW2 7089   1.010   2.770   1.409 -0.2727  1.1135 -0.5181
 2064SOL     OW 7090   0.013   1.775   2.747 -0.0083 -0.3450  0.2256
 2064SOL    HW1 7091  -0.039   1.777   2.662 -0.1615  0.2183  0.3247
 2064SOL    HW2 7092  -0.043   1.738   2.821 -0.5181  0.8965  0.4836
 2065SOL     OW 7093   0.213   0.841   3.602  0.2649  0.0543  0.7633
 2065SOL    HW1 7094   0.225   0.924   3.547 -1.2092 -0.6217 -0.6755
 2065SOL    HW2 7095   0.248   0.762   3.551  0.4033 -0.3776  1.5209
 2066SOL     OW 7096   1.318   6.156   3.079  0.3728  0.0892 -0.1765
 2066SOL    HW1 7097   1.268   6.140   2.994 -0.1559  4.1225 -0.8174
 2066SOL    HW2 7098   1.415   6.170   3.059  0.2979  0.7483 -0.0896
 2067SOL     OW 7099   0.335   5.509   2.718 -0.1288  0.4290 -0.4460
 2067SOL    HW1 7100   0.401   5.556   2.659  0.2061 -0.3439 -0.6916
 2067SOL    HW2 7101   0.358   5.526   2.814  0.8726 -0.4399 -0.5217
 2068SOL     OW 7102   2.379   2.519   5.129 -1.0250  0.0368  0.0921
 2068SOL    HW1 7103   2.462   2.475   5.094 -0.7594 -0.0318  0.7910
 2068SOL    HW2 7104   2.305   2.451   5.133 -0.3333 -0.6559  2.1597
 2069SOL     OW 7105   1.320   1.679   1.858  0.1877 -0.3503  0.0410
 2069SOL    HW1 7106   1.373   1.610   1.906  2.7842 -0.0759 -2.1541
 2069SOL    HW2 7107   1.361   1.769   1.873  1.0810 -0.2462 -2.4322
 2070SOL     OW 7108   6.592   1.892   0.926 -0.6715 -0.7525  0.3112
 2070SOL    HW1 7109   6.499   1.856   0.915 -1.3021  1.1720 -1.0924
 2070SOL    HW2 7110   6.626   1.924   0.838  0.7234  0.0158  1.1042
 2071SOL     OW 7111   2.515   5.207   6.106  0.1188  0.1521  0.3983
 2071SOL    HW1 7112   2.559   5.117   6.100  0.6005  0.2976  1.3984
 2071SOL    HW2 7113   2.553   5.257   6.184  1.4092  2.0709 -1.3431
 2072SOL     OW 7114   5.305   3.272   2.839  0.5565 -0.3144 -0.2870
 2072SOL    HW1 7115   5.332   3.258   2.934 -1.3919  0.4116  0.4223
 2072SOL    HW2 7116   5.214   3.235   2.825  0.4052  0.5030 -1.6098
 2073SOL     OW 7117   4.269   6.026   5.153 -0.1805 -0.0609 -0.0414
 2073SOL    HW1 7118   4.204   6.101   5.139  0.0766  0.2210  0.2608
 2073SOL    HW2 7119   4.301   5.993   5.064  1.0361  1.3716 -0.1678
 2074SOL     OW 7120   4.507   0.874   3.241  0.1630  0.3799 -1.0353
 2074SOL    HW1 7121   4.508   0.774   3.232 -1.0826  0.3096 -0.6280
 2074SOL    HW2 7122   4.544   0.915   3.158  1.3127 -0.4255 -0.9379
 2075SOL     OW 7123   4.285   1.621   3.728 -0.0180 -0.3372 -0.3942
 2075SOL    HW1 7124   4.259   1.608   3.632  0.1008  0.3764 -0.5259
 2075SOL    HW2 7125   4.203   1.631   3.784 -0.0695  0.1335 -0.5524
 2076SOL     OW 7126   0.142   5.183   6.603  0.2921  0.3649 -0.2266
 2076SOL    HW1 7127   0.161   5.093   6.563  0.9820 -0.0937  1.0377
 2076SOL    HW2 7128   0.183   5.187   6.695 -1.1458  1.3762  0.4062
 2077SOL     OW 7129   3.325   1.405   5.173 -0.0422 -0.1567 -0.1531
 2077SOL    HW1 7130   3.272   1.403   5.089 -1.4335  0.0611  0.6801
 2077SOL    HW2 7131   3.412   1.358   5.159 -0.3096 -0.2428 -1.6569
 2078SOL     OW 7132   4.617   0.223   4.031  0.2838 -0.1022 -0.2851
 2078SOL    HW1 7133   4.612   0.315   3.993 -0.2919  0.1953  0.4785
 2078SOL    HW2 7134   4.712   0.190   4.028  0.6673  0.9073  0.3340
 2079SOL     OW 7135   5.038   7.009   4.169  0.0599 -0.4785  0.4945
 2079SOL    HW1 7136   5.024   6.957   4.085  0.6739 -1.3851  0.9368
 2079SOL    HW2 7137   4.991   6.963   4.245 -2.4659  1.5504  0.2876
 2080SOL     OW 7138   2.285   2.664   4.448  0.2144 -0.5496  0.1272
 2080SOL    HW1 7139   2.278   2.702   4.355 -2.5863 -1.8788 -0.2847
 2080SOL    HW2 7140   2.235   2.723   4.512  1.3748 -0.1286  0.6854
 2081SOL     OW 7141   1.823   0.666   3.415  0.1723  0.3964 -0.1261
 2081SOL    HW1 7142   1.799   0.570   3.401  0.1582 -0.1482  2.9450
 2081SOL    HW2 7143   1.753   0.710   3.471  0.9809  1.7759 -0.1628
 2082SOL     OW 7144   4.635   5.870   1.578 -0.6471  0.2630  0.6927
 2082SOL    HW1 7145   4.732   5.892   1.566  0.6203 -3.6165  2.1437
 2082SOL    HW2 7146   4.601   5.826   1.495  0.1468 -1.9323  1.4249
 2083SOL     OW 7147   4.005   4.238   5.238  0.4242  0.4132 -0.3381
 2083SOL    HW1 7148   4.016   4.155   5.294 -1.9047  1.6354  2.1230
 2083SOL    HW2 7149   4.096   4.272   5.213  1.5355 -1.2134  1.1488
 2084SOL     OW 7150   4.596   0.981   2.998  0.1795  0.3032 -0.1847
 2084SOL    HW1 7151   4.693   0.994   2.980  0.0573  0.4585 -0.7510
 2084SOL    HW2 7152   4.544   1.000   2.914 -0.2928 -0.3186 -0.0347
 2085SOL     OW 7153   6.540   5.808   1.935 -0.1016 -0.0420 -0.0013
 2085SOL    HW1 7154   6.528   5.732   1.998  1.0273 -0.6868 -0.5292
 2085SOL    HW2 7155   6.634   5.809   1.902 -0.6200  0.4114 -1.5257
 2086SOL     OW 7156   3.155   6.272   6.922 -0.3115 -0.2014  0.0404
 2086SOL    HW1 7157   3.159   6.173   6.938 -0.4631 -0.1568  0.3667
 2086SOL    HW2 7158   3.128   6.318   7.007  1.2240  0.2530  0.3207
 2087SOL     OW 7159   5.948   4.654   3.023 -0.2892  0.3832  0.0241
 2087SOL    HW1 7160   5.877   4.589   3.049  0.4134 -0.0383  0.9455
 2087SOL    HW2 7161   6.015   4.609   2.964 -0.2898  0.5290 -0.0906
 2088SOL     OW 7162   3.861   6.577   0.181 -0.1321 -0.2894  0.6035
 2088SOL    HW1 7163   3.801   6.562   0.260 -0.6217  0.9318  0.4810
 2088SOL    HW2 7164   3.807   6.579   0.097  0.3224 -1.0277  0.2821
 2089SOL     OW 7165   2.643   2.074   1.258 -0.2172  0.2396  0.3067
 2089SOL    HW1 7166   2.555   2.080   1.212  0.0119  2.0462  0.0381
 2089SOL    HW2 7167   2.708   2.024   1.200 -0.4743  0.7738 -0.4509
 2090SOL     OW 7168   3.440   2.989   4.226 -0.0886 -0.6356  0.2136
 2090SOL    HW1 7169   3.367   2.975   4.293 -0.1223 -0.5335  0.1985
 2090SOL    HW2 7170   3.528   2.974   4.269 -0.0571  0.3708  0.5350
 2091SOL     OW 7171   0.430   4.155   2.679 -0.0143 -0.3321 -0.3061
 2091SOL    HW1 7172   0.442   4.227   2.611 -0.4939 -1.2072 -1.3449
 2091SOL    HW2 7173   0.466   4.186   2.767 -2.0769  1.9869 -0.1610
 2092SOL     OW 7174   0.019   6.882   1.918  0.7799 -0.3789 -0.0434
 2092SOL    HW1 7175   0.118   6.869   1.932  0.3312 -1.6428  2.4052
 2092SOL    HW2 7176  -0.003   6.979   1.922  1.7083 -0.2011  1.1553
 2093SOL     OW 7177   1.199   1.887   1.547 -0.1671  0.1249  0.1084
 2093SOL    HW1 7178   1.136   1.913   1.620 -0.6828  0.2395 -0.3739
 2093SOL    HW2 7179   1.245   1.802   1.572 -2.5710 -1.5347 -0.7348
 2094SOL     OW 7180   1.109   0.553   2.799  0.3043  0.3522  0.2732
 2094SOL    HW1 7181   1.193   0.530   2.750  0.3822  1.5438 -0.1778
 2094SOL    HW2 7182   1.064   0.469   2.829  1.0183 -0.3427 -0.5536
 2095SOL     OW 7183   5.162   3.735   3.644 -0.1104  0.1042 -0.4857
 2095SOL    HW1 7184   5.064   3.729   3.664 -0.5360  1.9312 -1.7661
 2095SOL    HW2 7185   5.182   3.683   3.560 -0.1373  0.3720 -0.6594
 2096SOL     OW 7186   5.330   4.469   3.892 -0.6925  0.3877  0.5771
 2096SOL    HW1 7187   5.357   4.552   3.844 -0.1677 -0.0619  0.0799
 2096SOL    HW2 7188   5.240   4.440   3.859  0.5189 -1.0748 -1.7505
 2097SOL     OW 7189   6.168   2.963   5.822  0.3505 -0.0322 -0.4739
 2097SOL    HW1 7190   6.166   3.026   5.744 -0.3936 -1.1253 -1.3652
 2097SOL    HW2 7191   6.086   2.906   5.820 -0.2150  0.6042  1.7096
 2098SOL     OW 7192   2.538   1.627   3.680 -0.1103  0.7913 -0.6285
 2098SOL    HW1 7193   2.608   1.638   3.609 -1.1544  1.3467 -1.5899
 2098SOL    HW2 7194   2.581   1.635   3.770  0.9542  1.8909 -1.2022
 2099SOL     OW 7195   3.175   1.914   4.794  0.2282 -0.0258 -0.1347
 2099SOL    HW1 7196   3.216   2.005   4.793  1.2392 -0.4755 -0.9825
 2099SOL    HW2 7197   3.146   1.891   4.887  0.7643  0.8000  0.2438
 2100SOL     OW 7198   3.461   4.317   6.283 -0.1530 -0.0452  0.3115
 2100SOL    HW1 7199   3.425   4.337   6.374 -0.6696  0.5445 -0.0161
 2100SOL    HW2 7200   3.560   4.302   6.288 -0.0858  0.5641  0.8860
 2101SOL     OW 7201   4.827   0.873   2.531  0.2607  0.3142  0.6870
 2101SOL    HW1 7202   4.858   0.777   2.535  0.0552  0.1486 -1.1659
 2101SOL    HW2 7203   4.797   0.895   2.439  0.1424  2.1442  1.1259
 2102SOL     OW 7204   6.406   6.416   0.190 -0.1565 -0.7063 -0.1546
 2102SOL    HW1 7205   6.308   6.412   0.170 -0.7682 -0.6412  2.5437
 2102SOL    HW2 7206   6.439   6.326   0.218  0.5921 -0.7311 -1.0429
 2103SOL     OW 7207   3.250   3.496   6.281  0.2034  0.4103 -0.0412
 2103SOL    HW1 7208   3.253   3.557   6.360  1.9173  1.2723 -0.7109
 2103SOL    HW2 7209   3.269   3.548   6.198 -1.1496 -0.5558 -1.0051
 2104SOL     OW 7210   0.300   5.063   5.954  0.0355 -0.3731  0.0429
 2104SOL    HW1 7211   0.354   5.026   6.029 -0.2324  1.0006  0.9583
 2104SOL    HW2 7212   0.264   4.989   5.898  1.0162 -1.3837  0.7305
 2105SOL     OW 7213   4.713   4.278   2.297  0.0223  0.4527  0.0283
 2105SOL    HW1 7214   4.613   4.285   2.285  0.1128  0.3691 -0.8206
 2105SOL    HW2 7215   4.758   4.315   2.216  0.7489  3.2039  1.5753
 2106SOL     OW 7216   5.748   6.587   6.303 -0.0938 -0.0866  0.0466
 2106SOL    HW1 7217   5.736   6.615   6.207 -0.7438  0.2307  0.2159
 2106SOL    HW2 7218   5.675   6.523   6.328  1.1661 -1.7099 -0.2297
 2107SOL     OW 7219   1.821   5.939   0.278  0.0641  0.2490  0.0763
 2107SOL    HW1 7220   1.832   5.913   0.182 -1.1154 -0.8725  0.2140
 2107SOL    HW2 7221   1.877   6.019   0.297 -0.0399  0.7866 -1.6693
 2108SOL     OW 7222   4.654   4.018   6.774  0.2707  0.1708 -0.0804
 2108SOL    HW1 7223   4.719   4.082   6.733 -0.0365  0.1667 -0.5773
 2108SOL    HW2 7224   4.624   3.952   6.705 -1.6468  1.2743 -0.3728
 2109SOL     OW 7225   4.830   6.700   3.326 -0.2990 -0.2773  1.1029
 2109SOL    HW1 7226   4.923   6.737   3.335 -0.6907  0.9736  0.3033
 2109SOL    HW2 7227   4.834   6.614   3.276  0.2678  0.8953 -1.0092
 2110SOL     OW 7228   0.408   4.998   5.175 -1.0065  0.2469 -0.3150
 2110SOL    HW1 7229   0.414   4.899   5.177  1.5429  0.3214 -0.9679
 2110SOL    HW2 7230   0.375   5.029   5.086  0.8485  0.0078 -1.1255
 2111SOL     OW 7231   3.580   2.340   6.288  0.3534 -0.5107 -0.8785
 2111SOL    HW1 7232   3.561   2.354   6.190 -0.7133 -0.1854 -0.6426
 2111SOL    HW2 7233   3.677   2.318   6.300  0.5720 -0.2454 -1.9766
 2112SOL     OW 7234   5.518   2.335   0.253  0.5695 -0.3322 -0.3844
 2112SOL    HW1 7235   5.453   2.393   0.204 -0.3913 -0.4025  0.7533
 2112SOL    HW2 7236   5.471   2.255   0.289  1.0160  0.1679  1.4280
 2113SOL     OW 7237   5.643   0.154   5.158  0.4041 -0.0526  0.1580
 2113SOL    HW1 7238   5.640   0.125   5.062  1.0833  1.2086 -0.2658
 2113SOL    HW2 7239   5.552   0.144   5.198 -0.2341  0.7203 -1.0287
 2114SOL     OW 7240   0.303   3.090   5.617  0.3305  0.3373 -0.2066
 2114SOL    HW1 7241   0.365   3.169   5.617 -0.1976  0.7654  0.8173
 2114SOL    HW2 7242   0.330   3.027   5.689 -0.1591  0.3160 -0.0386
 2115SOL     OW 7243   4.614   5.230   1.103  0.4715  0.0107 -0.0177
 2115SOL    HW1 7244   4.689   5.167   1.081  0.9739  0.3211  0.7510
 2115SOL    HW2 7245   4.542   5.222   1.034  2.2583  1.4468 -2.2178
 2116SOL     OW 7246   0.183   2.772   4.357 -0.5399  0.2575  0.1124
 2116SOL    HW1 7247   0.139   2.763   4.446 -0.7871  0.8353  0.0511
 2116SOL    HW2 7248   0.163   2.691   4.301  2.2255 -1.7007  1.6772
 2117SOL     OW 7249   6.318   5.065   6.020 -0.0304 -0.2383  0.2513
 2117SOL    HW1 7250   6.325   4.965   6.026 -0.0822 -0.2120  0.7580
 2117SOL    HW2 7251   6.341   5.106   6.108  1.3824  0.2837 -0.3416
 2118SOL     OW 7252   1.083   1.511   2.832 -0.1617  0.3657  0.6331
 2118SOL    HW1 7253   1.020   1.588   2.833  0.4613  0.9844 -1.6456
 2118SOL    HW2 7254   1.138   1.514   2.749  0.0938 -2.3894  0.6029
 2119SOL     OW 7255   2.961   0.477   5.943  0.0955 -0.0856  0.0280
 2119SOL    HW1 7256   3.034   0.483   6.010  2.2200 -1.5014 -2.0068
 2119SOL    HW2 7257   2.980   0.538   5.867 -0.9657 -0.3283 -0.4552
 2120SOL     OW 7258   0.207   2.675   1.385  0.5557 -0.8670 -0.0024
 2120SOL    HW1 7259   0.262   2.603   1.344  1.7875 -0.4689  0.9040
 2120SOL    HW2 7260   0.224   2.761   1.338  1.0285 -0.6610  0.5386
 2121SOL     OW 7261   0.888   3.650   4.673 -0.2498  0.2186 -0.3873
 2121SOL    HW1 7262   0.948   3.640   4.594  1.1407  2.1523  0.3404
 2121SOL    HW2 7263   0.800   3.687   4.644  1.0474  3.1650 -0.8443
 2122SOL     OW 7264   3.032   5.616   6.030  0.8228 -0.2420 -0.2223
 2122SOL    HW1 7265   3.043   5.658   6.120 -0.3861  1.1070 -0.6540
 2122SOL    HW2 7266   2.981   5.531   6.038 -0.1080  0.3473  0.2926
 2123SOL     OW 7267   5.566   6.078   2.936 -0.5776 -0.0995 -0.3409
 2123SOL    HW1 7268   5.472   6.046   2.940 -0.2467 -1.1038 -0.2958
 2123SOL    HW2 7269   5.617   6.043   3.015 -0.2888  0.8678 -0.0788
 2124SOL     OW 7270   0.941   6.586   1.638  0.6121 -0.1841 -0.0482
 2124SOL    HW1 7271   0.847   6.621   1.645  1.5051  2.8664 -1.6801
 2124SOL    HW2 7272   0.996   6.622   1.713  1.3761  1.4201 -1.3313
 2125SOL     OW 7273   5.295   5.500   0.967  0.2095 -0.6762 -0.0149
 2125SOL    HW1 7274   5.251   5.557   0.897  1.7632 -0.4615 -0.8623
 2125SOL    HW2 7275   5.252   5.410   0.967 -0.3078 -0.4462 -0.7372
 2126SOL     OW 7276   2.225   2.997   0.967  0.5305  0.0710  0.1799
 2126SOL    HW1 7277   2.252   3.081   1.015  0.1479  0.3952 -0.1699
 2126SOL    HW2 7278   2.295   2.927   0.981  0.8753  0.4631  0.4359
 2127SOL     OW 7279   0.420   0.891   3.218 -0.2899  0.6075 -0.6364
 2127SOL    HW1 7280   0.429   0.798   3.181 -0.8764 -0.0040  0.6824
 2127SOL    HW2 7281   0.391   0.886   3.313  0.3310  2.1460 -0.3309
 2128SOL     OW 7282   1.701   2.382   6.559 -0.6514 -0.4389  0.1875
 2128SOL    HW1 7283   1.782   2.332   6.527 -1.6595 -0.8267 -1.9635
 2128SOL    HW2 7284   1.721   2.481   6.558 -0.3657 -0.4935 -0.9064
 2129SOL     OW 7285   4.869   1.606   3.724  0.5389  0.4457 -0.1612
 2129SOL    HW1 7286   4.806   1.616   3.801  1.7288 -0.0944  0.9292
 2129SOL    HW2 7287   4.817   1.582   3.642 -0.8611  1.9764  0.2159
 2130SOL     OW 7288   5.992   5.922   2.786  0.3139 -0.1264  0.3805
 2130SOL    HW1 7289   5.892   5.920   2.781  0.0464  2.6476  2.4734
 2130SOL    HW2 7290   6.023   5.862   2.859  0.2865 -1.4102 -0.6194
 2131SOL     OW 7291   5.741   2.488   5.995  0.9139  0.2875 -0.3369
 2131SOL    HW1 7292   5.719   2.582   5.971  2.3371  0.0285 -2.8961
 2131SOL    HW2 7293   5.834   2.466   5.968  0.9253 -1.6325  1.0021
 2132SOL     OW 7294   2.510   4.068   1.309  0.1485  0.2478  0.6178
 2132SOL    HW1 7295   2.592   4.089   1.363 -0.2866  1.1041  0.9519
 2132SOL    HW2 7296   2.456   4.151   1.296 -0.3383 -0.1813 -0.1674
 2133SOL     OW 7297   2.946   4.640   6.659 -0.0772 -0.7556  0.1665
 2133SOL    HW1 7298   2.928   4.688   6.745  0.1415  1.1422 -0.7780
 2133SOL    HW2 7299   2.866   4.649   6.599  0.1071 -1.2796 -0.1617
 2134SOL     OW 7300   5.564   0.407   6.427 -0.1305 -0.5050  0.1110
 2134SOL    HW1 7301   5.467   0.385   6.442 -0.7807  0.2273 -2.5045
 2134SOL    HW2 7302   5.600   0.353   6.351  1.0561  0.3698  0.0163
 2135SOL     OW 7303   4.944   3.167   5.553 -0.0932  0.0582  0.7665
 2135SOL    HW1 7304   5.020   3.185   5.615  0.8371 -0.0945 -0.3044
 2135SOL    HW2 7305   4.865   3.135   5.606  0.8405 -0.5871  1.8109
 2136SOL     OW 7306   3.043   5.696   5.573 -0.1158 -0.0122 -0.0793
 2136SOL    HW1 7307   3.011   5.650   5.490  1.4348  0.2421 -0.8479
 2136SOL    HW2 7308   3.141   5.680   5.586  0.2405  2.0490  0.2763
 2137SOL     OW 7309   1.795   6.437   2.079 -0.1105 -0.1933  0.3284
 2137SOL    HW1 7310   1.816   6.530   2.048  0.9845 -0.4989  0.0863
 2137SOL    HW2 7311   1.872   6.377   2.056 -0.3972 -0.9643  1.3295
 2138SOL     OW 7312   5.757   3.021   3.981  0.1459  0.0435  0.4723
 2138SOL    HW1 7313   5.750   3.114   4.014  0.4211  0.4006 -0.4414
 2138SOL    HW2 7314   5.853   2.998   3.965  0.0207 -0.0800 -0.1522
 2139SOL     OW 7315   3.109   0.741   4.102 -0.5944  0.6481  0.0422
 2139SOL    HW1 7316   3.110   0.767   4.199 -0.1750  0.9919 -0.0530
 2139SOL    HW2 7317   3.125   0.821   4.045 -1.6056  0.5793 -0.3518
 2140SOL     OW 7318   2.015   2.344   4.595 -0.8160  0.6014 -0.3473
 2140SOL    HW1 7319   1.976   2.265   4.549 -0.4551  0.1984  0.0250
 2140SOL    HW2 7320   2.105   2.365   4.556 -0.3289  0.0120  0.4094
 2141SOL     OW 7321   6.396   5.004   2.667 -0.4772  0.0104 -0.3601
 2141SOL    HW1 7322   6.437   5.021   2.757  0.1691  0.1336 -0.6767
 2141SOL    HW2 7323   6.321   5.068   2.653 -1.4642 -0.8812  0.6475
 2142SOL     OW 7324   1.717   0.878   1.867  0.3659  0.2105 -0.6111
 2142SOL    HW1 7325   1.753   0.889   1.774  1.8382  0.4348 -0.0320
 2142SOL    HW2 7326   1.792   0.881   1.933 -0.3532 -2.1877  0.4436
 2143SOL     OW 7327   0.647   4.467   4.030  0.3421  0.2079 -0.1152
 2143SOL    HW1 7328   0.570   4.439   4.088  0.3084  1.7120  0.6287
 2143SOL    HW2 7329   0.710   4.391   4.018  0.0013 -0.3418  1.3655
 2144SOL     OW 7330   6.961   4.903   3.979  0.5517 -0.3263  1.0938
 2144SOL    HW1 7331   6.898   4.854   4.040  1.5257 -0.7507  1.7775
 2144SOL    HW2 7332   6.929   4.893   3.884 -0.8301  0.1194  1.4788
 2145SOL     OW 7333   3.642   0.744   1.141 -0.0100 -0.3617  0.6664
 2145SOL    HW1 7334   3.572   0.736   1.069 -1.1712 -0.6544  1.7787
 2145SOL    HW2 7335   3.609   0.807   1.212  1.7925  1.1841  0.2183
 2146SOL     OW 7336   1.148   3.489   6.301  0.4981 -1.0539  0.2611
 2146SOL    HW1 7337   1.116   3.555   6.233  0.8235 -0.6455  0.4952
 2146SOL    HW2 7338   1.208   3.422   6.257  0.5762 -0.8880  0.1120
 2147SOL     OW 7339   5.001   6.478   5.563  0.1660  0.4836  0.6534
 2147SOL    HW1 7340   5.041   6.441   5.647  2.9568 -0.2996 -0.8677
 2147SOL    HW2 7341   5.074   6.513   5.504 -1.4278 -0.5330 -2.1730
 2148SOL     OW 7342   2.923   2.239   6.516  0.2064  0.2918 -0.0385
 2148SOL    HW1 7343   2.837   2.199   6.548  1.0967  0.3337  2.6471
 2148SOL    HW2 7344   2.903   2.320   6.461 -1.4500  0.3788  0.6221
 2149SOL     OW 7345   5.828   5.240   6.436 -0.6862  0.3345 -0.1848
 2149SOL    HW1 7346   5.743   5.190   6.455 -0.8079  0.5618 -0.1253
 2149SOL    HW2 7347   5.810   5.311   6.368  0.0115 -1.2863 -2.1416
 2150SOL     OW 7348   2.130   2.975   6.402  0.4111  0.3480 -0.5519
 2150SOL    HW1 7349   2.120   3.001   6.306  0.2746  1.7616 -0.1758
 2150SOL    HW2 7350   2.063   2.905   6.425  1.8106 -1.5887 -2.0025
 2151SOL     OW 7351   1.869   6.022   6.390 -0.4322 -0.1931 -0.1475
 2151SOL    HW1 7352   1.902   6.095   6.451 -1.5971  0.2368  0.0028
 2151SOL    HW2 7353   1.772   6.036   6.372 -0.3737 -1.0049 -1.1547
 2152SOL     OW 7354   5.695   6.981   4.350  0.2258 -0.0533 -0.1198
 2152SOL    HW1 7355   5.634   7.060   4.357  0.7377  0.3820 -0.5474
 2152SOL    HW2 7356   5.645   6.903   4.312 -0.1842  0.1669 -0.0330
 2153SOL     OW 7357   1.950   1.415   4.309 -0.2585  0.4598 -0.2468
 2153SOL    HW1 7358   1.972   1.415   4.212  0.4517  2.2768 -0.1342
 2153SOL    HW2 7359   1.932   1.509   4.339  1.6721  0.2620  1.7975
 2154SOL     OW 7360   1.738   5.404   0.252  0.6064 -0.1126 -0.4739
 2154SOL    HW1 7361   1.640   5.415   0.260  0.5059 -1.8877  1.7031
 2154SOL    HW2 7362   1.785   5.487   0.284 -0.1475  0.5120 -0.9647
 2155SOL     OW 7363   4.212   0.177   1.140  0.0121  0.4654  0.0938
 2155SOL    HW1 7364   4.148   0.212   1.208 -1.7913 -0.3441 -1.1287
 2155SOL    HW2 7365   4.194   0.220   1.051  2.0124  1.1486 -0.0436
 2156SOL     OW 7366   6.636   1.935   3.309  1.2529  0.0444 -0.9380
 2156SOL    HW1 7367   6.670   1.939   3.403 -1.1469 -0.8888  0.0377
 2156SOL    HW2 7368   6.634   1.839   3.279 -1.6186 -0.1089 -0.4577
 2157SOL     OW 7369   5.997   5.728   4.283 -0.3846 -0.2484 -0.1137
 2157SOL    HW1 7370   5.906   5.768   4.297 -1.1583 -2.2691  1.1041
 2157SOL    HW2 7371   6.047   5.781   4.215 -1.3732  2.5941  1.2373
 2158SOL     OW 7372   3.744   0.551   0.908  0.1468 -0.1829 -0.3505
 2158SOL    HW1 7373   3.673   0.514   0.848 -2.6624  1.7629  1.5088
 2158SOL    HW2 7374   3.774   0.480   0.972  0.6855 -1.3111 -1.7891
 2159SOL     OW 7375   1.961   2.700   0.222 -0.2537  0.1963  0.6414
 2159SOL    HW1 7376   1.884   2.713   0.160 -0.4124  0.3633  0.8730
 2159SOL    HW2 7377   1.961   2.771   0.292  0.8250  0.9446 -0.0836
 2160SOL     OW 7378   6.780   1.263   0.007 -0.2616  0.6136  0.0219
 2160SOL    HW1 7379   6.875   1.235  -0.005 -0.6820 -0.1927 -1.6544
 2160SOL    HW2 7380   6.738   1.278  -0.082 -1.6426  1.2419  0.7470
 2161SOL     OW 7381   2.061   3.675   1.026  0.1470  0.9125 -0.0580
 2161SOL    HW1 7382   2.111   3.751   1.067  2.1955  0.3606 -1.3657
 2161SOL    HW2 7383   2.124   3.599   1.010 -1.5465 -0.5464 -0.0909
 2162SOL     OW 7384   1.428   0.451   6.758 -0.2136 -0.4343  0.1563
 2162SOL    HW1 7385   1.378   0.394   6.693  0.0275  0.2755 -0.6693
 2162SOL    HW2 7386   1.416   0.415   6.850 -0.6975 -1.3607 -0.2600
 2163SOL     OW 7387   0.341   1.732   5.562  0.3305 -0.0857 -0.6842
 2163SOL    HW1 7388   0.363   1.773   5.651 -0.3890  0.6295 -0.8305
 2163SOL    HW2 7389   0.267   1.783   5.519  0.1435 -0.9021 -1.3525
 2164SOL     OW 7390   1.491   3.411   1.068 -0.7879  0.6834 -0.4328
 2164SOL    HW1 7391   1.470   3.496   1.019  1.3023  3.3698  2.9142
 2164SOL    HW2 7392   1.407   3.368   1.098 -1.8845  2.4063 -0.9046
 2165SOL     OW 7393   6.618   2.793   6.348  0.1026 -0.3853  0.0126
 2165SOL    HW1 7394   6.533   2.815   6.299  1.6745  1.6356 -2.0037
 2165SOL    HW2 7395   6.602   2.799   6.446 -1.8229  1.0462 -0.3180
 2166SOL     OW 7396   6.190   1.436   1.460  0.2498  0.3517 -0.4091
 2166SOL    HW1 7397   6.286   1.460   1.444 -0.1207  2.6314  0.3588
 2166SOL    HW2 7398   6.139   1.519   1.480 -2.0413 -0.7412 -1.4091
 2167SOL     OW 7399   3.247   0.675   1.926 -0.0576 -0.1511  0.4026
 2167SOL    HW1 7400   3.282   0.582   1.916  0.8230  0.2740 -0.6017
 2167SOL    HW2 7401   3.208   0.686   2.018  2.3646 -0.6695  1.5597
 2168SOL     OW 7402   6.661   2.881   5.340  0.2373 -0.1341  0.3523
 2168SOL    HW1 7403   6.661   2.818   5.262 -0.1634 -1.0252  1.0431
 2168SOL    HW2 7404   6.743   2.938   5.338 -1.8351  3.1142 -3.2387
 2169SOL     OW 7405   5.300   5.844   6.683 -0.2370  0.0488  0.2141
 2169SOL    HW1 7406   5.204   5.834   6.657  0.0513 -0.2148 -0.8194
 2169SOL    HW2 7407   5.325   5.772   6.747 -0.5912 -0.2040  0.0709
 2170SOL     OW 7408   1.151   3.718   1.157 -0.1517  0.1532 -0.6678
 2170SOL    HW1 7409   1.205   3.655   1.213 -1.0967  0.7874  1.0542
 2170SOL    HW2 7410   1.183   3.714   1.062  2.0272 -0.4213  0.0216
 2171SOL     OW 7411   5.660   0.287   2.275  0.2924 -0.4890  0.2825
 2171SOL    HW1 7412   5.723   0.318   2.347 -0.4968  1.4549  0.1987
 2171SOL    HW2 7413   5.711   0.235   2.207  1.4684 -0.4590  1.1058
 2172SOL     OW 7414   0.929   2.162   4.356 -0.3675 -0.9907  0.4104
 2172SOL    HW1 7415   0.901   2.234   4.420 -1.1152 -1.6817  0.8716
 2172SOL    HW2 7416   0.859   2.150   4.286  1.7958  1.9618 -2.5288
 2173SOL     OW 7417   4.757   1.313   4.884 -0.5670  0.3650 -0.1108
 2173SOL    HW1 7418   4.705   1.235   4.919  2.3695 -1.4703  0.6003
 2173SOL    HW2 7419   4.775   1.301   4.786 -0.3657  0.2748 -0.0644
 2174SOL     OW 7420   5.911   0.115   4.457  0.8376 -0.1251  0.4114
 2174SOL    HW1 7421   5.945   0.171   4.381  1.1268  0.7858  1.1945
 2174SOL    HW2 7422   5.841   0.052   4.423  0.6589  0.5569 -0.5288
 2175SOL     OW 7423   3.870   3.626   3.674  0.4481 -0.2578 -0.3975
 2175SOL    HW1 7424   3.882   3.716   3.633  1.0317  0.7311  1.7761
 2175SOL    HW2 7425   3.772   3.606   3.685  0.2215  1.7686  2.2958
 2176SOL     OW 7426   0.909   5.996   1.623  0.5805  0.0340  0.2384
 2176SOL    HW1 7427   0.913   5.896   1.623  1.8323  0.0606 -0.7999
 2176SOL    HW2 7428   0.836   6.026   1.685 -0.6287 -1.5388 -0.3481
 2177SOL     OW 7429   6.630   1.860   3.865  0.1367 -0.0845 -0.2086
 2177SOL    HW1 7430   6.542   1.842   3.821 -1.7370  0.4960  2.9630
 2177SOL    HW2 7431   6.688   1.779   3.858 -0.2657 -0.2224 -3.0125
 2178SOL     OW 7432   2.056   3.282   2.739 -0.1282  0.5823  0.0253
 2178SOL    HW1 7433   2.040   3.198   2.686 -2.3790  1.0645 -0.1441
 2178SOL    HW2 7434   1.984   3.348   2.719 -0.7466  1.0147  3.2060
 2179SOL     OW 7435   1.650   4.452   6.841  0.2769  0.3059  0.2304
 2179SOL    HW1 7436   1.608   4.519   6.902  1.2661  1.4049 -0.2438
 2179SOL    HW2 7437   1.664   4.494   6.750 -0.0154 -0.8805 -0.3756
 2180SOL     OW 7438   1.007   5.178   3.150  0.2835  0.3345 -0.4080
 2180SOL    HW1 7439   1.039   5.083   3.149  1.2266  0.6290  0.2121
 2180SOL    HW2 7440   0.910   5.181   3.129  0.3149 -0.7423 -0.7455
 2181SOL     OW 7441   5.730   4.528   3.324  0.1210  0.0272  0.2997
 2181SOL    HW1 7442   5.804   4.509   3.260  0.1936  1.4712 -0.0752
 2181SOL    HW2 7443   5.705   4.624   3.319 -1.3497 -0.2901  0.8989
 2182SOL     OW 7444   5.169   0.302   1.623  0.1711  0.7906 -0.2162
 2182SOL    HW1 7445   5.246   0.364   1.607 -1.1621  2.3848 -0.6836
 2182SOL    HW2 7446   5.103   0.310   1.548 -0.5523 -0.4267  0.2583
 2183SOL     OW 7447   5.190   3.859   5.982  0.3357  0.5910  0.5275
 2183SOL    HW1 7448   5.222   3.863   6.076  0.6554 -1.1025  0.5248
 2183SOL    HW2 7449   5.267   3.837   5.922  0.0907  1.4259 -0.1191
 2184SOL     OW 7450   6.051   2.109   1.599 -0.1693  0.2031 -0.8980
 2184SOL    HW1 7451   6.028   2.070   1.510  3.8119 -2.0023 -1.1992
 2184SOL    HW2 7452   6.150   2.113   1.609 -0.4239  0.8013  3.2923
 2185SOL     OW 7453   0.662   1.729   5.857 -0.2507  0.5053  0.1238
 2185SOL    HW1 7454   0.651   1.662   5.783  2.0792  1.0169 -0.7630
 2185SOL    HW2 7455   0.679   1.681   5.943 -0.3568 -0.0639 -0.1675
 2186SOL     OW 7456   1.056   4.230   4.642 -0.4541 -0.1500  0.1079
 2186SOL    HW1 7457   0.984   4.299   4.640 -1.9305 -1.6301 -0.2737
 2186SOL    HW2 7458   1.086   4.210   4.549  0.4660  0.4556  0.2654
 2187SOL     OW 7459   4.787   1.167   2.377  0.7576 -0.1474 -0.2505
 2187SOL    HW1 7460   4.730   1.145   2.298 -0.3180  1.3235  0.0643
 2187SOL    HW2 7461   4.849   1.241   2.354 -0.0672  0.7950  0.4524
 2188SOL     OW 7462   4.593   2.316   1.654  0.3668 -0.2771  0.6680
 2188SOL    HW1 7463   4.638   2.268   1.579 -0.1099 -1.1253  0.9057
 2188SOL    HW2 7464   4.649   2.310   1.736  1.4040  1.5667  0.1524
 2189SOL     OW 7465   2.531   0.646   1.486 -0.2681 -0.3659  0.3881
 2189SOL    HW1 7466   2.610   0.707   1.479  0.8123 -1.8730 -1.8966
 2189SOL    HW2 7467   2.562   0.553   1.505 -1.2846 -1.2519 -1.8810
 2190SOL     OW 7468   7.010   3.117   1.415  0.1746  0.2660  0.2471
 2190SOL    HW1 7469   7.109   3.111   1.429  0.5131 -1.8940 -2.1540
 2190SOL    HW2 7470   6.967   3.033   1.447 -0.6290  0.4777 -0.2592
 2191SOL     OW 7471   6.009   6.635   6.004  0.1613  0.3738 -0.0875
 2191SOL    HW1 7472   5.986   6.562   5.939  2.4191 -3.2245  2.7592
 2191SOL    HW2 7473   6.077   6.696   5.963 -0.0484 -0.4547 -1.7905
 2192SOL     OW 7474   5.177   1.948   2.306  0.0323  0.1207 -0.7890
 2192SOL    HW1 7475   5.082   1.927   2.328  0.0990 -0.6349 -1.2085
 2192SOL    HW2 7476   5.232   1.947   2.390 -0.4520  1.3104 -0.4301
 2193SOL     OW 7477   6.813   0.103   6.433  0.0563  0.2712  0.0615
 2193SOL    HW1 7478   6.869   0.021   6.441  0.3541  0.5225  0.5825
 2193SOL    HW2 7479   6.869   0.179   6.397 -0.0273  0.4431  0.2952
 2194SOL     OW 7480   3.062   5.371   5.776  0.4244  0.4196  0.3919
 2194SOL    HW1 7481   3.090   5.432   5.850  1.2702 -0.5359  0.8994
 2194SOL    HW2 7482   2.990   5.309   5.809  0.8651 -0.0665  0.4633
 2195SOL     OW 7483   2.268   3.206   5.939  0.0737 -0.3374 -0.1204
 2195SOL    HW1 7484   2.201   3.134   5.919 -0.5127  0.2094 -0.1620
 2195SOL    HW2 7485   2.229   3.270   6.006  1.2677 -1.0527  1.3241
 2196SOL     OW 7486   2.868   1.874   6.716 -0.5989  0.0947 -0.1907
 2196SOL    HW1 7487   2.880   1.792   6.771 -2.2047 -0.5817 -0.7952
 2196SOL    HW2 7488   2.881   1.955   6.774 -1.8380 -0.5956  1.1048
 2197SOL     OW 7489   2.999   5.400   7.008  0.2690 -0.0048 -0.0014
 2197SOL    HW1 7490   3.077   5.338   6.997  0.6656 -0.1744  2.9432
 2197SOL    HW2 7491   2.914   5.348   7.000  0.5612 -0.6344  0.8715
 2198SOL     OW 7492   1.703   0.760   4.585  0.0324  0.3380 -0.3822
 2198SOL    HW1 7493   1.773   0.765   4.514  0.3091 -0.9868 -0.2365
 2198SOL    HW2 7494   1.741   0.792   4.672 -0.1132  1.3529 -0.6814
 2199SOL     OW 7495   3.543   4.127   1.459 -0.4518 -0.3242  0.4050
 2199SOL    HW1 7496   3.580   4.203   1.405  1.5731 -1.0347  0.7063
 2199SOL    HW2 7497   3.505   4.162   1.545 -1.8700  0.5859 -0.5441
 2200SOL     OW 7498   1.906   0.751   5.622  0.1900  0.4133 -0.6357
 2200SOL    HW1 7499   1.920   0.849   5.636 -1.0838  0.2468  3.0942
 2200SOL    HW2 7500   1.994   0.705   5.619  0.7879  1.5316 -0.9200
 2201SOL     OW 7501   6.758   4.178   4.684 -0.1980 -0.3068  0.4204
 2201SOL    HW1 7502   6.680   4.117   4.701 -0.3633 -0.3430 -0.4511
 2201SOL    HW2 7503   6.743   4.230   4.600  0.7149 -0.3029  0.2465
 2202SOL     OW 7504   5.475   0.800   4.280 -0.1085 -0.3714  0.3862
 2202SOL    HW1 7505   5.510   0.707   4.294 -0.8528 -0.7883 -0.4391
 2202SOL    HW2 7506   5.387   0.796   4.233 -0.2848  0.7464  0.5925
 2203SOL     OW 7507   2.977   0.565   0.809 -0.4468  0.1253  0.3142
 2203SOL    HW1 7508   3.059   0.602   0.766  0.4109  0.1837  1.9034
 2203SOL    HW2 7509   2.959   0.473   0.774  0.2282  0.1630 -0.1422
 2204SOL     OW 7510   3.756   2.943   0.122 -0.3572 -0.3554  0.2694
 2204SOL    HW1 7511   3.747   3.043   0.113  2.1027 -0.0357  0.6414
 2204SOL    HW2 7512   3.850   2.921   0.150 -0.3721 -2.8709 -1.3970
 2205SOL     OW 7513   4.310   5.646   2.556  0.2316 -0.1576  0.6649
 2205SOL    HW1 7514   4.266   5.576   2.612  0.1792 -0.8124 -0.1792
 2205SOL    HW2 7515   4.408   5.648   2.574  0.0009  0.8013  2.0102
 2206SOL     OW 7516   3.731   2.654   5.415  0.0254 -0.6602 -0.0536
 2206SOL    HW1 7517   3.632   2.645   5.398  0.5511 -1.9466 -3.2267
 2206SOL    HW2 7518   3.772   2.563   5.423  0.9533 -0.1345  1.6790
 2207SOL     OW 7519   5.403   3.623   1.871 -0.2898 -0.1259 -0.1456
 2207SOL    HW1 7520   5.321   3.595   1.921  0.1626 -0.7605  0.2527
 2207SOL    HW2 7521   5.383   3.707   1.820 -0.9208  0.2515  0.6807
 2208SOL     OW 7522   6.288   3.151   3.766  0.6326 -0.3565  0.2816
 2208SOL    HW1 7523   6.371   3.147   3.709  1.1308 -0.3936  0.9959
 2208SOL    HW2 7524   6.217   3.093   3.725  0.4321  0.8349 -1.1547
 2209SOL     OW 7525   3.396   6.589   3.446 -0.6179  0.2403  0.3170
 2209SOL    HW1 7526   3.422   6.492   3.449  0.0642  0.4380  0.9355
 2209SOL    HW2 7527   3.458   6.642   3.503  1.0282  1.5064 -2.4510
 2210SOL     OW 7528   6.192   6.525   1.511 -0.2199 -0.2608  0.0878
 2210SOL    HW1 7529   6.252   6.571   1.445 -0.3713  0.6984  0.6016
 2210SOL    HW2 7530   6.105   6.573   1.514 -0.5835 -0.9266  0.2378
 2211SOL     OW 7531   3.341   6.498   1.597  0.0549 -0.2058  0.7738
 2211SOL    HW1 7532   3.353   6.582   1.545 -2.2093 -0.4787 -0.3574
 2211SOL    HW2 7533   3.417   6.486   1.660  1.9694  1.1379 -1.1266
 2212SOL     OW 7534   3.739   0.442   5.604  0.1823 -0.6464 -0.0371
 2212SOL    HW1 7535   3.766   0.360   5.653  2.0309 -0.1956 -0.2492
 2212SOL    HW2 7536   3.693   0.416   5.519 -0.2217 -1.4389  0.4118
 2213SOL     OW 7537   4.085   1.425   4.989 -0.1567  0.4383 -0.6748
 2213SOL    HW1 7538   4.140   1.508   4.983 -2.3405  2.0922  0.6330
 2213SOL    HW2 7539   3.989   1.447   4.974 -0.9972 -1.5977  1.1331
 2214SOL     OW 7540   4.667   3.995   5.957  0.6105  0.0610 -0.1670
 2214SOL    HW1 7541   4.753   3.944   5.948  1.0012  0.7401 -0.3908
 2214SOL    HW2 7542   4.609   3.977   5.877  1.0643  0.5357 -0.6155
 2215SOL     OW 7543   0.913   5.701   5.341 -0.2069 -0.2291  0.1127
 2215SOL    HW1 7544   0.814   5.695   5.334 -0.2380 -0.0125  0.3646
 2215SOL    HW2 7545   0.941   5.797   5.346  0.0543 -0.2668 -0.5119
 2216SOL     OW 7546   0.608   0.545   0.654 -0.2843  0.4831  0.1731
 2216SOL    HW1 7547   0.692   0.588   0.622 -1.0973  1.6014 -0.5168
 2216SOL    HW2 7548   0.628   0.486   0.733  1.9277 -2.8118 -2.5483
 2217SOL     OW 7549   3.135   0.820   3.590  0.0534 -0.2813 -0.2782
 2217SOL    HW1 7550   3.221   0.848   3.633  0.0234 -0.9223  0.2268
 2217SOL    HW2 7551   3.068   0.893   3.599  0.6145  0.3338 -0.9147
 2218SOL     OW 7552   0.902   6.040   3.929  0.4688 -0.6076 -0.2350
 2218SOL    HW1 7553   0.817   6.086   3.903  0.5783  0.3395  0.9967
 2218SOL    HW2 7554   0.908   6.035   4.029  2.1327 -0.0967 -0.2742
 2219SOL     OW 7555   4.360   3.195   5.849  0.0402 -0.4250 -0.2039
 2219SOL    HW1 7556   4.366   3.288   5.812  1.0857 -0.9268 -1.3589
 2219SOL    HW2 7557   4.320   3.134   5.781  2.1591 -1.4079 -0.6584
 2220SOL     OW 7558   6.894   5.849   5.382  0.0332 -0.6485 -0.5275
 2220SOL    HW1 7559   6.935   5.929   5.426 -2.5720  0.3860  0.2186
 2220SOL    HW2 7560   6.906   5.856   5.283  0.2701  0.4223 -0.4350
 2221SOL     OW 7561   6.063   6.081   3.428 -0.0927 -0.1968  0.1808
 2221SOL    HW1 7562   6.159   6.082   3.456  0.3018 -0.4148 -1.1215
 2221SOL    HW2 7563   6.041   5.993   3.385 -0.3821  0.4967 -1.1389
 2222SOL     OW 7564   4.588   6.876   4.253  0.2934  0.0617  0.0917
 2222SOL    HW1 7565   4.505   6.838   4.294 -0.1821  0.8794 -0.0742
 2222SOL    HW2 7566   4.570   6.898   4.157  1.2100 -1.2578 -0.4005
 2223SOL     OW 7567   0.550   6.970   4.595  0.2587  0.3638 -0.0382
 2223SOL    HW1 7568   0.508   6.978   4.505  0.1252 -1.1000 -0.1393
 2223SOL    HW2 7569   0.587   7.058   4.623 -1.2002  1.2465 -0.7744
 2224SOL     OW 7570   4.363   3.865   6.582  0.4650 -0.4881 -0.2656
 2224SOL    HW1 7571   4.381   3.962   6.570 -1.7569 -0.0121 -0.1340
 2224SOL    HW2 7572   4.360   3.843   6.680 -1.2837 -0.1622 -0.2063
 2225SOL     OW 7573   6.669   2.352   0.221 -0.4740 -0.0355  0.1614
 2225SOL    HW1 7574   6.608   2.399   0.285  0.1268 -0.1935  0.8575
 2225SOL    HW2 7575   6.715   2.419   0.163  1.6398  0.4563  2.2428
 2226SOL     OW 7576   3.552   3.507   0.444 -0.6491 -0.2116  0.3297
 2226SOL    HW1 7577   3.573   3.586   0.386  1.6908 -0.0635  1.2455
 2226SOL    HW2 7578   3.459   3.516   0.480 -0.3958  2.2596  0.5402
 2227SOL     OW 7579   3.550   2.247   1.216 -0.2402  0.1467 -0.0169
 2227SOL    HW1 7580   3.494   2.194   1.279  0.2922 -0.2959  0.0890
 2227SOL    HW2 7581   3.580   2.332   1.260  2.3153 -1.3266  1.3280
 2228SOL     OW 7582   4.103   0.262   0.346 -0.4141  0.3521 -0.6395
 2228SOL    HW1 7583   4.059   0.236   0.432  0.1905  3.2065  0.6289
 2228SOL    HW2 7584   4.037   0.256   0.272 -1.4954 -0.3371  0.3426
 2229SOL     OW 7585   3.767   2.905   3.685 -0.1181 -0.4528 -0.1703
 2229SOL    HW1 7586   3.691   2.870   3.740 -0.4343 -0.3074 -0.5135
 2229SOL    HW2 7587   3.836   2.944   3.746 -1.3500  1.4955  0.0958
 2230SOL     OW 7588   5.922   3.380   6.283 -0.3291  0.3656  0.0728
 2230SOL    HW1 7589   5.856   3.453   6.269  0.5088  0.9162 -1.2588
 2230SOL    HW2 7590   5.958   3.350   6.194  1.0053 -0.0962  0.7323
 2231SOL     OW 7591   0.277   0.778   5.679  0.1433 -0.3080  0.1114
 2231SOL    HW1 7592   0.283   0.840   5.601 -0.9119  0.3726  0.5532
 2231SOL    HW2 7593   0.364   0.780   5.729  0.0436  1.0368  0.2755
 2232SOL     OW 7594   1.789   0.723   0.610  0.8542 -0.3611  1.1371
 2232SOL    HW1 7595   1.735   0.661   0.667 -2.0472 -0.5831 -1.5874
 2232SOL    HW2 7596   1.875   0.678   0.584  0.4036 -1.8309  2.0636
 2233SOL     OW 7597   2.319   1.577   0.426  0.0803  0.2188  0.4284
 2233SOL    HW1 7598   2.228   1.539   0.445 -0.5439  0.8893 -1.0226
 2233SOL    HW2 7599   2.386   1.503   0.429 -0.5189 -0.3118  1.4038
 2234SOL     OW 7600   5.718   0.275   1.388  0.1232  0.5964 -0.3344
 2234SOL    HW1 7601   5.634   0.227   1.364  2.0194 -2.6522 -1.0418
 2234SOL    HW2 7602   5.795   0.235   1.338  2.6041  1.1398  2.7502
 2235SOL     OW 7603   7.009   1.895   5.612 -0.1832 -0.2645 -0.0066
 2235SOL    HW1 7604   7.044   1.801   5.620 -0.6225 -0.3375  1.3148
 2235SOL    HW2 7605   6.974   1.910   5.519  1.9527 -0.6611 -0.9230
 2236SOL     OW 7606   2.612   5.345   3.432  0.5578  0.0029 -0.0587
 2236SOL    HW1 7607   2.640   5.312   3.342  0.7024 -1.1055  0.3756
 2236SOL    HW2 7608   2.625   5.444   3.437  1.2124 -0.0229 -1.0105
 2237SOL     OW 7609   0.931   5.111   6.240  0.1309  0.2902  0.0800
 2237SOL    HW1 7610   0.973   5.113   6.331 -0.6428  0.6381  0.4448
 2237SOL    HW2 7611   0.873   5.192   6.229 -2.1286 -1.2193  0.4227
 2238SOL     OW 7612   5.840   4.678   1.514  0.0288  0.2316 -0.3265
 2238SOL    HW1 7613   5.787   4.621   1.577  1.2270  0.0961  0.5953
 2238SOL    HW2 7614   5.778   4.735   1.461 -1.0293  0.2716  0.8947
 2239SOL     OW 7615   2.775   0.318   3.514  0.4239 -0.2632 -0.1585
 2239SOL    HW1 7616   2.782   0.287   3.419  1.9424  1.5636 -0.7185
 2239SOL    HW2 7617   2.699   0.272   3.559 -0.1541 -1.3906 -2.1667
 2240SOL     OW 7618   5.747   5.735   3.429 -0.3462  0.6716 -0.1546
 2240SOL    HW1 7619   5.746   5.709   3.332  1.0413  0.7067 -0.2014
 2240SOL    HW2 7620   5.818   5.682   3.476 -0.4428  1.2670  0.6629
 2241SOL     OW 7621   1.810   1.795   4.216 -0.4152 -0.4327 -0.0031
 2241SOL    HW1 7622   1.839   1.883   4.253 -0.1122 -0.1936 -0.7893
 2241SOL    HW2 7623   1.784   1.734   4.291  0.0339  0.0905  0.5852
 2242SOL     OW 7624   6.355   1.523   3.879  0.0383  0.2177  0.1734
 2242SOL    HW1 7625   6.291   1.446   3.873  0.3399  0.0824 -2.4713
 2242SOL    HW2 7626   6.428   1.501   3.944 -0.1439 -1.5562 -0.1727
 2243SOL     OW 7627   1.838   1.579   5.021 -0.0165  0.0331  0.4231
 2243SOL    HW1 7628   1.903   1.651   4.995  1.8728 -1.9284 -0.6469
 2243SOL    HW2 7629   1.889   1.497   5.050 -1.8681 -2.5567 -2.9546
 2244SOL     OW 7630   3.819   1.604   3.509 -0.0742  0.1800 -0.3801
 2244SOL    HW1 7631   3.745   1.536   3.507  1.6674 -1.8527  0.3380
 2244SOL    HW2 7632   3.785   1.688   3.552 -2.2150 -0.3251 -0.9556
 2245SOL     OW 7633   4.652   0.674   6.136  0.3201  0.1599  0.1966
 2245SOL    HW1 7634   4.572   0.712   6.090  0.5289 -0.6467 -0.8734
 2245SOL    HW2 7635   4.692   0.743   6.196 -0.3924  0.9946 -0.2713
 2246SOL     OW 7636   6.875   2.275   6.528 -0.4061  0.1129 -0.4910
 2246SOL    HW1 7637   6.960   2.320   6.500 -1.0335  0.7499 -1.4055
 2246SOL    HW2 7638   6.810   2.343   6.560 -0.8583 -0.2954 -0.5303
 2247SOL     OW 7639   3.868   3.316   1.720 -0.3040  0.5111  0.1185
 2247SOL    HW1 7640   3.906   3.342   1.808 -2.2507  0.2730  1.0779
 2247SOL    HW2 7641   3.884   3.389   1.654 -0.2795  1.4296  1.1132
 2248SOL     OW 7642   5.326   3.398   4.594 -0.0579  0.3655 -0.0683
 2248SOL    HW1 7643   5.281   3.404   4.683  1.1405 -0.0710  0.5924
 2248SOL    HW2 7644   5.284   3.463   4.531 -1.7187 -0.1660  0.4486
 2249SOL     OW 7645   3.273   5.524   4.022  0.0881 -0.4480 -0.5790
 2249SOL    HW1 7646   3.192   5.573   4.054 -0.8664 -1.2868 -1.6297
 2249SOL    HW2 7647   3.319   5.481   4.100 -1.1315 -0.9158 -0.0912
 2250SOL     OW 7648   2.971   6.695   0.235 -0.9363  0.3836 -0.2259
 2250SOL    HW1 7649   2.962   6.611   0.288  0.4190 -0.2241 -0.8982
 2250SOL    HW2 7650   3.024   6.762   0.287  2.3001 -0.9721 -1.4925
 2251SOL     OW 7651   2.902   0.870   4.466  0.2012 -0.3053  0.0079
 2251SOL    HW1 7652   3.001   0.865   4.450  0.2616 -1.0004  0.5347
 2251SOL    HW2 7653   2.882   0.832   4.557 -0.5449 -0.1399 -0.0886
 2252SOL     OW 7654   2.266   2.744   3.559 -0.6631  0.0521 -0.3744
 2252SOL    HW1 7655   2.180   2.781   3.593 -0.4521  0.6544 -0.4863
 2252SOL    HW2 7656   2.333   2.741   3.633 -0.7260 -0.2517 -0.3289
 2253SOL     OW 7657   1.851   1.156   2.546  0.1758  0.1537 -0.3148
 2253SOL    HW1 7658   1.918   1.118   2.610  0.3448 -0.8914 -1.0817
 2253SOL    HW2 7659   1.802   1.081   2.501  0.6402  0.8067 -1.9984
 2254SOL     OW 7660   3.181   2.466   1.512  0.6042  0.1394 -0.4399
 2254SOL    HW1 7661   3.162   2.563   1.498  1.1527  0.2306 -0.5862
 2254SOL    HW2 7662   3.268   2.456   1.561  0.3046 -0.2662  0.0167
 2255SOL     OW 7663   1.220   2.868   1.013  0.1130 -0.3465 -0.0945
 2255SOL    HW1 7664   1.272   2.941   1.057 -0.0546  0.1858 -0.7531
 2255SOL    HW2 7665   1.282   2.797   0.982  0.6077  0.7150 -1.7039
 2256SOL     OW 7666   6.284   6.516   1.760 -0.1847  0.8546  0.2044
 2256SOL    HW1 7667   6.226   6.485   1.836  1.7209 -1.6188  0.7678
 2256SOL    HW2 7668   6.243   6.487   1.674 -0.7111  0.7566  0.4814
 2257SOL     OW 7669   6.493   0.727   6.629 -0.1788  0.2523  0.0477
 2257SOL    HW1 7670   6.452   0.749   6.541 -1.3209  0.4463  0.6016
 2257SOL    HW2 7671   6.421   0.704   6.694  0.6738 -0.2960  0.8201
 2258SOL     OW 7672   2.212   6.515   4.614  0.1123  0.3451 -0.1956
 2258SOL    HW1 7673   2.149   6.454   4.662  1.2002  0.4351  1.4310
 2258SOL    HW2 7674   2.179   6.609   4.620 -1.0202  0.0920 -1.8012
 2259SOL     OW 7675   5.905   6.203   5.508 -0.3696 -0.7816 -0.1112
 2259SOL    HW1 7676   5.817   6.209   5.555 -0.0411 -1.9422  0.7142
 2259SOL    HW2 7677   5.963   6.136   5.555  0.7809 -0.3870 -0.9200
 2260SOL     OW 7678   0.944   2.567   2.463  0.1892  0.4191 -0.0121
 2260SOL    HW1 7679   0.882   2.494   2.492  1.1143 -0.7087 -0.8070
 2260SOL    HW2 7680   0.891   2.637   2.414 -0.6000 -0.0742  0.1114
 2261SOL     OW 7681   4.178   4.571   5.993  0.3043  0.0487 -0.2932
 2261SOL    HW1 7682   4.090   4.543   6.031  0.3363 -0.7929 -0.8142
 2261SOL    HW2 7683   4.176   4.669   5.973 -0.0597  0.2981  0.8948
 2262SOL     OW 7684   6.193   1.033   3.120  0.2292  0.0101 -0.5628
 2262SOL    HW1 7685   6.213   1.044   3.023  3.4779 -0.1223 -0.0272
 2262SOL    HW2 7686   6.138   0.950   3.134  1.4286 -1.1240 -2.1567
 2263SOL     OW 7687   1.322   4.950   6.935 -0.2982  0.1384 -0.3031
 2263SOL    HW1 7688   1.244   4.902   6.977  0.2717  0.7769  1.5725
 2263SOL    HW2 7689   1.384   4.982   7.006  1.7510 -0.3967 -1.7481
 2264SOL     OW 7690   3.567   2.501   6.626 -0.1824 -0.3875  0.2532
 2264SOL    HW1 7691   3.519   2.535   6.707  3.6104 -0.4836  2.8280
 2264SOL    HW2 7692   3.601   2.578   6.573 -2.6483 -0.3240 -1.3507
 2265SOL     OW 7693   0.095   6.509   4.439 -0.2267 -0.3428 -0.1370
 2265SOL    HW1 7694   0.164   6.473   4.377 -1.2041 -1.3253 -0.7064
 2265SOL    HW2 7695   0.032   6.568   4.388  0.0021  0.3001  0.3111
 2266SOL     OW 7696   5.703   2.464   0.671  0.0798 -0.4065  0.0795
 2266SOL    HW1 7697   5.692   2.563   0.659  1.6914 -0.4482 -2.8223
 2266SOL    HW2 7698   5.666   2.436   0.759 -0.4803  2.7603  0.9611
 2267SOL     OW 7699   5.299   1.841   5.344 -0.2947  0.1725 -0.0720
 2267SOL    HW1 7700   5.246   1.925   5.332 -0.3738  0.1681  0.2417
 2267SOL    HW2 7701   5.249   1.765   5.303  0.5082  0.5222 -1.7738
 2268SOL     OW 7702   0.300   0.237   5.411 -0.2606 -0.0246 -0.1789
 2268SOL    HW1 7703   0.272   0.333   5.420 -1.2762 -0.2027 -1.1885
 2268SOL    HW2 7704   0.279   0.188   5.495  0.4204  0.6591  0.4108
 2269SOL     OW 7705   0.421   1.854   5.798  0.4153  0.4099  0.1895
 2269SOL    HW1 7706   0.515   1.834   5.824  0.6381  0.7666 -0.3108
 2269SOL    HW2 7707   0.405   1.953   5.805  0.0133  0.3287  0.4719
 2270SOL     OW 7708   3.004   2.407   6.718  0.1152  0.3346 -0.5897
 2270SOL    HW1 7709   2.990   2.341   6.645  0.4973  1.3230 -1.5730
 2270SOL    HW2 7710   2.916   2.442   6.750 -0.1247 -0.9521  0.2618
 2271SOL     OW 7711   3.937   5.875   6.034 -0.4083  0.2943 -0.2212
 2271SOL    HW1 7712   4.012   5.810   6.029 -0.5541  0.1444 -0.5245
 2271SOL    HW2 7713   3.850   5.825   6.039 -0.4061  0.4360  1.9990
 2272SOL     OW 7714   3.200   2.236   5.850 -0.0028  0.9065 -0.0798
 2272SOL    HW1 7715   3.218   2.325   5.890  0.0544  0.9960 -0.3080
 2272SOL    HW2 7716   3.120   2.195   5.895  0.8614  0.4299  1.0444
 2273SOL     OW 7717   0.327   3.468   6.701 -0.3635  0.0171  0.0080
 2273SOL    HW1 7718   0.424   3.443   6.702 -0.2588  0.3665 -0.7234
 2273SOL    HW2 7719   0.278   3.416   6.771  0.6237  0.9515  1.4603
 2274SOL     OW 7720   1.393   1.005   0.598  0.5254  0.4065 -0.2361
 2274SOL    HW1 7721   1.407   0.991   0.696  0.5213  1.4042 -0.0775
 2274SOL    HW2 7722   1.408   0.919   0.549  0.2096 -0.1774  0.6705
 2275SOL     OW 7723   5.476   2.941   3.213 -0.6797  0.4660 -0.2043
 2275SOL    HW1 7724   5.565   2.898   3.202 -0.1252  1.5257  0.0739
 2275SOL    HW2 7725   5.408   2.891   3.160 -0.2272 -1.2762  0.7702
 2276SOL     OW 7726   0.980   2.296   2.219  0.4664  0.3204 -0.1708
 2276SOL    HW1 7727   1.041   2.373   2.235 -0.7877  1.0643  1.3003
 2276SOL    HW2 7728   0.995   2.226   2.288  3.6996 -2.3089 -3.1383
 2277SOL     OW 7729   4.050   3.882   3.003 -0.2660 -0.4039  0.1181
 2277SOL    HW1 7730   4.068   3.786   2.984 -0.5889 -0.3219 -0.6668
 2277SOL    HW2 7731   3.997   3.921   2.927  1.0368  0.7320 -0.2402
 2278SOL     OW 7732   6.551   3.360   2.787  0.0916  0.5696  0.2206
 2278SOL    HW1 7733   6.604   3.398   2.711 -0.3858  0.4436 -0.1799
 2278SOL    HW2 7734   6.605   3.291   2.834  1.2251  2.1305  1.3469
 2279SOL     OW 7735   1.553   4.592   5.631  0.2555  0.0476  0.1392
 2279SOL    HW1 7736   1.607   4.672   5.604 -0.3425  0.8500  1.2099
 2279SOL    HW2 7737   1.462   4.598   5.588 -0.5932  1.1743  1.9603
 2280SOL     OW 7738   5.194   3.517   3.843 -0.1491 -0.3333 -0.3313
 2280SOL    HW1 7739   5.167   3.578   3.768 -0.1853  0.8668  0.6287
 2280SOL    HW2 7740   5.272   3.462   3.814  0.7944  1.1717 -0.7762
 2281SOL     OW 7741   6.022   5.677   2.952  0.0519 -1.0162 -0.4181
 2281SOL    HW1 7742   5.973   5.596   2.983 -0.4052 -1.3899 -2.0208
 2281SOL    HW2 7743   6.091   5.650   2.885  0.3404 -0.1393 -0.4846
 2282SOL     OW 7744   3.418   6.479   5.248  0.4751 -0.5340 -0.4418
 2282SOL    HW1 7745   3.494   6.527   5.204 -1.1824  2.9321  0.2089
 2282SOL    HW2 7746   3.423   6.490   5.347 -1.2664  0.4590 -0.4265
 2283SOL     OW 7747   1.685   0.047   4.199 -0.2397  0.2933 -0.0006
 2283SOL    HW1 7748   1.643  -0.037   4.163 -0.4393  0.4152 -0.0517
 2283SOL    HW2 7749   1.667   0.123   4.137 -3.5164  1.2960  1.9027
 2284SOL     OW 7750   1.861   4.581   6.432 -0.5272  0.7425 -0.1797
 2284SOL    HW1 7751   1.874   4.629   6.345  2.0039  0.4491 -0.0410
 2284SOL    HW2 7752   1.912   4.494   6.430 -0.3898  0.7541  1.6051
 2285SOL     OW 7753   1.774   4.751   6.733 -0.4798 -0.0246  0.3090
 2285SOL    HW1 7754   1.706   4.702   6.679 -1.2295 -0.6790  1.7869
 2285SOL    HW2 7755   1.728   4.809   6.800  0.4183  1.6247 -0.4287
 2286SOL     OW 7756   5.172   5.032   2.932  0.7753 -0.7027  0.3085
 2286SOL    HW1 7757   5.264   4.996   2.919  0.4348 -1.2273 -0.7803
 2286SOL    HW2 7758   5.158   5.055   3.029  1.3020 -2.7017  0.9077
 2287SOL     OW 7759   1.427   2.548   5.881  0.1096  0.2798  0.3082
 2287SOL    HW1 7760   1.328   2.554   5.872  0.1095 -0.5296 -0.2568
 2287SOL    HW2 7761   1.463   2.638   5.906 -0.9590  0.1769  2.5029
 2288SOL     OW 7762   6.142   6.543   3.733  0.3471  0.6747  0.8254
 2288SOL    HW1 7763   6.132   6.449   3.764  0.4913  0.1564 -0.6308
 2288SOL    HW2 7764   6.239   6.566   3.726  0.3173  0.7471  0.6392
 2289SOL     OW 7765   1.707   3.147   2.689  0.7595 -0.6534  0.1179
 2289SOL    HW1 7766   1.783   3.083   2.697  1.5715  0.1940 -0.6388
 2289SOL    HW2 7767   1.631   3.104   2.639  1.4123 -0.9318 -0.6486
 2290SOL     OW 7768   0.356   0.975   6.479  0.2119 -0.2979 -0.1678
 2290SOL    HW1 7769   0.279   0.993   6.540  0.9038  1.2980  0.2728
 2290SOL    HW2 7770   0.347   1.032   6.396  0.6835 -0.4271 -0.3125
 2291SOL     OW 7771   0.897   1.749   6.553 -0.4725 -0.3550  0.0989
 2291SOL    HW1 7772   0.967   1.747   6.624 -1.2029 -0.0825  0.8483
 2291SOL    HW2 7773   0.933   1.795   6.472 -0.7413  2.6970  1.5781
 2292SOL     OW 7774   3.216   1.030   3.378 -0.6578  0.3006  0.5389
 2292SOL    HW1 7775   3.309   1.018   3.344 -1.0628  2.1965 -1.5069
 2292SOL    HW2 7776   3.179   0.942   3.408  2.1972 -0.3006  2.6974
 2293SOL     OW 7777   5.582   2.965   3.672 -0.1907 -0.1818  0.5157
 2293SOL    HW1 7778   5.572   2.911   3.755 -2.2965 -0.8850 -0.1108
 2293SOL    HW2 7779   5.524   2.926   3.600 -0.6469  2.0326 -0.4122
 2294SOL     OW 7780   3.824   0.218   5.725 -0.4893  0.3294 -0.4027
 2294SOL    HW1 7781   3.783   0.146   5.781 -0.0912  0.4274  0.0196
 2294SOL    HW2 7782   3.913   0.244   5.764 -0.6561  1.0921 -0.5154
 2295SOL     OW 7783   0.915   1.950   1.600 -0.5064  0.2480  0.1092
 2295SOL    HW1 7784   0.958   1.919   1.686 -1.3423  1.6430  1.0751
 2295SOL    HW2 7785   0.816   1.951   1.611 -0.7527 -1.3894 -1.5597
 2296SOL     OW 7786   2.640   6.418   3.863 -0.0986 -0.1725 -0.0055
 2296SOL    HW1 7787   2.695   6.338   3.884 -0.3053 -0.0625  0.9919
 2296SOL    HW2 7788   2.547   6.405   3.898 -0.1748  0.4373  0.0405
 2297SOL     OW 7789   3.066   6.000   6.995 -0.4072 -0.0850  0.2759
 2297SOL    HW1 7790   3.024   6.038   7.077  0.7931  3.3558 -0.5106
 2297SOL    HW2 7791   3.115   5.916   7.018 -3.5769 -1.6149  2.0938
 2298SOL     OW 7792   5.881   2.423   2.787  0.2370 -0.4692  0.0754
 2298SOL    HW1 7793   5.870   2.332   2.827 -0.2674 -0.6547 -0.4762
 2298SOL    HW2 7794   5.804   2.481   2.814  1.2967  0.2795  1.6705
 2299SOL     OW 7795   5.012   5.431   2.184 -0.2813 -0.2402 -0.2129
 2299SOL    HW1 7796   4.932   5.404   2.130 -0.7075 -0.4516  0.5140
 2299SOL    HW2 7797   5.051   5.350   2.228  0.6960 -0.2319 -1.0366
 2300SOL     OW 7798   2.470   5.098   1.495 -0.7324  0.8019  0.4397
 2300SOL    HW1 7799   2.536   5.062   1.429 -1.5013  0.3231 -0.0883
 2300SOL    HW2 7800   2.505   5.183   1.533 -0.0834  0.8728 -0.2735
 2301SOL     OW 7801   3.556   3.904   0.175 -0.4498  0.2483  0.4693
 2301SOL    HW1 7802   3.500   3.829   0.139 -0.4522  0.1603  0.6558
 2301SOL    HW2 7803   3.634   3.866   0.225 -0.2821  0.3703  0.3012
 2302SOL     OW 7804   4.093   6.257   4.251  0.4907 -0.0982 -0.1839
 2302SOL    HW1 7805   4.075   6.265   4.349  2.0363 -2.3657  0.3860
 2302SOL    HW2 7806   4.184   6.294   4.231  0.2526  0.1931 -0.7275
 2303SOL     OW 7807   0.120   2.769   5.938 -0.1601 -0.5919  0.5534
 2303SOL    HW1 7808   0.048   2.729   5.881  0.3901 -0.3954 -0.2965
 2303SOL    HW2 7809   0.082   2.791   6.028 -0.8767 -1.5307  0.5050
 2304SOL     OW 7810   2.356   0.772   3.612 -0.3589 -0.0931 -0.2807
 2304SOL    HW1 7811   2.353   0.871   3.626  1.2156 -0.0942  0.3383
 2304SOL    HW2 7812   2.265   0.738   3.588 -1.0666  1.3995  0.1970
 2305SOL     OW 7813   5.090   6.270   0.436  0.6928 -0.2836  1.0830
 2305SOL    HW1 7814   5.130   6.187   0.397 -1.8978 -1.2677  0.2781
 2305SOL    HW2 7815   5.137   6.351   0.399  2.3291 -1.3303  0.7814
 2306SOL     OW 7816   5.889   5.391   6.114 -0.1511  0.1618 -0.1472
 2306SOL    HW1 7817   5.914   5.301   6.149  0.4298 -0.5642 -2.3262
 2306SOL    HW2 7818   5.791   5.393   6.094  0.0984 -0.4943 -1.4835
 2307SOL     OW 7819   0.863   4.864   3.356 -0.7237  0.3312  0.0413
 2307SOL    HW1 7820   0.832   4.951   3.395  1.9075  1.3409  0.0374
 2307SOL    HW2 7821   0.940   4.829   3.409  0.5812 -0.1391 -2.0639
 2308SOL     OW 7822   1.044   1.668   6.777 -0.0915 -0.1249  0.0651
 2308SOL    HW1 7823   1.079   1.576   6.759  0.2757 -0.1539  0.8884
 2308SOL    HW2 7824   1.120   1.730   6.797 -0.3027  0.4657 -0.9195
 2309SOL     OW 7825   2.271   3.939   6.186  0.2661  0.2963 -0.1026
 2309SOL    HW1 7826   2.267   3.917   6.088  3.1488 -0.2177 -0.1897
 2309SOL    HW2 7827   2.260   4.038   6.198 -1.1647  0.2540 -0.8061
 2310SOL     OW 7828   6.495   0.423   3.924  0.0890  0.4274 -0.3967
 2310SOL    HW1 7829   6.571   0.413   3.860  0.3035 -0.2573 -0.0510
 2310SOL    HW2 7830   6.525   0.472   4.006 -0.3718  1.9441 -1.1126
 2311SOL     OW 7831   1.756   6.043   1.495  0.3719  0.3672  0.0312
 2311SOL    HW1 7832   1.761   6.140   1.470  0.5575  0.2102 -0.5549
 2311SOL    HW2 7833   1.660   6.015   1.501  0.3197  0.4066 -0.5417
 2312SOL     OW 7834   2.095   5.738   1.635  0.4903 -0.4352 -0.7750
 2312SOL    HW1 7835   2.113   5.755   1.732  0.2337 -1.5572 -0.5245
 2312SOL    HW2 7836   2.182   5.727   1.587  0.7205  1.9884 -1.0642
 2313SOL     OW 7837   4.913   3.579   6.903  0.6352 -0.0136 -0.1994
 2313SOL    HW1 7838   4.931   3.677   6.901 -1.2824  0.4068  0.3461
 2313SOL    HW2 7839   4.911   3.548   6.998  0.7590 -0.4767 -0.3456
 2314SOL     OW 7840   1.475   4.478   3.271 -0.2296 -0.0211  0.8341
 2314SOL    HW1 7841   1.529   4.436   3.198 -0.1467 -1.2116  1.5464
 2314SOL    HW2 7842   1.501   4.574   3.282 -0.5032  0.2915 -0.9270
 2315SOL     OW 7843   5.833   0.746   4.901 -0.1040 -0.1564  0.3363
 2315SOL    HW1 7844   5.780   0.674   4.944 -0.8104  0.2290  0.1245
 2315SOL    HW2 7845   5.824   0.739   4.801  0.8185 -0.5150  0.2646
 2316SOL     OW 7846   3.825   3.380   5.834 -0.1679 -0.2343 -0.2110
 2316SOL    HW1 7847   3.774   3.349   5.754 -2.1060 -0.1413  0.9196
 2316SOL    HW2 7848   3.844   3.301   5.893  0.3604 -0.1601 -0.2836
 2317SOL     OW 7849   1.094   4.456   1.012  0.0665  0.5538 -0.3627
 2317SOL    HW1 7850   1.130   4.530   0.954  0.5482 -0.0532 -0.8523
 2317SOL    HW2 7851   1.160   4.436   1.085  0.0810  0.3941 -0.4189
 2318SOL     OW 7852   1.130   3.843   3.122 -0.4680  0.1200  0.0359
 2318SOL    HW1 7853   1.226   3.814   3.131 -0.2678 -0.2360 -2.4839
 2318SOL    HW2 7854   1.078   3.811   3.201  1.0522 -1.5988  0.4053
 2319SOL     OW 7855   1.578   2.998   4.118  0.1875 -0.4405  0.3939
 2319SOL    HW1 7856   1.558   2.991   4.216  0.3182  1.7310  0.6356
 2319SOL    HW2 7857   1.659   2.944   4.096 -0.8649 -2.3948  1.1018
 2320SOL     OW 7858   0.603   2.090   6.179 -0.2764 -0.5957  0.1523
 2320SOL    HW1 7859   0.656   2.018   6.134  1.8217  0.7262  0.3614
 2320SOL    HW2 7860   0.616   2.177   6.130 -2.4867 -0.2571  0.0888
 2321SOL     OW 7861   1.694   4.027   5.914  0.6837  0.2092  0.8460
 2321SOL    HW1 7862   1.617   4.081   5.949 -0.4263 -1.3231  0.8668
 2321SOL    HW2 7863   1.660   3.948   5.865  2.2699 -0.2391  0.4054
 2322SOL     OW 7864   2.585   1.860   3.501  0.1067 -0.1554  0.5602
 2322SOL    HW1 7865   2.633   1.774   3.484  0.2301 -0.1201  0.7283
 2322SOL    HW2 7866   2.487   1.847   3.486  0.1703 -0.2241  0.2063
 2323SOL     OW 7867   3.174   6.164   5.336  0.3404  0.0109 -0.1838
 2323SOL    HW1 7868   3.150   6.084   5.391  0.7391 -0.8516 -1.2342
 2323SOL    HW2 7869   3.269   6.189   5.355  0.7848 -0.8668 -1.1265
 2324SOL     OW 7870   0.615   4.047   0.477  0.6283 -0.1082  0.0134
 2324SOL    HW1 7871   0.633   4.008   0.387  1.3906 -1.6462  0.8066
 2324SOL    HW2 7872   0.663   3.994   0.547 -0.3753  0.7389  1.3873
 2325SOL     OW 7873   0.195   4.428   3.914  0.5931  0.2281 -0.4869
 2325SOL    HW1 7874   0.114   4.485   3.925 -0.7928 -1.6936 -0.0668
 2325SOL    HW2 7875   0.201   4.396   3.819  0.2597 -0.3959 -0.3116
 2326SOL     OW 7876   3.527   0.381   6.386  0.2216 -0.2303  0.0307
 2326SOL    HW1 7877   3.503   0.449   6.455 -1.0332 -2.3244  1.7898
 2326SOL    HW2 7878   3.458   0.382   6.313 -0.0177  0.1080  0.2598
 2327SOL     OW 7879   5.767   0.267   0.648 -0.4152  0.3000  0.0141
 2327SOL    HW1 7880   5.822   0.344   0.682 -1.6363  0.6779  1.2211
 2327SOL    HW2 7881   5.715   0.296   0.568  1.3300 -0.1558 -1.3492
 2328SOL     OW 7882   2.242   5.171   1.763 -0.7261  0.0568 -0.0889
 2328SOL    HW1 7883   2.270   5.265   1.782 -2.0559  0.0798  2.0072
 2328SOL    HW2 7884   2.320   5.110   1.776 -0.2489  0.6939  0.0968
 2329SOL     OW 7885   0.406   4.170   1.755  0.0618  0.3099 -0.3170
 2329SOL    HW1 7886   0.421   4.132   1.846  1.1907  3.1959  0.8377
 2329SOL    HW2 7887   0.470   4.129   1.691 -0.6572 -1.6766  0.1852
 2330SOL     OW 7888   6.650   4.185   1.416  0.2272  0.2538 -0.3499
 2330SOL    HW1 7889   6.620   4.116   1.351  0.0284  0.7007 -0.7409
 2330SOL    HW2 7890   6.736   4.226   1.384 -0.4218  1.2240 -0.8940
 2331SOL     OW 7891   5.035   4.674   1.627 -0.7641 -0.3132 -0.1017
 2331SOL    HW1 7892   4.961   4.661   1.692 -2.3217 -2.3505 -2.1317
 2331SOL    HW2 7893   5.050   4.772   1.613 -2.4396  0.1446  1.0150
 2332SOL     OW 7894   6.326   1.012   0.164 -0.6378 -0.0186  0.6889
 2332SOL    HW1 7895   6.280   1.042   0.248 -1.4462  2.3772 -0.5158
 2332SOL    HW2 7896   6.424   1.009   0.180 -0.7565  0.6590  1.6615
 2333SOL     OW 7897   6.992   5.073   1.134  0.1097 -0.1740  0.5214
 2333SOL    HW1 7898   7.029   5.122   1.214 -0.1902  0.0364  0.5336
 2333SOL    HW2 7899   7.052   4.997   1.110 -0.1445 -0.6511  1.3595
 2334SOL     OW 7900   4.304   2.083   5.385 -0.0886 -0.2713 -0.1949
 2334SOL    HW1 7901   4.204   2.080   5.390 -0.2100  0.2494 -1.8109
 2334SOL    HW2 7902   4.336   2.024   5.312  0.5510  1.8017 -1.6861
 2335SOL     OW 7903   4.186   0.872   2.823 -0.4295  0.5803  0.2579
 2335SOL    HW1 7904   4.227   0.914   2.904  0.1980  0.8511 -0.1924
 2335SOL    HW2 7905   4.165   0.943   2.756  1.0088  0.1722 -0.6740
 2336SOL     OW 7906   2.090   1.803   3.073 -0.2219 -0.1121 -0.0849
 2336SOL    HW1 7907   2.168   1.746   3.047 -0.2268  1.0848 -3.1695
 2336SOL    HW2 7908   2.015   1.789   3.009 -1.4200  1.0038  1.0159
 2337SOL     OW 7909   5.262   6.837   1.847  0.1764  0.3590  0.1321
 2337SOL    HW1 7910   5.199   6.765   1.817  2.2448 -1.4614 -0.0496
 2337SOL    HW2 7911   5.233   6.924   1.807 -0.3110 -0.9974 -2.7421
 2338SOL     OW 7912   6.849   1.839   4.499  0.7928  0.5054 -0.3182
 2338SOL    HW1 7913   6.750   1.845   4.496  0.7320  0.2947  0.8588
 2338SOL    HW2 7914   6.882   1.861   4.591  1.7053 -1.0642 -0.2190
 2339SOL     OW 7915   4.023   3.429   1.913 -0.1525 -0.2809 -0.2204
 2339SOL    HW1 7916   4.022   3.501   1.983 -1.5902  1.0096 -1.4916
 2339SOL    HW2 7917   4.104   3.440   1.855  0.5823 -0.8327  0.6532
 2340SOL     OW 7918   2.344   5.777   6.542  0.2467 -0.1493  0.5543
 2340SOL    HW1 7919   2.274   5.714   6.510  0.4679  0.0856 -0.4049
 2340SOL    HW2 7920   2.406   5.729   6.605 -0.4511 -0.4912  0.9907
 2341SOL     OW 7921   2.724   5.255   2.297  0.3089  0.2504  0.3888
 2341SOL    HW1 7922   2.786   5.278   2.372  0.3915  0.9202  0.1216
 2341SOL    HW2 7923   2.656   5.328   2.287  0.2219  0.1008 -0.1021
 2342SOL     OW 7924   4.371   1.363   5.163  0.1666 -0.0281 -0.0449
 2342SOL    HW1 7925   4.334   1.375   5.071 -1.2136  0.0427  0.5038
 2342SOL    HW2 7926   4.421   1.277   5.167 -0.4470 -0.4269 -0.6533
 2343SOL     OW 7927   6.428   0.262   1.322  0.4289 -0.0235  0.5294
 2343SOL    HW1 7928   6.424   0.349   1.370  0.1233  0.6277 -0.6293
 2343SOL    HW2 7929   6.383   0.191   1.377  1.0977  0.4298  1.6962
 2344SOL     OW 7930   6.344   6.569   0.812  0.5144 -0.1620 -0.3527
 2344SOL    HW1 7931   6.371   6.500   0.879  0.4617  0.0964 -0.0620
 2344SOL    HW2 7932   6.333   6.657   0.858 -1.0987 -0.3079 -0.4052
 2345SOL     OW 7933   2.586   7.017   4.784 -0.3392 -0.1715  0.4073
 2345SOL    HW1 7934   2.556   6.967   4.702 -0.3115 -0.5218  0.6090
 2345SOL    HW2 7935   2.685   7.008   4.794 -0.3770 -0.3565  0.6264
 2346SOL     OW 7936   6.166   3.760   2.558  0.1475 -0.0578  0.5372
 2346SOL    HW1 7937   6.246   3.732   2.611 -0.2414 -1.3315  0.4844
 2346SOL    HW2 7938   6.137   3.685   2.499 -0.1071  0.9564 -0.6632
 2347SOL     OW 7939   3.081   1.259   0.574  0.1441 -0.2029 -0.6463
 2347SOL    HW1 7940   3.150   1.331   0.576  0.1198 -0.1728 -0.8410
 2347SOL    HW2 7941   3.074   1.217   0.664  0.0318  0.1588 -0.4865
 2348SOL     OW 7942   1.531   4.967   0.283  0.0989 -0.3749 -0.0285
 2348SOL    HW1 7943   1.438   4.939   0.306  0.3789 -2.8659 -1.4874
 2348SOL    HW2 7944   1.570   5.020   0.358 -1.9153 -0.6936  1.3247
 2349SOL     OW 7945   0.797   6.336   3.971 -0.2012 -0.0647  0.3537
 2349SOL    HW1 7946   0.743   6.414   4.003  1.1935  0.9996  0.1750
 2349SOL    HW2 7947   0.850   6.363   3.891  1.6935 -0.6567  1.3581
 2350SOL     OW 7948   5.967   2.813   0.774 -0.7658  0.1518 -0.2519
 2350SOL    HW1 7949   5.938   2.905   0.800  0.4315  0.3185  0.5589
 2350SOL    HW2 7950   5.924   2.746   0.834  0.5659  0.4074  1.0416
 2351SOL     OW 7951   1.876   5.458   0.747 -0.5764 -0.4391 -0.8196
 2351SOL    HW1 7952   1.831   5.529   0.801  0.1297 -0.3333 -0.3575
 2351SOL    HW2 7953   1.893   5.378   0.805  0.2747 -0.2881 -0.8408
 2352SOL     OW 7954   0.695   0.309   2.683  0.8137 -0.1420  0.2748
 2352SOL    HW1 7955   0.757   0.387   2.679  0.6220  0.1095  1.6149
 2352SOL    HW2 7956   0.746   0.225   2.662  0.9218  0.3606 -1.6171
 2353SOL     OW 7957   4.796   0.668   4.421 -0.3439 -0.0769 -0.8090
 2353SOL    HW1 7958   4.890   0.634   4.424 -0.0993  0.4560 -2.1258
 2353SOL    HW2 7959   4.787   0.737   4.350 -0.9225  2.4194  1.5169
 2354SOL     OW 7960   2.059   0.105   5.631 -0.4726 -0.0810 -0.2810
 2354SOL    HW1 7961   1.987   0.058   5.580  1.6290 -1.1943 -2.4044
 2354SOL    HW2 7962   2.079   0.054   5.714 -0.2856 -1.3075 -1.0521
 2355SOL     OW 7963   3.461   5.086   2.448  0.1237 -0.0993 -0.8690
 2355SOL    HW1 7964   3.481   5.153   2.376 -1.9323 -0.5579 -1.9342
 2355SOL    HW2 7965   3.523   5.008   2.439  0.7570  0.4408 -1.2985
 2356SOL     OW 7966   0.251   3.468   1.367  0.0430  0.0957 -0.0618
 2356SOL    HW1 7967   0.333   3.412   1.379  0.4418  0.8175  0.6874
 2356SOL    HW2 7968   0.179   3.413   1.324 -0.0218 -1.4198  1.8513
 2357SOL     OW 7969   1.937   6.591   1.874 -0.1653  0.2541  0.3642
 2357SOL    HW1 7970   1.845   6.585   1.836  0.1145 -0.3621 -0.2460
 2357SOL    HW2 7971   1.985   6.670   1.835  0.4297 -0.8757 -1.3251
 2358SOL     OW 7972   2.965   6.159   3.719 -0.1123 -0.0974 -0.4852
 2358SOL    HW1 7973   2.983   6.098   3.641 -1.1322 -0.2092 -0.6471
 2358SOL    HW2 7974   3.002   6.249   3.699  0.1828 -0.2918 -0.8407
 2359SOL     OW 7975   6.778   0.562   5.937  0.6480 -0.0644  0.4162
 2359SOL    HW1 7976   6.846   0.595   5.872  0.5672 -1.1128 -0.2229
 2359SOL    HW2 7977   6.797   0.467   5.960  0.7643  0.3265  2.0677
 2360SOL     OW 7978   5.581   3.542   0.253  0.2953  0.1345 -0.1017
 2360SOL    HW1 7979   5.580   3.459   0.309 -0.8451  0.9751  1.2067
 2360SOL    HW2 7980   5.531   3.526   0.168 -1.5499 -0.0633  0.9520
 2361SOL     OW 7981   2.305   1.808   1.547  0.0282  0.0598 -0.0497
 2361SOL    HW1 7982   2.305   1.888   1.607 -0.3860  0.2046 -0.2386
 2361SOL    HW2 7983   2.327   1.835   1.454 -0.3472 -0.0070 -0.1600
 2362SOL     OW 7984   3.304   6.133   4.595  0.1861  0.4812  0.2802
 2362SOL    HW1 7985   3.383   6.188   4.568  0.2160 -0.4727 -1.7963
 2362SOL    HW2 7986   3.231   6.145   4.528  0.2954 -2.1429 -0.4472
 2363SOL     OW 7987   3.249   1.350   6.036 -0.2215 -0.2243 -0.2879
 2363SOL    HW1 7988   3.279   1.445   6.038 -1.0747  0.0473  0.9250
 2363SOL    HW2 7989   3.284   1.302   6.116 -2.2813 -0.0821  0.7810
 2364SOL     OW 7990   1.756   2.360   1.103  0.3543 -0.7039  0.5004
 2364SOL    HW1 7991   1.851   2.384   1.084 -0.1315 -0.1030 -1.4521
 2364SOL    HW2 7992   1.749   2.261   1.120  1.0971 -1.1150 -1.3334
 2365SOL     OW 7993   5.485   2.174   2.848  0.0812 -0.2222 -0.2905
 2365SOL    HW1 7994   5.560   2.171   2.913  1.3690  0.3580 -1.6874
 2365SOL    HW2 7995   5.423   2.097   2.865  0.4044 -0.1232  1.5304
 2366SOL     OW 7996   4.213   4.325   6.568  1.0357 -0.0510  0.1532
 2366SOL    HW1 7997   4.133   4.376   6.599  0.3872 -0.9848  0.0534
 2366SOL    HW2 7998   4.245   4.266   6.642  0.1957 -1.4134 -0.5220
 2367SOL     OW 7999   1.622   3.048   0.333 -0.0414  0.1567  0.4849
 2367SOL    HW1 8000   1.593   2.991   0.256 -1.3494  1.1382  0.2018
 2367SOL    HW2 8001   1.542   3.074   0.387  0.5853  1.2908  0.9032
 2368SOL     OW 8002   5.420   6.858   3.214  1.4113  0.0435 -0.2422
 2368SOL    HW1 8003   5.377   6.868   3.304  0.7682 -1.3212 -0.3686
 2368SOL    HW2 8004   5.401   6.939   3.158  0.5042  0.2321  0.3218
 2369SOL     OW 8005   2.845   2.248   2.696  0.3854 -0.1080 -0.2153
 2369SOL    HW1 8006   2.870   2.308   2.772  0.4637 -0.3252 -0.0670
 2369SOL    HW2 8007   2.919   2.245   2.629  0.9451 -1.0569  0.4129
 2370SOL     OW 8008   4.988   3.858   6.914  0.4425 -0.0937  0.6033
 2370SOL    HW1 8009   4.961   3.934   6.973  0.4780  0.0540  0.4290
 2370SOL    HW2 8010   5.045   3.893   6.839 -1.3358  0.0292 -0.7367
 2371SOL     OW 8011   6.976   4.993   6.867 -0.4792 -0.3407  0.5681
 2371SOL    HW1 8012   6.971   4.904   6.912  0.7427 -1.1848 -0.8936
 2371SOL    HW2 8013   6.960   4.982   6.769  0.3376  0.9487  0.2649
 2372SOL     OW 8014   5.112   1.583   5.440  0.0560 -0.1821 -0.2527
 2372SOL    HW1 8015   5.209   1.576   5.464  0.3241  0.0021 -1.2402
 2372SOL    HW2 8016   5.076   1.492   5.419 -0.2824 -0.3973  1.1801
 2373SOL     OW 8017   2.576   2.731   1.303 -0.0329 -0.1987 -0.1424
 2373SOL    HW1 8018   2.534   2.694   1.220 -0.0501 -1.1279  0.2604
 2373SOL    HW2 8019   2.589   2.657   1.369  0.3463  0.4549  0.5326
 2374SOL     OW 8020   4.380   2.127   3.632  0.2094  0.7546 -0.1047
 2374SOL    HW1 8021   4.357   2.046   3.687 -1.8899  0.5610 -1.1336
 2374SOL    HW2 8022   4.469   2.114   3.589 -0.1050 -1.0896 -0.3072
 2375SOL     OW 8023   1.457   5.489   5.749  0.0063  0.2576 -0.2807
 2375SOL    HW1 8024   1.433   5.443   5.834 -1.6318 -2.8651 -2.2421
 2375SOL    HW2 8025   1.410   5.578   5.744 -0.5195  0.1262  1.6694
 2376SOL     OW 8026   0.227   1.125   3.945  0.4814  0.1260 -0.1451
 2376SOL    HW1 8027   0.135   1.135   3.907  0.3888  0.0762  0.0667
 2376SOL    HW2 8028   0.295   1.139   3.872  0.3106  0.3598 -0.2591
 2377SOL     OW 8029   4.053   3.690   4.026 -0.3766  0.8699 -0.3808
 2377SOL    HW1 8030   3.957   3.713   4.012 -0.4710  0.1001 -1.0139
 2377SOL    HW2 8031   4.081   3.721   4.118 -1.2859  0.8728 -0.0943
 2378SOL     OW 8032   4.637   2.066   0.636 -0.1157 -0.1978 -0.0694
 2378SOL    HW1 8033   4.606   1.979   0.675 -2.1881 -0.2955 -1.7680
 2378SOL    HW2 8034   4.684   2.048   0.549 -0.5639  0.3545 -0.4340
 2379SOL     OW 8035   0.783   0.284   6.637 -0.6502  0.5200  0.0754
 2379SOL    HW1 8036   0.720   0.331   6.698  0.1224  1.5576  0.0964
 2379SOL    HW2 8037   0.768   0.315   6.543  0.5664  1.6423  0.2238
 2380SOL     OW 8038   6.527   0.742   4.931  0.3773 -0.2780  0.4169
 2380SOL    HW1 8039   6.504   0.776   5.022 -0.5280  0.8472 -0.2083
 2380SOL    HW2 8040   6.505   0.811   4.862  0.2390 -1.4128 -0.7375
 2381SOL     OW 8041   1.459   0.028   3.012 -0.0916  0.1655 -0.1853
 2381SOL    HW1 8042   1.403   0.073   2.943 -0.4356  0.7934  0.4928
 2381SOL    HW2 8043   1.401  -0.031   3.068 -0.4105  2.0345  1.5437
 2382SOL     OW 8044   0.169   1.945   6.818  1.2591 -0.0644 -0.1908
 2382SOL    HW1 8045   0.190   1.865   6.875 -0.0310 -0.5670 -0.3900
 2382SOL    HW2 8046   0.180   1.920   6.721 -0.3767 -0.4222 -0.3164
 2383SOL     OW 8047   5.080   2.993   2.283  0.6166  0.2992 -0.1981
 2383SOL    HW1 8048   4.983   3.005   2.264  0.2838  1.3740  1.8721
 2383SOL    HW2 8049   5.132   3.067   2.239  0.4769 -0.1216 -1.0790
 2384SOL     OW 8050   3.725   2.497   1.550 -0.1470  0.4727 -0.6617
 2384SOL    HW1 8051   3.737   2.532   1.643 -0.6702  0.2541 -0.5104
 2384SOL    HW2 8052   3.769   2.560   1.486  2.8660 -0.8537 -0.0917
 2385SOL     OW 8053   2.434   2.973   1.122  0.8557  0.4378 -0.1881
 2385SOL    HW1 8054   2.484   2.899   1.078  3.0837  2.1848 -0.7638
 2385SOL    HW2 8055   2.404   2.944   1.213  0.5002 -1.5616 -0.9098
 2386SOL     OW 8056   4.753   5.014   3.680  0.6000 -0.0183 -0.3506
 2386SOL    HW1 8057   4.680   4.987   3.618  2.6405 -0.3911 -2.7386
 2386SOL    HW2 8058   4.726   4.995   3.774 -2.6833  0.7354 -1.0452
 2387SOL     OW 8059   1.725   1.383   2.940 -0.2535 -0.0456 -0.0646
 2387SOL    HW1 8060   1.637   1.431   2.944  0.3459  1.0209  0.5391
 2387SOL    HW2 8061   1.781   1.408   3.018  0.5288 -0.8646 -0.3445
 2388SOL     OW 8062   6.915   1.188   4.433  0.1128 -0.1089  0.4939
 2388SOL    HW1 8063   6.974   1.217   4.357  0.2371  1.4550  1.1527
 2388SOL    HW2 8064   6.969   1.138   4.500  0.0144 -1.4509 -0.3982
 2389SOL     OW 8065   2.782   6.448   2.226 -0.3330  0.2353 -0.1870
 2389SOL    HW1 8066   2.714   6.503   2.177 -0.2189 -0.4648 -1.1651
 2389SOL    HW2 8067   2.867   6.499   2.234 -0.5922  0.6448 -0.0604
 2390SOL     OW 8068   2.659   6.582   0.871 -0.2216  0.2943  0.4402
 2390SOL    HW1 8069   2.609   6.497   0.890 -0.7469 -0.2538 -2.7998
 2390SOL    HW2 8070   2.600   6.660   0.891 -1.5009 -0.2792 -0.8606
 2391SOL     OW 8071   3.994   4.921   4.729  0.0263 -0.5202 -0.2489
 2391SOL    HW1 8072   4.021   4.887   4.819 -1.0939  0.2511  0.3991
 2391SOL    HW2 8073   3.981   5.020   4.733  0.2968 -0.4288 -1.3519
 2392SOL     OW 8074   4.122   2.651   0.654  0.1264  0.0358 -0.3021
 2392SOL    HW1 8075   4.208   2.699   0.672  0.3108 -0.0138 -1.0489
 2392SOL    HW2 8076   4.141   2.560   0.617 -0.2447  0.0271 -0.4792
 2393SOL     OW 8077   3.155   6.431   5.307  0.1414 -0.0920  0.2021
 2393SOL    HW1 8078   3.241   6.472   5.276  0.5500  0.2872  1.7305
 2393SOL    HW2 8079   3.156   6.332   5.290  0.9704 -0.1197  0.3980
 2394SOL     OW 8080   6.459   5.793   5.314  0.3287 -0.2376  0.4804
 2394SOL    HW1 8081   6.443   5.886   5.283  1.3594  0.3375  1.6071
 2394SOL    HW2 8082   6.526   5.748   5.255 -0.9816 -0.6899 -0.7418
 2395SOL     OW 8083   3.904   5.261   6.468  0.0201  0.4047 -0.0791
 2395SOL    HW1 8084   3.906   5.359   6.453  0.1061  0.1227 -2.2410
 2395SOL    HW2 8085   3.895   5.214   6.380 -0.7834 -1.5065  0.9600
 2396SOL     OW 8086   2.377   1.757   5.864 -0.0274 -0.0722 -0.5277
 2396SOL    HW1 8087   2.444   1.767   5.790 -0.0969  2.0615 -0.3561
 2396SOL    HW2 8088   2.335   1.846   5.883 -2.2168 -1.1664  0.0387
 2397SOL     OW 8089   6.665   3.713   4.862 -0.2394 -0.2602  0.3148
 2397SOL    HW1 8090   6.573   3.733   4.829 -0.2419  1.3181  1.2121
 2397SOL    HW2 8091   6.722   3.683   4.785 -1.6001 -1.7743 -0.1635
 2398SOL     OW 8092   3.850   4.771   6.402 -0.3626  0.1906 -0.4001
 2398SOL    HW1 8093   3.869   4.822   6.486 -0.1877  2.3582 -1.6676
 2398SOL    HW2 8094   3.920   4.794   6.333  0.5184 -2.8466 -0.6649
 2399SOL     OW 8095   6.805   1.302   2.100 -0.2495  0.2061  0.4448
 2399SOL    HW1 8096   6.711   1.271   2.115 -0.5434  0.9147  0.0767
 2399SOL    HW2 8097   6.805   1.389   2.052  0.5912  0.4989  0.9540
 2400SOL     OW 8098   3.974   4.102   6.162 -0.2647  0.2897  0.1286
 2400SOL    HW1 8099   3.931   4.187   6.194 -0.9553  0.6731 -1.7062
 2400SOL    HW2 8100   3.962   4.094   6.063 -0.7552 -2.2462  0.3217
 2401SOL     OW 8101   6.246   0.254   1.129 -0.0523  0.6006 -0.3117
 2401SOL    HW1 8102   6.264   0.329   1.065  1.4991 -1.6573 -2.7177
 2401SOL    HW2 8103   6.316   0.254   1.199 -1.0461  2.3390  0.7772
 2402SOL     OW 8104   6.241   1.104   4.424  0.0598 -0.0358  0.0610
 2402SOL    HW1 8105   6.183   1.130   4.348 -0.0387 -0.5336 -0.0356
 2402SOL    HW2 8106   6.304   1.031   4.395 -0.7097 -0.9918  0.7447
 2403SOL     OW 8107   1.940   1.139   3.371 -0.0332  0.0907  0.0651
 2403SOL    HW1 8108   2.001   1.089   3.432  0.9109  0.8485 -0.2259
 2403SOL    HW2 8109   1.959   1.237   3.378 -2.3102  0.5128  1.1319
 2404SOL     OW 8110   0.138   0.539   5.847 -0.3077  0.3624 -0.4314
 2404SOL    HW1 8111   0.077   0.585   5.783 -0.6700  0.8279  0.2379
 2404SOL    HW2 8112   0.099   0.542   5.939 -1.2059 -2.8316 -0.5938
 2405SOL     OW 8113   2.880   3.698   0.990  0.5664  0.6768  0.3618
 2405SOL    HW1 8114   2.788   3.736   0.981  0.6449  0.7081 -0.4084
 2405SOL    HW2 8115   2.920   3.687   0.899  0.5153 -1.3162  0.5288
 2406SOL     OW 8116   5.391   2.336   3.150 -0.0419 -0.2727 -0.3348
 2406SOL    HW1 8117   5.406   2.285   3.235 -0.0084  1.1077  0.5089
 2406SOL    HW2 8118   5.470   2.394   3.131 -0.9412  1.0764 -0.1089
 2407SOL     OW 8119   4.539   6.106   4.203 -0.0136 -0.2662  0.3808
 2407SOL    HW1 8120   4.576   6.018   4.174  2.3478  0.6447  0.3381
 2407SOL    HW2 8121   4.595   6.142   4.278 -0.8674  1.2388  0.3341
 2408SOL     OW 8122   4.175   3.899   1.850 -0.2290  0.1316  0.1009
 2408SOL    HW1 8123   4.268   3.935   1.836  0.6206 -1.3736  1.4970
 2408SOL    HW2 8124   4.136   3.937   1.934 -0.2408 -0.3806  0.3376
 2409SOL     OW 8125   0.679   1.523   1.410  0.2882  0.1624 -0.8792
 2409SOL    HW1 8126   0.769   1.556   1.439  0.7426 -2.4285  1.0164
 2409SOL    HW2 8127   0.656   1.564   1.321  2.9295  1.5627 -1.0289
 2410SOL     OW 8128   2.981   3.262   3.858  0.0791  0.0466 -0.2523
 2410SOL    HW1 8129   3.015   3.192   3.795  1.2572 -0.4040  0.8603
 2410SOL    HW2 8130   2.982   3.226   3.951  2.2022  2.0286  0.5665
 2411SOL     OW 8131   2.891   0.675   3.590 -0.3007  0.0354 -0.2563
 2411SOL    HW1 8132   2.962   0.744   3.603 -1.9545  1.7555  0.1218
 2411SOL    HW2 8133   2.916   0.591   3.638  1.0713  0.8793  0.5592
 2412SOL     OW 8134   4.279   3.086   0.465  0.1872 -0.7182 -0.6138
 2412SOL    HW1 8135   4.288   2.992   0.432  2.0599 -0.8385  0.1193
 2412SOL    HW2 8136   4.187   3.099   0.502  0.2611 -2.6477  0.4087
 2413SOL     OW 8137   4.641   1.725   3.175 -0.2208  0.8745 -0.4166
 2413SOL    HW1 8138   4.577   1.692   3.245  1.5539 -0.8207  0.4977
 2413SOL    HW2 8139   4.594   1.729   3.087 -1.6039 -0.2698  0.2261
 2414SOL     OW 8140   4.427   2.070   4.724 -0.0722 -0.0953  0.2442
 2414SOL    HW1 8141   4.425   2.063   4.624 -0.0050 -2.4531  0.3640
 2414SOL    HW2 8142   4.522   2.071   4.755 -0.0796  1.2813  0.2834
 2415SOL     OW 8143   4.064   5.939   4.006  0.0537  0.2857 -0.1631
 2415SOL    HW1 8144   4.067   5.847   4.045 -0.4068  1.3219  2.5132
 2415SOL    HW2 8145   4.156   5.977   4.003 -0.0349  0.6576  1.1997
 2416SOL     OW 8146   5.748   2.731   5.303 -0.3086 -0.3943  0.0089
 2416SOL    HW1 8147   5.819   2.690   5.246 -0.9335 -0.3494 -0.8274
 2416SOL    HW2 8148   5.668   2.671   5.306 -0.0535 -0.7003  1.3839
 2417SOL     OW 8149   3.395   2.883   4.672  0.3810  0.6371 -0.3164
 2417SOL    HW1 8150   3.326   2.914   4.737  0.4900  1.3668 -0.5422
 2417SOL    HW2 8151   3.452   2.812   4.714  0.8548  1.5390  0.5974
 2418SOL     OW 8152   3.811   3.803   1.563 -0.1084  0.1025 -0.0026
 2418SOL    HW1 8153   3.743   3.835   1.630  0.4688 -1.1316  1.2283
 2418SOL    HW2 8154   3.900   3.796   1.607  0.1806 -1.2456 -0.7458
 2419SOL     OW 8155   6.276   0.282   4.781  0.3080 -0.2808  0.4237
 2419SOL    HW1 8156   6.211   0.335   4.835 -0.2138 -1.3456  0.8672
 2419SOL    HW2 8157   6.367   0.289   4.822  0.0764 -0.4103  0.9685
 2420SOL     OW 8158   2.074   1.324   0.893 -0.2982 -0.2229 -0.3569
 2420SOL    HW1 8159   2.128   1.253   0.938 -0.1306  1.0231  1.5246
 2420SOL    HW2 8160   2.115   1.347   0.805  1.1902 -0.5617  0.2257
 2421SOL     OW 8161   4.369   2.476   1.918 -0.3793 -0.1964  0.0649
 2421SOL    HW1 8162   4.292   2.418   1.892  1.0934 -1.8075 -0.9496
 2421SOL    HW2 8163   4.394   2.534   1.841 -0.0311 -0.3280  0.0758
 2422SOL     OW 8164   5.467   6.993   0.427 -0.9437 -0.4011 -0.0239
 2422SOL    HW1 8165   5.492   6.897   0.423 -0.3288 -0.3009  1.1572
 2422SOL    HW2 8166   5.548   7.049   0.445 -1.0661  0.4748 -1.9516
 2423SOL     OW 8167   6.763   3.813   0.671 -0.1356 -0.4164 -0.3301
 2423SOL    HW1 8168   6.697   3.769   0.611 -0.7170  1.8404 -1.4577
 2423SOL    HW2 8169   6.717   3.842   0.755 -0.0578 -0.7735 -0.1626
 2424SOL     OW 8170   5.955   5.750   6.603  0.5890  0.2993  0.3389
 2424SOL    HW1 8171   6.002   5.826   6.559  1.1133 -0.7216 -0.9227
 2424SOL    HW2 8172   5.880   5.719   6.545  0.8496 -0.6254  0.4762
 2425SOL     OW 8173   6.976   0.919   2.882 -0.3807 -0.1974 -0.3455
 2425SOL    HW1 8174   7.009   0.950   2.971  0.3002  1.8522 -1.2651
 2425SOL    HW2 8175   6.993   0.821   2.872  3.2650  0.2697  0.1913
 2426SOL     OW 8176   0.957   4.749   4.930  0.3332 -0.2390  0.3682
 2426SOL    HW1 8177   0.911   4.819   4.984 -0.8221 -1.0955  0.5229
 2426SOL    HW2 8178   0.891   4.681   4.899  1.2342 -0.6373 -0.7822
 2427SOL     OW 8179   6.437   3.250   5.588 -1.2048 -0.3165  0.2294
 2427SOL    HW1 8180   6.398   3.161   5.565 -1.3321 -0.1966 -0.0174
 2427SOL    HW2 8181   6.398   3.282   5.674  0.2951 -1.4041  1.3762
 2428SOL     OW 8182   3.952   2.509   1.185 -0.9583 -0.0127  0.3245
 2428SOL    HW1 8183   3.915   2.519   1.093 -0.4319 -0.7502  0.0217
 2428SOL    HW2 8184   3.911   2.430   1.230  1.2661 -1.8058 -0.5841
 2429SOL     OW 8185   5.065   4.026   3.024 -0.4996  0.8230 -0.1796
 2429SOL    HW1 8186   4.972   3.997   3.004 -0.9395  0.6592  1.8931
 2429SOL    HW2 8187   5.064   4.111   3.077  0.5224  0.7736 -0.0451
 2430SOL     OW 8188   1.969   5.618   2.293  0.3774 -0.1427 -0.4102
 2430SOL    HW1 8189   1.880   5.583   2.323  0.0976 -0.1753 -1.2443
 2430SOL    HW2 8190   2.036   5.543   2.293  0.5508  0.0010  0.7488
 2431SOL     OW 8191   4.548   6.010   2.583  0.4489 -0.1836 -0.3238
 2431SOL    HW1 8192   4.516   6.071   2.511  0.7132 -1.1947 -1.3261
 2431SOL    HW2 8193   4.483   6.010   2.659 -0.4904 -0.0730 -1.1141
 2432SOL     OW 8194   2.011   5.822   3.535  0.5873  0.5136 -0.2834
 2432SOL    HW1 8195   1.931   5.845   3.591 -0.1402 -1.8067 -0.2586
 2432SOL    HW2 8196   2.019   5.888   3.461 -1.3064  0.8923 -0.2190
 2433SOL     OW 8197   6.088   5.673   0.683  0.3374  0.2284  0.1406
 2433SOL    HW1 8198   6.166   5.703   0.739  1.0716  0.0401 -0.7584
 2433SOL    HW2 8199   6.028   5.751   0.665  0.0892  0.2951  1.1643
 2434SOL     OW 8200   3.099   3.048   2.531  0.2925 -0.0450 -0.6493
 2434SOL    HW1 8201   3.110   3.002   2.443 -1.5747 -0.6847 -0.5835
 2434SOL    HW2 8202   3.050   3.135   2.517  1.7999  0.8728 -0.4754
 2435SOL     OW 8203   0.055   5.861   5.793  0.2626 -0.3231 -0.1278
 2435SOL    HW1 8204   0.123   5.800   5.754  0.8518 -0.4634  1.0725
 2435SOL    HW2 8205  -0.036   5.820   5.785  0.3511 -0.3120 -1.3771
 2436SOL     OW 8206   3.912   3.779   0.146  0.1522 -0.2644  0.3243
 2436SOL    HW1 8207   3.897   3.720   0.067  0.7632 -2.0682  1.5005
 2436SOL    HW2 8208   3.849   3.753   0.219 -1.0826  2.0198  0.1822
 2437SOL     OW 8209   5.425   0.753   5.938  0.0350  0.5413  0.4374
 2437SOL    HW1 8210   5.505   0.812   5.928  0.3267 -0.0969 -1.2760
 2437SOL    HW2 8211   5.419   0.692   5.859 -0.7104 -1.1719  1.7613
 2438SOL     OW 8212   5.020   2.335   0.568 -0.0315  0.4435 -0.1670
 2438SOL    HW1 8213   4.991   2.352   0.662  0.0633  0.6661 -0.1766
 2438SOL    HW2 8214   5.096   2.396   0.545  0.3719 -0.0523 -0.1769
 2439SOL     OW 8215   5.460   3.896   6.091 -0.3534  0.4383  0.3435
 2439SOL    HW1 8216   5.446   3.980   6.145  1.5773  0.3209  1.1237
 2439SOL    HW2 8217   5.469   3.818   6.153 -1.4712 -0.2713 -0.3527
 2440SOL     OW 8218   0.388   3.038   5.311 -0.6563  0.4199 -0.2468
 2440SOL    HW1 8219   0.349   2.980   5.382 -1.2115  1.3430  0.2251
 2440SOL    HW2 8220   0.429   3.119   5.352  1.3981 -0.2947 -0.7789
 2441SOL     OW 8221   5.715   3.249   1.947  0.1950  0.1348 -0.0395
 2441SOL    HW1 8222   5.650   3.306   1.897  0.3021  0.2946  0.0025
 2441SOL    HW2 8223   5.707   3.155   1.915  2.3088  0.6696 -2.5390
 2442SOL     OW 8224   6.253   1.749   0.162 -0.1471 -0.0963 -0.1076
 2442SOL    HW1 8225   6.168   1.723   0.208 -0.5420 -1.8845 -1.7077
 2442SOL    HW2 8226   6.244   1.733   0.064  2.2579 -1.0538 -0.2522
 2443SOL     OW 8227   3.716   3.968   6.505 -0.2627  0.0594  0.6638
 2443SOL    HW1 8228   3.671   3.895   6.452  0.6859 -0.5643  0.6876
 2443SOL    HW2 8229   3.793   3.930   6.555  0.2771  1.0977  0.6524
 2444SOL     OW 8230   3.102   4.036   4.494  0.4334  0.3009 -0.0548
 2444SOL    HW1 8231   3.168   4.071   4.428  1.1574 -0.5522  0.2059
 2444SOL    HW2 8232   3.060   4.112   4.543  3.1578  0.8072  1.6788
 2445SOL     OW 8233   1.167   1.439   6.653 -0.2470 -0.4553  0.3435
 2445SOL    HW1 8234   1.136   1.425   6.559 -1.1439 -1.3229  0.7446
 2445SOL    HW2 8235   1.264   1.462   6.653 -0.6875  1.7175 -0.9272
 2446SOL     OW 8236   5.767   1.166   6.822  0.0369 -0.7199  0.1595
 2446SOL    HW1 8237   5.717   1.181   6.907 -0.8103 -0.8807 -0.2998
 2446SOL    HW2 8238   5.732   1.084   6.776  1.1692 -1.2087  0.1442
 2447SOL     OW 8239   1.377   3.051   2.018 -0.2952 -0.1198  0.1654
 2447SOL    HW1 8240   1.438   3.113   1.969 -0.5827 -1.7712 -2.5216
 2447SOL    HW2 8241   1.421   2.962   2.028 -1.6438 -0.8896 -0.4321
 2448SOL     OW 8242   6.639   1.162   5.412 -0.0224  0.1001 -0.5918
 2448SOL    HW1 8243   6.666   1.150   5.508 -1.1306 -0.7551 -0.3732
 2448SOL    HW2 8244   6.721   1.178   5.357  0.6762  0.1442  0.4181
 2449SOL     OW 8245   0.173   2.194   5.337  0.3160  0.3615  0.8481
 2449SOL    HW1 8246   0.204   2.249   5.259  1.8358 -0.7894  0.5953
 2449SOL    HW2 8247   0.243   2.194   5.408 -0.3399  0.0175  1.5070
 2450SOL     OW 8248   2.479   5.691   0.676  0.3547  0.4320  0.1205
 2450SOL    HW1 8249   2.467   5.707   0.578  0.4033 -1.4361 -0.2424
 2450SOL    HW2 8250   2.575   5.669   0.694  0.5902  1.9123  0.8015
 2451SOL     OW 8251   4.279   5.182   2.427  0.0611  0.3013 -0.8122
 2451SOL    HW1 8252   4.322   5.211   2.512  0.1329 -1.5612 -0.1655
 2451SOL    HW2 8253   4.346   5.135   2.370 -0.5276 -0.4539 -0.8866
 2452SOL     OW 8254   3.941   1.195   1.391 -0.1810  0.5595 -0.2182
 2452SOL    HW1 8255   3.913   1.291   1.395 -2.0046  0.0214  1.3327
 2452SOL    HW2 8256   3.889   1.142   1.458  2.6363 -1.0897  0.8441
 2453SOL     OW 8257   2.273   3.619   1.675  0.1791 -0.7793 -0.2677
 2453SOL    HW1 8258   2.256   3.573   1.588  0.9736 -1.0558 -0.2848
 2453SOL    HW2 8259   2.289   3.550   1.746  0.8739 -0.5403 -0.1883
 2454SOL     OW 8260   1.455   1.323   6.878 -1.0247  0.2564  0.3092
 2454SOL    HW1 8261   1.364   1.283   6.890 -1.0083 -0.1311 -0.7073
 2454SOL    HW2 8262   1.451   1.390   6.804 -0.5075  0.3048  0.3277
 2455SOL     OW 8263   6.232   3.651   1.701 -0.1517  0.3994  0.1389
 2455SOL    HW1 8264   6.139   3.616   1.712  0.5279 -0.8100  2.9903
 2455SOL    HW2 8265   6.239   3.742   1.741 -0.2746  0.9034 -0.9359
 2456SOL     OW 8266   2.104   6.407   1.991  0.0112 -0.3899 -0.8253
 2456SOL    HW1 8267   2.034   6.462   1.947  1.6042  2.4060 -0.1325
 2456SOL    HW2 8268   2.149   6.461   2.062  2.5143 -2.2110 -0.8767
 2457SOL     OW 8269   0.013   5.476   1.368 -0.0422  0.1757 -0.1962
 2457SOL    HW1 8270   0.102   5.506   1.402  0.8352 -2.9533  0.6333
 2457SOL    HW2 8271   0.018   5.461   1.269  0.2837  0.2897 -0.1977
 2458SOL     OW 8272   0.657   0.281   1.127  0.1082  0.0204 -0.5125
 2458SOL    HW1 8273   0.614   0.331   1.202 -2.1006 -1.6043 -0.6015
 2458SOL    HW2 8274   0.736   0.230   1.162  0.1426  0.6319  0.3218
 2459SOL     OW 8275   3.085   2.692   1.301 -0.2001  0.0871 -0.0988
 2459SOL    HW1 8276   3.043   2.606   1.271 -2.7125  1.3249 -0.4072
 2459SOL    HW2 8277   3.135   2.733   1.224  1.8896 -1.4816  0.3153
 2460SOL     OW 8278   2.931   4.184   6.637 -0.1100 -0.3330  0.0228
 2460SOL    HW1 8279   2.882   4.155   6.555  0.5223 -0.3095 -0.3719
 2460SOL    HW2 8280   2.984   4.108   6.673 -0.9141 -0.5398  0.8184
 2461SOL     OW 8281   3.460   6.093   2.366 -0.1712  0.0015 -0.0995
 2461SOL    HW1 8282   3.461   6.111   2.464 -0.6259 -1.6419  0.2280
 2461SOL    HW2 8283   3.508   6.008   2.346  1.3388  1.1055 -1.5185
 2462SOL     OW 8284   2.521   5.551   6.209  0.2417  0.3813  0.2611
 2462SOL    HW1 8285   2.522   5.650   6.221  0.2047  0.4586 -0.3482
 2462SOL    HW2 8286   2.457   5.527   6.135  1.1987  0.0082 -0.4714
 2463SOL     OW 8287   6.786   3.046   0.295  0.3815  0.1807  0.0965
 2463SOL    HW1 8288   6.865   3.035   0.355 -0.1645 -1.7324  0.5581
 2463SOL    HW2 8289   6.743   3.134   0.312  0.9202  0.1678  1.6959
 2464SOL     OW 8290   1.335   4.417   6.922  0.5133 -0.2826 -0.4205
 2464SOL    HW1 8291   1.248   4.415   6.972  0.2112  0.0619 -0.9298
 2464SOL    HW2 8292   1.376   4.326   6.923  0.5713 -0.2589  0.5600
 2465SOL     OW 8293   5.402   4.081   6.877 -0.1355 -0.2280  0.9920
 2465SOL    HW1 8294   5.431   4.049   6.967  1.6826 -3.1310 -0.4576
 2465SOL    HW2 8295   5.331   4.021   6.841 -0.1045  0.2541  0.0905
 2466SOL     OW 8296   6.058   1.197   2.443 -0.0982 -0.1111  0.2940
 2466SOL    HW1 8297   6.071   1.125   2.512 -0.3058  0.0216  0.4751
 2466SOL    HW2 8298   6.056   1.286   2.489 -1.1586 -0.0881  0.2258
 2467SOL     OW 8299   2.424   2.087   5.008  0.9881  0.0087 -0.0044
 2467SOL    HW1 8300   2.376   2.084   5.096  2.0464  0.1094  0.6005
 2467SOL    HW2 8301   2.494   2.159   5.011  1.3227 -0.2753 -0.7833
 2468SOL     OW 8302   6.735   5.304   1.002  0.0098  0.4189  0.4424
 2468SOL    HW1 8303   6.753   5.325   0.906 -0.1143  1.2642  0.5978
 2468SOL    HW2 8304   6.769   5.212   1.023 -0.1866  0.1241 -0.4690
 2469SOL     OW 8305   2.627   2.968   6.093  0.0395  0.1082 -0.2605
 2469SOL    HW1 8306   2.585   2.929   6.175  2.5154  1.1758  1.6464
 2469SOL    HW2 8307   2.619   3.067   6.096  2.0705  0.3149 -0.0848
 2470SOL     OW 8308   6.896   3.330   1.589 -0.9429 -0.0801 -0.0545
 2470SOL    HW1 8309   6.917   3.256   1.524 -0.7767 -1.2952  1.3288
 2470SOL    HW2 8310   6.859   3.291   1.673 -2.2644  1.5516  0.1668
 2471SOL     OW 8311   1.284   2.472   4.409  0.0763 -0.5369  0.4886
 2471SOL    HW1 8312   1.299   2.391   4.352 -0.2446  0.1083 -0.5494
 2471SOL    HW2 8313   1.215   2.452   4.478  1.0079 -1.5643  1.1628
 2472SOL     OW 8314   0.426   6.295   4.320  0.3974  0.2737  0.0226
 2472SOL    HW1 8315   0.521   6.265   4.326  0.9653  1.9805  0.0623
 2472SOL    HW2 8316   0.390   6.310   4.412 -0.3045 -1.4412  0.0631
 2473SOL     OW 8317   0.484   5.940   5.278 -0.3514 -0.0536 -0.2112
 2473SOL    HW1 8318   0.487   6.026   5.227 -1.6323  0.5869  0.7285
 2473SOL    HW2 8319   0.550   5.944   5.352  0.7265 -0.5431 -1.1206
 2474SOL     OW 8320   5.503   0.264   3.761  0.1294 -0.1741 -0.7774
 2474SOL    HW1 8321   5.500   0.352   3.807 -2.0676  0.1129 -1.3355
 2474SOL    HW2 8322   5.597   0.228   3.762  0.6978  1.2186  1.1683
 2475SOL     OW 8323   2.953   3.556   0.281 -0.6031  0.3172  0.0464
 2475SOL    HW1 8324   3.001   3.595   0.359  1.8704 -0.8936 -0.7459
 2475SOL    HW2 8325   2.921   3.629   0.220  0.6505  1.1938  0.4031
 2476SOL     OW 8326   0.503   0.621   3.103  0.1869  0.3976  0.2722
 2476SOL    HW1 8327   0.548   0.533   3.122 -0.3653 -0.3747 -1.7543
 2476SOL    HW2 8328   0.465   0.619   3.011 -0.1420  2.6702  0.3199
 2477SOL     OW 8329   4.478   3.880   1.696 -0.3000  0.0526 -0.4462
 2477SOL    HW1 8330   4.456   3.966   1.650 -0.8776 -1.1999 -2.6190
 2477SOL    HW2 8331   4.577   3.866   1.696 -0.2276  0.5402 -0.3559
 2478SOL     OW 8332   4.172   5.386   2.090 -0.1418  0.0811  0.3535
 2478SOL    HW1 8333   4.088   5.334   2.101 -1.2950  0.5738 -4.1137
 2478SOL    HW2 8334   4.250   5.324   2.086 -0.6425 -0.6489  1.5659
 2479SOL     OW 8335   1.599   3.527   0.379  0.6582 -0.1537 -0.4529
 2479SOL    HW1 8336   1.505   3.505   0.407  0.6688  1.3101  0.8474
 2479SOL    HW2 8337   1.657   3.447   0.395 -0.2155 -0.8400 -0.5869
 2480SOL     OW 8338   0.230   4.130   1.110  0.4744  0.1942  0.1015
 2480SOL    HW1 8339   0.261   4.079   1.030  1.1212  0.3367  0.2521
 2480SOL    HW2 8340   0.140   4.169   1.092  0.8902  0.7843 -0.8136
 2481SOL     OW 8341   4.640   4.675   2.179 -0.3516  0.3289 -0.5026
 2481SOL    HW1 8342   4.653   4.583   2.142 -1.1628  0.6939 -1.7362
 2481SOL    HW2 8343   4.728   4.721   2.186  0.3111 -1.0688  1.6673
 2482SOL     OW 8344   3.826   1.272   4.390 -0.0250 -0.8829 -0.0979
 2482SOL    HW1 8345   3.866   1.217   4.316 -0.3884 -2.5032  0.8512
 2482SOL    HW2 8346   3.818   1.215   4.472 -1.1682  0.3894  0.7009
 2483SOL     OW 8347   1.532   2.890   0.135 -0.4507 -0.1332  0.3034
 2483SOL    HW1 8348   1.500   2.964   0.076  1.5815  0.9155  0.4285
 2483SOL    HW2 8349   1.538   2.805   0.083 -1.9397 -0.0210 -0.0795
 2484SOL     OW 8350   3.206   6.078   6.041 -0.4647 -0.1980 -0.6181
 2484SOL    HW1 8351   3.271   6.152   6.023 -0.8499  0.9082  1.9908
 2484SOL    HW2 8352   3.113   6.109   6.018 -0.4269 -0.5619 -1.2649
 2485SOL     OW 8353   0.070   4.902   0.401  0.4049 -0.0329  0.0826
 2485SOL    HW1 8354   0.040   4.809   0.378 -1.8248  0.7219 -0.3754
 2485SOL    HW2 8355   0.079   4.956   0.318  3.9235 -0.3602  0.1359
 2486SOL     OW 8356   0.537   4.313   2.890  0.4861  0.2910  0.3034
 2486SOL    HW1 8357   0.507   4.304   2.985  0.1009 -0.2863  0.1287
 2486SOL    HW2 8358   0.546   4.410   2.868 -1.0852  0.5017  0.4246
 2487SOL     OW 8359   2.537   3.611   1.178 -0.2061 -0.1798 -0.0190
 2487SOL    HW1 8360   2.605   3.566   1.236  0.4808  1.2659  0.3333
 2487SOL    HW2 8361   2.582   3.647   1.096 -0.2897  1.7319  0.7277
 2488SOL     OW 8362   2.677   0.252   6.992  0.2201 -0.3340  0.3627
 2488SOL    HW1 8363   2.661   0.199   7.075  1.3139  0.4856  1.1379
 2488SOL    HW2 8364   2.745   0.206   6.935 -0.5018 -0.8768 -0.0824
 2489SOL     OW 8365   2.875   6.348   5.212 -0.6774  0.2045  0.4002
 2489SOL    HW1 8366   2.967   6.369   5.244  0.3136 -0.8291 -1.5942
 2489SOL    HW2 8367   2.849   6.256   5.239  0.0662 -0.5812 -1.3896
 2490SOL     OW 8368   6.257   3.387   0.527 -0.4661 -0.4835 -0.1577
 2490SOL    HW1 8369   6.240   3.478   0.489  0.5697  0.0582  0.6233
 2490SOL    HW2 8370   6.201   3.320   0.479  1.4415 -0.0071 -3.3096
 2491SOL     OW 8371   0.652   4.702   6.493 -0.0703 -0.3641  0.3562
 2491SOL    HW1 8372   0.556   4.724   6.513 -0.1491  0.0238 -0.4138
 2491SOL    HW2 8373   0.683   4.757   6.415  1.0606  0.1842  1.1681
 2492SOL     OW 8374   3.702   1.583   0.221  0.5804 -0.4802  0.0948
 2492SOL    HW1 8375   3.644   1.510   0.186 -0.7050  0.9384 -0.9051
 2492SOL    HW2 8376   3.646   1.652   0.266  1.5006  0.8100 -0.6615
 2493SOL     OW 8377   4.748   0.811   4.643  0.2028  0.2192  0.0614
 2493SOL    HW1 8378   4.781   0.773   4.729  0.7295  1.7185  0.5632
 2493SOL    HW2 8379   4.731   0.737   4.578  1.1718 -0.8450  0.9699
 2494SOL     OW 8380   5.726   5.951   2.732  0.3261 -0.0772 -0.0944
 2494SOL    HW1 8381   5.670   6.012   2.786 -0.3938 -1.8574  1.2693
 2494SOL    HW2 8382   5.667   5.896   2.672  1.0251  1.1053 -1.9614
 2495SOL     OW 8383   6.759   0.312   2.055 -0.1488  0.0051  0.0078
 2495SOL    HW1 8384   6.821   0.354   1.989  0.4839  0.1281  0.6742
 2495SOL    HW2 8385   6.767   0.358   2.143 -1.2302  0.0589  0.0974
 2496SOL     OW 8386   6.964   5.043   5.727 -0.4992 -0.4846  0.0196
 2496SOL    HW1 8387   7.030   5.010   5.794  0.4534 -0.0367 -0.6753
 2496SOL    HW2 8388   6.982   5.000   5.638 -3.4149 -3.2121  0.5502
 2497SOL     OW 8389   4.648   2.525   5.759  0.5364  0.2288 -0.0020
 2497SOL    HW1 8390   4.608   2.435   5.742  0.7255 -0.2621  1.9433
 2497SOL    HW2 8391   4.732   2.515   5.812  0.7778  1.5322 -0.0997
 2498SOL     OW 8392   0.329   1.753   5.158 -0.3627  0.3067 -0.0525
 2498SOL    HW1 8393   0.426   1.729   5.150  0.2801  1.4036  3.2349
 2498SOL    HW2 8394   0.276   1.671   5.178 -0.1271 -0.2489 -1.5665
 2499SOL     OW 8395   5.432   1.154   6.197 -0.3275 -0.2422 -0.5501
 2499SOL    HW1 8396   5.509   1.098   6.166 -1.1218 -0.7214 -1.7031
 2499SOL    HW2 8397   5.350   1.098   6.206 -0.6554  0.3430  0.2686
 2500SOL     OW 8398   4.441   2.919   6.166  0.2767  0.9399  0.0072
 2500SOL    HW1 8399   4.384   2.999   6.179 -0.6470  0.2197  0.5491
 2500SOL    HW2 8400   4.520   2.924   6.227  1.7480  2.7418 -1.9201
 2501SOL     OW 8401   4.525   6.714   6.833 -0.1346 -0.1073 -0.0954
 2501SOL    HW1 8402   4.438   6.699   6.786 -0.8072  0.7226  0.8543
 2501SOL    HW2 8403   4.579   6.781   6.782  0.0204 -0.7237 -0.7600
 2502SOL     OW 8404   1.549   5.323   2.938  0.0567 -0.0150  0.6336
 2502SOL    HW1 8405   1.493   5.372   2.872 -0.5408 -0.0743  1.0896
 2502SOL    HW2 8406   1.610   5.387   2.985 -0.7726  0.3077  1.2796
 2503SOL     OW 8407   4.424   5.390   4.671  0.3421 -0.4051 -0.0812
 2503SOL    HW1 8408   4.518   5.357   4.662  1.0874  1.3820  0.6006
 2503SOL    HW2 8409   4.407   5.461   4.602 -0.8857 -1.4554 -0.8969
 2504SOL     OW 8410   4.522   4.533   2.598 -0.6386 -0.0694 -0.0778
 2504SOL    HW1 8411   4.490   4.539   2.503  0.0415 -0.8878 -0.3675
 2504SOL    HW2 8412   4.586   4.457   2.607  0.1194  0.6508  0.8082
 2505SOL     OW 8413   5.259   3.473   4.868  0.4663 -0.2072  0.6599
 2505SOL    HW1 8414   5.248   3.404   4.940  0.3430  0.2076  1.0404
 2505SOL    HW2 8415   5.170   3.513   4.847  0.2403 -1.3645 -0.7764
 2506SOL     OW 8416   2.647   1.289   6.662  0.0942  0.4946 -0.0293
 2506SOL    HW1 8417   2.704   1.312   6.741 -1.6813  0.7196  1.2383
 2506SOL    HW2 8418   2.705   1.256   6.587  2.0183  2.0977  0.6648
 2507SOL     OW 8419   0.006   5.750   0.006  0.0268  0.1237 -0.2477
 2507SOL    HW1 8420  -0.087   5.730  -0.026 -1.0706  2.1075  1.4595
 2507SOL    HW2 8421   0.038   5.677   0.066 -0.1361 -0.8803 -1.3502
 2508SOL     OW 8422   2.892   1.670   2.454 -0.1007 -0.5199 -0.1051
 2508SOL    HW1 8423   2.858   1.580   2.482 -1.6689  0.7810  2.6082
 2508SOL    HW2 8424   2.814   1.731   2.439  0.8910  1.3835  1.9697
 2509SOL     OW 8425   5.315   1.057   2.846  0.5963  0.3974  0.0529
 2509SOL    HW1 8426   5.311   0.966   2.804  0.9902  0.6334 -0.5129
 2509SOL    HW2 8427   5.266   1.056   2.933 -0.8511  0.0713 -0.7337
 2510SOL     OW 8428   5.477   4.929   3.345 -0.1101  0.0105 -0.4439
 2510SOL    HW1 8429   5.530   4.870   3.284 -1.2589 -0.7127 -0.7867
 2510SOL    HW2 8430   5.539   4.986   3.398  0.9631 -0.0527 -1.5685
 2511SOL     OW 8431   2.157   3.351   4.492 -0.3129 -0.3756 -0.1950
 2511SOL    HW1 8432   2.173   3.443   4.529  1.1322  0.2300 -2.1861
 2511SOL    HW2 8433   2.060   3.340   4.471 -0.3015  1.2787 -1.3156
 2512SOL     OW 8434   5.876   2.977   6.132  0.2684 -0.0310  0.4103
 2512SOL    HW1 8435   5.922   2.893   6.104  1.5487 -0.1135  2.5571
 2512SOL    HW2 8436   5.778   2.959   6.144 -0.0035 -0.4352 -1.9073
 2513SOL     OW 8437   0.626   3.031   1.158 -0.4595 -0.6222  0.0780
 2513SOL    HW1 8438   0.559   3.021   1.084  0.3890 -1.4733 -0.5936
 2513SOL    HW2 8439   0.662   3.124   1.159  0.6607 -0.9945 -1.6079
 2514SOL     OW 8440   1.367   2.495   3.953  0.1334  0.3551  0.2255
 2514SOL    HW1 8441   1.437   2.554   3.993 -0.0388  1.7179 -1.3422
 2514SOL    HW2 8442   1.379   2.491   3.854  0.4184 -2.7100  0.2909
 2515SOL     OW 8443   4.952   0.089   6.199  0.2487 -0.3030 -0.2934
 2515SOL    HW1 8444   5.015   0.165   6.218  1.6324 -2.2811  4.5370
 2515SOL    HW2 8445   4.985   0.038   6.119  1.3898  1.9975 -1.3814
 2516SOL     OW 8446   4.973   0.662   3.519 -0.4581  0.6382 -0.0447
 2516SOL    HW1 8447   5.021   0.577   3.498  0.2799  1.2329 -0.8523
 2516SOL    HW2 8448   4.994   0.690   3.612 -1.3404 -0.4656  0.5052
 2517SOL     OW 8449   1.903   5.489   6.381  0.0890  0.2845  0.0325
 2517SOL    HW1 8450   1.881   5.581   6.348  0.8073  0.6090  0.4083
 2517SOL    HW2 8451   1.921   5.493   6.479  1.2095 -0.0394 -0.1376
 2518SOL     OW 8452   1.782   4.110   2.519 -0.1304 -0.2612  0.7131
 2518SOL    HW1 8453   1.860   4.056   2.550  1.1446  2.2445  2.1475
 2518SOL    HW2 8454   1.740   4.065   2.440  1.5187 -2.6906  1.0993
 2519SOL     OW 8455   6.748   5.302   5.290 -0.4884  0.1242 -0.3798
 2519SOL    HW1 8456   6.783   5.378   5.235 -0.2195  1.2596  1.2914
 2519SOL    HW2 8457   6.792   5.218   5.261  1.3064  1.0360 -0.4393
 2520SOL     OW 8458   5.209   5.285   1.952 -0.2008  0.1903 -0.4424
 2520SOL    HW1 8459   5.120   5.250   1.981 -0.1144  0.2935 -0.0530
 2520SOL    HW2 8460   5.264   5.209   1.918  0.8554 -0.5388  2.5678
 2521SOL     OW 8461   6.332   6.494   5.328  0.0502 -0.2207  0.2018
 2521SOL    HW1 8462   6.380   6.446   5.255 -0.3028  0.5764 -0.5774
 2521SOL    HW2 8463   6.256   6.438   5.361  0.4650 -0.7595  0.2463
 2522SOL     OW 8464   2.923   5.646   5.010  0.4014  0.3143  0.4178
 2522SOL    HW1 8465   2.857   5.572   4.995  0.0946  0.5431  0.6129
 2522SOL    HW2 8466   2.972   5.665   4.925  0.2211  0.1313  0.2718
 2523SOL     OW 8467   2.986   2.731   6.672 -0.6367 -0.6308 -0.0321
 2523SOL    HW1 8468   3.002   2.827   6.694 -0.1313 -0.6723 -0.1993
 2523SOL    HW2 8469   2.957   2.722   6.577 -1.0802 -0.6087  0.1003
 2524SOL     OW 8470   2.864   0.876   2.803 -0.4654 -0.3045  0.3014
 2524SOL    HW1 8471   2.846   0.886   2.705 -0.2020 -0.2062  0.2613
 2524SOL    HW2 8472   2.816   0.948   2.853  1.0754  0.9634  0.0510
 2525SOL     OW 8473   3.006   4.804   2.167 -0.1072 -0.2333  0.3954
 2525SOL    HW1 8474   2.950   4.749   2.106  0.8071 -0.5867 -0.1595
 2525SOL    HW2 8475   2.948   4.856   2.229 -1.0532 -0.0801 -0.5955
 2526SOL     OW 8476   3.214   4.099   3.757 -0.1014 -0.2241 -0.3834
 2526SOL    HW1 8477   3.257   4.189   3.766 -1.3946  0.6210 -2.1471
 2526SOL    HW2 8478   3.283   4.028   3.772  1.6931  1.0661 -1.9991
 2527SOL     OW 8479   1.270   6.503   3.617  0.0104  0.4054 -0.1381
 2527SOL    HW1 8480   1.285   6.408   3.588  2.0645  0.0429  1.8314
 2527SOL    HW2 8481   1.196   6.543   3.563 -0.2939 -2.0067 -1.6601
 2528SOL     OW 8482   1.252   6.233   3.555 -0.0971  0.3739 -0.4550
 2528SOL    HW1 8483   1.258   6.168   3.630 -0.2883  1.3042  0.3852
 2528SOL    HW2 8484   1.256   6.184   3.468  0.1410 -0.7145  0.1545
 2529SOL     OW 8485   5.251   6.093   4.746  0.1241  0.5364 -0.4123
 2529SOL    HW1 8486   5.266   6.130   4.653  2.3447  0.0342 -0.3246
 2529SOL    HW2 8487   5.270   6.165   4.813 -1.5055  0.9060 -0.3189
 2530SOL     OW 8488   1.474   5.762   4.895 -0.5529  0.0111 -0.4912
 2530SOL    HW1 8489   1.463   5.683   4.955  1.4441  1.0235  1.3464
 2530SOL    HW2 8490   1.407   5.832   4.919  0.0132  0.2719  0.3983
 2531SOL     OW 8491   4.827   2.688   6.371 -0.0535  0.4120  0.6365
 2531SOL    HW1 8492   4.868   2.621   6.434  0.2025 -0.0680 -0.0220
 2531SOL    HW2 8493   4.770   2.640   6.304 -1.2344  1.0198  1.1765
 2532SOL     OW 8494   0.562   6.411   5.340 -0.0666  0.4392  0.4595
 2532SOL    HW1 8495   0.631   6.470   5.381 -0.6713  0.6155  1.2547
 2532SOL    HW2 8496   0.602   6.360   5.265  0.4180  2.0246 -0.3975
 2533SOL     OW 8497   6.049   2.180   5.285 -0.2700 -0.1714 -1.0251
 2533SOL    HW1 8498   6.143   2.150   5.296 -0.5330 -0.6819 -0.0603
 2533SOL    HW2 8499   5.988   2.120   5.337 -1.1985 -0.2279 -2.1360
 2534SOL     OW 8500   6.012   6.848   2.192 -0.0459 -0.1570  0.0878
 2534SOL    HW1 8501   6.092   6.904   2.169  0.8963 -1.9262 -1.1486
 2534SOL    HW2 8502   5.985   6.794   2.113 -2.7521  0.6422  0.3515
 2535SOL     OW 8503   3.307   1.248   0.895  0.0279  0.0039  0.0032
 2535SOL    HW1 8504   3.335   1.219   0.803  2.6303 -0.1999  0.7832
 2535SOL    HW2 8505   3.315   1.348   0.902 -0.2004  0.0225  0.0080
 2536SOL     OW 8506   1.137   1.267   3.295 -0.2194 -0.0888 -0.0567
 2536SOL    HW1 8507   1.165   1.358   3.327 -0.6069 -0.1438  0.4349
 2536SOL    HW2 8508   1.166   1.256   3.200  1.0231  0.0362  0.2924
 2537SOL     OW 8509   1.632   6.406   6.699 -0.4115 -0.0868  0.4107
 2537SOL    HW1 8510   1.545   6.429   6.654 -0.1324  0.9027  0.3650
 2537SOL    HW2 8511   1.620   6.409   6.798 -0.8587 -1.6360  0.4330
 2538SOL     OW 8512   0.696   0.231   3.842 -0.6658 -0.5323  0.3001
 2538SOL    HW1 8513   0.702   0.147   3.896  1.1427 -1.1828 -0.8361
 2538SOL    HW2 8514   0.743   0.305   3.890 -1.3700 -0.4144  0.8232
 2539SOL     OW 8515   6.394   6.640   3.737 -0.3077 -0.1267 -0.1038
 2539SOL    HW1 8516   6.370   6.636   3.834 -0.0362  0.1105 -0.0282
 2539SOL    HW2 8517   6.493   6.649   3.727 -0.1537 -1.7372 -0.4223
 2540SOL     OW 8518   6.882   2.903   0.890 -0.2690 -0.2059 -0.8433
 2540SOL    HW1 8519   6.786   2.877   0.898  0.0850 -2.0067 -2.0208
 2540SOL    HW2 8520   6.894   2.962   0.810 -0.5299  0.9026 -0.0914
 2541SOL     OW 8521   0.628   0.447   6.827  0.4513  0.5241 -0.1886
 2541SOL    HW1 8522   0.654   0.543   6.823 -0.3168  0.7364 -0.1875
 2541SOL    HW2 8523   0.568   0.431   6.905  0.6854  0.0134 -0.1070
 2542SOL     OW 8524   2.823   1.481   2.857 -0.2928  0.4885  0.1809
 2542SOL    HW1 8525   2.768   1.545   2.803 -0.1010 -0.0475 -0.6872
 2542SOL    HW2 8526   2.794   1.484   2.952 -0.2947  1.8538  0.1654
 2543SOL     OW 8527   5.315   0.689   4.514  0.7573  0.0220 -0.0467
 2543SOL    HW1 8528   5.375   0.724   4.585 -1.1757 -0.2754  1.8274
 2543SOL    HW2 8529   5.267   0.765   4.470  0.8026  0.1064  0.0501
 2544SOL     OW 8530   0.813   0.895   6.846 -0.1749  0.2455 -0.3849
 2544SOL    HW1 8531   0.785   0.863   6.937  0.2010  0.3201 -0.2425
 2544SOL    HW2 8532   0.781   0.989   6.833  2.1322  1.2505  0.7693
 2545SOL     OW 8533   1.186   0.387   1.585  0.1237 -0.6189 -0.2351
 2545SOL    HW1 8534   1.254   0.373   1.513  0.5245 -1.7065  0.3368
 2545SOL    HW2 8535   1.218   0.346   1.670 -0.2192  0.9029  0.6550
 2546SOL     OW 8536   5.329   3.130   3.070 -0.5609  0.2760  0.3728
 2546SOL    HW1 8537   5.412   3.096   3.114 -0.7430 -0.7478 -0.0501
 2546SOL    HW2 8538   5.254   3.066   3.087 -0.7759  0.1641 -0.9373
 2547SOL     OW 8539   0.360   2.371   6.824 -0.6059 -0.0455  0.3615
 2547SOL    HW1 8540   0.287   2.303   6.817 -1.5431  1.0574 -1.1876
 2547SOL    HW2 8541   0.320   2.460   6.844  0.6619 -0.0055  3.1746
 2548SOL     OW 8542   5.205   0.842   6.087  0.1507 -0.0418 -0.2332
 2548SOL    HW1 8543   5.286   0.812   6.037  0.5513  2.2319 -1.0632
 2548SOL    HW2 8544   5.231   0.874   6.178  0.4462  1.7820 -0.9068
 2549SOL     OW 8545   2.262   3.512   5.643 -0.0548 -0.3752 -0.3585
 2549SOL    HW1 8546   2.262   3.477   5.550  1.1916  0.5291 -0.7226
 2549SOL    HW2 8547   2.355   3.536   5.670 -0.6842  1.5183  0.2800
 2550SOL     OW 8548   5.128   7.006   2.056 -0.2400  0.1478 -0.1123
 2550SOL    HW1 8549   5.087   6.957   2.132 -0.0462 -0.3260 -0.3049
 2550SOL    HW2 8550   5.101   6.962   1.970 -1.1788  1.2167 -0.3682
 2551SOL     OW 8551   1.715   0.487   6.710 -0.4908  0.3518  0.3922
 2551SOL    HW1 8552   1.616   0.474   6.723 -1.2532  2.4652 -2.3047
 2551SOL    HW2 8553   1.740   0.461   6.617  1.1249  1.5604  0.4419
 2552SOL     OW 8554   3.460   1.583   1.785 -0.1219  0.2115 -0.4239
 2552SOL    HW1 8555   3.402   1.618   1.711 -1.2917 -1.0883 -0.1522
 2552SOL    HW2 8556   3.442   1.636   1.868  1.9255  2.3563 -1.2136
 2553SOL     OW 8557   2.551   1.436   0.473  0.1067 -0.2935 -0.6657
 2553SOL    HW1 8558   2.577   1.413   0.380 -1.0449 -0.2280 -1.0252
 2553SOL    HW2 8559   2.578   1.363   0.535  0.1114 -0.7312 -1.1820
 2554SOL     OW 8560   0.910   5.319   0.450 -0.3520 -0.2380 -0.1380
 2554SOL    HW1 8561   0.871   5.238   0.494  1.1016  0.4797  2.7590
 2554SOL    HW2 8562   0.836   5.376   0.414 -1.8535 -0.3430  2.5005
 2555SOL     OW 8563   0.011   4.843   4.993  0.5155 -0.0502 -0.1283
 2555SOL    HW1 8564  -0.080   4.814   5.023  0.5451 -1.2012 -1.1018
 2555SOL    HW2 8565   0.004   4.884   4.902  0.7863  1.1741  0.3746
 2556SOL     OW 8566   5.524   6.921   6.342 -0.1281 -0.1307  0.4918
 2556SOL    HW1 8567   5.618   6.927   6.376 -0.1189  0.9742  0.2851
 2556SOL    HW2 8568   5.524   6.927   6.243 -0.3572 -0.9854  0.4322
 2557SOL     OW 8569   5.283   2.186   0.374  0.6341 -0.2044 -0.6063
 2557SOL    HW1 8570   5.185   2.172   0.363  0.7503 -0.9145 -0.7821
 2557SOL    HW2 8571   5.330   2.098   0.375  1.4162  0.1719 -1.8803
 2558SOL     OW 8572   6.546   1.367   6.680 -0.9556  0.4507  0.5002
 2558SOL    HW1 8573   6.471   1.428   6.652 -1.5356 -0.7335 -0.6782
 2558SOL    HW2 8574   6.577   1.314   6.601  0.6400  0.3767  1.1428
 2559SOL     OW 8575   5.224   0.363   2.629  0.5282  0.1902  0.4687
 2559SOL    HW1 8576   5.186   0.454   2.647 -0.0772  0.0858 -0.2707
 2559SOL    HW2 8577   5.311   0.373   2.581  0.0654  0.3739 -0.3524
 2560SOL     OW 8578   2.768   3.663   1.522 -0.1819  0.1606 -0.0959
 2560SOL    HW1 8579   2.706   3.724   1.571 -0.9302 -0.3334 -0.4087
 2560SOL    HW2 8580   2.818   3.606   1.588  0.2770  0.8717  0.1792
 2561SOL     OW 8581   3.853   0.905   4.454  0.3661  0.1424  0.1172
 2561SOL    HW1 8582   3.918   0.840   4.493 -1.9975 -1.0591  2.3793
 2561SOL    HW2 8583   3.830   0.975   4.522 -1.6865 -0.2931 -0.0578
 2562SOL     OW 8584   1.749   0.200   4.444 -0.5594  0.1491 -0.3237
 2562SOL    HW1 8585   1.758   0.291   4.403 -0.9663  0.2604 -0.1755
 2562SOL    HW2 8586   1.730   0.133   4.373 -1.0542  0.3080 -0.3440
 2563SOL     OW 8587   4.737   1.606   6.389  0.0577  0.1750  0.2106
 2563SOL    HW1 8588   4.728   1.574   6.295  2.0680  0.5126 -0.1468
 2563SOL    HW2 8589   4.790   1.691   6.391 -3.3601  2.4731  1.3315
 2564SOL     OW 8590   3.865   1.192   1.918 -0.0255  0.2631 -0.2255
 2564SOL    HW1 8591   3.798   1.142   1.974  0.1093 -0.1495 -0.4276
 2564SOL    HW2 8592   3.886   1.279   1.962 -2.1851  1.3260 -1.1369
 2565SOL     OW 8593   6.562   0.714   0.457  0.0827  0.0236 -0.1095
 2565SOL    HW1 8594   6.541   0.624   0.494 -0.3948  0.1213 -0.1393
 2565SOL    HW2 8595   6.524   0.722   0.364 -0.7004  0.5847  0.2490
 2566SOL     OW 8596   3.285   0.406   1.909 -0.3270 -0.1614  0.4308
 2566SOL    HW1 8597   3.197   0.376   1.944  1.3541 -2.0396  3.4434
 2566SOL    HW2 8598   3.312   0.349   1.831 -0.9802 -0.7176  0.6090
 2567SOL     OW 8599   1.654   1.098   6.259  0.1246  0.0310 -0.0822
 2567SOL    HW1 8600   1.648   1.103   6.159  0.1418 -2.2337 -0.2432
 2567SOL    HW2 8601   1.749   1.084   6.286  0.2436  1.5276  0.3332
 2568SOL     OW 8602   1.293   0.269   6.595 -0.3467  0.4102 -0.0391
 2568SOL    HW1 8603   1.249   0.327   6.527 -0.6074 -0.1653 -0.3604
 2568SOL    HW2 8604   1.224   0.218   6.646 -0.0579 -0.9696 -0.9653
 2569SOL     OW 8605   2.111   6.416   6.473  0.1965 -0.0452  0.0649
 2569SOL    HW1 8606   2.062   6.434   6.388  0.6809  0.1521 -0.1762
 2569SOL    HW2 8607   2.174   6.491   6.491  2.0962 -1.3672 -0.8267
 2570SOL     OW 8608   0.179   0.099   4.053 -0.2832 -0.1664 -0.0940
 2570SOL    HW1 8609   0.140   0.020   4.101 -0.6866  0.3941  0.5340
 2570SOL    HW2 8610   0.163   0.181   4.108  2.0441  0.0721  0.3359
 2571SOL     OW 8611   3.826   1.769   1.008 -0.2508 -0.4721  0.1283
 2571SOL    HW1 8612   3.778   1.770   0.920 -1.9352  0.6030  1.0115
 2571SOL    HW2 8613   3.920   1.737   0.994 -0.1118  0.7696 -2.2363
 2572SOL     OW 8614   2.015   6.583   1.444  0.1709  0.3294  0.5128
 2572SOL    HW1 8615   2.071   6.630   1.376  0.4132 -0.5328  0.0890
 2572SOL    HW2 8616   2.034   6.484   1.438  0.2878  0.2553  1.9219
 2573SOL     OW 8617   6.901   6.643   0.446 -0.0086  0.5429 -0.4653
 2573SOL    HW1 8618   6.822   6.704   0.444  0.3401  1.0021 -0.2246
 2573SOL    HW2 8619   6.870   6.548   0.441 -0.5625  0.7313 -0.6084
 2574SOL     OW 8620   1.374   4.653   1.575 -0.1975 -0.1828  0.0649
 2574SOL    HW1 8621   1.421   4.695   1.653  0.0208 -1.7670  0.8277
 2574SOL    HW2 8622   1.398   4.703   1.492  2.6224 -0.6829  0.4578
 2575SOL     OW 8623   4.920   4.084   6.237 -0.1075 -0.4936 -0.2463
 2575SOL    HW1 8624   4.906   3.999   6.187  1.7238  0.6773 -2.9518
 2575SOL    HW2 8625   4.856   4.153   6.203 -0.5233 -0.3371  0.8254
 2576SOL     OW 8626   3.518   0.446   3.618 -0.0603  0.1786 -0.3496
 2576SOL    HW1 8627   3.489   0.524   3.563 -0.9356 -0.3100 -0.5840
 2576SOL    HW2 8628   3.601   0.471   3.668  0.3639  0.8519 -1.3527
 2577SOL     OW 8629   1.167   4.015   6.881  0.0600  0.4272  0.0042
 2577SOL    HW1 8630   1.097   3.967   6.828  1.4869 -1.0241 -0.6094
 2577SOL    HW2 8631   1.158   3.990   6.977 -0.1729  0.1620 -0.0852
 2578SOL     OW 8632   5.918   0.304   6.001 -0.5985 -0.1164 -0.1021
 2578SOL    HW1 8633   6.004   0.307   6.052  0.1342 -1.2078 -1.2120
 2578SOL    HW2 8634   5.861   0.382   6.028  0.1822 -0.0690  1.5807
 2579SOL     OW 8635   1.730   3.924   6.427  0.7073  0.7224 -0.2178
 2579SOL    HW1 8636   1.812   3.935   6.483 -0.8928  1.1069  2.2060
 2579SOL    HW2 8637   1.670   4.003   6.440 -1.2258 -0.7367  0.2200
 2580SOL     OW 8638   6.869   2.855   6.630 -0.7105  0.5574  0.0628
 2580SOL    HW1 8639   6.895   2.794   6.555 -2.7854 -0.3642  0.0216
 2580SOL    HW2 8640   6.906   2.946   6.613 -0.4677  0.1689 -1.6911
 2581SOL     OW 8641   4.330   6.735   3.967 -0.1537  0.3714  0.4740
 2581SOL    HW1 8642   4.283   6.799   4.028 -0.5259  0.9709 -0.4117
 2581SOL    HW2 8643   4.375   6.787   3.894  0.7576 -0.2922  0.5514
 2582SOL     OW 8644   6.884   3.709   1.558  0.0378  0.3428 -0.0653
 2582SOL    HW1 8645   6.836   3.639   1.505 -0.1899  1.0225 -0.7706
 2582SOL    HW2 8646   6.968   3.670   1.597  0.2183 -0.1587 -0.9408
 2583SOL     OW 8647   2.132   0.822   0.348 -0.0094  0.0929 -0.1457
 2583SOL    HW1 8648   2.105   0.918   0.337 -0.3261  0.0519  0.2586
 2583SOL    HW2 8649   2.185   0.793   0.268 -0.6389  0.3469 -0.6610
 2584SOL     OW 8650   3.314   2.151   4.805 -0.3268  0.0683 -0.4923
 2584SOL    HW1 8651   3.402   2.150   4.853 -1.9548 -1.7606  2.7775
 2584SOL    HW2 8652   3.248   2.206   4.857 -1.0934  1.9956 -3.2346
 2585SOL     OW 8653   4.519   5.010   3.250 -0.2408  0.6086  0.0561
 2585SOL    HW1 8654   4.467   4.939   3.298 -0.1859  1.2941  1.1543
 2585SOL    HW2 8655   4.464   5.093   3.242  0.2244  0.9297  0.1231
 2586SOL     OW 8656   6.992   0.796   5.510  0.2018  0.0566  0.4634
 2586SOL    HW1 8657   6.904   0.793   5.464  1.0840 -0.7903 -1.2960
 2586SOL    HW2 8658   7.015   0.891   5.534 -0.4942  0.4761 -0.4830
 2587SOL     OW 8659   6.763   4.535   4.291 -0.1497  0.1122  0.2496
 2587SOL    HW1 8660   6.825   4.477   4.237  0.0907  0.2962  0.3257
 2587SOL    HW2 8661   6.817   4.589   4.356 -0.4649 -0.3482  0.9036
 2588SOL     OW 8662   2.252   0.540   4.784 -0.4925  0.3207 -0.0151
 2588SOL    HW1 8663   2.325   0.578   4.728 -1.0511  0.2600 -0.8078
 2588SOL    HW2 8664   2.263   0.570   4.878  0.4458  0.4571 -0.1636
 2589SOL     OW 8665   4.293   5.326   1.224  0.5631 -1.1484 -0.5280
 2589SOL    HW1 8666   4.303   5.365   1.316 -0.2530 -1.3329 -0.3547
 2589SOL    HW2 8667   4.268   5.229   1.232  1.3285 -1.3851 -0.9499
 2590SOL     OW 8668   4.794   6.499   4.513 -0.4945 -0.1797 -0.4639
 2590SOL    HW1 8669   4.854   6.426   4.480 -0.4393 -0.2772 -0.1549
 2590SOL    HW2 8670   4.829   6.533   4.601 -0.9061 -0.2582 -0.2681
 2591SOL     OW 8671   4.612   0.204   6.817  0.4857  0.0522  0.8657
 2591SOL    HW1 8672   4.522   0.177   6.851  0.3641  0.9430  1.2722
 2591SOL    HW2 8673   4.676   0.127   6.826 -0.5678 -1.0702 -0.7527
 2592SOL     OW 8674   3.528   4.943   1.552 -0.1160  0.1243  0.1596
 2592SOL    HW1 8675   3.528   5.042   1.545  1.7387  0.0935 -1.0514
 2592SOL    HW2 8676   3.460   4.905   1.488  0.8528  0.5771 -1.1794
 2593SOL     OW 8677   2.672   5.588   3.496  0.1911 -0.0547  0.3823
 2593SOL    HW1 8678   2.629   5.583   3.586  1.2335  0.2220  0.9108
 2593SOL    HW2 8679   2.764   5.625   3.505  0.0972  0.5424 -0.8781
 2594SOL     OW 8680   6.935   4.787   0.064 -0.0601 -0.4581  0.0571
 2594SOL    HW1 8681   6.844   4.824   0.078  0.4255  0.0227  2.2372
 2594SOL    HW2 8682   6.966   4.739   0.146  1.3166 -1.4010 -0.9450
 2595SOL     OW 8683   5.584   3.146   5.268  0.3780  0.1871  0.2637
 2595SOL    HW1 8684   5.518   3.222   5.269 -1.2627 -1.1029 -1.7333
 2595SOL    HW2 8685   5.657   3.166   5.202 -0.6112 -0.3249 -1.0452
 2596SOL     OW 8686   5.596   2.046   0.764 -0.0661 -0.2800 -0.0883
 2596SOL    HW1 8687   5.633   2.052   0.671  0.3548 -0.0966  0.0893
 2596SOL    HW2 8688   5.523   1.978   0.766  0.3714 -0.7634 -0.4051
 2597SOL     OW 8689   3.837   0.888   6.708 -0.5903  0.1641 -0.4122
 2597SOL    HW1 8690   3.840   0.811   6.645 -1.0504  0.0769 -0.3290
 2597SOL    HW2 8691   3.922   0.942   6.700 -0.3428 -0.2520 -0.5868
 2598SOL     OW 8692   5.537   1.378   2.838 -0.4433  0.0954  0.0036
 2598SOL    HW1 8693   5.610   1.351   2.900 -1.7372 -1.9364  0.7254
 2598SOL    HW2 8694   5.478   1.445   2.883 -0.1774  0.2145  0.1774
 2599SOL     OW 8695   6.042   5.141   0.410 -0.9710 -0.7311  0.5901
 2599SOL    HW1 8696   6.009   5.055   0.446 -0.3552 -1.5865 -0.8041
 2599SOL    HW2 8697   6.089   5.125   0.323  0.5775  0.7802  1.0840
 2600SOL     OW 8698   1.291   4.121   6.436 -0.0773  0.0715  0.2333
 2600SOL    HW1 8699   1.288   4.214   6.470 -1.1830 -0.4346  1.6191
 2600SOL    HW2 8700   1.321   4.121   6.341 -1.3349  1.9573 -0.2158
 2601SOL     OW 8701   2.495   4.161   5.673  0.8749 -0.1858 -0.0487
 2601SOL    HW1 8702   2.506   4.065   5.699  1.4550 -0.0737  0.1385
 2601SOL    HW2 8703   2.421   4.169   5.607  0.2338 -0.6415  0.6071
 2602SOL     OW 8704   6.257   6.673   6.665  0.0958  0.7606  0.4718
 2602SOL    HW1 8705   6.292   6.766   6.676  2.1321  0.1654 -0.5247
 2602SOL    HW2 8706   6.330   6.613   6.634 -1.3207 -1.0744  0.4891
 2603SOL     OW 8707   1.858   3.682   0.866 -0.2196 -0.4347 -0.2715
 2603SOL    HW1 8708   1.812   3.770   0.857 -2.6346 -1.5573  0.1488
 2603SOL    HW2 8709   1.943   3.694   0.917  0.1029  1.7927 -1.2111
 2604SOL     OW 8710   5.638   1.106   1.313 -0.2513 -0.1716  0.9253
 2604SOL    HW1 8711   5.714   1.067   1.260 -0.8797 -1.2477  0.7857
 2604SOL    HW2 8712   5.645   1.074   1.408  0.0287  0.5441  1.1505
 2605SOL     OW 8713   5.268   1.592   5.155 -0.7292  0.4682 -0.0537
 2605SOL    HW1 8714   5.238   1.590   5.060  1.2681  1.6329 -0.7802
 2605SOL    HW2 8715   5.302   1.502   5.181 -1.0083  0.2176 -0.5452
 2606SOL     OW 8716   0.104   3.730   0.261  0.2018 -0.0644 -1.2053
 2606SOL    HW1 8717   0.178   3.783   0.302 -1.1063  0.5755  0.4609
 2606SOL    HW2 8718   0.032   3.716   0.329  0.3059 -3.7546 -1.6045
 2607SOL     OW 8719   1.066   1.471   3.785  0.2284  0.2256 -0.7772
 2607SOL    HW1 8720   1.002   1.547   3.794  0.9707  0.7132  0.7723
 2607SOL    HW2 8721   1.018   1.389   3.755 -1.1468  0.5724  0.3719
 2608SOL     OW 8722   5.639   2.547   1.128 -0.1458  0.2442 -0.5879
 2608SOL    HW1 8723   5.713   2.508   1.183  0.3738 -0.5940 -1.8285
 2608SOL    HW2 8724   5.611   2.481   1.059 -2.0489  0.5639 -0.1740
 2609SOL     OW 8725   2.391   2.670   3.798  0.0030  0.4967  0.9326
 2609SOL    HW1 8726   2.338   2.592   3.832  0.6061  0.4305  1.7378
 2609SOL    HW2 8727   2.427   2.723   3.876  0.8611  0.7161  0.3962
 2610SOL     OW 8728   4.036   5.604   6.024 -0.3230  0.0958  0.6098
 2610SOL    HW1 8729   4.120   5.555   6.000  1.2924  2.8214  0.2770
 2610SOL    HW2 8730   3.958   5.560   5.979  1.2182 -1.2160 -0.9327
 2611SOL     OW 8731   1.983   5.459   1.583 -0.3120 -0.0199  0.1552
 2611SOL    HW1 8732   2.044   5.397   1.534 -1.0539  0.7895 -1.8635
 2611SOL    HW2 8733   2.030   5.546   1.599 -0.9228  0.6737 -1.5722
 2612SOL     OW 8734   1.130   1.183   4.392 -0.4868  0.4783 -0.3343
 2612SOL    HW1 8735   1.114   1.099   4.340  1.5207 -0.1007 -0.0977
 2612SOL    HW2 8736   1.045   1.212   4.437 -1.5016 -0.7154 -1.4186
 2613SOL     OW 8737   3.553   1.269   1.341 -0.3459  0.4577 -0.1883
 2613SOL    HW1 8738   3.634   1.323   1.362  1.0477 -0.8772 -1.9238
 2613SOL    HW2 8739   3.542   1.261   1.242 -0.8048 -1.9337 -0.0082
 2614SOL     OW 8740   6.439   0.104   5.196  0.7570  0.0004  0.5873
 2614SOL    HW1 8741   6.345   0.136   5.214  0.8524  0.9606 -0.5194
 2614SOL    HW2 8742   6.457   0.023   5.252 -0.2114  0.6815  1.9590
 2615SOL     OW 8743   1.854   3.107   0.965 -0.8614  0.4820  0.0920
 2615SOL    HW1 8744   1.905   3.040   0.910 -2.7907  0.1456 -1.4041
 2615SOL    HW2 8745   1.895   3.197   0.954 -0.6667  0.2525 -1.2130
 2616SOL     OW 8746   3.170   3.790   1.033  0.2904 -0.0756  0.0336
 2616SOL    HW1 8747   3.111   3.825   1.105 -0.7514  1.2709 -1.4266
 2616SOL    HW2 8748   3.129   3.807   0.943  1.7781 -1.2604 -0.9400
 2617SOL     OW 8749   2.775   6.542   6.529 -0.7674  0.0443  0.1681
 2617SOL    HW1 8750   2.848   6.477   6.548 -1.0197 -1.1134 -2.3313
 2617SOL    HW2 8751   2.691   6.512   6.575 -0.4826 -0.5095  0.3329
 2618SOL     OW 8752   1.279   6.147   6.108 -0.1689 -0.4184  0.2272
 2618SOL    HW1 8753   1.379   6.136   6.101 -0.2716 -1.7322  0.6279
 2618SOL    HW2 8754   1.234   6.084   6.045 -0.7605 -0.1910  0.4181
 2619SOL     OW 8755   4.723   1.341   2.748 -0.6532 -0.0949  0.2234
 2619SOL    HW1 8756   4.795   1.272   2.738 -0.2450  0.3064  0.3607
 2619SOL    HW2 8757   4.660   1.335   2.670  1.1277  1.4150 -1.4176
 2620SOL     OW 8758   0.427   6.012   3.917  0.7127 -0.6989  0.2845
 2620SOL    HW1 8759   0.365   5.945   3.957  0.1425 -0.8136 -0.7538
 2620SOL    HW2 8760   0.400   6.104   3.948 -0.1249 -0.7284 -0.3304
 2621SOL     OW 8761   3.191   6.523   5.008  0.4556 -0.2783  0.0157
 2621SOL    HW1 8762   3.092   6.528   5.019  0.4516 -1.3707  0.6364
 2621SOL    HW2 8763   3.215   6.440   4.957  1.1134 -0.6576  0.9127
 2622SOL     OW 8764   2.857   0.101   4.898  0.1861  0.1852 -0.3586
 2622SOL    HW1 8765   2.822   0.185   4.859 -0.9128  0.4530  1.1025
 2622SOL    HW2 8766   2.828   0.094   4.994  0.8877 -1.4887 -0.2284
 2623SOL     OW 8767   3.191   6.550   5.557 -0.2864  0.0515  0.4767
 2623SOL    HW1 8768   3.175   6.518   5.464 -1.6446  1.1771  0.2839
 2623SOL    HW2 8769   3.152   6.485   5.622  1.3551 -1.1411  0.3346
 2624SOL     OW 8770   3.667   1.819   3.611 -0.3069  0.0553  0.2096
 2624SOL    HW1 8771   3.617   1.785   3.691  0.0698 -2.8881 -0.6653
 2624SOL    HW2 8772   3.680   1.918   3.619 -0.0387 -0.1302  3.8957
 2625SOL     OW 8773   0.193   0.614   6.537 -0.2289 -0.1365  0.0310
 2625SOL    HW1 8774   0.286   0.617   6.501 -0.4707  1.7946 -0.5544
 2625SOL    HW2 8775   0.142   0.541   6.492  0.4016  0.1715 -1.2295
 2626SOL     OW 8776   2.359   6.690   1.319 -0.4050  0.3292 -0.3565
 2626SOL    HW1 8777   2.277   6.736   1.283 -0.3490  0.2406 -0.5939
 2626SOL    HW2 8778   2.388   6.619   1.256 -2.4805 -2.4157  1.5066
 2627SOL     OW 8779   1.081   5.577   4.208 -0.5310 -0.3180 -0.0034
 2627SOL    HW1 8780   1.146   5.502   4.196  0.2157  0.6480 -2.9930
 2627SOL    HW2 8781   1.094   5.644   4.135 -0.4526  3.3308  3.0584
 2628SOL     OW 8782   5.431   6.480   6.143 -0.6262 -0.0090 -0.0495
 2628SOL    HW1 8783   5.451   6.408   6.210  2.4093  1.7833  1.1860
 2628SOL    HW2 8784   5.346   6.527   6.169  0.2519  0.3859  2.4280
 2629SOL     OW 8785   1.213   1.620   1.619 -0.1739  0.2964  1.0390
 2629SOL    HW1 8786   1.261   1.620   1.707 -0.8373  1.1075  1.4151
 2629SOL    HW2 8787   1.219   1.529   1.578  2.8171  0.6673  0.4248
 2630SOL     OW 8788   2.643   1.893   2.657 -0.3220  0.2238  0.0072
 2630SOL    HW1 8789   2.642   1.863   2.562 -1.8603  0.0037  0.0818
 2630SOL    HW2 8790   2.609   1.987   2.662 -1.5019 -0.2192  0.4771
 2631SOL     OW 8791   3.395   4.922   0.578  0.1339  0.0185 -0.8533
 2631SOL    HW1 8792   3.319   4.935   0.642  0.0023  2.7044 -1.4296
 2631SOL    HW2 8793   3.472   4.879   0.625 -0.8120 -0.3265  0.4366
 2632SOL     OW 8794   4.670   2.825   0.739  0.3080 -0.1170 -0.1928
 2632SOL    HW1 8795   4.695   2.740   0.786  2.1480 -0.4448 -1.6519
 2632SOL    HW2 8796   4.601   2.804   0.669  2.0507 -0.8061 -1.7712
 2633SOL     OW 8797   6.582   3.035   1.237 -0.1085 -0.1991 -0.1351
 2633SOL    HW1 8798   6.595   3.099   1.313 -1.0108 -0.3647  0.1735
 2633SOL    HW2 8799   6.485   3.019   1.223 -0.0401  1.0014 -2.3412
 2634SOL     OW 8800   2.993   5.974   4.812 -0.6867  0.6134 -0.2663
 2634SOL    HW1 8801   2.929   5.964   4.888 -0.7947  1.9909 -0.1504
 2634SOL    HW2 8802   2.998   5.888   4.762 -0.1892 -0.5252  1.6119
 2635SOL     OW 8803   6.904   3.701   2.649 -0.2532 -0.5054 -0.5107
 2635SOL    HW1 8804   6.955   3.715   2.564 -1.4865 -0.7980 -1.3227
 2635SOL    HW2 8805   6.945   3.624   2.700  0.2818 -0.5575 -1.0055
 2636SOL     OW 8806   3.766   5.467   6.000  0.4685  0.1653 -0.2671
 2636SOL    HW1 8807   3.838   5.411   6.042  1.6040  1.0442 -0.9611
 2636SOL    HW2 8808   3.719   5.415   5.929  0.9485 -0.1761 -0.3413
 2637SOL     OW 8809   6.551   5.011   2.939  0.1703  0.3458  0.6039
 2637SOL    HW1 8810   6.608   5.081   2.982  0.4252  1.3036 -1.1952
 2637SOL    HW2 8811   6.608   4.949   2.886 -0.1893 -0.5276  1.2077
 2638SOL     OW 8812   2.712   4.121   5.509  0.4013 -0.2032 -0.3572
 2638SOL    HW1 8813   2.656   4.148   5.431 -2.8957 -2.8996  0.8398
 2638SOL    HW2 8814   2.674   4.160   5.593  1.6006 -0.4377  0.3206
 2639SOL     OW 8815   5.984   6.512   0.851  0.0759  0.1925  0.6938
 2639SOL    HW1 8816   5.922   6.488   0.776 -1.1396  0.0983  1.6887
 2639SOL    HW2 8817   6.034   6.595   0.829 -0.2543  0.1532 -0.2264
 2640SOL     OW 8818   0.207   6.271   3.803  0.2234 -0.3905 -0.2432
 2640SOL    HW1 8819   0.111   6.241   3.802  0.7623 -2.2176 -0.7303
 2640SOL    HW2 8820   0.252   6.235   3.885  0.2056  1.6445  0.7488
 2641SOL     OW 8821   6.677   5.826   6.703 -0.7757  0.0510 -1.0894
 2641SOL    HW1 8822   6.690   5.727   6.699  0.0820  0.0958  0.0274
 2641SOL    HW2 8823   6.638   5.851   6.791  1.5627  0.9171 -0.2144
 2642SOL     OW 8824   6.813   1.266   2.734  0.1972 -0.2477  0.7247
 2642SOL    HW1 8825   6.732   1.285   2.678  0.6127  0.2947  0.2917
 2642SOL    HW2 8826   6.828   1.342   2.798 -0.1542 -0.7688  1.4327
 2643SOL     OW 8827   0.648   1.693   3.524 -0.6807  0.5903  0.4004
 2643SOL    HW1 8828   0.684   1.652   3.608  2.4655  0.9230 -0.6427
 2643SOL    HW2 8829   0.635   1.791   3.537  0.9756  0.8629  0.2192
 2644SOL     OW 8830   5.589   5.219   5.725 -0.0777  0.1353 -0.2366
 2644SOL    HW1 8831   5.503   5.169   5.725 -1.2538  2.0505 -1.1333
 2644SOL    HW2 8832   5.660   5.164   5.770 -1.1292 -2.5247 -1.6136
 2645SOL     OW 8833   5.195   6.174   5.519 -0.2030  0.3313 -0.1685
 2645SOL    HW1 8834   5.278   6.118   5.513  0.5027  1.2023  1.2614
 2645SOL    HW2 8835   5.214   6.259   5.567 -1.2731  1.8479 -2.2404
 2646SOL     OW 8836   4.920   5.993   0.074  0.0152 -0.6870  0.5127
 2646SOL    HW1 8837   4.871   6.068   0.030  2.3321  1.3018  1.1041
 2646SOL    HW2 8838   4.854   5.928   0.111 -2.1307  1.2065  0.2646
 2647SOL     OW 8839   2.994   3.551   1.197 -0.4731  0.6616  0.8276
 2647SOL    HW1 8840   3.094   3.542   1.197 -0.6055 -1.2857 -0.2683
 2647SOL    HW2 8841   2.965   3.601   1.116 -0.5428 -2.3171 -1.1465
 2648SOL     OW 8842   4.618   6.689   2.578 -1.0063  0.6735 -0.4956
 2648SOL    HW1 8843   4.570   6.769   2.542  1.1662  1.7914 -1.1039
 2648SOL    HW2 8844   4.670   6.646   2.505  0.5450  0.7738  0.4854
 2649SOL     OW 8845   1.748   2.480   4.627 -0.0811 -0.4705 -0.5172
 2649SOL    HW1 8846   1.676   2.412   4.631 -0.6755 -0.2843 -4.3852
 2649SOL    HW2 8847   1.837   2.436   4.644 -0.5480 -2.0451 -1.9125
 2650SOL     OW 8848   1.043   6.297   2.870 -0.2542  0.3826 -0.1285
 2650SOL    HW1 8849   1.108   6.359   2.914 -0.2009  0.1306  0.1559
 2650SOL    HW2 8850   0.995   6.345   2.797  0.1117  0.6289 -0.2115
 2651SOL     OW 8851   2.325   0.336   2.820 -0.6128 -0.1350  0.0583
 2651SOL    HW1 8852   2.324   0.322   2.919 -1.8419  0.1627  0.1015
 2651SOL    HW2 8853   2.343   0.433   2.801 -0.8867 -0.0923  0.0105
 2652SOL     OW 8854   4.245   2.476   1.356  0.2493  0.0658  0.3747
 2652SOL    HW1 8855   4.210   2.427   1.436  1.0953 -0.3518  0.4982
 2652SOL    HW2 8856   4.267   2.411   1.284 -1.2027  0.4877 -0.5069
 2653SOL     OW 8857   4.113   5.735   6.648 -0.2358 -0.2041  0.1674
 2653SOL    HW1 8858   4.150   5.827   6.663 -0.0402 -0.4354  1.1621
 2653SOL    HW2 8859   4.043   5.715   6.716  0.7097 -1.3107  0.8506
 2654SOL     OW 8860   1.563   2.850   6.668  0.0301 -0.7478 -0.0693
 2654SOL    HW1 8861   1.624   2.868   6.746 -0.3319 -0.0794  0.0657
 2654SOL    HW2 8862   1.477   2.900   6.681 -0.0857 -0.7404 -0.8373
 2655SOL     OW 8863   0.783   4.240   3.906  0.4785  0.2633  0.1623
 2655SOL    HW1 8864   0.846   4.216   3.832 -0.2028  1.0227 -0.6938
 2655SOL    HW2 8865   0.799   4.180   3.984 -1.1110 -3.0003 -1.8000
 2656SOL     OW 8866   5.928   4.444   6.572 -0.4037  0.0038 -0.3382
 2656SOL    HW1 8867   5.930   4.379   6.648 -4.2463  1.1384  0.9765
 2656SOL    HW2 8868   5.987   4.521   6.592 -0.6581 -0.1467  1.1387
 2657SOL     OW 8869   3.084   1.917   5.502 -0.6047 -0.4332 -0.3135
 2657SOL    HW1 8870   3.104   1.918   5.404 -3.0592 -0.2201 -0.8665
 2657SOL    HW2 8871   3.102   2.008   5.541 -2.4015  0.3644 -1.2374
 2658SOL     OW 8872   2.075   3.848   5.017 -0.3324  0.5006  0.2025
 2658SOL    HW1 8873   2.084   3.750   5.032 -1.0907  0.5866  1.3540
 2658SOL    HW2 8874   2.165   3.891   5.025  0.4759 -0.3552 -2.8638
 2659SOL     OW 8875   0.425   6.129   2.193 -0.3942 -0.1186 -0.3243
 2659SOL    HW1 8876   0.342   6.090   2.154 -1.6960  0.8984  1.2828
 2659SOL    HW2 8877   0.409   6.151   2.289  2.0053 -0.6090  0.2531
 2660SOL     OW 8878   1.162   1.889   4.557  0.3506 -0.4665  0.5169
 2660SOL    HW1 8879   1.216   1.805   4.565  0.2637 -0.4910  0.8706
 2660SOL    HW2 8880   1.065   1.865   4.555  0.3525 -0.4287 -0.2107
 2661SOL     OW 8881   4.557   0.234   3.655 -0.1718  0.1641 -0.2570
 2661SOL    HW1 8882   4.461   0.223   3.630 -0.5189  1.4374  0.4416
 2661SOL    HW2 8883   4.564   0.286   3.740  1.1080 -0.9462  0.3601
 2662SOL     OW 8884   5.201   0.497   5.560  0.0389 -0.1102  0.1941
 2662SOL    HW1 8885   5.254   0.500   5.645 -0.4476 -0.9162  0.5358
 2662SOL    HW2 8886   5.261   0.470   5.484  0.7401  1.7067  0.0429
 2663SOL     OW 8887   0.314   3.992   3.287  0.0914 -0.9132 -0.2168
 2663SOL    HW1 8888   0.307   4.091   3.299 -0.9670 -0.8063 -1.4559
 2663SOL    HW2 8889   0.395   3.971   3.233 -0.1738 -0.6332 -0.7348
 2664SOL     OW 8890   5.532   3.456   4.870 -0.2600  0.8631 -0.0428
 2664SOL    HW1 8891   5.433   3.472   4.871 -0.2980  0.9789 -2.1109
 2664SOL    HW2 8892   5.568   3.473   4.778  1.3868 -0.9910  0.1896
 2665SOL     OW 8893   4.731   2.862   5.308  0.2190  0.1488  0.3298
 2665SOL    HW1 8894   4.800   2.934   5.317  0.3873 -0.1242  1.3981
 2665SOL    HW2 8895   4.717   2.818   5.397 -2.0568  0.8342  0.3720
 2666SOL     OW 8896   5.918   5.714   0.086  0.3492  0.9701  0.1354
 2666SOL    HW1 8897   5.926   5.782   0.159 -2.0691  1.1460  0.3238
 2666SOL    HW2 8898   5.865   5.636   0.119 -0.2401  0.7593 -1.2447
 2667SOL     OW 8899   1.847   5.239   4.458  0.4175 -0.0055 -0.1540
 2667SOL    HW1 8900   1.940   5.257   4.488  0.3983  1.0666 -0.7109
 2667SOL    HW2 8901   1.784   5.248   4.536  0.6610  0.2072  0.0165
 2668SOL     OW 8902   0.442   1.538   4.310 -0.2447  0.4629 -0.3200
 2668SOL    HW1 8903   0.391   1.469   4.258  0.7320  0.1138 -0.8470
 2668SOL    HW2 8904   0.381   1.584   4.374 -0.9716 -0.7182 -0.1414
 2669SOL     OW 8905   3.917   6.226   3.825  0.4775 -0.0001 -0.0356
 2669SOL    HW1 8906   3.898   6.129   3.842 -3.2542  0.6048  0.0221
 2669SOL    HW2 8907   3.941   6.270   3.911  0.1052 -0.4724  0.3186
 2670SOL     OW 8908   3.374   6.748   3.988  0.0567  0.6025 -0.3592
 2670SOL    HW1 8909   3.413   6.656   3.998 -0.9769  0.0975 -0.7210
 2670SOL    HW2 8910   3.366   6.770   3.890 -0.4709  0.7281 -0.2901
 2671SOL     OW 8911   2.896   3.150   5.985  0.0157  0.5837 -0.8679
 2671SOL    HW1 8912   2.829   3.136   5.912  1.7161 -0.5474 -2.2828
 2671SOL    HW2 8913   2.962   3.221   5.958 -1.2366  2.6283  1.0412
 2672SOL     OW 8914   1.030   3.710   0.249 -0.3249 -0.0144  0.0740
 2672SOL    HW1 8915   1.070   3.704   0.341  0.5877 -0.2518 -0.3262
 2672SOL    HW2 8916   0.961   3.639   0.239  0.8739 -1.2178 -0.0262
 2673SOL     OW 8917   4.914   2.440   4.267  0.5198  0.1066  0.9247
 2673SOL    HW1 8918   4.876   2.478   4.183  0.0360 -1.0937  0.5909
 2673SOL    HW2 8919   4.926   2.514   4.334 -2.2784  0.5724  1.0148
 2674SOL     OW 8920   4.473   5.311   5.439 -0.1237 -0.2886 -0.4915
 2674SOL    HW1 8921   4.541   5.238   5.431 -0.3053 -0.5222  0.0923
 2674SOL    HW2 8922   4.381   5.273   5.426 -0.2840 -0.3263  0.6543
 2675SOL     OW 8923   0.232   3.055   5.094  0.0313 -0.1061  0.0788
 2675SOL    HW1 8924   0.284   3.055   5.179 -0.2636 -1.1432  0.2790
 2675SOL    HW2 8925   0.166   3.130   5.095 -1.4303 -1.3303  1.7117
 2676SOL     OW 8926   4.318   0.908   0.338  0.3930  0.3522 -0.2553
 2676SOL    HW1 8927   4.260   0.918   0.418  0.5192  1.3336 -0.2843
 2676SOL    HW2 8928   4.404   0.957   0.352  1.6326 -1.7831  0.1524
 2677SOL     OW 8929   1.042   5.168   1.716  0.2334 -0.5063 -0.6341
 2677SOL    HW1 8930   1.134   5.165   1.753 -0.5023  0.7666  1.4600
 2677SOL    HW2 8931   1.037   5.237   1.644  1.3093 -1.8885 -2.0910
 2678SOL     OW 8932   1.231   5.783   0.834 -0.2048 -0.6114 -0.4183
 2678SOL    HW1 8933   1.305   5.850   0.843  1.5457 -2.6002  0.9706
 2678SOL    HW2 8934   1.144   5.829   0.851  0.8857  1.3790  0.2280
 2679SOL     OW 8935   2.060   5.818   0.554 -0.0005 -0.0353 -0.0427
 2679SOL    HW1 8936   2.022   5.861   0.636  0.4975 -1.5100  1.0103
 2679SOL    HW2 8937   2.053   5.719   0.563  0.7069 -0.2341 -1.4908
 2680SOL     OW 8938   1.615   2.156   0.194  0.5408 -0.4779 -0.1305
 2680SOL    HW1 8939   1.547   2.177   0.265 -0.5831 -0.5996 -1.1455
 2680SOL    HW2 8940   1.572   2.102   0.122  1.4344  0.4021 -1.3561
 2681SOL     OW 8941   1.202   1.393   1.459  0.0055  0.8110 -0.4747
 2681SOL    HW1 8942   1.211   1.374   1.361 -2.8088  2.5500 -1.1938
 2681SOL    HW2 8943   1.105   1.396   1.484  0.6375  0.7421  2.3284
 2682SOL     OW 8944   1.252   2.044   3.775 -0.3101  0.6676  0.4420
 2682SOL    HW1 8945   1.289   2.092   3.695  1.3818 -0.5378  0.4406
 2682SOL    HW2 8946   1.286   2.086   3.859  0.0143  0.3481  0.4708
 2683SOL     OW 8947   1.133   2.319   6.064 -0.1166 -0.2436 -0.5317
 2683SOL    HW1 8948   1.225   2.293   6.035  0.2531 -0.5821  0.8774
 2683SOL    HW2 8949   1.072   2.319   5.985  1.0742 -0.0418 -1.4896
 2684SOL     OW 8950   3.388   6.194   2.989 -0.0122 -0.1345  0.7767
 2684SOL    HW1 8951   3.301   6.209   2.942  0.0949 -0.1395  0.5783
 2684SOL    HW2 8952   3.369   6.163   3.083 -0.2276  0.6949  1.0103
 2685SOL     OW 8953   4.865   4.436   1.014 -0.4159 -0.0402 -0.7729
 2685SOL    HW1 8954   4.810   4.395   0.941 -1.4388  1.6125 -0.9717
 2685SOL    HW2 8955   4.948   4.382   1.027 -0.6173 -0.8583 -2.5886
 2686SOL     OW 8956   2.438   3.851   5.413  0.6512 -0.1430 -0.1175
 2686SOL    HW1 8957   2.448   3.752   5.407 -1.4038 -0.3755 -0.5249
 2686SOL    HW2 8958   2.436   3.891   5.322  0.3368  0.1211 -0.0003
 2687SOL     OW 8959   6.412   5.707   3.641 -0.5433  0.2360  0.5245
 2687SOL    HW1 8960   6.432   5.613   3.669  2.2729  0.8576  0.9509
 2687SOL    HW2 8961   6.432   5.769   3.717 -0.9402  1.2864 -0.2070
 2688SOL     OW 8962   3.253   6.241   4.847  0.1936  0.1958  0.0448
 2688SOL    HW1 8963   3.221   6.185   4.923 -0.9548  2.1997  1.1385
 2688SOL    HW2 8964   3.258   6.185   4.764 -0.0342 -1.6846  1.2402
 2689SOL     OW 8965   4.218   1.372   4.546 -0.4995  0.1626 -0.0804
 2689SOL    HW1 8966   4.125   1.406   4.558 -1.4121 -1.6868 -1.3903
 2689SOL    HW2 8967   4.228   1.336   4.453  0.1599 -3.5442  1.2736
 2690SOL     OW 8968   2.939   3.531   3.295 -0.8108  0.1060 -0.3934
 2690SOL    HW1 8969   2.918   3.571   3.384 -0.7283 -0.8981  0.0823
 2690SOL    HW2 8970   3.032   3.557   3.268  0.4034 -2.1430  1.2980
 2691SOL     OW 8971   0.380   5.342   0.185 -0.6513  0.1932 -0.0286
 2691SOL    HW1 8972   0.333   5.285   0.252  0.3232 -0.0916  0.4274
 2691SOL    HW2 8973   0.356   5.438   0.201 -1.6153  0.0084 -0.2577
 2692SOL     OW 8974   1.268   2.040   2.361  0.0417 -0.3522  0.2484
 2692SOL    HW1 8975   1.170   2.020   2.362  0.0385 -0.6189  3.2151
 2692SOL    HW2 8976   1.317   1.963   2.319 -0.9101 -0.6446 -0.3737
 2693SOL     OW 8977   2.055   3.494   2.501  0.6789  0.2856  0.2388
 2693SOL    HW1 8978   2.062   3.395   2.493 -1.9932  0.1168 -0.9669
 2693SOL    HW2 8979   2.066   3.536   2.411 -1.5180  0.7598  0.1392
 2694SOL     OW 8980   2.097   1.401   3.737  0.0744  0.4392 -0.3200
 2694SOL    HW1 8981   2.090   1.310   3.778 -0.8590 -0.4105 -2.2510
 2694SOL    HW2 8982   2.186   1.410   3.692  0.3001  0.6275  0.1532
 2695SOL     OW 8983   3.679   1.813   0.741 -0.6220  0.2959  0.7453
 2695SOL    HW1 8984   3.758   1.856   0.700 -0.3353 -0.3394  0.6137
 2695SOL    HW2 8985   3.596   1.844   0.695 -0.2541 -0.9812 -0.8583
 2696SOL     OW 8986   3.291   3.115   6.938  0.6602 -0.6545 -0.4261
 2696SOL    HW1 8987   3.385   3.133   6.966  0.2735  3.2123 -1.0455
 2696SOL    HW2 8988   3.229   3.134   7.014  0.2176 -0.0062 -0.9325
 2697SOL     OW 8989   1.496   0.942   4.755  0.3390  0.1931  0.3016
 2697SOL    HW1 8990   1.528   0.885   4.679  0.6212  0.5787  0.1282
 2697SOL    HW2 8991   1.539   1.032   4.749 -0.9887  0.8249 -0.1196
 2698SOL     OW 8992   3.641   2.956   0.856 -0.1218  0.5489 -0.3362
 2698SOL    HW1 8993   3.727   2.950   0.907  0.7757 -0.9714 -1.8856
 2698SOL    HW2 8994   3.570   2.996   0.913  0.9030 -0.7192  1.9510
 2699SOL     OW 8995   2.963   5.254   2.949  0.2095 -0.1121  1.0141
 2699SOL    HW1 8996   3.014   5.236   3.033 -0.4373 -0.2554  1.3848
 2699SOL    HW2 8997   2.930   5.167   2.910 -0.0441  0.0035  0.9678
 2700SOL     OW 8998   1.063   4.990   2.801 -0.1197 -0.0948  0.2657
 2700SOL    HW1 8999   0.984   4.935   2.774 -0.3058 -0.7791  2.0798
 2700SOL    HW2 9000   1.085   4.973   2.897  3.2891 -1.2382 -0.5763
 2701SOL     OW 9001   1.535   1.015   4.394 -0.3961  0.1402 -0.6508
 2701SOL    HW1 9002   1.496   0.946   4.456 -1.1840  2.0696  1.1065
 2701SOL    HW2 9003   1.626   1.042   4.426 -0.8236  1.1806 -0.2680
 2702SOL     OW 9004   0.088   5.373   2.722 -0.3794  0.2538 -0.3769
 2702SOL    HW1 9005   0.122   5.279   2.713 -1.0966 -0.2968  1.9530
 2702SOL    HW2 9006   0.165   5.434   2.741  0.0261  0.0745 -1.3793
 2703SOL     OW 9007   2.131   3.073   3.249 -0.0889  0.5205 -0.4575
 2703SOL    HW1 9008   2.098   3.036   3.336  1.0234  0.4562 -0.0441
 2703SOL    HW2 9009   2.164   2.997   3.191  1.0878  0.7216 -0.0861
 2704SOL     OW 9010   6.887   0.145   5.786 -0.4569  0.0310  0.1804
 2704SOL    HW1 9011   6.910   0.134   5.690 -0.7757  0.0590  0.0985
 2704SOL    HW2 9012   6.855   0.057   5.823 -1.1101  0.2092  0.0456
 2705SOL     OW 9013   0.794   2.627   3.458 -0.1016  0.3333 -0.4215
 2705SOL    HW1 9014   0.731   2.694   3.417 -0.9747  0.3000  0.8220
 2705SOL    HW2 9015   0.884   2.668   3.469 -0.5168  1.1726 -0.0801
 2706SOL     OW 9016   0.251   1.906   3.941  0.8431  0.5126  0.5111
 2706SOL    HW1 9017   0.207   1.899   4.030  0.8915  1.5867  0.6239
 2706SOL    HW2 9018   0.291   1.817   3.917 -2.8860 -1.1141 -0.4296
 2707SOL     OW 9019   3.337   0.372   0.459 -0.0337 -0.0989 -0.0177
 2707SOL    HW1 9020   3.252   0.332   0.492 -0.8101  1.8037  0.3828
 2707SOL    HW2 9021   3.329   0.472   0.457  2.1275  0.1209 -0.1261
 2708SOL     OW 9022   1.744   4.808   5.931 -0.2672 -0.4526  0.3744
 2708SOL    HW1 9023   1.714   4.860   5.851  1.2969 -1.0353 -0.6340
 2708SOL    HW2 9024   1.798   4.868   5.991  0.5698 -0.5956 -0.2172
 2709SOL     OW 9025   3.329   5.734   1.251  0.0538 -0.2444  0.0753
 2709SOL    HW1 9026   3.292   5.826   1.259  0.0645 -0.2070 -0.2837
 2709SOL    HW2 9027   3.374   5.723   1.162 -0.7716 -0.8828 -0.2859
 2710SOL     OW 9028   0.159   3.470   2.531 -0.3873 -0.4239  0.2542
 2710SOL    HW1 9029   0.222   3.443   2.457  1.8099 -0.0818  1.8781
 2710SOL    HW2 9030   0.152   3.570   2.532 -0.7345 -0.4501  0.2609
 2711SOL     OW 9031   0.948   6.366   1.188 -0.7775  0.1583  0.3764
 2711SOL    HW1 9032   0.881   6.361   1.113 -0.7733  0.3054  0.3627
 2711SOL    HW2 9033   0.899   6.372   1.275 -0.7952  1.9379  0.2634
 2712SOL     OW 9034   3.278   5.441   1.294  0.1349 -0.2068 -0.2504
 2712SOL    HW1 9035   3.203   5.439   1.360  1.2234 -0.1058  1.0470
 2712SOL    HW2 9036   3.309   5.535   1.281 -0.2549 -0.1951 -1.1292
 2713SOL     OW 9037   4.556   2.372   5.320 -0.0790  0.1727  0.0899
 2713SOL    HW1 9038   4.486   2.408   5.380 -0.1523 -0.7657  0.5893
 2713SOL    HW2 9039   4.514   2.339   5.235  0.2488  3.5148 -1.5398
 2714SOL     OW 9040   4.863   0.167   1.717 -0.2153 -0.6566 -0.1556
 2714SOL    HW1 9041   4.950   0.120   1.707 -0.9184 -1.6558 -2.2770
 2714SOL    HW2 9042   4.801   0.140   1.642 -1.9100  0.9620  0.5568
 2715SOL     OW 9043   5.974   6.526   6.439 -0.1911  0.4367  0.0725
 2715SOL    HW1 9044   5.959   6.562   6.531  2.0584 -2.4391  1.7287
 2715SOL    HW2 9045   5.889   6.533   6.387 -2.3619 -0.1750  3.2304
 2716SOL     OW 9046   0.204   6.780   0.847 -0.2729 -0.1988  0.5386
 2716SOL    HW1 9047   0.236   6.850   0.784 -0.7042 -1.3441 -1.0206
 2716SOL    HW2 9048   0.114   6.806   0.883 -0.5502 -0.0491 -0.2382
 2717SOL     OW 9049   6.608   5.944   1.109 -0.1662  0.3098  0.0038
 2717SOL    HW1 9050   6.636   5.863   1.058 -0.8253  1.2057 -1.8640
 2717SOL    HW2 9051   6.615   5.925   1.207  2.5508 -0.9892 -0.3404
 2718SOL     OW 9052   5.752   2.338   3.843 -0.3311 -0.4147  0.0174
 2718SOL    HW1 9053   5.835   2.295   3.809 -0.8988 -0.0527 -1.9299
 2718SOL    HW2 9054   5.765   2.437   3.847 -0.1621 -0.4678  1.2514
 2719SOL     OW 9055   5.618   5.512   3.543 -0.7997  0.3868  0.0670
 2719SOL    HW1 9056   5.620   5.436   3.478  0.8268 -0.1900  0.7419
 2719SOL    HW2 9057   5.635   5.598   3.495 -1.3016  0.1723 -0.5048
 2720SOL     OW 9058   4.541   6.300   2.946 -0.0913  0.4947 -0.0465
 2720SOL    HW1 9059   4.591   6.357   2.881  0.2083 -0.4117 -0.6204
 2720SOL    HW2 9060   4.481   6.358   3.002 -1.1468  1.1833 -1.8258
 2721SOL     OW 9061   4.520   5.051   4.660 -0.7560  0.5522  0.7624
 2721SOL    HW1 9062   4.602   4.995   4.655 -1.5484 -0.6752  1.0631
 2721SOL    HW2 9063   4.535   5.127   4.724  0.1007  0.2765  0.8936
 2722SOL     OW 9064   1.543   3.545   2.579 -0.3840  0.1224 -0.1203
 2722SOL    HW1 9065   1.551   3.497   2.491 -1.1612 -1.2241  0.5145
 2722SOL    HW2 9066   1.632   3.545   2.625 -0.0250  0.6399 -0.7889
 2723SOL     OW 9067   2.082   2.786   0.565 -0.7391  0.2027  0.1477
 2723SOL    HW1 9068   1.997   2.795   0.617  0.5486  0.5252  2.3224
 2723SOL    HW2 9069   2.154   2.838   0.610  0.6751 -0.2257 -1.5296
 2724SOL     OW 9070   3.357   5.180   4.452 -0.5958  0.3227 -0.5046
 2724SOL    HW1 9071   3.414   5.195   4.371 -0.3214 -0.0828 -0.3897
 2724SOL    HW2 9072   3.370   5.087   4.485 -1.8853 -0.0203 -0.9082
 2725SOL     OW 9073   3.192   6.093   0.721  0.3156  0.0437 -0.4807
 2725SOL    HW1 9074   3.250   6.130   0.793 -0.6359 -1.3480  1.0667
 2725SOL    HW2 9075   3.107   6.144   0.717 -0.4958 -1.1299  0.8428
 2726SOL     OW 9076   4.134   5.658   1.705 -0.2060  0.0566  0.1333
 2726SOL    HW1 9077   4.053   5.605   1.725 -0.0767 -0.8933 -1.6672
 2726SOL    HW2 9078   4.148   5.663   1.606 -0.0503  3.2264  0.1962
 2727SOL     OW 9079   0.681   5.241   3.757 -0.5751  0.5202  0.5774
 2727SOL    HW1 9080   0.691   5.216   3.854  1.4046 -1.4995 -0.0740
 2727SOL    HW2 9081   0.586   5.226   3.729 -0.5689 -1.7209  1.5138
 2728SOL     OW 9082   3.292   0.029   6.143 -0.2436  0.0380  0.4410
 2728SOL    HW1 9083   3.237   0.074   6.073  0.4419 -0.2755 -0.3158
 2728SOL    HW2 9084   3.365  -0.023   6.100  1.0294  0.9362  1.4271
 2729SOL     OW 9085   0.792   2.805   2.353 -0.0236 -0.1624  0.3846
 2729SOL    HW1 9086   0.785   2.881   2.417 -1.8038  1.3142 -1.4018
 2729SOL    HW2 9087   0.865   2.823   2.288  0.9164 -1.0176  1.1860
 2730SOL     OW 9088   1.058   2.734   2.649 -0.2067 -0.9984  0.2384
 2730SOL    HW1 9089   1.083   2.678   2.728  0.1682 -0.6148  0.4005
 2730SOL    HW2 9090   1.000   2.682   2.587  1.8326 -2.2970 -0.6648
 2731SOL     OW 9091   0.454   2.439   0.491 -0.0188  0.2072 -0.1336
 2731SOL    HW1 9092   0.547   2.408   0.470 -0.4450  0.1173 -2.1652
 2731SOL    HW2 9093   0.395   2.359   0.505  0.4111  0.2745  2.3499
 2732SOL     OW 9094   4.926   1.964   4.669 -0.1856 -0.3294  0.3318
 2732SOL    HW1 9095   4.940   1.947   4.572 -0.9879 -0.0376  0.1598
 2732SOL    HW2 9096   5.014   1.988   4.711  0.2350 -0.8277 -0.2322
 2733SOL     OW 9097   1.107   2.499   6.685 -0.4095  0.2191  0.8361
 2733SOL    HW1 9098   1.044   2.504   6.762 -0.5652  1.3168  0.6461
 2733SOL    HW2 9099   1.198   2.529   6.715 -0.7916  2.0622  0.2780
 2734SOL     OW 9100   3.209   5.940   3.816  0.5822  0.5208  0.5170
 2734SOL    HW1 9101   3.209   5.871   3.743 -0.5604  1.0270  0.0153
 2734SOL    HW2 9102   3.152   6.017   3.789  0.9920  1.1941  1.5237
 2735SOL     OW 9103   1.435   6.766   0.370  0.3897 -0.1604 -0.0794
 2735SOL    HW1 9104   1.477   6.722   0.449 -0.4568  0.6257  0.8296
 2735SOL    HW2 9105   1.369   6.704   0.328  0.5928 -0.4592  0.0428
 2736SOL     OW 9106   4.192   1.180   0.037  0.3627 -0.4015  0.3240
 2736SOL    HW1 9107   4.274   1.134   0.003  0.5976  1.0145 -1.1065
 2736SOL    HW2 9108   4.218   1.265   0.082 -0.3917  0.7795 -1.4012
 2737SOL     OW 9109   4.097   3.226   5.158 -0.1037  0.3485  0.3689
 2737SOL    HW1 9110   4.037   3.306   5.168  1.0648  1.1386  1.3804
 2737SOL    HW2 9111   4.174   3.235   5.221 -0.0012 -1.6466  0.5742
 2738SOL     OW 9112   6.461   2.777   4.593 -0.0056 -0.1250 -0.0830
 2738SOL    HW1 9113   6.390   2.843   4.619 -0.1204 -0.2944  0.0308
 2738SOL    HW2 9114   6.481   2.717   4.670  0.3059 -0.0393 -0.0967
 2739SOL     OW 9115   4.370   3.784   6.106 -0.3228 -0.3950 -0.4917
 2739SOL    HW1 9116   4.444   3.846   6.078 -1.3805  0.4265 -1.5733
 2739SOL    HW2 9117   4.297   3.837   6.149 -0.7312 -1.0615 -0.3587
 2740SOL     OW 9118   5.430   3.981   4.870  0.1562 -0.2156  0.2981
 2740SOL    HW1 9119   5.528   3.960   4.873  0.5587  0.6088 -2.8654
 2740SOL    HW2 9120   5.380   3.904   4.829 -0.1271  0.2691 -0.2949
 2741SOL     OW 9121   2.703   2.982   6.720  0.4828  0.1906  0.1356
 2741SOL    HW1 9122   2.719   2.919   6.795 -0.5625 -0.5212 -0.2075
 2741SOL    HW2 9123   2.653   3.062   6.754  1.3100  0.5727  0.4650
 2742SOL     OW 9124   2.405   6.822   4.975 -0.5787 -0.0953 -0.5843
 2742SOL    HW1 9125   2.450   6.906   5.003 -2.2195  1.2318 -1.6855
 2742SOL    HW2 9126   2.389   6.764   5.055  1.7963 -0.0225  0.0001
 2743SOL     OW 9127   1.120   4.461   0.420  0.3926 -0.7347 -0.0864
 2743SOL    HW1 9128   1.171   4.375   0.415  0.1293 -0.9850  1.1795
 2743SOL    HW2 9129   1.022   4.441   0.418  0.3292 -0.4951  0.5904
 2744SOL     OW 9130   5.393   6.023   3.220  0.0800  0.6587  0.1305
 2744SOL    HW1 9131   5.478   5.992   3.177 -0.4256  0.9558 -1.1411
 2744SOL    HW2 9132   5.316   5.974   3.178 -0.4870  1.4802  0.2032
 2745SOL     OW 9133   3.620   5.803   3.850  0.6113  0.1585  0.5297
 2745SOL    HW1 9134   3.600   5.792   3.752 -2.9491 -0.5090  1.1993
 2745SOL    HW2 9135   3.606   5.716   3.897 -2.0117  1.3290  2.1614
 2746SOL     OW 9136   3.194   4.046   6.406  0.1288 -0.1023  0.2562
 2746SOL    HW1 9137   3.113   4.027   6.349  0.8199 -1.7039 -0.2440
 2746SOL    HW2 9138   3.275   4.054   6.347  0.6764 -0.6842  0.9230
 2747SOL     OW 9139   3.580   5.329   3.140 -0.2289 -0.3284  0.3569
 2747SOL    HW1 9140   3.599   5.356   3.234 -0.9387  0.0302  0.4014
 2747SOL    HW2 9141   3.667   5.310   3.093  0.1763  0.2518  0.8513
 2748SOL     OW 9142   5.638   1.237   3.976  0.4051  0.3737 -0.1412
 2748SOL    HW1 9143   5.585   1.198   3.900  2.0097 -0.3045 -0.9609
 2748SOL    HW2 9144   5.658   1.166   4.043  0.1912  0.6511  0.2210
 2749SOL     OW 9145   6.369   4.753   4.060  0.2868 -0.2886  0.4570
 2749SOL    HW1 9146   6.366   4.700   4.144  0.2480  0.1798  0.7544
 2749SOL    HW2 9147   6.375   4.851   4.082  0.1010 -0.1518 -0.0797
 2750SOL     OW 9148   0.111   6.705   6.968 -0.0787 -0.1466 -0.5721
 2750SOL    HW1 9149   0.123   6.637   6.896  2.0870 -1.4332  0.8794
 2750SOL    HW2 9150   0.125   6.662   7.057 -1.4692  1.6538  0.5885
 2751SOL     OW 9151   6.752   0.039   5.329  0.7575  0.2561 -0.0545
 2751SOL    HW1 9152   6.779   0.001   5.240 -1.1428  0.8269 -0.9282
 2751SOL    HW2 9153   6.659   0.010   5.350  1.2346  0.0108  1.8568
 2752SOL     OW 9154   0.622   4.499   5.182  0.6088 -0.3210 -0.4162
 2752SOL    HW1 9155   0.688   4.508   5.257 -0.2339  0.8227  0.2163
 2752SOL    HW2 9156   0.647   4.421   5.125  1.7725 -0.6812  0.5453
 2753SOL     OW 9157   4.350   5.962   3.922  0.0638 -0.3228  0.2039
 2753SOL    HW1 9158   4.426   5.985   3.982  1.5468  0.8050 -1.9491
 2753SOL    HW2 9159   4.351   5.863   3.905 -0.7412 -0.7568  2.3786
 2754SOL     OW 9160   1.519   4.546   3.877  0.0007 -0.0594 -0.3644
 2754SOL    HW1 9161   1.501   4.524   3.973  1.6755  0.8576  0.2089
 2754SOL    HW2 9162   1.525   4.645   3.866 -0.2185 -0.1549 -1.4312
 2755SOL     OW 9163   2.471   0.071   5.018  0.7530  0.5773  0.4970
 2755SOL    HW1 9164   2.420   0.157   5.010 -0.7401 -0.3171 -0.1136
 2755SOL    HW2 9165   2.523   0.056   4.934 -0.1071  0.2312  0.0059
 2756SOL     OW 9166   5.480   3.624   6.227  0.8078  0.5137  0.1885
 2756SOL    HW1 9167   5.575   3.594   6.221  0.2076 -1.6493  0.6128
 2756SOL    HW2 9168   5.460   3.652   6.320  0.8283  0.1815  0.2954
 2757SOL     OW 9169   5.304   3.127   4.565  0.8401 -0.4023  0.3353
 2757SOL    HW1 9170   5.340   3.073   4.641  0.9623 -0.6167  0.1247
 2757SOL    HW2 9171   5.330   3.223   4.577  2.0309 -0.6587 -0.1507
 2758SOL     OW 9172   5.507   0.127   1.274 -0.5262  0.3345  0.4722
 2758SOL    HW1 9173   5.459   0.151   1.190 -0.6068  0.0452  0.4329
 2758SOL    HW2 9174   5.462   0.047   1.316  0.4522 -0.4943 -0.0319
 2759SOL     OW 9175   3.287   3.598   3.490 -0.4945  0.0347 -0.4657
 2759SOL    HW1 9176   3.265   3.622   3.585 -1.1374 -1.9337 -0.0688
 2759SOL    HW2 9177   3.286   3.498   3.480 -0.2096  0.1973 -2.4988
 2760SOL     OW 9178   4.852   3.670   3.242 -0.3157 -0.0415 -0.0689
 2760SOL    HW1 9179   4.874   3.593   3.301  0.5435  0.2520  0.0166
 2760SOL    HW2 9180   4.807   3.742   3.296 -2.4388 -1.0344 -0.4418
 2761SOL     OW 9181   3.124   2.593   6.228 -0.1768 -0.4223  0.2299
 2761SOL    HW1 9182   3.080   2.657   6.291 -0.4910 -0.5897  0.1852
 2761SOL    HW2 9183   3.212   2.565   6.266 -0.0552  0.0025  0.2679
 2762SOL     OW 9184   3.438   1.017   2.453 -0.6551  0.8188 -0.2287
 2762SOL    HW1 9185   3.505   1.014   2.527 -0.6021  0.6567 -0.2823
 2762SOL    HW2 9186   3.455   1.097   2.396 -1.6645  1.8230  0.8372
 2763SOL     OW 9187   3.649   0.807   4.768  0.1290  0.6470 -0.0121
 2763SOL    HW1 9188   3.603   0.745   4.831  1.4357  0.2871  0.6112
 2763SOL    HW2 9189   3.704   0.755   4.703 -0.8809  1.0361 -1.2272
 2764SOL     OW 9190   6.695   1.077   1.246 -0.3845  0.2060  0.0774
 2764SOL    HW1 9191   6.730   1.077   1.339 -2.0031 -2.9622  0.8261
 2764SOL    HW2 9192   6.771   1.066   1.182  0.7218  2.1851  0.9489
 2765SOL     OW 9193   0.003   5.423   6.952  0.0834  0.0389 -0.7949
 2765SOL    HW1 9194   0.042   5.371   7.028  0.0510  0.9616 -0.1365
 2765SOL    HW2 9195   0.076   5.459   6.895  0.1090 -0.6032 -1.1805
 2766SOL     OW 9196   5.765   0.658   6.910 -0.5881 -0.0753  0.0910
 2766SOL    HW1 9197   5.699   0.589   6.881 -0.9560  0.2657  0.1042
 2766SOL    HW2 9198   5.718   0.728   6.964  0.0528 -0.5990  1.3440
 2767SOL     OW 9199   0.306   0.339   0.220 -0.7987 -0.1388  0.0720
 2767SOL    HW1 9200   0.251   0.268   0.175 -0.8446  0.2257 -0.4630
 2767SOL    HW2 9201   0.333   0.308   0.311 -0.1965 -1.1564 -0.4358
 2768SOL     OW 9202   3.190   5.802   3.072 -0.2136  0.1224 -0.2332
 2768SOL    HW1 9203   3.132   5.793   3.154  0.0836 -1.2064 -0.1581
 2768SOL    HW2 9204   3.278   5.759   3.089 -0.6917 -1.5596 -1.7747
 2769SOL     OW 9205   0.872   4.347   6.324 -0.4067 -0.9617 -0.5859
 2769SOL    HW1 9206   0.927   4.263   6.328 -0.3449 -0.8720  1.9410
 2769SOL    HW2 9207   0.913   4.410   6.258  3.3450 -0.4642  1.8740
 2770SOL     OW 9208   1.429   0.709   6.876  0.2779  0.9042 -0.3637
 2770SOL    HW1 9209   1.473   0.762   6.803 -1.1158  0.6761 -1.4093
 2770SOL    HW2 9210   1.436   0.612   6.856  0.0701  0.8284 -0.0796
 2771SOL     OW 9211   4.698   1.457   6.130 -0.3665  0.0062  0.1063
 2771SOL    HW1 9212   4.622   1.438   6.068  0.1350 -0.6541 -0.3062
 2771SOL    HW2 9213   4.734   1.372   6.167  1.3060  0.1675 -1.0601
 2772SOL     OW 9214   6.013   6.840   1.766  0.3561 -0.3824 -0.4942
 2772SOL    HW1 9215   6.026   6.829   1.668  1.3826 -0.7173 -0.3320
 2772SOL    HW2 9216   6.100   6.863   1.809 -0.3279  1.0667  0.1742
 2773SOL     OW 9217   3.282   0.466   6.844 -0.4743 -0.3113 -0.1388
 2773SOL    HW1 9218   3.217   0.528   6.800 -1.9308 -0.8652  1.1188
 2773SOL    HW2 9219   3.242   0.432   6.929  2.0389  0.4156  1.4393
 2774SOL     OW 9220   6.094   1.435   2.559 -0.3217 -0.2435  0.1459
 2774SOL    HW1 9221   6.159   1.502   2.523 -0.4668 -0.3833 -0.3961
 2774SOL    HW2 9222   6.094   1.438   2.659 -0.9292  1.1590  0.1310
 2775SOL     OW 9223   0.653   2.188   4.198 -0.0395 -0.3407 -0.2314
 2775SOL    HW1 9224   0.559   2.157   4.184 -0.7665  1.2737  0.7434
 2775SOL    HW2 9225   0.674   2.261   4.132 -0.5358  1.3431  1.3850
 2776SOL     OW 9226   4.135   4.842   5.964  0.5563 -0.2691  0.4491
 2776SOL    HW1 9227   4.195   4.920   5.981 -0.9246  0.6649  1.7218
 2776SOL    HW2 9228   4.069   4.866   5.892  1.1191 -0.9642 -0.3167
 2777SOL     OW 9229   1.773   1.154   1.579 -0.2281 -0.2370  0.4623
 2777SOL    HW1 9230   1.729   1.155   1.489  0.3281  0.2322  0.1939
 2777SOL    HW2 9231   1.852   1.215   1.578  1.4085 -2.2372  0.4319
 2778SOL     OW 9232   3.355   0.056   5.362 -0.2596  0.4179  0.0583
 2778SOL    HW1 9233   3.398   0.110   5.289 -0.0729 -0.0024 -0.1456
 2778SOL    HW2 9234   3.403  -0.031   5.371  0.3075  0.8424  1.3207
 2779SOL     OW 9235   2.998   1.071   3.621  0.0681 -0.1505 -0.3941
 2779SOL    HW1 9236   2.966   1.118   3.539  0.6466  0.2407 -0.4038
 2779SOL    HW2 9237   2.962   1.117   3.702 -1.2484 -1.0752 -0.4212
 2780SOL     OW 9238   6.424   0.830   4.256 -0.2359 -0.2851 -0.1339
 2780SOL    HW1 9239   6.503   0.807   4.313 -0.5862  0.3505  0.6299
 2780SOL    HW2 9240   6.434   0.924   4.221 -2.0403  1.0263  2.5119
 2781SOL     OW 9241   2.091   0.713   3.431 -0.1571  0.3018  0.7881
 2781SOL    HW1 9242   2.136   0.653   3.365  0.9939  1.4478  0.5081
 2781SOL    HW2 9243   1.994   0.722   3.407  0.0129 -0.1521 -0.0934
 2782SOL     OW 9244   4.999   6.999   5.724 -0.0865 -0.1866 -0.2215
 2782SOL    HW1 9245   4.968   6.912   5.762  1.3679  0.3737  2.4696
 2782SOL    HW2 9246   5.003   7.068   5.797  2.2229  1.1742 -1.5132
 2783SOL     OW 9247   5.696   1.392   2.026 -0.7206  0.2523 -0.4854
 2783SOL    HW1 9248   5.607   1.395   2.072  0.7867  0.8262  2.6099
 2783SOL    HW2 9249   5.732   1.299   2.030 -0.4551  0.3647 -0.2711
 2784SOL     OW 9250   6.747   2.490   2.937  0.3232  0.5495  0.0010
 2784SOL    HW1 9251   6.660   2.526   2.906  0.6719  1.0961 -0.3568
 2784SOL    HW2 9252   6.732   2.425   3.012 -0.4123  0.3210 -0.3392
 2785SOL     OW 9253   4.908   3.434   2.999  0.0097 -0.1149  0.8527
 2785SOL    HW1 9254   4.917   3.504   3.071  1.2496  0.3465  0.2911
 2785SOL    HW2 9255   4.919   3.477   2.909  2.0485 -1.1681  0.5389
 2786SOL     OW 9256   0.745   6.753   0.250  0.8855 -1.2675 -0.2991
 2786SOL    HW1 9257   0.784   6.684   0.311 -0.4850 -1.1416  0.7660
 2786SOL    HW2 9258   0.663   6.717   0.206  1.1683 -0.9252 -1.1244
 2787SOL     OW 9259   6.483   0.871   5.165  0.2573  0.0072 -0.2552
 2787SOL    HW1 9260   6.419   0.946   5.176 -0.4141 -0.5932  0.0408
 2787SOL    HW2 9261   6.576   0.901   5.187 -0.0686  0.6297  0.2585
 2788SOL     OW 9262   3.915   0.472   4.205  0.1262 -0.5514 -0.2346
 2788SOL    HW1 9263   3.834   0.511   4.250  1.0398  0.3962  0.6325
 2788SOL    HW2 9264   3.980   0.441   4.274 -0.1046 -2.6886 -0.9199
 2789SOL     OW 9265   1.111   1.983   5.339 -0.3740  0.6305 -0.5142
 2789SOL    HW1 9266   1.045   2.056   5.355 -0.4448  0.2953  0.8660
 2789SOL    HW2 9267   1.073   1.917   5.274 -1.6191  0.2064  0.5921
 2790SOL     OW 9268   2.546   3.994   1.071  0.0484 -0.0667  0.1040
 2790SOL    HW1 9269   2.529   4.008   1.169  1.1746 -0.2984  0.3570
 2790SOL    HW2 9270   2.498   4.063   1.018  1.8335  1.9803  1.0248
 2791SOL     OW 9271   0.865   3.079   6.163  0.4151  0.7689 -0.0418
 2791SOL    HW1 9272   0.906   3.002   6.114 -0.2207 -0.0823  0.7244
 2791SOL    HW2 9273   0.936   3.142   6.192  1.1623 -0.4230  0.8313
 2792SOL     OW 9274   1.772   3.573   0.054 -0.1287 -0.4894  0.3521
 2792SOL    HW1 9275   1.692   3.586  -0.004  0.2231  1.1723  0.1865
 2792SOL    HW2 9276   1.772   3.643   0.126  1.3500 -0.2452  0.1389
 2793SOL     OW 9277   4.180   4.496   6.334  0.4740  0.3505 -0.0668
 2793SOL    HW1 9278   4.081   4.508   6.330  0.5985  2.1620  1.1344
 2793SOL    HW2 9279   4.201   4.404   6.369 -0.8495  0.6150  1.5691
 2794SOL     OW 9280   3.117   3.693   0.457 -0.3838 -0.4446  0.2970
 2794SOL    HW1 9281   3.216   3.708   0.454 -0.6190  1.1958 -0.1210
 2794SOL    HW2 9282   3.075   3.762   0.517 -1.3609 -0.6262 -0.1642
 2795SOL     OW 9283   0.567   1.160   6.007 -0.1199 -0.3338  0.5898
 2795SOL    HW1 9284   0.627   1.235   6.035  0.9920 -0.8753 -0.2039
 2795SOL    HW2 9285   0.619   1.099   5.946 -0.9083 -1.8939  1.4500
 2796SOL     OW 9286   2.385   6.970   6.270 -0.4450 -0.1841  0.1743
 2796SOL    HW1 9287   2.372   6.905   6.195 -0.7861  1.8737 -1.6451
 2796SOL    HW2 9288   2.318   7.044   6.262  1.3985  1.6438  0.7216
 2797SOL     OW 9289   4.430   4.504   3.961 -0.1824  0.3373  0.0177
 2797SOL    HW1 9290   4.392   4.543   4.044  1.7616  1.5281  0.4006
 2797SOL    HW2 9291   4.476   4.575   3.908  1.5152 -0.9971 -0.4000
 2798SOL     OW 9292   6.320   1.887   2.628 -0.2305 -0.2071 -0.0915
 2798SOL    HW1 9293   6.388   1.899   2.556 -0.2941 -0.1999 -0.1506
 2798SOL    HW2 9294   6.291   1.977   2.662  1.2983 -0.1994  1.3675
 2799SOL     OW 9295   3.627   0.560   3.372 -0.2939 -0.0339  0.4255
 2799SOL    HW1 9296   3.632   0.582   3.274  2.7454  0.2207  0.5483
 2799SOL    HW2 9297   3.601   0.464   3.383 -0.1267 -0.2163 -0.6562
 2800SOL     OW 9298   4.312   0.227   1.477  0.0704  0.1775 -0.1170
 2800SOL    HW1 9299   4.237   0.196   1.418  0.1647  0.4755 -0.3953
 2800SOL    HW2 9300   4.315   0.327   1.478  1.9629  0.2234 -2.0872
 2801SOL     OW 9301   1.733   4.783   1.721  0.5710  0.1486 -0.1013
 2801SOL    HW1 9302   1.820   4.742   1.697  0.0789 -1.0949  0.1778
 2801SOL    HW2 9303   1.692   4.733   1.797 -0.3874  0.7098 -0.2277
 2802SOL     OW 9304   0.733   4.903   6.218 -0.5137 -0.4326  0.0514
 2802SOL    HW1 9305   0.815   4.958   6.236 -2.0106  1.5321  1.1877
 2802SOL    HW2 9306   0.753   4.836   6.146  1.2226  2.0181 -1.9219
 2803SOL     OW 9307   4.019   2.627   6.180 -0.3459 -0.1856  0.0596
 2803SOL    HW1 9308   3.929   2.659   6.152  0.9393  1.7703 -2.1230
 2803SOL    HW2 9309   4.069   2.702   6.223  0.9154 -0.6877 -0.4892
 2804SOL     OW 9310   4.375   1.841   2.345  0.1437 -0.5170  0.0505
 2804SOL    HW1 9311   4.432   1.914   2.382 -1.6140  1.3277 -0.6928
 2804SOL    HW2 9312   4.320   1.802   2.419 -0.0988  0.0498  0.1747
 2805SOL     OW 9313   5.350   5.613   0.433  0.6835  0.2199  0.2767
 2805SOL    HW1 9314   5.401   5.531   0.407  2.0480  1.1455 -0.0551
 2805SOL    HW2 9315   5.403   5.668   0.497  0.0573  1.1505  0.0303
 2806SOL     OW 9316   6.446   3.015   5.441 -0.3071  0.7266 -0.6019
 2806SOL    HW1 9317   6.532   2.971   5.417 -0.1671  1.2681 -1.1224
 2806SOL    HW2 9318   6.369   2.965   5.402 -0.0795  1.6533 -2.3261
 2807SOL     OW 9319   6.102   1.927   2.998 -0.3013  0.1558  0.5248
 2807SOL    HW1 9320   6.024   1.908   3.059 -0.2107  0.0799  0.6177
 2807SOL    HW2 9321   6.068   1.950   2.907 -0.4528  0.6230  0.6970
 2808SOL     OW 9322   0.693   6.297   0.296  0.6674  0.0398  0.2279
 2808SOL    HW1 9323   0.670   6.380   0.245  0.9847  0.0167  0.0427
 2808SOL    HW2 9324   0.670   6.216   0.242  1.0748  0.0160  0.0864
 2809SOL     OW 9325   1.300   4.855   6.662  0.2787 -0.2078  0.1133
 2809SOL    HW1 9326   1.390   4.868   6.620  0.5087  0.2134  0.7194
 2809SOL    HW2 9327   1.297   4.903   6.750 -1.1649  1.4110 -0.7601
 2810SOL     OW 9328   6.764   5.535   1.319  0.3560 -0.5949 -0.5620
 2810SOL    HW1 9329   6.692   5.465   1.312 -0.2300  0.1496 -2.9297
 2810SOL    HW2 9330   6.853   5.491   1.322 -0.0227 -1.4866 -1.6362
 2811SOL     OW 9331   0.963   6.856   0.376  0.8217  0.7834  0.0083
 2811SOL    HW1 9332   1.049   6.883   0.333  0.8670 -0.4268 -0.7192
 2811SOL    HW2 9333   0.897   6.832   0.304  0.4015  0.1816  0.5851
 2812SOL     OW 9334   1.394   1.311   0.943 -0.1716  0.7779  0.2280
 2812SOL    HW1 9335   1.429   1.337   0.853 -0.0130  1.5261  0.4988
 2812SOL    HW2 9336   1.328   1.236   0.934 -1.5714  2.0804 -0.7003
 2813SOL     OW 9337   4.250   2.166   2.158  0.6412  0.8852 -0.4519
 2813SOL    HW1 9338   4.274   2.073   2.129 -1.3670 -0.2971  1.3894
 2813SOL    HW2 9339   4.248   2.171   2.258 -0.0126  2.7032 -0.5138
 2814SOL     OW 9340   1.933   4.166   6.059  0.2623  0.1223 -0.3672
 2814SOL    HW1 9341   1.881   4.229   6.000  1.1174 -0.6515 -2.0027
 2814SOL    HW2 9342   1.871   4.097   6.096 -0.1723  0.1668 -0.9913
 2815SOL     OW 9343   0.576   6.195   5.969  0.5033  0.2103 -0.5373
 2815SOL    HW1 9344   0.597   6.098   5.962  2.4900  0.6225 -0.8201
 2815SOL    HW2 9345   0.661   6.248   5.974 -0.5159  1.9745 -0.8549
 2816SOL     OW 9346   6.006   4.824   4.827  0.9737  0.2406 -0.3215
 2816SOL    HW1 9347   6.056   4.783   4.751  0.6859 -2.7448  0.9626
 2816SOL    HW2 9348   6.021   4.770   4.910 -0.7169  1.9237  1.1726
 2817SOL     OW 9349   3.305   6.915   1.755  0.6676  0.0178  0.0327
 2817SOL    HW1 9350   3.255   6.865   1.685 -0.7540  0.5506  0.6368
 2817SOL    HW2 9351   3.401   6.885   1.755  0.3164 -1.2019 -0.9847
 2818SOL     OW 9352   0.988   1.160   0.205  0.3869  0.2228 -0.2630
 2818SOL    HW1 9353   0.913   1.179   0.141  0.4665  2.9909  0.3499
 2818SOL    HW2 9354   1.000   1.239   0.266  2.3629 -1.0755  1.1181
 2819SOL     OW 9355   5.233   2.468   6.916 -0.1115 -0.2207  0.2027
 2819SOL    HW1 9356   5.258   2.448   7.011  1.8913  1.0281  0.0054
 2819SOL    HW2 9357   5.136   2.491   6.911 -0.2550 -0.3135  1.9436
 2820SOL     OW 9358   2.091   1.879   0.316 -0.2431 -0.2073 -0.0315
 2820SOL    HW1 9359   2.029   1.806   0.345  1.8480 -1.7281  0.7951
 2820SOL    HW2 9360   2.119   1.933   0.396 -1.6236  1.4747 -0.6050
 2821SOL     OW 9361   4.327   3.303   6.564  0.0518 -0.2725  0.4321
 2821SOL    HW1 9362   4.324   3.393   6.607 -0.9553 -0.6206  1.1285
 2821SOL    HW2 9363   4.271   3.303   6.481  1.6130  0.2634 -0.6777
 2822SOL     OW 9364   3.870   3.388   1.297 -0.0483 -0.2013 -0.7906
 2822SOL    HW1 9365   3.865   3.488   1.303 -1.5474 -0.2725 -0.3477
 2822SOL    HW2 9366   3.912   3.352   1.381  1.2356  0.0782 -1.2919
 2823SOL     OW 9367   6.066   4.280   4.745 -0.6105  0.1354  0.1569
 2823SOL    HW1 9368   6.019   4.368   4.737  0.3329  0.5637 -0.9646
 2823SOL    HW2 9369   6.006   4.207   4.713 -0.5652  0.6660 -1.2053
 2824SOL     OW 9370   0.534   3.282   5.600 -0.5431  0.4711 -0.2691
 2824SOL    HW1 9371   0.575   3.220   5.668  3.3636  3.3588  0.3502
 2824SOL    HW2 9372   0.568   3.258   5.509 -0.6002  0.5299 -0.3057
 2825SOL     OW 9373   4.765   1.855   5.021 -0.2531 -0.1370 -0.0247
 2825SOL    HW1 9374   4.850   1.895   5.052  0.1984 -0.4153 -0.8593
 2825SOL    HW2 9375   4.776   1.756   5.011 -0.8160 -0.2367  0.3235
 2826SOL     OW 9376   1.750   2.981   6.140 -0.0281  0.2577 -0.4066
 2826SOL    HW1 9377   1.687   2.904   6.126  1.4384 -0.9715 -0.5058
 2826SOL    HW2 9378   1.747   3.010   6.236  0.2996 -0.7690 -0.0697
 2827SOL     OW 9379   6.468   3.244   0.146 -0.6744 -0.0381  0.1439
 2827SOL    HW1 9380   6.538   3.218   0.213 -0.1387 -0.4416 -0.5614
 2827SOL    HW2 9381   6.492   3.332   0.106 -1.5944  0.7614  1.2935
 2828SOL     OW 9382   1.850   6.226   0.029  0.4301 -0.1318 -0.5220
 2828SOL    HW1 9383   1.885   6.252   0.119  0.7270  1.4991 -1.0768
 2828SOL    HW2 9384   1.901   6.275  -0.042  0.5227 -1.7470 -1.6268
 2829SOL     OW 9385   2.721   4.061   0.670 -0.1686  0.4974  0.0789
 2829SOL    HW1 9386   2.705   3.977   0.618  1.7650 -0.1167  0.4067
 2829SOL    HW2 9387   2.749   4.134   0.608 -0.6146  0.5548 -0.0580
 2830SOL     OW 9388   2.413   4.566   4.695 -0.0038 -0.4055  0.8434
 2830SOL    HW1 9389   2.422   4.528   4.603 -2.4494  2.2087 -0.6105
 2830SOL    HW2 9390   2.500   4.556   4.744  1.4077 -1.7388 -1.7501
 2831SOL     OW 9391   5.614   3.088   1.351 -0.4591  0.2109 -0.0435
 2831SOL    HW1 9392   5.543   3.062   1.415 -2.1571 -0.6055 -2.1261
 2831SOL    HW2 9393   5.576   3.150   1.282  0.9039 -0.0483 -1.0816
 2832SOL     OW 9394   2.409   4.365   1.834 -0.2463 -0.0732  0.6532
 2832SOL    HW1 9395   2.462   4.356   1.749 -0.5389  2.1126  0.1723
 2832SOL    HW2 9396   2.315   4.390   1.812 -0.3625  0.3670  1.6081
 2833SOL     OW 9397   6.029   3.660   5.207  0.3493 -0.4516 -0.3904
 2833SOL    HW1 9398   6.113   3.703   5.174 -1.6081  3.3732 -0.9256
 2833SOL    HW2 9399   5.988   3.717   5.278 -1.6152 -2.3853  0.1332
 2834SOL     OW 9400   1.938   0.179   3.828 -0.1806  0.0534  0.0339
 2834SOL    HW1 9401   1.866   0.171   3.758  2.0726 -0.8531 -2.3742
 2834SOL    HW2 9402   1.986   0.266   3.816  1.5332 -0.9759 -1.0136
 2835SOL     OW 9403   6.861   6.741   0.039 -0.0721  0.1300  0.0763
 2835SOL    HW1 9404   6.929   6.766  -0.030 -1.3351  1.6696 -0.6873
 2835SOL    HW2 9405   6.881   6.789   0.124 -2.1775  3.7283 -1.2257
 2836SOL     OW 9406   3.344   5.811   2.618  0.2968 -0.2588  0.3435
 2836SOL    HW1 9407   3.373   5.802   2.713  1.3185  1.4013  0.2385
 2836SOL    HW2 9408   3.246   5.830   2.615  0.2755 -0.2052  1.0743
 2837SOL     OW 9409   6.650   6.208   2.502  0.3444 -0.1202  0.1287
 2837SOL    HW1 9410   6.582   6.270   2.544  0.8148 -0.8102  2.0132
 2837SOL    HW2 9411   6.611   6.167   2.420 -2.0905 -1.4902  1.8376
 2838SOL     OW 9412   0.548   0.083   5.288  0.5638 -0.3478 -0.3910
 2838SOL    HW1 9413   0.550   0.043   5.196 -1.1388 -1.1507 -0.1340
 2838SOL    HW2 9414   0.454   0.107   5.311  1.1914  1.3980  0.5269
 2839SOL     OW 9415   4.954   2.283   5.030 -0.6950 -0.1365 -0.0833
 2839SOL    HW1 9416   4.913   2.350   5.092  0.8859 -0.7123  1.6753
 2839SOL    HW2 9417   5.007   2.330   4.960  0.0740  0.4886  0.8998
 2840SOL     OW 9418   6.462   3.589   4.238 -0.3348  0.1010 -0.1252
 2840SOL    HW1 9419   6.414   3.509   4.201 -2.2069  0.8042  0.6697
 2840SOL    HW2 9420   6.419   3.617   4.323  1.3686  0.9560  0.4910
 2841SOL     OW 9421   4.423   2.255   2.966  0.1525  0.5467 -0.4754
 2841SOL    HW1 9422   4.335   2.273   3.009 -0.0010  0.1726 -0.6293
 2841SOL    HW2 9423   4.413   2.260   2.866 -0.3170 -2.1066 -0.6299
 2842SOL     OW 9424   1.352   6.590   4.177  0.4036 -0.6677  0.1952
 2842SOL    HW1 9425   1.341   6.649   4.257 -1.5438  1.1631 -1.3018
 2842SOL    HW2 9426   1.275   6.527   4.172  0.4173 -0.6421 -0.3302
 2843SOL     OW 9427   1.172   2.626   4.071  0.0535 -0.3978  0.4160
 2843SOL    HW1 9428   1.232   2.551   4.042  0.8088  0.9035 -1.6319
 2843SOL    HW2 9429   1.223   2.686   4.133  0.2824 -0.2559  0.0938
 2844SOL     OW 9430   5.107   4.281   1.088 -0.0057 -0.2201  0.5528
 2844SOL    HW1 9431   5.171   4.335   1.033  1.8842 -0.7346  2.1348
 2844SOL    HW2 9432   5.136   4.283   1.184 -1.9243 -1.1692  1.2045
 2845SOL     OW 9433   5.415   6.251   1.676  0.6108  1.0471  0.2965
 2845SOL    HW1 9434   5.328   6.220   1.715  1.0335  1.2440  1.4530
 2845SOL    HW2 9435   5.405   6.344   1.641  0.1193  0.7267 -0.4176
 2846SOL     OW 9436   5.591   2.530   6.453  0.3152  0.3790  0.4733
 2846SOL    HW1 9437   5.503   2.499   6.488  0.7279  0.4905  1.6507
 2846SOL    HW2 9438   5.577   2.580   6.367 -0.4581 -2.3359 -1.1273
 2847SOL     OW 9439   0.169   5.759   2.607 -0.1428  0.4669 -0.2036
 2847SOL    HW1 9440   0.226   5.739   2.686 -0.7023  0.9233  0.3299
 2847SOL    HW2 9441   0.181   5.688   2.538 -0.7387 -0.7337  0.8872
 2848SOL     OW 9442   0.724   3.282   0.925  0.0211  0.2156  0.0175
 2848SOL    HW1 9443   0.685   3.295   1.016  1.8884 -1.0022  1.0698
 2848SOL    HW2 9444   0.659   3.235   0.866 -0.8892  0.2016  1.0092
 2849SOL     OW 9445   5.679   6.270   1.742 -0.6477 -0.2903  0.3446
 2849SOL    HW1 9446   5.584   6.247   1.718 -0.1658 -2.3327  0.1494
 2849SOL    HW2 9447   5.735   6.268   1.659  0.2948 -3.4139  0.9104
 2850SOL     OW 9448   4.903   1.268   0.412 -0.4398 -0.0251 -0.3726
 2850SOL    HW1 9449   4.889   1.212   0.494 -0.7877  1.8329  0.9110
 2850SOL    HW2 9450   4.814   1.286   0.368 -0.3885 -0.0962 -0.5053
 2851SOL     OW 9451   3.158   3.675   2.823  0.6031  0.2077  0.4415
 2851SOL    HW1 9452   3.160   3.654   2.725  1.8893  0.6472  0.3506
 2851SOL    HW2 9453   3.065   3.668   2.857  0.1869 -0.2623 -0.7478
 2852SOL     OW 9454   1.279   4.974   4.438 -0.2090 -0.2106 -0.5596
 2852SOL    HW1 9455   1.263   4.883   4.475  1.6040 -1.1628 -1.9389
 2852SOL    HW2 9456   1.372   5.004   4.460 -1.7267  2.8411  2.7323
 2853SOL     OW 9457   1.037   5.106   4.420 -0.2270 -0.5996  0.1104
 2853SOL    HW1 9458   0.988   5.063   4.344 -2.2060 -0.7793  1.3955
 2853SOL    HW2 9459   1.130   5.072   4.424 -0.5191 -1.6515 -1.3732
 2854SOL     OW 9460   4.155   6.633   1.114  0.4019  0.0128  0.3065
 2854SOL    HW1 9461   4.069   6.658   1.159 -0.7841 -0.9055 -1.3472
 2854SOL    HW2 9462   4.196   6.715   1.072  0.1770  0.3975  0.8332
 2855SOL     OW 9463   2.068   3.080   6.157  0.2298  0.5443 -0.7856
 2855SOL    HW1 9464   2.034   3.005   6.101 -1.0057  0.3699  0.1485
 2855SOL    HW2 9465   2.005   3.158   6.149  0.0475  0.5221  0.3295
 2856SOL     OW 9466   1.371   6.233   5.081 -0.3816 -0.6415 -0.6323
 2856SOL    HW1 9467   1.291   6.182   5.047  0.7817 -2.9975 -0.0155
 2856SOL    HW2 9468   1.445   6.225   5.015  0.1460 -0.6436 -0.0424
 2857SOL     OW 9469   0.333   4.066   0.064 -0.0705 -0.5242  0.4445
 2857SOL    HW1 9470   0.390   4.131   0.115 -0.8940 -0.5372  1.4127
 2857SOL    HW2 9471   0.238   4.096   0.067 -0.5086 -1.9218  1.1487
 2858SOL     OW 9472   4.651   2.743   3.226 -0.4409  0.1914 -0.2712
 2858SOL    HW1 9473   4.726   2.680   3.245 -0.3685  0.8601  1.8676
 2858SOL    HW2 9474   4.564   2.702   3.254 -0.6879  0.1541 -1.0461
 2859SOL     OW 9475   1.804   4.483   2.679 -0.3813  0.4992  0.0750
 2859SOL    HW1 9476   1.766   4.425   2.751  1.7117  1.2428  1.8886
 2859SOL    HW2 9477   1.900   4.459   2.665 -0.8751 -0.0498 -2.9956
 2860SOL     OW 9478   2.098   0.728   1.367  0.5489 -0.5007 -0.1923
 2860SOL    HW1 9479   2.150   0.811   1.389  0.8046 -0.5344 -0.6403
 2860SOL    HW2 9480   2.103   0.712   1.268 -1.7076  0.4236 -0.5192
 2861SOL     OW 9481   5.953   2.574   4.090 -0.1610  0.7171 -0.3908
 2861SOL    HW1 9482   6.011   2.640   4.137  0.2417 -0.7886  1.3304
 2861SOL    HW2 9483   5.965   2.483   4.131 -2.6984  0.0748 -0.8938
 2862SOL     OW 9484   4.531   3.706   0.454 -0.3599 -0.3332  0.1683
 2862SOL    HW1 9485   4.495   3.626   0.407 -0.1786 -1.0790  1.2700
 2862SOL    HW2 9486   4.562   3.681   0.545  1.5742  0.5819 -0.1785
 2863SOL     OW 9487   4.942   1.247   0.033  0.6196 -0.3116  0.3864
 2863SOL    HW1 9488   4.899   1.311   0.097  0.1295  0.2026 -0.4410
 2863SOL    HW2 9489   4.938   1.155   0.070 -0.9283 -0.2273  0.4700
 2864SOL     OW 9490   0.974   3.729   4.917  0.0007 -0.7094  0.1381
 2864SOL    HW1 9491   0.939   3.707   4.826  0.0909  1.2017 -0.4073
 2864SOL    HW2 9492   1.013   3.821   4.916  0.5702 -0.8927  1.9697
 2865SOL     OW 9493   5.679   4.157   6.221 -0.0216  0.5559 -0.4255
 2865SOL    HW1 9494   5.591   4.147   6.268  0.5722 -1.5280  0.3942
 2865SOL    HW2 9495   5.668   4.134   6.124 -0.1869 -1.0827 -0.0581
 2866SOL     OW 9496   5.556   5.820   2.557  0.4251 -0.1759  0.3267
 2866SOL    HW1 9497   5.476   5.808   2.616  1.5377 -1.5463  1.6486
 2866SOL    HW2 9498   5.547   5.761   2.477  1.2060 -2.3734  1.7559
 2867SOL     OW 9499   2.204   7.006   4.844  0.5707 -0.2048  0.4160
 2867SOL    HW1 9500   2.272   6.966   4.905 -0.7282 -1.0791  1.3559
 2867SOL    HW2 9501   2.244   7.083   4.795  1.2257  1.7128  3.6674
 2868SOL     OW 9502   4.877   5.193   6.509  0.7281  0.2709 -0.0705
 2868SOL    HW1 9503   4.948   5.187   6.579  1.8443  0.6346 -1.1251
 2868SOL    HW2 9504   4.829   5.280   6.517  0.4568  0.0660  0.5878
 2869SOL     OW 9505   6.949   4.690   5.432 -0.1294  0.9011  0.5665
 2869SOL    HW1 9506   6.874   4.743   5.473  0.5350  1.1946  1.4264
 2869SOL    HW2 9507   7.021   4.752   5.402  1.0581  0.4915  2.3914
 2870SOL     OW 9508   0.032   6.625   2.392  0.7691  0.6848 -0.2856
 2870SOL    HW1 9509  -0.039   6.557   2.412 -0.9377  2.6456  0.7056
 2870SOL    HW2 9510   0.007   6.712   2.434  1.6726  2.5943 -3.4330
 2871SOL     OW 9511   4.964   1.929   2.515 -0.2668 -0.4941 -0.6592
 2871SOL    HW1 9512   5.003   1.899   2.602 -1.9969 -0.4719  0.1660
 2871SOL    HW2 9513   4.884   1.873   2.494 -1.0562  0.7969 -1.2099
 2872SOL     OW 9514   3.341   1.536   0.912 -0.6701 -0.1476 -0.3156
 2872SOL    HW1 9515   3.370   1.592   0.834  0.9729  0.3373  0.6051
 2872SOL    HW2 9516   3.258   1.575   0.952  1.2026  2.6119  1.2023
 2873SOL     OW 9517   0.222   6.680   2.917 -0.3293 -0.2044  0.3591
 2873SOL    HW1 9518   0.197   6.615   2.846  0.8064  1.2485 -1.4483
 2873SOL    HW2 9519   0.182   6.651   3.004 -1.9167 -1.9355 -0.8723
 2874SOL     OW 9520   1.815   0.279   1.907 -0.4849 -0.2909 -0.2966
 2874SOL    HW1 9521   1.890   0.242   1.852 -0.8173  1.5459 -2.0796
 2874SOL    HW2 9522   1.812   0.230   1.995  1.9688 -1.2808 -0.6657
 2875SOL     OW 9523   3.494   6.849   2.719  0.3715  0.6079  0.3372
 2875SOL    HW1 9524   3.523   6.915   2.650  0.9707  0.9433  0.8993
 2875SOL    HW2 9525   3.548   6.765   2.711 -0.3518  0.1880 -0.3403
 2876SOL     OW 9526   0.878   1.066   1.057  0.1874 -0.0938  0.3107
 2876SOL    HW1 9527   0.826   1.133   1.111 -0.0198 -1.6855  2.1830
 2876SOL    HW2 9528   0.924   1.113   0.982 -1.8613  1.7699  0.1104
 2877SOL     OW 9529   1.295   4.034   5.377 -0.0049  0.8434 -0.2058
 2877SOL    HW1 9530   1.315   3.976   5.298  1.6940 -1.0572  1.4988
 2877SOL    HW2 9531   1.337   4.124   5.364  2.3466 -0.2333 -0.4883
 2878SOL     OW 9532   4.301   3.915   5.517 -0.1127  0.3913  0.7332
 2878SOL    HW1 9533   4.333   3.821   5.511 -0.0235  0.4932 -0.5983
 2878SOL    HW2 9534   4.367   3.976   5.475 -1.1804  0.8005 -0.4027
 2879SOL     OW 9535   4.802   0.243   0.425 -0.0071  0.3632 -0.3199
 2879SOL    HW1 9536   4.864   0.321   0.417  2.2601 -1.2574  0.6300
 2879SOL    HW2 9537   4.707   0.277   0.428  0.8076  2.9668 -1.0140
 2880SOL     OW 9538   2.522   1.195   3.536 -0.1880 -0.7088 -0.1954
 2880SOL    HW1 9539   2.603   1.217   3.591 -0.3434  3.7817 -1.3638
 2880SOL    HW2 9540   2.550   1.138   3.458  0.8510 -3.1806  1.8368
 2881SOL     OW 9541   0.192   5.228   0.032 -0.5708 -0.2110  0.5619
 2881SOL    HW1 9542   0.220   5.207  -0.061 -0.3234  1.7819  0.1250
 2881SOL    HW2 9543   0.272   5.255   0.086 -0.6309 -1.8391  1.5358
 2882SOL     OW 9544   3.316   5.416   6.698 -0.1239 -0.7657 -1.0178
 2882SOL    HW1 9545   3.405   5.461   6.698 -0.1751 -0.5595  0.9385
 2882SOL    HW2 9546   3.246   5.479   6.731 -0.5515 -1.6583 -0.1562
 2883SOL     OW 9547   5.912   0.408   3.459 -0.3537  0.4798  0.3634
 2883SOL    HW1 9548   5.941   0.339   3.524 -1.4475  0.7294  1.1354
 2883SOL    HW2 9549   5.908   0.497   3.504  1.4552  1.1744 -0.7174
 2884SOL     OW 9550   6.684   4.831   2.773 -0.1545  0.4618 -0.9452
 2884SOL    HW1 9551   6.659   4.734   2.776 -1.8319  0.8901  0.7333
 2884SOL    HW2 9552   6.689   4.861   2.678 -0.6793 -0.9991 -1.4707
 2885SOL     OW 9553   2.127   5.355   4.484  0.3083  0.2252  0.7103
 2885SOL    HW1 9554   2.220   5.342   4.518  0.3718 -0.2880  0.3484
 2885SOL    HW2 9555   2.130   5.398   4.394  0.1709  0.7978  0.9774
 2886SOL     OW 9556   2.207   4.551   4.145 -0.1956  0.2966  0.0897
 2886SOL    HW1 9557   2.215   4.612   4.223 -0.5861  1.5181 -0.8001
 2886SOL    HW2 9558   2.128   4.577   4.090  1.2356  0.8055 -1.8481
 2887SOL     OW 9559   5.664   3.421   0.945 -0.7170  0.2480 -0.6991
 2887SOL    HW1 9560   5.586   3.478   0.921 -1.5958  0.4888  2.2781
 2887SOL    HW2 9561   5.640   3.324   0.935 -1.9376  0.2788  1.4007
 2888SOL     OW 9562   2.945   6.979   6.505 -0.0666 -0.0390 -0.3196
 2888SOL    HW1 9563   3.027   7.035   6.515  0.3211 -0.7550  0.6036
 2888SOL    HW2 9564   2.940   6.913   6.579  0.3195 -2.3512 -2.2473
 2889SOL     OW 9565   5.290   5.016   1.367 -0.1649  0.0869  0.3367
 2889SOL    HW1 9566   5.353   5.085   1.331  1.9930 -1.6410  0.5301
 2889SOL    HW2 9567   5.230   4.984   1.294  0.9556 -0.0192 -0.5743
 2890SOL     OW 9568   1.237   1.121   1.307  0.4300  0.4516  0.0878
 2890SOL    HW1 9569   1.315   1.174   1.274  0.0017  0.8013 -0.3924
 2890SOL    HW2 9570   1.260   1.077   1.393  0.6647  1.7759  0.7168
 2891SOL     OW 9571   6.875   2.715   5.848  0.0360 -0.1233 -0.4457
 2891SOL    HW1 9572   6.881   2.739   5.752  1.8877  0.1727 -0.3009
 2891SOL    HW2 9573   6.783   2.733   5.882  0.1305  2.6757 -1.4142
 2892SOL     OW 9574   0.709   5.169   3.142 -0.0387 -0.1764 -0.3681
 2892SOL    HW1 9575   0.711   5.203   3.236  0.7218 -1.3664  0.0652
 2892SOL    HW2 9576   0.634   5.104   3.132 -1.4217  1.4574 -1.1681
 2893SOL     OW 9577   0.012   5.970   6.113 -0.0349 -0.4047 -0.1294
 2893SOL    HW1 9578   0.021   5.929   6.022  1.8924  0.7877 -0.5418
 2893SOL    HW2 9579  -0.021   5.902   6.178 -2.1512 -1.1078 -1.8397
 2894SOL     OW 9580   2.003   5.578   0.293  0.2621  0.3917  0.3738
 2894SOL    HW1 9581   2.007   5.660   0.235 -0.4743 -0.1715 -0.4966
 2894SOL    HW2 9582   2.051   5.503   0.248 -1.0123 -0.2837  0.0817
 2895SOL     OW 9583   5.009   6.376   6.041 -0.2575 -0.3608  0.5030
 2895SOL    HW1 9584   5.070   6.385   6.120  1.5672  1.3065 -0.9665
 2895SOL    HW2 9585   4.917   6.405   6.066  0.6196  1.6588  1.6589
 2896SOL     OW 9586   4.563   6.183   5.496 -0.1888  0.4784  0.3050
 2896SOL    HW1 9587   4.489   6.250   5.488 -1.0619 -0.4353  0.4346
 2896SOL    HW2 9588   4.650   6.230   5.503 -0.8423  1.6216  1.0873
 2897SOL     OW 9589   4.719   5.297   3.430 -0.3119  0.1389  0.4182
 2897SOL    HW1 9590   4.659   5.377   3.429  0.6868  0.9206  1.1513
 2897SOL    HW2 9591   4.779   5.301   3.510  0.3641 -0.8834 -0.0175
 2898SOL     OW 9592   6.933   3.044   2.462 -0.1749  0.3695 -0.2942
 2898SOL    HW1 9593   6.974   3.118   2.410 -1.2193  0.2815 -1.2653
 2898SOL    HW2 9594   6.993   3.020   2.539  2.1453 -0.4873 -2.2495
 2899SOL     OW 9595   4.813   2.520   1.568 -0.8307  0.1948  0.2513
 2899SOL    HW1 9596   4.849   2.611   1.587 -0.3632  0.0295  0.1620
 2899SOL    HW2 9597   4.776   2.480   1.651 -1.2983  0.5810  0.2314
 2900SOL     OW 9598   3.353   4.119   3.343 -0.6898  0.5306 -0.2398
 2900SOL    HW1 9599   3.368   4.066   3.259 -1.8996 -0.3253  0.0569
 2900SOL    HW2 9600   3.323   4.212   3.319 -2.3745 -0.1196 -0.7911
 2901SOL     OW 9601   2.521   3.188   0.979  0.2467  0.1609 -1.0192
 2901SOL    HW1 9602   2.492   3.104   1.026 -1.1325  0.4671 -1.2854
 2901SOL    HW2 9603   2.539   3.259   1.047  0.5520 -0.0878 -0.8373
 2902SOL     OW 9604   4.701   6.495   3.972 -0.2122 -0.2446 -0.1697
 2902SOL    HW1 9605   4.619   6.512   4.026 -0.2827  0.7353 -0.5545
 2902SOL    HW2 9606   4.754   6.421   4.013 -1.4655 -1.1421 -0.1305
 2903SOL     OW 9607   6.331   4.738   1.721  0.2333 -0.2495  0.0511
 2903SOL    HW1 9608   6.290   4.726   1.812  0.9290  0.1318  0.4254
 2903SOL    HW2 9609   6.361   4.833   1.711 -1.1014  0.0920 -1.1253
 2904SOL     OW 9610   3.987   4.837   3.424 -0.1627  0.0419 -0.1106
 2904SOL    HW1 9611   4.025   4.826   3.332 -0.1231  0.9651 -0.2153
 2904SOL    HW2 9612   3.899   4.883   3.418  1.6197  3.9076  0.5085
 2905SOL     OW 9613   1.678   4.069   0.242  0.6589 -0.4477  0.4235
 2905SOL    HW1 9614   1.618   4.050   0.164  2.0221  0.3060 -0.8603
 2905SOL    HW2 9615   1.642   4.147   0.293  1.2996  0.9664 -1.2192
 2906SOL     OW 9616   2.857   6.767   6.701  0.3439  1.0476  0.0409
 2906SOL    HW1 9617   2.935   6.750   6.761  1.1076  1.8266 -0.7063
 2906SOL    HW2 9618   2.831   6.682   6.655  2.3209  1.2430 -1.5451
 2907SOL     OW 9619   0.709   1.491   5.232 -0.1352  0.5841 -0.2888
 2907SOL    HW1 9620   0.723   1.392   5.237 -1.4346  0.3667 -0.7611
 2907SOL    HW2 9621   0.796   1.537   5.250  0.7037 -0.6581 -1.0013
 2908SOL     OW 9622   1.953   4.589   5.511  0.1107 -0.2302  0.0879
 2908SOL    HW1 9623   2.050   4.606   5.533  0.1430  1.3186 -1.1170
 2908SOL    HW2 9624   1.902   4.674   5.519 -0.9738 -0.8360 -0.2511
 2909SOL     OW 9625   6.480   6.473   6.944  0.0630 -0.1640  0.1117
 2909SOL    HW1 9626   6.466   6.455   7.041  2.4336 -2.1126  0.1786
 2909SOL    HW2 9627   6.545   6.548   6.933  1.3828 -1.2815  0.1069
 2910SOL     OW 9628   1.203   0.711   4.592 -0.3241  0.1987 -0.1961
 2910SOL    HW1 9629   1.201   0.612   4.573  0.0482  0.5237 -2.1204
 2910SOL    HW2 9630   1.293   0.747   4.568 -0.7049  1.1438 -0.2117
 2911SOL     OW 9631   5.772   4.008   2.827  0.5812  0.0153  0.5515
 2911SOL    HW1 9632   5.835   3.937   2.797 -0.1457 -1.8582  3.0440
 2911SOL    HW2 9633   5.679   3.969   2.832 -0.2942  1.8852 -0.3558
 2912SOL     OW 9634   6.318   0.351   3.699 -0.2726  0.3977 -0.3370
 2912SOL    HW1 9635   6.394   0.300   3.660  0.0966 -1.4494  2.4806
 2912SOL    HW2 9636   6.337   0.372   3.795 -1.7650  3.2658 -0.5523
 2913SOL     OW 9637   5.800   7.003   3.265 -0.5455 -0.0330 -0.2595
 2913SOL    HW1 9638   5.776   6.910   3.289 -1.7969  0.3038 -0.1743
 2913SOL    HW2 9639   5.873   7.002   3.196 -1.2779 -1.0926 -1.0342
 2914SOL     OW 9640   4.445   4.413   0.985 -0.0847  1.1932 -0.2588
 2914SOL    HW1 9641   4.363   4.450   1.029 -1.6082  0.2852 -2.1800
 2914SOL    HW2 9642   4.484   4.482   0.924 -0.2222  1.1579 -0.3859
 2915SOL     OW 9643   2.626   0.526   4.161  0.0277  0.0556 -0.3279
 2915SOL    HW1 9644   2.670   0.563   4.243  1.0100  0.1694 -0.8909
 2915SOL    HW2 9645   2.599   0.431   4.177  1.0201 -0.2109 -0.1499
 2916SOL     OW 9646   6.630   6.829   1.048  0.9378  0.7958 -0.0572
 2916SOL    HW1 9647   6.533   6.806   1.035  1.1487 -1.4290  1.5694
 2916SOL    HW2 9648   6.678   6.823   0.961 -0.1635  0.7568 -0.6875
 2917SOL     OW 9649   1.875   2.400   6.052  0.8693 -0.2268 -0.1956
 2917SOL    HW1 9650   1.790   2.451   6.069  0.9518 -0.0528 -0.3027
 2917SOL    HW2 9651   1.883   2.326   6.118 -0.3548 -1.4790 -1.3660
 2918SOL     OW 9652   4.944   1.010   0.173  0.5332  0.2612 -0.0436
 2918SOL    HW1 9653   4.872   0.943   0.188 -1.5735  2.3244 -0.4223
 2918SOL    HW2 9654   5.013   1.001   0.245 -1.5867  0.1036  2.0946
 2919SOL     OW 9655   2.745   5.954   6.451  0.5150  0.5262 -0.2231
 2919SOL    HW1 9656   2.755   5.867   6.499 -1.2767 -0.0794 -0.8539
 2919SOL    HW2 9657   2.694   5.940   6.366  1.2445  2.0100 -0.9503
 2920SOL     OW 9658   3.693   1.173   2.233 -0.3629 -0.0835 -0.0963
 2920SOL    HW1 9659   3.705   1.108   2.158 -0.6961  0.5997 -0.7573
 2920SOL    HW2 9660   3.652   1.257   2.198 -0.7456  0.1622  0.8995
 2921SOL     OW 9661   0.961   4.539   3.631  0.2456 -0.4458 -0.2849
 2921SOL    HW1 9662   0.969   4.447   3.593  0.7684 -0.4519 -0.1794
 2921SOL    HW2 9663   1.015   4.602   3.576  0.3750 -0.3144 -0.0103
 2922SOL     OW 9664   2.646   5.039   3.121 -0.7340  0.8865  0.1770
 2922SOL    HW1 9665   2.689   5.128   3.105 -0.1806  0.6177  0.1466
 2922SOL    HW2 9666   2.655   4.982   3.039  0.9403 -0.0183  0.9482
 2923SOL     OW 9667   1.227   4.684   4.983  0.2279  0.2690 -0.2447
 2923SOL    HW1 9668   1.136   4.688   4.942  0.3939 -1.7480 -0.9709
 2923SOL    HW2 9669   1.244   4.766   5.037 -2.1742  0.5057  0.2468
 2924SOL     OW 9670   5.374   2.644   6.757  0.1129  0.0870 -0.3284
 2924SOL    HW1 9671   5.474   2.636   6.764  0.0385 -1.7700 -0.8973
 2924SOL    HW2 9672   5.331   2.576   6.816 -0.7487 -0.9336 -2.0391
 2925SOL     OW 9673   5.108   0.870   5.098  0.5473 -0.0817 -0.2006
 2925SOL    HW1 9674   5.116   0.880   4.999  0.6630 -0.5326 -0.2403
 2925SOL    HW2 9675   5.182   0.921   5.142  0.5582  0.0335 -0.3520
 2926SOL     OW 9676   4.651   4.940   5.895  0.0213  0.4087 -0.5058
 2926SOL    HW1 9677   4.715   4.924   5.970 -0.3251 -0.9478 -0.4732
 2926SOL    HW2 9678   4.702   4.949   5.809  0.5234  3.2116 -0.0064
 2927SOL     OW 9679   3.011   1.649   3.014 -0.1630 -0.5336  0.0678
 2927SOL    HW1 9680   3.096   1.700   3.029 -0.4592  0.0833 -0.3420
 2927SOL    HW2 9681   2.974   1.671   2.924 -0.1888 -1.6334 -0.2121
 2928SOL     OW 9682   6.024   3.666   6.054  0.1164  0.5647  0.2601
 2928SOL    HW1 9683   6.046   3.762   6.071  0.7642  0.3066  0.9606
 2928SOL    HW2 9684   5.928   3.649   6.074  0.0854  0.9934  0.4855
 2929SOL     OW 9685   3.378   0.725   0.948 -0.4377  0.2812  0.4996
 2929SOL    HW1 9686   3.445   0.760   0.882 -0.5580 -1.7044 -0.7717
 2929SOL    HW2 9687   3.290   0.770   0.932 -0.4704 -0.1665 -0.7481
 2930SOL     OW 9688   0.266   3.715   4.279 -0.2153  0.2784 -0.0742
 2930SOL    HW1 9689   0.173   3.741   4.304 -0.4879 -0.4215 -0.3267
 2930SOL    HW2 9690   0.263   3.654   4.200  0.3416 -0.9740  0.8417
 2931SOL     OW 9691   6.788   3.417   5.701 -0.0384 -0.1309  0.1124
 2931SOL    HW1 9692   6.797   3.367   5.787  0.6196 -1.1247 -0.5159
 2931SOL    HW2 9693   6.745   3.505   5.719 -0.1862 -0.4392  1.4143
 2932SOL     OW 9694   5.491   1.166   1.094  0.3828  0.0315 -0.3132
 2932SOL    HW1 9695   5.555   1.205   1.027  0.7721 -1.0143 -0.5648
 2932SOL    HW2 9696   5.539   1.152   1.181  0.8392 -1.8278 -0.8341
 2933SOL     OW 9697   5.351   1.212   5.908  0.2317  0.6095  0.1378
 2933SOL    HW1 9698   5.302   1.270   5.843  0.2025 -1.0647 -1.4174
 2933SOL    HW2 9699   5.298   1.205   5.993 -2.3797 -1.1704 -1.4839
 2934SOL     OW 9700   5.535   5.730   3.852 -0.0719  0.6861 -0.7993
 2934SOL    HW1 9701   5.438   5.737   3.876  0.1184  1.3200 -0.1722
 2934SOL    HW2 9702   5.575   5.650   3.896  0.4778  2.2969  1.8072
 2935SOL     OW 9703   4.678   2.746   5.926 -0.7156  0.0516  0.2108
 2935SOL    HW1 9704   4.638   2.674   5.869 -0.6482 -0.2104  0.4903
 2935SOL    HW2 9705   4.624   2.829   5.918 -1.1842 -0.2294  0.3960
 2936SOL     OW 9706   5.309   5.807   3.375 -0.5752  0.0273 -0.0905
 2936SOL    HW1 9707   5.352   5.718   3.392  0.4224 -0.3052 -3.5751
 2936SOL    HW2 9708   5.370   5.879   3.406  0.0539 -0.4991 -0.0673
 2937SOL     OW 9709   6.436   4.119   3.409  0.0363  0.3976  0.2563
 2937SOL    HW1 9710   6.394   4.146   3.496  1.3661  0.0309  1.0328
 2937SOL    HW2 9711   6.364   4.089   3.346 -0.8624 -0.4190  1.6063
 2938SOL     OW 9712   0.510   5.895   2.498 -0.2973 -0.0628  0.1413
 2938SOL    HW1 9713   0.593   5.913   2.550 -0.1872  1.8902 -0.6354
 2938SOL    HW2 9714   0.448   5.973   2.505 -1.3405 -0.7928 -0.6454
 2939SOL     OW 9715   0.735   5.209   0.987  0.1165  0.5782 -0.2409
 2939SOL    HW1 9716   0.649   5.259   0.992 -0.9222 -1.1540  0.1779
 2939SOL    HW2 9717   0.801   5.261   0.933 -0.5256  2.8489  1.0186
 2940SOL     OW 9718   4.715   0.309   3.174  0.2253 -0.2809  0.1947
 2940SOL    HW1 9719   4.792   0.281   3.117  1.1596 -0.5628  1.5586
 2940SOL    HW2 9720   4.741   0.386   3.232 -0.2002 -0.9879  1.3621
 2941SOL     OW 9721   2.100   6.128   2.247  0.0148 -0.5804 -0.1906
 2941SOL    HW1 9722   2.057   6.209   2.287  2.6733  0.1188  1.5323
 2941SOL    HW2 9723   2.070   6.047   2.298 -0.4060 -0.3109  0.0031
 2942SOL     OW 9724   1.754   2.807   2.264  0.0542 -0.0461 -0.1049
 2942SOL    HW1 9725   1.773   2.803   2.166  0.1612 -0.7088 -0.0667
 2942SOL    HW2 9726   1.656   2.815   2.279 -0.1711 -2.0155 -0.2640
 2943SOL     OW 9727   1.494   3.924   2.654  0.3148 -0.0202  0.0183
 2943SOL    HW1 9728   1.592   3.923   2.634  0.4959 -1.2113  0.8735
 2943SOL    HW2 9729   1.442   3.927   2.569  1.0730  1.6056 -0.4387
 2944SOL     OW 9730   2.169   6.477   3.800  0.5182  0.3502 -0.6316
 2944SOL    HW1 9731   2.235   6.524   3.742  0.3618  2.5488  0.8123
 2944SOL    HW2 9732   2.079   6.479   3.757  0.5741  1.1823 -0.7266
 2945SOL     OW 9733   5.126   3.299   6.784 -0.4451  0.0678 -0.1809
 2945SOL    HW1 9734   5.208   3.280   6.731  0.0696  1.8878 -0.0855
 2945SOL    HW2 9735   5.070   3.367   6.736 -0.2869  1.2679  1.2476
 2946SOL     OW 9736   2.914   3.746   2.923 -0.8734  0.1293 -0.5213
 2946SOL    HW1 9737   2.817   3.767   2.925 -0.7033  0.9105  0.1570
 2946SOL    HW2 9738   2.967   3.829   2.944 -0.0636 -0.2901 -0.8418
 2947SOL     OW 9739   0.279   6.473   1.624  0.1538  0.2619  0.4206
 2947SOL    HW1 9740   0.319   6.515   1.705  0.3816 -1.3239  1.1512
 2947SOL    HW2 9741   0.179   6.483   1.628  0.2596  1.6346  0.0523
 2948SOL     OW 9742   6.628   4.803   0.061  0.6391 -0.2195  0.2013
 2948SOL    HW1 9743   6.629   4.705   0.046 -2.3316 -0.2521 -0.3334
 2948SOL    HW2 9744   6.564   4.826   0.135  2.7264  1.2238  1.6917
 2949SOL     OW 9745   1.052   6.305   0.578 -0.6826 -0.0777  0.5745
 2949SOL    HW1 9746   1.032   6.282   0.483 -2.7072 -0.4180  1.0217
 2949SOL    HW2 9747   1.109   6.233   0.618 -0.6334 -0.4393 -0.1330
 2950SOL     OW 9748   5.695   4.445   2.941 -0.0586 -0.0514 -0.6650
 2950SOL    HW1 9749   5.757   4.369   2.955 -1.1770 -0.8077  0.4268
 2950SOL    HW2 9750   5.705   4.480   2.849 -0.0910 -2.0708 -1.4867
 2951SOL     OW 9751   2.320   4.085   0.262  0.2098 -0.1774  0.1690
 2951SOL    HW1 9752   2.281   4.048   0.346  0.1729  0.6286  0.5252
 2951SOL    HW2 9753   2.275   4.172   0.241  1.7943  0.7789  0.5978
 2952SOL     OW 9754   1.383   0.757   3.651 -0.0995 -0.3081  0.1861
 2952SOL    HW1 9755   1.407   0.846   3.611  0.5081  0.0669  1.3340
 2952SOL    HW2 9756   1.335   0.701   3.583 -0.8548  1.0481 -0.4279
 2953SOL     OW 9757   1.873   0.050   2.403 -0.0205 -0.5412 -0.2825
 2953SOL    HW1 9758   1.929  -0.018   2.451 -0.7286 -1.1401 -0.2825
 2953SOL    HW2 9759   1.901   0.142   2.430 -0.2183 -0.8566  1.0869
 2954SOL     OW 9760   2.185   3.114   5.250  0.7046 -0.1417 -0.3380
 2954SOL    HW1 9761   2.154   3.024   5.282 -0.0696  0.1721 -0.1863
 2954SOL    HW2 9762   2.274   3.105   5.207  0.1767 -1.1535 -1.2593
 2955SOL     OW 9763   0.925   5.497   6.952 -0.5293 -0.3670  0.7400
 2955SOL    HW1 9764   1.005   5.540   6.995 -2.2746  0.2336  3.6686
 2955SOL    HW2 9765   0.925   5.517   6.854  3.2016 -0.9546  0.4409
 2956SOL     OW 9766   6.858   3.671   4.646 -0.1135  0.2952  0.1143
 2956SOL    HW1 9767   6.837   3.657   4.549 -1.2890  1.2019  0.2141
 2956SOL    HW2 9768   6.957   3.672   4.659  0.0715 -1.3105 -0.8378
 2957SOL     OW 9769   0.713   5.653   5.576 -0.3526 -0.3187 -0.4535
 2957SOL    HW1 9770   0.775   5.709   5.630  0.2222 -1.1814 -0.1935
 2957SOL    HW2 9771   0.740   5.557   5.584 -0.2943 -0.4818 -2.1893
 2958SOL     OW 9772   2.623   4.006   6.239  0.1739  0.0533 -0.1356
 2958SOL    HW1 9773   2.567   3.933   6.278  0.5405 -1.0806 -1.6270
 2958SOL    HW2 9774   2.631   3.992   6.140  1.1451  1.5220 -0.2926
 2959SOL     OW 9775   1.635   3.804   4.797 -0.6033 -0.2036 -0.4056
 2959SOL    HW1 9776   1.651   3.708   4.820  0.8839 -0.1473 -1.1190
 2959SOL    HW2 9777   1.720   3.856   4.806 -1.6766  1.4004  1.4259
 2960SOL     OW 9778   0.151   0.101   6.551 -0.5327 -0.4086  0.0349
 2960SOL    HW1 9779   0.062   0.070   6.518 -0.6595  1.2190 -1.2539
 2960SOL    HW2 9780   0.139   0.153   6.636 -0.9362  0.5610 -0.6034
 2961SOL     OW 9781   6.212   1.207   1.621  0.3123 -0.1676  0.5201
 2961SOL    HW1 9782   6.131   1.150   1.617  1.1237 -1.3626  0.6927
 2961SOL    HW2 9783   6.191   1.298   1.585 -0.5290 -1.1208 -1.5234
 2962SOL     OW 9784   5.658   0.596   4.573  0.2774  0.3107  0.2882
 2962SOL    HW1 9785   5.652   0.566   4.478  2.8586  1.1764 -0.2319
 2962SOL    HW2 9786   5.707   0.683   4.577 -2.1030  1.7019  2.2320
 2963SOL     OW 9787   1.407   0.938   5.076 -0.2306  0.1171  0.1282
 2963SOL    HW1 9788   1.320   0.934   5.124 -1.2969 -0.4163 -1.7263
 2963SOL    HW2 9789   1.403   1.010   5.007 -0.9826 -2.6912 -3.0451
 2964SOL     OW 9790   6.034   0.365   4.920  0.5109 -0.0770 -0.1017
 2964SOL    HW1 9791   6.037   0.335   5.016  0.3972 -0.6999 -0.2869
 2964SOL    HW2 9792   5.997   0.291   4.864  1.2856  0.0143 -0.7379
 2965SOL     OW 9793   0.916   1.544   0.009  0.4154 -0.1110 -0.2882
 2965SOL    HW1 9794   0.869   1.592  -0.065  0.2319 -0.9414 -0.7306
 2965SOL    HW2 9795   0.921   1.603   0.090 -0.9728  0.1667 -0.3779
 2966SOL     OW 9796   4.556   0.122   2.166 -0.2531  0.2199  0.0260
 2966SOL    HW1 9797   4.596   0.129   2.074 -0.0926 -0.5915  0.0220
 2966SOL    HW2 9798   4.628   0.097   2.231 -0.7960 -1.7981 -0.0641
 2967SOL     OW 9799   5.410   6.229   5.254  0.4770  0.2579  0.0265
 2967SOL    HW1 9800   5.310   6.221   5.251  0.5317 -0.4346 -0.0756
 2967SOL    HW2 9801   5.436   6.301   5.319 -0.0819  0.4179  0.0790
 2968SOL     OW 9802   1.830   5.226   1.147 -0.3855  0.2315  0.5982
 2968SOL    HW1 9803   1.746   5.267   1.113  0.3975  0.9196 -0.5930
 2968SOL    HW2 9804   1.828   5.222   1.247 -1.2411  1.5055  0.6514
 2969SOL     OW 9805   5.986   0.069   5.475 -0.2953  0.3209 -0.0077
 2969SOL    HW1 9806   5.942  -0.014   5.440  3.0696 -1.8159  0.3875
 2969SOL    HW2 9807   6.047   0.045   5.551 -0.3421  3.4385  1.1428
 2970SOL     OW 9808   3.287   1.965   0.131  0.1212  0.1584 -0.1902
 2970SOL    HW1 9809   3.314   1.891   0.070  1.4068 -0.4922  1.1060
 2970SOL    HW2 9810   3.262   1.927   0.220  0.9337  1.2755  0.5385
 2971SOL     OW 9811   4.124   3.582   5.627 -0.4589  0.5402  0.4928
 2971SOL    HW1 9812   4.127   3.576   5.727  5.2095 -0.3137  0.6030
 2971SOL    HW2 9813   4.085   3.671   5.600 -0.4209  1.6025  3.5444
 2972SOL     OW 9814   5.646   0.738   1.644  0.0557 -0.1905 -0.2096
 2972SOL    HW1 9815   5.654   0.671   1.570 -0.5044 -1.0782  0.5130
 2972SOL    HW2 9816   5.593   0.699   1.719 -1.9849  1.7358 -0.5358
 2973SOL     OW 9817   4.408   2.046   4.082 -0.0295 -0.4317 -0.0098
 2973SOL    HW1 9818   4.407   2.000   3.993 -0.4328 -0.4293 -0.0099
 2973SOL    HW2 9819   4.470   1.998   4.144  0.2592 -0.4296 -0.2944
 2974SOL     OW 9820   6.085   5.215   1.267  0.4538 -0.7264 -0.2119
 2974SOL    HW1 9821   6.113   5.256   1.354  1.1492  1.7037 -1.4912
 2974SOL    HW2 9822   6.163   5.171   1.223  0.9728  1.0249 -1.1240
 2975SOL     OW 9823   6.353   2.780   4.337 -0.0736  0.0265 -0.2837
 2975SOL    HW1 9824   6.282   2.849   4.326  0.2027  0.4216  0.4093
 2975SOL    HW2 9825   6.384   2.778   4.432  2.3467  1.3795 -0.9553
 2976SOL     OW 9826   5.224   0.549   2.351  0.0113  0.5585 -0.0495
 2976SOL    HW1 9827   5.301   0.528   2.411  0.2683  0.0245 -0.5612
 2976SOL    HW2 9828   5.235   0.501   2.264  0.3723  2.4174 -1.0868
 2977SOL     OW 9829   1.156   6.444   1.456 -0.1050 -0.3628 -0.0763
 2977SOL    HW1 9830   1.091   6.479   1.523 -0.7786 -1.7971  0.0509
 2977SOL    HW2 9831   1.119   6.459   1.364  0.1787  0.3531 -0.0781
 2978SOL     OW 9832   1.800   6.347   0.317  0.1840  1.1180  0.3187
 2978SOL    HW1 9833   1.839   6.436   0.297  0.1473  0.9971 -0.3305
 2978SOL    HW2 9834   1.723   6.330   0.256  0.9931  0.1137 -0.4795
 2979SOL     OW 9835   1.790   2.810   0.923  0.1933 -0.4298  0.3678
 2979SOL    HW1 9836   1.842   2.727   0.943 -1.0142 -0.9160  1.6507
 2979SOL    HW2 9837   1.697   2.801   0.959 -0.0476  1.3746  0.3015
 2980SOL     OW 9838   3.926   3.977   2.566  0.5925 -0.0616  0.7103
 2980SOL    HW1 9839   3.896   3.883   2.553 -0.9799  0.7425 -2.3133
 2980SOL    HW2 9840   4.012   3.991   2.517 -0.6406  0.7051 -1.3567
 2981SOL     OW 9841   1.628   2.144   0.619 -0.0425  0.2811  0.3532
 2981SOL    HW1 9842   1.578   2.180   0.540  0.3498 -1.1110 -0.5601
 2981SOL    HW2 9843   1.591   2.055   0.644  0.6437  0.1628  0.9744
 2982SOL     OW 9844   6.798   0.380   1.559 -0.1597  0.2333  0.2711
 2982SOL    HW1 9845   6.876   0.440   1.542 -0.8156  0.4534 -2.3589
 2982SOL    HW2 9846   6.808   0.296   1.506 -2.1506  0.7255 -1.0092
 2983SOL     OW 9847   6.392   3.558   4.973 -0.2074 -0.3207 -0.1638
 2983SOL    HW1 9848   6.478   3.507   4.979  0.8975  1.1491 -2.3549
 2983SOL    HW2 9849   6.375   3.605   5.059  0.4404 -1.7425  0.7771
 2984SOL     OW 9850   2.258   0.835   0.816  0.1125 -0.1167 -0.6545
 2984SOL    HW1 9851   2.239   0.838   0.914 -0.2982 -1.1384 -0.6859
 2984SOL    HW2 9852   2.292   0.924   0.786 -0.0279  0.2971  0.3540
 2985SOL     OW 9853   0.229   6.657   4.667  0.0735  0.3456  0.0476
 2985SOL    HW1 9854   0.245   6.642   4.569 -1.3822 -1.2038 -0.0039
 2985SOL    HW2 9855   0.188   6.747   4.682 -0.3683  0.2983 -0.8489
 2986SOL     OW 9856   3.343   4.110   2.005  0.3082 -0.2178  0.6937
 2986SOL    HW1 9857   3.365   4.014   2.024  1.2278 -0.5211 -1.5969
 2986SOL    HW2 9858   3.254   4.116   1.959  1.6810 -0.4045 -2.1958
 2987SOL     OW 9859   3.237   0.837   5.698 -0.7201 -0.3875 -0.1170
 2987SOL    HW1 9860   3.326   0.880   5.713 -1.3539  1.0060 -0.1627
 2987SOL    HW2 9861   3.166   0.907   5.700 -2.0954 -1.7207  2.2049
 2988SOL     OW 9862   6.360   0.085   5.924 -0.1806 -0.2486  0.2601
 2988SOL    HW1 9863   6.359   0.184   5.911  1.5927 -0.1648  0.4327
 2988SOL    HW2 9864   6.397   0.041   5.842  0.1947 -0.6625  0.6436
 2989SOL     OW 9865   5.387   2.716   1.414  0.5983  0.4131 -0.1895
 2989SOL    HW1 9866   5.423   2.695   1.323  1.4987  1.8935 -0.2043
 2989SOL    HW2 9867   5.288   2.705   1.414  0.2519  2.7775 -2.0879
 2990SOL     OW 9868   4.657   1.786   4.567  0.2210 -0.2132 -0.0653
 2990SOL    HW1 9869   4.564   1.755   4.589  0.3333  0.0030  0.7418
 2990SOL    HW2 9870   4.672   1.876   4.607  0.6946 -0.1328 -0.4152
 2991SOL     OW 9871   6.517   1.625   3.004  0.3692 -0.1805 -0.0170
 2991SOL    HW1 9872   6.526   1.527   2.985  0.2397 -0.3870  0.9421
 2991SOL    HW2 9873   6.429   1.657   2.969  0.1355 -0.5438  0.2333
 2992SOL     OW 9874   2.005   2.713   5.270  0.4152 -0.0911 -0.3062
 2992SOL    HW1 9875   2.093   2.745   5.233  0.6213  0.2818  0.4892
 2992SOL    HW2 9876   2.014   2.698   5.368 -0.4521  0.0812 -0.1956
 2993SOL     OW 9877   3.197   5.980   6.535 -0.0652  0.1021 -0.1076
 2993SOL    HW1 9878   3.290   6.014   6.549 -0.8698  1.9881  1.1504
 2993SOL    HW2 9879   3.160   6.020   6.451 -0.6771  1.6778  0.8709
 2994SOL     OW 9880   2.961   4.514   5.593 -0.2697  0.2653 -0.2544
 2994SOL    HW1 9881   3.046   4.562   5.615  0.2354 -0.0114 -1.5242
 2994SOL    HW2 9882   2.971   4.466   5.506 -0.3764 -3.0783  1.4161
 2995SOL     OW 9883   4.508   6.082   3.113 -0.4104 -0.4441 -0.4124
 2995SOL    HW1 9884   4.482   6.127   3.199  1.3541 -0.9371  0.4433
 2995SOL    HW2 9885   4.526   6.152   3.044  1.6069  0.2233  0.6944
 2996SOL     OW 9886   0.669   6.569   4.088  0.1975  0.9555  0.1258
 2996SOL    HW1 9887   0.675   6.631   4.167 -0.9713  0.9703  0.2319
 2996SOL    HW2 9888   0.592   6.598   4.030  0.5132  0.4277 -0.5593
 2997SOL     OW 9889   5.451   6.163   4.027  0.0392 -0.5321 -0.1903
 2997SOL    HW1 9890   5.538   6.211   4.015  0.2901 -1.0155 -0.3443
 2997SOL    HW2 9891   5.397   6.171   3.943 -0.8251  1.2385  0.4855
 2998SOL     OW 9892   3.756   0.999   3.132  0.2708  0.1859 -0.1747
 2998SOL    HW1 9893   3.842   1.033   3.171 -1.0065  1.0694  2.1015
 2998SOL    HW2 9894   3.687   1.072   3.136 -0.2638 -0.0019 -3.3603
 2999SOL     OW 9895   1.646   6.233   5.773 -0.3066 -0.0374  0.8152
 2999SOL    HW1 9896   1.695   6.233   5.686  0.6113 -2.1210  1.2822
 2999SOL    HW2 9897   1.594   6.148   5.783  3.0376 -1.9772  4.0569
 3000SOL     OW 9898   1.514   5.792   0.391  0.0935 -0.1061 -0.6135
 3000SOL    HW1 9899   1.486   5.882   0.358 -0.8580 -0.8023 -1.8168
 3000SOL    HW2 9900   1.436   5.745   0.431  1.0707  0.4242  2.0923
 3001SOL     OW 9901   1.088   6.792   5.321 -0.2558  0.0606 -0.1312
 3001SOL    HW1 9902   1.105   6.890   5.326  0.3259 -0.0352 -0.1337
 3001SOL    HW2 9903   1.020   6.773   5.250 -1.8353  0.6303  1.1484
 3002SOL     OW 9904   2.094   3.202   3.903  0.0480 -0.2493  0.0265
 3002SOL    HW1 9905   2.021   3.244   3.849 -1.4077 -1.3642  1.0324
 3002SOL    HW2 9906   2.139   3.130   3.849 -0.1366 -0.0924 -0.3326
 3003SOL     OW 9907   0.980   6.697   6.508  0.0844  0.0884 -0.4201
 3003SOL    HW1 9908   0.912   6.718   6.439  0.7095 -0.9176 -1.3907
 3003SOL    HW2 9909   1.051   6.639   6.467  2.4446  2.4473  0.0679
 3004SOL     OW 9910   2.751   2.128   0.113 -0.7738 -0.3565  0.0388
 3004SOL    HW1 9911   2.681   2.169   0.055  0.7482  0.8535 -1.0243
 3004SOL    HW2 9912   2.770   2.187   0.191  0.7311  0.5612 -0.9740
 3005SOL     OW 9913   3.205   0.689   6.509  0.1213 -0.3152 -0.2564
 3005SOL    HW1 9914   3.222   0.788   6.511  0.1183 -0.3207  1.1496
 3005SOL    HW2 9915   3.291   0.640   6.523  0.0388 -0.4959 -0.3813
 3006SOL     OW 9916   4.824   6.981   0.427 -0.1319 -0.3221 -0.2809
 3006SOL    HW1 9917   4.751   6.946   0.486 -0.2982  1.1359  0.4230
 3006SOL    HW2 9918   4.806   7.076   0.405 -0.8355 -1.1811 -3.9677
 3007SOL     OW 9919   0.791   4.702   5.756 -0.4306  0.3338 -0.1033
 3007SOL    HW1 9920   0.854   4.631   5.724  0.9517  0.9508  1.1422
 3007SOL    HW2 9921   0.805   4.786   5.702  1.3450  1.1242  1.4682
 3008SOL     OW 9922   4.334   2.630   6.071  0.1342  0.4142  0.1814
 3008SOL    HW1 9923   4.366   2.708   6.018 -1.1295  0.5937 -0.3433
 3008SOL    HW2 9924   4.298   2.661   6.158  1.4272  0.2000  0.8215
 3009SOL     OW 9925   5.515   3.593   2.115  0.0487 -0.1893  0.4680
 3009SOL    HW1 9926   5.507   3.606   2.016 -0.6274 -1.4719  0.3272
 3009SOL    HW2 9927   5.448   3.650   2.162 -0.1476 -0.1490  0.1419
 3010SOL     OW 9928   4.146   3.635   0.847  0.5404 -0.0989  0.3167
 3010SOL    HW1 9929   4.217   3.569   0.874 -0.9312 -2.1029 -0.4620
 3010SOL    HW2 9930   4.142   3.641   0.747 -0.0370  0.3984  0.3657
 3011SOL     OW 9931   0.519   5.821   1.544 -1.0223  0.1604  0.2630
 3011SOL    HW1 9932   0.583   5.819   1.621  1.9430  0.9470 -2.0145
 3011SOL    HW2 9933   0.466   5.906   1.546  0.2012  0.9272  0.5449
 3012SOL     OW 9934   1.801   2.107   5.204 -0.3961  0.3349  0.3945
 3012SOL    HW1 9935   1.764   2.086   5.114  0.7301 -1.6822  0.3209
 3012SOL    HW2 9936   1.820   2.204   5.212 -0.4282  0.5293 -1.5809
 3013SOL     OW 9937   6.707   3.270   5.437 -0.1209  0.6988  0.6299
 3013SOL    HW1 9938   6.613   3.236   5.435  0.1489 -0.0421 -0.3141
 3013SOL    HW2 9939   6.725   3.314   5.525 -0.5700 -1.4527  1.8700
 3014SOL     OW 9940   3.958   6.312   6.760  0.3342 -0.3490 -0.2935
 3014SOL    HW1 9941   3.927   6.216   6.755 -2.8595  0.5527 -0.0322
 3014SOL    HW2 9942   3.965   6.340   6.855 -0.2311  0.1052 -0.3844
 3015SOL     OW 9943   3.689   0.146   6.310 -0.1337  0.1606 -0.0848
 3015SOL    HW1 9944   3.649   0.233   6.338 -0.5407 -0.1485  0.2910
 3015SOL    HW2 9945   3.682   0.080   6.384  2.8361  0.6429  0.7798
 3016SOL     OW 9946   2.205   1.598   4.104  0.4013  0.0653 -0.1218
 3016SOL    HW1 9947   2.276   1.531   4.127  0.4371  0.1376 -0.0205
 3016SOL    HW2 9948   2.186   1.655   4.184 -0.3763 -0.4964  0.1022
 3017SOL     OW 9949   0.974   0.582   6.502  0.6014 -0.3080  0.3444
 3017SOL    HW1 9950   0.891   0.584   6.559  0.8005 -0.6511  0.6558
 3017SOL    HW2 9951   1.028   0.664   6.518  0.6977 -0.4415  0.7207
 3018SOL     OW 9952   1.000   2.164   2.809 -0.0717 -0.0817 -0.6180
 3018SOL    HW1 9953   0.956   2.254   2.810 -0.0583 -0.0106 -2.8355
 3018SOL    HW2 9954   1.027   2.140   2.902 -0.1643  2.1550  0.0534
 3019SOL     OW 9955   6.047   1.207   4.859  0.3714  0.3417  0.2922
 3019SOL    HW1 9956   6.128   1.151   4.877  0.4211  0.6829  1.1803
 3019SOL    HW2 9957   6.047   1.286   4.920 -0.0219  0.9854 -0.5192
 3020SOL     OW 9958   6.092   2.891   1.096  0.5453  0.5336  0.1283
 3020SOL    HW1 9959   6.009   2.946   1.087  0.5823  0.6441  0.4547
 3020SOL    HW2 9960   6.068   2.794   1.088  0.0416  0.4265  2.3640
 3021SOL     OW 9961   5.037   4.859   3.709 -0.3500 -0.1759 -0.0783
 3021SOL    HW1 9962   5.061   4.762   3.715 -0.2951 -0.3305 -2.0954
 3021SOL    HW2 9963   4.940   4.869   3.685 -0.4374  0.2696  0.4473
 3022SOL     OW 9964   3.766   5.001   3.125  0.1557  0.0103 -0.2395
 3022SOL    HW1 9965   3.807   5.089   3.103 -1.5396  0.7165 -0.7010
 3022SOL    HW2 9966   3.685   4.986   3.068 -0.9235 -0.8057  1.4144
 3023SOL     OW 9967   6.756   3.826   5.097  0.4511 -0.2659  0.1141
 3023SOL    HW1 9968   6.733   3.789   5.007  1.9261 -3.0434  0.7592
 3023SOL    HW2 9969   6.843   3.786   5.128 -0.0049  0.5970  2.7667
 3024SOL     OW 9970   5.267   3.951   0.422  0.7739 -0.1803 -0.6435
 3024SOL    HW1 9971   5.168   3.937   0.420  0.7194  0.2051 -0.7785
 3024SOL    HW2 9972   5.313   3.862   0.428  0.3788 -0.2878  1.2960
 3025SOL     OW 9973   3.464   5.947   6.995 -0.1202  0.1156 -0.0250
 3025SOL    HW1 9974   3.535   5.879   6.974 -0.8229 -0.6305 -0.0627
 3025SOL    HW2 9975   3.489   6.035   6.957  1.2095  0.0787  0.7278
 3026SOL     OW 9976   0.351   5.943   2.776  0.3820 -0.9244  0.4171
 3026SOL    HW1 9977   0.322   6.031   2.738  0.0805 -1.1538  0.1052
 3026SOL    HW2 9978   0.281   5.909   2.839  0.8154 -0.6153  1.0666
 3027SOL     OW 9979   3.679   0.306   2.397 -0.3492 -0.5723 -0.0747
 3027SOL    HW1 9980   3.773   0.339   2.390 -0.6213 -0.0626 -1.8533
 3027SOL    HW2 9981   3.639   0.338   2.482  0.0728  2.0286 -0.7665
 3028SOL     OW 9982   3.267   3.609   2.383  0.2322  0.2096 -0.4032
 3028SOL    HW1 9983   3.251   3.588   2.286 -0.0007 -0.7142 -0.1722
 3028SOL    HW2 9984   3.364   3.601   2.404  0.3125  0.6242 -0.6046
 3029SOL     OW 9985   0.317   3.510   5.693 -0.1015  0.1266 -0.4381
 3029SOL    HW1 9986   0.380   3.505   5.615 -0.3399  1.2029 -0.7119
 3029SOL    HW2 9987   0.225   3.485   5.664 -0.1910  0.5296 -0.4979
 3030SOL     OW 9988   1.039   2.973   5.297 -0.3334 -0.6328  0.2398
 3030SOL    HW1 9989   1.056   3.051   5.237  0.3748 -0.7420  0.2814
 3030SOL    HW2 9990   0.986   2.904   5.249 -1.5670  0.1674  0.4296
 3031SOL     OW 9991   2.656   4.211   0.263  0.0677  0.2086 -0.2463
 3031SOL    HW1 9992   2.616   4.119   0.263  1.7045 -0.5472  0.3017
 3031SOL    HW2 9993   2.699   4.227   0.174  0.2499  0.2338 -0.1521
 3032SOL     OW 9994   3.458   0.344   3.311  0.4502 -0.1481  0.1903
 3032SOL    HW1 9995   3.375   0.351   3.367  0.2516 -0.9183 -0.0026
 3032SOL    HW2 9996   3.437   0.298   3.225  1.2374 -1.0705  0.4698
 3033SOL     OW 9997   0.874   2.716   0.626 -0.4351  0.1179 -0.2553
 3033SOL    HW1 9998   0.932   2.751   0.699 -3.5472  0.2082  2.3648
 3033SOL    HW2 9999   0.887   2.617   0.617  1.3126  0.3805 -0.9528
 3034SOL     OW10000   4.999   3.939   3.496  0.4727  0.2429 -0.0056
 3034SOL    HW110001   5.051   4.018   3.529 -0.1268 -0.4003  2.7570
 3034SOL    HW210002   4.967   3.886   3.574  1.6579 -3.3082 -1.7080
 3035SOL     OW10003   6.228   3.915   0.536 -0.2064 -0.3484  0.7299
 3035SOL    HW110004   6.310   3.911   0.594  0.6464 -0.7985 -0.4656
 3035SOL    HW210005   6.147   3.908   0.594  0.4807  2.3328  2.1800
 3036SOL     OW10006   2.488   4.204   6.753  0.4152  1.0884  0.4532
 3036SOL    HW110007   2.439   4.118   6.762  0.1719  1.0995 -0.5735
 3036SOL    HW210008   2.440   4.276   6.804  0.9267  0.5177  1.7781
 3037SOL     OW10009   0.300   5.595   5.156  0.2077  0.5631  0.4119
 3037SOL    HW110010   0.352   5.657   5.215 -0.9587  1.6654  0.3105
 3037SOL    HW210011   0.206   5.589   5.187  0.0890 -0.5254 -0.0895
 3038SOL     OW10012   5.309   5.869   5.384  0.6894 -0.5224  0.1377
 3038SOL    HW110013   5.370   5.929   5.436 -0.2698 -0.2970  1.0400
 3038SOL    HW210014   5.357   5.783   5.363  1.7906  0.2156 -0.4553
 3039SOL     OW10015   5.782   3.255   6.539 -0.0736  0.1537 -0.3083
 3039SOL    HW110016   5.845   3.290   6.470 -0.9065 -0.9966 -1.7320
 3039SOL    HW210017   5.832   3.197   6.604  0.2670 -1.4966 -1.9489
 3040SOL     OW10018   1.645   6.712   6.556 -0.2390 -0.0921  0.1276
 3040SOL    HW110019   1.592   6.680   6.477 -1.0294 -0.1575  0.6743
 3040SOL    HW210020   1.665   6.809   6.545 -1.5508  0.2340  0.4945
 3041SOL     OW10021   2.592   5.056   4.017  0.4878  0.1916 -0.9448
 3041SOL    HW110022   2.576   4.980   3.955 -0.8098 -2.7524  2.5926
 3041SOL    HW210023   2.688   5.055   4.047  0.2889 -0.6645 -0.2884
 3042SOL     OW10024   6.155   6.908   4.372 -0.4854  0.4532  0.0947
 3042SOL    HW110025   6.136   6.960   4.455  1.4893  1.4239  0.0033
 3042SOL    HW210026   6.092   6.937   4.299 -1.7856  0.0680  1.0304
 3043SOL     OW10027   3.396   4.508   1.278 -0.2302 -0.2453 -0.2315
 3043SOL    HW110028   3.382   4.499   1.179  1.9990  0.0611 -0.6296
 3043SOL    HW210029   3.481   4.462   1.304 -0.4242  0.2834  1.4403
 3044SOL     OW10030   2.908   3.470   2.985 -0.0468  0.1660 -0.2767
 3044SOL    HW110031   2.872   3.457   3.077  1.2592  0.9726  0.3736
 3044SOL    HW210032   2.906   3.567   2.961  2.3575  0.3879  0.1264
 3045SOL     OW10033   6.090   6.799   3.306 -0.4196 -0.2284 -0.4124
 3045SOL    HW110034   6.089   6.802   3.206 -1.3886 -0.5012 -0.4153
 3045SOL    HW210035   6.081   6.705   3.337  1.3765 -0.3264 -0.0568
 3046SOL     OW10036   0.784   5.065   1.572 -0.3041 -0.3807 -0.6693
 3046SOL    HW110037   0.883   5.066   1.559 -0.0314 -1.5972  0.8835
 3046SOL    HW210038   0.762   5.002   1.647 -2.1150  1.1092  0.1238
 3047SOL     OW10039   2.456   2.002   4.597 -0.1785 -0.5748  0.2296
 3047SOL    HW110040   2.554   1.995   4.613  0.0589  1.5397  0.0102
 3047SOL    HW210041   2.427   2.098   4.608 -2.0012 -0.9517 -0.8363
 3048SOL     OW10042   5.930   5.134   2.764  0.0947 -0.0210 -0.5132
 3048SOL    HW110043   5.855   5.081   2.724 -0.9972 -0.1079  1.5277
 3048SOL    HW210044   5.982   5.076   2.827 -1.1482  1.2219  1.8026
 3049SOL     OW10045   0.877   6.991   1.982  0.1560  0.2084 -0.5664
 3049SOL    HW110046   0.910   7.029   1.895 -0.1372  0.7243 -0.4553
 3049SOL    HW210047   0.881   7.061   2.053 -0.5305  0.0767 -0.3927
 3050SOL     OW10048   4.494   3.716   5.503  0.0300  0.0310 -0.0699
 3050SOL    HW110049   4.459   3.669   5.422 -1.8506  0.7063  0.2995
 3050SOL    HW210050   4.547   3.652   5.559  0.2994 -0.7569 -1.1969
 3051SOL     OW10051   2.647   6.929   6.034  0.0315  0.1771  0.3990
 3051SOL    HW110052   2.647   6.842   5.984  0.1233  0.4288 -0.0354
 3051SOL    HW210053   2.728   6.934   6.092 -0.3721 -0.3758  1.0398
 3052SOL     OW10054   6.546   6.904   5.392  0.7318  0.2519  0.4126
 3052SOL    HW110055   6.467   6.846   5.376  0.7282  0.2997  0.2566
 3052SOL    HW210056   6.617   6.851   5.439  1.7006 -0.6166 -1.8620
 3053SOL     OW10057   0.541   5.914   5.995 -0.1766  0.1728 -0.3315
 3053SOL    HW110058   0.626   5.862   6.008  0.4156  1.0263 -0.6760
 3053SOL    HW210059   0.472   5.881   6.059  0.2075 -0.9811 -0.4972
 3054SOL     OW10060   6.310   4.437   2.708  0.3484  0.4286  0.4164
 3054SOL    HW110061   6.283   4.470   2.618 -1.2700 -1.7785  0.0177
 3054SOL    HW210062   6.390   4.377   2.699 -0.4678 -0.6555  0.2771
 3055SOL     OW10063   5.359   0.406   6.031  0.4964  0.1913  0.4792
 3055SOL    HW110064   5.391   0.484   6.084 -1.9267  0.9165  1.0297
 3055SOL    HW210065   5.271   0.375   6.068  0.1820 -1.1874 -1.2939
 3056SOL     OW10066   5.807   2.972   1.130  0.1911 -0.3181  0.5687
 3056SOL    HW110067   5.831   3.068   1.114 -2.2275  0.3930  0.8769
 3056SOL    HW210068   5.743   2.965   1.206 -1.8096 -1.8480 -1.1114
 3057SOL     OW10069   1.713   4.156   2.782 -0.0515 -0.6319  0.1221
 3057SOL    HW110070   1.624   4.110   2.785  0.2598 -1.3315 -0.8795
 3057SOL    HW210071   1.748   4.156   2.688  0.0861  1.4434  0.1313
 3058SOL     OW10072   0.686   6.071   0.109  0.0922  1.1691  0.3715
 3058SOL    HW110073   0.762   6.015   0.142 -0.9297 -1.3830 -1.2850
 3058SOL    HW210074   0.705   6.102   0.016 -1.3281 -0.5908 -0.5663
 3059SOL     OW10075   6.814   1.874   2.223 -1.0608  0.5375 -0.4321
 3059SOL    HW110076   6.822   1.954   2.282 -0.2912 -0.2582  0.5793
 3059SOL    HW210077   6.752   1.808   2.264 -2.2068  0.8675 -1.5792
 3060SOL     OW10078   5.666   4.053   3.457 -0.3328 -0.0598 -0.0013
 3060SOL    HW110079   5.597   4.014   3.395  0.2902  0.3388 -0.9673
 3060SOL    HW210080   5.620   4.100   3.532 -1.1042 -1.5452  0.4967
 3061SOL     OW10081   5.390   6.058   1.470  0.1000 -0.3114  0.8610
 3061SOL    HW110082   5.413   6.144   1.514  0.3341 -1.2129  2.5820
 3061SOL    HW210083   5.293   6.059   1.445  0.8991  2.0255 -3.0219
 3062SOL     OW10084   3.898   3.311   6.394 -0.0194 -0.0235  0.8818
 3062SOL    HW110085   3.998   3.310   6.392 -0.0339 -0.8685  0.2312
 3062SOL    HW210086   3.863   3.356   6.311 -0.1875 -0.7709  0.5409
 3063SOL     OW10087   6.155   5.521   0.185  0.3294 -0.1477 -0.2145
 3063SOL    HW110088   6.219   5.555   0.254  0.1348  0.7164 -0.4462
 3063SOL    HW210089   6.085   5.590   0.169  0.3946 -0.3256 -1.3082
 3064SOL     OW10090   5.118   0.280   6.420 -0.5304 -0.2732 -0.1927
 3064SOL    HW110091   5.125   0.223   6.502 -0.9489 -0.5846 -0.3673
 3064SOL    HW210092   5.202   0.274   6.367  0.4706  1.3682  1.1261
 3065SOL     OW10093   3.342   1.372   0.248 -0.6764 -0.0667 -0.1805
 3065SOL    HW110094   3.412   1.321   0.200  0.1896 -0.3466  1.3260
 3065SOL    HW210095   3.254   1.324   0.240 -0.2598 -0.8123 -0.3062
 3066SOL     OW10096   3.547   0.231   0.566 -0.1888 -0.4299 -0.1129
 3066SOL    HW110097   3.589   0.178   0.492 -1.5515  1.0287 -2.0506
 3066SOL    HW210098   3.469   0.283   0.529 -0.5632  0.8264  2.2595
 3067SOL     OW10099   6.972   3.184   5.786 -0.3612 -0.1418  0.2786
 3067SOL    HW110100   6.886   3.173   5.737 -0.0998 -1.0939  0.0092
 3067SOL    HW210101   7.041   3.124   5.745  0.8608  1.7096 -0.5126
 3068SOL     OW10102   5.090   6.223   1.991  0.0013 -0.2458 -0.0764
 3068SOL    HW110103   5.016   6.290   1.980 -1.1989 -1.5523 -0.2532
 3068SOL    HW210104   5.068   6.161   2.066  2.4064  1.1646  1.9422
 3069SOL     OW10105   5.464   4.755   3.664 -0.1947 -0.1887  0.8439
 3069SOL    HW110106   5.402   4.688   3.623 -1.6542 -1.6332  4.8856
 3069SOL    HW210107   5.411   4.835   3.692  0.9934  1.3568 -1.0708
 3070SOL     OW10108   2.330   2.451   1.376 -0.4521 -0.3881 -0.0021
 3070SOL    HW110109   2.284   2.509   1.309 -1.1000  0.5006  1.1788
 3070SOL    HW210110   2.429   2.464   1.370 -0.3643 -1.4571 -1.7855
 3071SOL     OW10111   6.851   4.319   4.133  0.1660 -0.4302  0.0052
 3071SOL    HW110112   6.755   4.301   4.109  0.7931 -3.7388 -0.5081
 3071SOL    HW210113   6.910   4.298   4.055  1.3368  2.6429 -0.0659
 3072SOL     OW10114   2.014   6.782   2.774 -0.1852  0.6639 -0.4951
 3072SOL    HW110115   2.017   6.684   2.752 -3.5098  0.0051  1.2289
 3072SOL    HW210116   2.059   6.834   2.702  0.6399 -2.0446 -2.0788
 3073SOL     OW10117   0.679   5.310   3.369  0.1878 -0.1274 -0.3007
 3073SOL    HW110118   0.626   5.228   3.390  0.3387  0.1353  1.2988
 3073SOL    HW210119   0.731   5.337   3.451 -0.6902  2.1667 -0.4235
 3074SOL     OW10120   1.180   4.824   2.462 -0.6187 -0.2929 -0.0288
 3074SOL    HW110121   1.276   4.809   2.484 -0.1012 -0.0228 -1.9407
 3074SOL    HW210122   1.160   4.922   2.467  0.0708  0.0482 -2.6688
 3075SOL     OW10123   3.426   4.175   1.091  0.6665  0.5134  0.0675
 3075SOL    HW110124   3.459   4.198   1.182  0.5023  2.3909 -0.2895
 3075SOL    HW210125   3.355   4.241   1.064  1.1282  0.3648 -1.6401
 3076SOL     OW10126   2.550   0.778   3.426 -0.3765  0.2121 -0.0308
 3076SOL    HW110127   2.499   0.769   3.511 -2.1883 -0.8440 -1.1437
 3076SOL    HW210128   2.613   0.701   3.416 -3.1230 -2.0625 -1.4183
 3077SOL     OW10129   6.657   3.924   3.497  0.4599  0.0434  0.2040
 3077SOL    HW110130   6.609   4.000   3.453 -0.4270 -0.0794  0.9313
 3077SOL    HW210131   6.590   3.861   3.537  1.2063  0.9307  3.0426
 3078SOL     OW10132   1.603   5.803   1.869  0.1601 -0.5151  0.2754
 3078SOL    HW110133   1.582   5.741   1.793 -2.1801  1.2884 -0.6731
 3078SOL    HW210134   1.518   5.835   1.911  1.2379  1.9787  0.7648
 3079SOL     OW10135   0.875   4.784   1.803  0.2021  0.4012  0.4265
 3079SOL    HW110136   0.778   4.763   1.793  0.1310  0.6326  0.6185
 3079SOL    HW210137   0.928   4.700   1.797  0.1464  0.4664 -1.5291
 3080SOL     OW10138   3.339   5.625   2.163  0.1274 -0.0146 -0.0355
 3080SOL    HW110139   3.364   5.680   2.243 -0.0791 -1.2572  0.9199
 3080SOL    HW210140   3.245   5.593   2.173  0.1593 -0.3337 -0.6993
 3081SOL     OW10141   2.322   1.028   5.724  0.2436  0.2604  0.3463
 3081SOL    HW110142   2.410   1.075   5.728  0.5558 -0.4196  2.3592
 3081SOL    HW210143   2.286   1.034   5.631  1.5493  2.0898 -0.0996
 3082SOL     OW10144   5.172   3.257   6.115 -0.3505 -0.6775 -0.2698
 3082SOL    HW110145   5.255   3.312   6.103 -0.0441 -0.4395  2.2189
 3082SOL    HW210146   5.195   3.160   6.104 -0.2736 -0.5012 -1.8554
 3083SOL     OW10147   6.158   4.516   2.455 -0.1494  0.3573  0.6560
 3083SOL    HW110148   6.070   4.495   2.413 -0.1624  0.0018  0.8638
 3083SOL    HW210149   6.226   4.450   2.423  0.2018  1.0349 -0.0420
 3084SOL     OW10150   1.487   5.469   5.457 -0.2142 -0.1966  0.0959
 3084SOL    HW110151   1.504   5.473   5.555  0.3534 -0.3320  0.0099
 3084SOL    HW210152   1.452   5.557   5.426 -1.5937 -0.5356  0.6195
 3085SOL     OW10153   6.884   4.140   5.642 -0.3900 -0.1470  0.1492
 3085SOL    HW110154   6.922   4.212   5.583  1.0563 -1.2358 -0.3140
 3085SOL    HW210155   6.957   4.077   5.669 -0.9216  0.4677  3.4149
 3086SOL     OW10156   4.907   5.473   5.612  0.1470 -0.3418 -0.7146
 3086SOL    HW110157   4.967   5.546   5.578 -0.6978  0.2782 -0.9278
 3086SOL    HW210158   4.915   5.467   5.711 -1.7475  1.9202 -0.3396
 3087SOL     OW10159   2.921   6.756   1.408 -0.0961 -0.0595  0.3921
 3087SOL    HW110160   2.831   6.790   1.436  0.7738  1.7992  1.0495
 3087SOL    HW210161   2.911   6.661   1.376 -2.0062 -0.4891  1.9830
 3088SOL     OW10162   3.130   2.074   5.191  0.0144 -0.3839  0.5014
 3088SOL    HW110163   3.120   2.148   5.125  0.0421  2.0940  3.1014
 3088SOL    HW210164   3.227   2.061   5.213 -0.0421 -0.7313  0.5562
 3089SOL     OW10165   5.422   5.714   6.922 -0.4725 -0.5025  1.0381
 3089SOL    HW110166   5.370   5.714   7.007  0.4027  0.9960  1.6061
 3089SOL    HW210167   5.498   5.779   6.929  0.5684 -1.5180 -0.3171
 3090SOL     OW10168   0.446   5.400   1.744  0.0093  0.4369 -0.0043
 3090SOL    HW110169   0.405   5.491   1.738  1.0145  0.9460  0.4971
 3090SOL    HW210170   0.488   5.388   1.834  0.5089 -0.2448 -0.3177
 3091SOL     OW10171   1.772   1.084   5.414  0.3066 -0.1081  0.3783
 3091SOL    HW110172   1.689   1.140   5.411 -0.0848 -0.4080  2.8780
 3091SOL    HW210173   1.748   0.987   5.408  0.6494 -0.1496 -0.4597
 3092SOL     OW10174   4.015   2.145   3.914 -0.4111 -0.0379 -0.2603
 3092SOL    HW110175   3.924   2.185   3.902  0.3684  2.1460  0.6231
 3092SOL    HW210176   4.008   2.065   3.975 -1.7263  0.0631 -0.2396
 3093SOL     OW10177   0.283   5.519   1.294  0.2674 -0.2035  0.1778
 3093SOL    HW110178   0.367   5.517   1.348  0.2825 -0.2488  0.1523
 3093SOL    HW210179   0.284   5.445   1.227  1.4270  1.3796 -1.6785
 3094SOL     OW10180   0.778   0.221   5.744  0.0986 -0.2409  0.6275
 3094SOL    HW110181   0.749   0.129   5.769 -0.1157 -0.4063 -0.2001
 3094SOL    HW210182   0.704   0.267   5.695  0.7760 -0.2170 -0.4003
 3095SOL     OW10183   2.407   2.734   6.707  0.2643 -0.0080  0.8199
 3095SOL    HW110184   2.476   2.782   6.652 -0.3244  0.8858  0.8373
 3095SOL    HW210185   2.427   2.748   6.804  0.2202  0.0053  0.8267
 3096SOL     OW10186   1.737   3.347   5.007 -0.3320  0.4934  0.2502
 3096SOL    HW110187   1.667   3.277   4.991  0.5387 -0.6020  1.0303
 3096SOL    HW210188   1.827   3.303   5.011  0.3023  1.7513  0.1844
 3097SOL     OW10189   5.702   1.003   1.585  0.1715  0.3624 -0.0369
 3097SOL    HW110190   5.645   1.059   1.646 -1.3638 -0.9407 -0.2130
 3097SOL    HW210191   5.686   0.906   1.604  0.6141 -0.0549 -1.6556
 3098SOL     OW10192   6.824   4.607   1.550  0.3623 -0.5807  0.2127
 3098SOL    HW110193   6.795   4.695   1.588  1.4986 -1.0791  2.4490
 3098SOL    HW210194   6.763   4.581   1.475 -0.8029  1.4627  0.3678
 3099SOL     OW10195   0.206   1.928   5.367  0.1238 -0.6179  0.2686
 3099SOL    HW110196   0.198   2.027   5.356  0.7327 -0.4876  0.8948
 3099SOL    HW210197   0.233   1.886   5.280 -0.6614 -0.3016 -0.1306
 3100SOL     OW10198   0.410   6.503   3.476  0.6369  0.1367 -0.1970
 3100SOL    HW110199   0.484   6.436   3.480  0.7094  0.1130 -1.5298
 3100SOL    HW210200   0.363   6.506   3.565  2.5229  0.5168  0.8257
 3101SOL     OW10201   4.709   1.689   2.588 -0.0830 -0.4542 -0.1464
 3101SOL    HW110202   4.691   1.771   2.534 -1.4394  0.4564  1.6051
 3101SOL    HW210203   4.623   1.640   2.604  0.4092 -1.1051  0.5674
 3102SOL     OW10204   6.427   1.829   3.716  0.4594  0.0486 -0.6424
 3102SOL    HW110205   6.465   1.771   3.644 -0.4685 -0.6278 -0.6008
 3102SOL    HW210206   6.346   1.785   3.756  1.3056  0.1086  1.2576
 3103SOL     OW10207   2.054   1.153   3.886  0.0344  0.2031  0.3143
 3103SOL    HW110208   2.025   1.165   3.981 -0.8704 -3.1055  0.5879
 3103SOL    HW210209   2.117   1.076   3.881 -1.7541 -1.2392 -1.9854
 3104SOL     OW10210   4.977   0.751   0.441  0.0340 -0.1907 -0.0842
 3104SOL    HW110211   5.051   0.819   0.438  0.6334 -0.8321 -0.0551
 3104SOL    HW210212   4.938   0.742   0.349  2.5212 -2.5558 -1.0323
 3105SOL     OW10213   0.134   5.295   6.350  0.8829  0.3736 -0.1056
 3105SOL    HW110214   0.118   5.260   6.443 -0.6068  1.2178 -0.0131
 3105SOL    HW210215   0.120   5.221   6.284  1.0254 -0.0123  0.2949
 3106SOL     OW10216   4.061   1.442   2.657 -0.1049 -0.4301 -0.9110
 3106SOL    HW110217   3.961   1.448   2.646 -0.3150 -2.0160 -0.0786
 3106SOL    HW210218   4.098   1.534   2.671 -1.5410  0.1111 -0.4736
 3107SOL     OW10219   4.078   0.665   4.511  0.1658  0.3376  0.2464
 3107SOL    HW110220   4.113   0.578   4.545  0.0450 -0.2535 -1.0737
 3107SOL    HW210221   4.091   0.669   4.412 -1.4547  1.0571  0.0357
 3108SOL     OW10222   3.127   6.399   5.756 -0.4962 -0.5478 -0.0870
 3108SOL    HW110223   3.094   6.424   5.848  0.4018 -0.3397  0.1888
 3108SOL    HW210224   3.164   6.306   5.758  2.1057  0.4098  0.4910
 3109SOL     OW10225   0.806   6.737   3.508 -0.2506 -0.4206 -0.1286
 3109SOL    HW110226   0.849   6.651   3.480  0.5334 -0.2552  0.5271
 3109SOL    HW210227   0.877   6.800   3.540 -0.7545  0.6685 -1.1111
 3110SOL     OW10228   0.781   5.994   4.264 -0.3130 -0.6815 -0.3402
 3110SOL    HW110229   0.688   6.014   4.231 -0.3598 -0.3263  0.0060
 3110SOL    HW210230   0.785   5.898   4.293 -0.7164 -0.5633  0.1227
 3111SOL     OW10231   0.064   2.467   3.576 -0.2646  0.6308 -0.2810
 3111SOL    HW110232   0.082   2.545   3.517  0.0852  0.4960 -0.3556
 3111SOL    HW210233   0.147   2.446   3.629 -0.5698  0.7408  0.2406
 3112SOL     OW10234   3.909   1.294   0.826  0.6189 -0.0429 -0.0452
 3112SOL    HW110235   3.841   1.356   0.789 -1.5716 -2.3278 -0.0878
 3112SOL    HW210236   3.968   1.261   0.753 -1.0213 -1.3260 -0.8434
 3113SOL     OW10237   0.170   1.030   2.733 -0.8326  0.2239  0.5374
 3113SOL    HW110238   0.087   0.987   2.769  0.7160 -1.1401  2.7203
 3113SOL    HW210239   0.189   1.114   2.783 -1.0407  0.6995 -0.1670
 3114SOL     OW10240   5.866   5.895   4.957  0.2967  0.2395 -0.5809
 3114SOL    HW110241   5.939   5.919   5.021  2.7819 -1.1798 -2.6829
 3114SOL    HW210242   5.878   5.947   4.872 -1.5660  0.4299 -0.7685
 3115SOL     OW10243   5.480   5.414   4.347  0.2516  0.3050 -0.1593
 3115SOL    HW110244   5.577   5.435   4.358  0.3517 -0.8860  1.5293
 3115SOL    HW210245   5.439   5.396   4.436 -1.8876  2.1819 -0.6700
 3116SOL     OW10246   0.909   3.697   6.441 -0.6319  0.1526 -0.1334
 3116SOL    HW110247   0.921   3.741   6.353  0.8758 -0.3540 -0.2188
 3116SOL    HW210248   0.979   3.625   6.452 -2.8498 -2.1343  0.0414
 3117SOL     OW10249   4.847   6.340   1.918 -0.1974  0.1320  0.3692
 3117SOL    HW110250   4.771   6.276   1.921 -0.2274  0.1369 -0.1107
 3117SOL    HW210251   4.814   6.430   1.888  0.0001  0.1222  0.1173
 3118SOL     OW10252   0.636   2.531   3.799  0.0597  0.4042  0.0939
 3118SOL    HW110253   0.651   2.498   3.893 -0.2842 -0.6665 -0.2170
 3118SOL    HW210254   0.602   2.625   3.803  1.2308  0.8215  0.9972
 3119SOL     OW10255   5.405   6.599   3.172  0.1594  0.5428 -0.1458
 3119SOL    HW110256   5.320   6.564   3.212  0.0096  0.4758 -0.5185
 3119SOL    HW210257   5.414   6.696   3.194 -0.6160  0.8425 -1.0964
 3120SOL     OW10258   3.274   1.011   0.342 -0.1083  0.0976  0.0535
 3120SOL    HW110259   3.292   1.016   0.441 -0.5994 -2.1277  0.3221
 3120SOL    HW210260   3.357   0.982   0.295 -0.1229  0.2562 -0.0687
 3121SOL     OW10261   4.479   5.978   1.035  0.5449  0.4091 -0.1923
 3121SOL    HW110262   4.392   6.028   1.032  0.4143  0.1361 -1.4670
 3121SOL    HW210263   4.514   5.966   0.942  0.8783 -1.3356  0.1205
 3122SOL     OW10264   4.821   2.875   4.686 -0.4680  0.1025 -0.3111
 3122SOL    HW110265   4.906   2.909   4.647  0.0491 -0.9717 -0.1724
 3122SOL    HW210266   4.815   2.901   4.782  0.5147 -1.1656  0.1347
 3123SOL     OW10267   2.258   2.922   4.812  0.2068  0.1867  0.2965
 3123SOL    HW110268   2.275   2.956   4.905 -1.3176  2.3192 -0.1195
 3123SOL    HW210269   2.274   2.995   4.746 -0.3457 -0.8021 -0.9782
 3124SOL     OW10270   6.357   5.761   4.863  0.2442  0.0693 -0.3096
 3124SOL    HW110271   6.426   5.805   4.806  1.0638  0.9309  1.2629
 3124SOL    HW210272   6.280   5.731   4.807  0.8653  1.1438 -1.7813
 3125SOL     OW10273   0.344   1.941   6.206 -0.3387  0.2324  0.1932
 3125SOL    HW110274   0.319   1.850   6.171 -0.1298 -0.8242  2.5860
 3125SOL    HW210275   0.438   1.962   6.179  0.7500 -1.7115  2.1294
 3126SOL     OW10276   4.875   3.322   5.064 -0.1122 -0.0368 -0.1282
 3126SOL    HW110277   4.810   3.307   5.139  1.1839 -0.3456  0.9650
 3126SOL    HW210278   4.867   3.417   5.033 -0.1496  0.3195  0.9171
 3127SOL     OW10279   6.072   2.651   6.752 -0.0247 -0.1832  0.2339
 3127SOL    HW110280   5.985   2.623   6.713 -0.3022  1.3387 -0.2970
 3127SOL    HW210281   6.142   2.651   6.680  0.4572 -1.4614  0.6692
 3128SOL     OW10282   5.174   2.393   2.048 -0.1923  0.7315 -0.2636
 3128SOL    HW110283   5.115   2.358   2.121  0.7507 -1.7496 -0.5935
 3128SOL    HW210284   5.147   2.354   1.961  1.1645  0.4834 -0.5991
 3129SOL     OW10285   4.089   4.698   0.211  0.3878  0.4058 -0.2479
 3129SOL    HW110286   4.069   4.766   0.141  1.5000 -0.0288 -1.0149
 3129SOL    HW210287   4.027   4.620   0.201 -0.3466  0.9335  0.1176
 3130SOL     OW10288   1.189   5.612   2.592 -0.6657 -0.1963 -0.0979
 3130SOL    HW110289   1.115   5.661   2.638  0.6840 -0.0682  2.1020
 3130SOL    HW210290   1.231   5.671   2.524 -1.5857  0.2654 -0.2875
 3131SOL     OW10291   0.206   1.566   2.780  0.0157 -0.0158 -0.0380
 3131SOL    HW110292   0.282   1.593   2.720 -1.1877  1.0111 -1.1600
 3131SOL    HW210293   0.124   1.617   2.754 -1.0525 -1.0542  1.1955
 3132SOL     OW10294   5.111   5.159   0.157 -0.3165 -0.0091 -0.3190
 3132SOL    HW110295   5.069   5.217   0.226  1.7517  0.4769  0.5848
 3132SOL    HW210296   5.147   5.076   0.200 -0.0085 -0.2416 -1.0095
 3133SOL     OW10297   4.921   1.758   5.539 -0.4192 -0.2699 -0.1712
 3133SOL    HW110298   4.988   1.690   5.511 -1.8885 -1.4000 -1.0401
 3133SOL    HW210299   4.856   1.718   5.604 -2.4250 -0.3243 -2.0976
 3134SOL     OW10300   3.938   4.836   2.519 -0.1463 -0.1709  0.4457
 3134SOL    HW110301   3.960   4.745   2.484  1.8987 -0.8081  3.0413
 3134SOL    HW210302   4.022   4.879   2.554 -1.6402  1.2005  2.5736
 3135SOL     OW10303   2.938   0.292   6.811  0.1981  0.0098  0.0185
 3135SOL    HW110304   2.924   0.312   6.714 -0.1397 -0.7142 -0.0932
 3135SOL    HW210305   2.920   0.195   6.827 -1.0615  0.3953  1.0496
 3136SOL     OW10306   5.641   6.234   2.017  0.2349  0.7514  0.0914
 3136SOL    HW110307   5.663   6.271   1.927  1.9854 -1.6692 -0.5678
 3136SOL    HW210308   5.544   6.213   2.022  0.1598  0.6901 -1.3374
 3137SOL     OW10309   5.031   5.068   2.078 -0.5816  0.3948  0.2797
 3137SOL    HW110310   5.065   5.070   2.172 -1.6235  2.1947  0.6607
 3137SOL    HW210311   5.067   4.987   2.032  4.5724  2.2669  0.4426
 3138SOL     OW10312   6.618   5.654   5.136 -0.6042  0.7208  0.0820
 3138SOL    HW110313   6.711   5.638   5.170 -0.0251  2.1691 -0.7258
 3138SOL    HW210314   6.582   5.569   5.098  1.4235  0.6745 -1.9655
 3139SOL     OW10315   2.197   6.605   0.455 -0.0711  0.1031 -0.7164
 3139SOL    HW110316   2.128   6.571   0.391 -0.5186  0.6278 -0.5227
 3139SOL    HW210317   2.221   6.699   0.432  1.3138 -0.3892 -1.3738
 3140SOL     OW10318   6.948   4.902   6.074 -0.2197 -0.8707  0.6227
 3140SOL    HW110319   6.988   4.829   6.019  1.4279  0.7336 -0.4246
 3140SOL    HW210320   6.856   4.876   6.102 -1.3733 -1.6757 -3.2784
 3141SOL     OW10321   6.446   0.314   0.685 -0.0030 -0.1801 -0.2336
 3141SOL    HW110322   6.484   0.276   0.601 -0.3596 -0.3446 -0.3247
 3141SOL    HW210323   6.505   0.290   0.763  0.7425  0.6353 -0.5379
 3142SOL     OW10324   3.731   0.535   3.756  0.2935  0.3723  0.1632
 3142SOL    HW110325   3.784   0.458   3.721  0.0845  0.1812  0.2692
 3142SOL    HW210326   3.789   0.617   3.759  0.4496  0.2751 -0.1661
 3143SOL     OW10327   6.103   0.226   0.076 -0.4400  0.6808 -0.1138
 3143SOL    HW110328   6.114   0.177  -0.011  1.9238  1.1773 -0.1513
 3143SOL    HW210329   6.015   0.274   0.076 -1.7075 -1.4630 -1.0969
 3144SOL     OW10330   4.106   5.112   0.172  0.2314 -0.0630  0.1356
 3144SOL    HW110331   4.164   5.192   0.161 -0.5956  0.5366  0.0826
 3144SOL    HW210332   4.010   5.139   0.173 -0.1169 -1.1303 -0.8330
 3145SOL     OW10333   0.371   6.659   5.650  0.6538  0.2376 -0.2718
 3145SOL    HW110334   0.348   6.569   5.687  0.1924  0.2710 -0.4690
 3145SOL    HW210335   0.458   6.654   5.602  1.3759  0.2363  0.9952
 3146SOL     OW10336   6.921   1.961   5.094 -0.6642 -0.5594 -0.3892
 3146SOL    HW110337   7.002   2.003   5.053  1.2421 -2.5511  1.0694
 3146SOL    HW210338   6.868   1.913   5.024  0.4638 -0.7743 -1.1231
 3147SOL     OW10339   4.787   0.039   1.366  0.5674  0.0736 -0.0456
 3147SOL    HW110340   4.712   0.047   1.431  0.3748 -1.4510 -0.0471
 3147SOL    HW210341   4.820   0.131   1.341  1.6632  0.7451  3.3441
 3148SOL     OW10342   0.079   6.640   6.150  0.3930  0.0640 -0.2698
 3148SOL    HW110343   0.101   6.612   6.057  0.9758  1.1459 -0.4700
 3148SOL    HW210344   0.042   6.562   6.200 -0.2886 -0.4306 -1.5110
 3149SOL     OW10345   5.258   4.719   0.889  0.9438  0.3054 -0.2145
 3149SOL    HW110346   5.254   4.621   0.867 -0.1842  0.6713 -1.8621
 3149SOL    HW210347   5.353   4.749   0.891  1.2648 -0.1174 -3.4089
 3150SOL     OW10348   6.776   1.551   5.421 -0.8084 -0.4635 -0.0405
 3150SOL    HW110349   6.823   1.626   5.375  0.2964 -0.7524  0.5773
 3150SOL    HW210350   6.733   1.585   5.504  1.1128 -0.7744  1.1473
 3151SOL     OW10351   1.451   2.717   1.470 -0.3259 -0.1748  0.0131
 3151SOL    HW110352   1.506   2.636   1.489 -0.3593  0.3849  2.8837
 3151SOL    HW210353   1.447   2.775   1.551 -3.3659  0.9026 -0.7571
 3152SOL     OW10354   2.564   1.357   5.851  0.5142  0.4764 -0.4026
 3152SOL    HW110355   2.573   1.344   5.950 -0.3860  2.3479 -0.0162
 3152SOL    HW210356   2.602   1.446   5.826 -0.5712  0.6665 -1.4887
 3153SOL     OW10357   6.003   5.334   1.884  0.3105  0.1259 -0.1904
 3153SOL    HW110358   5.911   5.344   1.846  0.8180 -0.4083 -1.6208
 3153SOL    HW210359   5.997   5.298   1.977 -0.9955  2.0179  0.5216
 3154SOL     OW10360   4.262   3.526   6.915 -0.9081 -0.2264 -0.3558
 3154SOL    HW110361   4.327   3.543   6.988 -0.1184  1.9618 -1.4850
 3154SOL    HW210362   4.273   3.432   6.882 -0.6590 -0.9474  1.6668
 3155SOL     OW10363   6.111   5.419   5.901  0.0584 -0.0561 -0.8988
 3155SOL    HW110364   6.132   5.325   5.874 -0.0134 -0.0859 -0.8535
 3155SOL    HW210365   6.066   5.418   5.991  1.2186  0.1120 -0.3043
 3156SOL     OW10366   2.312   5.470   1.387  0.9265 -0.2844 -0.5340
 3156SOL    HW110367   2.275   5.386   1.426  1.0459 -0.6773 -1.2462
 3156SOL    HW210368   2.409   5.457   1.367  0.7820 -0.2160 -1.2954
 3157SOL     OW10369   0.005   0.912   2.309 -0.1820 -0.1148  0.2287
 3157SOL    HW110370  -0.056   0.984   2.342  0.4698  0.9614 -0.8220
 3157SOL    HW210371   0.084   0.954   2.263  0.0410 -1.5018 -0.7061
 3158SOL     OW10372   0.689   1.269   4.621  0.3395  0.4729  0.0623
 3158SOL    HW110373   0.757   1.343   4.621 -0.8536  1.6883  2.4737
 3158SOL    HW210374   0.678   1.234   4.714 -1.4290 -0.5534 -0.4869
 3159SOL     OW10375   3.922   6.021   0.676  0.5197 -0.3827 -0.2966
 3159SOL    HW110376   3.958   6.083   0.746  0.5841 -1.0047  0.2338
 3159SOL    HW210377   3.996   5.963   0.641  0.3806 -0.4495 -0.4846
 3160SOL     OW10378   2.014   0.867   6.114  0.1443 -0.1810 -0.0759
 3160SOL    HW110379   2.010   0.776   6.154  0.9525 -0.6059 -0.9174
 3160SOL    HW210380   2.078   0.867   6.038 -0.7269  0.8057 -0.8440
 3161SOL     OW10381   1.834   1.492   3.578 -0.1694  1.1548 -0.0015
 3161SOL    HW110382   1.895   1.542   3.639  3.0960 -3.5655  1.1596
 3161SOL    HW210383   1.773   1.435   3.632 -0.0913 -0.0277 -1.1183
 3162SOL     OW10384   0.760   6.684   1.126  1.1818 -0.4004  0.4220
 3162SOL    HW110385   0.713   6.644   1.205  1.8459  1.6020  1.9120
 3162SOL    HW210386   0.706   6.666   1.044 -2.1213  1.4203  1.9602
 3163SOL     OW10387   3.275   5.424   0.410  0.3823  0.2606  0.3768
 3163SOL    HW110388   3.363   5.450   0.368 -1.8863  2.2218 -3.8216
 3163SOL    HW210389   3.282   5.332   0.447  3.5353 -0.7849 -2.2740
 3164SOL     OW10390   1.456   4.748   1.324 -0.3561 -0.1486  0.0141
 3164SOL    HW110391   1.439   4.772   1.228 -1.5955  1.4751  0.6007
 3164SOL    HW210392   1.536   4.688   1.329  1.1698  1.5690 -1.8310
 3165SOL     OW10393   6.138   5.156   5.838 -0.3029  0.7790  0.0684
 3165SOL    HW110394   6.200   5.122   5.909 -0.5928 -0.0051 -0.0348
 3165SOL    HW210395   6.135   5.089   5.764 -3.1471 -0.4674  1.1664
 3166SOL     OW10396   2.851   1.666   5.331  0.7729  0.4151 -0.3517
 3166SOL    HW110397   2.848   1.752   5.281  2.9452  0.6476 -0.1594
 3166SOL    HW210398   2.946   1.637   5.344  0.1490 -1.3999  0.6513
 3167SOL     OW10399   5.897   2.277   2.542  0.3708  0.3764 -0.4540
 3167SOL    HW110400   5.891   2.333   2.624  0.6698 -1.0901  0.6217
 3167SOL    HW210401   5.805   2.260   2.506  0.0744 -0.4181  0.6289
 3168SOL     OW10402   6.082   2.373   2.005  0.5130  0.3974  0.4139
 3168SOL    HW110403   6.083   2.360   2.104 -0.6380  0.6466  0.4765
 3168SOL    HW210404   6.031   2.298   1.962  1.4080  0.0327 -0.0499
 3169SOL     OW10405   0.933   1.838   4.776  0.2645 -0.3608  0.3946
 3169SOL    HW110406   0.952   1.904   4.849  1.5221 -0.0058 -0.2202
 3169SOL    HW210407   0.877   1.882   4.706  0.8684 -0.0187  0.1194
 3170SOL     OW10408   1.521   5.505   4.734 -0.0292  0.0451  0.4999
 3170SOL    HW110409   1.473   5.557   4.664 -0.2363  0.1696  0.7323
 3170SOL    HW210410   1.476   5.519   4.822  1.9114  2.2633  1.2513
 3171SOL     OW10411   1.671   1.781   5.070  0.1398  0.0447 -0.2747
 3171SOL    HW110412   1.712   1.693   5.047 -0.9732 -0.7232  0.5479
 3171SOL    HW210413   1.711   1.852   5.013  1.6925 -0.8404 -0.3695
 3172SOL     OW10414   0.036   5.488   1.094 -0.2135  0.3911 -0.3979
 3172SOL    HW110415   0.005   5.401   1.055 -0.6745 -0.0416  0.8684
 3172SOL    HW210416   0.034   5.559   1.024 -0.7725 -0.4013 -1.2083
 3173SOL     OW10417   5.421   5.569   1.186  0.0354  0.0981 -0.1283
 3173SOL    HW110418   5.361   5.529   1.117 -1.0034 -0.2311  0.9419
 3173SOL    HW210419   5.375   5.646   1.230  0.2207 -0.4189  1.0055
 3174SOL     OW10420   2.751   3.240   5.503  0.4028 -0.1122 -0.9131
 3174SOL    HW110421   2.747   3.339   5.485  1.1466 -0.1477 -1.2965
 3174SOL    HW210422   2.795   3.194   5.427 -1.9811 -1.0557 -1.8132
 3175SOL     OW10423   6.686   4.408   4.846  0.1515  1.0229 -0.3234
 3175SOL    HW110424   6.654   4.346   4.918  0.4655  0.1851 -0.8923
 3175SOL    HW210425   6.692   4.359   4.759  0.4991  1.8268 -0.7668
 3176SOL     OW10426   6.676   3.477   3.743 -0.3365 -0.5415  0.5242
 3176SOL    HW110427   6.701   3.382   3.758  1.4058 -0.1539  0.3197
 3176SOL    HW210428   6.691   3.500   3.647  3.8806  1.0814  1.3234
 3177SOL     OW10429   5.168   3.453   2.381  0.3656  0.2701 -0.1303
 3177SOL    HW110430   5.177   3.530   2.319 -0.5886 -0.6375 -1.4751
 3177SOL    HW210431   5.079   3.458   2.427  0.9273  0.7552  0.9154
 3178SOL     OW10432   2.052   1.874   3.705  0.2689  0.0260 -0.1682
 3178SOL    HW110433   1.997   1.912   3.630  1.2849  3.6454  0.7330
 3178SOL    HW210434   2.146   1.860   3.674  0.2479 -0.3308 -0.0764
 3179SOL     OW10435   1.519   4.202   3.952  0.0948 -0.6454 -0.5260
 3179SOL    HW110436   1.510   4.211   3.852 -0.1925 -1.4255 -0.5786
 3179SOL    HW210437   1.428   4.196   3.993  0.2035 -2.6556 -0.4651
 3180SOL     OW10438   4.236   1.228   0.442 -0.2551 -0.2614  0.1478
 3180SOL    HW110439   4.256   1.235   0.344 -0.2349  0.9386  0.2344
 3180SOL    HW210440   4.315   1.261   0.494  0.4591 -2.5230  0.6318
 3181SOL     OW10441   5.175   5.086   4.960  0.1557  0.4943 -0.5936
 3181SOL    HW110442   5.172   5.148   5.039  2.3455 -0.8654  0.6575
 3181SOL    HW210443   5.099   5.021   4.965  1.1423 -0.5899  1.3355
 3182SOL     OW10444   1.823   5.258   0.011  0.2080  0.8208 -0.2611
 3182SOL    HW110445   1.848   5.293   0.101 -0.1642 -0.3856  0.3180
 3182SOL    HW210446   1.732   5.217   0.015  0.5492 -0.0291 -0.9705
 3183SOL     OW10447   3.506   5.661   0.751 -0.3224 -0.3626  0.1329
 3183SOL    HW110448   3.502   5.751   0.794  1.0537  0.1217 -0.7150
 3183SOL    HW210449   3.591   5.652   0.700 -0.8705 -1.7995 -0.5712
 3184SOL     OW10450   6.239   2.093   4.433  0.2044 -0.0013  0.0717
 3184SOL    HW110451   6.145   2.116   4.457  0.7859  1.2687  1.2569
 3184SOL    HW210452   6.239   2.012   4.375 -1.5965 -0.1806  0.2509
 3185SOL     OW10453   2.658   6.678   4.393  0.0544  0.3172  0.1264
 3185SOL    HW110454   2.568   6.634   4.383 -0.2840  0.8576  0.7043
 3185SOL    HW210455   2.648   6.776   4.377  0.3152  0.5567  1.3663
 3186SOL     OW10456   5.687   3.353   5.843  0.1019 -0.5421  0.0398
 3186SOL    HW110457   5.742   3.382   5.765  1.3339 -0.7545  0.8019
 3186SOL    HW210458   5.737   3.285   5.896 -0.5363 -0.1056  1.2520
 3187SOL     OW10459   5.992   0.124   3.044  0.1462 -0.3174  0.2951
 3187SOL    HW110460   5.933   0.179   3.104  1.3348  0.6174  0.6385
 3187SOL    HW210461   5.949   0.115   2.954 -0.1727  1.0030  0.2908
 3188SOL     OW10462   2.048   5.763   1.928  0.1550 -0.4077 -0.2459
 3188SOL    HW110463   2.081   5.840   1.982  1.1261 -0.9513 -0.0332
 3188SOL    HW210464   1.954   5.780   1.898 -0.4558 -0.1495  1.7204
 3189SOL     OW10465   2.883   1.699   6.179  0.1944 -0.3806 -0.1863
 3189SOL    HW110466   2.820   1.671   6.252 -1.0666 -1.5166 -1.6311
 3189SOL    HW210467   2.848   1.667   6.091  1.6868  0.9158 -1.3114
 3190SOL     OW10468   0.519   3.882   3.931 -0.1013  0.2900  0.0772
 3190SOL    HW110469   0.519   3.793   3.886  0.6553  0.2692  0.0945
 3190SOL    HW210470   0.482   3.873   4.023  1.3077 -0.3191  0.6208
 3191SOL     OW10471   5.526   0.132   6.636  0.2018  0.6289 -0.1508
 3191SOL    HW110472   5.605   0.192   6.623  1.5854 -0.8525  1.0610
 3191SOL    HW210473   5.540   0.047   6.585  0.5817 -0.6637  2.0028
 3192SOL     OW10474   5.015   0.474   4.243  0.0177 -0.0164 -0.2833
 3192SOL    HW110475   5.052   0.395   4.194 -1.5685 -1.1159  0.1854
 3192SOL    HW210476   5.078   0.551   4.236  1.6709 -1.3518 -0.6729
 3193SOL     OW10477   4.266   5.994   4.884  0.2104  0.2036  0.0600
 3193SOL    HW110478   4.310   6.040   4.806  0.3014  0.4184  0.2373
 3193SOL    HW210479   4.167   6.009   4.879  0.3447  1.4341  0.7680
 3194SOL     OW10480   3.156   0.395   5.401  0.3375  0.2730  0.0543
 3194SOL    HW110481   3.122   0.362   5.313  2.4983  1.3201 -1.2823
 3194SOL    HW210482   3.231   0.336   5.432 -0.6259 -0.2780  1.3944
 3195SOL     OW10483   5.131   6.662   1.676  0.3436 -0.0045 -0.2331
 3195SOL    HW110484   5.072   6.705   1.608  1.8191 -0.4601 -1.9130
 3195SOL    HW210485   5.196   6.601   1.629  0.0753 -1.9996  1.7856
 3196SOL     OW10486   5.843   1.492   3.497  0.1446  0.3299 -0.5592
 3196SOL    HW110487   5.859   1.412   3.556  0.1631  1.7110  1.4121
 3196SOL    HW210488   5.747   1.494   3.469 -0.1775  0.2997  0.4837
 3197SOL     OW10489   3.766   0.401   6.508  0.2490  0.2330 -0.0284
 3197SOL    HW110490   3.848   0.399   6.451  1.4016  2.4224  1.4146
 3197SOL    HW210491   3.685   0.403   6.449  1.3024  0.5560 -1.5284
 3198SOL     OW10492   6.814   3.859   3.881 -0.0099  0.2579 -0.2420
 3198SOL    HW110493   6.742   3.796   3.911  1.5165 -1.1590  0.6403
 3198SOL    HW210494   6.845   3.833   3.789 -0.2347  0.5084 -0.3886
 3199SOL     OW10495   5.979   3.865   3.443  0.3880  0.2361  0.3104
 3199SOL    HW110496   5.970   3.855   3.542  1.5296  2.6488  0.7572
 3199SOL    HW210497   5.933   3.949   3.414  1.0141  0.1506 -1.0139
 3200SOL     OW10498   6.209   2.501   4.789 -0.2986  0.2311  0.2554
 3200SOL    HW110499   6.198   2.455   4.878  0.8193  1.0275  0.8276
 3200SOL    HW210500   6.140   2.467   4.725 -1.3564 -0.1068  1.5317
 3201SOL     OW10501   6.591   1.317   1.634 -0.1206 -0.5388  0.2818
 3201SOL    HW110502   6.686   1.294   1.655  0.1262 -0.0272 -0.2592
 3201SOL    HW210503   6.559   1.387   1.699  0.2236  0.0791 -0.2013
 3202SOL     OW10504   4.553   4.822   5.355 -0.2256 -0.2085  0.0753
 3202SOL    HW110505   4.635   4.770   5.332  0.0856 -0.8199  2.3200
 3202SOL    HW210506   4.474   4.782   5.309  0.5252 -0.4395 -1.0482
 3203SOL     OW10507   3.065   5.684   2.014 -0.3946  0.0912  0.5975
 3203SOL    HW110508   3.096   5.611   1.953 -1.5425  1.1104 -1.2856
 3203SOL    HW210509   2.996   5.648   2.077  0.3793 -0.8404  0.9442
 3204SOL     OW10510   4.679   0.818   2.276 -0.0274  0.2642 -0.4744
 3204SOL    HW110511   4.628   0.899   2.304 -0.8140 -0.4505  0.1755
 3204SOL    HW210512   4.627   0.736   2.297  2.2424 -0.6414  2.1935
 3205SOL     OW10513   5.908   4.043   0.959  0.2138  0.8019 -0.2021
 3205SOL    HW110514   5.918   4.121   1.020 -1.8200  1.4118 -0.5766
 3205SOL    HW210515   5.811   4.024   0.945  0.6543 -1.8261 -0.1061
 3206SOL     OW10516   3.417   6.733   1.444 -0.1103 -0.5031 -0.2471
 3206SOL    HW110517   3.473   6.699   1.368  1.0040 -1.4968  0.9642
 3206SOL    HW210518   3.415   6.833   1.442  0.4815 -0.4953 -1.1719
 3207SOL     OW10519   2.599   5.555   1.016 -0.6441 -0.3249 -0.1238
 3207SOL    HW110520   2.546   5.471   1.006 -0.5783 -0.4680  0.6485
 3207SOL    HW210521   2.676   5.554   0.952  1.2722 -2.3491  2.0179
 3208SOL     OW10522   4.900   2.718   0.549 -0.7113  0.0644 -0.3744
 3208SOL    HW110523   4.810   2.750   0.518  0.1076  1.9280 -0.9387
 3208SOL    HW210524   4.937   2.781   0.617  0.0917 -0.7976  0.0135
 3209SOL     OW10525   4.248   0.116   3.838 -0.2258  0.4764  0.3806
 3209SOL    HW110526   4.246   0.150   3.744  0.1254 -0.5422 -0.0025
 3209SOL    HW210527   4.158   0.081   3.862 -0.8723  2.4637  1.1053
 3210SOL     OW10528   4.294   5.319   3.494 -0.5656 -0.5761 -0.4309
 3210SOL    HW110529   4.279   5.330   3.592 -1.2046  3.2097 -0.8235
 3210SOL    HW210530   4.288   5.222   3.471  1.9128 -1.9398  3.5544
 3211SOL     OW10531   1.462   0.903   5.980 -0.0832 -0.1311 -0.0373
 3211SOL    HW110532   1.461   0.807   5.952 -1.3432 -0.0313 -0.4283
 3211SOL    HW210533   1.405   0.956   5.918 -2.7959  0.1499  2.4547
 3212SOL     OW10534   4.734   1.028   3.343  0.3427  0.0640  0.1706
 3212SOL    HW110535   4.807   0.961   3.330 -0.6745 -0.8088 -1.2921
 3212SOL    HW210536   4.648   0.991   3.308 -0.5571  1.5618  0.7064
 3213SOL     OW10537   0.966   0.667   5.817  0.4431  0.3688  0.1338
 3213SOL    HW110538   1.045   0.642   5.761  0.6501 -0.9910  0.9755
 3213SOL    HW210539   0.904   0.589   5.824 -1.2997  1.5877 -0.9837
 3214SOL     OW10540   2.130   6.537   3.042 -0.3858 -0.1641  1.3695
 3214SOL    HW110541   2.159   6.631   3.057  0.6411 -0.4498  1.2784
 3214SOL    HW210542   2.089   6.528   2.952 -0.1497  0.1290  1.2311
 3215SOL     OW10543   1.922   2.150   2.147  0.3229 -0.2473  0.2492
 3215SOL    HW110544   1.903   2.248   2.155  0.7673 -0.2176  1.1137
 3215SOL    HW210545   1.935   2.125   2.051  2.1921  0.9319  0.1473
 3216SOL     OW10546   0.484   2.619   1.924  0.3792  0.0751 -0.2215
 3216SOL    HW110547   0.522   2.627   2.016  0.0355  1.6542 -0.1769
 3216SOL    HW210548   0.499   2.705   1.875 -1.3489  0.0488 -0.8778
 3217SOL     OW10549   4.716   4.223   5.728  0.2609 -0.2081 -0.0197
 3217SOL    HW110550   4.668   4.170   5.797 -0.8124  0.8229  0.0626
 3217SOL    HW210551   4.761   4.302   5.771  0.0428  0.1380 -0.4176
 3218SOL     OW10552   5.346   1.545   3.219 -0.0419 -0.2211 -0.5761
 3218SOL    HW110553   5.420   1.579   3.277 -0.8328  0.7801 -0.1180
 3218SOL    HW210554   5.381   1.525   3.128  1.2496 -1.8843  0.2246
 3219SOL     OW10555   4.374   0.653   4.520 -0.7100  0.2785 -0.3632
 3219SOL    HW110556   4.465   0.627   4.487 -0.0995  1.4191  0.3901
 3219SOL    HW210557   4.317   0.679   4.442 -0.1174  0.4025 -0.7609
 3220SOL     OW10558   6.254   4.155   0.346  0.7589 -0.7780  0.3316
 3220SOL    HW110559   6.206   4.088   0.403  0.2795 -0.0612  0.7814
 3220SOL    HW210560   6.252   4.124   0.251 -2.7757  0.3483 -0.1134
 3221SOL     OW10561   5.091   0.778   1.770  0.2696  0.7858  0.3209
 3221SOL    HW110562   5.177   0.830   1.767  1.1754 -0.6863 -0.5638
 3221SOL    HW210563   5.080   0.737   1.861  0.4025  1.1463  0.4998
 3222SOL     OW10564   3.629   0.445   4.360  0.4741 -0.3656 -0.2691
 3222SOL    HW110565   3.639   0.544   4.365  1.2010 -0.4979  1.5211
 3222SOL    HW210566   3.532   0.421   4.363  0.2907  0.2780 -0.7835
 3223SOL     OW10567   3.385   6.420   6.330 -0.0196 -1.1240 -0.2190
 3223SOL    HW110568   3.285   6.415   6.325  0.0218 -0.8032 -1.5105
 3223SOL    HW210569   3.425   6.345   6.277  0.4438 -1.6279  0.7998
 3224SOL     OW10570   3.632   1.041   2.672  0.5337 -0.5203 -0.5948
 3224SOL    HW110571   3.679   1.118   2.713  0.8631 -1.3013  0.5479
 3224SOL    HW210572   3.684   0.957   2.688  0.2431 -0.9782 -1.9023
 3225SOL     OW10573   2.744   6.729   3.943 -0.4067  0.5685 -0.3381
 3225SOL    HW110574   2.763   6.633   3.966 -0.8192  0.4211 -0.6104
 3225SOL    HW210575   2.829   6.782   3.949 -0.5998  0.7142  2.3822
 3226SOL     OW10576   3.840   1.377   0.396 -0.5259 -0.1377 -0.0831
 3226SOL    HW110577   3.792   1.439   0.334 -0.7935 -0.4793 -0.2206
 3226SOL    HW210578   3.916   1.425   0.440 -0.3801  0.1246 -0.6191
 3227SOL     OW10579   6.326   4.326   4.711  0.0287  0.3816 -0.0193
 3227SOL    HW110580   6.230   4.298   4.717  0.5131 -1.2128  0.9636
 3227SOL    HW210581   6.379   4.277   4.781  1.4372  1.7994 -0.0386
 3228SOL     OW10582   2.653   3.950   1.650  0.0663 -0.4184  0.0494
 3228SOL    HW110583   2.663   4.024   1.584  1.2726 -1.6499 -1.2246
 3228SOL    HW210584   2.556   3.925   1.658 -0.1871  0.3288 -0.6025
 3229SOL     OW10585   6.314   1.648   6.124 -0.0804 -0.5991 -0.0376
 3229SOL    HW110586   6.262   1.595   6.057 -0.7763  1.9269 -1.6260
 3229SOL    HW210587   6.391   1.692   6.080  1.0466 -1.0055  1.4378
 3230SOL     OW10588   5.313   6.634   6.705 -0.1275 -0.3844  0.0605
 3230SOL    HW110589   5.371   6.564   6.746  0.5609  0.8734  1.2983
 3230SOL    HW210590   5.348   6.656   6.614  0.1683 -1.0023  0.0172
 3231SOL     OW10591   2.733   1.350   4.031  0.1412  0.5642 -0.4091
 3231SOL    HW110592   2.737   1.339   4.131  1.9328 -0.4768 -0.5508
 3231SOL    HW210593   2.804   1.414   4.002 -0.8974  1.4875 -0.9658
 3232SOL     OW10594   2.063   5.008   5.094 -0.7188  0.3073 -0.4305
 3232SOL    HW110595   2.102   4.940   5.032 -0.3230  0.4971 -0.3887
 3232SOL    HW210596   2.011   4.961   5.166  2.1373 -0.2077  1.4936
 3233SOL     OW10597   1.425   6.946   5.617 -0.0759 -0.3962 -0.5274
 3233SOL    HW110598   1.413   6.858   5.570  0.1537 -1.4297  1.2738
 3233SOL    HW210599   1.340   6.970   5.665 -0.0197  0.1926 -0.7152
 3234SOL     OW10600   3.302   5.463   0.967 -0.7741 -0.7378 -0.1970
 3234SOL    HW110601   3.262   5.438   1.055 -2.8522  1.8526 -0.2766
 3234SOL    HW210602   3.274   5.556   0.943  0.7463 -0.9041 -3.0331
 3235SOL     OW10603   0.918   0.955   4.269  0.3931  0.4750  0.2162
 3235SOL    HW110604   0.944   0.897   4.346  1.3672 -0.8204 -1.0464
 3235SOL    HW210605   0.885   1.043   4.304 -1.6036 -0.9569  2.2055
 3236SOL     OW10606   5.681   5.793   6.962 -0.0966 -0.1641 -0.4899
 3236SOL    HW110607   5.746   5.726   6.999  0.4575  1.4428  1.6009
 3236SOL    HW210608   5.678   5.873   7.021 -2.0327  0.9600 -1.9955
 3237SOL     OW10609   6.197   3.340   4.387  0.2092  0.2827  0.0509
 3237SOL    HW110610   6.156   3.429   4.407 -0.8125 -0.1554  0.0100
 3237SOL    HW210611   6.219   3.293   4.473 -1.8820 -0.5704  0.1888
 3238SOL     OW10612   6.402   6.221   1.804  0.3551 -0.3829 -0.5831
 3238SOL    HW110613   6.422   6.279   1.725 -1.3962  2.4161  0.8771
 3238SOL    HW210614   6.304   6.198   1.804  0.4891 -1.0065  0.3775
 3239SOL     OW10615   0.217   1.785   3.122  0.1133 -0.7663  0.3230
 3239SOL    HW110616   0.203   1.838   3.039  0.0836  1.2474  1.5423
 3239SOL    HW210617   0.249   1.694   3.099 -2.4688 -1.2034 -2.0118
 3240SOL     OW10618   1.428   1.927   1.877 -0.5668  0.1307 -0.4542
 3240SOL    HW110619   1.417   1.974   1.790 -0.7544 -0.1402 -0.5794
 3240SOL    HW210620   1.525   1.912   1.895 -0.5313  0.1272 -0.6470
 3241SOL     OW10621   6.993   4.997   5.456  0.4821 -0.1643  0.3816
 3241SOL    HW110622   6.902   4.955   5.460  0.1984  0.4956  1.0526
 3241SOL    HW210623   7.051   4.945   5.392 -1.4189  1.4161 -2.8686
 3242SOL     OW10624   5.665   3.236   4.923 -0.1857 -0.0964  0.4650
 3242SOL    HW110625   5.729   3.268   4.994 -0.9201 -1.5444  1.8490
 3242SOL    HW210626   5.599   3.308   4.903  1.3637  1.1466 -0.4269
 3243SOL     OW10627   5.798   4.451   6.230  0.2048  0.7620  0.2365
 3243SOL    HW110628   5.870   4.511   6.265  0.6173  1.7541 -2.1378
 3243SOL    HW210629   5.827   4.356   6.236  0.1817  0.8507  2.6282
 3244SOL     OW10630   3.948   5.145   6.787  0.1388  0.5352 -0.0302
 3244SOL    HW110631   3.960   5.244   6.784  2.4405  0.3220  0.2655
 3244SOL    HW210632   3.863   5.123   6.834 -0.0982  2.3474  0.4565
 3245SOL     OW10633   1.943   0.156   4.633 -0.2694  0.4521  0.2269
 3245SOL    HW110634   1.862   0.158   4.575 -1.0937 -1.2771  1.2580
 3245SOL    HW210635   1.967   0.062   4.655  0.3287  1.0173  2.2486
 3246SOL     OW10636   4.801   5.032   1.087  0.7651 -0.2385 -0.3521
 3246SOL    HW110637   4.812   4.970   1.165  4.0145  2.5757  1.7332
 3246SOL    HW210638   4.862   5.004   1.013 -1.0964 -1.9501 -1.3344
 3247SOL     OW10639   2.517   6.136   5.399  0.2705  0.3710 -0.4183
 3247SOL    HW110640   2.480   6.062   5.342  0.6545  0.3905 -0.6941
 3247SOL    HW210641   2.528   6.104   5.493 -0.0418  0.2342 -0.4272
 3248SOL     OW10642   1.619   2.971   4.369 -0.2181  0.3403  0.1178
 3248SOL    HW110643   1.642   2.892   4.425 -1.0051  0.6660  0.9198
 3248SOL    HW210644   1.613   3.052   4.427  0.8831  1.0711 -0.7244
 3249SOL     OW10645   3.607   4.016   4.387 -0.2843  0.4940  0.1454
 3249SOL    HW110646   3.610   3.925   4.347 -0.4729 -0.2993  1.8501
 3249SOL    HW210647   3.605   4.085   4.314 -1.4189 -0.8879 -1.1841
 3250SOL     OW10648   5.944   6.288   3.086 -0.2971 -0.1307 -0.2456
 3250SOL    HW110649   5.911   6.364   3.142  0.3821  0.8893 -1.1925
 3250SOL    HW210650   5.867   6.243   3.041 -0.7264 -0.1686  0.5108
 3251SOL     OW10651   3.096   1.691   1.833 -0.1901  0.2784  0.1102
 3251SOL    HW110652   3.066   1.718   1.741 -2.6555 -0.9904  0.4482
 3251SOL    HW210653   3.179   1.741   1.857  0.1791  1.1110 -2.5381
 3252SOL     OW10654   2.114   1.231   4.450  0.4642  0.1208 -0.1661
 3252SOL    HW110655   2.056   1.162   4.494 -0.3749 -1.4259 -3.3979
 3252SOL    HW210656   2.057   1.300   4.407  1.0157 -0.5613 -2.0742
 3253SOL     OW10657   6.964   2.369   1.064 -0.1183  0.1159  0.4015
 3253SOL    HW110658   7.051   2.349   1.018 -1.1203  0.1615 -1.6174
 3253SOL    HW210659   6.980   2.435   1.137  1.3739  1.2261 -0.8444
 3254SOL     OW10660   5.528   6.955   0.989  0.0728  0.0453  0.0420
 3254SOL    HW110661   5.555   7.037   0.937  2.8487 -0.6157  0.2868
 3254SOL    HW210662   5.604   6.890   0.991 -1.4906 -1.8695  1.2506
 3255SOL     OW10663   3.520   4.622   0.350 -0.5367  0.3492  0.3289
 3255SOL    HW110664   3.612   4.627   0.311 -0.5990  2.6934  0.3017
 3255SOL    HW210665   3.454   4.655   0.282 -1.2983 -0.5397  0.6258
 3256SOL     OW10666   6.038   4.910   2.610 -0.0195  0.1601 -0.1598
 3256SOL    HW110667   6.082   4.964   2.682 -0.7699 -1.9670  2.0204
 3256SOL    HW210668   6.109   4.870   2.551  0.9150 -0.8578  1.5407
 3257SOL     OW10669   2.140   1.798   2.442  0.3155  0.5583  0.0035
 3257SOL    HW110670   2.131   1.897   2.433 -1.3239  0.6136  1.4893
 3257SOL    HW210671   2.050   1.756   2.433  0.3316 -0.3755  3.0232
 3258SOL     OW10672   0.280   5.784   3.990 -0.2217  0.4187 -0.0666
 3258SOL    HW110673   0.212   5.717   3.962 -0.6986  1.0982 -0.5803
 3258SOL    HW210674   0.341   5.744   4.059  0.3193 -0.9408 -1.2946
 3259SOL     OW10675   0.020   4.924   2.282  0.1975 -0.0796 -0.4839
 3259SOL    HW110676  -0.063   4.960   2.240  0.4461 -0.4666 -1.3304
 3259SOL    HW210677   0.099   4.944   2.224  0.5101 -0.8915 -0.3659
 3260SOL     OW10678   3.237   6.735   0.746 -0.5272 -0.3111 -0.0920
 3260SOL    HW110679   3.181   6.659   0.714  0.8382 -1.7773  0.8715
 3260SOL    HW210680   3.212   6.758   0.840  0.6420 -1.1703  0.4488
 3261SOL     OW10681   4.502   6.832   4.971 -0.3075  0.4560  0.2419
 3261SOL    HW110682   4.457   6.841   4.882 -0.3527 -4.4206 -0.4877
 3261SOL    HW210683   4.432   6.823   5.043 -0.3653  0.0929  0.1418
 3262SOL     OW10684   2.864   1.808   2.802 -0.0365  0.3229 -0.1544
 3262SOL    HW110685   2.786   1.837   2.746  1.1371 -2.0323 -3.3654
 3262SOL    HW210686   2.946   1.855   2.771  0.5272 -0.5012  0.0579
 3263SOL     OW10687   5.233   0.343   1.275 -0.5870  0.3707  0.3809
 3263SOL    HW110688   5.314   0.325   1.220 -0.3952 -0.9604  1.0690
 3263SOL    HW210689   5.244   0.430   1.324 -0.0124  0.6799 -0.3009
 3264SOL     OW10690   0.276   5.754   4.702  0.0798 -0.5866 -0.1709
 3264SOL    HW110691   0.177   5.743   4.711  0.0187 -1.0667 -1.3574
 3264SOL    HW210692   0.321   5.716   4.784 -0.6142 -2.0855 -0.4511
 3265SOL     OW10693   6.757   4.548   6.365  0.3762  0.1334 -0.6984
 3265SOL    HW110694   6.822   4.557   6.290  1.3608 -1.5355 -0.1015
 3265SOL    HW210695   6.770   4.459   6.410 -2.8341 -0.6444 -1.0491
 3266SOL     OW10696   5.020   3.701   0.593 -0.3315 -0.5647 -0.1506
 3266SOL    HW110697   5.095   3.636   0.576  0.7279  0.8929 -1.2571
 3266SOL    HW210698   4.946   3.684   0.528  0.6502  0.3436 -1.5626
 3267SOL     OW10699   3.408   0.343   1.423 -0.9633  0.0186 -0.3558
 3267SOL    HW110700   3.478   0.381   1.362 -2.8137 -2.2380 -4.2368
 3267SOL    HW210701   3.318   0.374   1.393 -1.9611 -0.2688  2.0976
 3268SOL     OW10702   5.147   3.927   3.273 -0.0167  0.0131  0.0556
 3268SOL    HW110703   5.114   4.002   3.216  1.1788  0.5890  0.1005
 3268SOL    HW210704   5.092   3.922   3.357 -1.7235 -0.7742 -1.0533
 3269SOL     OW10705   0.565   5.245   6.983 -0.1629 -0.0860 -0.1245
 3269SOL    HW110706   0.522   5.250   7.073 -0.9384 -2.7586 -0.2483
 3269SOL    HW210707   0.664   5.242   6.993 -0.2735 -1.8523  0.8078
 3270SOL     OW10708   1.437   3.504   6.640  0.7726 -0.4237 -0.0733
 3270SOL    HW110709   1.412   3.438   6.569  0.0515 -0.0548 -0.1669
 3270SOL    HW210710   1.471   3.587   6.597 -1.2292  0.4458 -0.0634
 3271SOL     OW10711   2.377   2.731   2.383  0.3197 -0.3579 -0.0767
 3271SOL    HW110712   2.392   2.634   2.402 -0.5597 -0.3333  0.8424
 3271SOL    HW210713   2.370   2.781   2.470 -0.2029  0.3653 -0.5228
 3272SOL     OW10714   3.437   1.813   5.259  0.1801  0.6766 -0.1007
 3272SOL    HW110715   3.446   1.906   5.224  0.0612  1.0215  0.7622
 3272SOL    HW210716   3.365   1.765   5.208  1.3650  0.4781 -1.6880
 3273SOL     OW10717   4.305   4.718   0.952 -0.0906  0.6912 -0.0499
 3273SOL    HW110718   4.248   4.729   0.870 -0.9033 -1.6847  0.1169
 3273SOL    HW210719   4.258   4.657   1.017  2.1782 -0.5277  0.5497
 3274SOL     OW10720   3.056   1.095   0.796  0.0529  0.2049  0.2985
 3274SOL    HW110721   3.080   1.022   0.861  1.8658  0.1464 -0.3690
 3274SOL    HW210722   2.965   1.130   0.818  1.0447  1.0768  3.7179
 3275SOL     OW10723   4.113   5.645   1.403 -0.5686 -0.1837  0.2720
 3275SOL    HW110724   4.076   5.681   1.318 -2.9265 -1.9784  0.4492
 3275SOL    HW210725   4.202   5.602   1.385 -0.8608 -0.2178 -1.2090
 3276SOL     OW10726   6.460   6.537   0.423 -0.0123  0.6285 -0.5664
 3276SOL    HW110727   6.508   6.462   0.469  0.6159  0.5476 -1.3303
 3276SOL    HW210728   6.425   6.505   0.335  2.7910  1.9282 -2.2901
 3277SOL     OW10729   5.783   6.680   0.634  0.2183  0.5484  0.2431
 3277SOL    HW110730   5.842   6.714   0.560  0.5839 -0.6155 -0.0272
 3277SOL    HW210731   5.789   6.580   0.637  1.7312  0.6446  3.0888
 3278SOL     OW10732   4.578   1.098   6.327 -0.0984 -0.1844  0.1913
 3278SOL    HW110733   4.644   1.038   6.281 -0.9041 -1.7260  0.9804
 3278SOL    HW210734   4.592   1.193   6.296  2.4248 -0.4580  0.2837
 3279SOL     OW10735   4.621   0.197   2.680 -0.3576 -0.4324 -0.0460
 3279SOL    HW110736   4.529   0.224   2.651 -0.1369  0.4145 -0.0010
 3279SOL    HW210737   4.630   0.098   2.677 -1.8663 -0.6773  1.7060
 3280SOL     OW10738   6.431   2.530   4.325  0.6196  0.1900 -0.4380
 3280SOL    HW110739   6.419   2.484   4.237 -1.9885  1.1203 -0.6406
 3280SOL    HW210740   6.391   2.622   4.321  1.2072  0.5777  1.4789
 3281SOL     OW10741   6.349   3.465   2.067  0.0158 -0.2989 -0.3905
 3281SOL    HW110742   6.398   3.552   2.056  0.3314 -0.4079  0.1294
 3281SOL    HW210743   6.415   3.390   2.071 -0.0768 -0.3184  1.6890
 3282SOL     OW10744   0.434   4.346   4.828  0.2316  0.5282  0.0636
 3282SOL    HW110745   0.362   4.289   4.788 -2.0120  1.9261  1.8418
 3282SOL    HW210746   0.475   4.298   4.905 -0.5396  0.6346  0.5574
 3283SOL     OW10747   3.534   0.423   6.946  0.0345  0.1239  0.2536
 3283SOL    HW110748   3.446   0.468   6.927 -1.0456 -1.1873  1.8536
 3283SOL    HW210749   3.569   0.454   7.034  0.6915 -0.0718  0.0647
 3284SOL     OW10750   1.959   1.310   6.281 -0.2473 -0.0441 -0.1806
 3284SOL    HW110751   1.950   1.210   6.287  2.3835 -0.3040  1.4737
 3284SOL    HW210752   2.041   1.332   6.227 -0.9902  1.2617 -0.8120
 3285SOL     OW10753   3.802   6.370   6.560 -0.4066  0.4924 -0.2150
 3285SOL    HW110754   3.753   6.288   6.531 -1.8525  1.7660 -1.5785
 3285SOL    HW210755   3.862   6.348   6.637 -2.0021 -1.4621  0.5498
 3286SOL     OW10756   0.858   4.286   5.325  0.1047 -0.6687 -0.0744
 3286SOL    HW110757   0.911   4.367   5.301  0.3303 -0.9994 -0.7154
 3286SOL    HW210758   0.789   4.310   5.393 -0.1376  0.1508 -0.5981
 3287SOL     OW10759   2.692   2.845   6.979  0.3372  0.2309  0.0993
 3287SOL    HW110760   2.594   2.825   6.971  0.4675  0.3637 -3.8209
 3287SOL    HW210761   2.740   2.765   7.013 -0.8957 -0.6510 -0.1810
 3288SOL     OW10762   2.999   6.870   2.042  0.6728 -0.3126 -0.0986
 3288SOL    HW110763   3.004   6.823   2.130  0.1432  1.5249  0.9734
 3288SOL    HW210764   3.084   6.921   2.027  1.2940 -1.6514 -1.3008
 3289SOL     OW10765   5.143   7.009   6.592  0.3734  0.2616 -0.2108
 3289SOL    HW110766   5.207   7.019   6.516  0.8385 -1.6243 -0.1149
 3289SOL    HW210767   5.050   7.000   6.556  0.2495  2.0285 -0.3973
 3290SOL     OW10768   6.551   3.957   0.375  0.3434 -0.1409 -0.1357
 3290SOL    HW110769   6.582   3.876   0.424 -1.4717 -1.7184 -1.4649
 3290SOL    HW210770   6.458   3.980   0.403  0.4174  0.8155 -0.6150
 3291SOL     OW10771   5.090   6.594   5.299  0.1826 -0.1611  0.3998
 3291SOL    HW110772   5.124   6.545   5.219  0.4715 -1.2817  1.1789
 3291SOL    HW210773   4.994   6.616   5.286 -0.5621 -2.7652  0.7969
 3292SOL     OW10774   0.440   4.345   1.214 -0.2324 -0.0618 -0.2664
 3292SOL    HW110775   0.354   4.313   1.173 -0.5207  0.9666 -0.4915
 3292SOL    HW210776   0.514   4.332   1.148 -0.0200 -1.8188  0.2678
 3293SOL     OW10777   0.416   3.825   6.704  0.0462  0.5704 -0.1600
 3293SOL    HW110778   0.502   3.776   6.689  0.1506  1.0490 -1.2293
 3293SOL    HW210779   0.372   3.791   6.787 -0.5195 -2.2220 -1.4901
 3294SOL     OW10780   3.772   3.775   3.998  0.1408  0.2256 -0.2481
 3294SOL    HW110781   3.756   3.790   4.096  0.0386  0.7859 -0.3473
 3294SOL    HW210782   3.704   3.710   3.963  1.6009 -1.8180  0.5425
 3295SOL     OW10783   1.799   2.813   4.107 -0.2349 -0.0164 -0.1346
 3295SOL    HW110784   1.855   2.835   4.027 -1.0271  2.7235 -0.0204
 3295SOL    HW210785   1.852   2.757   4.170  1.3984  0.1992 -1.2561
 3296SOL     OW10786   1.696   1.758   0.812 -0.3090  0.0815  0.5052
 3296SOL    HW110787   1.779   1.745   0.758 -0.2532  0.3280  0.5312
 3296SOL    HW210788   1.634   1.819   0.764 -0.3546  0.1226  0.6144
 3297SOL     OW10789   3.837   0.065   5.447 -0.3820  0.3165 -0.2782
 3297SOL    HW110790   3.928   0.107   5.456  0.3475 -1.1345 -0.5215
 3297SOL    HW210791   3.796   0.057   5.538  0.8874 -1.3700  0.2093
 3298SOL     OW10792   4.997   4.208   5.759 -0.0972  0.4476 -0.3407
 3298SOL    HW110793   5.074   4.166   5.710 -0.1704  0.3592 -0.3816
 3298SOL    HW210794   4.912   4.170   5.723 -0.1639  0.6334 -0.3780
 3299SOL     OW10795   2.384   1.237   2.863  0.0020  0.1115  0.2506
 3299SOL    HW110796   2.447   1.173   2.820 -0.1040  0.7759 -0.9459
 3299SOL    HW210797   2.343   1.295   2.793  0.0702  1.4633  1.2935
 3300SOL     OW10798   3.218   0.400   3.404 -0.2125  0.0246  0.0166
 3300SOL    HW110799   3.202   0.447   3.491  0.7492 -1.3460  0.9807
 3300SOL    HW210800   3.172   0.311   3.406  0.1153 -0.1662 -0.7458
 3301SOL     OW10801   6.741   7.009   2.068 -0.2764 -0.7583  0.0514
 3301SOL    HW110802   6.760   7.101   2.103  0.9944 -0.7529 -0.5804
 3301SOL    HW210803   6.777   6.941   2.132 -0.7270 -0.8017  0.2564
 3302SOL     OW10804   4.534   6.227   3.751 -0.2949  0.3600  0.1051
 3302SOL    HW110805   4.610   6.280   3.712 -0.4691  0.6373  0.1338
 3302SOL    HW210806   4.567   6.173   3.828 -0.1476  0.5715  0.1940
 3303SOL     OW10807   4.765   4.769   1.210  0.1379  0.3807 -0.5593
 3303SOL    HW110808   4.834   4.725   1.267 -0.4477 -0.7983 -0.7245
 3303SOL    HW210809   4.682   4.784   1.264  0.7711  2.6226 -0.0978
 3304SOL     OW10810   3.075   3.922   1.251  0.0190 -0.4629 -0.0424
 3304SOL    HW110811   2.982   3.887   1.264  0.4413 -2.1176 -1.1517
 3304SOL    HW210812   3.071   4.017   1.221 -1.3136 -0.4773  0.0101
 3305SOL     OW10813   4.069   2.702   6.550 -0.3293 -0.2989 -0.0425
 3305SOL    HW110814   4.060   2.602   6.551 -1.7760 -0.2154 -1.1506
 3305SOL    HW210815   3.979   2.744   6.559  0.3517  0.9497  1.3918
 3306SOL     OW10816   4.166   2.418   6.854  0.3021 -0.4220  0.1440
 3306SOL    HW110817   4.128   2.510   6.865  0.5622 -0.2463 -0.3861
 3306SOL    HW210818   4.158   2.390   6.759 -2.7033 -2.2434  0.8062
 3307SOL     OW10819   0.490   5.319   5.213 -0.4662  0.2337  0.6477
 3307SOL    HW110820   0.494   5.406   5.262 -0.0697 -0.1981  1.4010
 3307SOL    HW210821   0.405   5.272   5.237 -0.9951  0.6948 -0.2685
 3308SOL     OW10822   5.274   2.816   2.190  0.1819  0.5659  1.1857
 3308SOL    HW110823   5.188   2.860   2.212  0.4834  1.0763  1.3653
 3308SOL    HW210824   5.332   2.879   2.138 -0.0950 -0.2504 -0.1603
 3309SOL     OW10825   0.552   3.202   4.540 -0.3844  0.2154  0.7141
 3309SOL    HW110826   0.520   3.230   4.631 -3.0894  0.0975 -0.1106
 3309SOL    HW210827   0.495   3.245   4.470  1.3297 -0.0741 -0.9397
 3310SOL     OW10828   6.842   5.011   0.476  0.3888  0.5325  0.1606
 3310SOL    HW110829   6.793   5.029   0.391 -3.2070 -0.0186  1.9155
 3310SOL    HW210830   6.927   4.962   0.456  1.8925  4.0383 -3.3056
 3311SOL     OW10831   1.296   2.026   0.222 -0.0742  0.0820 -0.5323
 3311SOL    HW110832   1.293   2.029   0.122  1.2892 -0.0323 -0.5977
 3311SOL    HW210833   1.374   1.972   0.251 -0.6206 -0.1135  0.6082
 3312SOL     OW10834   5.227   3.896   5.391 -0.3801 -0.0152  0.1810
 3312SOL    HW110835   5.206   3.799   5.384 -0.1016 -0.0504 -0.2262
 3312SOL    HW210836   5.299   3.919   5.325  1.2504 -0.0212  1.8482
 3313SOL     OW10837   0.396   6.511   5.160  0.5034 -0.0563 -0.6162
 3313SOL    HW110838   0.456   6.514   5.240  0.0476 -0.4810 -0.2559
 3313SOL    HW210839   0.438   6.563   5.086  1.7277 -1.0413 -0.6496
 3314SOL     OW10840   2.101   6.059   3.422 -0.1909 -0.0680  0.0505
 3314SOL    HW110841   2.094   6.083   3.325 -0.7990  0.9011  0.3231
 3314SOL    HW210842   2.198   6.050   3.446 -0.0211 -2.9268 -1.2269
 3315SOL     OW10843   0.917   6.154   4.562  0.0719  0.4472  0.2077
 3315SOL    HW110844   0.876   6.199   4.642 -1.0328  0.0646 -0.1289
 3315SOL    HW210845   0.980   6.083   4.593 -1.2221 -0.4902  0.7574
 3316SOL     OW10846   3.725   2.443   0.420 -0.2907 -0.4067  0.6600
 3316SOL    HW110847   3.730   2.520   0.355 -1.6282 -1.8043 -1.2146
 3316SOL    HW210848   3.816   2.403   0.431  0.2593  0.8678  0.9859
 3317SOL     OW10849   0.609   0.778   1.734 -0.3924 -0.0599  0.0357
 3317SOL    HW110850   0.693   0.815   1.776  0.1546  0.7682 -1.7100
 3317SOL    HW210851   0.593   0.685   1.768  2.0577 -0.8076 -0.6529
 3318SOL     OW10852   4.645   4.089   0.032  0.3823 -0.3996 -0.0550
 3318SOL    HW110853   4.675   4.066  -0.060  0.4676 -2.1809  0.3929
 3318SOL    HW210854   4.599   4.011   0.074  0.9174  0.1399  1.6537
 3319SOL     OW10855   0.088   6.584   5.889 -0.1235 -0.4511  0.1752
 3319SOL    HW110856   0.045   6.494   5.890 -3.9310  1.1665 -0.0384
 3319SOL    HW210857   0.103   6.613   5.794  1.7810 -1.0607  0.2471
 3320SOL     OW10858   4.708   0.315   2.434 -0.2422  0.1168  0.7907
 3320SOL    HW110859   4.688   0.233   2.488 -1.4678 -0.7081 -0.8339
 3320SOL    HW210860   4.798   0.305   2.391 -0.4509 -0.4507  0.4791
 3321SOL     OW10861   4.288   0.977   4.863 -0.6363 -0.1359  0.4498
 3321SOL    HW110862   4.353   0.995   4.937  2.1702  3.1705 -2.4568
 3321SOL    HW210863   4.231   1.058   4.849 -1.4051 -0.8639 -0.7336
 3322SOL     OW10864   5.564   3.157   0.929  0.2022 -0.6713 -0.5331
 3322SOL    HW110865   5.484   3.098   0.917 -0.6311  0.4997 -1.0756
 3322SOL    HW210866   5.638   3.127   0.869  0.0540 -1.5847 -0.2614
 3323SOL     OW10867   5.317   0.905   1.710 -0.2195 -0.3255 -0.0421
 3323SOL    HW110868   5.331   0.927   1.613  0.2203  0.1188  0.1192
 3323SOL    HW210869   5.335   0.986   1.766  0.8703 -0.9205  0.5229
 3324SOL     OW10870   5.569   0.639   6.616  0.0589  0.5252  0.1685
 3324SOL    HW110871   5.585   0.571   6.544 -0.3482 -0.1824  0.7406
 3324SOL    HW210872   5.566   0.594   6.705 -0.4787  1.2553  0.5339
 3325SOL     OW10873   1.423   5.991   5.508  0.0923 -0.6703  0.4656
 3325SOL    HW110874   1.496   5.970   5.573  1.8005  1.2292 -0.7314
 3325SOL    HW210875   1.461   6.005   5.417 -2.0285 -1.4929 -0.6325
 3326SOL     OW10876   4.259   6.522   2.227 -0.3910  0.1506  0.2148
 3326SOL    HW110877   4.191   6.482   2.288  1.2702 -1.0889  1.3352
 3326SOL    HW210878   4.349   6.484   2.247  0.5168  1.0349 -1.8470
 3327SOL     OW10879   2.411   5.232   4.523  0.7735  0.0976 -0.2326
 3327SOL    HW110880   2.344   5.157   4.522  1.7028 -0.7750 -1.6621
 3327SOL    HW210881   2.433   5.255   4.618 -0.3713 -0.6592  0.2524
 3328SOL     OW10882   1.827   4.234   5.684 -0.2665 -0.5186 -0.1689
 3328SOL    HW110883   1.881   4.152   5.706  0.0456 -0.1391  0.5302
 3328SOL    HW210884   1.752   4.242   5.750 -0.8745 -0.7619 -0.8234
 3329SOL     OW10885   6.401   6.706   4.806 -0.2307 -0.4263  0.3142
 3329SOL    HW110886   6.438   6.799   4.812 -0.1554 -0.3546 -1.0443
 3329SOL    HW210887   6.323   6.697   4.869  0.1828  0.3401  0.9530
 3330SOL     OW10888   6.716   3.141   2.843  0.1959  0.4362  0.1112
 3330SOL    HW110889   6.642   3.074   2.849 -1.0692  1.7086 -0.4947
 3330SOL    HW210890   6.777   3.116   2.768 -1.7202  1.2663 -1.8270
 3331SOL     OW10891   2.603   4.451   0.652 -0.2388  0.0228 -0.3767
 3331SOL    HW110892   2.625   4.450   0.749 -2.7799 -0.4826  0.2466
 3331SOL    HW210893   2.657   4.380   0.606  0.1048 -0.5501  0.8629
 3332SOL     OW10894   6.993   5.426   0.365 -0.0895 -1.0462 -0.2581
 3332SOL    HW110895   6.997   5.382   0.455  1.2609 -1.4200 -0.4784
 3332SOL    HW210896   6.955   5.361   0.299 -0.1843 -1.1012 -0.1513
 3333SOL     OW10897   3.097   6.164   4.414  0.2806  0.5338 -0.2479
 3333SOL    HW110898   3.122   6.255   4.383  3.0262  1.3725  3.7436
 3333SOL    HW210899   3.026   6.170   4.485 -0.6146 -0.6339 -0.9907
 3334SOL     OW10900   1.459   3.060   2.674  0.1031  0.5292  0.2277
 3334SOL    HW110901   1.430   3.152   2.648 -0.6306  0.6334  1.3744
 3334SOL    HW210902   1.404   2.993   2.624  0.7290  0.6921 -0.7104
 3335SOL     OW10903   5.613   5.047   0.712  0.0748 -0.0901 -0.5583
 3335SOL    HW110904   5.705   5.073   0.743 -0.2727  0.4273  0.0545
 3335SOL    HW210905   5.620   4.973   0.645  0.7628 -2.3408  1.8591
 3336SOL     OW10906   3.754   0.031   5.028  0.4581 -0.1516  0.3631
 3336SOL    HW110907   3.696   0.107   4.999  0.1510  0.5127  2.4933
 3336SOL    HW210908   3.753  -0.041   4.958 -1.7099  0.4943 -0.3666
 3337SOL     OW10909   5.055   1.834   1.959 -0.1465 -0.1717 -0.2234
 3337SOL    HW110910   5.130   1.884   2.000  1.8870 -2.4166 -0.9697
 3337SOL    HW210911   5.000   1.790   2.030  0.4427 -0.1037  0.2765
 3338SOL     OW10912   5.993   5.476   6.761 -0.0124  0.6129  0.3864
 3338SOL    HW110913   6.030   5.568   6.772 -0.6200  0.9403 -0.2303
 3338SOL    HW210914   6.023   5.438   6.673  0.2889  0.1942  0.6667
 3339SOL     OW10915   1.634   0.105   0.553 -0.0565 -0.0985  0.2582
 3339SOL    HW110916   1.673   0.034   0.611 -0.5000  1.9327  3.2303
 3339SOL    HW210917   1.702   0.133   0.485  2.0488  0.1291  2.3269
 3340SOL     OW10918   3.895   6.121   1.426  0.2475  0.1989  0.3220
 3340SOL    HW110919   3.868   6.027   1.408  0.6070  0.5102 -2.1722
 3340SOL    HW210920   3.854   6.151   1.513 -0.7208 -1.8795  0.6586
 3341SOL     OW10921   1.090   1.388   6.906 -0.0875 -0.1372  0.5387
 3341SOL    HW110922   1.097   1.398   6.807 -0.1402  2.5370  0.7313
 3341SOL    HW210923   1.037   1.464   6.944 -0.2178 -1.1771  2.6353
 3342SOL     OW10924   2.495   0.351   5.184  0.0332  1.0235 -0.3169
 3342SOL    HW110925   2.583   0.347   5.137 -0.5514 -2.2910 -1.3663
 3342SOL    HW210926   2.421   0.334   5.119 -1.0981  0.1884  1.1161
 3343SOL     OW10927   1.750   2.816   0.611 -0.0135 -0.3088 -0.0126
 3343SOL    HW110928   1.750   2.914   0.631 -1.7374 -0.5465  1.4056
 3343SOL    HW210929   1.776   2.765   0.693  0.1179 -1.0817 -0.5234
 3344SOL     OW10930   6.979   1.960   0.283 -0.2002 -0.3563  0.4725
 3344SOL    HW110931   7.043   1.952   0.359 -1.0425 -0.3793  1.2016
 3344SOL    HW210932   6.904   2.022   0.308 -0.8838 -0.9434 -0.0458
 3345SOL     OW10933   5.390   5.043   0.043 -0.0856 -0.0855  0.0201
 3345SOL    HW110934   5.357   5.025   0.136  0.7133  0.4779  0.4249
 3345SOL    HW210935   5.312   5.060  -0.017 -0.5494  1.4033  0.9943
 3346SOL     OW10936   4.107   5.018   2.645  0.0076 -0.1967 -0.1017
 3346SOL    HW110937   4.191   5.023   2.698 -0.1046 -1.7588  0.2593
 3346SOL    HW210938   4.118   5.071   2.561  1.3188 -0.2772 -0.0054
 3347SOL     OW10939   0.263   2.592   2.077  0.0429 -0.1972  0.1213
 3347SOL    HW110940   0.271   2.537   1.994  0.2002  0.8797 -0.5846
 3347SOL    HW210941   0.349   2.640   2.094 -0.9694  2.1226 -0.9177
 3348SOL     OW10942   3.465   4.072   2.501 -0.4227 -0.6326  0.3586
 3348SOL    HW110943   3.559   4.078   2.468 -0.2819  2.2123  0.9903
 3348SOL    HW210944   3.402   4.100   2.429 -0.7110 -1.3675  0.3144
 3349SOL     OW10945   4.618   3.739   1.071  0.0857 -0.3494 -0.1463
 3349SOL    HW110946   4.531   3.769   1.109  0.2931  0.4215 -0.2614
 3349SOL    HW210947   4.631   3.642   1.090  0.0840 -0.0478  1.5538
 3350SOL     OW10948   2.787   4.078   0.931 -0.2153 -0.0103 -0.2434
 3350SOL    HW110949   2.710   4.045   0.986  1.6228 -3.1475  0.6774
 3350SOL    HW210950   2.768   4.064   0.834 -0.1930 -2.4259  0.0501
 3351SOL     OW10951   6.358   5.215   2.369 -0.9560 -0.1767 -0.2064
 3351SOL    HW110952   6.408   5.132   2.343 -0.5219 -1.4519  3.9243
 3351SOL    HW210953   6.423   5.290   2.381 -0.8460 -0.2216 -0.5195
 3352SOL     OW10954   6.500   4.760   0.999 -0.1301 -0.6294  0.1712
 3352SOL    HW110955   6.585   4.758   0.946 -0.9581 -1.1626 -1.2137
 3352SOL    HW210956   6.506   4.829   1.070  2.2774 -2.1642  1.5722
 3353SOL     OW10957   2.021   6.262   5.342  0.1712  0.1463 -0.3749
 3353SOL    HW110958   1.986   6.352   5.314 -0.4527  0.2074  0.5706
 3353SOL    HW210959   1.948   6.209   5.384 -0.2056 -1.8622 -3.2400
 3354SOL     OW10960   0.968   5.935   2.884  0.4701  0.2099  1.1514
 3354SOL    HW110961   0.977   5.872   2.807  2.7176  1.5205  0.2044
 3354SOL    HW210962   0.885   5.989   2.873  0.9424  0.6689 -0.6760
 3355SOL     OW10963   4.665   2.703   2.780  0.0267 -0.0318 -0.5434
 3355SOL    HW110964   4.581   2.717   2.833 -0.4213  1.8776 -1.6806
 3355SOL    HW210965   4.728   2.779   2.796  1.2937 -1.1085 -0.2337
 3356SOL     OW10966   1.801   4.438   0.675  0.1052 -0.0826 -0.0388
 3356SOL    HW110967   1.893   4.404   0.696  1.0318  2.0559 -0.3159
 3356SOL    HW210968   1.806   4.498   0.595 -1.2914  1.0819  0.6954
 3357SOL     OW10969   4.081   6.714   4.237  0.1565 -0.2447 -0.0014
 3357SOL    HW110970   4.125   6.791   4.191 -0.0875 -0.5224 -0.7204
 3357SOL    HW210971   4.005   6.681   4.181  0.5468 -1.3046  0.0635
 3358SOL     OW10972   6.439   1.094   2.918 -0.0731 -0.3975 -0.3403
 3358SOL    HW110973   6.464   0.999   2.899 -0.0277 -0.5043  0.2198
 3358SOL    HW210974   6.365   1.123   2.857 -1.3743 -1.3919  0.7103
 3359SOL     OW10975   2.965   1.631   1.543  0.4296 -0.0481  0.4109
 3359SOL    HW110976   3.056   1.599   1.519  0.2156 -0.5530  0.2487
 3359SOL    HW210977   2.903   1.618   1.466 -0.0976 -1.0221  0.9730
 3360SOL     OW10978   2.563   3.614   7.011  0.2020 -0.4428  0.2446
 3360SOL    HW110979   2.488   3.569   7.059 -0.5129  0.2052 -0.2326
 3360SOL    HW210980   2.559   3.592   6.913  0.5497 -0.2881  0.1926
 3361SOL     OW10981   1.181   1.331   3.029  0.5573 -0.2211 -0.2791
 3361SOL    HW110982   1.158   1.382   2.946 -0.1416 -0.2309 -0.0953
 3361SOL    HW210983   1.244   1.257   3.006  1.3708  0.5536 -0.5904
 3362SOL     OW10984   3.109   2.184   4.497  1.1197  1.1146  0.2525
 3362SOL    HW110985   3.208   2.169   4.496  0.9733 -0.0078 -0.8295
 3362SOL    HW210986   3.078   2.195   4.591  1.8995 -1.3519  0.8762
 3363SOL     OW10987   6.351   7.005   0.115  0.2294  0.2735  0.2714
 3363SOL    HW110988   6.448   6.980   0.114  0.7553  2.1474 -0.4111
 3363SOL    HW210989   6.318   7.012   0.021 -0.3911  0.2662  0.4860
 3364SOL     OW10990   1.334   4.609   4.728  0.0094  0.0111 -0.2211
 3364SOL    HW110991   1.314   4.640   4.821  0.1541 -0.2305 -0.1100
 3364SOL    HW210992   1.402   4.536   4.731 -0.5194 -0.4988 -0.4642
 3365SOL     OW10993   6.344   6.482   6.072  0.3016 -0.1366 -0.4885
 3365SOL    HW110994   6.440   6.467   6.051  0.2339 -0.3325 -0.6616
 3365SOL    HW210995   6.318   6.424   6.149  0.6428  0.8467  0.3909
 3366SOL     OW10996   3.592   2.197   0.452 -0.2748 -0.8771  0.1028
 3366SOL    HW110997   3.639   2.280   0.423 -1.0079 -0.2373  0.7344
 3366SOL    HW210998   3.627   2.168   0.541 -0.1169 -1.1805 -0.0539
 3367SOL     OW10999   2.412   0.670   3.210  0.0656  0.0709  0.0531
 3367SOL    HW111000   2.448   0.701   3.298  3.0453  0.0370 -1.0162
 3367SOL    HW211001   2.473   0.702   3.137 -0.4705 -2.6071 -1.6885
 3368SOL     OW11002   5.148   0.251   3.951 -0.3833 -0.0464  0.0366
 3368SOL    HW111003   5.113   0.235   4.044 -1.0753  1.1292 -0.0156
 3368SOL    HW211004   5.144   0.165   3.899  1.7954 -1.2375  1.6445
 3369SOL     OW11005   4.547   4.692   5.970  0.3472  0.4240  0.5651
 3369SOL    HW111006   4.499   4.638   5.901 -2.1653  0.7953  1.8978
 3369SOL    HW211007   4.597   4.766   5.926 -2.4787  1.6397 -0.8824
 3370SOL     OW11008   6.118   0.822   4.775 -0.1121  0.2819 -0.3656
 3370SOL    HW111009   6.094   0.822   4.678 -1.0621 -1.8720 -0.1815
 3370SOL    HW211010   6.038   0.795   4.830  0.9250 -0.4599  0.8454
 3371SOL     OW11011   0.602   5.604   1.117 -0.2134 -0.0809 -0.6721
 3371SOL    HW111012   0.560   5.600   1.208 -2.2617  0.9362 -1.5040
 3371SOL    HW211013   0.698   5.630   1.125  0.1987 -1.9485  1.3035
 3372SOL     OW11014   2.271   1.591   4.785  0.5922  0.2018  0.2696
 3372SOL    HW111015   2.206   1.528   4.743  0.3616  1.0197 -0.6449
 3372SOL    HW211016   2.333   1.626   4.715  3.0909 -1.7639  1.3810
 3373SOL     OW11017   1.043   1.233   0.908 -0.2080  0.3047 -0.0216
 3373SOL    HW111018   1.033   1.317   0.963 -0.1094  0.9126 -0.9150
 3373SOL    HW211019   1.015   1.252   0.814  1.1412 -0.2967 -0.5623
 3374SOL     OW11020   3.153   6.824   5.601 -0.6525  0.2848  0.2150
 3374SOL    HW111021   3.155   6.732   5.562 -0.6962  0.6390 -0.6449
 3374SOL    HW211022   3.061   6.863   5.591 -0.4850  0.6412  0.0481
 3375SOL     OW11023   3.371   6.676   4.299 -0.3873  0.1537 -0.2181
 3375SOL    HW111024   3.335   6.701   4.389  1.5547  0.8051  0.4374
 3375SOL    HW211025   3.300   6.685   4.230 -1.5218  1.1027  1.0324
 3376SOL     OW11026   2.213   2.130   1.223 -0.5876  0.0477  0.1842
 3376SOL    HW111027   2.281   2.119   1.296 -1.0512 -1.1501  0.4581
 3376SOL    HW211028   2.208   2.226   1.196  1.6597  0.0812 -0.2813
 3377SOL     OW11029   3.460   6.819   5.568  0.0748  0.0466  0.2530
 3377SOL    HW111030   3.453   6.828   5.469  1.7533 -3.0768 -0.2597
 3377SOL    HW211031   3.370   6.795   5.605  0.0284 -2.0002 -1.0244
 3378SOL     OW11032   0.523   1.700   6.931 -0.0894 -0.8096  0.3865
 3378SOL    HW111033   0.600   1.697   6.866  0.2288 -0.5634  0.7466
 3378SOL    HW211034   0.537   1.631   7.002 -0.6959 -1.4282 -0.0849
 3379SOL     OW11035   5.645   4.163   2.595  0.1851 -0.0210  0.5248
 3379SOL    HW111036   5.710   4.089   2.610  0.0011 -0.3342 -0.1756
 3379SOL    HW211037   5.557   4.139   2.635 -0.1699 -0.6485 -0.5750
 3380SOL     OW11038   1.571   3.531   4.541  0.3202  0.0622  0.2362
 3380SOL    HW111039   1.549   3.494   4.631 -0.2410  0.6411  0.3450
 3380SOL    HW211040   1.656   3.583   4.546  0.3529 -0.0070  0.4029
 3381SOL     OW11041   1.154   2.486   0.641  0.0146 -0.5534 -0.1523
 3381SOL    HW111042   1.068   2.442   0.666 -0.9329  0.7831 -0.9169
 3381SOL    HW211043   1.158   2.578   0.682  1.3042 -0.7789  0.2740
 3382SOL     OW11044   6.510   6.919   0.641  0.5301 -0.1342  0.7481
 3382SOL    HW111045   6.445   6.940   0.568 -0.7707  0.2382  1.9547
 3382SOL    HW211046   6.512   6.995   0.706  1.1439 -0.7366  1.4533
 3383SOL     OW11047   0.974   2.457   1.408  0.4686 -0.1767 -0.2085
 3383SOL    HW111048   0.952   2.363   1.381  1.3871 -0.3093 -0.5350
 3383SOL    HW211049   1.056   2.457   1.464  0.6904  0.4699 -0.5310
 3384SOL     OW11050   3.499   3.178   3.615 -0.4382  0.7795  0.7158
 3384SOL    HW111051   3.575   3.189   3.678 -0.6790  0.6062  1.0384
 3384SOL    HW211052   3.498   3.084   3.580 -0.7479  0.6654  1.0287
 3385SOL     OW11053   1.607   3.598   3.955  0.1075 -0.4780  0.2888
 3385SOL    HW111054   1.699   3.562   3.967  1.5007  2.7905  0.2527
 3385SOL    HW211055   1.576   3.640   4.040 -0.8198 -0.3565 -0.0984
 3386SOL     OW11056   6.413   5.540   3.231  0.1110  0.5707  0.3532
 3386SOL    HW111057   6.497   5.545   3.178  0.7400 -0.6521  1.1689
 3386SOL    HW211058   6.360   5.460   3.202  0.0646  0.3614  0.9913
 3387SOL     OW11059   3.294   1.651   2.722 -0.1274  0.4468  0.0877
 3387SOL    HW111060   3.235   1.693   2.653  0.7470 -0.8927 -1.5590
 3387SOL    HW211061   3.318   1.559   2.693 -1.1191 -0.8509  3.0702
 3388SOL     OW11062   0.386   1.283   1.240  0.2290 -0.3185  0.2563
 3388SOL    HW111063   0.378   1.216   1.313 -0.0031  0.2704  0.7763
 3388SOL    HW211064   0.322   1.261   1.167 -0.1054 -0.4515  0.5893
 3389SOL     OW11065   4.392   5.792   2.245 -0.5849  0.2418  0.4148
 3389SOL    HW111066   4.465   5.781   2.178 -0.9108 -0.1885  0.1199
 3389SOL    HW211067   4.304   5.767   2.203 -1.0206  1.5487  0.5060
 3390SOL     OW11068   4.140   0.971   4.234  0.4947 -0.0918 -0.2378
 3390SOL    HW111069   4.058   1.028   4.245  0.0817 -0.9988  1.9273
 3390SOL    HW211070   4.192   0.972   4.320  0.9417 -2.2354 -0.4316
 3391SOL     OW11071   2.586   0.771   4.329  0.2982 -0.7131 -0.0570
 3391SOL    HW111072   2.653   0.705   4.363  0.2093 -0.9130 -0.2682
 3391SOL    HW211073   2.633   0.847   4.285  0.4071 -0.5463  0.3494
 3392SOL     OW11074   4.756   0.062   4.363 -0.0733  0.6738  0.2025
 3392SOL    HW111075   4.767   0.028   4.457  0.9712 -0.0763 -0.1667
 3392SOL    HW211076   4.689   0.006   4.315 -0.5701  1.0260  0.4809
 3393SOL     OW11077   0.612   6.029   0.576 -0.0487 -0.4405  0.5253
 3393SOL    HW111078   0.523   6.001   0.613 -0.7851  0.9817 -0.0829
 3393SOL    HW211079   0.623   6.128   0.587  0.3221 -0.1760 -1.6983
 3394SOL     OW11080   4.675   6.805   1.616 -0.1493 -0.4105 -0.3643
 3394SOL    HW111081   4.580   6.787   1.641  0.4266 -1.2730  1.4475
 3394SOL    HW211082   4.711   6.728   1.563  0.3718 -1.5922  1.5970
 3395SOL     OW11083   0.782   1.609   5.593 -0.7179  0.2686 -0.0108
 3395SOL    HW111084   0.701   1.646   5.548  0.0860 -0.2415 -1.9724
 3395SOL    HW211085   0.864   1.636   5.543  0.3425  0.5518  1.7748
 3396SOL     OW11086   5.914   3.458   5.016 -0.1852 -0.2618 -0.3047
 3396SOL    HW111087   5.931   3.480   4.920  0.8241 -1.1519 -0.3467
 3396SOL    HW211088   5.985   3.500   5.073  0.7480 -1.9015 -0.2179
 3397SOL     OW11089   2.937   6.105   5.988  0.0191  0.2658  0.4137
 3397SOL    HW111090   2.856   6.098   6.046  0.4704 -0.3779  0.9867
 3397SOL    HW211091   2.912   6.144   5.899 -0.7095  1.1761  0.9953
 3398SOL     OW11092   6.654   2.389   4.092  0.3772 -0.1042  0.2999
 3398SOL    HW111093   6.588   2.321   4.126  0.1283 -0.7256 -1.3605
 3398SOL    HW211094   6.663   2.462   4.160  0.4979 -1.6640  2.0430
 3399SOL     OW11095   3.407   4.953   6.363  0.1889 -0.5359 -0.4265
 3399SOL    HW111096   3.448   4.883   6.421  1.3116 -1.0758 -1.7926
 3399SOL    HW211097   3.402   5.040   6.412  1.4916 -0.8636  0.3357
 3400SOL     OW11098   5.356   3.223   1.606  0.6031  0.2389 -0.0813
 3400SOL    HW111099   5.373   3.143   1.549  1.2565 -0.5034  1.1222
 3400SOL    HW211100   5.319   3.297   1.549  1.0074 -0.5442 -1.4088
 3401SOL     OW11101   6.924   3.736   0.061 -0.1724  0.6501  0.4962
 3401SOL    HW111102   6.871   3.817   0.085  1.1604  1.0586  2.2415
 3401SOL    HW211103   6.997   3.722   0.128  0.7992 -0.9421 -0.8007
 3402SOL     OW11104   3.709   4.954   2.381  0.0822 -0.0425 -0.3268
 3402SOL    HW111105   3.717   4.929   2.285  0.7974  0.3555 -0.3762
 3402SOL    HW211106   3.789   4.922   2.431  0.5126  1.2049 -0.1908
 3403SOL     OW11107   3.965   2.850   6.929  0.1815  0.4547 -0.3674
 3403SOL    HW111108   3.974   2.870   7.027 -0.3576 -0.2680 -0.1590
 3403SOL    HW211109   3.877   2.806   6.912  0.5478 -0.0260 -1.0736
 3404SOL     OW11110   2.578   6.285   1.443 -0.3198  0.1013 -0.2798
 3404SOL    HW111111   2.624   6.368   1.474 -0.0259 -0.2726  0.3208
 3404SOL    HW211112   2.580   6.217   1.517 -0.8707 -0.3107 -0.6379
 3405SOL     OW11113   5.655   3.849   1.586 -0.3615 -0.2662 -0.1185
 3405SOL    HW111114   5.751   3.824   1.577 -0.4604 -0.6994 -0.0216
 3405SOL    HW211115   5.646   3.948   1.588  0.2565 -0.2136  1.5179
 3406SOL     OW11116   0.216   1.057   2.184  0.0449  0.2555 -0.4116
 3406SOL    HW111117   0.301   1.065   2.132  0.5249 -0.9834  0.1409
 3406SOL    HW211118   0.237   1.046   2.281 -0.8016  1.0975 -0.1084
 3407SOL     OW11119   0.669   4.752   0.207  0.7464 -0.1937 -0.1556
 3407SOL    HW111120   0.647   4.849   0.220  1.6661  0.0345 -0.2713
 3407SOL    HW211121   0.735   4.724   0.276  0.7274 -0.6565 -0.3275
 3408SOL     OW11122   4.396   4.520   1.934  0.0183  0.4668 -0.4929
 3408SOL    HW111123   4.434   4.440   1.981  0.9775  1.4766  0.5211
 3408SOL    HW211124   4.300   4.503   1.912 -0.0457 -0.6214  0.5043
 3409SOL     OW11125   2.535   2.826   0.583 -0.1989  0.2992 -0.7030
 3409SOL    HW111126   2.579   2.886   0.649 -2.2150  1.8587 -0.6690
 3409SOL    HW211127   2.602   2.794   0.516  1.0300  2.2791 -0.4959
 3410SOL     OW11128   1.571   1.423   6.455 -0.5441  0.1847 -0.1045
 3410SOL    HW111129   1.630   1.363   6.510  1.1416  1.0750 -0.8542
 3410SOL    HW211130   1.585   1.402   6.358  1.8700  3.2119 -0.5549
 3411SOL     OW11131   4.058   1.916   1.910 -0.3790  0.3841  0.0975
 3411SOL    HW111132   4.078   1.850   1.837  0.4196  1.5225 -0.7411
 3411SOL    HW211133   4.141   1.934   1.962 -1.0381 -0.7672  1.6269
 3412SOL     OW11134   3.903   5.829   0.390 -0.2073 -0.0018 -0.2945
 3412SOL    HW111135   3.899   5.929   0.378 -1.0989  0.1452  0.9378
 3412SOL    HW211136   3.832   5.786   0.334 -1.3140  0.2794  0.8246
 3413SOL     OW11137   3.957   0.138   0.571  0.1729 -0.2752  0.1430
 3413SOL    HW111138   3.998   0.049   0.590  2.3972  0.6174 -0.2576
 3413SOL    HW211139   3.932   0.183   0.657  1.7202 -0.0973  0.5202
 3414SOL     OW11140   3.797   6.190   6.203  0.0488  0.5953 -0.0197
 3414SOL    HW111141   3.866   6.141   6.149  1.8357  0.8198  1.9608
 3414SOL    HW211142   3.840   6.266   6.251 -2.2229  2.7409 -1.1568
 3415SOL     OW11143   2.439   6.619   4.789  0.0324 -0.3628  0.1612
 3415SOL    HW111144   2.363   6.592   4.729  0.3066  0.3726 -0.5377
 3415SOL    HW211145   2.411   6.694   4.847 -1.1174 -2.7732  2.9669
 3416SOL     OW11146   1.260   5.517   6.400 -0.3469 -0.4488 -0.1915
 3416SOL    HW111147   1.278   5.606   6.442  1.9486 -1.2743  0.7815
 3416SOL    HW211148   1.269   5.446   6.470  0.4680 -1.6255 -1.4393
 3417SOL     OW11149   0.146   0.888   0.988  0.6219 -0.3455  0.1654
 3417SOL    HW111150   0.187   0.806   1.026  0.4633 -0.9280 -0.8626
 3417SOL    HW211151   0.215   0.940   0.937  0.3688 -0.6870 -0.5346
 3418SOL     OW11152   2.857   3.240   6.254  0.4063 -0.0263 -0.0625
 3418SOL    HW111153   2.772   3.284   6.285  0.0575 -1.3827  1.0033
 3418SOL    HW211154   2.845   3.206   6.161 -0.0738  0.1589 -0.0728
 3419SOL     OW11155   4.880   3.603   4.559 -0.1778 -0.4158 -0.0340
 3419SOL    HW111156   4.782   3.605   4.580 -0.2744 -1.6134 -0.2944
 3419SOL    HW211157   4.920   3.519   4.594  1.2696  1.0690  2.1149
 3420SOL     OW11158   1.920   6.450   4.535  0.2347  0.5965 -0.4948
 3420SOL    HW111159   1.870   6.536   4.546 -1.3016 -0.4384  1.0442
 3420SOL    HW211160   1.959   6.422   4.622 -0.3929 -0.8871 -0.6460
 3421SOL     OW11161   6.765   0.455   5.605 -0.1142 -0.1204  0.0531
 3421SOL    HW111162   6.757   0.356   5.596  0.7093 -0.2195  0.2917
 3421SOL    HW211163   6.715   0.500   5.531 -1.8115 -0.6622  0.8311
 3422SOL     OW11164   3.831   2.089   2.527  0.0457 -0.3435 -0.0692
 3422SOL    HW111165   3.770   2.164   2.552  1.3376  0.7553 -0.1310
 3422SOL    HW211166   3.868   2.105   2.435  1.3374 -0.3676  0.4300
 3423SOL     OW11167   2.916   1.894   1.344  0.3920  0.6156 -0.1936
 3423SOL    HW111168   2.891   1.937   1.431  0.6214  1.6125 -0.6156
 3423SOL    HW211169   3.014   1.905   1.328  0.3559  0.4055 -0.5745
 3424SOL     OW11170   3.375   1.764   1.505  0.4826  0.0710  0.0275
 3424SOL    HW111171   3.458   1.795   1.458 -0.7141  0.8851 -1.6677
 3424SOL    HW211172   3.320   1.843   1.530 -0.6495 -0.4936 -0.5834
 3425SOL     OW11173   3.770   3.198   2.369  0.5628 -0.0728 -0.4410
 3425SOL    HW111174   3.755   3.186   2.467  0.4579  2.1684 -0.1258
 3425SOL    HW211175   3.691   3.164   2.318 -0.6327  1.3017  0.4578
 3426SOL     OW11176   5.156   3.480   1.965 -0.6116 -0.0375  0.2078
 3426SOL    HW111177   5.104   3.503   2.048  0.8450 -0.9998  1.4396
 3426SOL    HW211178   5.111   3.404   1.918 -0.0657 -1.2576  1.5839
 3427SOL     OW11179   5.603   3.209   5.534 -0.1987  0.3682 -0.1242
 3427SOL    HW111180   5.508   3.205   5.562 -0.7940  1.8740 -1.7568
 3427SOL    HW211181   5.611   3.183   5.438  1.0865  0.0736  0.0330
 3428SOL     OW11182   4.989   4.882   4.957  0.2990  0.5052  0.2691
 3428SOL    HW111183   5.022   4.793   4.927  0.8606  0.6117  0.5642
 3428SOL    HW211184   4.917   4.869   5.025  0.6115  0.2785  0.5585
 3429SOL     OW11185   6.627   2.860   0.928 -0.5965  0.5658 -0.0915
 3429SOL    HW111186   6.596   2.779   0.977  0.0285  0.5135  0.2338
 3429SOL    HW211187   6.560   2.933   0.938 -0.7630  0.3576  0.3298
 3430SOL     OW11188   0.692   5.449   0.719 -0.3806  0.1198  0.2132
 3430SOL    HW111189   0.640   5.457   0.804 -1.9926 -1.2857 -0.5822
 3430SOL    HW211190   0.727   5.356   0.710 -0.6263  0.1182 -0.8671
 3431SOL     OW11191   0.208   6.775   6.349 -0.6728 -0.4718  0.1442
 3431SOL    HW111192   0.267   6.846   6.311 -0.9976  0.3493  1.1365
 3431SOL    HW211193   0.168   6.722   6.274  2.2318 -1.8700 -0.5715
 3432SOL     OW11194   2.855   3.916   5.860 -0.1654  0.0594 -0.0461
 3432SOL    HW111195   2.949   3.917   5.895  0.2024 -0.3315 -1.0031
 3432SOL    HW211196   2.856   3.912   5.760 -1.2090  1.0026 -0.1082
 3433SOL     OW11197   3.484   2.036   3.999 -0.5363 -0.0541  0.3688
 3433SOL    HW111198   3.426   2.072   3.926 -0.3986 -0.2524  0.1569
 3433SOL    HW211199   3.449   2.065   4.088 -0.1874  0.9610  0.1890
 3434SOL     OW11200   4.948   1.680   5.225 -0.6598  0.4222  0.1945
 3434SOL    HW111201   4.932   1.779   5.222  0.0370  0.5110 -0.9444
 3434SOL    HW211202   5.045   1.662   5.236 -0.3766 -0.1007 -2.4913
 3435SOL     OW11203   6.689   1.787   6.697  0.0842  0.4242  0.0578
 3435SOL    HW111204   6.719   1.882   6.711  1.2260  0.2487 -1.0990
 3435SOL    HW211205   6.600   1.787   6.652  1.1375  0.9819 -2.1322
 3436SOL     OW11206   4.188   0.713   4.275 -0.1946 -0.2222  0.0022
 3436SOL    HW111207   4.173   0.812   4.269  0.2380 -0.1408  0.2462
 3436SOL    HW211208   4.253   0.685   4.203 -0.8479 -0.4409 -0.5124
 3437SOL     OW11209   4.972   6.854   6.082  0.2711 -0.2317 -0.2973
 3437SOL    HW111210   5.023   6.790   6.025  0.8613 -0.9858  1.0488
 3437SOL    HW211211   4.887   6.880   6.035  0.8342 -0.6646 -1.5917
 3438SOL     OW11212   1.066   0.063   5.397  0.3403  0.2994 -0.5627
 3438SOL    HW111213   1.105   0.082   5.488  0.3630 -1.3306 -0.2147
 3438SOL    HW211214   0.990   0.126   5.380  1.1500  1.4776  0.0358
 3439SOL     OW11215   3.158   6.975   3.521  0.3038 -0.9647 -0.3025
 3439SOL    HW111216   3.246   7.013   3.492  1.1323 -1.4192  1.4695
 3439SOL    HW211217   3.097   7.049   3.548  0.8112 -0.7192  0.2032
 3440SOL     OW11218   3.984   3.894   5.932  0.3454  0.3107 -0.0931
 3440SOL    HW111219   3.908   3.839   5.967  0.3120 -0.6750 -1.6196
 3440SOL    HW211220   4.024   3.849   5.853  1.1381  1.8930 -0.6419
 3441SOL     OW11221   3.869   0.249   3.433 -0.1400  0.1823  0.6145
 3441SOL    HW111222   3.866   0.345   3.405  1.9523  0.7092  1.9898
 3441SOL    HW211223   3.924   0.197   3.368 -3.1243 -0.6730 -1.4314
 3442SOL     OW11224   0.617   5.193   0.308 -0.0560  0.3746 -0.2374
 3442SOL    HW111225   0.589   5.168   0.401  1.2037  0.4593  0.1898
 3442SOL    HW211226   0.640   5.290   0.304  0.2682  0.2911 -0.5326
 3443SOL     OW11227   1.576   0.476   5.408 -0.4025 -0.5683  0.0758
 3443SOL    HW111228   1.565   0.402   5.342  1.5144 -1.1316  0.3308
 3443SOL    HW211229   1.673   0.497   5.420 -0.8759  2.1155 -0.0895
 3444SOL     OW11230   2.925   6.518   5.000  0.7445  0.0746 -0.2150
 3444SOL    HW111231   2.861   6.540   4.927  0.3680  1.1724  0.4194
 3444SOL    HW211232   2.883   6.452   5.063 -0.1843  1.5142  0.7349
 3445SOL     OW11233   6.785   4.417   5.516  0.1711 -0.1361  0.4204
 3445SOL    HW111234   6.809   4.424   5.613 -2.6100 -0.3738  1.2173
 3445SOL    HW211235   6.713   4.483   5.495  1.0389  0.2321 -1.6505
 3446SOL     OW11236   3.628   3.931   0.562 -0.4802  0.1352 -0.3690
 3446SOL    HW111237   3.537   3.961   0.591  0.9454  1.7158  3.0218
 3446SOL    HW211238   3.675   3.888   0.640  1.6972 -0.6733 -2.0249
 3447SOL     OW11239   5.234   4.571   4.640  0.0104  0.2533  0.4058
 3447SOL    HW111240   5.181   4.600   4.560 -0.9114  0.1116  0.9485
 3447SOL    HW211241   5.285   4.649   4.676  1.6228  0.0035 -1.1720
 3448SOL     OW11242   3.713   3.037   5.811  0.1431  0.4547 -0.0652
 3448SOL    HW111243   3.707   3.102   5.886  0.3056  0.3599  0.0282
 3448SOL    HW211244   3.621   3.004   5.788 -0.1159  1.7859 -1.0472
 3449SOL     OW11245   4.654   4.816   3.094  0.0918 -0.8610  0.6217
 3449SOL    HW111246   4.610   4.899   3.128  0.6945  1.6371 -3.9577
 3449SOL    HW211247   4.740   4.801   3.144 -1.5194 -0.8065  3.7089
 3450SOL     OW11248   0.315   2.480   0.196 -0.9620 -0.0105 -0.1106
 3450SOL    HW111249   0.254   2.410   0.234  0.9004 -1.3887  0.4947
 3450SOL    HW211250   0.407   2.443   0.187 -0.3280  1.7600 -1.7147
 3451SOL     OW11251   3.348   5.623   3.696 -0.1780 -0.0949 -0.6444
 3451SOL    HW111252   3.260   5.665   3.673 -1.4217 -1.4359  1.3969
 3451SOL    HW211253   3.422   5.688   3.675 -1.8346  2.2566  0.2821
 3452SOL     OW11254   6.128   2.277   6.538  0.4112 -0.3138  0.2142
 3452SOL    HW111255   6.123   2.192   6.487  0.2360 -0.5913  0.6876
 3452SOL    HW211256   6.047   2.285   6.597  0.3523  0.2456  0.0685
 3453SOL     OW11257   5.480   4.806   6.509  0.5472  0.0505 -0.1752
 3453SOL    HW111258   5.410   4.759   6.456 -0.2369  1.7456 -0.7011
 3453SOL    HW211259   5.547   4.739   6.543 -1.0690 -1.5621 -0.0058
 3454SOL     OW11260   0.060   6.503   1.223  0.6364  0.0049 -0.1304
 3454SOL    HW111261   0.109   6.523   1.137 -0.8196  1.7816 -0.6113
 3454SOL    HW211262   0.086   6.571   1.292  0.8215 -0.6419  0.4434
 3455SOL     OW11263   1.046   3.092   5.585 -0.2825  0.0340  0.3118
 3455SOL    HW111264   1.060   3.185   5.617  0.6556  0.2878 -0.7720
 3455SOL    HW211265   1.116   3.068   5.518 -0.6779 -1.3561  0.3503
 3456SOL     OW11266   6.610   6.214   5.960  0.0095 -0.1255 -0.9132
 3456SOL    HW111267   6.692   6.160   5.940  0.2491  0.5284 -1.7861
 3456SOL    HW211268   6.637   6.299   6.006 -0.4694 -1.2423  1.5579
 3457SOL     OW11269   0.186   0.359   4.179 -0.3833  0.3011  0.4787
 3457SOL    HW111270   0.149   0.342   4.270 -2.3916  0.7249 -0.2147
 3457SOL    HW211271   0.114   0.394   4.119  1.0288  0.6193 -1.1267
 3458SOL     OW11272   4.346   4.165   6.392 -0.6523  0.5338  0.1505
 3458SOL    HW111273   4.287   4.211   6.459  0.3667  1.2797  0.5498
 3458SOL    HW211274   4.423   4.224   6.369 -1.3316  0.5875 -2.2246
 3459SOL     OW11275   6.545   5.741   3.404 -0.1584 -0.2425  0.3780
 3459SOL    HW111276   6.516   5.753   3.498  0.0021 -0.7243  0.4908
 3459SOL    HW211277   6.488   5.671   3.360 -0.5824  0.3528 -0.0425
 3460SOL     OW11278   5.037   4.028   0.725  0.0279  0.4546 -0.2697
 3460SOL    HW111279   5.076   4.097   0.785  0.7548 -0.8247  0.7870
 3460SOL    HW211280   5.027   4.065   0.633 -1.8421  2.7333  0.7414
 3461SOL     OW11281   2.690   5.136   1.724 -0.4932  0.5537  0.1295
 3461SOL    HW111282   2.759   5.069   1.755  0.8270  1.3743 -0.9195
 3461SOL    HW211283   2.603   5.089   1.710  0.2267 -0.8327  0.0268
 3462SOL     OW11284   6.302   2.386   4.108  0.0526 -0.4191  0.2795
 3462SOL    HW111285   6.205   2.410   4.113 -0.0990 -0.9704  0.0451
 3462SOL    HW211286   6.317   2.319   4.035  0.3307 -1.6897  1.4440
 3463SOL     OW11287   1.184   3.755   2.056  0.1838 -0.2974 -0.6119
 3463SOL    HW111288   1.185   3.696   1.976 -0.9738  0.6148 -1.3439
 3463SOL    HW211289   1.174   3.850   2.027  0.7528  0.1580  0.5865
 3464SOL     OW11290   4.033   1.665   0.256  0.1685 -0.1196  0.5025
 3464SOL    HW111291   4.052   1.590   0.319 -0.3187  0.2522  1.1000
 3464SOL    HW211292   4.037   1.631   0.162 -0.9606 -1.1117  0.7830
 3465SOL     OW11293   2.469   5.273   0.578  0.5455 -0.2586 -0.0770
 3465SOL    HW111294   2.424   5.355   0.543 -2.0114 -0.6694  1.9571
 3465SOL    HW211295   2.421   5.191   0.544 -0.1030 -0.7265  1.8599
 3466SOL     OW11296   6.025   5.165   6.171  0.0863 -0.3507  0.1109
 3466SOL    HW111297   5.960   5.089   6.174 -0.9231  0.5052  0.2070
 3466SOL    HW211298   6.118   5.129   6.182 -0.3045 -1.6536 -0.5945
 3467SOL     OW11299   4.791   3.985   1.054  0.2292  0.4518  0.4362
 3467SOL    HW111300   4.742   4.037   0.983 -0.7058 -0.0634  0.6880
 3467SOL    HW211301   4.745   3.898   1.069  2.9715 -1.4913 -1.5309
 3468SOL     OW11302   3.894   0.988   1.597  0.2253  0.9187  0.1097
 3468SOL    HW111303   3.893   0.934   1.682  1.2819  0.2272 -0.2973
 3468SOL    HW211304   3.902   0.926   1.519 -1.9335  1.4596 -0.6087
 3469SOL     OW11305   3.166   0.170   5.920  0.4024  0.1991 -0.3067
 3469SOL    HW111306   3.075   0.181   5.959  0.8686  1.0351  0.5776
 3469SOL    HW211307   3.159   0.149   5.822 -0.7559 -0.9386  0.0006
 3470SOL     OW11308   2.014   2.969   0.799 -0.2971 -0.4272 -0.0791
 3470SOL    HW111309   2.088   2.971   0.866 -1.7958  2.1104  1.6938
 3470SOL    HW211310   1.955   2.891   0.818  0.3377 -0.8217  0.3383
 3471SOL     OW11311   3.552   4.994   2.982 -0.4774  0.0962  0.2615
 3471SOL    HW111312   3.491   4.930   3.030  1.3219 -3.3685 -1.6218
 3471SOL    HW211313   3.520   5.007   2.888  0.2969  0.2613  0.0096
 3472SOL     OW11314   4.167   1.175   3.156 -0.1971 -0.0806  0.0832
 3472SOL    HW111315   4.162   1.214   3.064  1.9593 -0.3015 -0.1890
 3472SOL    HW211316   4.165   1.075   3.150 -0.5271 -0.0902  0.3245
 3473SOL     OW11317   6.716   5.725   0.600 -0.6909 -0.2979  0.1384
 3473SOL    HW111318   6.780   5.691   0.668  0.1950  0.7243 -0.1611
 3473SOL    HW211319   6.631   5.753   0.645  0.0649  0.8308  0.9264
 3474SOL     OW11320   5.574   4.322   3.918  0.0545  0.6362  0.2204
 3474SOL    HW111321   5.490   4.371   3.897 -0.4889 -0.4150 -0.1120
 3474SOL    HW211322   5.620   4.366   3.995  0.0980  2.2505 -0.6877
 3475SOL     OW11323   2.506   4.780   2.733  0.4909 -0.1753 -0.0772
 3475SOL    HW111324   2.553   4.716   2.671  0.7474 -0.8605  0.8086
 3475SOL    HW211325   2.411   4.751   2.744  0.9323 -1.1977  1.3382
 3476SOL     OW11326   0.885   3.409   3.472  0.0301 -0.0188  0.0957
 3476SOL    HW111327   0.816   3.339   3.459 -0.3199  0.3898 -0.2984
 3476SOL    HW211328   0.881   3.475   3.397 -1.4652  1.9290  1.7520
 3477SOL     OW11329   0.558   4.538   1.848 -0.0331 -0.0840  0.8953
 3477SOL    HW111330   0.572   4.552   1.750  0.4297  0.0543  0.9793
 3477SOL    HW211331   0.463   4.514   1.865 -0.3109  0.6912  0.4977
 3478SOL     OW11332   1.976   1.605   0.843  0.1977 -0.5140  0.0779
 3478SOL    HW111333   2.009   1.517   0.877 -0.7367 -1.2423 -0.8363
 3478SOL    HW211334   1.892   1.630   0.892 -0.9895 -1.4254 -1.4092
 3479SOL     OW11335   0.695   3.435   4.805 -0.2787 -0.1942 -0.1046
 3479SOL    HW111336   0.747   3.455   4.722 -1.2924 -3.1140 -1.5518
 3479SOL    HW211337   0.703   3.513   4.868  1.4168  1.6687 -2.4233
 3480SOL     OW11338   1.213   3.772   6.188  0.0915 -0.3457  0.1380
 3480SOL    HW111339   1.260   3.817   6.112 -0.6586  0.0706 -0.0889
 3480SOL    HW211340   1.281   3.741   6.255  0.9310 -2.2395 -1.4711
 3481SOL     OW11341   5.620   1.233   4.388 -0.0764  0.1231  0.0418
 3481SOL    HW111342   5.607   1.279   4.300  2.4029 -1.2868 -1.1930
 3481SOL    HW211343   5.560   1.153   4.393 -0.8213  0.6770 -0.0010
 3482SOL     OW11344   6.005   3.906   6.166 -0.1342  0.6050  0.1522
 3482SOL    HW111345   5.982   3.854   6.248  2.0193  0.3258  0.6397
 3482SOL    HW211346   6.004   4.004   6.187 -1.4247  0.6519 -0.0259
 3483SOL     OW11347   5.634   1.159   3.259  0.1120  0.0404 -0.4491
 3483SOL    HW111348   5.732   1.142   3.258  0.1442  0.2055 -0.2436
 3483SOL    HW211349   5.589   1.090   3.316  0.1612  0.2353 -0.1747
 3484SOL     OW11350   6.656   1.781   4.774 -0.2712  0.1565  0.2730
 3484SOL    HW111351   6.571   1.794   4.826 -0.3562  1.0263 -0.0715
 3484SOL    HW211352   6.637   1.724   4.694 -0.7372  1.0450 -0.2717
 3485SOL     OW11353   6.984   3.432   6.476  0.2583 -0.7084  1.3388
 3485SOL    HW111354   6.906   3.378   6.444 -0.8206  0.6450  1.5480
 3485SOL    HW211355   7.067   3.404   6.429 -0.4112 -1.9722  0.8719
 3486SOL     OW11356   0.182   1.094   3.496 -0.2109  0.5255 -0.7118
 3486SOL    HW111357   0.101   1.140   3.459  0.6369  0.4911 -2.7834
 3486SOL    HW211358   0.265   1.140   3.463  0.6597 -1.8326 -2.0975
 3487SOL     OW11359   3.865   1.846   5.804  0.1484  0.1146 -0.0638
 3487SOL    HW111360   3.870   1.944   5.784 -0.7722 -0.2181 -2.1911
 3487SOL    HW211361   3.957   1.807   5.800  0.6945  1.0637  2.0275
 3488SOL     OW11362   3.902   5.535   6.420 -0.1888  0.9224  0.0845
 3488SOL    HW111363   3.817   5.585   6.435 -0.4440  0.3837  0.4927
 3488SOL    HW211364   3.970   5.596   6.380 -0.9021  1.2411 -0.6624
 3489SOL     OW11365   2.621   0.609   6.806  0.1240  0.5714  0.2874
 3489SOL    HW111366   2.607   0.544   6.732 -0.8458  0.6226  0.4060
 3489SOL    HW211367   2.640   0.560   6.891 -2.2167  0.3237  0.7272
 3490SOL     OW11368   3.718   5.504   6.654  0.2266 -0.6461 -0.2188
 3490SOL    HW111369   3.685   5.443   6.582  0.9151 -1.1360 -0.1317
 3490SOL    HW211370   3.812   5.479   6.678  0.7425  0.8290 -0.5968
 3491SOL     OW11371   4.523   1.626   6.562 -0.1538 -0.0182 -0.2093
 3491SOL    HW111372   4.467   1.685   6.504 -0.5244  1.0793  1.2308
 3491SOL    HW211373   4.612   1.613   6.518 -0.3665  0.9094 -0.9557
 3492SOL     OW11374   5.625   6.092   2.423  0.4259  0.2861 -0.3313
 3492SOL    HW111375   5.689   6.017   2.407  0.4289  0.2520 -0.1672
 3492SOL    HW211376   5.652   6.142   2.505  0.3350  0.3709 -0.3524
 3493SOL     OW11377   1.222   4.319   0.729 -0.9358 -0.3792  0.1862
 3493SOL    HW111378   1.252   4.302   0.636  1.4926  2.1464  0.3428
 3493SOL    HW211379   1.159   4.397   0.730 -0.8429 -0.3044  0.6451
 3494SOL     OW11380   2.667   0.713   2.388  0.1631  0.3530 -0.4872
 3494SOL    HW111381   2.659   0.629   2.442 -1.0162  1.0783  0.5240
 3494SOL    HW211382   2.706   0.691   2.299  3.9317 -0.6641  1.2019
 3495SOL     OW11383   2.067   3.720   3.905  0.0751 -0.1271  0.5590
 3495SOL    HW111384   2.092   3.624   3.903 -0.0512 -0.1533  0.0971
 3495SOL    HW211385   2.108   3.767   3.827 -3.0006 -0.6056 -1.5430
 3496SOL     OW11386   5.553   5.853   1.384 -0.1717 -0.0149 -0.6933
 3496SOL    HW111387   5.580   5.791   1.458 -0.9263 -1.1301 -1.3178
 3496SOL    HW211388   5.482   5.915   1.416 -0.8916 -0.8624 -0.6199
 3497SOL     OW11389   3.440   7.009   1.406  0.3523  0.0735  0.3375
 3497SOL    HW111390   3.393   7.092   1.436 -1.2418  0.3881 -2.6452
 3497SOL    HW211391   3.539   7.022   1.416  0.1251  2.0621  0.5480
 3498SOL     OW11392   2.967   2.270   1.455  1.0333 -0.4103 -0.0535
 3498SOL    HW111393   2.869   2.250   1.463  0.4488  1.7258 -1.0232
 3498SOL    HW211394   3.009   2.263   1.546 -0.4400  0.4334  0.7493
 3499SOL     OW11395   6.451   0.699   6.273 -0.0016  0.0704  0.1744
 3499SOL    HW111396   6.506   0.615   6.265 -0.0593 -0.0989  1.4247
 3499SOL    HW211397   6.482   0.765   6.204  0.7870 -0.5631 -0.1043
 3500SOL     OW11398   3.029   0.094   3.850  0.3132  0.4722  0.3017
 3500SOL    HW111399   3.097   0.099   3.924  1.7463 -0.2616 -0.9221
 3500SOL    HW211400   3.051   0.163   3.781 -1.2496  1.4206  0.6900
 3501SOL     OW11401   1.452   6.647   5.884  0.4290 -0.0039  0.4016
 3501SOL    HW111402   1.455   6.550   5.907 -0.3735  0.2591  1.7549
 3501SOL    HW211403   1.501   6.663   5.798 -3.2641 -2.2944 -2.4521
 3502SOL     OW11404   4.699   1.498   2.361 -0.5625  0.1907  0.2554
 3502SOL    HW111405   4.779   1.439   2.347 -0.5867 -1.3340  4.7909
 3502SOL    HW211406   4.722   1.570   2.426 -2.5234  0.5160  0.6471
 3503SOL     OW11407   0.809   3.960   6.464 -0.1602 -0.1332 -0.1684
 3503SOL    HW111408   0.900   4.002   6.460  0.4496 -1.3740  0.3327
 3503SOL    HW211409   0.818   3.861   6.475 -1.5807 -0.2812 -0.1712
 3504SOL     OW11410   6.995   2.540   0.520 -0.1937 -0.3043 -0.4439
 3504SOL    HW111411   6.924   2.575   0.458  0.9043 -1.8067 -2.6892
 3504SOL    HW211412   6.956   2.469   0.579 -0.9059 -0.0070 -0.5435
 3505SOL     OW11413   6.515   2.388   1.425 -0.1217  0.1986 -0.2487
 3505SOL    HW111414   6.614   2.382   1.414 -0.0888  0.5596 -0.1436
 3505SOL    HW211415   6.494   2.423   1.516 -0.3744 -1.4829  0.3820
 3506SOL     OW11416   4.196   4.411   5.321 -0.4739  0.3344 -0.1859
 3506SOL    HW111417   4.116   4.471   5.324 -1.6680 -1.0338 -1.8452
 3506SOL    HW211418   4.256   4.439   5.246  0.2970  0.9747  0.6567
 3507SOL     OW11419   3.504   3.187   6.423 -0.4683  0.1288  0.6910
 3507SOL    HW111420   3.425   3.154   6.475 -1.1658 -1.3245 -1.1971
 3507SOL    HW211421   3.586   3.182   6.481 -1.6793  1.6602  2.6916
 3508SOL     OW11422   5.010   6.755   6.356 -0.3687  0.3714  0.4998
 3508SOL    HW111423   4.960   6.802   6.283  1.1235  1.8909  0.4136
 3508SOL    HW211424   4.952   6.748   6.437 -1.4863  0.0794 -0.2963
 3509SOL     OW11425   3.583   5.211   0.620  0.1738 -0.2017 -0.3305
 3509SOL    HW111426   3.605   5.139   0.686  1.2523  0.8837  0.5404
 3509SOL    HW211427   3.540   5.288   0.668 -0.2667  0.0581 -1.1223
 3510SOL     OW11428   0.852   1.113   2.784  0.6690 -0.2751  0.5344
 3510SOL    HW111429   0.774   1.084   2.839  0.0476  0.2791 -0.0553
 3510SOL    HW211430   0.849   1.211   2.770 -1.1674 -0.7172 -3.4197
 3511SOL     OW11431   5.368   4.817   2.842 -0.8283  0.4899 -0.7088
 3511SOL    HW111432   5.313   4.760   2.782 -3.8015  1.0271  1.3014
 3511SOL    HW211433   5.387   4.768   2.927  0.3508  0.9693 -0.6737
 3512SOL     OW11434   1.196   5.961   5.363 -0.1972  0.2404 -0.1642
 3512SOL    HW111435   1.147   6.044   5.389  0.9621  0.8612  0.1191
 3512SOL    HW211436   1.254   5.932   5.439  0.4684 -0.0262 -0.7676
 3513SOL     OW11437   5.643   6.803   2.535 -0.2566  0.2623 -0.2612
 3513SOL    HW111438   5.706   6.859   2.482  0.2358  0.6163  0.6771
 3513SOL    HW211439   5.649   6.708   2.504 -1.3125  0.7311 -2.0611
 3514SOL     OW11440   4.082   2.500   1.653 -0.6553  0.6862 -0.2366
 3514SOL    HW111441   3.996   2.452   1.640 -1.1764  1.6897 -0.6228
 3514SOL    HW211442   4.158   2.435   1.650 -1.2367  0.0446 -2.0453
 3515SOL     OW11443   0.587   3.775   3.219  0.0359 -0.7327  0.4909
 3515SOL    HW111444   0.576   3.831   3.136 -2.4829 -0.6441  0.7894
 3515SOL    HW211445   0.641   3.825   3.286 -0.0775  0.3106 -0.1728
 3516SOL     OW11446   4.638   6.359   2.404 -0.3037 -0.2702  0.5538
 3516SOL    HW111447   4.590   6.305   2.335 -0.3662 -0.0404  0.4152
 3516SOL    HW211448   4.693   6.430   2.360 -0.7275  0.1899  0.7522
 3517SOL     OW11449   4.382   3.250   1.097 -0.0122 -0.3829 -0.1206
 3517SOL    HW111450   4.412   3.201   1.179  0.5344 -1.9539 -1.2253
 3517SOL    HW211451   4.375   3.187   1.020 -0.6255  1.0319 -1.2851
 3518SOL     OW11452   0.287   1.610   3.993 -0.2189 -0.1122 -0.6770
 3518SOL    HW111453   0.383   1.607   3.964 -0.5638 -2.8302 -1.7841
 3518SOL    HW211454   0.283   1.609   4.093  0.9508 -1.4241 -0.6065
 3519SOL     OW11455   3.674   2.819   1.255 -0.7843  0.2620  0.2016
 3519SOL    HW111456   3.704   2.810   1.350  1.2826  1.1742 -0.3059
 3519SOL    HW211457   3.631   2.909   1.242 -0.2573  0.5017  0.0897
 3520SOL     OW11458   3.455   6.928   4.164 -0.3153 -0.4913  0.2280
 3520SOL    HW111459   3.427   6.866   4.090 -2.3614  0.7972 -0.1804
 3520SOL    HW211460   3.420   6.894   4.251  0.4180 -1.0008  0.3304
 3521SOL     OW11461   1.931   3.669   6.092  0.4112 -0.5246 -0.1530
 3521SOL    HW111462   1.863   3.684   6.164 -2.6780 -0.3194 -2.8620
 3521SOL    HW211463   1.990   3.749   6.085  0.1956 -0.1814  1.4882
 3522SOL     OW11464   0.737   4.274   5.586  0.1700  0.3999  0.4871
 3522SOL    HW111465   0.675   4.197   5.568 -0.1918  0.7710  0.1143
 3522SOL    HW211466   0.801   4.249   5.659  0.8002 -0.6602 -0.4128
 3523SOL     OW11467   3.825   5.713   0.647 -0.2787 -0.1800  0.0583
 3523SOL    HW111468   3.836   5.764   0.562  1.0594 -0.2429  0.1647
 3523SOL    HW211469   3.825   5.777   0.724 -0.6373 -0.1894  0.0676
 3524SOL     OW11470   4.571   2.525   4.121  0.2098  0.1427  0.1407
 3524SOL    HW111471   4.586   2.587   4.044 -0.4420 -0.0761 -0.1679
 3524SOL    HW211472   4.618   2.439   4.104 -1.1088 -0.4408 -0.6966
 3525SOL     OW11473   0.636   2.153   2.523  0.1400  0.0500  0.0786
 3525SOL    HW111474   0.646   2.141   2.424  1.4642  1.9073 -0.0676
 3525SOL    HW211475   0.651   2.065   2.569 -1.7888 -1.1203 -1.4020
 3526SOL     OW11476   0.769   5.622   0.102  0.3927  0.4459 -0.4478
 3526SOL    HW111477   0.834   5.696   0.120  0.4245  0.1156  0.8833
 3526SOL    HW211478   0.803   5.564   0.028  0.7245  1.3184 -0.9982
 3527SOL     OW11479   5.748   1.964   6.868  0.0769  0.4575 -0.6284
 3527SOL    HW111480   5.686   1.903   6.818  1.6995 -0.0511 -2.1503
 3527SOL    HW211481   5.793   1.913   6.942 -1.0846  0.7585  0.3068
 3528SOL     OW11482   2.173   5.498   4.245  0.8207  0.3290  0.8908
 3528SOL    HW111483   2.100   5.490   4.178  0.9333  3.0755  0.3230
 3528SOL    HW211484   2.261   5.502   4.198  1.1710 -0.7801  1.4282
 3529SOL     OW11485   4.577   4.778   6.596 -0.4252 -0.5757  0.1974
 3529SOL    HW111486   4.587   4.679   6.582  0.7790 -0.4747  0.2902
 3529SOL    HW211487   4.481   4.803   6.582 -0.7197 -1.7262  0.0008
 3530SOL     OW11488   6.559   0.882   6.091 -0.1068  0.6303  0.7225
 3530SOL    HW111489   6.503   0.864   6.009  2.2529  1.3282 -1.1545
 3530SOL    HW211490   6.647   0.835   6.082 -0.0300  0.1731  3.2267
 3531SOL     OW11491   5.195   1.876   0.454  0.4606  0.5393  0.0098
 3531SOL    HW111492   5.156   1.934   0.525  2.1381  0.4038  1.1127
 3531SOL    HW211493   5.228   1.791   0.495  1.0232  0.2497 -1.0160
 3532SOL     OW11494   2.500   0.509   2.153  0.1652  0.3103 -0.1402
 3532SOL    HW111495   2.573   0.450   2.188  0.6961  0.2726 -1.2691
 3532SOL    HW211496   2.534   0.603   2.145 -0.2709  0.5176  0.4127
 3533SOL     OW11497   1.439   2.566   3.679 -0.4213 -0.1645 -0.4855
 3533SOL    HW111498   1.390   2.639   3.633 -0.2629 -0.1180 -0.5823
 3533SOL    HW211499   1.519   2.603   3.726  0.0725 -0.3719 -1.1399
 3534SOL     OW11500   1.787   1.100   0.196 -0.3938 -0.2950 -0.3683
 3534SOL    HW111501   1.697   1.079   0.234 -0.8795 -2.5710 -2.4915
 3534SOL    HW211502   1.857   1.075   0.262 -1.2517 -1.5140  0.1233
 3535SOL     OW11503   3.690   6.196   2.982 -0.1684 -0.4015 -0.2188
 3535SOL    HW111504   3.736   6.262   2.922  1.3518  0.9903  2.3143
 3535SOL    HW211505   3.593   6.193   2.959  0.1443  0.9039 -1.9859
 3536SOL     OW11506   5.756   0.837   1.979 -0.3895  0.5522 -0.5601
 3536SOL    HW111507   5.810   0.753   1.975  0.3929  1.0783 -1.8040
 3536SOL    HW211508   5.663   0.819   1.947 -0.3420  0.0984 -0.4537
 3537SOL     OW11509   1.722   6.862   0.632  0.1807 -0.3416  0.0959
 3537SOL    HW111510   1.806   6.842   0.582  0.3803  0.0603  0.2708
 3537SOL    HW211511   1.660   6.784   0.624  0.5383 -0.6107 -0.0937
 3538SOL     OW11512   3.116   5.810   0.618 -0.0976  0.1782 -0.5979
 3538SOL    HW111513   3.167   5.726   0.601  0.1789  0.1636  0.2621
 3538SOL    HW211514   3.175   5.876   0.664 -0.6595  0.4130 -0.2044
 3539SOL     OW11515   3.050   3.906   4.153 -0.5390  0.8331 -0.2088
 3539SOL    HW111516   3.079   3.980   4.215 -2.8422  1.6259  0.0087
 3539SOL    HW211517   3.021   3.946   4.066  0.2649 -0.0601 -0.9075
 3540SOL     OW11518   1.679   2.543   5.082 -0.0104  0.5555  0.2129
 3540SOL    HW111519   1.761   2.574   5.035  0.3681 -1.8443 -0.8627
 3540SOL    HW211520   1.598   2.570   5.029  0.2101  1.0844  0.1482
 3541SOL     OW11521   3.706   4.544   5.492  0.5214  0.1593 -0.4253
 3541SOL    HW111522   3.695   4.500   5.403  0.7561 -1.6103  0.3738
 3541SOL    HW211523   3.697   4.476   5.564 -0.4815  1.6887  0.9695
 3542SOL     OW11524   6.543   7.017   2.757  0.1674 -0.3667  0.0048
 3542SOL    HW111525   6.636   6.993   2.727  0.2484 -0.9239  0.6586
 3542SOL    HW211526   6.492   7.057   2.681  1.1431  0.5334 -0.1980
 3543SOL     OW11527   5.377   3.549   4.203 -0.6455 -0.3708 -0.0198
 3543SOL    HW111528   5.362   3.629   4.261  1.7614 -0.0805  0.3041
 3543SOL    HW211529   5.385   3.578   4.107 -2.4040 -0.5926 -0.2722
 3544SOL     OW11530   2.933   0.786   0.532  0.0310  0.0370  0.1932
 3544SOL    HW111531   2.996   0.708   0.539  0.4350  0.4206  0.9554
 3544SOL    HW211532   2.884   0.797   0.619  0.5325  1.0842  0.3612
 3545SOL     OW11533   2.391   4.901   6.871 -0.0969  0.0711 -0.0416
 3545SOL    HW111534   2.322   4.842   6.912  0.4255 -0.2495  0.3898
 3545SOL    HW211535   2.352   4.950   6.793 -0.5353 -0.8615 -0.4203
 3546SOL     OW11536   1.306   4.969   2.201  0.0863 -0.3767 -0.2294
 3546SOL    HW111537   1.249   5.046   2.229 -0.8760 -1.1994  0.1351
 3546SOL    HW211538   1.249   4.888   2.190  1.0805 -1.0370 -0.6277
 3547SOL     OW11539   5.475   6.148   4.481  0.1908 -0.1160 -0.0725
 3547SOL    HW111540   5.531   6.223   4.446 -0.1980  0.2837  0.1440
 3547SOL    HW211541   5.378   6.167   4.463  0.1339 -0.8867 -0.6038
 3548SOL     OW11542   4.929   2.639   5.554 -0.4342  0.1987  0.1018
 3548SOL    HW111543   4.931   2.559   5.614  0.1902 -0.5032 -0.8309
 3548SOL    HW211544   4.834   2.670   5.545 -0.7331 -0.6559  0.1855
 3549SOL     OW11545   6.629   4.709   3.295  0.6161  0.4766 -1.0396
 3549SOL    HW111546   6.539   4.686   3.256  0.4097 -1.4411  0.4505
 3549SOL    HW211547   6.657   4.638   3.359  2.7491  1.5746 -0.6711
 3550SOL     OW11548   5.947   0.675   1.607 -0.1760 -0.2429 -0.0973
 3550SOL    HW111549   6.017   0.730   1.561  0.7987 -1.5220 -0.1953
 3550SOL    HW211550   5.866   0.731   1.622  1.7596  2.1739  2.4377
 3551SOL     OW11551   0.779   0.568   2.393  0.0412 -0.2047  0.1440
 3551SOL    HW111552   0.707   0.637   2.387 -0.1467 -0.2552  1.6306
 3551SOL    HW211553   0.800   0.548   2.488  0.1155 -2.1935 -0.2258
 3552SOL     OW11554   6.878   4.510   3.178  0.4015  0.7636  0.2178
 3552SOL    HW111555   6.839   4.503   3.270  1.7707  0.4941  0.7886
 3552SOL    HW211556   6.813   4.470   3.112  0.4787 -1.4477  1.3759
 3553SOL     OW11557   5.262   1.420   3.750  0.4140 -0.1367 -0.7379
 3553SOL    HW111558   5.203   1.390   3.675  0.2902  0.1912 -0.7700
 3553SOL    HW211559   5.210   1.474   3.815  1.1546  2.1931 -1.9609
 3554SOL     OW11560   2.517   0.393   6.645  0.1825 -0.8953 -0.0309
 3554SOL    HW111561   2.428   0.432   6.669  0.8295  0.3091  0.5572
 3554SOL    HW211562   2.504   0.316   6.583 -1.3445 -1.6525  1.1585
 3555SOL     OW11563   0.286   3.369   3.904  0.4133  0.7174  0.6549
 3555SOL    HW111564   0.191   3.396   3.894 -0.1450 -0.4629  2.4388
 3555SOL    HW211565   0.342   3.450   3.924 -0.1971  1.4019 -0.3113
 3556SOL     OW11566   3.716   2.026   6.379  0.7720  0.1218 -0.4334
 3556SOL    HW111567   3.780   1.972   6.434 -0.5578  0.4904  1.5511
 3556SOL    HW211568   3.742   2.122   6.383 -1.5409  0.7751  3.0435
 3557SOL     OW11569   1.852   1.677   4.465 -0.4765 -0.2672  0.3362
 3557SOL    HW111570   1.821   1.715   4.552 -0.2578 -0.8654  0.6800
 3557SOL    HW211571   1.946   1.706   4.448 -0.0976 -1.1186  0.8911
 3558SOL     OW11572   0.432   1.043   6.186 -0.3650  0.0406 -0.0219
 3558SOL    HW111573   0.472   1.099   6.113  0.5980 -0.2833  0.2454
 3558SOL    HW211574   0.345   1.084   6.215 -0.6090  0.3407 -1.1289
 3559SOL     OW11575   6.194   0.767   6.231 -0.6691 -0.4417 -0.5280
 3559SOL    HW111576   6.229   0.797   6.143  0.2746  2.1308  0.6216
 3559SOL    HW211577   6.266   0.720   6.282 -0.3569  0.4130 -0.1447
 3560SOL     OW11578   6.878   6.477   0.102  0.0019 -0.2774  0.0162
 3560SOL    HW111579   6.835   6.482   0.192 -1.6028  0.3587 -0.7436
 3560SOL    HW211580   6.893   6.570   0.066 -0.9535 -0.5223 -1.0743
 3561SOL     OW11581   5.695   3.180   3.249 -0.0901  0.0629  0.4629
 3561SOL    HW111582   5.652   3.258   3.295 -1.1038  0.2752 -0.7937
 3561SOL    HW211583   5.658   3.095   3.287  0.7385  0.1724  1.5729
 3562SOL     OW11584   3.817   0.554   2.865 -0.1744  0.7677 -0.2022
 3562SOL    HW111585   3.819   0.628   2.931  1.7393  0.4294  0.1922
 3562SOL    HW211586   3.896   0.562   2.803  0.5190 -1.2986  0.3127
 3563SOL     OW11587   3.965   0.306   2.689 -0.5620 -0.1761 -0.4947
 3563SOL    HW111588   4.006   0.397   2.678  0.3622 -0.7913 -2.7590
 3563SOL    HW211589   3.981   0.273   2.782 -0.6202  1.7970  0.2784
 3564SOL     OW11590   6.276   4.576   1.529 -0.0173  0.1334  0.2084
 3564SOL    HW111591   6.253   4.616   1.440  0.9584 -0.4031 -0.2947
 3564SOL    HW211592   6.299   4.650   1.593 -1.5734  0.5870  0.2982
 3565SOL     OW11593   5.516   6.274   6.312  0.3453 -0.4683 -0.3572
 3565SOL    HW111594   5.517   6.292   6.411  0.4154  0.8536 -0.5821
 3565SOL    HW211595   5.582   6.202   6.291  1.1197 -0.0170  0.4381
 3566SOL     OW11596   1.707   4.724   5.235  0.5111  0.0975 -0.3793
 3566SOL    HW111597   1.646   4.770   5.299  1.6980  1.6462 -0.3152
 3566SOL    HW211598   1.687   4.626   5.236  0.1465  0.1295  1.9715
 3567SOL     OW11599   6.482   6.101   2.311 -0.0242 -0.0923  0.0150
 3567SOL    HW111600   6.470   6.118   2.214 -0.6618  0.7011  0.2155
 3567SOL    HW211601   6.429   6.168   2.363  1.1535  0.1695  0.9225
 3568SOL     OW11602   6.909   4.634   5.937  0.4895 -0.6537  0.5910
 3568SOL    HW111603   6.900   4.576   6.018 -4.8809  0.3165  1.0591
 3568SOL    HW211604   6.908   4.577   5.855  2.3511 -1.4718  1.1073
 3569SOL     OW11605   3.415   3.694   1.864 -0.0473  0.0640 -0.0188
 3569SOL    HW111606   3.346   3.675   1.794 -1.3634  0.6767  1.0849
 3569SOL    HW211607   3.425   3.614   1.923  0.1971 -0.0179 -0.1670
 3570SOL     OW11608   0.411   3.510   0.184  0.1902  0.5389 -0.3878
 3570SOL    HW111609   0.336   3.519   0.119  0.4882  2.7767 -0.4790
 3570SOL    HW211610   0.482   3.577   0.163  0.0353  1.7690  2.5834
 3571SOL     OW11611   3.202   6.752   2.623  0.0852 -0.1834  0.1500
 3571SOL    HW111612   3.148   6.716   2.698  2.0016 -2.0857  0.7038
 3571SOL    HW211613   3.262   6.825   2.657  0.5015 -0.6185  0.3712
 3572SOL     OW11614   5.742   4.850   3.505  0.2059  0.2944 -0.5726
 3572SOL    HW111615   5.645   4.830   3.521  0.0785  2.3182  1.6345
 3572SOL    HW211616   5.797   4.772   3.535 -0.6451  0.0727  0.4869
 3573SOL     OW11617   1.442   5.029   4.692  0.2864  0.0026  0.0564
 3573SOL    HW111618   1.490   4.966   4.631  0.1395 -0.1642  0.1105
 3573SOL    HW211619   1.376   4.977   4.747  0.9584  0.0354  0.9016
 3574SOL     OW11620   2.805   1.626   5.891 -0.0074 -0.2961 -0.3623
 3574SOL    HW111621   2.829   1.654   5.798  0.0635 -1.6049 -0.7631
 3574SOL    HW211622   2.867   1.552   5.921 -0.1310 -0.0054  0.6630
 3575SOL     OW11623   4.019   0.451   6.940  0.1242  0.3532 -0.2597
 3575SOL    HW111624   4.014   0.551   6.941  0.1691  0.3546 -0.1921
 3575SOL    HW211625   3.932   0.414   6.906  0.3682  0.4362 -1.0126
 3576SOL     OW11626   2.270   3.945   0.492  0.6404  0.2604  0.1091
 3576SOL    HW111627   2.312   3.860   0.460  1.2473  1.3383 -2.1581
 3576SOL    HW211628   2.209   3.925   0.568  1.4488 -2.0639  0.2382
 3577SOL     OW11629   1.335   3.100   4.520 -1.0536 -0.5363 -0.0395
 3577SOL    HW111630   1.410   3.158   4.490  0.6837 -2.2785  0.7033
 3577SOL    HW211631   1.254   3.156   4.538  0.6828  1.7180  1.2077
 3578SOL     OW11632   4.756   2.226   1.465 -0.1181  0.3597 -0.0120
 3578SOL    HW111633   4.795   2.138   1.436 -0.2937  0.1477  0.3874
 3578SOL    HW211634   4.830   2.286   1.497  0.0436  0.4909 -0.6223
 3579SOL     OW11635   0.271   3.811   3.465 -0.0472  0.2643  0.2373
 3579SOL    HW111636   0.287   3.885   3.399 -0.9673 -1.4478 -2.0469
 3579SOL    HW211637   0.218   3.739   3.421  0.6019 -1.6805  2.4631
 3580SOL     OW11638   6.598   1.730   0.128 -0.2730 -0.0534  0.2197
 3580SOL    HW111639   6.654   1.654   0.095 -0.0361 -0.4046  1.3912
 3580SOL    HW211640   6.635   1.817   0.094 -0.8883 -0.4734 -1.6123
 3581SOL     OW11641   2.636   1.223   2.567  0.0455 -0.0525 -0.0036
 3581SOL    HW111642   2.570   1.170   2.620 -1.9465  0.4172 -1.8845
 3581SOL    HW211643   2.659   1.173   2.483  1.7130  0.0506  0.3541
 3582SOL     OW11644   4.064   6.146   0.877 -0.1494  0.2526 -0.0199
 3582SOL    HW111645   4.062   6.049   0.901  2.0863  0.0490 -0.4169
 3582SOL    HW211646   4.084   6.200   0.959  0.2518  0.2049 -0.0810
 3583SOL     OW11647   2.879   1.178   6.122 -0.0555  0.1599  0.4711
 3583SOL    HW111648   2.819   1.168   6.202 -2.8872 -0.6593 -1.5898
 3583SOL    HW211649   2.935   1.095   6.112 -0.2929 -0.0882  1.1183
 3584SOL     OW11650   5.429   5.057   4.075 -0.2294 -0.1567 -0.9881
 3584SOL    HW111651   5.357   5.126   4.074 -1.0872 -0.8278  2.3256
 3584SOL    HW211652   5.511   5.094   4.118  0.7936 -0.0010 -2.9719
 3585SOL     OW11653   2.736   1.922   3.711 -0.0887  0.6726 -0.1351
 3585SOL    HW111654   2.761   1.828   3.734  0.7576  0.7496 -0.7329
 3585SOL    HW211655   2.665   1.921   3.641  0.2020  0.4830 -0.4293
 3586SOL     OW11656   6.194   3.534   4.733  0.1651 -0.1847  0.6339
 3586SOL    HW111657   6.134   3.611   4.754 -1.3497 -1.2488  0.3545
 3586SOL    HW211658   6.232   3.497   4.818  1.0417  0.9267  0.7628
 3587SOL     OW11659   1.324   6.762   4.373 -0.5936 -0.1766 -0.0451
 3587SOL    HW111660   1.297   6.858   4.377 -0.2479 -0.0845  0.1083
 3587SOL    HW211661   1.324   6.724   4.466  3.0043  0.7242  0.4538
 3588SOL     OW11662   0.344   4.262   3.689  0.1637 -0.3884  0.3386
 3588SOL    HW111663   0.407   4.340   3.696  1.0496 -0.8815 -1.5835
 3588SOL    HW211664   0.392   4.178   3.717 -0.2504 -0.5028  0.7152
 3589SOL     OW11665   0.187   1.231   5.715 -0.6350 -0.4472 -1.2046
 3589SOL    HW111666   0.122   1.179   5.660 -0.5133  0.2268 -2.0123
 3589SOL    HW211667   0.223   1.308   5.661 -0.8400  0.5003 -0.0504
 3590SOL     OW11668   5.956   3.437   6.901  0.2227 -0.0800 -0.7802
 3590SOL    HW111669   5.954   3.531   6.935 -0.6050 -0.0291 -0.9562
 3590SOL    HW211670   5.883   3.423   6.835 -0.2644 -1.1050 -0.0539
 3591SOL     OW11671   4.075   1.078   2.671 -0.2271  0.0021 -0.0789
 3591SOL    HW111672   4.048   1.144   2.600  0.0080 -1.6010 -1.7167
 3591SOL    HW211673   4.100   1.128   2.754 -1.0187  1.9172 -0.9211
 3592SOL     OW11674   0.823   0.086   0.432  0.8436  0.3329 -0.8123
 3592SOL    HW111675   0.733   0.114   0.397  0.2354 -1.4266 -0.7796
 3592SOL    HW211676   0.836  -0.012   0.414  1.7706  0.0369  1.2627
 3593SOL     OW11677   4.107   3.626   6.158  0.1380 -0.3039  0.1055
 3593SOL    HW111678   4.183   3.639   6.221  0.3435 -1.0769  0.0357
 3593SOL    HW211679   4.036   3.694   6.175  1.8748  2.0625 -1.4509
 3594SOL     OW11680   5.756   4.548   6.917  0.3520  0.3790  0.1225
 3594SOL    HW111681   5.852   4.522   6.924  0.7651  1.3271 -1.6325
 3594SOL    HW211682   5.744   4.642   6.948  0.1172  0.4950 -0.3082
 3595SOL     OW11683   4.136   6.918   5.339 -0.1263 -0.6283 -0.0565
 3595SOL    HW111684   4.099   6.905   5.430  1.1774 -0.4864  0.5154
 3595SOL    HW211685   4.120   7.013   5.310  0.4607 -0.3530  0.5032
 3596SOL     OW11686   3.935   2.216   0.581  0.1845  0.2247 -0.0860
 3596SOL    HW111687   3.996   2.289   0.612  1.2486 -0.8621  0.4370
 3596SOL    HW211688   3.947   2.202   0.483  2.1664 -1.1780  0.2913
 3597SOL     OW11689   6.034   3.948   0.199  0.2790 -0.2279  0.1137
 3597SOL    HW111690   6.053   3.851   0.212 -1.3477 -0.9315 -2.1793
 3597SOL    HW211691   5.944   3.970   0.236  1.0381  0.6555  1.4867
 3598SOL     OW11692   6.714   4.812   4.125 -0.8275 -0.4631  0.7842
 3598SOL    HW111693   6.697   4.722   4.085  0.6239 -0.7187  0.6927
 3598SOL    HW211694   6.700   4.807   4.224  0.6570 -1.1847  0.9764
 3599SOL     OW11695   2.256   2.785   6.038 -0.3128  0.1547  0.1532
 3599SOL    HW111696   2.261   2.725   5.959 -0.2942 -1.5160  1.3637
 3599SOL    HW211697   2.160   2.794   6.067 -0.1946 -0.3781  0.7429
 3600SOL     OW11698   2.178   6.023   6.624 -0.1022 -0.2379  0.0968
 3600SOL    HW111699   2.222   5.944   6.582  1.1055  0.3614  0.1655
 3600SOL    HW211700   2.224   6.044   6.711  0.2443  1.0937 -0.3828
 3601SOL     OW11701   4.050   0.288   4.376 -0.4890 -0.1048 -0.2143
 3601SOL    HW111702   4.091   0.208   4.331  0.7671  1.0964 -1.3131
 3601SOL    HW211703   3.967   0.260   4.425 -0.4011 -1.9717 -1.0349
 3602SOL     OW11704   2.117   2.726   1.755 -0.0537 -0.1738  0.0852
 3602SOL    HW111705   2.210   2.698   1.779 -0.0245  0.5152  0.8457
 3602SOL    HW211706   2.121   2.810   1.701 -0.2180 -0.3768 -0.2410
 3603SOL     OW11707   2.949   5.917   5.162 -0.1901  0.1527  0.0480
 3603SOL    HW111708   2.898   5.836   5.131  1.6829 -0.9250 -0.4045
 3603SOL    HW211709   2.947   5.921   5.261  0.4225 -0.9926  0.1309
 3604SOL     OW11710   6.273   1.801   4.257 -0.1399 -0.3623  0.1128
 3604SOL    HW111711   6.236   1.710   4.276 -0.5129 -0.2244  0.0523
 3604SOL    HW211712   6.220   1.844   4.183  0.4942 -0.3883 -0.3604
 3605SOL     OW11713   1.237   0.213   4.287  0.5572  0.1933  0.9878
 3605SOL    HW111714   1.321   0.236   4.239 -0.1468 -0.2047 -0.5074
 3605SOL    HW211715   1.170   0.286   4.275 -0.9243 -1.4220 -1.9350
 3606SOL     OW11716   1.433   1.034   3.549  0.1525  0.8511  0.1353
 3606SOL    HW111717   1.490   1.017   3.469 -1.6930  0.9469 -1.2649
 3606SOL    HW211718   1.432   1.132   3.570  0.1190  0.9091 -0.1378
 3607SOL     OW11719   4.262   1.292   4.291 -0.4282 -0.5305  0.4134
 3607SOL    HW111720   4.336   1.227   4.311 -0.3272 -0.2732  0.8883
 3607SOL    HW211721   4.190   1.246   4.239 -0.4017 -1.0490  0.8315
 3608SOL     OW11722   3.970   2.026   6.603  0.1948  0.0079  0.0230
 3608SOL    HW111723   3.884   2.040   6.652 -0.1931  0.5886 -0.7970
 3608SOL    HW211724   4.045   2.022   6.668 -0.1439  2.0686  0.6062
 3609SOL     OW11725   4.482   6.591   5.389 -0.3065 -0.2648  0.0605
 3609SOL    HW111726   4.499   6.539   5.306  0.2042  1.3230 -0.8843
 3609SOL    HW211727   4.430   6.535   5.454  1.8912 -2.6141 -0.0683
 3610SOL     OW11728   2.290   4.255   2.068  0.6489 -0.0440 -0.8754
 3610SOL    HW111729   2.204   4.212   2.039  0.2775 -0.4446  0.7268
 3610SOL    HW211730   2.342   4.282   1.987 -0.8870  0.0299 -1.8840
 3611SOL     OW11731   5.028   2.339   1.494 -0.5847 -0.6453  0.0835
 3611SOL    HW111732   4.975   2.422   1.513  0.9655  0.0628  1.5742
 3611SOL    HW211733   5.073   2.308   1.578  1.2407 -1.2917 -1.0701
 3612SOL     OW11734   4.143   0.548   0.780 -0.0174  0.2623 -0.2244
 3612SOL    HW111735   4.077   0.621   0.764 -1.5512 -0.8751  0.5795
 3612SOL    HW211736   4.207   0.543   0.704 -0.0768  2.1992 -0.4462
 3613SOL     OW11737   2.275   2.055   4.114  0.2345 -0.4961 -0.2369
 3613SOL    HW111738   2.335   1.985   4.077  0.7530  0.8079 -2.0055
 3613SOL    HW211739   2.198   2.070   4.051 -0.1920  0.1146  0.4086
 3614SOL     OW11740   2.048   1.546   0.223  0.1413  0.3766  0.2450
 3614SOL    HW111741   2.056   1.570   0.126 -0.2410 -4.3572 -1.2426
 3614SOL    HW211742   1.963   1.495   0.237  1.0842 -0.6636  2.6715
 3615SOL     OW11743   4.341   2.009   5.846  0.1567 -0.3307  0.4077
 3615SOL    HW111744   4.269   2.073   5.871 -0.3923 -0.2238 -1.2969
 3615SOL    HW211745   4.383   2.038   5.760  2.7143 -0.0312  1.6551
 3616SOL     OW11746   1.355   2.300   0.704  0.9240  0.1352 -0.2012
 3616SOL    HW111747   1.284   2.369   0.694 -0.4119 -1.3371 -1.2067
 3616SOL    HW211748   1.445   2.344   0.697  0.1690  2.0475  1.2701
 3617SOL     OW11749   3.384   4.888   4.240 -0.3109  0.2456  0.0252
 3617SOL    HW111750   3.300   4.854   4.281  0.4819 -1.7266  0.1496
 3617SOL    HW211751   3.373   4.898   4.141 -0.2194 -1.7051 -0.2171
 3618SOL     OW11752   0.189   5.677   5.620 -0.2443 -0.0283 -0.4159
 3618SOL    HW111753   0.235   5.596   5.657  1.2823  1.5951  1.3719
 3618SOL    HW211754   0.248   5.720   5.551  1.6051  2.6279  2.5901
 3619SOL     OW11755   0.223   6.295   1.347  0.0765 -0.2864  0.1935
 3619SOL    HW111756   0.223   6.303   1.446  2.2715 -0.3633  0.2561
 3619SOL    HW211757   0.164   6.366   1.308 -0.0930  0.3398  1.5223
 3620SOL     OW11758   4.673   6.897   6.655 -0.9260  0.2987  0.5901
 3620SOL    HW111759   4.711   6.919   6.745 -2.3320  0.8705  1.0864
 3620SOL    HW211760   4.629   6.979   6.617 -1.2893 -0.2205 -0.1353
 3621SOL     OW11761   3.333   2.197   1.398 -0.2428 -0.2467 -0.0346
 3621SOL    HW111762   3.297   2.290   1.404  1.2342  0.2790  0.9353
 3621SOL    HW211763   3.317   2.149   1.484 -1.2438 -1.0190 -0.6202
 3622SOL     OW11764   2.722   0.998   6.592 -0.1244  0.1130  0.6303
 3622SOL    HW111765   2.769   0.925   6.642 -1.3634 -0.9106  0.3407
 3622SOL    HW211766   2.647   0.960   6.539 -0.2444  1.4914 -0.2566
 3623SOL     OW11767   1.785   6.183   5.518 -0.0370 -0.3322 -0.0218
 3623SOL    HW111768   1.771   6.280   5.535  0.3329 -0.0013 -1.5130
 3623SOL    HW211769   1.725   6.153   5.444 -0.7747 -1.4565  0.9870
 3624SOL     OW11770   3.452   0.325   2.252  0.0484 -0.5073 -0.0592
 3624SOL    HW111771   3.534   0.330   2.309  0.2310  2.3482 -0.4311
 3624SOL    HW211772   3.478   0.318   2.156 -0.1370 -0.2269 -0.1320
 3625SOL     OW11773   0.021   3.369   1.257 -0.3581  0.4573  0.4113
 3625SOL    HW111774  -0.004   3.349   1.162 -1.4987  1.1436  0.5450
 3625SOL    HW211775  -0.019   3.301   1.318 -0.1173  0.3503  0.4509
 3626SOL     OW11776   0.863   2.537   5.389  0.5797 -0.6035  0.5642
 3626SOL    HW111777   0.878   2.554   5.487 -0.2241  1.4863  0.3780
 3626SOL    HW211778   0.765   2.542   5.369  0.6165 -2.2181 -0.1775
 3627SOL     OW11779   3.116   0.982   3.971  0.2418 -0.1127  0.3063
 3627SOL    HW111780   3.137   1.057   4.034  0.6553  0.6881 -0.7449
 3627SOL    HW211781   3.018   0.964   3.970 -0.0176  1.2194 -0.2781
 3628SOL     OW11782   6.506   1.239   0.740  0.1860  0.1589 -0.0754
 3628SOL    HW111783   6.524   1.313   0.805  0.2972  1.2770 -1.3414
 3628SOL    HW211784   6.578   1.236   0.671  0.6436 -1.7114  0.4278
 3629SOL     OW11785   2.230   0.454   4.352 -0.1340 -0.7404  0.6246
 3629SOL    HW111786   2.200   0.415   4.264 -2.0341 -0.0756  0.9292
 3629SOL    HW211787   2.275   0.542   4.336  1.2882 -1.5113  0.1948
 3630SOL     OW11788   0.541   1.927   3.812 -0.0841 -0.3889  0.2308
 3630SOL    HW111789   0.572   2.013   3.851  1.7395 -0.8126 -0.1806
 3630SOL    HW211790   0.544   1.933   3.712  0.9779 -1.2146  0.1985
 3631SOL     OW11791   3.082   5.522   2.536 -0.0337 -0.9185  0.1255
 3631SOL    HW111792   3.102   5.531   2.438 -1.0925 -1.8709 -0.2041
 3631SOL    HW211793   3.073   5.612   2.577  0.1675 -0.5112 -0.7035
 3632SOL     OW11794   5.280   2.795   3.059  0.8695 -0.1651  0.2321
 3632SOL    HW111795   5.245   2.711   3.101  1.0340 -0.5039 -0.3036
 3632SOL    HW211796   5.271   2.788   2.960  0.8450  0.4704  0.1892
 3633SOL     OW11797   4.504   5.061   6.090  0.7162  1.4279  1.1707
 3633SOL    HW111798   4.539   5.019   6.006 -1.7856  1.0272  0.2259
 3633SOL    HW211799   4.506   4.994   6.164 -0.4933  0.5167  0.4273
 3634SOL     OW11800   3.892   5.228   5.990 -0.0512  0.6317  0.0591
 3634SOL    HW111801   3.818   5.164   5.971 -0.2813 -0.1900  3.1725
 3634SOL    HW211802   3.926   5.266   5.904 -0.8278 -2.5827 -1.8273
 3635SOL     OW11803   1.268   5.823   4.037 -0.7234 -0.0782 -0.2993
 3635SOL    HW111804   1.183   5.774   4.016 -0.4919 -0.4904 -0.2656
 3635SOL    HW211805   1.247   5.898   4.100 -0.5958 -2.1469  2.3829
 3636SOL     OW11806   6.379   6.082   4.656  0.2567 -0.0426  0.1434
 3636SOL    HW111807   6.318   6.012   4.693  0.9159  0.6383  2.7222
 3636SOL    HW211808   6.337   6.122   4.575 -1.2125 -1.7835 -0.0260
 3637SOL     OW11809   4.925   2.302   6.475 -0.5687 -0.6833  0.1175
 3637SOL    HW111810   4.926   2.357   6.558 -2.2628  0.3824 -0.4967
 3637SOL    HW211811   4.843   2.244   6.474  0.8989 -2.8603  0.4839
 3638SOL     OW11812   0.937   3.145   3.862 -0.3931 -0.1626 -0.4800
 3638SOL    HW111813   0.968   3.126   3.955 -0.0366 -0.2878 -0.6224
 3638SOL    HW211814   0.882   3.069   3.828 -1.0405  0.1511 -0.1499
 3639SOL     OW11815   3.451   3.800   3.356  0.6394 -0.0882 -0.4872
 3639SOL    HW111816   3.379   3.738   3.385 -0.1605  0.9213 -0.2730
 3639SOL    HW211817   3.413   3.868   3.293  1.0496  1.3707  0.7815
 3640SOL     OW11818   4.466   1.639   3.376  0.1585  0.2746 -0.1757
 3640SOL    HW111819   4.513   1.551   3.382  0.4968  0.3851 -1.0639
 3640SOL    HW211820   4.384   1.637   3.434  0.4893 -0.4108  0.2768
 3641SOL     OW11821   6.489   5.685   1.284 -0.7211  0.2143 -0.0127
 3641SOL    HW111822   6.579   5.640   1.290 -0.9272 -0.0485  3.8951
 3641SOL    HW211823   6.417   5.615   1.280 -0.8761  0.2364  1.7476
 3642SOL     OW11824   4.579   3.995   0.528 -0.4955  0.0395  0.0775
 3642SOL    HW111825   4.635   4.023   0.606 -0.0613  0.3365 -0.3299
 3642SOL    HW211826   4.511   4.066   0.510 -0.2328  0.2400 -0.1519
 3643SOL     OW11827   4.997   3.622   4.858  0.1564 -0.0314  0.4475
 3643SOL    HW111828   4.925   3.612   4.927 -0.4816  0.7911 -0.0943
 3643SOL    HW211829   4.972   3.692   4.792 -0.4158 -2.4599 -2.1239
 3644SOL     OW11830   4.314   1.896   2.095  0.4780  0.2537  0.2779
 3644SOL    HW111831   4.364   1.874   2.179 -0.6232 -1.3798  0.5536
 3644SOL    HW211832   4.353   1.845   2.019  0.2160  0.1769  0.1947
 3645SOL     OW11833   2.179   3.611   4.189  0.0471 -0.3347  0.1818
 3645SOL    HW111834   2.205   3.630   4.095 -1.1210 -0.1689 -0.1102
 3645SOL    HW211835   2.134   3.522   4.195 -1.1115  0.2403  0.3441
 3646SOL     OW11836   3.535   6.306   4.539 -0.0526 -0.8067  0.0199
 3646SOL    HW111837   3.621   6.345   4.504  0.6175 -2.7150 -0.6363
 3646SOL    HW211838   3.532   6.316   4.638  0.9101 -0.6640  0.0444
 3647SOL     OW11839   4.715   6.981   6.928  0.0543  0.5607 -0.0860
 3647SOL    HW111840   4.782   6.914   6.961 -0.7925 -0.4469 -0.3840
 3647SOL    HW211841   4.663   7.016   7.006  0.6779  1.0819  0.1038
 3648SOL     OW11842   3.980   4.895   5.754  0.3315  0.3229 -0.5113
 3648SOL    HW111843   3.989   4.833   5.676  0.8402  1.2192 -1.1895
 3648SOL    HW211844   4.030   4.980   5.735 -1.7249  1.6442 -0.3423
 3649SOL     OW11845   5.755   2.802   0.253 -0.3444 -0.0006  0.0739
 3649SOL    HW111846   5.832   2.819   0.313 -1.2432  1.4604  0.8847
 3649SOL    HW211847   5.752   2.706   0.227  3.6494  0.3666 -2.6642
 3650SOL     OW11848   5.943   4.902   0.553  0.7214 -0.4745  0.1774
 3650SOL    HW111849   5.856   4.853   0.552  0.4440  0.0129 -0.5105
 3650SOL    HW211850   5.955   4.947   0.641 -0.5454  0.8689 -0.2996
 3651SOL     OW11851   5.948   2.172   5.721 -0.3186 -0.4147 -0.5043
 3651SOL    HW111852   5.933   2.193   5.624 -0.3965 -0.1747 -0.4413
 3651SOL    HW211853   5.894   2.235   5.777  1.0580  0.6075 -0.2717
 3652SOL     OW11854   6.289   1.995   1.979  0.2094 -0.0679 -0.0172
 3652SOL    HW111855   6.281   2.043   1.892 -0.2720 -0.4568 -0.1931
 3652SOL    HW211856   6.378   1.950   1.984  0.4184  0.3335 -0.1128
 3653SOL     OW11857   2.160   1.068   0.034  0.1301  0.0037 -0.1155
 3653SOL    HW111858   2.238   1.129   0.027 -0.1326  0.6328  1.8334
 3653SOL    HW211859   2.188   0.983   0.078 -0.2170  0.1207  0.3404
 3654SOL     OW11860   5.631   4.589   6.601  0.1688  0.6674 -0.3341
 3654SOL    HW111861   5.578   4.566   6.683  1.5456 -1.7313 -0.0334
 3654SOL    HW211862   5.726   4.562   6.613  1.3862  3.9945 -1.2422
 3655SOL     OW11863   2.176   0.539   3.225  0.0914 -0.7028  0.1430
 3655SOL    HW111864   2.262   0.591   3.231 -0.9567  1.0653  0.4484
 3655SOL    HW211865   2.117   0.581   3.156 -1.3357 -0.6227  1.3658
 3656SOL     OW11866   1.510   0.274   5.203 -0.5569  0.0634  0.2745
 3656SOL    HW111867   1.536   0.181   5.179 -1.9027 -0.5288  1.0005
 3656SOL    HW211868   1.497   0.328   5.119  1.4034 -0.0216 -0.1298
 3657SOL     OW11869   6.891   3.544   5.298  0.0817  0.0300 -0.4200
 3657SOL    HW111870   6.833   3.559   5.217 -1.3136  0.8570  0.6827
 3657SOL    HW211871   6.834   3.547   5.380  1.0938 -2.9708  0.5137
 3658SOL     OW11872   2.237   4.542   4.890 -0.4398  0.2949 -0.0372
 3658SOL    HW111873   2.279   4.490   4.964 -0.9632  0.2101  0.2003
 3658SOL    HW211874   2.294   4.534   4.808 -0.7861 -1.1316 -0.1724
 3659SOL     OW11875   2.043   3.710   0.661 -0.5846  0.1861 -0.0580
 3659SOL    HW111876   1.999   3.769   0.593  0.0337  0.0955 -0.5473
 3659SOL    HW211877   1.973   3.664   0.716 -1.1705 -1.2365 -1.8885
 3660SOL     OW11878   4.970   6.364   4.173  0.4193 -0.1380 -0.0521
 3660SOL    HW111879   4.899   6.314   4.123  1.0989 -0.2782 -0.8868
 3660SOL    HW211880   5.032   6.409   4.109  0.7181  0.5267  0.6759
 3661SOL     OW11881   6.686   1.155   5.718  0.7526  0.0335  0.1814
 3661SOL    HW111882   6.599   1.107   5.727  0.7898 -0.1911 -0.5835
 3661SOL    HW211883   6.761   1.090   5.727  0.7956 -0.2534 -1.6736
 3662SOL     OW11884   3.604   3.531   5.295  0.3374 -0.0820 -0.5634
 3662SOL    HW111885   3.596   3.519   5.196 -0.1533 -0.8269 -0.4405
 3662SOL    HW211886   3.522   3.496   5.340  0.0035  1.4119  0.0293
 3663SOL     OW11887   0.962   3.197   0.779  0.4721  0.1018  0.1888
 3663SOL    HW111888   0.911   3.171   0.697  1.0866 -0.5055 -0.0081
 3663SOL    HW211889   0.898   3.232   0.848 -0.2956 -1.1743  0.1626
 3664SOL     OW11890   1.464   4.326   2.174 -0.1119 -0.6909 -0.4381
 3664SOL    HW111891   1.559   4.325   2.206 -0.9532 -0.1460  2.2643
 3664SOL    HW211892   1.443   4.416   2.136 -0.6096  0.6052  2.6641
 3665SOL     OW11893   0.653   5.924   5.542 -0.2604 -0.1729 -0.3796
 3665SOL    HW111894   0.710   5.843   5.550  1.1205  0.8161  0.2273
 3665SOL    HW211895   0.565   5.908   5.587  0.1066 -1.2224 -0.0062
 3666SOL     OW11896   2.087   2.570   6.759  0.0035 -0.3375 -0.1476
 3666SOL    HW111897   2.132   2.543   6.674  0.5220 -0.3399  0.1195
 3666SOL    HW211898   2.066   2.489   6.813  0.6430 -0.2779  0.2005
 3667SOL     OW11899   3.178   1.494   1.973 -0.3548  0.2966  0.7126
 3667SOL    HW111900   3.207   1.415   1.920 -0.3399 -0.8237  2.3230
 3667SOL    HW211901   3.134   1.561   1.912 -0.4756 -0.9836 -0.6575
 3668SOL     OW11902   4.896   0.514   0.891 -0.4097  0.8179 -0.3481
 3668SOL    HW111903   4.910   0.575   0.813  2.3868  0.8898  0.1369
 3668SOL    HW211904   4.873   0.568   0.972 -0.6759  0.9689 -0.5227
 3669SOL     OW11905   1.247   6.023   1.231  0.1249 -0.3338 -0.0855
 3669SOL    HW111906   1.162   6.023   1.284  0.6661  0.3982  0.8032
 3669SOL    HW211907   1.275   5.929   1.213 -0.5408 -0.5811  0.1423
 3670SOL     OW11908   1.539   6.382   2.001 -0.0723  0.0606 -0.2032
 3670SOL    HW111909   1.458   6.395   2.057  0.5746  0.1976  0.7245
 3670SOL    HW211910   1.619   6.371   2.060  0.4346 -1.1740 -1.0696
 3671SOL     OW11911   6.019   1.524   4.657 -0.3771 -0.0383 -0.1292
 3671SOL    HW111912   6.114   1.519   4.688 -0.1877 -0.4902 -0.7671
 3671SOL    HW211913   5.981   1.614   4.681 -0.8238 -0.9422  2.9622
 3672SOL     OW11914   3.134   2.117   1.971 -0.9030 -0.0611  0.0217
 3672SOL    HW111915   3.122   2.062   2.053 -0.2681 -0.1445  0.0585
 3672SOL    HW211916   3.073   2.196   1.975 -0.0548  0.5476  1.0992
 3673SOL     OW11917   4.846   3.198   3.907  0.2163 -0.3025  0.0637
 3673SOL    HW111918   4.925   3.143   3.935  0.5929  0.5184  0.6409
 3673SOL    HW211919   4.762   3.154   3.938  0.5895  0.2080  1.8997
 3674SOL     OW11920   0.150   0.298   6.748 -0.2296 -0.1001 -0.5124
 3674SOL    HW111921   0.156   0.237   6.827  1.3871 -0.9196 -1.2005
 3674SOL    HW211922   0.106   0.384   6.774 -0.0048 -0.4692  1.1827
 3675SOL     OW11923   5.774   0.383   5.206  0.4281 -0.3979 -0.3318
 3675SOL    HW111924   5.733   0.293   5.188  2.4266 -1.0398 -2.1543
 3675SOL    HW211925   5.871   0.371   5.231  0.4751  1.2242  0.3990
 3676SOL     OW11926   0.967   2.259   6.980  0.0007  0.6228 -0.0953
 3676SOL    HW111927   1.008   2.266   7.071 -0.9221  0.1937  0.3540
 3676SOL    HW211928   0.999   2.175   6.935 -1.3131 -0.3438  0.7332
 3677SOL     OW11929   6.798   0.771   6.126 -0.4187 -0.2307 -0.2493
 3677SOL    HW111930   6.865   0.746   6.196 -0.4350 -0.4798 -0.3196
 3677SOL    HW211931   6.784   0.693   6.064  0.1945  0.2628 -1.0162
 3678SOL     OW11932   2.319   0.427   5.743  0.2269 -0.2679 -0.2295
 3678SOL    HW111933   2.226   0.409   5.774  0.0327  0.2032 -0.5147
 3678SOL    HW211934   2.357   0.345   5.699  0.3504 -0.8028  0.8486
 3679SOL     OW11935   2.181   0.990   1.392 -0.6992 -0.0763  0.0750
 3679SOL    HW111936   2.107   1.036   1.343 -0.5771  0.0390 -0.0007
 3679SOL    HW211937   2.226   1.055   1.453 -0.2688  0.0078 -0.3273
 3680SOL     OW11938   4.949   1.197   2.686  0.4988  0.4430 -0.7666
 3680SOL    HW111939   5.017   1.253   2.733  1.3765 -0.7925 -0.5006
 3680SOL    HW211940   4.981   1.179   2.592 -0.9458  2.3774 -1.7020
 3681SOL     OW11941   2.729   4.856   3.435  0.5675 -0.5015 -0.3033
 3681SOL    HW111942   2.655   4.923   3.429  0.2097 -0.9491 -1.1538
 3681SOL    HW211943   2.806   4.886   3.378  0.1007 -1.1655 -1.3188
 3682SOL     OW11944   6.105   1.735   3.414  0.2304  0.0734  0.0180
 3682SOL    HW111945   6.188   1.788   3.399  0.8008 -1.2525 -1.7566
 3682SOL    HW211946   6.038   1.757   3.343 -0.3705 -0.0020  0.5517
 3683SOL     OW11947   6.324   2.151   1.678 -1.1277  0.1180 -0.3267
 3683SOL    HW111948   6.403   2.091   1.691 -0.5979  0.9552  0.4011
 3683SOL    HW211949   6.343   2.240   1.719 -2.9526 -0.0827  1.0674
 3684SOL     OW11950   3.863   5.251   5.362 -0.0109 -0.5477  0.2138
 3684SOL    HW111951   3.794   5.299   5.309 -0.3992 -0.5017  0.7477
 3684SOL    HW211952   3.895   5.309   5.437  0.5079 -0.6198  0.0533
 3685SOL     OW11953   1.234   6.141   0.659 -0.7498  0.2207  0.3636
 3685SOL    HW111954   1.227   6.085   0.576  0.7127  2.5992 -1.4767
 3685SOL    HW211955   1.193   6.091   0.735 -0.9546 -2.6463 -1.4518
 3686SOL     OW11956   0.747   3.493   1.880 -0.4314  0.1964 -0.1425
 3686SOL    HW111957   0.679   3.466   1.949 -0.5852  1.1277  0.0851
 3686SOL    HW211958   0.835   3.453   1.904 -0.8195 -0.8150 -0.3009
 3687SOL     OW11959   2.268   4.187   5.536  0.2193 -0.2118 -0.8206
 3687SOL    HW111960   2.262   4.088   5.542  0.9977 -0.1878  0.9486
 3687SOL    HW211961   2.198   4.229   5.595  1.9007  0.2179  0.9723
 3688SOL     OW11962   0.222   2.063   1.405 -0.1682  0.0701  0.1122
 3688SOL    HW111963   0.203   2.132   1.475 -0.8585 -0.9050  0.9096
 3688SOL    HW211964   0.258   1.980   1.449  0.4277 -0.1801 -0.8092
 3689SOL     OW11965   3.237   3.551   4.113  0.2728  0.4269  0.5923
 3689SOL    HW111966   3.260   3.579   4.206 -0.7571  2.8058  0.1904
 3689SOL    HW211967   3.155   3.600   4.082  1.5387  0.9958 -2.1633
 3690SOL     OW11968   1.127   3.784   2.346 -0.3001  0.4863 -0.4602
 3690SOL    HW111969   1.202   3.749   2.401 -1.1685 -1.1463 -0.2364
 3690SOL    HW211970   1.155   3.791   2.250  0.3848  0.7247 -0.2431
 3691SOL     OW11971   4.614   2.507   5.000  0.1140 -0.3352 -0.1314
 3691SOL    HW111972   4.702   2.526   4.956 -0.0410 -1.7335 -1.1059
 3691SOL    HW211973   4.577   2.592   5.037  1.4680  0.4312 -0.4609
 3692SOL     OW11974   0.662   3.724   6.641 -0.0106  0.8870 -0.9767
 3692SOL    HW111975   0.720   3.697   6.564  0.9131  1.3813 -0.4655
 3692SOL    HW211976   0.714   3.717   6.726 -0.1579  2.9607 -0.6678
 3693SOL     OW11977   1.231   2.765   3.538  0.2905  0.4174 -0.2376
 3693SOL    HW111978   1.160   2.702   3.568 -1.9324  3.4860  1.5335
 3693SOL    HW211979   1.219   2.785   3.440  1.3631 -2.1252 -0.9689
 3694SOL     OW11980   0.295   5.314   3.206  0.1867 -0.3997  0.6126
 3694SOL    HW111981   0.242   5.399   3.205 -1.0864 -1.1667 -0.2410
 3694SOL    HW211982   0.239   5.240   3.169  1.9882 -1.1931 -0.6322
 3695SOL     OW11983   6.430   3.303   5.921  0.0264 -0.1588 -0.8650
 3695SOL    HW111984   6.523   3.338   5.938  0.9144 -2.4954 -0.5139
 3695SOL    HW211985   6.364   3.361   5.968  1.4929  0.3562  0.6997
 3696SOL     OW11986   4.300   6.920   6.411 -0.4018 -0.0121 -0.1417
 3696SOL    HW111987   4.268   6.896   6.319 -0.9746 -0.9886  0.2969
 3696SOL    HW211988   4.266   6.853   6.476  0.8041  0.1286  0.6526
 3697SOL     OW11989   2.358   5.763   4.801  0.1494  0.2595 -0.6708
 3697SOL    HW111990   2.412   5.847   4.804  0.9958 -0.2698 -0.5263
 3697SOL    HW211991   2.412   5.688   4.839 -0.4031 -0.4483 -1.2480
 3698SOL     OW11992   0.107   1.582   2.346  0.1959  0.9377  0.0427
 3698SOL    HW111993   0.103   1.629   2.257  1.2272  1.7823  0.4323
 3698SOL    HW211994   0.056   1.496   2.339 -0.9220  1.6309 -0.9671
 3699SOL     OW11995   3.184   1.832   2.565  0.3745  0.2122  0.7183
 3699SOL    HW111996   3.134   1.806   2.482  0.0683 -0.4779  1.1199
 3699SOL    HW211997   3.134   1.904   2.613  0.8067  0.9801  0.0462
 3700SOL     OW11998   1.247   4.699   4.259  0.0666 -0.0123 -0.0470
 3700SOL    HW111999   1.281   4.740   4.344 -1.4167  2.3323 -0.4635
 3700SOL    HW212000   1.164   4.647   4.278 -1.0966  1.6946 -0.1407
 3701SOL     OW12001   6.475   0.069   3.025 -0.1963 -0.3182 -0.3022
 3701SOL    HW112002   6.420   0.152   3.032 -0.9273 -0.8030 -0.2107
 3701SOL    HW212003   6.499   0.052   2.930  1.0816  0.7054 -0.1960
 3702SOL     OW12004   0.442   2.402   3.619  0.2216 -0.4923 -0.1407
 3702SOL    HW112005   0.416   2.489   3.577  1.0633 -0.7395 -1.2034
 3702SOL    HW212006   0.506   2.419   3.694 -1.0429 -0.0750  0.8880
 3703SOL     OW12007   1.849   0.780   2.351 -0.4769  0.1435  0.6793
 3703SOL    HW112008   1.807   0.695   2.382 -0.3273 -0.1762  0.0308
 3703SOL    HW212009   1.893   0.764   2.262 -0.4237  0.8904  0.5711
 3704SOL     OW12010   0.159   6.349   1.963 -0.2634  0.0909  0.1078
 3704SOL    HW112011   0.245   6.298   1.963  0.4719  1.2450 -1.6109
 3704SOL    HW212012   0.143   6.387   2.054 -0.4503 -2.4819  1.2244
 3705SOL     OW12013   0.624   1.891   4.888  0.3747  0.0976  0.6591
 3705SOL    HW112014   0.673   1.869   4.973 -1.2564 -2.2709  1.0925
 3705SOL    HW212015   0.631   1.814   4.825  2.6781  2.2976 -2.0646
 3706SOL     OW12016   5.694   6.042   6.360 -0.3448 -0.1543 -0.4349
 3706SOL    HW112017   5.666   5.953   6.396  0.5012 -0.8175 -1.3467
 3706SOL    HW212018   5.768   6.079   6.416 -2.6803  1.4570  1.7907
 3707SOL     OW12019   0.316   3.935   2.568  0.3395 -0.0318  0.7043
 3707SOL    HW112020   0.332   4.032   2.585  3.1642 -0.3519  0.3471
 3707SOL    HW212021   0.382   3.902   2.500  1.5384 -2.8188  2.9994
 3708SOL     OW12022   2.033   6.418   6.946 -0.5501 -0.1334 -0.0861
 3708SOL    HW112023   2.050   6.513   6.974 -1.0103 -0.0336 -0.1403
 3708SOL    HW212024   2.073   6.402   6.856  0.0345 -0.1589  0.1739
 3709SOL     OW12025   1.015   1.009   1.563  0.5466  0.9074  0.2457
 3709SOL    HW112026   0.985   0.968   1.476 -0.3763  1.1158  0.4598
 3709SOL    HW212027   0.977   1.101   1.572  1.2914  1.1970  0.5145
 3710SOL     OW12028   1.751   4.154   4.917 -0.2882 -0.3087 -0.2369
 3710SOL    HW112029   1.691   4.121   4.989  0.6624 -0.8428  0.3265
 3710SOL    HW212030   1.776   4.249   4.935  1.3099 -0.9369  1.1015
 3711SOL     OW12031   0.461   4.270   6.481 -0.3035  0.1339 -0.0482
 3711SOL    HW112032   0.467   4.344   6.549  0.1909  1.0075 -1.0026
 3711SOL    HW212033   0.523   4.196   6.507  0.6480  0.9052 -0.0391
 3712SOL     OW12034   2.026   5.949   0.832  0.0825  0.2997  0.2744
 3712SOL    HW112035   2.121   5.974   0.813  0.0310 -0.7494 -1.5356
 3712SOL    HW212036   2.024   5.865   0.886  0.2143 -0.8324 -1.4146
 3713SOL     OW12037   5.659   0.543   5.765 -0.3794  0.1020 -0.8284
 3713SOL    HW112038   5.703   0.548   5.854  0.9590 -1.8643 -1.2991
 3713SOL    HW212039   5.647   0.635   5.727  2.9647  0.8003 -0.4506
 3714SOL     OW12040   6.772   4.113   1.169  0.0508 -0.3242 -0.4365
 3714SOL    HW112041   6.851   4.149   1.119  0.2199  0.2600  0.2370
 3714SOL    HW212042   6.803   4.072   1.255 -0.2778 -0.9970 -0.6333
 3715SOL     OW12043   5.542   4.554   1.055  0.3095  0.4673  0.1248
 3715SOL    HW112044   5.506   4.498   1.129  1.2931 -0.0432  0.2240
 3715SOL    HW212045   5.641   4.542   1.048  0.4178  1.5414 -0.4038
 3716SOL     OW12046   5.650   4.408   4.174  0.0569 -0.4763 -0.1235
 3716SOL    HW112047   5.579   4.359   4.224 -0.1018  0.6508  0.8226
 3716SOL    HW212048   5.714   4.448   4.240  1.1863 -0.9149 -0.9416
 3717SOL     OW12049   3.802   6.045   1.712  1.1204  0.1270 -0.7197
 3717SOL    HW112050   3.842   6.015   1.798 -1.7065 -0.6732  0.3930
 3717SOL    HW212051   3.810   6.144   1.704 -0.2342  0.4619  1.4158
 3718SOL     OW12052   5.847   6.006   0.473  0.5209 -0.3234  0.0025
 3718SOL    HW112053   5.880   6.098   0.494 -0.9383  0.6699 -1.7444
 3718SOL    HW212054   5.819   5.960   0.557  1.0446  0.9124  0.8805
 3719SOL     OW12055   0.970   5.289   0.860 -0.1774 -0.4609  0.0860
 3719SOL    HW112056   0.989   5.386   0.877  0.0535 -0.9157  2.8466
 3719SOL    HW212057   1.026   5.257   0.784 -1.7034  1.9879 -2.2675
 3720SOL     OW12058   6.387   2.664   6.913  0.9574 -0.2393 -0.2510
 3720SOL    HW112059   6.373   2.567   6.894  0.2034 -0.1534 -0.1784
 3720SOL    HW212060   6.322   2.694   6.983  1.7267  0.1298  0.3163
 3721SOL     OW12061   4.714   6.548   5.878  0.1535  0.0173 -0.2018
 3721SOL    HW112062   4.750   6.549   5.972 -1.4495  0.3679  0.4425
 3721SOL    HW212063   4.723   6.639   5.838  3.0726 -0.6699 -1.3396
 3722SOL     OW12064   5.246   6.415   0.694 -0.0271 -0.3635 -0.0590
 3722SOL    HW112065   5.236   6.511   0.667  1.1320  0.0558  0.9611
 3722SOL    HW212066   5.274   6.410   0.790 -0.6009 -1.7455  0.0510
 3723SOL     OW12067   5.013   5.504   3.110  0.4356  0.0223 -0.1553
 3723SOL    HW112068   5.104   5.481   3.145 -0.3919  0.3700  2.4728
 3723SOL    HW212069   5.016   5.513   3.011  3.5545  1.3684 -0.0404
 3724SOL     OW12070   0.825   2.748   3.776  0.1174 -0.2876 -0.2156
 3724SOL    HW112071   0.788   2.656   3.761  0.9965 -0.6945 -0.0004
 3724SOL    HW212072   0.769   2.815   3.729 -1.3394 -0.7866  0.7394
 3725SOL     OW12073   0.143   6.254   2.228  0.5309 -0.0129  0.5897
 3725SOL    HW112074   0.060   6.259   2.284 -0.1286  1.2019 -0.4434
 3725SOL    HW212075   0.191   6.341   2.231  1.3705 -0.4706  0.5733
 3726SOL     OW12076   6.876   4.222   5.366  0.1406  0.8359 -0.1565
 3726SOL    HW112077   6.831   4.297   5.414 -2.2680 -0.8292  0.3962
 3726SOL    HW212078   6.884   4.243   5.269  0.5316  2.2295  0.1617
 3727SOL     OW12079   5.447   2.592   4.037  0.2384  0.0776 -0.1139
 3727SOL    HW112080   5.352   2.561   4.030  0.4035 -0.3591 -0.4328
 3727SOL    HW212081   5.508   2.514   4.041  0.6809  0.3348 -1.2882
 3728SOL     OW12082   2.354   5.191   0.008  0.4895 -0.7011  0.4592
 3728SOL    HW112083   2.311   5.167   0.095 -0.5548  1.2916  0.5643
 3728SOL    HW212084   2.283   5.216  -0.058  1.3452  2.4005  0.5425
 3729SOL     OW12085   1.356   0.076   6.329 -0.1536 -0.5591  0.0960
 3729SOL    HW112086   1.316   0.157   6.371  2.1044  0.6894 -0.0525
 3729SOL    HW212087   1.362   0.090   6.230  2.6705  0.2962  0.3123
 3730SOL     OW12088   4.587   4.912   6.314  0.3648 -0.2061  0.4734
 3730SOL    HW112089   4.523   4.837   6.300  0.2745  0.1149 -0.9660
 3730SOL    HW212090   4.679   4.875   6.327  0.4046 -0.5671 -0.7383
 3731SOL     OW12091   6.020   1.058   1.306 -0.0373  0.5009  0.2917
 3731SOL    HW112092   6.095   1.094   1.250 -0.5037 -0.8681 -1.3080
 3731SOL    HW212093   5.943   1.035   1.247 -0.1202 -2.1241  1.3076
 3732SOL     OW12094   4.242   2.609   1.044  0.2677 -0.2907 -0.3080
 3732SOL    HW112095   4.180   2.581   1.117  1.4098  0.0318  0.8115
 3732SOL    HW212096   4.321   2.656   1.083  0.0571  1.4836 -1.8787
 3733SOL     OW12097   0.337   2.544   4.821 -0.6276 -0.2652 -0.1938
 3733SOL    HW112098   0.428   2.544   4.780 -1.1141  0.8038 -1.3464
 3733SOL    HW212099   0.283   2.469   4.782 -0.6492 -0.0968 -0.4909
 3734SOL     OW12100   3.719   1.697   1.482  0.0389  0.1334 -0.2072
 3734SOL    HW112101   3.737   1.769   1.549 -1.8774  0.5802 -0.1325
 3734SOL    HW212102   3.677   1.737   1.400 -0.0577 -0.7557 -0.6046
 3735SOL     OW12103   5.613   6.784   2.151 -0.1289 -0.0978 -0.1186
 3735SOL    HW112104   5.584   6.840   2.228  1.1125  1.9777 -1.0886
 3735SOL    HW212105   5.534   6.735   2.114 -0.9554 -0.2148  1.6975
 3736SOL     OW12106   6.927   0.622   1.504 -0.3966 -0.0813  0.1465
 3736SOL    HW112107   6.909   0.692   1.435 -0.9135 -0.5259 -0.1794
 3736SOL    HW212108   6.910   0.660   1.595  2.3297  1.1881  0.2399
 3737SOL     OW12109   4.880   1.240   5.221  0.5213 -0.2871 -0.6617
 3737SOL    HW112110   4.822   1.322   5.224 -0.3689 -0.8770 -1.1812
 3737SOL    HW212111   4.946   1.249   5.147  0.6992  0.1356 -0.4545
 3738SOL     OW12112   1.238   1.059   1.044  0.2607 -0.7307  0.5793
 3738SOL    HW112113   1.146   1.092   1.020 -0.1973 -1.1196  1.7457
 3738SOL    HW212114   1.253   1.072   1.142  0.8167 -2.1830  0.7014
 3739SOL     OW12115   2.282   6.625   6.606  0.3224  0.3814 -0.0290
 3739SOL    HW112116   2.195   6.652   6.648  0.4931  0.8513  0.0330
 3739SOL    HW212117   2.347   6.602   6.678  0.4146  0.5458 -0.0613
 3740SOL     OW12118   5.141   0.428   0.629 -0.6298  0.0466 -0.1637
 3740SOL    HW112119   5.103   0.512   0.667 -0.3394 -0.1183  0.5101
 3740SOL    HW212120   5.189   0.448   0.543 -2.3306  0.2337 -1.1099
 3741SOL     OW12121   5.978   4.264   6.750 -0.1845 -0.1081  0.0840
 3741SOL    HW112122   5.938   4.225   6.834 -0.9972  2.2661  0.8766
 3741SOL    HW212123   6.068   4.302   6.771  0.0381 -0.3760 -0.3745
 3742SOL     OW12124   3.816   5.097   1.115 -0.7078 -0.5753  0.1934
 3742SOL    HW112125   3.879   5.120   1.041 -0.5916  1.5940  0.8979
 3742SOL    HW212126   3.866   5.089   1.201 -1.0106 -1.8965  0.2686
 3743SOL     OW12127   2.327   4.406   0.680  0.3975 -0.2102  0.1568
 3743SOL    HW112128   2.345   4.309   0.665 -0.1085 -0.7027  2.3516
 3743SOL    HW212129   2.413   4.457   0.673  0.4829 -0.5727 -2.2674
 3744SOL     OW12130   6.961   4.932   3.417  0.4072  0.1395  0.1439
 3744SOL    HW112131   6.966   4.836   3.391 -3.5486 -0.1563 -0.1645
 3744SOL    HW212132   6.995   4.944   3.510  1.4948 -1.4154 -0.0252
 3745SOL     OW12133   6.140   6.798   3.025 -0.0513 -0.3781 -0.4096
 3745SOL    HW112134   6.227   6.781   2.978  0.1373 -1.0849  0.1587
 3745SOL    HW212135   6.101   6.884   2.994  0.8774 -0.0250 -0.6466
 3746SOL     OW12136   5.950   6.828   6.206 -0.7310 -0.2464 -0.3919
 3746SOL    HW112137   5.946   6.755   6.139  0.2186 -0.9989  0.3463
 3746SOL    HW212138   6.000   6.906   6.168  0.0947 -0.7966 -0.4364
 3747SOL     OW12139   1.545   3.578   5.586  0.3157  0.1712 -0.1748
 3747SOL    HW112140   1.493   3.638   5.647 -0.6005 -0.4225 -0.3557
 3747SOL    HW212141   1.596   3.633   5.520  1.2309  0.8209  1.0398
 3748SOL     OW12142   4.733   6.900   1.871 -0.2608 -0.0767  0.4419
 3748SOL    HW112143   4.721   6.869   1.776  2.5230 -1.2906  0.4064
 3748SOL    HW212144   4.714   6.998   1.876 -0.7077 -0.0307 -1.2923
 3749SOL     OW12145   5.465   5.704   3.082 -0.1081  0.7889 -0.3056
 3749SOL    HW112146   5.381   5.755   3.099  0.5026  1.6027  0.3225
 3749SOL    HW212147   5.443   5.615   3.041 -1.3924  0.2766  1.4162
 3750SOL     OW12148   0.181   5.755   6.828 -0.1358 -0.1440 -0.4308
 3750SOL    HW112149   0.204   5.660   6.811  1.4346 -0.2178  1.8020
 3750SOL    HW212150   0.120   5.761   6.907 -1.5195  0.6412 -1.5040
 3751SOL     OW12151   0.398   5.020   1.698  0.3904 -0.1763 -0.1900
 3751SOL    HW112152   0.403   5.039   1.796  1.8524 -1.0405 -0.0653
 3751SOL    HW212153   0.445   5.091   1.647  0.9303 -0.4941 -0.1427
 3752SOL     OW12154   1.403   6.623   5.269  0.2853 -0.4476 -0.2942
 3752SOL    HW112155   1.390   6.721   5.287 -0.4888 -0.7079  0.6416
 3752SOL    HW212156   1.432   6.610   5.174 -0.3698  0.6365 -0.6635
 3753SOL     OW12157   0.394   2.290   6.287 -0.4117 -0.6059  0.0614
 3753SOL    HW112158   0.313   2.241   6.255  0.0906 -1.5138  0.1264
 3753SOL    HW212159   0.460   2.224   6.323  0.0066  0.1927  0.7937
 3754SOL     OW12160   0.301   6.824   4.366  0.5439  0.0455 -0.2093
 3754SOL    HW112161   0.288   6.728   4.345  0.4670 -0.0954  0.4723
 3754SOL    HW212162   0.221   6.876   4.334  1.7417  0.3161 -3.1189
 3755SOL     OW12163   4.443   1.640   2.620  0.0644 -0.2184  0.3756
 3755SOL    HW112164   4.435   1.541   2.623 -0.0389 -0.2020  0.8048
 3755SOL    HW212165   4.353   1.681   2.605 -0.4384 -0.1067  3.0823
 3756SOL     OW12166   4.941   5.606   2.413 -0.7846 -0.6635  0.3512
 3756SOL    HW112167   4.959   5.555   2.329 -0.5296 -0.8215  0.4995
 3756SOL    HW212168   5.015   5.589   2.478 -0.0894  0.8014 -0.0166
 3757SOL     OW12169   3.520   2.181   5.888 -0.1005  0.5218  0.0575
 3757SOL    HW112170   3.616   2.163   5.867 -0.1385  0.7404 -0.3150
 3757SOL    HW212171   3.514   2.249   5.961  0.0315  1.3028 -0.6350
 3758SOL     OW12172   2.370   0.232   0.870 -0.1529 -0.1231 -0.0965
 3758SOL    HW112173   2.372   0.213   0.772  0.3285  0.5428 -0.2248
 3758SOL    HW212174   2.451   0.285   0.895 -1.0599  1.1095  0.3568
 3759SOL     OW12175   6.970   3.704   0.483  0.2567  0.1773 -0.3014
 3759SOL    HW112176   6.938   3.798   0.481 -1.4923 -0.3732  0.2467
 3759SOL    HW212177   7.012   3.686   0.572 -2.9227 -0.5780  1.1975
 3760SOL     OW12178   3.230   2.304   6.155  0.5768 -0.7081  0.2049
 3760SOL    HW112179   3.282   2.376   6.202 -1.3109  1.2250 -0.5206
 3760SOL    HW212180   3.132   2.322   6.165  0.0629 -0.6740 -3.6976
 3761SOL     OW12181   0.780   6.938   3.894 -0.3699 -0.1829 -0.3751
 3761SOL    HW112182   0.831   6.853   3.911  0.2082  0.1591 -0.3467
 3761SOL    HW212183   0.764   6.949   3.796  1.2514  0.6076 -0.5883
 3762SOL     OW12184   0.745   2.009   2.255  0.1014  0.2688  0.2078
 3762SOL    HW112185   0.707   2.101   2.255 -2.5606 -0.7432  0.5649
 3762SOL    HW212186   0.804   1.997   2.175  1.5248  2.5833  0.8000
 3763SOL     OW12187   1.625   2.110   4.058 -0.2438 -0.3782  0.1453
 3763SOL    HW112188   1.630   2.206   4.086 -0.6655 -0.4910  0.6176
 3763SOL    HW212189   1.700   2.090   3.995 -1.5156  0.8925 -1.8951
 3764SOL     OW12190   2.318   5.949   2.360  0.4007 -0.3911 -0.2778
 3764SOL    HW112191   2.384   5.876   2.340 -0.3406 -0.5599 -2.3395
 3764SOL    HW212192   2.226   5.919   2.333  0.0292  1.1516 -0.8060
 3765SOL     OW12193   6.443   1.122   3.691 -0.7045  0.2661 -0.2462
 3765SOL    HW112194   6.458   1.048   3.625 -1.6988 -0.8339  0.6957
 3765SOL    HW212195   6.414   1.204   3.643  1.1922  0.3228 -1.4045
 3766SOL     OW12196   1.981   1.673   5.955  0.2502 -0.5771 -0.0476
 3766SOL    HW112197   2.072   1.631   5.947 -0.6134 -2.5939  0.1153
 3766SOL    HW212198   1.966   1.701   6.050  0.5011 -0.7602  0.0495
 3767SOL     OW12199   6.393   5.097   0.759 -0.4075  0.6913 -0.1329
 3767SOL    HW112200   6.314   5.147   0.723  1.6814  1.4830 -4.1955
 3767SOL    HW212201   6.439   5.050   0.684  2.8181  0.0033  2.0879
 3768SOL     OW12202   5.328   0.922   1.114 -0.0588  0.1028  0.7111
 3768SOL    HW112203   5.233   0.945   1.093 -0.1052 -0.9857 -0.3915
 3768SOL    HW212204   5.382   1.006   1.120 -0.9263  0.6900  0.5638
 3769SOL     OW12205   4.835   6.239   3.991  0.6152  0.0442  0.9512
 3769SOL    HW112206   4.865   6.272   3.901 -1.5446  0.6280  0.3714
 3769SOL    HW212207   4.795   6.148   3.982  1.7497 -0.5369  1.6148
 3770SOL     OW12208   0.206   4.281   5.850 -0.3350  0.3855  0.2000
 3770SOL    HW112209   0.233   4.196   5.896 -2.6260 -0.5532 -0.0593
 3770SOL    HW212210   0.226   4.274   5.753  1.7129  1.1674  0.5147
 3771SOL     OW12211   6.413   1.338   4.381 -0.1954  0.0701  0.3499
 3771SOL    HW112212   6.387   1.262   4.440 -0.6467  0.1285  0.2273
 3771SOL    HW212213   6.353   1.416   4.398 -0.4154  0.0433 -0.2773
 3772SOL     OW12214   3.924   0.025   2.466  0.1883  0.8139  0.3416
 3772SOL    HW112215   3.862   0.027   2.388 -0.4323 -1.3953  0.7036
 3772SOL    HW212216   3.872   0.028   2.551  0.5460 -0.5610  0.6446
 3773SOL     OW12217   6.806   3.190   2.153 -0.0091  0.0464 -0.0517
 3773SOL    HW112218   6.879   3.243   2.108  0.1206 -0.1200 -0.0359
 3773SOL    HW212219   6.845   3.110   2.198 -0.0718  0.4809  0.7906
 3774SOL     OW12220   4.337   6.757   2.107 -0.2259 -0.0145 -0.2191
 3774SOL    HW112221   4.312   6.826   2.175  0.3873 -0.2118  0.2093
 3774SOL    HW212222   4.325   6.666   2.146  0.0969 -0.1295 -0.3856
 3775SOL     OW12223   5.348   3.422   3.259 -0.2388 -0.5610 -0.0119
 3775SOL    HW112224   5.269   3.372   3.224 -0.8380  0.2644  0.1407
 3775SOL    HW212225   5.427   3.404   3.200 -0.2295 -2.2867  0.4831
 3776SOL     OW12226   3.109   3.723   6.622  0.4965  0.6793  0.9065
 3776SOL    HW112227   3.096   3.812   6.668 -1.0180  0.8280  0.2308
 3776SOL    HW212228   3.051   3.718   6.541  2.5552  0.1140 -0.6250
 3777SOL     OW12229   2.504   4.420   2.725  0.1011  0.0554 -0.4653
 3777SOL    HW112230   2.579   4.479   2.699 -1.3409  1.8570 -0.7272
 3777SOL    HW212231   2.482   4.435   2.822 -1.4342  1.3796 -0.9724
 3778SOL     OW12232   2.243   4.952   0.824  0.1787  0.0277 -0.3504
 3778SOL    HW112233   2.153   4.926   0.789  0.2399  0.5809 -0.9512
 3778SOL    HW212234   2.276   4.882   0.887 -0.0599 -0.8749 -1.2046
 3779SOL     OW12235   2.361   3.667   0.369 -0.1159 -0.1114 -0.2858
 3779SOL    HW112236   2.349   3.620   0.456  1.8645  2.5824  1.6318
 3779SOL    HW212237   2.409   3.608   0.304  0.2166 -1.4959  1.1740
 3780SOL     OW12238   3.414   5.467   2.898  0.0719  0.0165  0.0050
 3780SOL    HW112239   3.317   5.455   2.874 -0.0158 -1.6769  1.0411
 3780SOL    HW212240   3.462   5.380   2.890  1.6041  0.8849 -0.7218
 3781SOL     OW12241   3.189   5.411   3.746 -0.0140 -0.0027  0.2600
 3781SOL    HW112242   3.266   5.474   3.743  0.8043 -0.9720  0.5954
 3781SOL    HW212243   3.211   5.334   3.805 -1.2378 -0.3006  0.3521
 3782SOL     OW12244   2.346   2.271   2.569  0.3506 -0.4364 -0.0688
 3782SOL    HW112245   2.341   2.171   2.568  0.8298 -0.4617 -0.8886
 3782SOL    HW212246   2.422   2.302   2.512 -1.0497  0.4493 -1.5621
 3783SOL     OW12247   0.453   5.909   5.745  0.1532 -0.0327 -0.3299
 3783SOL    HW112248   0.462   5.890   5.843 -0.2964  0.4408 -0.1934
 3783SOL    HW212249   0.359   5.891   5.717  0.3184 -0.3102 -0.7088
 3784SOL     OW12250   5.419   2.900   3.485  0.5252 -0.0524 -0.2299
 3784SOL    HW112251   5.454   2.888   3.392 -0.8578 -1.8984 -0.5879
 3784SOL    HW212252   5.323   2.928   3.481  0.0178 -1.5367  0.5625
 3785SOL     OW12253   1.110   6.656   1.857  0.5193  0.2518 -0.7280
 3785SOL    HW112254   1.062   6.685   1.940  1.4586  0.8332 -0.3677
 3785SOL    HW212255   1.135   6.560   1.865 -0.0843  0.0953 -0.6796
 3786SOL     OW12256   3.706   5.234   2.280  0.2769 -0.5948 -0.0415
 3786SOL    HW112257   3.736   5.316   2.330  0.5911 -1.1429  0.6879
 3786SOL    HW212258   3.726   5.153   2.335 -2.1217 -1.0378  0.2626
 3787SOL     OW12259   1.458   2.319   4.249  0.1277 -0.4499 -0.1243
 3787SOL    HW112260   1.414   2.262   4.180 -1.4613  0.0569  0.4107
 3787SOL    HW212261   1.508   2.393   4.204 -1.1158  0.0430 -0.7676
 3788SOL     OW12262   0.504   1.216   1.658 -0.2049 -0.4048  0.4174
 3788SOL    HW112263   0.469   1.124   1.642  0.7411 -0.7511  0.2331
 3788SOL    HW212264   0.498   1.238   1.755  0.4372 -1.0511  0.6181
 3789SOL     OW12265   2.143   5.515   2.016 -0.3866 -0.4301  0.7923
 3789SOL    HW112266   2.126   5.598   1.963  0.2721 -0.4084  0.6068
 3789SOL    HW212267   2.055   5.475   2.044 -0.7659 -0.6313 -0.6049
 3790SOL     OW12268   1.742   2.719   5.280 -0.2636 -0.7288  0.4276
 3790SOL    HW112269   1.708   2.657   5.210  0.8157 -0.9243  0.0578
 3790SOL    HW212270   1.841   2.705   5.292 -0.5869 -1.4234  2.7223
 3791SOL     OW12271   5.645   6.508   2.560 -0.7007  0.2285  0.1196
 3791SOL    HW112272   5.556   6.465   2.573 -2.1414  3.5846  2.9841
 3791SOL    HW212273   5.676   6.550   2.645  3.4775 -0.2862 -0.8869
 3792SOL     OW12274   0.906   5.925   5.146  0.2644  0.4835 -0.3209
 3792SOL    HW112275   0.981   5.859   5.140 -1.1749 -1.1560 -1.0751
 3792SOL    HW212276   0.921   5.999   5.080  1.8820  0.9531  0.5122
 3793SOL     OW12277   0.370   5.627   2.992 -0.6627 -0.0002  0.0652
 3793SOL    HW112278   0.316   5.711   3.005 -1.1319 -0.1228 -0.9716
 3793SOL    HW212279   0.404   5.595   3.080  0.6769  2.0352  0.3511
 3794SOL     OW12280   4.768   5.463   3.812 -0.3370  0.3560 -0.3102
 3794SOL    HW112281   4.820   5.420   3.738 -1.5254 -0.3407 -0.7705
 3794SOL    HW212282   4.729   5.393   3.872 -1.5369  0.7870 -0.5430
 3795SOL     OW12283   4.917   0.720   2.086 -0.4197  0.6999 -0.2195
 3795SOL    HW112284   5.008   0.700   2.121 -0.6449 -0.0241 -0.0201
 3795SOL    HW212285   4.862   0.765   2.157 -0.2285  1.1200 -0.3342
 3796SOL     OW12286   0.780   2.157   0.232  0.2911  0.1065  0.8174
 3796SOL    HW112287   0.731   2.181   0.148  0.2409  0.7969  1.0365
 3796SOL    HW212288   0.786   2.238   0.291 -1.7686 -0.8689  2.5268
 3797SOL     OW12289   1.149   0.779   6.463 -0.0416  0.6177  0.3316
 3797SOL    HW112290   1.141   0.839   6.543  1.4700 -0.0210  1.0009
 3797SOL    HW212291   1.245   0.758   6.447 -0.5803 -2.7157  0.9325
 3798SOL     OW12292   0.883   4.859   6.619 -0.0167 -0.2289 -0.4901
 3798SOL    HW112293   0.945   4.783   6.641 -0.1781 -0.3167 -0.3290
 3798SOL    HW212294   0.797   4.822   6.582  0.1916 -0.0852 -1.1087
 3799SOL     OW12295   0.959   1.136   6.533 -0.5338  0.4941  0.0954
 3799SOL    HW112296   1.050   1.111   6.498 -0.4204 -0.1256  0.8068
 3799SOL    HW212297   0.937   1.229   6.504 -0.1271  0.2772 -0.9769
 3800SOL     OW12298   4.196   1.788   4.110 -0.8009 -0.5361  0.1985
 3800SOL    HW112299   4.237   1.697   4.113  0.3361 -0.0993 -1.0586
 3800SOL    HW212300   4.222   1.839   4.191  0.7042 -0.4839 -0.2771
 3801SOL     OW12301   5.835   1.007   5.015 -0.3837  0.1803 -0.2822
 3801SOL    HW112302   5.821   0.909   4.996 -3.3198  0.5478 -0.5557
 3801SOL    HW212303   5.886   1.049   4.941 -2.4383 -0.4609 -2.1518
 3802SOL     OW12304   1.365   2.688   4.257  0.4014 -0.0552 -0.6211
 3802SOL    HW112305   1.356   2.780   4.295  2.2465 -0.4157  0.7954
 3802SOL    HW212306   1.327   2.622   4.322  0.2588 -0.4030 -1.0551
 3803SOL     OW12307   3.852   6.619   1.415 -0.9908 -0.9132  0.3401
 3803SOL    HW112308   3.898   6.530   1.406  0.2480 -0.3812  1.1588
 3803SOL    HW212309   3.913   6.691   1.384 -0.9006 -0.1097  2.2482
 3804SOL     OW12310   4.780   5.225   6.919 -0.4235  0.1603  0.4723
 3804SOL    HW112311   4.806   5.302   6.977  1.3637 -0.2270  0.2517
 3804SOL    HW212312   4.709   5.171   6.965  0.7510  0.0167  2.1913
 3805SOL     OW12313   2.249   4.116   2.447  0.1488  0.5806 -0.4498
 3805SOL    HW112314   2.252   4.016   2.444  2.8405  0.5960 -1.7484
 3805SOL    HW212315   2.268   4.147   2.539  2.5043 -0.1593 -0.6255
 3806SOL     OW12316   4.888   5.669   2.005 -0.3868 -0.3211 -0.1012
 3806SOL    HW112317   4.982   5.657   2.037 -0.5227  0.3283  0.5694
 3806SOL    HW212318   4.886   5.741   1.935 -0.8156  2.1467  2.2797
 3807SOL     OW12319   2.345   6.965   4.213 -0.1367  0.2611 -0.0002
 3807SOL    HW112320   2.411   6.956   4.139  0.3907  1.2212  0.3402
 3807SOL    HW212321   2.375   7.036   4.276 -1.1621  0.2511  0.5207
 3808SOL     OW12322   3.945   0.791   1.422 -0.3630 -0.1762  0.0905
 3808SOL    HW112323   4.025   0.736   1.447 -0.0093 -0.4196 -1.4211
 3808SOL    HW212324   3.862   0.749   1.458  0.2519  0.7695  2.7806
 3809SOL     OW12325   4.157   1.369   0.977 -0.2306  0.4844 -0.3451
 3809SOL    HW112326   4.216   1.400   0.903 -0.7838  1.2142 -0.4807
 3809SOL    HW212327   4.082   1.314   0.939  0.7273 -1.0499 -0.1119
 3810SOL     OW12328   0.436   3.159   0.077  0.3196  0.1644 -0.8160
 3810SOL    HW112329   0.463   3.140  -0.017  1.1557  2.1253 -1.0221
 3810SOL    HW212330   0.515   3.193   0.128 -0.6651  1.4086 -0.0806
 3811SOL     OW12331   0.593   0.448   4.709 -0.5064  0.1530 -0.2307
 3811SOL    HW112332   0.512   0.425   4.654 -0.8192 -1.6290  0.8864
 3811SOL    HW212333   0.564   0.482   4.799 -0.1012 -2.1694  0.8412
 3812SOL     OW12334   3.836   6.905   5.707 -0.2369  0.0252  0.5879
 3812SOL    HW112335   3.790   6.834   5.654 -0.7068  0.8386 -0.1080
 3812SOL    HW212336   3.875   6.864   5.790 -2.8047 -0.5861  1.5808
 3813SOL     OW12337   3.508   5.104   1.816  0.0003  0.3233  0.2865
 3813SOL    HW112338   3.436   5.155   1.771  0.0535  0.3221  0.1998
 3813SOL    HW212339   3.499   5.113   1.915 -0.3432  0.0097  0.2854
 3814SOL     OW12340   1.061   5.048   1.018  0.1956 -0.0497 -0.6409
 3814SOL    HW112341   1.025   4.955   1.017 -1.7773  0.6166  1.4891
 3814SOL    HW212342   1.004   5.107   0.961 -0.3416  0.4336  0.3852
 3815SOL     OW12343   4.946   1.384   2.292  0.1364 -0.1265  0.0354
 3815SOL    HW112344   4.993   1.454   2.346 -0.6736  0.5297 -0.0959
 3815SOL    HW212345   4.990   1.375   2.203 -0.7401  1.4025 -0.5797
 3816SOL     OW12346   5.773   6.916   6.429 -0.6010  0.5611 -0.3273
 3816SOL    HW112347   5.850   6.865   6.391 -2.0886 -0.6144 -1.8986
 3816SOL    HW212348   5.732   6.865   6.504 -0.4554  0.7130 -0.1446
 3817SOL     OW12349   5.393   2.393   4.323 -0.0651  0.2484  0.2832
 3817SOL    HW112350   5.422   2.488   4.327  1.3515 -0.0712 -1.1229
 3817SOL    HW212351   5.369   2.370   4.228  0.0685 -0.9084  0.5136
 3818SOL     OW12352   4.620   5.670   3.688 -0.0438  0.0520 -0.6874
 3818SOL    HW112353   4.705   5.627   3.718  0.6491  1.5740 -0.3527
 3818SOL    HW212354   4.580   5.617   3.613  1.7665 -0.1253 -1.5835
 3819SOL     OW12355   5.918   0.563   6.507  0.5034  0.3729 -0.0102
 3819SOL    HW112356   5.861   0.629   6.556  1.8408  1.1739  0.4959
 3819SOL    HW212357   5.920   0.477   6.559 -1.0291 -0.0215 -0.5419
 3820SOL     OW12358   4.787   5.562   2.717 -0.2172  0.0405 -0.3754
 3820SOL    HW112359   4.731   5.496   2.667 -0.2273 -1.1562  1.1335
 3820SOL    HW212360   4.794   5.646   2.664  0.8696 -1.5708 -2.9917
 3821SOL     OW12361   1.643   2.409   2.401  0.1697  1.2644  0.0546
 3821SOL    HW112362   1.579   2.459   2.458  1.0113  1.0741  1.1975
 3821SOL    HW212363   1.721   2.380   2.456  0.4393  0.0387 -0.9275
 3822SOL     OW12364   1.732   3.371   1.227 -0.0844  0.9256 -0.3120
 3822SOL    HW112365   1.636   3.396   1.213  0.4047  3.4335  0.4323
 3822SOL    HW212366   1.738   3.303   1.300 -1.1767  2.7487  1.5885
 3823SOL     OW12367   1.445   3.758   5.761  0.2373  1.0015  0.0486
 3823SOL    HW112368   1.404   3.704   5.834 -0.2933 -0.3870 -1.2072
 3823SOL    HW212369   1.378   3.824   5.727 -0.4163 -0.0658 -0.8222
 3824SOL     OW12370   0.514   4.608   4.805  0.1976 -0.2250  0.6098
 3824SOL    HW112371   0.462   4.523   4.812 -2.2264  0.9984 -1.1714
 3824SOL    HW212372   0.477   4.674   4.871  1.9422 -0.4163  1.8492
 3825SOL     OW12373   6.759   6.264   4.495 -0.2763 -0.2686 -0.1274
 3825SOL    HW112374   6.701   6.328   4.545 -0.5602  0.4976 -1.3872
 3825SOL    HW212375   6.850   6.263   4.535 -0.6007  0.0141  0.6418
 3826SOL     OW12376   0.782   1.659   1.743  0.3142 -0.2369  0.2897
 3826SOL    HW112377   0.786   1.666   1.644  0.0351 -1.9763  0.1190
 3826SOL    HW212378   0.720   1.728   1.779  0.1538  0.1919 -0.7788
 3827SOL     OW12379   5.551   1.458   1.756 -0.1320 -0.3519 -0.6904
 3827SOL    HW112380   5.475   1.522   1.766 -0.6602 -0.7959 -1.6346
 3827SOL    HW212381   5.602   1.452   1.841 -2.0415 -1.1446  0.4632
 3828SOL     OW12382   4.608   1.372   1.656  0.3196 -0.5308  0.2319
 3828SOL    HW112383   4.558   1.294   1.694 -1.4346  0.0545 -0.7767
 3828SOL    HW212384   4.582   1.385   1.560  1.1204  0.8682  0.1726
 3829SOL     OW12385   6.745   3.220   3.748 -0.0658  0.2665  0.2953
 3829SOL    HW112386   6.756   3.147   3.816  0.5689  0.9645  0.9568
 3829SOL    HW212387   6.827   3.224   3.691  0.5425  1.4272  1.2249
 3830SOL     OW12388   2.474   0.330   6.162 -0.6040 -0.0712  0.0763
 3830SOL    HW112389   2.398   0.378   6.119 -0.9664 -0.8964 -0.2163
 3830SOL    HW212390   2.473   0.346   6.260 -1.2622 -0.2221  0.0958
 3831SOL     OW12391   5.379   1.932   1.903  0.7771 -0.4796  0.8473
 3831SOL    HW112392   5.420   1.999   1.842 -0.1938 -0.8565 -0.2627
 3831SOL    HW212393   5.321   1.979   1.970  1.2513 -0.1229  1.0183
 3832SOL     OW12394   6.618   6.848   3.003  0.0337 -0.4326  0.5661
 3832SOL    HW112395   6.548   6.920   3.010  0.7246  0.1213  2.4579
 3832SOL    HW212396   6.675   6.864   2.923 -0.7663  0.2488  0.1157
 3833SOL     OW12397   0.316   6.231   1.076  0.0513  0.4438  0.5235
 3833SOL    HW112398   0.300   6.229   0.977  2.8724  0.5902 -0.0332
 3833SOL    HW212399   0.240   6.276   1.121 -1.5614 -0.0665 -1.4972
 3834SOL     OW12400   3.089   4.938   0.002  0.7280  0.0983 -0.5022
 3834SOL    HW112401   3.168   4.879  -0.014  0.6296 -0.4451  0.9075
 3834SOL    HW212402   3.006   4.894  -0.033  0.9666  0.4920 -1.6153
 3835SOL     OW12403   3.668   4.887   0.694 -0.6637 -0.1688  0.5342
 3835SOL    HW112404   3.724   4.942   0.631 -0.1935  0.1622  1.2189
 3835SOL    HW212405   3.665   4.793   0.663 -0.8687  0.0937 -0.2646
 3836SOL     OW12406   3.249   2.985   0.674 -0.2977  0.5045 -0.1503
 3836SOL    HW112407   3.304   2.938   0.743 -0.2950  0.2258 -0.3410
 3836SOL    HW212408   3.296   3.069   0.647  0.3340 -0.0262 -0.7420
 3837SOL     OW12409   2.773   3.407   6.694  0.3076 -0.1688 -0.8374
 3837SOL    HW112410   2.755   3.388   6.598 -0.6161  0.9498 -0.8932
 3837SOL    HW212411   2.704   3.469   6.730  1.2615  0.2937  0.2653
 3838SOL     OW12412   1.123   4.980   4.855  0.7484 -0.7541  0.0863
 3838SOL    HW112413   1.067   4.899   4.837 -1.5506  0.2697  1.9438
 3838SOL    HW212414   1.118   5.042   4.777  0.4005 -1.2670 -0.3092
 3839SOL     OW12415   0.853   6.969   6.137 -0.4763 -0.3165 -0.1159
 3839SOL    HW112416   0.812   7.025   6.209 -0.1912  1.8181 -1.5206
 3839SOL    HW212417   0.940   7.009   6.109 -0.8122 -0.8022 -1.9712
 3840SOL     OW12418   2.411   2.273   3.495 -0.1644  0.4404 -0.0282
 3840SOL    HW112419   2.455   2.199   3.443  1.5441  2.1988 -1.2485
 3840SOL    HW212420   2.479   2.344   3.516 -2.0733  2.5621 -0.5852
 3841SOL     OW12421   0.259   1.292   2.826 -0.1248 -0.4251  0.5183
 3841SOL    HW112422   0.340   1.307   2.882  0.6013 -0.7985 -0.3969
 3841SOL    HW212423   0.219   1.380   2.800  1.4719 -0.1158 -1.1012
 3842SOL     OW12424   6.999   4.427   6.735 -0.3600 -0.1612 -0.2449
 3842SOL    HW112425   6.981   4.442   6.832 -1.6096  0.1224 -0.5058
 3842SOL    HW212426   6.944   4.350   6.702 -0.7479  0.4221 -0.9734
 3843SOL     OW12427   6.794   4.191   6.850  0.4932  0.4132 -0.6092
 3843SOL    HW112428   6.751   4.160   6.766  1.6111  0.3315 -1.1693
 3843SOL    HW212429   6.855   4.119   6.885  1.5755  1.1867 -0.8386
 3844SOL     OW12430   2.944   3.487   4.422 -0.3780 -0.1626  0.2446
 3844SOL    HW112431   2.955   3.586   4.415 -2.0927 -0.0012 -0.4744
 3844SOL    HW212432   2.909   3.451   4.335 -1.3499 -1.1603  1.0242
 3845SOL     OW12433   3.577   3.743   3.609 -0.3487 -0.4239 -0.1231
 3845SOL    HW112434   3.496   3.752   3.552 -2.8598  0.4100  3.2080
 3845SOL    HW212435   3.594   3.830   3.658  0.0272 -1.7313  2.2468
 3846SOL     OW12436   6.964   2.132   4.739  0.1265 -0.0513  0.1356
 3846SOL    HW112437   6.958   2.036   4.766  2.5921 -0.6886 -1.2506
 3846SOL    HW212438   6.876   2.162   4.703 -0.1847 -2.4591 -1.3458
 3847SOL     OW12439   5.633   6.232   0.161  0.4636 -0.7950 -0.1036
 3847SOL    HW112440   5.619   6.134   0.169  2.8563 -1.2418 -0.7897
 3847SOL    HW212441   5.671   6.254   0.072 -1.5917  1.0183 -0.6375
 3848SOL     OW12442   1.311   6.935   2.003  0.2040  0.7796  0.0301
 3848SOL    HW112443   1.310   6.957   2.100 -1.0613  1.4053 -0.0973
 3848SOL    HW212444   1.275   6.842   1.989 -0.7092  1.1162  0.0853
 3849SOL     OW12445   3.218   1.132   4.942 -0.4506  0.3517  0.5131
 3849SOL    HW112446   3.245   1.087   4.857 -0.1743 -1.5684  1.5532
 3849SOL    HW212447   3.262   1.086   5.019 -1.4669  1.4154  1.7807
 3850SOL     OW12448   2.762   2.397   3.006  0.1759 -0.4190 -0.1226
 3850SOL    HW112449   2.745   2.450   3.089  1.6737  1.1686 -0.7542
 3850SOL    HW212450   2.701   2.427   2.933 -1.3770 -2.0502  0.4383
 3851SOL     OW12451   1.249   2.835   6.601  0.1677 -0.2953 -0.0036
 3851SOL    HW112452   1.293   2.747   6.582 -0.3748 -0.1260 -2.3938
 3851SOL    HW212453   1.152   2.830   6.576  0.1823  1.0374 -0.3804
 3852SOL     OW12454   4.554   2.022   0.290  0.1112  0.1929  0.0271
 3852SOL    HW112455   4.580   2.114   0.263 -1.2561  0.7825  0.6412
 3852SOL    HW212456   4.624   1.983   0.350  0.4334  1.0527  0.2150
 3853SOL     OW12457   5.907   3.579   4.020 -0.0097  0.2284  0.1638
 3853SOL    HW112458   5.996   3.604   4.058  0.6947 -1.0998 -0.5554
 3853SOL    HW212459   5.903   3.607   3.924 -0.4238  0.3612  0.2143
 3854SOL     OW12460   1.000   5.334   5.656  0.0378  0.7520 -0.2976
 3854SOL    HW112461   1.080   5.293   5.700 -0.3991 -0.0704 -0.2441
 3854SOL    HW212462   1.028   5.387   5.577  0.8469  2.2951  0.9810
 3855SOL     OW12463   5.844   2.419   6.365  0.7975 -0.2942  0.4066
 3855SOL    HW112464   5.800   2.509   6.374 -1.0924 -1.2351  1.2243
 3855SOL    HW212465   5.915   2.423   6.294 -0.8685  1.2761 -1.2964
 3856SOL     OW12466   1.434   6.553   4.994 -1.0156 -0.4721  0.6982
 3856SOL    HW112467   1.512   6.540   4.934 -1.1444 -0.2680  0.4826
 3856SOL    HW212468   1.350   6.556   4.939 -1.1008  0.0522  0.8482
 3857SOL     OW12469   6.519   5.631   0.380 -0.0970 -0.3306  0.0274
 3857SOL    HW112470   6.578   5.662   0.455  0.1124 -0.6365 -0.0106
 3857SOL    HW212471   6.428   5.609   0.416  0.0829 -0.7432  0.2407
 3858SOL     OW12472   3.231   5.797   5.959 -0.1426 -0.4973 -0.1635
 3858SOL    HW112473   3.177   5.881   5.961 -0.3969 -0.6308 -1.1669
 3858SOL    HW212474   3.185   5.726   6.011  0.1304  0.0002  0.7958
 3859SOL     OW12475   0.012   1.631   1.257 -0.4456  0.0555  0.1051
 3859SOL    HW112476  -0.006   1.600   1.351 -0.8491  0.4992  0.1800
 3859SOL    HW212477   0.059   1.719   1.260 -1.0628  0.3940 -0.1107
 3860SOL     OW12478   2.625   4.615   3.365  0.2464 -0.5816  0.1135
 3860SOL    HW112479   2.556   4.578   3.428  0.4587 -0.7536  0.2451
 3860SOL    HW212480   2.642   4.711   3.387  0.4519 -0.6917  0.4335
 3861SOL     OW12481   4.509   3.139   6.775 -1.1479  0.7314 -0.0362
 3861SOL    HW112482   4.478   3.125   6.681 -0.3162 -1.0682 -0.0882
 3861SOL    HW212483   4.439   3.188   6.826 -1.9762  0.9810 -1.3557
 3862SOL     OW12484   6.860   5.642   6.072 -0.3303  0.1393  0.5840
 3862SOL    HW112485   6.908   5.596   5.997 -0.0881  0.4712  0.5314
 3862SOL    HW212486   6.927   5.671   6.141 -0.5204  0.0958  0.7888
 3863SOL     OW12487   0.659   3.766   1.885  0.0063  0.2110 -0.0905
 3863SOL    HW112488   0.560   3.754   1.894 -0.1060  1.5280  0.6730
 3863SOL    HW212489   0.705   3.682   1.913 -0.8640 -0.1083  0.4259
 3864SOL     OW12490   4.725   4.044   1.453 -0.3220 -0.3620  0.2787
 3864SOL    HW112491   4.657   4.094   1.401  0.7429  0.5785 -0.2490
 3864SOL    HW212492   4.712   4.061   1.551 -0.9455 -0.3506  0.1991
 3865SOL     OW12493   4.424   0.956   1.209 -0.4713  0.3364 -0.5955
 3865SOL    HW112494   4.456   0.863   1.193  0.0195  0.5766 -1.0096
 3865SOL    HW212495   4.350   0.954   1.277  0.5146 -0.2029  0.4976
 3866SOL     OW12496   3.989   6.665   5.317 -0.2731  0.0745  0.2354
 3866SOL    HW112497   4.022   6.757   5.296 -0.0219  0.7353  3.0742
 3866SOL    HW212498   4.010   6.644   5.413 -0.7570 -2.7761 -0.2097
 3867SOL     OW12499   3.609   5.905   3.123 -0.4946  0.3308 -0.2253
 3867SOL    HW112500   3.578   5.988   3.168 -1.0988 -0.0831  0.1380
 3867SOL    HW212501   3.705   5.914   3.098 -0.0090  0.3983  1.5552
 3868SOL     OW12502   3.316   6.069   3.240 -0.1970 -0.3535  0.4832
 3868SOL    HW112503   3.402   6.071   3.292 -0.0021 -1.7916  0.2523
 3868SOL    HW212504   3.267   5.984   3.259 -1.1234  0.0345 -0.1069
 3869SOL     OW12505   0.537   1.407   2.867 -0.1346  0.1120 -0.2602
 3869SOL    HW112506   0.618   1.454   2.901 -1.2381  0.9298  1.3436
 3869SOL    HW212507   0.516   1.438   2.774  0.6570  0.8354 -0.2003
 3870SOL     OW12508   4.016   2.655   5.695 -0.2926 -0.1782 -0.3770
 3870SOL    HW112509   3.998   2.584   5.762 -3.7469 -0.0553 -0.9895
 3870SOL    HW212510   4.018   2.615   5.603  2.4433 -0.0615 -0.4499
 3871SOL     OW12511   1.616   1.094   2.852 -0.2641  0.0247 -0.1554
 3871SOL    HW112512   1.649   1.187   2.842 -1.8486  0.4952 -1.6405
 3871SOL    HW212513   1.600   1.073   2.948 -0.5761  1.5316  0.1324
 3872SOL     OW12514   4.632   3.058   1.302 -0.4920 -0.5160  0.3610
 3872SOL    HW112515   4.563   3.090   1.367  0.4695  0.5065  0.9220
 3872SOL    HW212516   4.706   3.126   1.296 -0.3737 -0.7473 -1.5269
 3873SOL     OW12517   0.751   5.542   2.443 -0.1374  0.0798  0.3451
 3873SOL    HW112518   0.736   5.493   2.529 -1.0871 -3.1180 -1.4955
 3873SOL    HW212519   0.849   5.539   2.421 -0.2486 -1.9871 -0.1530
 3874SOL     OW12520   5.398   7.000   3.734 -1.0259  0.2770  0.4918
 3874SOL    HW112521   5.416   7.099   3.741 -1.9734  0.4112  1.3652
 3874SOL    HW212522   5.364   6.967   3.822 -2.9030 -0.3671 -0.4196
 3875SOL     OW12523   4.860   2.762   6.760  0.0509  0.3619 -0.0447
 3875SOL    HW112524   4.905   2.723   6.679  0.8402 -0.2348  0.6618
 3875SOL    HW212525   4.860   2.862   6.753  0.3623  0.3268 -0.6500
 3876SOL     OW12526   6.130   5.619   3.920 -0.8028 -0.3369  0.0906
 3876SOL    HW112527   6.044   5.643   3.965 -0.9718 -1.1682  0.2352
 3876SOL    HW212528   6.113   5.543   3.856 -0.6459  0.9946 -1.6257
 3877SOL     OW12529   6.204   2.954   3.048 -0.5849  0.1030  0.0438
 3877SOL    HW112530   6.199   2.930   2.951 -1.4637  0.2360  0.0394
 3877SOL    HW212531   6.212   2.871   3.103  1.0813  0.0917 -0.1904
 3878SOL     OW12532   0.801   3.941   5.254  0.2839 -0.4550 -0.1939
 3878SOL    HW112533   0.768   3.958   5.161 -1.2088  0.0551  0.3997
 3878SOL    HW212534   0.786   4.022   5.310  1.0431 -0.8009  0.5310
 3879SOL     OW12535   3.559   5.729   1.084 -0.1032 -0.1721 -0.0274
 3879SOL    HW112536   3.553   5.820   1.126  0.7660 -0.7741  1.4888
 3879SOL    HW212537   3.644   5.722   1.031  0.0733 -0.2520  0.2630
 3880SOL     OW12538   4.632   1.335   3.045  0.3227 -0.6742 -0.6698
 3880SOL    HW112539   4.654   1.430   3.069  1.0885 -1.0682  0.2755
 3880SOL    HW212540   4.638   1.324   2.946 -1.8549  0.7468 -1.0191
 3881SOL     OW12541   0.364   6.786   0.003 -0.7286 -0.0734 -0.3068
 3881SOL    HW112542   0.406   6.810  -0.085 -1.1663 -1.2730 -0.8737
 3881SOL    HW212543   0.268   6.762  -0.012 -0.2293 -2.6365  0.0511
 3882SOL     OW12544   0.121   3.800   6.337  0.2175  0.2932  0.3124
 3882SOL    HW112545   0.185   3.787   6.261  0.6814  0.8713  0.5960
 3882SOL    HW212546   0.155   3.754   6.419 -1.3734 -2.2767 -0.3566
 3883SOL     OW12547   5.020   2.260   0.310  0.3090 -0.2888  0.0310
 3883SOL    HW112548   4.944   2.301   0.259 -0.4204 -1.3530  0.2467
 3883SOL    HW212549   5.022   2.296   0.403  0.5641  0.3225 -0.2008
 3884SOL     OW12550   1.683   6.993   6.425 -0.5793  0.6278  0.5419
 3884SOL    HW112551   1.631   7.077   6.436  0.1922  1.2524 -0.4470
 3884SOL    HW212552   1.781   7.013   6.428 -0.3821 -0.3199  0.9105
 3885SOL     OW12553   5.825   0.804   4.604  0.1193  0.2323 -0.0860
 3885SOL    HW112554   5.834   0.897   4.568  0.9357 -0.2031 -1.0619
 3885SOL    HW212555   5.886   0.743   4.554  1.4923 -0.3895  2.1616
 3886SOL     OW12556   0.804   4.836   4.223  0.9680 -0.5590 -0.0504
 3886SOL    HW112557   0.878   4.797   4.168  0.8470  0.5925 -1.0765
 3886SOL    HW212558   0.719   4.787   4.203  1.4665 -2.0768  1.3484
 3887SOL     OW12559   0.392   2.141   5.515  0.7894 -0.4730  0.1031
 3887SOL    HW112560   0.355   2.055   5.549  3.7950 -0.6766  3.4889
 3887SOL    HW212561   0.482   2.126   5.475  0.5090  0.8999 -1.1693
 3888SOL     OW12562   6.112   0.350   1.845  0.0582 -0.2403  0.8335
 3888SOL    HW112563   6.148   0.444   1.846  1.4777 -0.7027 -0.9280
 3888SOL    HW212564   6.130   0.307   1.934 -1.7100  1.4720  2.1171
 3889SOL     OW12565   6.136   5.806   6.832 -0.1059  0.1450 -0.0153
 3889SOL    HW112566   6.103   5.759   6.750 -0.5018 -2.4837  1.5331
 3889SOL    HW212567   6.064   5.808   6.901  0.4307  1.7237  0.5586
 3890SOL     OW12568   6.491   2.607   4.804  0.6631 -0.9159 -0.2772
 3890SOL    HW112569   6.434   2.539   4.851 -0.2162 -0.0543 -0.0720
 3890SOL    HW212570   6.586   2.576   4.805  0.1033 -2.9157 -1.5642
 3891SOL     OW12571   2.591   3.549   5.647  0.7500  0.0809  0.1133
 3891SOL    HW112572   2.667   3.534   5.583 -0.0964 -1.1097 -0.6574
 3891SOL    HW212573   2.612   3.503   5.733  1.4638  0.8653  0.3773
 3892SOL     OW12574   5.389   4.788   4.699 -0.3260 -0.0788 -0.6915
 3892SOL    HW112575   5.383   4.857   4.771 -0.6565 -0.9327  0.1160
 3892SOL    HW212576   5.336   4.818   4.620  0.7865  1.3022 -0.9619
 3893SOL     OW12577   4.817   4.923   5.158  0.5586  0.0601  0.3734
 3893SOL    HW112578   4.892   4.966   5.210 -0.3374  0.7168  1.1526
 3893SOL    HW212579   4.768   4.860   5.218 -0.5927  0.9468  0.3931
 3894SOL     OW12580   6.047   5.918   6.396  0.8591 -0.5086 -0.2883
 3894SOL    HW112581   6.075   5.917   6.300  0.2244 -0.7550 -0.4715
 3894SOL    HW212582   6.034   6.012   6.425  1.5980 -0.4011 -0.2788
 3895SOL     OW12583   6.624   0.872   5.711 -0.2638 -0.0613 -0.1569
 3895SOL    HW112584   6.703   0.876   5.772  0.3728 -1.1144 -0.8680
 3895SOL    HW212585   6.655   0.853   5.618 -1.4024 -1.8957 -0.2199
 3896SOL     OW12586   5.748   4.230   1.126  0.2612 -0.8307 -0.0929
 3896SOL    HW112587   5.664   4.241   1.073  0.4922 -1.6314 -0.6415
 3896SOL    HW212588   5.744   4.289   1.207 -1.7146 -2.3227  0.9764
 3897SOL     OW12589   3.825   1.362   2.977  0.1283 -0.4831  0.1855
 3897SOL    HW112590   3.885   1.361   3.057  0.6418 -1.2756 -0.2049
 3897SOL    HW212591   3.736   1.323   3.003  0.1579 -0.3702  0.4665
 3898SOL     OW12592   3.632   3.779   2.255  0.6761 -0.2780 -0.0920
 3898SOL    HW112593   3.588   3.762   2.344  2.3083 -0.1895  0.7727
 3898SOL    HW212594   3.594   3.717   2.187 -1.2908  0.2737  0.4069
 3899SOL     OW12595   2.519   0.227   5.696  0.4145 -0.6450 -0.1158
 3899SOL    HW112596   2.457   0.170   5.641 -2.8820  1.5407  0.9849
 3899SOL    HW212597   2.529   0.185   5.787  0.6665 -1.0821 -0.3430
 3900SOL     OW12598   0.809   4.017   2.878  0.4425 -0.1087 -0.0719
 3900SOL    HW112599   0.767   4.031   2.789  1.5826  0.3255 -0.5612
 3900SOL    HW212600   0.850   3.926   2.882  0.9913  0.1280 -0.2492
 3901SOL     OW12601   3.696   5.823   2.692 -0.6683 -0.5564 -0.2709
 3901SOL    HW112602   3.784   5.867   2.712 -2.1144  2.0717  0.6864
 3901SOL    HW212603   3.695   5.793   2.597  0.4890  1.2990 -0.9143
 3902SOL     OW12604   6.328   2.854   2.644  0.7815 -0.3612  0.2708
 3902SOL    HW112605   6.254   2.865   2.710  0.5556  0.9073 -0.1766
 3902SOL    HW212606   6.344   2.940   2.596  3.7959 -0.0316  1.6160
 3903SOL     OW12607   3.265   4.815   6.744 -0.2075 -0.0024  0.1107
 3903SOL    HW112608   3.230   4.761   6.667  1.4170 -0.2284 -0.5059
 3903SOL    HW212609   3.236   4.910   6.733  0.1612  0.0036 -0.8942
 3904SOL     OW12610   2.754   6.092   0.022  0.1703  0.2690  0.8067
 3904SOL    HW112611   2.761   5.994   0.042  0.5926  0.5351  2.0705
 3904SOL    HW212612   2.811   6.114  -0.057 -0.7385 -0.6622 -0.1443
 3905SOL     OW12613   3.143   5.240   4.248  0.0654 -0.0482  0.0864
 3905SOL    HW112614   3.186   5.212   4.334  0.8477  2.3642  0.5379
 3905SOL    HW212615   3.118   5.336   4.252 -0.5212 -0.0356 -2.1657
 3906SOL     OW12616   0.705   5.464   4.194 -0.0013  0.4531  0.0074
 3906SOL    HW112617   0.798   5.494   4.214 -0.3945  1.1522  0.8288
 3906SOL    HW212618   0.686   5.479   4.097  0.7084  0.3878 -0.1490
 3907SOL     OW12619   0.845   1.359   2.395 -0.7145  0.4344 -0.4399
 3907SOL    HW112620   0.822   1.421   2.470  0.7015 -0.2593  0.6441
 3907SOL    HW212621   0.890   1.409   2.321 -2.4233  1.1837 -1.0029
 3908SOL     OW12622   1.266   2.611   5.116 -0.1839  0.4899  0.0273
 3908SOL    HW112623   1.255   2.513   5.133  0.4535  0.2567 -0.8426
 3908SOL    HW212624   1.266   2.660   5.203  1.9961 -0.5378  0.6679
 3909SOL     OW12625   7.003   2.102   2.980 -0.0664  0.1984  0.0760
 3909SOL    HW112626   7.066   2.162   3.028 -0.0894  0.3140 -0.0366
 3909SOL    HW212627   6.916   2.097   3.029 -0.5445  1.3449 -0.6289
 3910SOL     OW12628   2.631   2.994   0.759  0.0949 -0.4280 -1.0983
 3910SOL    HW112629   2.707   3.009   0.695  1.3688  1.5623  0.7347
 3910SOL    HW212630   2.613   3.079   0.809  0.2809 -2.2356  2.3224
 3911SOL     OW12631   5.788   1.137   2.801  0.6461 -0.8563 -0.0903
 3911SOL    HW112632   5.808   1.212   2.738  1.3543  0.4226  1.5694
 3911SOL    HW212633   5.747   1.061   2.751 -2.2647  1.4610 -1.5806
 3912SOL     OW12634   0.332   6.230   6.053  0.9998  0.3837 -0.3800
 3912SOL    HW112635   0.273   6.225   5.972  2.0520  0.8781 -1.1997
 3912SOL    HW212636   0.428   6.224   6.026  1.3508 -1.6496  1.0451
 3913SOL     OW12637   5.228   4.492   1.673 -0.0628  0.0606 -0.5405
 3913SOL    HW112638   5.293   4.565   1.696  0.2818 -0.1452 -0.8387
 3913SOL    HW212639   5.139   4.531   1.654  0.2876  0.4701 -1.3658
 3914SOL     OW12640   1.825   0.211   0.371 -0.2130 -0.0488 -0.3892
 3914SOL    HW112641   1.917   0.197   0.406 -0.7276  0.5207  1.3061
 3914SOL    HW212642   1.806   0.309   0.365 -0.6805 -0.1596 -0.7915
 3915SOL     OW12643   6.248   5.833   3.260 -0.0725  0.2680 -0.5175
 3915SOL    HW112644   6.341   5.851   3.230 -0.2596 -0.5724 -1.6740
 3915SOL    HW212645   6.249   5.788   3.349  0.5628  1.3394  0.0359
 3916SOL     OW12646   0.002   2.212   2.122  0.6581 -0.7198  0.4760
 3916SOL    HW112647   0.006   2.165   2.210 -1.7920  0.0068  1.0568
 3916SOL    HW212648  -0.078   2.179   2.071 -0.9737  2.4220  0.7606
 3917SOL     OW12649   2.972   5.184   2.095  0.2997 -0.0113 -0.1720
 3917SOL    HW112650   3.029   5.142   2.165 -0.0690  0.2898  0.3144
 3917SOL    HW212651   2.887   5.217   2.136 -0.6476 -1.2562 -1.0298
 3918SOL     OW12652   1.132   6.711   6.729 -0.2010  0.2458 -0.1789
 3918SOL    HW112653   1.058   6.693   6.664  1.4442 -1.2517 -1.7628
 3918SOL    HW212654   1.115   6.661   6.814 -1.0682  0.0148 -0.4796
 3919SOL     OW12655   4.178   4.998   4.021 -0.1347 -0.3240  0.1229
 3919SOL    HW112656   4.155   5.032   3.930 -0.5145 -0.5428  0.1358
 3919SOL    HW212657   4.187   4.899   4.019  3.2472 -0.0996 -0.4184
 3920SOL     OW12658   5.132   6.955   5.233  0.1279  0.2920 -0.0197
 3920SOL    HW112659   5.139   7.053   5.251 -1.1342  0.5119 -0.5690
 3920SOL    HW212660   5.214   6.923   5.187 -0.4876  1.6587 -2.2166
 3921SOL     OW12661   2.391   4.121   6.462  0.3369 -0.1139 -0.0048
 3921SOL    HW112662   2.424   4.213   6.481 -1.3773  0.9232 -1.7853
 3921SOL    HW212663   2.416   4.095   6.368  1.3654 -1.7552  0.6759
 3922SOL     OW12664   5.975   2.046   4.217  0.3644 -0.1601 -0.1160
 3922SOL    HW112665   5.919   1.997   4.284  0.9893 -0.8711 -0.1002
 3922SOL    HW212666   6.046   1.985   4.182 -0.0612  0.1406 -1.5709
 3923SOL     OW12667   0.529   0.868   2.006 -0.0186  0.0039  0.0356
 3923SOL    HW112668   0.525   0.780   2.052 -1.2648 -1.0288 -1.8919
 3923SOL    HW212669   0.535   0.853   1.907  0.9103  2.1043 -0.2784
 3924SOL     OW12670   4.862   4.892   3.354  0.2209 -0.4335 -0.5360
 3924SOL    HW112671   4.872   4.976   3.408 -2.3993  0.0670 -0.7058
 3924SOL    HW212672   4.944   4.879   3.298  0.4951  2.3177 -0.9136
 3925SOL     OW12673   3.026   3.930   0.804  0.7444  0.1530  0.5286
 3925SOL    HW112674   2.928   3.916   0.791  0.8138  0.3612 -0.2492
 3925SOL    HW212675   3.040   4.010   0.862  0.4708  0.9724 -0.5044
 3926SOL     OW12676   1.067   0.120   6.083  0.2029 -0.5837  0.0741
 3926SOL    HW112677   1.056   0.219   6.075  0.5431 -0.5791 -0.3764
 3926SOL    HW212678   1.155   0.093   6.044  0.7941 -0.8854  1.5587
 3927SOL     OW12679   5.735   6.796   5.890 -0.3822 -0.4101 -0.1217
 3927SOL    HW112680   5.746   6.714   5.946 -3.2847 -1.2248 -0.5636
 3927SOL    HW212681   5.744   6.877   5.947 -0.8513 -1.1503  1.0363
 3928SOL     OW12682   3.871   5.077   1.407  0.7050 -0.1364 -0.1097
 3928SOL    HW112683   3.927   5.113   1.481  1.0396 -0.8540 -0.0025
 3928SOL    HW212684   3.838   4.985   1.432 -1.8844  0.8668  0.5456
 3929SOL     OW12685   2.127   1.900   6.378  0.3229  0.4143  0.3601
 3929SOL    HW112686   2.067   1.854   6.444  0.3244 -0.0963  0.0148
 3929SOL    HW212687   2.222   1.875   6.397  0.4032  0.9591  0.6999
 3930SOL     OW12688   1.660   5.873   5.192  0.2724 -0.2291  0.1983
 3930SOL    HW112689   1.566   5.887   5.159  1.0472  1.8805 -1.2657
 3930SOL    HW212690   1.707   5.808   5.133 -0.6451 -2.5021  1.8218
 3931SOL     OW12691   0.977   1.476   1.849 -0.4108  0.0498 -0.4339
 3931SOL    HW112692   0.939   1.552   1.796 -0.5053 -1.1358 -2.1008
 3931SOL    HW212693   0.910   1.402   1.855 -0.2322 -0.0295  0.9962
 3932SOL     OW12694   0.746   4.311   1.779 -0.2708 -0.2784  0.5015
 3932SOL    HW112695   0.692   4.372   1.836  0.1602 -0.6978  1.3859
 3932SOL    HW212696   0.708   4.308   1.687 -0.9809  0.4133  0.7659
 3933SOL     OW12697   1.000   2.236   0.643 -0.0134  0.6769 -0.4805
 3933SOL    HW112698   0.964   2.151   0.605  1.7629  0.1338 -1.0604
 3933SOL    HW212699   1.032   2.221   0.736 -1.7595  1.3030  0.2502
 3934SOL     OW12700   2.366   6.144   6.799 -0.0705 -0.1047  0.0722
 3934SOL    HW112701   2.450   6.124   6.746 -0.7271 -3.1506 -0.0035
 3934SOL    HW212702   2.386   6.139   6.896  0.1048  0.6195  0.0811
 3935SOL     OW12703   0.011   1.578   3.941 -0.2272 -0.1371  0.1156
 3935SOL    HW112704  -0.011   1.504   4.004 -0.1730 -0.2781 -0.0293
 3935SOL    HW212705   0.110   1.594   3.942 -0.1608 -0.4959 -0.3236
 3936SOL     OW12706   0.172   3.933   4.006 -0.0158  0.0485 -0.2868
 3936SOL    HW112707   0.221   3.934   4.093 -0.1062  0.1175 -0.2363
 3936SOL    HW212708   0.234   3.905   3.932 -0.0971 -0.6521 -0.1016
 3937SOL     OW12709   0.869   3.753   1.000  0.4382 -0.2656  0.1525
 3937SOL    HW112710   0.796   3.729   0.936  0.8060 -2.9932  0.6363
 3937SOL    HW212711   0.836   3.745   1.094  0.8203  0.4984  0.3619
 3938SOL     OW12712   7.002   3.084   0.694  0.0492 -0.1497 -0.0652
 3938SOL    HW112713   7.041   3.055   0.607 -0.3318 -0.8309 -0.0116
 3938SOL    HW212714   6.971   3.179   0.687  0.3559 -0.0827 -0.5526
 3939SOL     OW12715   1.741   4.433   4.085  0.2177  0.4005 -0.1153
 3939SOL    HW112716   1.705   4.341   4.100  1.0919  0.3368  1.9417
 3939SOL    HW212717   1.665   4.495   4.064 -0.5887 -0.4810  0.1286
 3940SOL     OW12718   2.128   6.950   5.272 -0.5855 -0.1974 -0.3054
 3940SOL    HW112719   2.091   6.907   5.355 -0.1368  1.6636  0.9331
 3940SOL    HW212720   2.065   7.021   5.241 -1.8239 -2.2884 -2.9267
 3941SOL     OW12721   4.692   4.408   3.117 -0.3735  0.2268 -0.3331
 3941SOL    HW112722   4.783   4.449   3.113  0.1618 -0.8011  0.6475
 3941SOL    HW212723   4.652   4.404   3.025 -0.6994  3.3798 -0.4445
 3942SOL     OW12724   6.679   0.235   1.764  0.5728  0.5002 -0.5321
 3942SOL    HW112725   6.730   0.293   1.701 -0.5580  2.2203  0.0522
 3942SOL    HW212726   6.682   0.274   1.856  0.7471 -1.0347  0.1591
 3943SOL     OW12727   1.304   4.688   0.849 -0.6976 -0.0212 -0.1233
 3943SOL    HW112728   1.245   4.668   0.771 -1.5786 -1.3559  0.8169
 3943SOL    HW212729   1.394   4.648   0.834 -0.8175 -0.1435 -0.5200
 3944SOL     OW12730   0.513   3.689   0.497 -0.0258  0.3991 -0.6568
 3944SOL    HW112731   0.465   3.601   0.492 -1.0597  0.7549  1.7494
 3944SOL    HW212732   0.610   3.675   0.479  0.0096 -1.4443  0.7126
 3945SOL     OW12733   0.650   0.999   2.581 -0.9164  0.4326 -0.1536
 3945SOL    HW112734   0.608   1.013   2.671  0.5827 -0.0472  0.6594
 3945SOL    HW212735   0.722   1.067   2.567 -1.5464  0.8820 -1.2616
 3946SOL     OW12736   5.459   0.337   1.578 -0.0174 -0.1474  0.2270
 3946SOL    HW112737   5.465   0.256   1.520  0.2567 -0.1180  0.2095
 3946SOL    HW212738   5.475   0.419   1.522  0.4361 -0.1304  0.3729
 3947SOL     OW12739   4.444   5.045   2.274  0.0585 -0.0023  0.0738
 3947SOL    HW112740   4.365   5.000   2.231 -1.5795  4.2742 -1.9960
 3947SOL    HW212741   4.528   5.010   2.233 -0.9171 -2.2182 -0.1947
 3948SOL     OW12742   1.231   0.907   4.762 -0.0467  0.3536  0.9589
 3948SOL    HW112743   1.326   0.937   4.769 -0.4325  1.5282  1.3477
 3948SOL    HW212744   1.227   0.820   4.712  1.4494 -0.9460  2.9315
 3949SOL     OW12745   0.450   5.754   2.014  1.2387  0.2584  0.1344
 3949SOL    HW112746   0.354   5.760   1.987  0.2405 -2.8923  2.3864
 3949SOL    HW212747   0.456   5.754   2.114  3.0143 -3.9339  0.2241
 3950SOL     OW12748   1.608   0.551   0.730  0.0921 -0.2947  0.1822
 3950SOL    HW112749   1.645   0.458   0.732 -0.0480 -0.3546 -0.1006
 3950SOL    HW212750   1.509   0.547   0.724  0.1587 -0.1294 -1.4311
 3951SOL     OW12751   1.745   3.311   2.943  0.2354 -0.5052 -0.0618
 3951SOL    HW112752   1.820   3.262   2.987  0.0230 -0.4317  0.3923
 3951SOL    HW212753   1.716   3.260   2.862  1.0693 -0.2946 -0.5016
 3952SOL     OW12754   1.353   6.498   6.698  0.4994 -0.4358  0.6273
 3952SOL    HW112755   1.266   6.512   6.649  0.7220 -0.9526  0.0714
 3952SOL    HW212756   1.396   6.586   6.715  0.6491 -0.2671 -0.5478
 3953SOL     OW12757   2.986   3.146   4.116  0.0219 -0.7578 -0.0313
 3953SOL    HW112758   3.070   3.095   4.099 -0.4470 -1.7741  0.5998
 3953SOL    HW212759   2.911   3.082   4.131 -0.4460  0.1096  1.5136
 3954SOL     OW12760   0.971   6.612   6.943 -0.8919 -0.3558 -0.3055
 3954SOL    HW112761   0.873   6.596   6.954 -0.9557  0.5126  0.5179
 3954SOL    HW212762   0.991   6.709   6.958  0.2795 -0.7642  0.9329
 3955SOL     OW12763   6.277   3.254   1.724  0.5031  0.7679 -0.1558
 3955SOL    HW112764   6.247   3.283   1.815  0.4165  1.1887 -0.3179
 3955SOL    HW212765   6.198   3.241   1.665  0.5667  0.6136 -0.2073
 3956SOL     OW12766   5.889   2.950   5.360  0.3727  0.0761  0.3439
 3956SOL    HW112767   5.829   2.872   5.341  1.8562 -1.3492  1.3120
 3956SOL    HW212768   5.956   2.959   5.286 -0.0495  0.7136  0.0295
 3957SOL     OW12769   1.200   4.298   3.872  0.1541 -0.1770  0.7871
 3957SOL    HW112770   1.155   4.387   3.865  2.9859  1.4003  1.3833
 3957SOL    HW212771   1.224   4.279   3.968  2.6901  0.1478  0.2902
 3958SOL     OW12772   5.090   6.012   1.404  0.6632  0.1299  0.0713
 3958SOL    HW112773   5.031   6.060   1.338  0.0257  0.4102  0.8350
 3958SOL    HW212774   5.035   5.977   1.479  1.3825 -0.2265  0.4447
 3959SOL     OW12775   1.216   5.910   0.021  0.1904  0.5165 -0.6762
 3959SOL    HW112776   1.180   5.816   0.023  0.2202  0.4721 -1.8229
 3959SOL    HW212777   1.308   5.909  -0.019  1.2394  0.7197  1.5884
 3960SOL     OW12778   6.470   2.958   1.914 -0.3040 -0.3063 -0.4503
 3960SOL    HW112779   6.485   2.959   1.815 -0.4932  0.9272 -0.4747
 3960SOL    HW212780   6.558   2.950   1.961 -0.0815  0.6284 -0.6983
 3961SOL     OW12781   0.942   0.863   2.025  0.3851  0.2049 -0.0018
 3961SOL    HW112782   0.987   0.952   2.035 -0.2018  0.4297  0.8057
 3961SOL    HW212783   0.914   0.830   2.116  1.6930 -1.3916 -0.1399
 3962SOL     OW12784   5.835   6.521   6.848 -0.4276 -0.3621 -0.2038
 3962SOL    HW112785   5.771   6.472   6.789 -1.4655  2.9214 -2.1086
 3962SOL    HW212786   5.785   6.565   6.923  0.1346 -0.5708  0.2989
 3963SOL     OW12787   4.855   0.969   5.193  0.1871 -0.6069  0.7535
 3963SOL    HW112788   4.950   0.938   5.185 -0.0914 -1.1583 -0.6684
 3963SOL    HW212789   4.853   1.069   5.188  0.5771 -0.6560 -0.6891
 3964SOL     OW12790   6.379   4.026   6.650  0.1786  0.4976  0.0998
 3964SOL    HW112791   6.372   3.952   6.584  3.0364 -0.4428  0.7157
 3964SOL    HW212792   6.305   4.018   6.717 -0.1471 -1.1855 -0.4247
 3965SOL     OW12793   2.756   5.613   2.568  0.3195  0.2043 -0.4190
 3965SOL    HW112794   2.760   5.655   2.478  0.8377 -1.8558 -1.4215
 3965SOL    HW212795   2.739   5.515   2.558  1.5408 -0.2848  1.6694
 3966SOL     OW12796   1.754   3.183   6.627  0.3655 -0.2291 -0.2469
 3966SOL    HW112797   1.839   3.132   6.620  0.6085  0.2928 -1.2595
 3966SOL    HW212798   1.752   3.235   6.712  0.1665 -1.7999  0.7511
 3967SOL     OW12799   3.073   1.039   2.071 -0.0674  0.0596 -0.3993
 3967SOL    HW112800   3.167   1.007   2.084 -1.2768 -3.4589  0.7871
 3967SOL    HW212801   3.057   1.053   1.973  1.0159 -1.7962 -0.9013
 3968SOL     OW12802   4.172   2.369   0.542 -0.0048  0.1909  0.4914
 3968SOL    HW112803   4.140   2.372   0.448 -2.3398 -0.0215  1.2050
 3968SOL    HW212804   4.261   2.323   0.547 -0.3165 -0.6920 -1.4634
 3969SOL     OW12805   5.545   0.161   3.297  0.6726 -0.0061  0.5759
 3969SOL    HW112806   5.452   0.157   3.333  0.4566 -1.7749 -0.0865
 3969SOL    HW212807   5.603   0.096   3.346  1.5161  0.8606  0.7755
 3970SOL     OW12808   0.670   3.356   4.203  0.2827  0.4253 -0.1682
 3970SOL    HW112809   0.680   3.335   4.106  0.6970 -2.4897  0.4165
 3970SOL    HW212810   0.588   3.311   4.239  0.5221  0.8752  0.9901
 3971SOL     OW12811   0.610   3.467   3.726  0.0722  0.6173 -0.4748
 3971SOL    HW112812   0.531   3.523   3.701  0.6468  1.0705 -1.3338
 3971SOL    HW212813   0.672   3.461   3.648  0.1056 -1.1103 -0.3380
 3972SOL     OW12814   0.513   1.494   6.664  0.0539  0.1492  0.3107
 3972SOL    HW112815   0.537   1.397   6.666  0.5448  0.2851  1.3266
 3972SOL    HW212816   0.464   1.518   6.748  0.2595  0.8719  0.2293
 3973SOL     OW12817   4.531   2.641   0.962 -0.6198 -1.2492  0.0746
 3973SOL    HW112818   4.513   2.585   1.043  0.8837  0.5927  1.8028
 3973SOL    HW212819   4.629   2.641   0.942 -0.7121 -0.0479 -0.4648
 3974SOL     OW12820   5.120   0.216   5.215  0.1075  0.2358  0.2753
 3974SOL    HW112821   5.025   0.230   5.244 -0.6066 -1.7048 -0.8834
 3974SOL    HW212822   5.123   0.212   5.115  0.8853 -2.4413  0.3229
 3975SOL     OW12823   0.301   6.506   3.716 -0.2549  0.3427 -0.2511
 3975SOL    HW112824   0.249   6.583   3.752  0.2774  0.4686  0.2738
 3975SOL    HW212825   0.264   6.421   3.753  0.2033  0.4635  0.5201
 3976SOL     OW12826   6.196   3.991   4.780  0.4331  0.6872 -0.6496
 3976SOL    HW112827   6.135   4.069   4.771 -0.1470  0.2672 -0.4211
 3976SOL    HW212828   6.235   3.989   4.872 -1.1917 -0.4490  0.0656
 3977SOL     OW12829   2.295   4.759   5.264 -0.2624  0.3911 -0.4271
 3977SOL    HW112830   2.307   4.676   5.209 -1.3695  0.9362 -1.5579
 3977SOL    HW212831   2.206   4.800   5.243 -0.6540  0.7266  1.6816
 3978SOL     OW12832   4.532   3.110   0.631 -0.1612  0.3336  0.0816
 3978SOL    HW112833   4.451   3.066   0.591 -1.0156  2.1558 -0.3221
 3978SOL    HW212834   4.612   3.088   0.576 -0.4398 -1.1579  0.2343
 3979SOL     OW12835   1.147   5.103   2.485  0.0337 -0.3130 -0.0863
 3979SOL    HW112836   1.155   5.137   2.392  0.4368  0.6668  0.2880
 3979SOL    HW212837   1.054   5.116   2.518  0.4568  1.6843  0.4830
 3980SOL     OW12838   7.015   3.745   5.159 -0.2638  0.4447 -0.3236
 3980SOL    HW112839   6.989   3.678   5.228 -0.5252  0.7165 -0.1600
 3980SOL    HW212840   7.053   3.697   5.080  1.9686  0.2152  0.8108
 3981SOL     OW12841   5.638   7.015   1.690  0.2539  0.1308 -0.2584
 3981SOL    HW112842   5.566   6.947   1.707  0.2800  0.1348 -0.1353
 3981SOL    HW212843   5.651   7.071   1.772  2.7651 -2.0432  0.9649
 3982SOL     OW12844   1.772   2.090   3.680  0.5250 -0.3607  0.1274
 3982SOL    HW112845   1.844   2.081   3.611  0.4403 -0.8588  0.0993
 3982SOL    HW212846   1.696   2.029   3.657  0.3797 -0.3292  0.5152
 3983SOL     OW12847   3.098   0.811   4.847  0.3010  0.3644 -0.4148
 3983SOL    HW112848   3.051   0.876   4.907  0.6933 -0.2792  0.6064
 3983SOL    HW212849   3.164   0.860   4.791 -0.6501  1.0952 -0.9449
 3984SOL     OW12850   1.867   0.081   2.740  0.3227  0.1063  0.0789
 3984SOL    HW112851   1.846  -0.013   2.766 -1.7216  1.1650  2.6085
 3984SOL    HW212852   1.958   0.105   2.773  0.6221 -0.7757 -0.0696
 3985SOL     OW12853   2.704   1.284   1.298 -0.3365  0.0312  0.1230
 3985SOL    HW112854   2.714   1.259   1.395 -0.5677  0.0221  0.1457
 3985SOL    HW212855   2.772   1.235   1.244  1.4487  1.8769  0.5732
 3986SOL     OW12856   0.933   1.465   2.164  0.5079  0.2270  0.3292
 3986SOL    HW112857   1.011   1.426   2.117 -0.8135 -1.1272 -0.8280
 3986SOL    HW212858   0.884   1.526   2.102  1.5005  2.3772  1.5485
 3987SOL     OW12859   1.842   3.116   5.206 -0.1161  0.1165 -0.3688
 3987SOL    HW112860   1.854   3.178   5.284  2.1215  0.7976 -1.1731
 3987SOL    HW212861   1.828   3.023   5.240 -0.4184  0.5729  0.8391
 3988SOL     OW12862   4.447   5.267   2.081 -0.1691  0.2808 -0.2231
 3988SOL    HW112863   4.452   5.341   2.149 -0.3176  0.9746 -0.9577
 3988SOL    HW212864   4.426   5.181   2.128 -2.3224  1.0856  0.4444
 3989SOL     OW12865   3.645   0.074   0.809  0.2313 -0.1326  0.0593
 3989SOL    HW112866   3.597   0.134   0.745  1.5205  2.5843  1.4798
 3989SOL    HW212867   3.620  -0.021   0.790 -3.1388  0.8760 -1.3139
 3990SOL     OW12868   6.704   3.925   2.569 -0.5314 -0.2993  0.3034
 3990SOL    HW112869   6.771   3.861   2.531 -0.8844 -0.3807 -0.2030
 3990SOL    HW212870   6.700   3.915   2.668  1.4894  0.9611  0.5445
 3991SOL     OW12871   0.335   2.836   4.950  0.1788  0.3913 -0.2086
 3991SOL    HW112872   0.284   2.913   4.988 -1.1791 -0.4248 -0.3045
 3991SOL    HW212873   0.276   2.785   4.886  1.4243 -0.0468 -1.0465
 3992SOL     OW12874   0.518   4.797   5.423 -0.2894 -0.2151 -0.0744
 3992SOL    HW112875   0.512   4.798   5.323 -0.5081 -0.0711 -0.0579
 3992SOL    HW212876   0.595   4.855   5.452  1.7429 -2.5930 -0.3150
 3993SOL     OW12877   0.961   0.787   4.500 -0.2471 -0.3491  0.2678
 3993SOL    HW112878   1.053   0.761   4.529 -0.4349  1.0657  2.3609
 3993SOL    HW212879   0.898   0.711   4.515  0.4892 -1.2196 -0.8894
 3994SOL     OW12880   1.457   0.209   2.102 -0.0031  0.3550  0.1653
 3994SOL    HW112881   1.393   0.283   2.080  0.7347  0.2421 -2.7766
 3994SOL    HW212882   1.407   0.133   2.143 -1.5347  0.7965 -0.7953
 3995SOL     OW12883   1.110   5.505   1.614 -0.5551  0.0561  0.2627
 3995SOL    HW112884   1.063   5.449   1.546  1.9129 -1.0261 -0.6794
 3995SOL    HW212885   1.198   5.464   1.636 -0.2280  1.6914  2.3300
 3996SOL     OW12886   0.437   0.580   0.167 -0.1860  0.0064 -0.3672
 3996SOL    HW112887   0.475   0.564   0.258 -1.6917  0.5309  0.3780
 3996SOL    HW212888   0.363   0.516   0.149 -0.8531  0.8209 -0.6218
 3997SOL     OW12889   5.720   2.826   4.269 -0.0719  0.2726 -0.4069
 3997SOL    HW112890   5.813   2.795   4.286  0.4335  1.4210 -0.9533
 3997SOL    HW212891   5.714   2.924   4.286 -1.0240  0.3307 -1.0060
 3998SOL     OW12892   2.678   1.446   3.094  0.5093 -0.2691  0.0977
 3998SOL    HW112893   2.728   1.429   3.179  1.6782 -1.7017 -0.8244
 3998SOL    HW212894   2.585   1.412   3.102  0.7546 -0.8132  0.6655
 3999SOL     OW12895   6.175   2.311   3.504  0.4254 -0.0681 -0.3129
 3999SOL    HW112896   6.103   2.259   3.550  0.7540  0.7474  1.1847
 3999SOL    HW212897   6.219   2.254   3.435 -1.2856 -0.7480 -0.9024
 4000SOL     OW12898   3.307   4.882   3.953  0.5616  0.0308  0.3042
 4000SOL    HW112899   3.233   4.921   4.008 -0.5722 -1.1919 -0.2963
 4000SOL    HW212900   3.273   4.862   3.862  1.3319 -1.5664  0.3444
 4001SOL     OW12901   5.978   5.150   4.590  0.4521  0.4419  0.1366
 4001SOL    HW112902   6.015   5.105   4.509 -0.0010  0.9514 -0.3593
 4001SOL    HW212903   5.935   5.081   4.649 -0.0303  0.1871 -0.5005
 4002SOL     OW12904   3.315   3.252   4.997  0.2418  0.8867  0.0211
 4002SOL    HW112905   3.307   3.352   5.002 -1.9418  0.7807 -0.1026
 4002SOL    HW212906   3.306   3.213   5.089 -4.3208  0.6612 -0.2499
 4003SOL     OW12907   4.171   2.085   4.745 -0.1252  0.0196  0.7065
 4003SOL    HW112908   4.134   2.130   4.826  0.1696  1.7252 -0.0590
 4003SOL    HW212909   4.271   2.076   4.754 -0.2004 -0.6770  0.9299
 4004SOL     OW12910   1.302   3.212   4.879 -0.3596  0.0928  0.5594
 4004SOL    HW112911   1.237   3.287   4.866 -0.5583 -0.0244  0.8777
 4004SOL    HW212912   1.394   3.243   4.854 -0.4407  0.4455  0.6970
 4005SOL     OW12913   6.032   2.516   1.495  0.1242 -0.2656 -0.0986
 4005SOL    HW112914   5.954   2.570   1.461 -0.7768 -1.1124  0.5685
 4005SOL    HW212915   6.103   2.578   1.527 -0.1160  0.5325 -1.0519
 4006SOL     OW12916   5.951   6.999   3.843 -0.2453  0.1848 -0.4432
 4006SOL    HW112917   5.995   6.911   3.861 -2.4570 -0.9067 -0.0371
 4006SOL    HW212918   5.917   7.002   3.749 -1.3549  0.0293 -0.0653
 4007SOL     OW12919   1.245   1.679   0.138  0.7472  0.1220  0.4395
 4007SOL    HW112920   1.151   1.695   0.170  1.8245  0.8642  3.5075
 4007SOL    HW212921   1.247   1.688   0.038 -1.7462  4.3164  0.4946
 4008SOL     OW12922   4.079   6.679   3.295 -0.2724  0.8147  0.6043
 4008SOL    HW112923   4.041   6.588   3.280  0.1928  0.7680 -0.3608
 4008SOL    HW212924   4.143   6.676   3.372  0.1110  0.2087  0.2700
 4009SOL     OW12925   5.914   1.085   3.267  0.3986  0.1675  0.0162
 4009SOL    HW112926   5.928   0.987   3.252  2.6591  0.4043  0.2296
 4009SOL    HW212927   5.940   1.107   3.362 -3.5667  0.4300  1.1937
 4010SOL     OW12928   1.355   5.598   0.529 -0.0849 -0.5444 -0.0984
 4010SOL    HW112929   1.269   5.631   0.491 -0.1988  1.2107  1.5254
 4010SOL    HW212930   1.341   5.573   0.625  1.2713  0.1392  0.2985
 4011SOL     OW12931   0.364   6.406   0.202 -0.4070 -0.3266  0.4669
 4011SOL    HW112932   0.383   6.319   0.157  1.8561  0.2468  0.1617
 4011SOL    HW212933   0.370   6.394   0.301 -1.1535 -0.7039  0.4777
 4012SOL     OW12934   6.507   4.164   0.776  0.1222 -0.4085  0.3527
 4012SOL    HW112935   6.459   4.179   0.863 -0.1668 -0.9578  0.2976
 4012SOL    HW212936   6.444   4.182   0.700  0.6208  0.9040  0.2289
 4013SOL     OW12937   5.800   2.561   6.649  0.2535 -0.3258  0.4847
 4013SOL    HW112938   5.817   2.466   6.675 -1.1105 -0.8017 -0.2451
 4013SOL    HW212939   5.715   2.566   6.596 -0.0214  1.3901  1.0284
 4014SOL     OW12940   4.831   4.176   2.780 -0.1043 -0.0870 -0.4168
 4014SOL    HW112941   4.802   4.133   2.866  0.0676  1.7187  0.6000
 4014SOL    HW212942   4.883   4.111   2.726 -1.0025 -1.5568  0.4320
 4015SOL     OW12943   4.668   5.814   6.134 -0.2781 -0.2545 -0.0053
 4015SOL    HW112944   4.718   5.756   6.071  0.2326 -0.1844  0.3354
 4015SOL    HW212945   4.573   5.782   6.142 -0.1322 -0.7266 -0.2041
 4016SOL     OW12946   3.992   5.570   4.691  0.1585 -0.0675  0.1082
 4016SOL    HW112947   4.005   5.575   4.790 -1.3979  1.1187  0.2901
 4016SOL    HW212948   4.040   5.645   4.647 -0.1883  0.1449  0.0898
 4017SOL     OW12949   1.605   0.064   5.470  0.4258 -0.0511 -0.1637
 4017SOL    HW112950   1.619   0.157   5.504  0.4908  0.3272 -1.2018
 4017SOL    HW212951   1.543   0.016   5.532 -0.7355  1.1346 -0.3466
 4018SOL     OW12952   4.083   5.881   5.770  0.3702 -0.2814 -0.0040
 4018SOL    HW112953   4.131   5.798   5.741 -0.7035 -1.8922  2.4906
 4018SOL    HW212954   3.985   5.871   5.750  0.0357 -0.2285  1.4859
 4019SOL     OW12955   0.286   3.557   5.116 -0.1538  0.7396 -0.1267
 4019SOL    HW112956   0.219   3.622   5.080  0.4354  0.9633 -0.8471
 4019SOL    HW212957   0.291   3.477   5.057 -0.9509 -0.0349  0.8156
 4020SOL     OW12958   0.812   5.332   4.646  0.3133  0.3839 -0.0804
 4020SOL    HW112959   0.765   5.312   4.560  0.0063 -0.3274  0.2475
 4020SOL    HW212960   0.745   5.364   4.713  0.7423  2.2979 -0.5003
 4021SOL     OW12961   5.060   6.310   4.884 -0.1784 -0.2310  0.2695
 4021SOL    HW112962   5.086   6.238   4.820 -0.5873 -0.8410  0.7782
 4021SOL    HW212963   4.966   6.296   4.914 -1.1256  1.8651 -1.4391
 4022SOL     OW12964   3.044   5.978   3.550  0.5522  0.0125  0.2016
 4022SOL    HW112965   3.014   5.883   3.556  2.1651 -0.5053  0.7847
 4022SOL    HW212966   3.014   6.017   3.463 -0.7186 -0.8031  0.2545
 4023SOL     OW12967   2.580   6.933   4.031  0.0545  0.1147 -0.4274
 4023SOL    HW112968   2.645   7.001   4.067 -1.6067  1.2095  0.6112
 4023SOL    HW212969   2.628   6.846   4.017  1.6041  0.6890  0.9356
 4024SOL     OW12970   0.804   1.050   5.918 -0.0552  0.4461  0.2520
 4024SOL    HW112971   0.882   1.112   5.920  1.0616 -0.9003  0.3008
 4024SOL    HW212972   0.834   0.958   5.942 -1.2811 -0.5427 -1.7236
 4025SOL     OW12973   2.052   4.324   4.258  0.2549 -0.2520 -0.2865
 4025SOL    HW112974   2.052   4.415   4.216 -1.1454 -0.9757 -1.9592
 4025SOL    HW212975   1.980   4.320   4.328 -1.2317 -0.6968 -1.7768
 4026SOL     OW12976   6.951   0.072   5.501 -0.2319 -1.0141 -0.1176
 4026SOL    HW112977   6.864   0.072   5.451 -0.0542 -0.2145 -0.4358
 4026SOL    HW212978   7.011   0.001   5.464  0.0800 -0.1258 -1.3747
 4027SOL     OW12979   4.172   5.766   4.670 -0.4219  0.4933  0.0346
 4027SOL    HW112980   4.234   5.699   4.631 -0.6380  0.8899 -1.0080
 4027SOL    HW212981   4.204   5.792   4.762 -0.8270 -1.6805  0.8408
 4028SOL     OW12982   5.988   2.916   2.491  0.1789  0.4031 -0.0800
 4028SOL    HW112983   6.071   2.907   2.436  0.2839 -0.3929  0.1972
 4028SOL    HW212984   5.923   2.974   2.443  0.2289 -0.3599 -1.1111
 4029SOL     OW12985   2.933   5.731   5.816  0.0754  0.0717 -0.0943
 4029SOL    HW112986   2.955   5.693   5.726  2.4856  1.5235 -0.2158
 4029SOL    HW212987   2.989   5.688   5.886 -0.1149  0.5476  0.3637
 4030SOL     OW12988   6.497   0.531   1.849 -0.3960 -0.2026  0.2500
 4030SOL    HW112989   6.558   0.607   1.831 -2.4940  1.7076  0.7399
 4030SOL    HW212990   6.452   0.503   1.764 -0.4756 -0.1014  0.2580
 4031SOL     OW12991   6.481   5.055   1.003 -0.0215  0.2541  0.6838
 4031SOL    HW112992   6.577   5.035   1.022  0.3231  1.8607  0.7925
 4031SOL    HW212993   6.470   5.074   0.905  0.6447  4.0336  1.1764
 4032SOL     OW12994   5.889   1.754   2.456  0.6035  0.8159 -0.1934
 4032SOL    HW112995   5.980   1.794   2.447  0.5450  0.8337 -0.7379
 4032SOL    HW212996   5.868   1.699   2.375 -0.0075  1.0918 -0.2313
 4033SOL     OW12997   1.814   5.240   3.957 -0.4325  0.0986  0.0465
 4033SOL    HW112998   1.775   5.332   3.958 -1.1246 -0.1316 -1.6133
 4033SOL    HW212999   1.879   5.233   3.881 -1.5452 -1.1963 -0.8263
 4034SOL     OW13000   3.562   1.346   4.566  0.1717 -0.1578  0.3194
 4034SOL    HW113001   3.631   1.371   4.498  0.1219 -1.6907 -0.3456
 4034SOL    HW213002   3.499   1.423   4.580  0.1942  0.2050 -1.3801
 4035SOL     OW13003   2.706   4.501   6.860 -0.8349 -0.7039 -0.4692
 4035SOL    HW113004   2.793   4.483   6.814 -0.1896  0.0162  0.4286
 4035SOL    HW213005   2.668   4.587   6.827 -0.0906  0.1041  0.6838
 4036SOL     OW13006   4.601   5.935   3.593 -0.3592 -0.2314 -0.5881
 4036SOL    HW113007   4.591   5.843   3.632 -0.8018  0.9280  2.2993
 4036SOL    HW213008   4.511   5.979   3.588  0.0286  0.5880 -0.5136
 4037SOL     OW13009   1.092   0.368   5.399 -0.3035  0.5618 -0.3900
 4037SOL    HW113010   1.180   0.320   5.403 -0.4419  0.3009 -0.4689
 4037SOL    HW213011   1.098   0.442   5.333 -0.7954 -0.7983 -2.0201
 4038SOL     OW13012   2.810   5.084   4.674 -0.1317 -0.1075  0.2081
 4038SOL    HW113013   2.788   5.020   4.601  0.8078  0.3794 -0.5128
 4038SOL    HW213014   2.837   5.033   4.756  1.0268 -0.6566 -0.4874
 4039SOL     OW13015   0.246   1.977   2.263  0.3357 -0.3943 -0.3999
 4039SOL    HW113016   0.193   1.906   2.309 -0.3935  0.1883 -0.3228
 4039SOL    HW213017   0.267   2.050   2.329  0.4605 -0.1997 -0.6563
 4040SOL     OW13018   3.882   7.009   4.571  0.3199  0.1632 -0.3293
 4040SOL    HW113019   3.867   6.955   4.489 -1.5685  0.4485 -0.2146
 4040SOL    HW213020   3.845   7.101   4.558  0.6714  0.4465  0.5701
 4041SOL     OW13021   0.640   4.227   0.002  0.3463  0.0293 -0.1909
 4041SOL    HW113022   0.646   4.308  -0.057 -1.7217  0.4944  0.1416
 4041SOL    HW213023   0.580   4.159  -0.041 -1.8057  0.6713  1.5861
 4042SOL     OW13024   6.447   1.248   5.241  0.0877 -0.3268  0.3251
 4042SOL    HW113025   6.524   1.212   5.293  1.5539  0.7999 -0.9395
 4042SOL    HW213026   6.479   1.322   5.181 -2.1690  0.8546  0.4493
 4043SOL     OW13027   3.654   2.706   5.788 -0.6519 -0.3178  0.0682
 4043SOL    HW113028   3.587   2.699   5.714 -2.2688  1.5170  1.2587
 4043SOL    HW213029   3.721   2.778   5.765  0.9699 -2.0776 -1.0721
 4044SOL     OW13030   5.842   2.590   3.729 -0.2643 -0.1833 -0.0706
 4044SOL    HW113031   5.864   2.680   3.767 -0.8658  0.8652 -2.0631
 4044SOL    HW213032   5.922   2.555   3.679 -0.3605 -0.2717 -0.1640
 4045SOL     OW13033   5.375   1.439   4.399  0.1041  0.2534  0.4637
 4045SOL    HW113034   5.413   1.409   4.311 -0.2541 -0.0213  0.4025
 4045SOL    HW213035   5.446   1.486   4.451  0.6056 -0.5167  0.4753
 4046SOL     OW13036   5.639   1.555   6.260  0.4477  0.1635 -0.6044
 4046SOL    HW113037   5.570   1.492   6.224 -1.3542  0.5383  1.9870
 4046SOL    HW213038   5.595   1.639   6.290  2.3853  1.3357 -0.8938
 4047SOL     OW13039   4.946   3.831   5.120 -0.4725  0.0984  0.2789
 4047SOL    HW113040   5.044   3.850   5.120 -0.6857  1.3656 -0.8736
 4047SOL    HW213041   4.931   3.733   5.116  0.7489 -0.1137  0.4415
 4048SOL     OW13042   6.075   2.592   2.885 -0.0391  0.0798  0.2003
 4048SOL    HW113043   6.069   2.688   2.855  0.1411 -0.3250 -1.2093
 4048SOL    HW213044   6.003   2.539   2.840  1.3809 -0.9147 -1.0241
 4049SOL     OW13045   4.009   3.690   1.758  0.2506  0.1455  0.4769
 4049SOL    HW113046   4.079   3.760   1.774  1.0756 -0.2535 -1.1246
 4049SOL    HW213047   3.985   3.646   1.844 -0.3212  2.4114  1.5398
 4050SOL     OW13048   1.078   4.903   3.084  0.7627 -0.2388  0.2593
 4050SOL    HW113049   1.139   4.916   3.162  2.4724 -0.0113 -1.0772
 4050SOL    HW213050   1.049   4.808   3.080  1.4398 -0.4648  0.6009
 4051SOL     OW13051   6.008   1.252   3.005  0.1338  0.1327  0.3539
 4051SOL    HW113052   6.049   1.205   3.083 -0.3305 -0.3641  0.3047
 4051SOL    HW213053   5.910   1.261   3.020  0.1516  0.6864  0.1534
 4052SOL     OW13054   3.342   1.607   6.072  0.4207  0.1647  0.3609
 4052SOL    HW113055   3.371   1.695   6.033 -1.3986  0.5676 -0.1637
 4052SOL    HW213056   3.306   1.623   6.165  1.3699 -0.2524  0.8107
 4053SOL     OW13057   1.177   3.141   3.427  0.3499 -0.1912 -0.1001
 4053SOL    HW113058   1.274   3.168   3.426  1.2415 -3.0481  0.4735
 4053SOL    HW213059   1.134   3.174   3.511  1.8292 -1.8730  1.3943
 4054SOL     OW13060   5.615   5.001   0.356  0.1571  0.3697  0.2638
 4054SOL    HW113061   5.590   4.926   0.295 -0.8531 -0.3608  1.5290
 4054SOL    HW213062   5.533   5.052   0.382  0.6004  0.8075  0.8366
 4055SOL     OW13063   0.977   3.543   6.796  0.3044 -0.3184 -0.1943
 4055SOL    HW113064   1.059   3.505   6.752 -0.5189 -2.4741  0.0276
 4055SOL    HW213065   1.005   3.613   6.862  1.9186 -0.5580 -0.5674
 4056SOL     OW13066   6.495   5.473   0.984  0.2356  0.1561 -0.2002
 4056SOL    HW113067   6.585   5.430   0.982 -0.1091 -0.5642 -1.1834
 4056SOL    HW213068   6.453   5.466   0.894 -0.3303  1.5295 -0.0659
 4057SOL     OW13069   4.987   5.883   4.711  0.1352  0.0434  0.0713
 4057SOL    HW113070   5.076   5.924   4.729  0.9190 -1.6151  0.1019
 4057SOL    HW213071   4.966   5.815   4.781 -0.4876 -0.6123 -0.7301
 4058SOL     OW13072   4.085   5.853   3.736 -0.1660  0.4208 -0.2811
 4058SOL    HW113073   4.092   5.886   3.830 -1.4521  0.6425 -0.2556
 4058SOL    HW213074   4.163   5.794   3.716 -0.9587 -1.3840  1.6178
 4059SOL     OW13075   2.508   6.462   5.015 -0.2986  0.2041 -0.3030
 4059SOL    HW113076   2.500   6.518   4.933  3.1134  0.3558 -0.6853
 4059SOL    HW213077   2.535   6.369   4.989  1.0036  0.3030  0.6054
 4060SOL     OW13078   1.314   1.222   4.646 -0.4407  0.0170 -0.3447
 4060SOL    HW113079   1.407   1.238   4.614 -0.3184 -0.0905 -0.0367
 4060SOL    HW213080   1.278   1.139   4.603  0.5418 -1.4388  1.5412
 4061SOL     OW13081   2.144   4.848   2.288  0.4229  0.1590 -0.8598
 4061SOL    HW113082   2.154   4.882   2.194  0.3259  0.8659 -0.6196
 4061SOL    HW213083   2.234   4.838   2.330  0.4134  1.1604 -0.5742
 4062SOL     OW13084   2.499   4.912   0.151 -0.7327 -0.2637  0.5000
 4062SOL    HW113085   2.519   5.009   0.155 -0.4446 -0.3475  1.1795
 4062SOL    HW213086   2.584   4.861   0.134 -0.8391 -0.4140  0.4173
 4063SOL     OW13087   4.722   1.594   1.193 -0.4506  0.4339 -0.3036
 4063SOL    HW113088   4.648   1.536   1.160 -0.9440  0.0928  1.3263
 4063SOL    HW213089   4.787   1.611   1.118 -0.1641 -2.4036 -0.8025
 4064SOL     OW13090   3.467   5.864   3.628 -0.5311  0.5087 -0.5008
 4064SOL    HW113091   3.535   5.934   3.646  1.1646 -0.7121 -1.7951
 4064SOL    HW213092   3.423   5.881   3.540 -1.0175  0.6162 -0.2416
 4065SOL     OW13093   3.306   6.978   2.854 -0.3372  0.3960  0.2463
 4065SOL    HW113094   3.316   6.967   2.953  1.0156  2.8309  0.4771
 4065SOL    HW213095   3.380   6.930   2.808 -0.1699  0.3789  0.5256
 4066SOL     OW13096   1.686   4.730   4.802 -0.2342 -0.4092 -0.4211
 4066SOL    HW113097   1.784   4.725   4.784 -0.0061  1.0803  0.2598
 4066SOL    HW213098   1.671   4.772   4.891 -1.4756 -1.9312  0.1208
 4067SOL     OW13099   5.946   4.265   1.713 -0.4345  0.2908 -0.0858
 4067SOL    HW113100   5.915   4.193   1.775 -0.1270 -0.2873 -0.5907
 4067SOL    HW213101   6.035   4.239   1.674 -0.0332  1.2191  0.1813
 4068SOL     OW13102   2.725   3.047   5.299  0.5369  0.0869 -0.1213
 4068SOL    HW113103   2.780   3.111   5.245  0.5748  0.0607 -0.1138
 4068SOL    HW213104   2.636   3.034   5.255  1.0237 -0.9054 -0.8708
 4069SOL     OW13105   4.043   0.219   5.481  0.0098 -0.3046 -0.5387
 4069SOL    HW113106   4.132   0.228   5.525  0.6240 -0.2542 -1.7268
 4069SOL    HW213107   3.997   0.307   5.479 -0.6218 -0.5732  1.1635
 4070SOL     OW13108   1.274   2.868   4.703 -0.4712 -0.1621  0.1319
 4070SOL    HW113109   1.323   2.785   4.674 -0.5854 -0.4787  0.8202
 4070SOL    HW213110   1.335   2.947   4.697 -0.3454 -0.3004 -0.4804
 4071SOL     OW13111   6.456   0.619   5.978 -0.2132 -0.3129 -0.1376
 4071SOL    HW113112   6.459   0.602   5.879 -0.9762  0.1957 -0.2537
 4071SOL    HW213113   6.536   0.578   6.021 -0.6611 -1.9233 -0.7525
 4072SOL     OW13114   2.945   5.495   2.236 -0.0005 -0.1451  0.0858
 4072SOL    HW113115   2.879   5.423   2.215  1.4457 -0.5927 -3.7832
 4072SOL    HW213116   3.036   5.455   2.245  0.4236  0.9305  0.7743
 4073SOL     OW13117   4.009   5.976   6.960  0.7376 -0.5479  0.3657
 4073SOL    HW113118   4.085   6.009   6.905  1.0503  0.3970  1.3253
 4073SOL    HW213119   4.028   5.992   7.057 -0.9081  0.2299  0.6020
 4074SOL     OW13120   0.528   5.482   2.031 -0.6852 -0.5167  0.0173
 4074SOL    HW113121   0.495   5.576   2.034 -1.4273 -0.7747 -0.1003
 4074SOL    HW213122   0.527   5.443   2.124 -0.8136 -0.5662 -0.0061
 4075SOL     OW13123   5.269   1.335   1.070 -0.2429 -0.0754  0.0146
 4075SOL    HW113124   5.287   1.417   1.125  0.4744 -0.7724  0.8511
 4075SOL    HW213125   5.350   1.276   1.072 -0.4984 -0.4811 -1.1569
 4076SOL     OW13126   1.283   6.382   5.281 -0.2751  0.7591 -0.1733
 4076SOL    HW113127   1.322   6.473   5.268 -1.6503  1.2762 -1.0006
 4076SOL    HW213128   1.306   6.324   5.202 -0.5294  0.8264 -0.2987
 4077SOL     OW13129   2.153   2.693   1.143  0.7765 -0.3668  0.4346
 4077SOL    HW113130   2.236   2.700   1.087  1.4595 -0.5012  1.3995
 4077SOL    HW213131   2.146   2.774   1.202 -2.1191  1.9350 -2.6336
 4078SOL     OW13132   4.527   5.003   1.946 -0.2141 -0.2293 -0.0396
 4078SOL    HW113133   4.536   5.095   1.908 -2.1697 -0.0601 -0.2146
 4078SOL    HW213134   4.592   4.990   2.021 -0.3608  1.5200  0.4219
 4079SOL     OW13135   0.650   0.067   1.766 -0.5483 -0.0769 -0.2792
 4079SOL    HW113136   0.612   0.053   1.857 -0.8663 -1.4823 -0.5974
 4079SOL    HW213137   0.750   0.071   1.771 -0.5335 -0.7194  0.0789
 4080SOL     OW13138   0.546   3.826   4.782  0.3311  0.0773 -0.7631
 4080SOL    HW113139   0.496   3.910   4.764 -0.3408 -0.5252 -1.8336
 4080SOL    HW213140   0.595   3.798   4.698  1.3989 -0.0490 -0.1227
 4081SOL     OW13141   0.216   3.390   2.783 -0.9016 -0.2658 -0.6398
 4081SOL    HW113142   0.184   3.408   2.690 -0.4565 -1.7479 -1.0980
 4081SOL    HW213143   0.262   3.302   2.786 -0.8658 -0.2155  0.9867
 4082SOL     OW13144   2.119   2.372   2.010 -0.7135  0.4949  0.5264
 4082SOL    HW113145   2.046   2.437   1.987  0.9095  2.2720  0.1737
 4082SOL    HW213146   2.159   2.396   2.098  2.4414  2.5086 -1.2596
 4083SOL     OW13147   0.556   4.702   4.161  0.0823 -0.2939 -0.1169
 4083SOL    HW113148   0.586   4.607   4.148  4.8838  1.2523 -2.3158
 4083SOL    HW213149   0.545   4.746   4.072 -2.3525  1.3004  0.8494
 4084SOL     OW13150   4.910   6.910   3.762  0.0715  0.0475 -0.0185
 4084SOL    HW113151   4.890   6.857   3.844  0.8518 -0.0049  0.1505
 4084SOL    HW213152   4.848   6.988   3.756 -1.3405 -1.0711 -0.4632
 4085SOL     OW13153   2.537   5.602   4.940 -0.1144  0.5300 -0.6605
 4085SOL    HW113154   2.485   5.573   5.020  0.1013  1.4722 -0.1606
 4085SOL    HW213155   2.629   5.564   4.943 -0.3008  0.0617 -0.7881
 4086SOL     OW13156   6.341   0.705   2.124  0.0168  0.3085  0.4984
 4086SOL    HW113157   6.425   0.709   2.177  0.6722 -0.8021 -0.4353
 4086SOL    HW213158   6.312   0.798   2.102  2.1387  0.7033 -0.9229
 4087SOL     OW13159   6.763   0.958   4.709 -0.3664 -0.4729 -0.2514
 4087SOL    HW113160   6.831   0.890   4.684 -1.3342 -1.6730  0.2434
 4087SOL    HW213161   6.672   0.927   4.678 -1.1102 -0.4017  1.7012
 4088SOL     OW13162   0.863   3.326   6.921  0.1437  0.7179 -0.0309
 4088SOL    HW113163   0.909   3.409   6.889 -0.0402  0.8809  0.1279
 4088SOL    HW213164   0.925   3.248   6.912  0.4819  0.9520  0.2544
 4089SOL     OW13165   1.959   3.007   6.688  0.2855 -0.2471 -0.5391
 4089SOL    HW113166   2.022   3.056   6.747  0.2776 -0.7958 -0.0588
 4089SOL    HW213167   2.010   2.962   6.615  0.1923  1.2519 -1.5580
 4090SOL     OW13168   3.933   4.995   5.478 -0.1169  0.0459  0.3214
 4090SOL    HW113169   3.889   5.085   5.481  1.1141  0.6425  1.4788
 4090SOL    HW213170   3.890   4.935   5.546  0.5001  0.4741  1.1090
 4091SOL     OW13171   2.895   0.686   1.099  0.5220  0.7954 -0.2415
 4091SOL    HW113172   2.854   0.595   1.106  0.8885  0.6758  0.4972
 4091SOL    HW213173   2.855   0.746   1.169 -0.1386  1.3739 -1.1015
 4092SOL     OW13174   2.565   1.667   4.158 -0.4648 -0.2728 -0.1933
 4092SOL    HW113175   2.504   1.741   4.183  0.1155  0.6182 -1.3372
 4092SOL    HW213176   2.513   1.583   4.146 -1.2442  0.1381  0.2593
 4093SOL     OW13177   4.820   0.536   3.289 -0.2779 -0.1023  0.8081
 4093SOL    HW113178   4.855   0.589   3.211 -2.2050 -0.2758 -0.2273
 4093SOL    HW213179   4.887   0.540   3.364  1.3289  0.6336 -0.5799
 4094SOL     OW13180   4.878   3.991   4.899  0.0713  0.0102 -0.0791
 4094SOL    HW113181   4.894   3.926   4.973 -1.8051 -1.4382 -0.8805
 4094SOL    HW213182   4.961   3.999   4.844  1.0801  0.1314  1.3807
 4095SOL     OW13183   3.212   1.700   5.565 -0.5311  0.1581  0.0740
 4095SOL    HW113184   3.192   1.654   5.478 -1.8031 -0.8964  0.8853
 4095SOL    HW213185   3.156   1.782   5.573 -1.1060 -0.2543  0.3020
 4096SOL     OW13186   3.669   4.446   1.083  0.2715 -0.0908  0.4880
 4096SOL    HW113187   3.620   4.455   0.996  1.6884 -0.9851 -0.4310
 4096SOL    HW213188   3.736   4.519   1.092  1.0481 -0.7591  0.2025
 4097SOL     OW13189   3.152   3.062   3.416  0.1759  0.7616  0.5023
 4097SOL    HW113190   3.059   3.065   3.379  0.1702  0.5106  0.4950
 4097SOL    HW213191   3.207   2.999   3.361 -0.9997 -3.3250  3.5276
 4098SOL     OW13192   2.135   2.633   2.873  0.6195  0.1094  0.2488
 4098SOL    HW113193   2.190   2.685   2.938  1.9617 -0.2319 -0.5735
 4098SOL    HW213194   2.180   2.632   2.784  0.3974 -2.0096  0.0975
 4099SOL     OW13195   2.843   0.269   1.007 -0.1466  0.3858 -0.4577
 4099SOL    HW113196   2.846   0.179   1.051 -0.8715  0.9024  0.6770
 4099SOL    HW213197   2.926   0.281   0.952 -0.1723 -1.0853 -0.8642
 4100SOL     OW13198   4.038   0.044   4.009  0.1987  0.0634  0.3156
 4100SOL    HW113199   3.980   0.113   4.050 -1.9245 -1.4094 -0.0314
 4100SOL    HW213200   3.984  -0.038   3.989  2.0190 -0.7546 -1.6945
 4101SOL     OW13201   5.161   0.933   0.374  0.1096  0.0740 -0.1321
 4101SOL    HW113202   5.180   1.016   0.426 -2.0385  1.2060 -0.9890
 4101SOL    HW213203   5.224   0.928   0.296  0.5174  0.7135  0.1455
 4102SOL     OW13204   5.998   1.431   6.458  0.4436  0.2909  0.0876
 4102SOL    HW113205   5.918   1.375   6.435 -1.0312  2.0467  0.7422
 4102SOL    HW213206   5.978   1.527   6.440  2.1797  0.8337  0.8805
 4103SOL     OW13207   0.401   6.543   1.876  0.4840 -0.2376 -0.3981
 4103SOL    HW113208   0.343   6.485   1.933 -0.4710 -1.6401 -2.6843
 4103SOL    HW213209   0.493   6.546   1.915 -0.2992 -0.5266  1.5769
 4104SOL     OW13210   2.034   5.729   1.027  0.1387  0.1368  0.0592
 4104SOL    HW113211   2.072   5.642   1.057 -0.7058 -0.1814  0.2308
 4104SOL    HW213212   2.050   5.799   1.097  0.8864  0.1493 -0.1141
 4105SOL     OW13213   0.058   6.114   1.262 -0.6288 -0.0471  0.0576
 4105SOL    HW113214   0.138   6.170   1.284 -1.3427  1.6767 -1.3913
 4105SOL    HW213215   0.019   6.076   1.346  1.2331 -0.2766  0.8544
 4106SOL     OW13216   1.436   3.246   3.406  0.4671 -0.4862 -0.0732
 4106SOL    HW113217   1.462   3.343   3.415 -1.4188 -0.0425  1.1011
 4106SOL    HW213218   1.513   3.195   3.367  2.4049  1.0564  1.4629
 4107SOL     OW13219   6.265   1.122   1.159 -0.1592  0.6358  0.6288
 4107SOL    HW113220   6.334   1.052   1.171 -0.5608 -0.0177 -0.6480
 4107SOL    HW213221   6.309   1.212   1.152  0.4179  0.4218  1.4714
 4108SOL     OW13222   6.706   1.470   0.541  0.2944 -0.1080  0.1765
 4108SOL    HW113223   6.624   1.474   0.482 -0.1799  1.7805  0.8641
 4108SOL    HW213224   6.756   1.386   0.523 -0.1150  0.1161 -2.5482
 4109SOL     OW13225   2.147   6.155   3.721  0.5678  0.9895 -0.1732
 4109SOL    HW113226   2.088   6.190   3.794 -0.5928 -1.2722  0.0555
 4109SOL    HW213227   2.097   6.155   3.634  1.2406  1.7270 -0.5753
 4110SOL     OW13228   5.177   4.138   3.584  0.1565  0.2850  0.1222
 4110SOL    HW113229   5.243   4.126   3.658  0.8841  0.5644 -0.4748
 4110SOL    HW213230   5.224   4.135   3.496 -0.6837  0.0707 -0.3334
 4111SOL     OW13231   4.724   4.215   6.089 -0.0316  0.2244 -0.1816
 4111SOL    HW113232   4.723   4.291   6.023 -0.5169  0.5144  0.1491
 4111SOL    HW213233   4.689   4.132   6.046 -0.7139  0.5074 -0.1948
 4112SOL     OW13234   4.217   2.296   5.621 -0.0871  0.2053 -0.0649
 4112SOL    HW113235   4.306   2.317   5.580  2.2299  0.1028  4.2906
 4112SOL    HW213236   4.191   2.202   5.599  1.1820  0.0396 -0.9358
 4113SOL     OW13237   5.313   6.464   2.868 -0.0390 -0.3885 -0.2456
 4113SOL    HW113238   5.380   6.529   2.904  0.9803 -1.1882 -0.6575
 4113SOL    HW213239   5.228   6.513   2.846  1.1499  1.1068 -1.8264
 4114SOL     OW13240   2.182   6.917   2.552  0.2399 -0.1199  0.5805
 4114SOL    HW113241   2.188   7.013   2.524  1.7137  0.0743  1.4522
 4114SOL    HW213242   2.214   6.909   2.647  0.3824 -1.5208  0.4253
 4115SOL     OW13243   6.349   3.643   4.524  0.0593  0.4036 -0.0124
 4115SOL    HW113244   6.400   3.557   4.527 -1.0762 -0.5218 -3.4461
 4115SOL    HW213245   6.280   3.643   4.597 -0.3439 -1.9210 -0.3281
 4116SOL     OW13246   1.332   2.396   1.140  0.4572  0.5238 -0.4418
 4116SOL    HW113247   1.281   2.481   1.153  0.0778 -0.0736  2.9338
 4116SOL    HW213248   1.424   2.406   1.178  0.5107 -0.4709 -0.2927
 4117SOL     OW13249   2.729   5.313   1.170  0.9228  0.4763  0.3337
 4117SOL    HW113250   2.642   5.301   1.219 -0.3977  0.3007 -1.9220
 4117SOL    HW213251   2.735   5.246   1.097  3.1094  0.3480  0.5827
 4118SOL     OW13252   0.201   0.759   0.195 -0.0228  0.1352  0.3263
 4118SOL    HW113253   0.121   0.753   0.135  0.2529 -0.5238  0.0199
 4118SOL    HW213254   0.279   0.713   0.152  0.2413 -0.1415  1.0856
 4119SOL     OW13255   6.175   2.140   3.280  0.1639 -0.3613  0.3411
 4119SOL    HW113256   6.244   2.084   3.233 -1.0327  0.1058 -2.1503
 4119SOL    HW213257   6.095   2.085   3.300 -0.1325 -0.0722 -0.0457
 4120SOL     OW13258   4.902   6.347   2.220  0.8089 -0.7563  0.2003
 4120SOL    HW113259   4.889   6.365   2.122  0.8927 -0.5470  0.2261
 4120SOL    HW213260   4.850   6.266   2.247 -0.5176  0.1081  0.3200
 4121SOL     OW13261   5.929   3.789   2.751  0.3737 -0.0670  0.0789
 4121SOL    HW113262   5.956   3.799   2.655  0.4576  1.3018  0.2224
 4121SOL    HW213263   5.908   3.693   2.770 -0.2306 -0.2721 -1.4641
 4122SOL     OW13264   2.982   6.112   0.206 -0.4556  0.4137  0.2413
 4122SOL    HW113265   2.944   6.039   0.262 -0.4293  0.2293  0.0238
 4122SOL    HW213266   3.045   6.167   0.261  1.2506 -1.0680 -0.1229
 4123SOL     OW13267   3.637   4.150   4.784 -0.4251 -0.2189  0.1368
 4123SOL    HW113268   3.710   4.104   4.734  1.0869  1.8595  0.3179
 4123SOL    HW213269   3.598   4.223   4.728  0.1388  1.0415  1.3175
 4124SOL     OW13270   5.588   6.189   4.727  0.0071 -0.4103 -0.3043
 4124SOL    HW113271   5.524   6.165   4.799  0.8322 -4.0240 -0.5995
 4124SOL    HW213272   5.542   6.184   4.638  0.2594 -1.2777 -0.3907
 4125SOL     OW13273   5.584   3.029   2.603  0.2216  0.1942  0.3748
 4125SOL    HW113274   5.584   2.945   2.658  2.8987  0.4307  0.8765
 4125SOL    HW213275   5.574   3.005   2.506  1.4097 -0.7796  0.4682
 4126SOL     OW13276   3.213   3.063   4.812  0.2982  0.5953  0.2699
 4126SOL    HW113277   3.135   3.121   4.790 -0.5786 -0.6750 -0.0409
 4126SOL    HW213278   3.264   3.104   4.888  0.1671  2.1682 -0.4509
 4127SOL     OW13279   4.940   0.259   4.429  0.2962  0.3599 -0.1609
 4127SOL    HW113280   4.868   0.203   4.388 -0.7518  0.5848  1.2790
 4127SOL    HW213281   4.923   0.355   4.408  1.1057  0.3093 -1.1485
 4128SOL     OW13282   0.179   1.295   1.513  0.1044  0.0662  0.3449
 4128SOL    HW113283   0.271   1.333   1.508  0.1336  0.1637  1.3571
 4128SOL    HW213284   0.175   1.225   1.585 -0.7009  0.3350  0.5771
 4129SOL     OW13285   5.129   3.110   0.163 -0.4796  0.5536  0.1331
 4129SOL    HW113286   5.120   3.021   0.207 -0.3700  1.1174  1.3608
 4129SOL    HW213287   5.092   3.106   0.070 -2.0420 -0.3441  0.7515
 4130SOL     OW13288   0.599   1.951   3.220 -0.2375 -0.4933  0.1696
 4130SOL    HW113289   0.666   2.017   3.253 -0.6609 -0.2278  0.4987
 4130SOL    HW213290   0.509   1.974   3.256 -0.6733 -0.3155 -0.9798
 4131SOL     OW13291   5.975   3.925   2.456 -0.5310  0.1373 -0.0078
 4131SOL    HW113292   6.064   3.884   2.477 -0.9670 -0.4676  0.6948
 4131SOL    HW213293   5.903   3.858   2.474 -1.0632  0.1491 -1.8202
 4132SOL     OW13294   3.135   1.112   4.468  0.1322  0.2489  0.1225
 4132SOL    HW113295   3.226   1.151   4.456  0.6036 -1.4660 -2.8843
 4132SOL    HW213296   3.074   1.145   4.396 -1.6502  1.2255  1.9799
 4133SOL     OW13297   2.047   4.363   2.605  0.4502 -0.3354 -0.3413
 4133SOL    HW113298   2.132   4.409   2.579  0.8392 -1.0702 -0.3954
 4133SOL    HW213299   1.990   4.350   2.523  1.1337 -1.5447 -0.6469
 4134SOL     OW13300   2.409   1.745   0.895 -0.3863 -0.1597  0.1689
 4134SOL    HW113301   2.372   1.800   0.969  0.2766  1.0068 -0.3278
 4134SOL    HW213302   2.336   1.720   0.832 -1.0090 -1.4191  1.3371
 4135SOL     OW13303   1.734   6.985   3.016  0.7038  0.0384  0.1468
 4135SOL    HW113304   1.636   6.997   3.032  0.8285  0.1573  0.8687
 4135SOL    HW213305   1.781   7.072   3.032  1.0534 -0.2730  0.8521
 4136SOL     OW13306   2.080   2.371   5.522 -0.0475 -0.6398  0.0201
 4136SOL    HW113307   2.159   2.426   5.549 -0.1904 -0.4099 -0.0244
 4136SOL    HW213308   2.105   2.275   5.520  0.2676 -0.5566 -0.1123
 4137SOL     OW13309   3.600   2.848   4.901 -0.9551  0.2254 -0.2947
 4137SOL    HW113310   3.652   2.823   4.819  0.0246  0.5231  0.2193
 4137SOL    HW213311   3.561   2.940   4.889  1.2380  1.3282  0.4814
 4138SOL     OW13312   5.219   5.241   1.044 -0.2923 -0.0992 -0.3486
 4138SOL    HW113313   5.138   5.290   1.078 -0.3686 -0.0665 -0.5796
 4138SOL    HW213314   5.282   5.226   1.120 -0.1028  0.6824 -0.3421
 4139SOL     OW13315   5.439   2.665   0.608  0.5447  0.6791  0.3372
 4139SOL    HW113316   5.520   2.700   0.655 -1.3338  3.0971  2.0389
 4139SOL    HW213317   5.397   2.738   0.556 -1.4980 -0.0152  0.9216
 4140SOL     OW13318   5.074   4.063   4.728 -0.3680  0.3420 -0.5954
 4140SOL    HW113319   5.172   4.084   4.738 -0.2457 -0.9552  1.4383
 4140SOL    HW213320   5.034   4.126   4.661  1.9099  0.6726 -1.7811
 4141SOL     OW13321   6.587   4.649   6.145 -0.6411  0.0850 -0.9337
 4141SOL    HW113322   6.623   4.738   6.115 -0.9725  1.0578  1.3064
 4141SOL    HW213323   6.643   4.615   6.220 -1.4683 -0.8405 -0.7244
 4142SOL     OW13324   5.045   2.288   2.664  0.3462  0.4154  0.1044
 4142SOL    HW113325   5.015   2.373   2.708 -0.1445  0.3527 -0.1021
 4142SOL    HW213326   5.119   2.308   2.600  0.3212  0.6657  0.1529
 4143SOL     OW13327   1.271   0.291   1.805 -0.3327  0.3891  0.0277
 4143SOL    HW113328   1.298   0.199   1.776  0.3033 -0.0159  1.7304
 4143SOL    HW213329   1.188   0.286   1.861 -1.2903  1.0824 -1.2876
 4144SOL     OW13330   3.953   6.840   1.796 -0.1643 -0.4456  0.5922
 4144SOL    HW113331   3.864   6.886   1.798 -0.7486 -1.4381 -0.9104
 4144SOL    HW213332   3.979   6.815   1.890 -0.3547  1.8422  1.3313
 4145SOL     OW13333   1.118   6.308   2.503  0.0664  0.1752 -0.0200
 4145SOL    HW113334   1.036   6.313   2.560  0.3444  0.3929  0.3692
 4145SOL    HW213335   1.199   6.312   2.562  0.3725  1.5424 -0.5019
 4146SOL     OW13336   5.090   5.526   1.417  0.4421 -0.2902  0.1686
 4146SOL    HW113337   5.158   5.598   1.430  0.5574 -0.6153  1.5315
 4146SOL    HW213338   5.125   5.440   1.455  0.8610 -1.4244 -2.6020
 4147SOL     OW13339   3.875   1.189   6.191  0.5693  0.0227 -0.1089
 4147SOL    HW113340   3.908   1.096   6.198  0.2262 -0.3402 -2.4422
 4147SOL    HW213341   3.931   1.240   6.125  0.3231  1.2597  0.6001
 4148SOL     OW13342   0.502   5.616   2.546 -0.0191 -0.2482  0.0524
 4148SOL    HW113343   0.485   5.713   2.524 -0.3145  0.0162  1.3425
 4148SOL    HW213344   0.597   5.594   2.525  0.5691  0.8377  1.3953
 4149SOL     OW13345   5.450   5.016   2.478 -0.1320  0.3951  0.4035
 4149SOL    HW113346   5.500   4.961   2.544  0.7204  0.6141 -0.0524
 4149SOL    HW213347   5.441   5.110   2.512  0.2295  0.4864  0.2424
 4150SOL     OW13348   3.691   6.667   2.701 -0.2731 -0.6916 -0.2133
 4150SOL    HW113349   3.690   6.595   2.771  0.4234  1.3990  2.1132
 4150SOL    HW213350   3.758   6.738   2.727 -2.6256  2.0167 -1.0253
 4151SOL     OW13351   0.364   4.689   1.030 -0.9693 -0.5953  0.1244
 4151SOL    HW113352   0.452   4.690   1.078 -1.1390  0.3626  0.4437
 4151SOL    HW213353   0.357   4.607   0.974  0.0758 -0.7433  0.1958
 4152SOL     OW13354   3.179   4.367   6.988 -0.1156  0.3359 -0.4804
 4152SOL    HW113355   3.131   4.368   6.900  1.2834 -0.2390 -1.2844
 4152SOL    HW213356   3.219   4.277   7.003  1.4155  1.0289 -0.2409
 4153SOL     OW13357   3.711   4.176   6.666 -0.2876 -0.5428 -0.2211
 4153SOL    HW113358   3.678   4.106   6.603  1.0745 -0.9747 -0.4676
 4153SOL    HW213359   3.632   4.224   6.706 -1.2228 -1.8817 -0.4005
 4154SOL     OW13360   4.956   0.611   2.548  0.7214  0.0410  0.4568
 4154SOL    HW113361   4.903   0.526   2.559  0.7551 -0.4289 -2.3195
 4154SOL    HW213362   4.989   0.617   2.454  2.8921  1.9333  1.2643
 4155SOL     OW13363   2.079   3.013   1.911 -0.2918  0.0482 -0.4977
 4155SOL    HW113364   2.158   2.977   1.862 -0.1720  0.4473 -0.6061
 4155SOL    HW213365   2.070   2.968   1.999  1.7840  1.9788  0.8047
 4156SOL     OW13366   5.822   3.062   5.656 -0.1223 -0.3713 -0.0024
 4156SOL    HW113367   5.767   3.144   5.639 -0.0638 -0.0241  1.3362
 4156SOL    HW213368   5.874   3.039   5.574 -1.1026  0.1844 -0.8076
 4157SOL     OW13369   4.324   1.560   4.218  1.0191 -0.5842  0.3910
 4157SOL    HW113370   4.370   1.598   4.299  0.5107 -1.3468  1.0579
 4157SOL    HW213371   4.306   1.463   4.233 -1.5882 -0.1412  0.5576
 4158SOL     OW13372   0.502   2.130   4.637  0.0673  0.2351 -0.2041
 4158SOL    HW113373   0.523   2.219   4.596  1.3131 -0.3457 -0.8409
 4158SOL    HW213374   0.480   2.144   4.734 -0.6491  1.3316 -0.4937
 4159SOL     OW13375   1.835   4.403   4.937 -0.5687 -0.2156 -0.7344
 4159SOL    HW113376   1.867   4.481   4.883 -1.4558  1.2590  0.7647
 4159SOL    HW213377   1.913   4.357   4.978 -0.0754  0.4130 -0.9463
 4160SOL     OW13378   5.576   1.128   2.301  0.0195 -0.4706 -0.2215
 4160SOL    HW113379   5.554   1.223   2.323  0.2283 -0.2464 -0.9472
 4160SOL    HW213380   5.493   1.081   2.273 -0.0773 -0.4830  0.0929
 4161SOL     OW13381   0.306   2.481   1.220  0.1879  0.6012  0.1414
 4161SOL    HW113382   0.284   2.400   1.166  1.6126 -0.1817  0.7026
 4161SOL    HW213383   0.405   2.487   1.234 -0.0407  1.4288  1.6725
 4162SOL     OW13384   0.664   1.656   3.255 -0.0036  0.1950 -0.1907
 4162SOL    HW113385   0.641   1.745   3.216  0.1633  0.2890 -0.0799
 4162SOL    HW213386   0.689   1.668   3.351 -0.4349 -0.0364 -0.0478
 4163SOL     OW13387   2.394   1.839   6.365  0.6792  0.0269  0.3917
 4163SOL    HW113388   2.442   1.907   6.309  1.6399 -1.3426 -0.5075
 4163SOL    HW213389   2.423   1.747   6.338 -1.4627 -0.8093  0.7885
 4164SOL     OW13390   2.031   0.614   3.854  0.6726  1.0108  0.5845
 4164SOL    HW113391   1.997   0.698   3.811  0.8205  2.0740  2.4491
 4164SOL    HW213392   2.115   0.634   3.904  1.1091 -0.4300  0.4642
 4165SOL     OW13393   6.547   6.506   2.519  1.0361  0.2282 -0.4108
 4165SOL    HW113394   6.520   6.599   2.542 -1.8618 -0.4337 -0.7906
 4165SOL    HW213395   6.516   6.443   2.591  2.4180 -0.5314 -0.4450
 4166SOL     OW13396   6.604   0.498   4.165 -0.0247 -0.2488 -0.3004
 4166SOL    HW113397   6.620   0.416   4.221 -0.9570  0.4397  1.0296
 4166SOL    HW213398   6.689   0.548   4.154 -0.0939  0.4720  1.9717
 4167SOL     OW13399   1.599   3.223   3.958  0.2932 -0.3704  0.0368
 4167SOL    HW113400   1.539   3.220   3.878 -0.7022  1.6332  0.6300
 4167SOL    HW213401   1.578   3.147   4.019 -1.3609  0.0312  0.0093
 4168SOL     OW13402   3.628   5.971   0.639  0.6275 -0.0732  0.5223
 4168SOL    HW113403   3.726   5.958   0.658  0.3034 -1.9962  1.0807
 4168SOL    HW213404   3.609   5.945   0.545  0.5614 -0.3142  0.6006
 4169SOL     OW13405   6.840   3.101   1.091 -0.0306 -0.0651  0.1160
 4169SOL    HW113406   6.742   3.119   1.103  0.0932 -0.0451  1.2153
 4169SOL    HW213407   6.852   3.019   1.036 -0.6640  0.1458 -0.3478
 4170SOL     OW13408   1.413   1.552   5.675 -0.7245  0.5735 -0.0587
 4170SOL    HW113409   1.479   1.599   5.734 -1.3799  0.8181  0.4939
 4170SOL    HW213410   1.348   1.619   5.639 -3.1205 -0.1036  2.6085
 4171SOL     OW13411   1.571   3.523   3.392  0.2047  0.4822  0.2162
 4171SOL    HW113412   1.637   3.593   3.419  0.5076  1.0382 -1.7904
 4171SOL    HW213413   1.612   3.463   3.323 -1.1044  0.3403 -0.4704
 4172SOL     OW13414   2.393   2.062   1.409 -0.1390 -0.2817  0.2269
 4172SOL    HW113415   2.477   2.022   1.372  0.0168  0.2171  0.0293
 4172SOL    HW213416   2.417   2.141   1.467 -0.5736  1.3893 -1.7622
 4173SOL     OW13417   4.399   3.568   5.292 -0.4653 -0.2262 -0.5982
 4173SOL    HW113418   4.338   3.596   5.218  0.4617 -0.5322 -1.5010
 4173SOL    HW213419   4.493   3.562   5.257 -0.1841 -1.4952  0.3053
 4174SOL     OW13420   2.850   1.160   3.865  0.0721 -0.4239  0.3311
 4174SOL    HW113421   2.832   1.062   3.878  1.6863 -0.7571  0.2673
 4174SOL    HW213422   2.802   1.212   3.936 -0.0445 -1.3318  0.9388
 4175SOL     OW13423   2.500   1.616   2.346 -0.2625 -0.2746  0.4388
 4175SOL    HW113424   2.502   1.540   2.411  1.5694 -0.7322 -0.1100
 4175SOL    HW213425   2.406   1.628   2.312 -0.6919 -1.8873  0.9690
 4176SOL     OW13426   0.089   4.726   3.773 -0.2125  0.6135  0.5033
 4176SOL    HW113427   0.085   4.720   3.673 -1.0610  2.0095  0.4247
 4176SOL    HW213428   0.182   4.706   3.804  0.8063  2.8644 -0.8156
 4177SOL     OW13429   5.719   5.356   5.195  0.0678 -0.2233  0.4046
 4177SOL    HW113430   5.698   5.448   5.228  2.3035  0.4892  0.0712
 4177SOL    HW213431   5.750   5.362   5.099 -0.2451 -1.3875  0.2244
 4178SOL     OW13432   3.620   2.148   5.564 -0.2404  0.2025 -0.4773
 4178SOL    HW113433   3.622   2.156   5.663  0.3278 -1.2454 -0.3509
 4178SOL    HW213434   3.561   2.071   5.537  0.2533  0.0703 -1.2152
 4179SOL     OW13435   6.413   0.151   1.708  0.0430 -0.3409 -0.2875
 4179SOL    HW113436   6.362   0.235   1.688  1.1256  0.4842  0.3416
 4179SOL    HW213437   6.510   0.172   1.716  0.4849 -1.8562 -1.2697
 4180SOL     OW13438   5.933   4.309   0.313  0.1055 -0.5605  0.4280
 4180SOL    HW113439   6.029   4.302   0.340  0.8167  0.4168 -1.6846
 4180SOL    HW213440   5.907   4.405   0.308 -0.7934 -0.8002  0.3270
 4181SOL     OW13441   6.399   2.751   0.347 -0.5435 -0.5053  0.1659
 4181SOL    HW113442   6.440   2.741   0.256 -0.4942  0.5056  0.0714
 4181SOL    HW213443   6.312   2.701   0.350 -0.2289 -1.0859 -0.2243
 4182SOL     OW13444   5.504   0.994   4.451 -0.3828  0.1257  0.7194
 4182SOL    HW113445   5.510   0.958   4.544 -1.3951 -1.2572  0.2840
 4182SOL    HW213446   5.475   0.921   4.389 -5.0144  2.1199  0.1474
 4183SOL     OW13447   1.333   6.231   1.374 -0.0177 -0.1287  0.4247
 4183SOL    HW113448   1.262   6.296   1.401  0.1906  1.3175 -2.1260
 4183SOL    HW213449   1.293   6.161   1.315  0.6942  1.1386 -1.6712
 4184SOL     OW13450   4.286   3.803   6.844 -0.4219  0.2429  0.1082
 4184SOL    HW113451   4.307   3.864   6.920 -1.4232 -0.3292  0.8602
 4184SOL    HW213452   4.308   3.709   6.869 -1.5124 -0.0570  0.0194
 4185SOL     OW13453   5.738   0.640   5.320 -0.3416 -0.9717 -0.5232
 4185SOL    HW113454   5.742   0.551   5.275 -3.1723 -0.3486 -2.2681
 4185SOL    HW213455   5.821   0.692   5.299 -0.0438 -2.0421 -2.1189
 4186SOL     OW13456   2.902   3.293   2.744  0.2050  0.4086  0.0756
 4186SOL    HW113457   2.879   3.378   2.792 -1.1750 -0.2500  0.6413
 4186SOL    HW213458   2.989   3.258   2.778 -0.3911  0.3413  1.6208
 4187SOL     OW13459   3.764   0.592   5.365 -0.4994 -0.3387  0.0382
 4187SOL    HW113460   3.822   0.531   5.419  0.1895 -0.2638 -0.6154
 4187SOL    HW213461   3.733   0.668   5.423  2.2014  1.0906 -0.2159
 4188SOL     OW13462   6.198   6.053   3.748 -0.2790  0.2262 -0.1874
 4188SOL    HW113463   6.104   6.025   3.726 -0.2864 -0.4509  0.6570
 4188SOL    HW213464   6.229   6.003   3.828  0.8537  0.3687 -0.5286
 4189SOL     OW13465   1.347   1.323   2.483  0.2524  0.4873 -0.7517
 4189SOL    HW113466   1.400   1.368   2.412  2.0185  0.2784  0.3721
 4189SOL    HW213467   1.325   1.230   2.453 -0.3826  0.9077 -1.6425
 4190SOL     OW13468   2.434   6.474   2.300  0.1480  0.0487  0.4951
 4190SOL    HW113469   2.395   6.386   2.273  0.8403  0.1852 -1.0922
 4190SOL    HW213470   2.494   6.507   2.228  2.7479  0.1425  2.5660
 4191SOL     OW13471   0.343   1.980   3.331  0.3859  0.2723  0.2079
 4191SOL    HW113472   0.322   2.069   3.371  1.3532  1.3003 -1.4912
 4191SOL    HW213473   0.262   1.921   3.337 -0.4529  1.4443  0.8062
 4192SOL     OW13474   0.070   6.350   3.001  0.7932 -0.6417 -0.3689
 4192SOL    HW113475   0.028   6.415   3.064 -0.2323 -0.4374 -1.2401
 4192SOL    HW213476   0.085   6.393   2.913  0.8674 -1.3386 -0.7071
 4193SOL     OW13477   0.399   0.044   4.371  0.3188  0.3450 -0.0835
 4193SOL    HW113478   0.419   0.074   4.278  1.5918  2.9444  0.9402
 4193SOL    HW213479   0.366  -0.051   4.369  1.4182 -0.0744 -3.0419
 4194SOL     OW13480   4.603   0.900   1.636  0.6663 -0.1656 -0.6116
 4194SOL    HW113481   4.687   0.916   1.583  0.3667 -2.1900 -1.7703
 4194SOL    HW213482   4.627   0.861   1.724  1.1118  2.5181  0.5808
 4195SOL     OW13483   4.670   0.183   3.417 -0.5495  0.0373  0.3067
 4195SOL    HW113484   4.643   0.218   3.507 -0.1328  0.8291  0.1396
 4195SOL    HW213485   4.630   0.240   3.346  1.7019  1.4371  0.0563
 4196SOL     OW13486   0.715   2.475   4.037 -0.2440  0.1347 -1.0553
 4196SOL    HW113487   0.798   2.510   4.080 -0.9069  0.0605  0.3343
 4196SOL    HW213488   0.637   2.492   4.097 -1.1620 -0.2855 -2.0949
 4197SOL     OW13489   0.291   3.173   3.700  0.2618 -0.1894 -1.1503
 4197SOL    HW113490   0.306   3.258   3.751 -1.1151 -0.2708 -0.5817
 4197SOL    HW213491   0.279   3.194   3.603 -0.5938  0.3369 -0.9408
 4198SOL     OW13492   5.306   3.761   4.736 -0.7371  0.8958  0.4868
 4198SOL    HW113493   5.333   3.680   4.789  1.6884  0.8397 -0.6892
 4198SOL    HW213494   5.257   3.733   4.654  1.2405  0.4432 -0.5979
 4199SOL     OW13495   4.330   2.675   5.262  0.0586  0.6031 -0.0730
 4199SOL    HW113496   4.282   2.743   5.317  1.4735  0.6795  1.1465
 4199SOL    HW213497   4.264   2.607   5.228 -0.8683  0.4094  1.9450
 4200SOL     OW13498   2.024   5.787   3.246  0.6181  0.0551  0.0061
 4200SOL    HW113499   1.952   5.856   3.242  1.3606  0.8464  0.0307
 4200SOL    HW213500   2.029   5.740   3.158 -0.0838 -0.1695  0.0826
 4201SOL     OW13501   1.396   6.621   1.923  0.2252  0.3068 -0.1163
 4201SOL    HW113502   1.421   6.526   1.941 -0.6502  0.2926  1.1332
 4201SOL    HW213503   1.303   6.625   1.886  1.2287  0.5034 -2.9174
 4202SOL     OW13504   6.114   2.869   5.197 -0.0426  0.4384  0.2031
 4202SOL    HW113505   6.144   2.838   5.288  1.3819 -1.1957 -0.7583
 4202SOL    HW213506   6.148   2.961   5.180  2.8089 -0.5506  0.0075
 4203SOL     OW13507   3.706   5.056   5.965 -0.3391 -0.5451  0.6775
 4203SOL    HW113508   3.616   5.059   6.009 -1.1698  1.1208 -1.0198
 4203SOL    HW213509   3.712   4.976   5.906  0.1573 -1.8549  2.3995
 4204SOL     OW13510   1.913   3.905   0.544  0.2165  0.3069 -0.1955
 4204SOL    HW113511   1.825   3.945   0.569  0.4069  0.0321  0.9944
 4204SOL    HW213512   1.965   3.971   0.490 -0.1775  0.9975  0.2531
 4205SOL     OW13513   3.472   6.854   3.600  0.4423 -0.1106 -0.3419
 4205SOL    HW113514   3.500   6.922   3.668  1.9860 -0.3219 -0.7288
 4205SOL    HW213515   3.474   6.896   3.509 -0.8906 -0.0388 -0.3602
 4206SOL     OW13516   4.447   4.980   2.814 -0.2197  0.1174  0.0107
 4206SOL    HW113517   4.364   5.024   2.850 -0.8800 -0.8410 -0.3123
 4206SOL    HW213518   4.421   4.902   2.758  0.9659 -1.1978  1.2276
 4207SOL     OW13519   1.264   6.735   5.535 -0.5360 -0.3027  0.0463
 4207SOL    HW113520   1.208   6.754   5.455 -0.0502 -0.7432 -0.4092
 4207SOL    HW213521   1.296   6.640   5.532 -0.6229 -0.3626  0.8313
 4208SOL     OW13522   1.495   1.838   0.182 -0.2947  0.2023 -0.3735
 4208SOL    HW113523   1.571   1.789   0.140 -0.7822 -0.1974 -0.8063
 4208SOL    HW213524   1.408   1.797   0.154 -0.6456 -0.2071  1.1717
 4209SOL     OW13525   2.396   1.218   6.581 -0.3668  0.0247 -0.1290
 4209SOL    HW113526   2.486   1.234   6.623 -1.5129 -0.2247  2.6544
 4209SOL    HW213527   2.352   1.306   6.564 -0.3851  0.1237  0.4017
 4210SOL     OW13528   5.691   4.854   1.386 -0.6163 -0.7941  0.4796
 4210SOL    HW113529   5.645   4.865   1.298  1.3812  0.9690 -0.4097
 4210SOL    HW213530   5.643   4.908   1.455  0.5340  1.7527 -0.6283
 4211SOL     OW13531   1.704   3.121   3.463  0.5461 -0.7315 -0.6490
 4211SOL    HW113532   1.665   3.030   3.480  0.3230 -0.3887  0.7238
 4211SOL    HW213533   1.690   3.179   3.543  2.0289  0.0560 -0.9343
 4212SOL     OW13534   6.254   5.876   0.814  0.1468 -0.4944  0.0219
 4212SOL    HW113535   6.256   5.975   0.798  1.1654 -0.5420 -0.2300
 4212SOL    HW213536   6.249   5.858   0.912  0.0588 -0.1947  0.0732
 4213SOL     OW13537   1.273   0.661   3.342  0.0362  0.4148 -0.2763
 4213SOL    HW113538   1.246   0.744   3.294 -0.8942  0.7232  0.7524
 4213SOL    HW213539   1.209   0.642   3.416  1.3612 -0.1225  0.7810
 4214SOL     OW13540   3.554   5.541   3.901 -0.2334 -0.5496 -0.0139
 4214SOL    HW113541   3.467   5.568   3.860 -0.2200  1.2046  1.0005
 4214SOL    HW213542   3.538   5.475   3.974 -0.5133 -1.5964 -0.9976
 4215SOL     OW13543   1.200   6.737   0.734 -0.2598  0.6252  0.4772
 4215SOL    HW113544   1.112   6.691   0.747  0.7108 -1.5916 -0.2538
 4215SOL    HW213545   1.199   6.785   0.647 -1.5434  2.7669  1.5733
 4216SOL     OW13546   3.118   2.157   5.600 -0.4701 -0.2576  0.0130
 4216SOL    HW113547   3.140   2.218   5.523  3.3952 -3.9649 -2.2814
 4216SOL    HW213548   3.162   2.192   5.683  0.3224  0.8647 -0.8476
 4217SOL     OW13549   5.333   0.287   3.553  0.6855 -0.3440  0.3809
 4217SOL    HW113550   5.408   0.274   3.618  0.3206  0.3319  0.9463
 4217SOL    HW213551   5.322   0.204   3.499  1.2128 -0.7983  0.9499
 4218SOL     OW13552   1.455   6.762   2.259  0.4992 -0.2967 -0.3062
 4218SOL    HW113553   1.470   6.753   2.160  0.6225 -0.7108 -0.2519
 4218SOL    HW213554   1.462   6.672   2.302 -1.8451 -0.4857 -0.2311
 4219SOL     OW13555   5.838   0.164   2.559 -0.7791 -0.5650 -1.0769
 4219SOL    HW113556   5.832   0.260   2.531  1.7384 -0.0824 -0.2566
 4219SOL    HW213557   5.844   0.159   2.658  2.9019 -1.1447 -1.1778
 4220SOL     OW13558   1.199   5.791   2.139 -0.0184 -0.2430 -0.1279
 4220SOL    HW113559   1.265   5.843   2.194  0.9070  0.4660 -1.8277
 4220SOL    HW213560   1.136   5.855   2.093 -0.7401 -0.8129  0.0451
 4221SOL     OW13561   6.770   0.058   4.284 -0.3858 -0.0295  0.0016
 4221SOL    HW113562   6.861   0.066   4.243 -1.3136 -2.0547 -2.6841
 4221SOL    HW213563   6.769  -0.018   4.349 -0.1372  0.0560  0.1054
 4222SOL     OW13564   2.095   6.034   6.962  0.2717 -0.0991  0.5167
 4222SOL    HW113565   2.129   6.007   7.052  2.7187 -0.3107 -0.3938
 4222SOL    HW213566   2.106   6.133   6.951 -2.4361  0.3789  1.3360
 4223SOL     OW13567   3.110   2.960   1.770  0.4579  0.3961 -0.3906
 4223SOL    HW113568   3.152   3.008   1.692  2.0883 -0.7155 -0.2470
 4223SOL    HW213569   3.098   2.863   1.748  0.6672  0.1225  0.6323
 4224SOL     OW13570   1.018   1.909   6.314  0.0990 -0.1173  0.3075
 4224SOL    HW113571   1.024   1.871   6.222  2.3114 -1.0443  0.7686
 4224SOL    HW213572   1.095   1.971   6.329 -0.5695  0.4780  1.3435
 4225SOL     OW13573   5.373   4.801   3.987 -0.6596 -0.3751 -0.4426
 4225SOL    HW113574   5.283   4.771   4.020 -0.4976 -0.3545  0.0228
 4225SOL    HW213575   5.385   4.898   4.009  0.2894 -0.8492  1.3203
 4226SOL     OW13576   2.757   1.834   1.974 -0.3792  0.8259 -0.1157
 4226SOL    HW113577   2.705   1.803   1.895  2.8826 -0.6618 -1.9037
 4226SOL    HW213578   2.831   1.894   1.943  1.0766  0.0903  1.7212
 4227SOL     OW13579   5.440   3.891   2.199 -0.2873  0.3316  0.0638
 4227SOL    HW113580   5.404   3.978   2.165  1.0611  0.8467 -0.1020
 4227SOL    HW213581   5.526   3.870   2.153  0.7990  0.2662  2.0326
 4228SOL     OW13582   4.946   5.258   4.040 -0.5572 -0.7888 -0.2954
 4228SOL    HW113583   4.921   5.297   4.129  2.5882  0.4530  0.1870
 4228SOL    HW213584   4.890   5.300   3.969  0.4923  2.3805  0.5759
 4229SOL     OW13585   4.667   5.923   5.529 -0.4905  0.1515 -0.1794
 4229SOL    HW113586   4.615   6.007   5.513  0.3818  0.8570  0.5629
 4229SOL    HW213587   4.637   5.852   5.465 -0.2890  1.4522 -1.7695
 4230SOL     OW13588   0.248   1.901   4.606 -0.9122 -0.2803  0.2186
 4230SOL    HW113589   0.233   1.999   4.592 -2.0663 -0.2942  1.1409
 4230SOL    HW213590   0.305   1.888   4.687  3.2770 -0.2836 -2.4545
 4231SOL     OW13591   3.084   5.051   4.530  0.0598 -0.7160  0.1098
 4231SOL    HW113592   3.032   5.130   4.562  1.0081  0.3241 -0.8528
 4231SOL    HW213593   3.022   4.985   4.487 -0.8238 -0.8161  1.4869
 4232SOL     OW13594   1.722   4.306   2.254  0.1220 -0.5099  0.0462
 4232SOL    HW113595   1.726   4.229   2.190 -0.0562  0.4674 -1.1834
 4232SOL    HW213596   1.814   4.326   2.288  0.5492  0.1879 -1.4480
 4233SOL     OW13597   2.964   4.164   1.131 -0.7424 -0.2442  0.4140
 4233SOL    HW113598   2.911   4.212   1.201  0.2856  1.4632  0.0862
 4233SOL    HW213599   2.903   4.139   1.055 -1.2634  0.8662  0.4451
 4234SOL     OW13600   3.464   5.080   5.331 -0.2200 -0.1810  0.2907
 4234SOL    HW113601   3.420   5.091   5.242 -0.6310 -0.2661  0.4812
 4234SOL    HW213602   3.545   5.021   5.321  1.4569  2.1194 -0.5597
 4235SOL     OW13603   0.215   3.114   4.140  0.6080  0.2892  0.1456
 4235SOL    HW113604   0.201   3.181   4.067  0.5725 -0.6966 -0.7698
 4235SOL    HW213605   0.312   3.089   4.144  0.1948 -2.0437 -1.7784
 4236SOL     OW13606   1.767   3.967   3.422 -0.3931  0.2305 -0.4585
 4236SOL    HW113607   1.800   4.054   3.456  1.8537 -0.3425 -1.0007
 4236SOL    HW213608   1.736   3.977   3.328 -1.1555  0.6363 -0.1715
 4237SOL     OW13609   4.913   4.347   5.205 -0.5416  0.2761 -0.0020
 4237SOL    HW113610   4.891   4.337   5.302  0.7545 -0.8688  0.1998
 4237SOL    HW213611   4.836   4.315   5.150 -1.5141  1.4604  0.6180
 4238SOL     OW13612   4.217   1.537   3.470 -0.7508  0.0532  0.0459
 4238SOL    HW113613   4.145   1.575   3.413  1.0567  0.5036 -2.0611
 4238SOL    HW213614   4.264   1.463   3.422 -0.3285 -0.8266  1.7063
 4239SOL     OW13615   5.660   4.990   5.413 -0.7495 -0.0326 -0.4080
 4239SOL    HW113616   5.654   4.965   5.510  1.2390  1.0503  0.0457
 4239SOL    HW213617   5.662   5.090   5.405 -1.1845 -0.0984 -1.6150
 4240SOL     OW13618   2.855   4.938   6.257 -0.4222 -0.3542 -0.9150
 4240SOL    HW113619   2.953   4.937   6.274 -0.0294  2.9388 -2.3648
 4240SOL    HW213620   2.810   5.002   6.319 -1.5294 -1.0460 -0.9674
 4241SOL     OW13621   4.431   2.630   6.925  0.0649  0.4938  0.4049
 4241SOL    HW113622   4.481   2.543   6.927  0.2784  0.5120 -1.8549
 4241SOL    HW213623   4.346   2.618   6.874  0.2826  1.6991 -0.2690
 4242SOL     OW13624   3.353   1.331   2.354 -0.4680 -0.0472  0.3569
 4242SOL    HW113625   3.342   1.396   2.279  0.2192 -0.8615 -0.4660
 4242SOL    HW213626   3.296   1.360   2.431 -0.8991  1.0053 -0.3275
 4243SOL     OW13627   1.779   2.735   2.561 -0.1052 -0.3069 -0.4053
 4243SOL    HW113628   1.763   2.780   2.474  0.0038  0.3441 -0.0937
 4243SOL    HW213629   1.744   2.641   2.557  1.5533 -0.9191 -1.7677
 4244SOL     OW13630   3.758   5.373   0.921  0.4272  0.0126 -0.2765
 4244SOL    HW113631   3.814   5.455   0.905  0.5120  0.1862  0.8430
 4244SOL    HW213632   3.693   5.363   0.846  0.9583  0.6480 -0.8420
 4245SOL     OW13633   0.453   0.038   2.083  0.2642  0.0935 -0.3002
 4245SOL    HW113634   0.413   0.034   2.175  1.0370  0.3356  0.0506
 4245SOL    HW213635   0.515   0.117   2.078 -0.6851  0.7979 -1.3984
 4246SOL     OW13636   4.065   1.990   2.638  0.1357 -0.1032 -0.3506
 4246SOL    HW113637   4.060   1.960   2.733  1.9675  0.0002 -0.1842
 4246SOL    HW213638   3.973   1.993   2.598 -0.8964  1.6818  1.9643
 4247SOL     OW13639   6.850   4.935   6.600 -0.0898  0.3562  0.0040
 4247SOL    HW113640   6.779   5.001   6.575  0.4879  0.6574 -0.8834
 4247SOL    HW213641   6.810   4.844   6.606 -0.4880  0.4637 -0.8515
 4248SOL     OW13642   3.241   5.877   1.982 -0.1553 -0.3164 -0.2067
 4248SOL    HW113643   3.165   5.813   1.995 -1.7047  1.2314 -1.2355
 4248SOL    HW213644   3.328   5.830   2.002 -1.3683 -2.0161  1.3995
 4249SOL     OW13645   6.036   1.207   5.860  0.0338 -0.3117  0.2032
 4249SOL    HW113646   6.057   1.285   5.802 -1.1536  0.8837  1.3000
 4249SOL    HW213647   5.946   1.220   5.902  0.5256 -1.4614  1.7123
 4250SOL     OW13648   2.761   6.390   4.758 -0.4166 -0.0240  0.2770
 4250SOL    HW113649   2.678   6.393   4.702  0.3160 -0.4861 -0.8810
 4250SOL    HW213650   2.739   6.356   4.849 -1.4390 -0.5378 -0.1442
 4251SOL     OW13651   5.001   2.039   5.111  0.0740  0.2394 -0.4846
 4251SOL    HW113652   4.967   2.038   5.205  1.7013  1.9820  0.1819
 4251SOL    HW213653   4.980   2.128   5.070  0.8773  0.1106 -1.1829
 4252SOL     OW13654   1.115   0.137   0.380 -0.3065 -0.3551  0.0960
 4252SOL    HW113655   1.140   0.076   0.305 -0.4604 -1.8411  1.2078
 4252SOL    HW213656   1.019   0.126   0.403 -0.8587  1.7634 -0.9332
 4253SOL     OW13657   2.774   0.809   1.533  0.7731 -0.1895  0.0514
 4253SOL    HW113658   2.845   0.744   1.560 -1.0893 -1.6344  1.7903
 4253SOL    HW213659   2.768   0.882   1.600 -0.8037 -1.2913  1.1806
 4254SOL     OW13660   1.052   1.374   5.007 -0.3904 -0.4985 -0.0623
 4254SOL    HW113661   1.044   1.305   4.935 -0.2641  0.2178 -0.7846
 4254SOL    HW213662   1.138   1.425   4.995 -0.2134 -0.5742  0.7910
 4255SOL     OW13663   1.373   1.656   5.333 -0.0682  0.3154 -0.0935
 4255SOL    HW113664   1.374   1.704   5.245 -0.5330 -1.1706 -0.9478
 4255SOL    HW213665   1.376   1.722   5.408 -0.0948  1.6248 -1.2249
 4256SOL     OW13666   0.255   5.777   1.247  0.0058  0.1269 -0.0828
 4256SOL    HW113667   0.212   5.832   1.319 -1.5953 -1.6777  0.4337
 4256SOL    HW213668   0.282   5.689   1.285 -1.6408 -1.2053 -1.8178
 4257SOL     OW13669   0.361   1.261   3.412 -0.4233 -0.0176  0.1366
 4257SOL    HW113670   0.328   1.271   3.318 -2.6781  0.7000  0.9327
 4257SOL    HW213671   0.378   1.351   3.451  1.6716 -0.3534  0.0651
 4258SOL     OW13672   2.119   6.581   6.243 -0.6132 -0.2585 -0.0810
 4258SOL    HW113673   2.020   6.563   6.247 -0.6289 -0.0768  0.4461
 4258SOL    HW213674   2.136   6.669   6.199 -0.8041  0.6049  1.4908
 4259SOL     OW13675   1.442   2.217   0.376  0.1064  0.0191 -0.3774
 4259SOL    HW113676   1.390   2.295   0.408  1.1278 -0.0825  1.7019
 4259SOL    HW213677   1.379   2.143   0.349 -0.8328  0.5258  0.3790
 4260SOL     OW13678   0.029   0.672   7.011  0.4575 -0.1722  0.1088
 4260SOL    HW113679   0.050   0.696   6.916 -2.4047 -1.9951 -1.1257
 4260SOL    HW213680  -0.063   0.703   7.034  0.4495 -1.2412  1.7246
 4261SOL     OW13681   0.190   1.385   4.419 -0.2091 -0.1885 -0.0165
 4261SOL    HW113682   0.205   1.390   4.320 -0.4084 -0.5151 -0.0615
 4261SOL    HW213683   0.272   1.347   4.463  0.0451  0.3496 -0.0082
 4262SOL     OW13684   1.799   3.340   5.935 -0.4571 -0.1218  1.0713
 4262SOL    HW113685   1.733   3.266   5.944  0.3351 -1.1531 -0.9596
 4262SOL    HW213686   1.755   3.420   5.894 -0.5162 -0.8020 -0.2628
 4263SOL     OW13687   3.980   1.407   2.051  0.1264  0.4181 -0.2400
 4263SOL    HW113688   3.917   1.484   2.048 -0.8159 -0.3626 -1.4218
 4263SOL    HW213689   4.067   1.437   2.091  0.1745  2.3962 -1.6374
 4264SOL     OW13690   3.487   1.098   4.690  0.1475 -0.7970 -0.0559
 4264SOL    HW113691   3.496   1.195   4.665 -0.6629 -1.0344 -1.3602
 4264SOL    HW213692   3.571   1.068   4.736  2.0949 -0.4779 -3.1251
 4265SOL     OW13693   3.120   5.083   6.174  0.2330  0.4719  0.0197
 4265SOL    HW113694   3.147   5.040   6.260  1.3378 -1.1748 -1.0816
 4265SOL    HW213695   3.116   5.013   6.102  1.3925  2.1094 -1.7252
 4266SOL     OW13696   0.610   3.242   1.663 -0.0361  0.5940 -0.0385
 4266SOL    HW113697   0.663   3.231   1.746  0.4839  3.1611  0.0391
 4266SOL    HW213698   0.652   3.189   1.589 -0.0773 -1.0939  1.0861
 4267SOL     OW13699   1.662   1.989   3.310  0.2490  0.3357  0.2233
 4267SOL    HW113700   1.621   2.024   3.226  1.1836  0.5538 -0.1658
 4267SOL    HW213701   1.737   2.050   3.337  1.9169 -1.3110 -0.4573
 4268SOL     OW13702   1.210   3.668   4.625 -0.0175  0.0426 -0.3541
 4268SOL    HW113703   1.232   3.657   4.722  0.2837  0.7695 -0.3292
 4268SOL    HW213704   1.178   3.581   4.588 -0.3040 -0.2010  0.4374
 4269SOL     OW13705   5.193   2.253   2.982  0.0741  0.1687  0.3283
 4269SOL    HW113706   5.188   2.156   2.955  1.1889  0.1916 -0.0177
 4269SOL    HW213707   5.277   2.269   3.034  0.9272  1.3384 -1.3223
 4270SOL     OW13708   3.645   4.141   0.161 -0.2135 -0.1261  0.6933
 4270SOL    HW113709   3.602   4.052   0.179  1.1100 -0.2888  3.6478
 4270SOL    HW213710   3.718   4.129   0.094 -0.9508 -0.9678  0.0106
 4271SOL     OW13711   5.037   5.742   6.351 -0.0775 -0.4298  0.0655
 4271SOL    HW113712   5.043   5.811   6.424 -0.1367 -0.5540  0.1886
 4271SOL    HW213713   4.949   5.693   6.359  0.9377 -2.1688  1.4680
 4272SOL     OW13714   5.198   2.090   5.313  0.4973  0.6304 -0.4062
 4272SOL    HW113715   5.132   2.098   5.238 -1.6685 -1.4791  1.1323
 4272SOL    HW213716   5.157   2.122   5.398  2.0181  0.6139  0.3749
 4273SOL     OW13717   4.938   5.247   3.309 -0.1799  0.0781  0.7040
 4273SOL    HW113718   4.979   5.336   3.328 -1.5419  0.9554 -0.2404
 4273SOL    HW213719   4.842   5.248   3.339 -0.4361 -0.7874 -0.0498
 4274SOL     OW13720   4.974   0.666   1.546 -0.2016 -0.2010 -0.1444
 4274SOL    HW113721   4.958   0.726   1.468  0.0289  0.9600  0.6535
 4274SOL    HW213722   5.005   0.722   1.624  0.7393 -1.4627  0.4220
 4275SOL     OW13723   0.096   2.529   4.216 -0.3430  0.4927  0.0996
 4275SOL    HW113724  -0.000   2.533   4.240 -0.5082 -0.2320 -0.4091
 4275SOL    HW213725   0.110   2.461   4.143  0.6423  0.0991  0.6348
 4276SOL     OW13726   2.654   0.006   3.338 -0.1646 -0.1797 -0.4555
 4276SOL    HW113727   2.600  -0.059   3.285  0.5837 -0.6448 -0.6675
 4276SOL    HW213728   2.721  -0.044   3.394  0.7130  0.4187 -0.9420
 4277SOL     OW13729   1.272   5.500   3.191 -0.0980  0.3675  0.4192
 4277SOL    HW113730   1.365   5.510   3.227 -0.3905 -2.1839  2.0878
 4277SOL    HW213731   1.268   5.419   3.132 -0.7078  1.9632 -1.8677
 4278SOL     OW13732   0.270   6.815   1.958 -0.2314  0.4090  0.1598
 4278SOL    HW113733   0.322   6.738   1.919  0.4239 -0.2214  2.1421
 4278SOL    HW213734   0.328   6.896   1.959 -0.2020  0.3915 -0.0358
 4279SOL     OW13735   1.798   4.502   4.517  0.3117  0.1039 -0.6507
 4279SOL    HW113736   1.706   4.482   4.486  0.0461 -0.3836  0.4033
 4279SOL    HW213737   1.852   4.418   4.522 -0.0888 -0.0920  1.5117
 4280SOL     OW13738   1.402   0.714   4.237  0.8098  0.4142  0.2891
 4280SOL    HW113739   1.490   0.675   4.208  0.9112 -0.8073  2.0843
 4280SOL    HW213740   1.331   0.643   4.231  0.1650  1.0770 -0.0716
 4281SOL     OW13741   0.690   4.716   2.542 -0.0771  0.0199  0.5528
 4281SOL    HW113742   0.608   4.760   2.504 -0.0334 -1.4079 -1.3631
 4281SOL    HW213743   0.692   4.620   2.513  0.8800 -0.7302  2.8888
 4282SOL     OW13744   5.261   3.911   2.873  0.4878  0.1164 -0.1352
 4282SOL    HW113745   5.194   3.951   2.936 -1.0457 -0.9624 -1.0028
 4282SOL    HW213746   5.213   3.860   2.803  2.2421 -0.1422 -1.1963
 4283SOL     OW13747   5.589   2.627   4.385  0.2209 -0.0134  0.0928
 4283SOL    HW113748   5.660   2.557   4.385 -0.1776 -0.4444 -1.0062
 4283SOL    HW213749   5.622   2.707   4.334 -0.5277 -0.7245 -1.5709
 4284SOL     OW13750   4.851   6.163   1.534  0.6123 -0.0944  0.6058
 4284SOL    HW113751   4.843   6.151   1.435 -0.8412 -1.8714  0.8851
 4284SOL    HW213752   4.908   6.243   1.554  0.5221  0.5832 -1.6457
 4285SOL     OW13753   2.326   0.685   5.715  0.0824  0.5155  0.4000
 4285SOL    HW113754   2.350   0.588   5.721 -0.7306  0.2945  0.2073
 4285SOL    HW213755   2.402   0.736   5.675  0.1545 -0.1965 -0.4096
 4286SOL     OW13756   5.533   6.744   5.697 -0.0006 -0.5728 -0.2768
 4286SOL    HW113757   5.473   6.822   5.678  0.8575 -0.1353 -1.3313
 4286SOL    HW213758   5.614   6.777   5.746 -0.7951 -1.2265  1.5524
 4287SOL     OW13759   4.616   6.513   0.663 -0.2170  0.4815 -0.0658
 4287SOL    HW113760   4.548   6.579   0.631  1.2522  2.1524  0.0528
 4287SOL    HW213761   4.688   6.504   0.595  0.1142 -0.2361  0.3710
 4288SOL     OW13762   6.969   6.156   3.799  0.0401 -0.8476  0.0567
 4288SOL    HW113763   6.937   6.117   3.885 -0.0130 -3.1660 -0.9228
 4288SOL    HW213764   6.890   6.167   3.737  0.3487 -1.3729 -0.4503
 4289SOL     OW13765   0.876   5.119   6.732  0.3037 -0.3064 -0.1492
 4289SOL    HW113766   0.833   5.194   6.682 -1.2755 -0.4077  0.9779
 4289SOL    HW213767   0.885   5.040   6.671  0.3949  0.2363 -0.8613
 4290SOL     OW13768   0.110   6.466   2.754 -0.3456 -0.3983  0.0229
 4290SOL    HW113769   0.020   6.440   2.720  0.4324 -1.7103 -1.1833
 4290SOL    HW213770   0.180   6.433   2.690  0.9708  1.0365  0.6633
 4291SOL     OW13771   0.450   5.648   0.521 -0.1043 -0.8118 -0.0768
 4291SOL    HW113772   0.372   5.708   0.504 -1.0541 -1.8500  0.4461
 4291SOL    HW213773   0.498   5.678   0.603  1.7558  1.4756 -1.8523
 4292SOL     OW13774   4.923   1.331   6.303  0.6733  0.1758 -0.3529
 4292SOL    HW113775   4.966   1.407   6.350  0.5476 -0.1610  0.3150
 4292SOL    HW213776   4.902   1.258   6.368  1.4894 -0.7581 -1.0928
 4293SOL     OW13777   3.485   2.643   1.135 -0.0701 -0.0857 -0.1036
 4293SOL    HW113778   3.421   2.720   1.133 -1.0834 -0.8777  0.6165
 4293SOL    HW213779   3.559   2.662   1.200  0.0763  0.5600 -0.4506
 4294SOL     OW13780   3.258   3.109   6.577 -0.4480 -0.4407  0.1749
 4294SOL    HW113781   3.192   3.164   6.527 -0.0163 -0.1922 -0.1259
 4294SOL    HW213782   3.219   3.080   6.664 -1.5172 -1.5554 -0.6461
 4295SOL     OW13783   4.413   6.139   4.705  0.6102 -0.8443  0.2523
 4295SOL    HW113784   4.452   6.076   4.638  0.1654 -1.9004  0.9640
 4295SOL    HW213785   4.460   6.228   4.698  1.2046 -1.2219 -0.8029
 4296SOL     OW13786   1.457   4.817   1.050 -0.3180  0.4042 -0.0628
 4296SOL    HW113787   1.536   4.844   0.995  0.7750  0.2236  1.3511
 4296SOL    HW213788   1.381   4.793   0.990  1.0491 -0.5231 -1.5189
 4297SOL     OW13789   0.206   3.583   0.030  0.3420 -0.0465  0.1400
 4297SOL    HW113790   0.204   3.496  -0.019 -2.7554  1.2637 -2.4234
 4297SOL    HW213791   0.147   3.576   0.111  0.5119 -0.4758  0.2285
 4298SOL     OW13792   1.381   5.316   7.006 -0.1579  0.3938  0.2407
 4298SOL    HW113793   1.288   5.277   7.006 -0.2705  0.5818 -1.5914
 4298SOL    HW213794   1.383   5.397   7.064 -0.9630 -0.0014  0.8467
 4299SOL     OW13795   6.205   3.157   0.139 -0.1278 -0.7038 -0.0452
 4299SOL    HW113796   6.299   3.179   0.165  0.3709 -1.2555 -1.3008
 4299SOL    HW213797   6.202   3.130   0.043 -1.6309 -0.3741 -0.1207
 4300SOL     OW13798   3.849   1.357   1.706  0.5240  0.4645  0.1180
 4300SOL    HW113799   3.753   1.384   1.704  0.0839 -0.9827  0.7832
 4300SOL    HW213800   3.861   1.277   1.765  2.1853  0.7737  0.2575
 4301SOL     OW13801   0.731   5.197   2.826 -0.3330  0.3571  0.6181
 4301SOL    HW113802   0.735   5.183   2.925 -0.5703 -2.0094  0.3401
 4301SOL    HW213803   0.696   5.115   2.781 -1.3196  1.7758 -1.3690
 4302SOL     OW13804   4.973   4.100   0.448  0.1002  0.0208 -0.1825
 4302SOL    HW113805   5.041   4.171   0.429  0.3856  0.1107  1.1014
 4302SOL    HW213806   4.882   4.137   0.431  0.2344  0.7797  0.6407
 4303SOL     OW13807   5.623   4.748   4.034  0.2235  0.0670 -0.0608
 4303SOL    HW113808   5.539   4.799   4.014  0.5232  0.3111 -0.7465
 4303SOL    HW213809   5.630   4.671   3.971 -0.4519 -1.1221  1.2519
 4304SOL     OW13810   2.185   6.365   6.736 -0.3635  0.0835  0.3867
 4304SOL    HW113811   2.161   6.387   6.641 -0.5002 -0.5790  0.2592
 4304SOL    HW213812   2.230   6.275   6.739  0.7121  0.6169  0.8136
 4305SOL     OW13813   6.850   6.015   5.852  0.6330  0.2370 -0.0912
 4305SOL    HW113814   6.944   5.983   5.840  0.6127 -0.7715  1.9680
 4305SOL    HW213815   6.794   5.940   5.888 -0.3148  1.5514  1.3063
 4306SOL     OW13816   1.294   4.288   4.135  0.0243 -0.2577 -0.3469
 4306SOL    HW113817   1.239   4.280   4.218 -0.3744  1.3440 -0.4098
 4306SOL    HW213818   1.377   4.340   4.154 -0.5873  1.0728 -1.1332
 4307SOL     OW13819   1.162   0.502   3.768 -0.1935 -0.0338  0.5809
 4307SOL    HW113820   1.253   0.484   3.806  0.7349 -0.2358 -1.5552
 4307SOL    HW213821   1.092   0.471   3.832  1.2149  0.4515  2.4414
 4308SOL     OW13822   5.752   5.427   6.636 -0.7363  0.0907  0.3523
 4308SOL    HW113823   5.828   5.463   6.691 -0.5092  1.6020 -0.8989
 4308SOL    HW213824   5.786   5.353   6.578 -0.2509  0.6402 -0.0734
 4309SOL     OW13825   1.579   2.480   0.800  0.7212  0.1759  0.4291
 4309SOL    HW113826   1.653   2.432   0.847  0.0973 -0.0935  1.1668
 4309SOL    HW213827   1.522   2.528   0.867 -0.0508 -0.0213 -0.0655
 4310SOL     OW13828   5.619   2.180   5.984 -0.6612 -0.1933 -0.7466
 4310SOL    HW113829   5.650   2.202   6.077  0.6046 -1.5866 -0.8062
 4310SOL    HW213830   5.519   2.179   5.982 -0.7079  0.1097  0.5369
 4311SOL     OW13831   0.040   6.018   0.908  0.6547 -0.3280  0.1567
 4311SOL    HW113832  -0.009   6.025   0.821  1.7258 -3.4059 -0.8133
 4311SOL    HW213833   0.115   6.085   0.908 -1.0184  1.6649 -0.0012
 4312SOL     OW13834   7.009   3.718   4.022  0.2873 -0.1226 -0.6356
 4312SOL    HW113835   7.080   3.788   4.029  0.2377 -0.1373  0.1059
 4312SOL    HW213836   6.926   3.759   3.985 -0.1151  0.5187  0.8624
 4313SOL     OW13837   1.620   3.832   6.812 -0.0473 -0.2828 -0.1626
 4313SOL    HW113838   1.540   3.890   6.796 -0.9730 -1.8325 -1.4934
 4313SOL    HW213839   1.702   3.889   6.812 -1.0210  1.1851 -0.1418
 4314SOL     OW13840   3.224   2.215   6.482 -0.2473  0.5131 -0.1118
 4314SOL    HW113841   3.282   2.135   6.469  0.8427  1.2388  0.1890
 4314SOL    HW213842   3.131   2.194   6.451 -0.0802 -0.9863  0.3425
 4315SOL     OW13843   3.401   3.291   6.177  0.2706  0.3394 -0.2127
 4315SOL    HW113844   3.326   3.356   6.185 -0.7595 -0.7764 -0.5847
 4315SOL    HW213845   3.426   3.256   6.267 -0.5522 -0.2673 -0.2126
 4316SOL     OW13846   4.245   4.081   0.837  0.0034 -0.6046 -0.4947
 4316SOL    HW113847   4.278   4.030   0.758  0.5996  1.1330 -1.4120
 4316SOL    HW213848   4.161   4.130   0.812  1.1021  1.2934 -0.6053
 4317SOL     OW13849   4.513   2.125   1.353  0.1165 -0.0951 -0.1874
 4317SOL    HW113850   4.593   2.151   1.407 -0.8266  0.9571  0.7457
 4317SOL    HW213851   4.481   2.035   1.382 -0.8337  0.7695  1.6043
 4318SOL     OW13852   0.881   5.164   2.567 -0.8881 -0.3037 -0.1329
 4318SOL    HW113853   0.850   5.206   2.482 -1.9716  1.4991  1.1013
 4318SOL    HW213854   0.875   5.230   2.642  2.9263 -0.8371  0.8637
 4319SOL     OW13855   1.578   6.195   0.825 -0.0844 -0.2122  0.2021
 4319SOL    HW113856   1.554   6.100   0.844 -1.5165 -0.1813 -1.2643
 4319SOL    HW213857   1.625   6.234   0.905  0.7967 -2.2036  0.7214
 4320SOL     OW13858   5.742   1.736   3.936 -0.1458  0.4582  0.6026
 4320SOL    HW113859   5.650   1.768   3.914 -0.8954 -1.3696  0.8828
 4320SOL    HW213860   5.764   1.658   3.878  0.6492 -0.0110  1.5116
 4321SOL     OW13861   1.240   7.012   4.089 -0.0358  0.0841  0.0049
 4321SOL    HW113862   1.273   7.096   4.132  3.2954 -0.8896 -0.3748
 4321SOL    HW213863   1.189   7.035   4.005  0.8908  1.7239 -0.1361
 4322SOL     OW13864   2.288   1.891   3.491  0.3084 -0.0604  1.0222
 4322SOL    HW113865   2.242   1.961   3.437 -3.5372 -1.7495  1.8017
 4322SOL    HW213866   2.265   1.800   3.455  1.8446 -1.0741  2.4408
 4323SOL     OW13867   6.045   4.608   1.327 -0.0666  0.4251 -0.2852
 4323SOL    HW113868   6.045   4.687   1.265 -0.6546 -0.1045 -0.9756
 4323SOL    HW213869   5.999   4.632   1.412  0.6691  1.1352 -0.0735
 4324SOL     OW13870   0.066   3.265   5.126 -0.1730 -0.0948  0.4270
 4324SOL    HW113871   0.115   3.329   5.184  0.7430 -0.0524 -0.3708
 4324SOL    HW213872  -0.032   3.283   5.131  0.1294  2.1269 -0.6283
 4325SOL     OW13873   1.128   2.223   0.888  0.5289 -0.4822  0.3512
 4325SOL    HW113874   1.178   2.296   0.841 -0.2454  0.2962  0.7069
 4325SOL    HW213875   1.145   2.229   0.987 -1.1770  0.5670  0.6255
 4326SOL     OW13876   4.805   0.136   3.738 -0.1319  0.0393 -0.4966
 4326SOL    HW113877   4.709   0.148   3.712 -0.2740  1.2257  0.4715
 4326SOL    HW213878   4.853   0.224   3.729  0.3913 -0.0820  0.7965
 4327SOL     OW13879   2.714   6.294   4.227 -0.0278  0.4367 -0.3547
 4327SOL    HW113880   2.740   6.238   4.148  0.9911  0.4279 -0.0235
 4327SOL    HW213881   2.709   6.236   4.308 -0.0665  0.6332 -0.2160
 4328SOL     OW13882   5.981   4.089   2.227 -0.3729  0.6418 -0.5370
 4328SOL    HW113883   5.956   4.026   2.301  1.0716  0.6120 -0.0515
 4328SOL    HW213884   6.073   4.068   2.195 -0.5319  1.4206 -1.5498
 4329SOL     OW13885   6.746   6.572   2.320  0.5682 -0.1863  1.5051
 4329SOL    HW113886   6.684   6.526   2.384  0.0177 -0.4618  0.7848
 4329SOL    HW213887   6.744   6.525   2.232 -0.2301  1.3600  0.6556
 4330SOL     OW13888   2.792   5.192   4.298  0.1086 -0.4173 -0.2882
 4330SOL    HW113889   2.802   5.189   4.199  1.3813  0.9563 -0.2474
 4330SOL    HW213890   2.855   5.261   4.336 -0.5216 -0.7326  1.4470
 4331SOL     OW13891   6.183   1.741   3.814  0.0070 -0.8785 -0.6167
 4331SOL    HW113892   6.095   1.731   3.768 -0.1930 -0.0644 -0.4399
 4331SOL    HW213893   6.215   1.652   3.845  0.5473 -1.5975 -3.0136
 4332SOL     OW13894   1.873   6.796   1.008  0.0984 -0.4809 -0.6996
 4332SOL    HW113895   1.787   6.843   0.988 -0.6792 -3.0249 -4.1661
 4332SOL    HW213896   1.864   6.748   1.095 -2.3340 -1.2751 -1.2941
 4333SOL     OW13897   4.715   3.847   5.323 -0.1538 -0.1473  0.1875
 4333SOL    HW113898   4.780   3.839   5.247  0.9884  1.1039  0.9865
 4333SOL    HW213899   4.691   3.757   5.357 -0.8592 -0.7625 -1.7702
 4334SOL     OW13900   2.412   1.340   3.145 -0.1026 -0.2259 -0.1288
 4334SOL    HW113901   2.397   1.282   3.065  1.5919 -2.4764  1.0492
 4334SOL    HW213902   2.349   1.314   3.217 -2.6828  2.8096 -1.0354
 4335SOL     OW13903   2.025   2.909   2.181 -0.6913  0.2363 -0.0546
 4335SOL    HW113904   1.948   2.860   2.223  1.4252 -2.5000  0.9798
 4335SOL    HW213905   2.067   2.969   2.249 -1.2001  0.8550 -0.2789
 4336SOL     OW13906   2.809   6.374   3.195  0.0900  0.2895 -0.6355
 4336SOL    HW113907   2.895   6.324   3.206  0.0979 -0.0035 -1.8722
 4336SOL    HW213908   2.763   6.343   3.112 -0.5135  1.4896 -0.7681
 4337SOL     OW13909   6.006   2.728   4.366 -0.1229  0.0357  0.3151
 4337SOL    HW113910   6.035   2.704   4.459 -0.7366 -0.4260  0.3946
 4337SOL    HW213911   6.070   2.795   4.328 -0.9691  1.7760  1.7933
 4338SOL     OW13912   3.329   3.836   4.352 -0.1587 -0.2899 -0.7101
 4338SOL    HW113913   3.265   3.758   4.355 -0.8049  0.1821 -1.6272
 4338SOL    HW213914   3.345   3.869   4.445  0.1077 -1.4994 -0.3064
 4339SOL     OW13915   3.236   3.595   3.089  0.2037 -0.5909  0.3651
 4339SOL    HW113916   3.227   3.608   2.990 -2.9837 -2.2403  0.3139
 4339SOL    HW213917   3.289   3.513   3.108  0.3791 -0.5566  0.0221
 4340SOL     OW13918   6.087   3.165   1.544 -0.1397 -0.0727  0.0760
 4340SOL    HW113919   6.130   3.086   1.501 -0.3732 -0.3222  0.2991
 4340SOL    HW213920   6.009   3.195   1.488 -1.7096 -1.6419  1.3163
 4341SOL     OW13921   4.464   6.457   2.613 -0.6591  0.5864  0.2127
 4341SOL    HW113922   4.525   6.535   2.624  0.2070 -0.1278  0.6236
 4341SOL    HW213923   4.500   6.396   2.542 -2.0629  1.2275 -1.1137
 4342SOL     OW13924   6.853   4.447   2.771  0.2082  0.1545 -0.6773
 4342SOL    HW113925   6.913   4.475   2.846 -1.7677 -0.2212  1.1305
 4342SOL    HW213926   6.893   4.477   2.684  2.6620  0.4481  0.4586
 4343SOL     OW13927   2.560   6.830   0.195  0.1605 -0.3060  0.3003
 4343SOL    HW113928   2.577   6.740   0.154 -0.7022  0.4268 -1.8394
 4343SOL    HW213929   2.506   6.885   0.131  0.7273  1.7713  1.5410
 4344SOL     OW13930   1.217   4.224   2.272  0.4254 -0.2248 -0.1746
 4344SOL    HW113931   1.297   4.274   2.238  0.8755 -0.7573  0.0681
 4344SOL    HW213932   1.190   4.261   2.361  1.2034 -0.8621  0.3403
 4345SOL     OW13933   2.670   4.385   0.919  0.0774 -0.2586  0.1264
 4345SOL    HW113934   2.695   4.288   0.913 -0.9590 -0.5083 -0.5409
 4345SOL    HW213935   2.612   4.400   0.999 -0.4860 -0.3781 -0.2495
 4346SOL     OW13936   2.132   3.681   2.705 -0.4505  0.9771  0.5504
 4346SOL    HW113937   2.133   3.659   2.803 -1.7894  2.2254  0.8882
 4346SOL    HW213938   2.135   3.597   2.652 -2.9046  0.0210  1.7216
 4347SOL     OW13939   5.451   5.323   6.457 -1.1393 -0.7295  0.1433
 4347SOL    HW113940   5.411   5.232   6.469 -2.4574 -0.3012 -0.8884
 4347SOL    HW213941   5.428   5.380   6.536 -2.8776 -0.4019 -0.5537
 4348SOL     OW13942   6.400   4.209   6.113  0.0587  0.4727 -0.3440
 4348SOL    HW113943   6.434   4.123   6.076 -0.1934  0.2999 -0.1766
 4348SOL    HW213944   6.451   4.285   6.072 -0.0708  0.2764 -0.8814
 4349SOL     OW13945   1.329   3.876   3.765  0.9514  0.0630  0.9892
 4349SOL    HW113946   1.422   3.884   3.800  1.0014  0.5198  0.7540
 4349SOL    HW213947   1.288   3.966   3.758  1.1637  0.0595 -0.7165
 4350SOL     OW13948   5.711   0.744   3.254  0.0264  0.2722  0.0040
 4350SOL    HW113949   5.687   0.732   3.350  2.6581 -1.9359  0.5025
 4350SOL    HW213950   5.637   0.709   3.196 -0.5419 -0.6807  1.2698
 4351SOL     OW13951   0.848   0.515   3.138  0.7271  0.5954  0.1135
 4351SOL    HW113952   0.773   0.517   3.204 -0.0539  0.6943 -0.7509
 4351SOL    HW213953   0.922   0.458   3.174 -0.5546 -1.1109  0.1798
 4352SOL     OW13954   2.630   4.401   1.196 -0.3006  0.2954  0.3352
 4352SOL    HW113955   2.540   4.364   1.221 -0.4395 -0.7026 -1.4713
 4352SOL    HW213956   2.701   4.350   1.244 -0.5891 -1.0194 -0.5756
 4353SOL     OW13957   0.947   3.521   5.956 -0.0943  0.2616 -0.3914
 4353SOL    HW113958   0.877   3.475   5.901 -1.5579 -0.3989  1.8803
 4353SOL    HW213959   1.035   3.475   5.944 -1.2295 -2.4331  0.7908
 4354SOL     OW13960   6.010   3.350   3.231  0.2003 -0.1282 -0.1783
 4354SOL    HW113961   6.043   3.386   3.318 -2.3564  3.7424 -0.5817
 4354SOL    HW213962   5.942   3.279   3.248 -1.0777  1.3491  1.1102
 4355SOL     OW13963   1.809   4.819   3.935 -0.0913  0.3966 -0.0850
 4355SOL    HW113964   1.730   4.784   3.884 -0.2257  2.2442 -1.2392
 4355SOL    HW213965   1.779   4.894   3.994  0.8070  1.2268 -0.6610
 4356SOL     OW13966   4.788   1.847   4.180 -0.5092  0.6326 -0.2332
 4356SOL    HW113967   4.835   1.935   4.186 -1.1282  1.1383 -2.1625
 4356SOL    HW213968   4.813   1.801   4.095  1.4803 -2.1248  1.6703
 4357SOL     OW13969   6.213   5.653   3.467 -0.2109 -0.0643  0.2174
 4357SOL    HW113970   6.256   5.591   3.401 -0.5597 -0.1255  0.0412
 4357SOL    HW213971   6.279   5.681   3.536  0.1182 -0.1260 -0.0716
 4358SOL     OW13972   4.018   2.257   0.037  0.3205  0.0381 -0.4504
 4358SOL    HW113973   4.020   2.157   0.027 -0.2473  0.0104 -0.3516
 4358SOL    HW213974   4.090   2.298  -0.020 -0.3236 -0.3531 -1.5975
 4359SOL     OW13975   1.399   4.574   2.074  0.0717 -0.3062  0.3509
 4359SOL    HW113976   1.325   4.610   2.017 -1.0333 -0.0981  1.8484
 4359SOL    HW213977   1.438   4.648   2.129  1.2728 -0.4581 -0.2473
 4360SOL     OW13978   3.992   6.622   3.001 -0.8044 -0.2933 -0.4977
 4360SOL    HW113979   3.904   6.576   3.016 -0.6642 -0.7088 -0.9440
 4360SOL    HW213980   4.025   6.658   3.088 -1.1011 -0.7074 -0.2078
 4361SOL     OW13981   1.582   1.486   0.037 -0.4148  0.3343  0.5812
 4361SOL    HW113982   1.576   1.423  -0.041 -1.5023  1.7041 -0.4904
 4361SOL    HW213983   1.495   1.487   0.086 -0.2717  0.7106  0.8298
 4362SOL     OW13984   0.431   4.599   3.071  0.3847  0.0642 -0.0684
 4362SOL    HW113985   0.473   4.509   3.078  0.3582  0.1404  1.5296
 4362SOL    HW213986   0.498   4.665   3.037  0.7045 -0.3542 -0.2579
 4363SOL     OW13987   4.925   2.674   1.234  0.0628 -0.3838 -0.4465
 4363SOL    HW113988   4.843   2.695   1.287 -0.4647 -0.9773 -1.0106
 4363SOL    HW213989   4.927   2.732   1.152 -0.4034 -1.1654 -1.0235
 4364SOL     OW13990   4.168   3.994   1.481 -0.0149 -0.0724  0.0417
 4364SOL    HW113991   4.100   3.979   1.553  0.6302  0.7338  0.8396
 4364SOL    HW213992   4.255   4.021   1.522  0.5166 -0.1106 -1.0194
 4365SOL     OW13993   1.357   0.017   1.743 -0.1305 -0.0219  0.1718
 4365SOL    HW113994   1.366  -0.067   1.690 -1.2727  0.1357 -0.3013
 4365SOL    HW213995   1.357  -0.005   1.841 -0.9526 -0.6421  0.0434
 4366SOL     OW13996   5.372   5.367   4.586  0.2047  0.2835  0.0037
 4366SOL    HW113997   5.301   5.437   4.588 -1.1565 -1.0530  1.1210
 4366SOL    HW213998   5.336   5.283   4.625  2.3806 -0.4911  0.4604
 4367SOL     OW13999   2.353   6.464   3.145  0.0762  0.0974  0.3941
 4367SOL    HW114000   2.268   6.478   3.094 -1.2748 -3.5242  1.3599
 4367SOL    HW214001   2.361   6.532   3.217 -1.1193  1.5005 -0.7346
 4368SOL     OW14002   5.193   6.180   3.332  0.0092 -0.1229 -0.5403
 4368SOL    HW114003   5.265   6.152   3.268 -0.2226  0.4210 -1.0446
 4368SOL    HW214004   5.104   6.166   3.289 -0.1708 -0.3062 -0.1096
 4369SOL     OW14005   0.251   3.909   3.732 -0.1364 -0.2373 -0.3642
 4369SOL    HW114006   0.277   3.865   3.647 -1.8687 -0.8060 -0.6378
 4369SOL    HW214007   0.178   3.975   3.715  0.5583  0.7826  0.4599
 4370SOL     OW14008   4.815   4.969   1.563 -0.5101  0.2477 -0.0573
 4370SOL    HW114009   4.730   5.015   1.585 -0.7285 -0.9205  1.7256
 4370SOL    HW214010   4.798   4.871   1.548  0.4470  0.0850 -0.1918
 4371SOL     OW14011   3.238   6.106   1.673 -0.7037 -0.2791  0.3518
 4371SOL    HW114012   3.250   6.126   1.770  0.8310 -1.2805  0.4032
 4371SOL    HW214013   3.197   6.015   1.663  2.3223 -1.7472  0.1231
 4372SOL     OW14014   1.760   2.009   5.445  0.0826  0.0067  0.5076
 4372SOL    HW114015   1.839   1.990   5.505  1.1658  1.3529 -0.4366
 4372SOL    HW214016   1.793   2.039   5.356 -1.5185 -1.2891 -0.5766
 4373SOL     OW14017   4.554   6.245   1.715 -0.1462 -0.2156  0.3270
 4373SOL    HW114018   4.526   6.304   1.639 -0.8425 -1.5963 -0.5423
 4373SOL    HW214019   4.634   6.191   1.688 -0.3033 -0.6026  0.6243
 4374SOL     OW14020   2.366   6.589   1.911 -0.4615 -0.3287 -0.8795
 4374SOL    HW114021   2.329   6.671   1.956 -1.5138 -0.7251 -0.9845
 4374SOL    HW214022   2.367   6.603   1.812  0.2552 -0.0918 -0.8416
 4375SOL     OW14023   6.079   1.733   5.422  0.5240 -0.1208  1.0450
 4375SOL    HW114024   6.040   1.646   5.453  0.1383  0.2074  1.5058
 4375SOL    HW214025   6.006   1.792   5.390  0.9515 -0.5852 -0.8940
 4376SOL     OW14026   1.560   4.983   5.345 -0.0897 -0.5751  0.6931
 4376SOL    HW114027   1.607   5.069   5.327 -0.9451 -0.1700  0.3747
 4376SOL    HW214028   1.461   4.995   5.336 -0.1701 -1.9199 -0.8439
 4377SOL     OW14029   3.451   6.103   6.581 -0.1262 -0.2709 -0.5518
 4377SOL    HW114030   3.531   6.086   6.523  0.3108  1.4331 -0.4795
 4377SOL    HW214031   3.481   6.125   6.674 -0.5414  2.1149 -0.9303
 4378SOL     OW14032   1.831   4.385   0.280 -0.1527 -0.3119 -0.1512
 4378SOL    HW114033   1.750   4.346   0.324  1.6287 -2.0463  1.8619
 4378SOL    HW214034   1.912   4.337   0.313  1.7601  1.6136 -1.7808
 4379SOL     OW14035   5.731   0.397   0.373 -0.2530 -0.0146  0.1915
 4379SOL    HW114036   5.641   0.440   0.372  0.8662  2.5228 -0.5942
 4379SOL    HW214037   5.801   0.467   0.378  1.7361 -1.8522 -0.3652
 4380SOL     OW14038   0.455   6.690   4.971  0.4459 -0.0322 -0.2279
 4380SOL    HW114039   0.475   6.779   5.011 -1.6455 -0.2186  1.4482
 4380SOL    HW214040   0.370   6.696   4.918  0.3150 -1.0012 -0.1457
 4381SOL     OW14041   4.735   6.988   4.940  0.6338 -0.0275  0.1371
 4381SOL    HW114042   4.783   6.969   5.025 -0.3188 -0.4850  0.5886
 4381SOL    HW214043   4.655   6.929   4.933  0.0530  0.8130 -0.5305
 4382SOL     OW14044   6.018   3.812   3.025  0.0554  0.2786  0.7822
 4382SOL    HW114045   5.996   3.808   2.927 -4.0781  1.5958  1.4634
 4382SOL    HW214046   6.027   3.907   3.053 -1.7249  0.1152  2.1124
 4383SOL     OW14047   5.398   6.693   6.439 -0.0494 -0.1111  0.2922
 4383SOL    HW114048   5.346   6.655   6.362  1.8405 -1.8174 -0.2533
 4383SOL    HW214049   5.461   6.763   6.406 -0.8070  0.7509  0.6655
 4384SOL     OW14050   4.178   6.018   1.257  0.3328 -0.7841 -0.3276
 4384SOL    HW114051   4.122   6.070   1.322 -0.2915 -3.2650  1.2739
 4384SOL    HW214052   4.252   6.075   1.223 -1.2689  1.6112  0.0074
 4385SOL     OW14053   5.664   3.868   3.807 -0.3935 -0.4600  0.6689
 4385SOL    HW114054   5.593   3.891   3.740 -0.6904 -0.5376  0.9499
 4385SOL    HW214055   5.692   3.773   3.794  0.5653 -0.0674 -0.2525
 4386SOL     OW14056   2.804   6.474   1.209 -0.2639 -0.0876 -0.0852
 4386SOL    HW114057   2.716   6.517   1.229 -0.2742 -0.1239 -0.0540
 4386SOL    HW214058   2.791   6.377   1.191 -0.1854 -0.1606  0.2513
 4387SOL     OW14059   0.190   3.068   0.918  0.0347  0.5704  0.1304
 4387SOL    HW114060   0.097   3.095   0.893  0.2817  0.6460 -0.7598
 4387SOL    HW214061   0.207   2.974   0.887  0.3713  0.6828 -0.0296
 4388SOL     OW14062   4.368   1.823   6.438 -0.7513  0.4148  0.2205
 4388SOL    HW114063   4.300   1.892   6.459 -0.7852  0.8570 -1.2425
 4388SOL    HW214064   4.414   1.846   6.352  0.8339 -0.1835  0.8606
 4389SOL     OW14065   0.888   2.423   2.818  0.2642 -0.1982  0.8344
 4389SOL    HW114066   0.971   2.479   2.821 -0.0039  0.3166 -0.7454
 4389SOL    HW214067   0.830   2.445   2.896  1.3634 -0.2051  1.6870
 4390SOL     OW14068   5.293   4.430   0.942 -0.1516 -0.1019 -0.2704
 4390SOL    HW114069   5.384   4.413   0.981  0.1567  2.2349  0.1775
 4390SOL    HW214070   5.296   4.415   0.843  0.7809  0.1072 -0.2856
 4391SOL     OW14071   1.944   4.805   0.136 -0.6059  0.0735  0.1006
 4391SOL    HW114072   1.861   4.765   0.096 -2.1458  2.9274  0.1288
 4391SOL    HW214073   1.954   4.773   0.230 -1.0346 -1.1628 -0.2553
 4392SOL     OW14074   5.876   6.738   4.435 -0.6639  0.3902 -0.0182
 4392SOL    HW114075   5.946   6.809   4.431 -2.0702  1.8033 -1.1329
 4392SOL    HW214076   5.885   6.679   4.355 -1.0995  0.9675 -0.5084
 4393SOL     OW14077   5.125   5.467   2.598 -0.4999  0.0508 -0.0023
 4393SOL    HW114078   5.118   5.500   2.692  3.1172 -0.6659  0.6682
 4393SOL    HW214079   5.061   5.391   2.585 -1.0427  0.1278  1.8864
 4394SOL     OW14080   4.624   1.562   4.362  0.0475  0.0723 -0.1791
 4394SOL    HW114081   4.656   1.644   4.410  0.0261  0.6094 -1.0563
 4394SOL    HW214082   4.591   1.495   4.428  1.5648  0.1124  0.6693
 4395SOL     OW14083   5.790   3.675   1.324  0.0011  0.2461  0.1889
 4395SOL    HW114084   5.844   3.726   1.391 -0.3272  1.2857 -0.3187
 4395SOL    HW214085   5.799   3.577   1.342  1.3827  0.4299  0.6221
 4396SOL     OW14086   4.761   6.084   2.220 -0.3641  0.8573  0.4162
 4396SOL    HW114087   4.682   6.066   2.278  0.9737 -2.0329  1.5549
 4396SOL    HW214088   4.732   6.095   2.125 -2.3246  2.8885  1.1608
 4397SOL     OW14089   4.814   0.749   0.235  0.6771 -0.2202 -0.0761
 4397SOL    HW114090   4.753   0.687   0.284  1.5711 -1.8414 -0.9360
 4397SOL    HW214091   4.802   0.737   0.136  0.6732  1.2064 -0.2772
 4398SOL     OW14092   6.647   5.576   4.688  0.5943  0.1628 -0.8446
 4398SOL    HW114093   6.567   5.549   4.741  2.9375 -1.5555  2.1104
 4398SOL    HW214094   6.672   5.670   4.710  0.6708 -0.0450 -0.0199
 4399SOL     OW14095   2.873   0.380   1.622  0.0753 -0.2266 -0.0282
 4399SOL    HW114096   2.774   0.388   1.613  0.1133  0.6216  0.1536
 4399SOL    HW214097   2.905   0.298   1.576 -0.7578 -0.7137  0.2400
 4400SOL     OW14098   5.350   6.198   3.777  0.2660  0.0093  0.2698
 4400SOL    HW114099   5.413   6.269   3.747  2.3234 -1.4834  0.8626
 4400SOL    HW214100   5.266   6.203   3.723  0.0308  3.2356  0.6974
 4401SOL     OW14101   4.389   6.182   3.331 -0.0251 -0.2056 -0.5195
 4401SOL    HW114102   4.388   6.282   3.339  0.1743 -0.0072 -2.3991
 4401SOL    HW214103   4.376   6.141   3.421 -0.6060  1.5145  0.2302
 4402SOL     OW14104   6.841   6.348   1.205 -0.0665 -0.0252  0.1389
 4402SOL    HW114105   6.855   6.259   1.161 -0.3364  0.4631 -0.9926
 4402SOL    HW214106   6.916   6.409   1.181  0.9934 -0.4325  2.2861
 4403SOL     OW14107   5.304   1.579   4.683 -0.1219 -1.0922 -0.4731
 4403SOL    HW114108   5.383   1.600   4.626 -0.0864 -1.3763 -0.5331
 4403SOL    HW214109   5.307   1.482   4.710 -0.3374 -1.0536 -0.3026
 4404SOL     OW14110   1.757   5.593   4.804  0.6160 -0.1732  0.6286
 4404SOL    HW114111   1.670   5.568   4.763  0.8796 -0.9939  0.5474
 4404SOL    HW214112   1.832   5.565   4.743  0.9075  2.4107 -0.3265
 4405SOL     OW14113   3.930   4.469   0.202  0.0110  0.6082  0.3661
 4405SOL    HW114114   3.953   4.445   0.107 -1.3197  0.2974  0.1023
 4405SOL    HW214115   3.965   4.397   0.263  1.0439  0.9056  0.1496
 4406SOL     OW14116   6.706   1.071   0.893  0.6152 -0.1240  0.4722
 4406SOL    HW114117   6.624   1.091   0.841  0.4778 -0.2526  0.6370
 4406SOL    HW214118   6.753   1.156   0.916  0.5499 -0.0536  0.3415
 4407SOL     OW14119   0.046   6.952   0.039 -0.0271  0.9985 -0.0988
 4407SOL    HW114120   0.072   6.861   0.006  1.5825  0.6994  1.7858
 4407SOL    HW214121  -0.019   6.943   0.114  1.9142  1.1983  1.6916
 4408SOL     OW14122   5.751   5.374   1.817 -0.2800  0.4728 -0.5102
 4408SOL    HW114123   5.776   5.409   1.907 -0.1482  0.5378 -0.5713
 4408SOL    HW214124   5.663   5.413   1.789 -1.6308 -1.4988  0.6951
 4409SOL     OW14125   3.102   0.675   1.281 -0.4508 -0.2668  0.5272
 4409SOL    HW114126   3.039   0.696   1.207 -1.3676 -2.1121  0.7099
 4409SOL    HW214127   3.191   0.717   1.264 -0.4468 -1.1502 -1.9469
 4410SOL     OW14128   1.213   5.541   6.748 -0.4741  0.2707  0.5664
 4410SOL    HW114129   1.233   5.639   6.741 -0.6145  0.2265 -0.8531
 4410SOL    HW214130   1.239   5.508   6.838  0.0163  1.5203  0.9082
 4411SOL     OW14131   4.359   2.705   1.415  0.3645  0.4517  0.1256
 4411SOL    HW114132   4.329   2.618   1.374 -1.6604  1.0354  0.2565
 4411SOL    HW214133   4.282   2.768   1.418  1.4924  1.8310  1.1904
 4412SOL     OW14134   2.676   2.426   1.210 -0.3708  0.3567 -0.0317
 4412SOL    HW114135   2.673   2.326   1.200 -0.9747  0.4875 -1.4506
 4412SOL    HW214136   2.662   2.450   1.306  1.8823 -0.9759  0.7012
 4413SOL     OW14137   3.343   5.148   3.158  0.0386 -0.0575 -0.2661
 4413SOL    HW114138   3.302   5.105   3.077 -0.3926  0.8467 -0.5339
 4413SOL    HW214139   3.429   5.191   3.133 -0.2343  0.4660 -0.3065
 4414SOL     OW14140   3.644   4.615   0.604  0.7350 -0.7580  0.1960
 4414SOL    HW114141   3.729   4.563   0.602  2.1558  1.4238 -0.5589
 4414SOL    HW214142   3.595   4.603   0.517 -0.4131 -2.9673  1.0830
 4415SOL     OW14143   4.992   0.860   1.369 -0.5377 -0.4514  0.2181
 4415SOL    HW114144   4.928   0.898   1.435 -0.1199  0.8670 -0.1163
 4415SOL    HW214145   5.039   0.934   1.321 -1.6269 -1.3197 -2.3847
 4416SOL     OW14146   4.520   1.210   5.619 -0.1429 -0.2023 -0.5702
 4416SOL    HW114147   4.433   1.165   5.598  0.5154 -0.6189 -2.6518
 4416SOL    HW214148   4.590   1.179   5.555  1.3144  0.8806  0.4245
 4417SOL     OW14149   4.952   6.814   0.697 -0.0584  0.4246 -0.3576
 4417SOL    HW114150   4.901   6.898   0.715  0.9262  1.1067 -0.6898
 4417SOL    HW214151   5.048   6.836   0.677  0.4289 -0.8402  0.4346
 4418SOL     OW14152   3.458   4.889   2.675  0.0680 -0.5437 -0.3212
 4418SOL    HW114153   3.441   4.980   2.638 -1.5466 -1.0825 -0.9725
 4418SOL    HW214154   3.553   4.862   2.656 -0.2311 -0.1329 -2.6414
 4419SOL     OW14155   5.512   6.091   5.799 -0.1893 -0.2627  0.2923
 4419SOL    HW114156   5.483   6.115   5.892 -1.7816 -0.3999 -0.1368
 4419SOL    HW214157   5.567   6.008   5.802  0.4700  0.1894  1.1889
 4420SOL     OW14158   5.501   0.870   2.184  0.4938 -0.0618  0.3199
 4420SOL    HW114159   5.538   0.837   2.097  0.1577 -0.8077  0.4531
 4420SOL    HW214160   5.554   0.831   2.259  0.8437  0.6583  0.4479
 4421SOL     OW14161   2.726   1.680   3.887 -0.1857 -0.5085 -0.0298
 4421SOL    HW114162   2.815   1.638   3.904  0.6693  0.4692 -1.7920
 4421SOL    HW214163   2.678   1.693   3.974  1.0280 -1.7982  0.8788
 4422SOL     OW14164   0.094   3.671   6.020 -0.1908  0.3336 -0.0422
 4422SOL    HW114165   0.154   3.599   5.984  1.9180  1.0631  1.7389
 4422SOL    HW214166   0.150   3.744   6.059 -2.2809  2.2830 -0.4773
 4423SOL     OW14167   6.451   2.218   0.107  0.4667  0.4780 -0.0709
 4423SOL    HW114168   6.461   2.135   0.051 -0.0804 -2.3211  3.5853
 4423SOL    HW214169   6.540   2.246   0.141  0.5834  1.1562 -0.8858
 4424SOL     OW14170   1.394   5.775   3.167  0.7599  0.4925  0.3790
 4424SOL    HW114171   1.393   5.752   3.264  1.6952  1.5137  0.6476
 4424SOL    HW214172   1.301   5.802   3.139  0.7979  1.8655  1.4332
 4425SOL     OW14173   5.562   4.855   2.253 -0.5944 -0.3739 -0.1690
 4425SOL    HW114174   5.629   4.875   2.182  0.2962 -1.5692  0.3026
 4425SOL    HW214175   5.576   4.918   2.330 -0.2410 -0.3907 -0.2176
 4426SOL     OW14176   6.329   6.540   4.565  0.5119 -0.2606  0.6117
 4426SOL    HW114177   6.345   6.572   4.659  0.7748 -0.1077  0.5170
 4426SOL    HW214178   6.321   6.619   4.504 -0.4822 -0.3362  0.6301
 4427SOL     OW14179   0.127   5.565   3.891  0.4248  0.1604  0.3796
 4427SOL    HW114180   0.077   5.622   3.826  1.8393 -0.2180 -1.1047
 4427SOL    HW214181   0.101   5.469   3.879  1.0145  0.0379  0.0495
 4428SOL     OW14182   2.543   0.799   2.637 -0.2607 -0.4630 -0.2690
 4428SOL    HW114183   2.635   0.786   2.674 -0.4331 -1.1246 -0.0554
 4428SOL    HW214184   2.541   0.765   2.542 -0.3124 -0.5607 -0.2334
 4429SOL     OW14185   3.524   0.708   0.523 -0.3608  0.1365 -0.3308
 4429SOL    HW114186   3.596   0.742   0.463 -0.6292 -0.9398 -1.2995
 4429SOL    HW214187   3.521   0.763   0.606 -0.3236  1.9965 -1.5040
 4430SOL     OW14188   6.040   0.760   3.460  1.0738 -0.4139  0.0739
 4430SOL    HW114189   6.131   0.733   3.492  0.6687 -1.0712  0.7060
 4430SOL    HW214190   6.046   0.846   3.409  2.0740 -0.5561 -0.0605
 4431SOL     OW14191   2.195   2.224   3.647  0.5532  0.3119  0.2475
 4431SOL    HW114192   2.140   2.301   3.615  1.2886  0.5099 -0.5666
 4431SOL    HW214193   2.272   2.209   3.585  0.2015 -1.3487  0.1457
 4432SOL     OW14194   3.364   3.421   4.598  0.1408  0.0989  0.8533
 4432SOL    HW114195   3.314   3.335   4.591 -1.1585  0.9010 -0.3371
 4432SOL    HW214196   3.458   3.408   4.565 -0.3506 -0.6507 -0.3342
 4433SOL     OW14197   5.151   0.233   6.753 -0.2164 -0.5001  0.1435
 4433SOL    HW114198   5.097   0.249   6.836 -0.7425 -2.1206  0.1580
 4433SOL    HW214199   5.146   0.136   6.729  0.8816 -0.2627 -1.1379
 4434SOL     OW14200   5.575   1.909   0.206  0.2607 -0.2219  0.2787
 4434SOL    HW114201   5.485   1.866   0.196  0.5312 -0.8142  0.3325
 4434SOL    HW214202   5.576   1.996   0.157 -1.4258  1.4951  2.9871
 4435SOL     OW14203   2.857   2.853   1.076  0.1079 -0.2889 -0.5045
 4435SOL    HW114204   2.916   2.775   1.097  2.2001  0.6782 -2.3636
 4435SOL    HW214205   2.903   2.913   1.012 -1.3741  2.5999  0.9458
 4436SOL     OW14206   5.924   0.679   6.262  0.0423  0.3319 -0.0949
 4436SOL    HW114207   5.942   0.632   6.349 -1.4146  2.0956  1.2443
 4436SOL    HW214208   6.007   0.729   6.234  0.0486  1.0754  1.1799
 4437SOL     OW14209   4.059   6.902   3.544  0.3424 -0.4869  0.5541
 4437SOL    HW114210   4.102   6.822   3.584  0.4280 -0.8074 -0.1586
 4437SOL    HW214211   3.968   6.914   3.583 -0.5303 -2.1729 -0.7951
 4438SOL     OW14212   4.459   3.298   6.119 -0.0512  0.0452 -0.1383
 4438SOL    HW114213   4.435   3.390   6.087 -0.1363  0.8222  2.0081
 4438SOL    HW214214   4.416   3.230   6.060 -1.9240  1.3950 -0.4212
 4439SOL     OW14215   0.342   5.328   0.609 -0.0699  0.4622  0.5078
 4439SOL    HW114216   0.312   5.263   0.680  0.5473  0.2567  0.5824
 4439SOL    HW214217   0.332   5.421   0.644 -5.2898  0.8216 -1.1143
 4440SOL     OW14218   5.963   2.743   0.446 -0.0284 -0.0651 -0.4628
 4440SOL    HW114219   6.032   2.813   0.466 -0.7289  0.9048 -1.3374
 4440SOL    HW214220   5.915   2.719   0.530 -1.8278  2.7538 -0.5336
 4441SOL     OW14221   6.442   0.916   4.738 -0.7153  0.1948  0.2776
 4441SOL    HW114222   6.358   0.941   4.785 -0.9280  1.1165 -0.5776
 4441SOL    HW214223   6.422   0.847   4.668 -0.4615 -0.8923  1.2576
 4442SOL     OW14224   1.517   5.806   2.622 -0.1931  0.3083  0.1186
 4442SOL    HW114225   1.486   5.820   2.717  1.6132  1.1911  0.6172
 4442SOL    HW214226   1.596   5.864   2.604 -0.1561 -0.2707 -1.7871
 4443SOL     OW14227   1.875   0.557   0.140 -0.1979  0.9204  0.0321
 4443SOL    HW114228   1.778   0.535   0.135  0.4714 -2.0935 -1.9368
 4443SOL    HW214229   1.891   0.650   0.106 -2.1679  0.7421 -1.4755
 4444SOL     OW14230   4.447   1.036   2.736  0.8079  0.0016  0.0169
 4444SOL    HW114231   4.510   1.075   2.669  1.2100 -1.0678 -0.2438
 4444SOL    HW214232   4.462   0.938   2.743 -0.7578 -0.2619  0.0420
 4445SOL     OW14233   6.160   0.789   6.608 -0.4582  0.6461 -0.0455
 4445SOL    HW114234   6.142   0.840   6.524 -0.2356  3.7726  1.6860
 4445SOL    HW214235   6.074   0.765   6.652 -0.5422  0.6016 -0.2315
 4446SOL     OW14236   6.569   4.967   3.392 -0.0420  0.4757  0.1286
 4446SOL    HW114237   6.584   4.982   3.490  1.1614  0.3583 -0.0216
 4446SOL    HW214238   6.570   4.869   3.374 -2.0589  0.3956  0.2429
 4447SOL     OW14239   6.758   4.804   5.078 -0.1039 -0.5593 -0.1805
 4447SOL    HW114240   6.787   4.711   5.102  1.3128 -0.4324 -1.2543
 4447SOL    HW214241   6.668   4.801   5.035 -0.3204 -1.3700  0.3100
 4448SOL     OW14242   4.467   3.140   6.352 -0.4124 -0.6104  0.3962
 4448SOL    HW114243   4.412   3.197   6.413  0.6540  0.4659  0.3825
 4448SOL    HW214244   4.488   3.190   6.268  0.4695 -1.0431  0.3422
 4449SOL     OW14245   6.540   1.688   5.293  0.3304  0.2329 -0.1099
 4449SOL    HW114246   6.449   1.650   5.311  0.0066  0.2067 -1.6407
 4449SOL    HW214247   6.609   1.617   5.308  0.0534  0.0864  0.5097
 4450SOL     OW14248   3.499   2.956   1.906  0.1822 -0.0862 -0.0634
 4450SOL    HW114249   3.487   2.963   1.807 -1.9755  0.8104  0.2054
 4450SOL    HW214250   3.596   2.951   1.928  0.7906  1.3868 -2.1295
 4451SOL     OW14251   0.887   6.558   0.401 -0.0403  0.3388 -0.1424
 4451SOL    HW114252   0.855   6.584   0.492 -0.4964 -0.5075 -0.0485
 4451SOL    HW214253   0.935   6.471   0.406  3.0720  1.9251 -0.1587
 4452SOL     OW14254   2.575   3.594   6.707  0.6392  0.2571 -0.2114
 4452SOL    HW114255   2.629   3.629   6.631  1.2370  0.0926  0.1295
 4452SOL    HW214256   2.478   3.603   6.686  0.7721 -0.9897 -1.5746
 4453SOL     OW14257   5.719   2.291   0.459 -0.6111 -0.0611  0.2769
 4453SOL    HW114258   5.718   2.353   0.537 -2.3513  0.7839 -0.3760
 4453SOL    HW214259   5.751   2.339   0.378  2.8592 -1.3709  0.7048
 4454SOL     OW14260   5.674   3.659   1.796 -0.2293  0.2353 -0.0632
 4454SOL    HW114261   5.581   3.623   1.802 -0.6621  1.2615 -0.3431
 4454SOL    HW214262   5.688   3.699   1.705  0.5080  0.0289 -0.0431
 4455SOL     OW14263   4.185   1.563   2.169  0.9127 -0.4545  0.4179
 4455SOL    HW114264   4.267   1.548   2.224  1.8085  0.3006 -0.6512
 4455SOL    HW214265   4.212   1.586   2.075 -0.5286 -0.0764  0.0706
 4456SOL     OW14266   5.161   5.118   3.204  0.5364  0.0608  0.5310
 4456SOL    HW114267   5.070   5.159   3.194 -0.3957 -2.0487 -0.3205
 4456SOL    HW214268   5.165   5.068   3.291  1.4385  1.3872  1.2728
 4457SOL     OW14269   5.069   3.133   4.779  0.7464  0.5678 -0.1902
 4457SOL    HW114270   5.164   3.104   4.785  1.1510  2.0508  1.8505
 4457SOL    HW214271   5.019   3.100   4.859 -0.0166  1.2270 -0.3797
 4458SOL     OW14272   4.926   0.501   2.985 -0.6385  0.5374  0.1705
 4458SOL    HW114273   4.849   0.479   2.925 -1.5059  1.0371  1.0628
 4458SOL    HW214274   4.960   0.593   2.963 -2.2268  1.5488  1.6614
 4459SOL     OW14275   0.771   6.388   5.519 -0.3349 -0.2553 -0.0810
 4459SOL    HW114276   0.698   6.401   5.587 -1.2929 -0.0277 -1.1174
 4459SOL    HW214277   0.758   6.301   5.473  0.0981 -0.2463 -0.2214
 4460SOL     OW14278   3.282   1.295   1.352  0.1312 -0.3545 -0.6711
 4460SOL    HW114279   3.381   1.280   1.356  0.1697  0.0377  0.0077
 4460SOL    HW214280   3.238   1.251   1.431 -0.1821 -0.0967 -0.6998
 4461SOL     OW14281   1.446   0.780   4.508  0.6513  0.3362 -0.3499
 4461SOL    HW114282   1.534   0.741   4.536  1.0920  2.3835  1.4076
 4461SOL    HW214283   1.440   0.780   4.408  2.0973 -0.9663 -0.4722
 4462SOL     OW14284   1.264   1.878   2.894  0.4054 -0.4039  0.0372
 4462SOL    HW114285   1.242   1.875   2.796  1.5102 -2.3415 -0.1944
 4462SOL    HW214286   1.292   1.787   2.925  1.1925  0.4244  1.9002
 4463SOL     OW14287   5.318   2.858   0.021  0.4193 -0.1468  0.0613
 4463SOL    HW114288   5.328   2.790  -0.052  0.1275  0.2509 -0.3599
 4463SOL    HW214289   5.395   2.921   0.019  1.5043 -1.3746  1.4512
 4464SOL     OW14290   0.628   3.920   0.191  0.8297  0.4832 -0.3880
 4464SOL    HW114291   0.563   3.984   0.149 -0.0812 -0.3135 -0.2123
 4464SOL    HW214292   0.685   3.879   0.119 -1.4476 -1.6954 -1.0865
 4465SOL     OW14293   5.905   3.753   2.164 -0.2823  0.2049  0.2355
 4465SOL    HW114294   5.867   3.725   2.252  0.1436 -0.8940  0.0833
 4465SOL    HW214295   6.004   3.740   2.165 -0.3339 -0.2868 -0.5752
 4466SOL     OW14296   1.441   3.942   4.063  0.4609 -0.0530 -0.1309
 4466SOL    HW114297   1.482   4.030   4.039 -0.0571  0.0233 -0.7649
 4466SOL    HW214298   1.483   3.908   4.147  3.5881 -1.1433 -1.9622
 4467SOL     OW14299   0.674   6.548   4.840  0.5058 -0.0633 -0.0054
 4467SOL    HW114300   0.732   6.625   4.814  0.8446 -0.4847 -0.5271
 4467SOL    HW214301   0.596   6.581   4.892  0.6540  0.6305 -0.2115
 4468SOL     OW14302   1.537   0.867   1.220  0.2299  0.0176  0.4194
 4468SOL    HW114303   1.559   0.802   1.147  0.2167  0.0035  0.4280
 4468SOL    HW214304   1.465   0.829   1.278  2.0535 -1.1304  2.0488
 4469SOL     OW14305   3.806   5.782   0.946  0.1478 -0.1144 -0.4172
 4469SOL    HW114306   3.879   5.750   1.006  0.4703  0.5727 -0.4345
 4469SOL    HW214307   3.783   5.877   0.968 -1.7039 -0.7302  0.5273
 4470SOL     OW14308   4.795   3.577   1.752 -0.1545 -0.4481  0.3533
 4470SOL    HW114309   4.811   3.675   1.766  0.3564 -0.6093  0.9662
 4470SOL    HW214310   4.697   3.559   1.752 -0.2448  0.0220  0.6011
 4471SOL     OW14311   1.163   2.816   1.358  0.0736  0.3965 -0.0161
 4471SOL    HW114312   1.155   2.915   1.371  0.2305  0.5714 -1.1045
 4471SOL    HW214313   1.253   2.785   1.391 -0.8050  0.2078  2.3994
 4472SOL     OW14314   1.674   6.189   1.818 -0.4399 -0.1765  0.0337
 4472SOL    HW114315   1.576   6.171   1.814 -0.2220 -1.4137 -0.1208
 4472SOL    HW214316   1.691   6.287   1.804 -1.6104 -0.0315 -0.4686
 4473SOL     OW14317   4.381   6.298   5.056 -0.3608 -0.7970  0.4634
 4473SOL    HW114318   4.362   6.215   5.109  0.3832 -1.0794  0.3068
 4473SOL    HW214319   4.394   6.273   4.960 -2.3526 -0.2110 -0.0068
 4474SOL     OW14320   6.558   1.441   6.278 -0.3486  0.4394 -0.4498
 4474SOL    HW114321   6.609   1.388   6.347  0.9800 -0.6036 -2.1405
 4474SOL    HW214322   6.462   1.412   6.279 -0.4654  0.7555  1.2185
 4475SOL     OW14323   1.959   3.475   2.979  0.2339  0.9483 -0.1493
 4475SOL    HW114324   1.867   3.449   2.951  0.3728  0.1435  0.1205
 4475SOL    HW214325   2.022   3.400   2.961  0.8580  1.5299 -0.4131
 4476SOL     OW14326   3.193   6.541   3.278 -0.1768 -0.0052  0.0245
 4476SOL    HW114327   3.104   6.534   3.324 -0.0261 -0.9786  0.1789
 4476SOL    HW214328   3.259   6.581   3.342 -0.1668 -0.5976  0.3978
 4477SOL     OW14329   2.423   1.466   1.061  0.0690  0.1398  0.2042
 4477SOL    HW114330   2.514   1.467   1.021 -0.1630  0.3059 -0.3198
 4477SOL    HW214331   2.380   1.555   1.050 -0.6055 -0.2707 -0.5903
 4478SOL     OW14332   2.370   4.277   1.291  0.6678  0.3670 -0.2123
 4478SOL    HW114333   2.332   4.345   1.352  0.4499 -0.7728  0.9644
 4478SOL    HW214334   2.297   4.237   1.236  0.3406 -0.8297  1.0507
 4479SOL     OW14335   6.727   6.100   5.608 -0.0615 -0.1843 -0.3547
 4479SOL    HW114336   6.797   6.063   5.669 -1.3873  0.3678  1.6143
 4479SOL    HW214337   6.660   6.030   5.587 -1.6434  0.5083  1.9849
 4480SOL     OW14338   6.203   3.533   3.985 -0.4257  0.3876  0.2494
 4480SOL    HW114339   6.233   3.458   4.044 -0.0434  0.7929  0.5868
 4480SOL    HW214340   6.222   3.510   3.889 -0.2554  0.0778  0.3560
 4481SOL     OW14341   0.629   0.924   3.897 -0.1137  0.5258 -0.1956
 4481SOL    HW114342   0.588   0.850   3.949 -0.1186  0.5790 -0.1237
 4481SOL    HW214343   0.723   0.940   3.928 -0.0093  0.3512 -0.4144
 4482SOL     OW14344   6.628   3.779   1.729  0.4270  0.0226  0.5635
 4482SOL    HW114345   6.563   3.846   1.691  0.7250 -0.3124 -0.5703
 4482SOL    HW214346   6.708   3.774   1.670  0.9020 -0.5248  1.2500
 4483SOL     OW14347   0.785   6.233   6.909 -0.2839 -0.3705 -0.5288
 4483SOL    HW114348   0.884   6.221   6.902 -0.3875 -2.1140  0.3615
 4483SOL    HW214349   0.765   6.319   6.955  0.7908  0.2549 -1.1939
 4484SOL     OW14350   4.441   4.469   5.817  0.3532  0.3034 -0.7279
 4484SOL    HW114351   4.431   4.395   5.751  0.1493  0.5219 -0.9451
 4484SOL    HW214352   4.383   4.452   5.897  1.4930 -0.5557 -0.0563
 4485SOL     OW14353   4.874   0.393   6.402 -0.2995 -0.2049 -0.2488
 4485SOL    HW114354   4.812   0.379   6.479 -0.2715  2.6719  0.4126
 4485SOL    HW214355   4.962   0.349   6.421 -0.3556  0.3129  1.2918
 4486SOL     OW14356   0.369   5.118   4.473  0.1790 -0.1933  0.5329
 4486SOL    HW114357   0.384   5.043   4.537  1.7119 -0.1261  0.2887
 4486SOL    HW214358   0.372   5.205   4.523 -1.0701 -0.2444  0.7308
 4487SOL     OW14359   4.621   1.322   6.700 -0.7394  0.4277  0.3326
 4487SOL    HW114360   4.558   1.245   6.712  0.1463 -0.4209 -0.2613
 4487SOL    HW214361   4.569   1.405   6.679 -1.6194 -0.9125 -3.6942
 4488SOL     OW14362   6.425   3.369   1.514  0.1600 -0.0258  0.2703
 4488SOL    HW114363   6.438   3.468   1.523  2.0427 -0.2585  0.4714
 4488SOL    HW214364   6.381   3.334   1.596 -0.2700  0.6026  0.3145
 4489SOL     OW14365   6.614   3.631   5.740  0.4428  0.1487 -0.2305
 4489SOL    HW114366   6.638   3.718   5.698  1.2497 -0.7812 -1.8005
 4489SOL    HW214367   6.558   3.647   5.821 -0.0737  2.0784 -0.9224
 4490SOL     OW14368   5.513   2.153   3.374 -0.2767  0.0827  0.6968
 4490SOL    HW114369   5.575   2.213   3.424  0.5430 -0.7560  0.7374
 4490SOL    HW214370   5.524   2.059   3.408 -0.7848 -0.2508 -0.0349
 4491SOL     OW14371   2.663   6.793   1.180  0.1628  0.0369  0.0256
 4491SOL    HW114372   2.607   6.792   1.263  1.0961  0.3326  0.6748
 4491SOL    HW214373   2.604   6.803   1.101 -0.8513 -1.4817  0.5538
 4492SOL     OW14374   0.388   4.912   5.647 -0.8620 -0.1901  0.4688
 4492SOL    HW114375   0.402   4.863   5.733 -0.9600  1.8651  1.7234
 4492SOL    HW214376   0.457   4.883   5.581 -0.8879 -1.9411  1.1543
 4493SOL     OW14377   6.973   4.087   3.930  0.4602 -0.2184 -0.5468
 4493SOL    HW114378   6.878   4.056   3.930 -0.3112  1.8735  1.9637
 4493SOL    HW214379   7.029   4.023   3.983  0.0758 -0.4584 -0.4298
 4494SOL     OW14380   4.955   3.339   1.835 -0.5515 -0.3438  0.2334
 4494SOL    HW114381   4.908   3.259   1.800 -1.8868  0.5551 -0.0976
 4494SOL    HW214382   4.905   3.422   1.809  1.4669  0.7117 -0.5530
 4495SOL     OW14383   6.110   5.269   0.878  0.2304  0.5450 -0.5027
 4495SOL    HW114384   6.155   5.278   0.790  1.0143 -1.2721 -0.3251
 4495SOL    HW214385   6.155   5.327   0.945  0.2314  1.2059 -1.0676
 4496SOL     OW14386   5.723   3.901   6.332 -0.3435  0.3969 -0.1320
 4496SOL    HW114387   5.687   3.978   6.278 -2.0810  0.2368  0.7221
 4496SOL    HW214388   5.739   3.931   6.426 -1.3758 -0.3497  0.2996
 4497SOL     OW14389   5.243   6.931   1.061 -0.2290  0.1998 -0.2090
 4497SOL    HW114390   5.186   6.868   1.008  0.4879 -0.8431  0.2279
 4497SOL    HW214391   5.336   6.894   1.068 -0.2540  0.3780  1.6208
 4498SOL     OW14392   1.942   5.023   6.939 -0.1636 -0.5822  0.5095
 4498SOL    HW114393   1.939   4.949   7.006 -1.5786 -0.6943  0.3671
 4498SOL    HW214394   1.933   5.111   6.986 -0.1369 -0.5988  0.5462
 4499SOL     OW14395   5.957   3.787   6.408 -0.4254 -0.1011  0.1954
 4499SOL    HW114396   5.870   3.829   6.382 -0.5389  0.6122  1.6179
 4499SOL    HW214397   5.984   3.820   6.498 -0.0163 -2.3230  0.9633
 4500SOL     OW14398   2.909   3.044   1.530 -0.5125 -0.3143 -0.4050
 4500SOL    HW114399   2.851   3.026   1.451  0.2958 -0.9572 -0.8626
 4500SOL    HW214400   2.852   3.053   1.612 -1.5004  1.7489 -1.2370
 4501SOL     OW14401   3.500   5.784   5.902  0.3670 -0.3117 -0.3060
 4501SOL    HW114402   3.508   5.839   5.819  2.1801 -0.7384 -0.4436
 4501SOL    HW214403   3.403   5.773   5.925 -0.0933  1.3818 -1.2875
 4502SOL     OW14404   0.104   2.677   2.595  0.4771 -0.3823 -0.3259
 4502SOL    HW114405   0.012   2.637   2.594  0.1695  0.2646  0.7389
 4502SOL    HW214406   0.164   2.619   2.651 -0.0597  0.7633  1.5295
 4503SOL     OW14407   1.287   3.869   0.804 -0.1109 -0.0543 -0.7266
 4503SOL    HW114408   1.369   3.839   0.755  0.2947  0.8418 -0.6227
 4503SOL    HW214409   1.233   3.789   0.831  0.0865 -0.6012 -1.8792
 4504SOL     OW14410   4.007   0.933   5.030  0.0245 -0.5463  0.4039
 4504SOL    HW114411   4.069   0.999   5.072  0.7427 -0.3189 -0.9454
 4504SOL    HW214412   4.058   0.852   5.002 -0.8623 -1.7810  2.1333
 4505SOL     OW14413   1.980   0.695   6.346 -0.1204  0.4119  0.1620
 4505SOL    HW114414   2.059   0.647   6.383 -0.5309 -0.8541 -0.5718
 4505SOL    HW214415   1.963   0.777   6.402  0.4541 -0.3821  1.5667
 4506SOL     OW14416   2.274   4.207   6.196 -0.4834 -0.3345  0.1366
 4506SOL    HW114417   2.210   4.271   6.240 -0.5749  0.1138 -0.6424
 4506SOL    HW214418   2.297   4.240   6.105 -0.2048 -1.2088 -0.1149
 4507SOL     OW14419   6.518   4.682   3.593 -0.4524 -0.4122 -0.1123
 4507SOL    HW114420   6.594   4.747   3.587  0.1101 -1.0301  0.1524
 4507SOL    HW214421   6.477   4.686   3.684 -1.3756  0.6002 -0.5448
 4508SOL     OW14422   1.311   5.530   0.821  0.3035  0.0273 -0.3978
 4508SOL    HW114423   1.355   5.502   0.907 -1.0925 -1.1891 -0.0303
 4508SOL    HW214424   1.296   5.629   0.822  1.3108  0.1921  0.2603
 4509SOL     OW14425   2.151   2.357   2.992 -0.0289  0.1296  0.3688
 4509SOL    HW114426   2.182   2.446   2.958  2.2228 -0.8223 -0.2554
 4509SOL    HW214427   2.071   2.370   3.050 -0.5383  2.4134 -0.7037
 4510SOL     OW14428   3.445   0.404   6.078 -0.7010  0.2631  0.2986
 4510SOL    HW114429   3.476   0.317   6.041  0.2161  0.6664  0.0683
 4510SOL    HW214430   3.502   0.478   6.041 -0.4580  0.7929  1.6633
 4511SOL     OW14431   1.551   2.105   2.206  0.1868  0.5352 -0.0021
 4511SOL    HW114432   1.489   2.179   2.230  0.7451  0.3911  2.0798
 4511SOL    HW214433   1.621   2.096   2.277 -0.3804 -2.5694  0.3083
 4512SOL     OW14434   2.186   5.813   5.793  0.0164 -0.0387 -0.3351
 4512SOL    HW114435   2.179   5.719   5.760 -2.3186 -0.3096  0.7094
 4512SOL    HW214436   2.185   5.875   5.714  0.5644 -0.8398 -0.9948
 4513SOL     OW14437   0.744   2.507   1.803  0.3137 -0.0224 -0.0280
 4513SOL    HW114438   0.667   2.562   1.770  1.0742  0.6261 -0.7679
 4513SOL    HW214439   0.753   2.425   1.745  0.4137  0.0951 -0.1791
 4514SOL     OW14440   0.802   6.930   5.576  0.5147  0.0756 -0.6432
 4514SOL    HW114441   0.711   6.963   5.599  0.2129  0.2548 -2.0214
 4514SOL    HW214442   0.827   6.961   5.484  0.7676 -2.3739 -1.4676
 4515SOL     OW14443   0.417   4.899   0.376  0.0646  0.1272 -0.0552
 4515SOL    HW114444   0.458   4.961   0.443  0.2343 -0.5713  0.4933
 4515SOL    HW214445   0.415   4.944   0.286  0.6870  0.7185  0.2185
 4516SOL     OW14446   6.766   0.899   3.817  0.5823 -0.4589  0.5855
 4516SOL    HW114447   6.832   0.900   3.743  1.5129 -1.0925  1.3785
 4516SOL    HW214448   6.803   0.948   3.896 -1.4439  2.5695 -0.1637
 4517SOL     OW14449   3.861   3.106   6.840 -0.1083  0.2939 -0.2115
 4517SOL    HW114450   3.880   3.009   6.859 -1.3713 -0.2102 -1.3163
 4517SOL    HW214451   3.776   3.133   6.886  2.0532  1.9960  3.1743
 4518SOL     OW14452   1.795   6.737   2.964  0.5936  0.2535 -0.3594
 4518SOL    HW114453   1.774   6.833   2.985  0.9447  0.1057  0.7087
 4518SOL    HW214454   1.857   6.733   2.885  0.1734  0.8743 -0.7344
 4519SOL     OW14455   0.409   3.183   2.738 -0.4315 -0.6656  0.7652
 4519SOL    HW114456   0.484   3.249   2.739 -0.9781  0.1442 -2.1527
 4519SOL    HW214457   0.443   3.094   2.710 -0.6427  0.0231 -1.9765
 4520SOL     OW14458   0.627   3.672   2.173  0.6267 -0.0253 -0.2734
 4520SOL    HW114459   0.614   3.574   2.161  1.5813 -0.0672 -1.0983
 4520SOL    HW214460   0.699   3.688   2.242  0.8992  0.0828 -0.5824
 4521SOL     OW14461   5.957   1.683   1.729 -0.0761  0.4093  0.4907
 4521SOL    HW114462   6.044   1.639   1.708  0.0590  0.7365  0.3716
 4521SOL    HW214463   5.918   1.640   1.811  0.2152  0.2898  0.5689
 4522SOL     OW14464   4.224   5.561   3.153 -0.2958 -0.2062  0.3017
 4522SOL    HW114465   4.278   5.632   3.197 -0.3335  0.0080  0.0076
 4522SOL    HW214466   4.191   5.496   3.222  1.1551 -0.9001  0.3622
 4523SOL     OW14467   3.556   0.401   0.762 -0.0129 -0.0736  0.0046
 4523SOL    HW114468   3.464   0.428   0.791  0.0705  0.6678 -0.3990
 4523SOL    HW214469   3.550   0.339   0.684 -0.1723  0.0092 -0.0497
 4524SOL     OW14470   5.912   2.474   4.668 -0.8914 -0.0208  0.1352
 4524SOL    HW114471   5.875   2.492   4.760  4.8641  3.5396  2.2605
 4524SOL    HW214472   5.868   2.536   4.603 -2.3794  0.1604  1.2307
 4525SOL     OW14473   6.924   1.839   4.765  0.6447  0.5597 -0.2481
 4525SOL    HW114474   6.967   1.751   4.786  2.0825  0.9202 -1.4565
 4525SOL    HW214475   6.825   1.829   4.765  0.7676 -0.8602  0.4620
 4526SOL     OW14476   2.028   1.282   1.634  0.0031  0.3633  0.2108
 4526SOL    HW114477   2.070   1.201   1.674  0.3336  0.7115  0.5771
 4526SOL    HW214478   2.086   1.317   1.560  1.5083  2.0909  2.1025
 4527SOL     OW14479   2.929   6.299   0.706  0.3008 -0.1012  0.2748
 4527SOL    HW114480   2.853   6.237   0.687 -1.4146  1.6571  1.0659
 4527SOL    HW214481   2.946   6.301   0.805  2.0028 -1.1181  0.0440
 4528SOL     OW14482   4.651   6.055   5.979 -0.3348 -0.2865  0.6537
 4528SOL    HW114483   4.604   5.992   6.041 -0.0993 -0.7895  0.3259
 4528SOL    HW214484   4.584   6.095   5.915 -0.5382  0.0526  1.0727
 4529SOL     OW14485   1.913   0.425   4.717  0.3536  0.3282 -0.8453
 4529SOL    HW114486   1.861   0.434   4.802 -0.5131  0.6976 -1.3958
 4529SOL    HW214487   1.928   0.329   4.697  2.0292  0.2474  0.5740
 4530SOL     OW14488   0.728   1.770   5.137 -0.6845 -0.6223 -0.3139
 4530SOL    HW114489   0.822   1.804   5.145 -0.3962 -1.2381 -0.9996
 4530SOL    HW214490   0.708   1.710   5.215 -0.2089 -1.1796 -0.6135
 4531SOL     OW14491   6.700   2.940   3.573 -0.5062  0.0471 -0.1234
 4531SOL    HW114492   6.614   2.990   3.560 -1.0788 -0.0003  2.6935
 4531SOL    HW214493   6.680   2.850   3.611  0.7829  0.1900  0.9506
 4532SOL     OW14494   1.570   0.562   0.053 -0.0281 -0.2427 -0.1003
 4532SOL    HW114495   1.512   0.565   0.134 -0.2754 -0.2366 -0.2749
 4532SOL    HW214496   1.562   0.648   0.003 -0.3652 -0.4847 -0.4661
 4533SOL     OW14497   5.084   6.593   2.199  0.3975  0.1766  0.4042
 4533SOL    HW114498   5.041   6.623   2.114 -0.9808 -0.2986  0.9105
 4533SOL    HW214499   5.161   6.533   2.177  1.1462  1.4380 -0.5279
 4534SOL     OW14500   0.671   3.675   4.966  0.7395 -0.3001 -0.6364
 4534SOL    HW114501   0.605   3.732   4.916  0.2774 -0.1276  0.1423
 4534SOL    HW214502   0.762   3.715   4.959  0.3506  0.7919  0.2445
 4535SOL     OW14503   5.144   1.106   1.332  0.7713  0.0022  0.7016
 4535SOL    HW114504   5.105   1.189   1.370  1.9525  1.2694 -0.7307
 4535SOL    HW214505   5.243   1.104   1.349  0.9130 -0.6195 -0.0990
 4536SOL     OW14506   0.657   0.686   1.487  0.1028 -0.2654 -0.0856
 4536SOL    HW114507   0.676   0.739   1.569 -0.2223  0.0422 -0.2057
 4536SOL    HW214508   0.743   0.653   1.447  0.4547  1.6105 -0.9584
 4537SOL     OW14509   5.577   2.156   5.213 -0.7464  0.3758 -0.6371
 4537SOL    HW114510   5.564   2.075   5.155 -0.0558 -0.4142  0.2802
 4537SOL    HW214511   5.664   2.199   5.191  0.2019 -0.7423  0.7141
 4538SOL     OW14512   5.190   3.048   1.026 -0.0143 -0.1764  0.0033
 4538SOL    HW114513   5.282   3.030   0.991  0.9313 -1.0360  2.6572
 4538SOL    HW214514   5.147   2.961   1.052 -0.1932  0.4547  1.9341
 4539SOL     OW14515   1.334   6.053   6.669 -0.4397  0.0440 -0.0641
 4539SOL    HW114516   1.413   6.061   6.608 -1.9484  0.3296 -2.0739
 4539SOL    HW214517   1.343   6.118   6.744  0.7041  0.8663 -0.8783
 4540SOL     OW14518   3.339   3.861   2.590  0.3751 -0.0962  0.0308
 4540SOL    HW114519   3.394   3.936   2.553  0.3124  0.3693  0.8568
 4540SOL    HW214520   3.249   3.896   2.615  0.0677 -0.6283 -0.3222
 4541SOL     OW14521   5.803   0.981   2.368  0.0064  0.0058  0.1353
 4541SOL    HW114522   5.745   0.899   2.372  0.1684 -0.0736  1.2241
 4541SOL    HW214523   5.745   1.062   2.360 -0.3509 -0.0136  1.9958
 4542SOL     OW14524   0.729   5.962   3.159  0.2847  0.1361 -0.2540
 4542SOL    HW114525   0.632   5.942   3.166  0.4375 -1.1228 -1.3178
 4542SOL    HW214526   0.780   5.877   3.144  1.5986  0.7278  0.6625
 4543SOL     OW14527   5.482   2.344   3.747 -0.3291 -0.0092  0.1887
 4543SOL    HW114528   5.568   2.316   3.791 -0.5041  0.6719  1.0068
 4543SOL    HW214529   5.479   2.444   3.743  0.7165  0.0365 -3.4919
 4544SOL     OW14530   6.961   5.486   5.780  0.5949  0.1543 -0.2896
 4544SOL    HW114531   6.931   5.424   5.707  1.2607  1.0957 -1.3903
 4544SOL    HW214532   7.046   5.450   5.820  0.2397 -0.3541  0.0154
 4545SOL     OW14533   6.771   5.211   2.088  0.3973  0.0147  0.2546
 4545SOL    HW114534   6.748   5.260   2.004  3.0489 -0.9866 -1.1957
 4545SOL    HW214535   6.689   5.169   2.126 -1.0172  1.1411 -1.3649
 4546SOL     OW14536   1.972   6.512   0.601 -0.3131 -0.0281  0.3044
 4546SOL    HW114537   2.065   6.549   0.602 -1.3215  2.8533 -0.9033
 4546SOL    HW214538   1.925   6.539   0.685 -0.7297  0.4624 -0.0858
 4547SOL     OW14539   4.640   2.241   4.059 -0.1847 -0.1997  0.1185
 4547SOL    HW114540   4.558   2.190   4.034 -0.0064 -1.0045  1.1171
 4547SOL    HW214541   4.717   2.178   4.068  0.2452  0.3722  0.4866
 4548SOL     OW14542   0.257   2.964   4.673  0.2017 -0.4664  0.0623
 4548SOL    HW114543   0.220   3.054   4.691  0.3248 -0.4806  0.4010
 4548SOL    HW214544   0.199   2.894   4.716 -0.2945 -0.6032 -0.8007
 4549SOL     OW14545   3.457   1.422   2.724  0.5301  0.4168 -0.3448
 4549SOL    HW114546   3.419   1.338   2.763  1.0322  1.0596  1.6599
 4549SOL    HW214547   3.554   1.408   2.704  0.4804  0.3445 -0.5304
 4550SOL     OW14548   3.466   0.244   5.169  0.5329 -0.3724 -0.4907
 4550SOL    HW114549   3.491   0.341   5.169 -0.8212  0.0047 -0.6815
 4550SOL    HW214550   3.442   0.216   5.076  2.3589 -1.3141 -0.7178
 4551SOL     OW14551   6.445   2.590   0.729  0.2791 -0.3639 -0.0344
 4551SOL    HW114552   6.360   2.630   0.695  0.3836 -0.1961 -0.0978
 4551SOL    HW214553   6.500   2.661   0.773  0.2487 -0.5302  0.2831
 4552SOL     OW14554   1.965   4.022   5.483  0.2634 -0.7462  0.2726
 4552SOL    HW114555   1.904   3.967   5.540 -0.2660  0.2467  0.6799
 4552SOL    HW214556   2.057   3.983   5.487 -0.1653 -1.8005  0.2729
 4553SOL     OW14557   5.384   5.068   6.510 -0.0219 -0.0421  0.6109
 4553SOL    HW114558   5.302   5.055   6.566 -0.5937 -0.6917 -0.3529
 4553SOL    HW214559   5.435   4.982   6.506  0.3913  0.1961  0.7090
 4554SOL     OW14560   6.801   6.158   3.565  0.0605  0.4005  0.4427
 4554SOL    HW114561   6.881   6.204   3.526 -0.3503  0.9769  0.2689
 4554SOL    HW214562   6.729   6.226   3.583 -0.6347 -0.2117 -0.0130
 4555SOL     OW14563   2.778   2.286   5.774 -0.1730  0.0415  0.0013
 4555SOL    HW114564   2.692   2.336   5.785 -0.3506 -0.3038  0.1930
 4555SOL    HW214565   2.852   2.351   5.754 -0.5514  0.2999 -0.5871
 4556SOL     OW14566   2.742   1.923   4.638  0.3216  0.1918  0.0574
 4556SOL    HW114567   2.758   1.990   4.710  1.7784  1.2067 -1.1415
 4556SOL    HW214568   2.822   1.918   4.579 -0.6535 -0.9275 -1.2444
 4557SOL     OW14569   4.469   0.952   4.173 -0.4555 -0.1158  0.4198
 4557SOL    HW114570   4.453   1.030   4.233  0.5138  1.8059 -1.6946
 4557SOL    HW214571   4.394   0.945   4.106  0.3604  0.1465 -0.5430
 4558SOL     OW14572   0.526   4.095   6.805 -0.4235  0.0172  0.2407
 4558SOL    HW114573   0.562   4.067   6.716  0.4947 -0.3875  0.7243
 4558SOL    HW214574   0.428   4.076   6.809 -0.0820 -1.9205  0.0725
 4559SOL     OW14575   0.090   0.143   2.017 -0.7760  0.4802 -0.4037
 4559SOL    HW114576   0.114   0.200   2.095 -4.1733  0.1881  1.0651
 4559SOL    HW214577   0.154   0.159   1.942  3.3079  0.0126  2.6556
 4560SOL     OW14578   5.403   2.666   5.196 -0.2881  0.0173 -0.1179
 4560SOL    HW114579   5.446   2.756   5.207  1.2171 -0.3409 -2.3896
 4560SOL    HW214580   5.306   2.678   5.172 -0.2128  1.0180  0.0269
 4561SOL     OW14581   0.471   4.344   5.403  0.3152 -0.5875  0.4378
 4561SOL    HW114582   0.478   4.269   5.338 -0.6372 -1.6672  1.5482
 4561SOL    HW214583   0.496   4.430   5.357 -0.4241 -1.2900 -1.3640
 4562SOL     OW14584   3.471   3.993   4.923 -0.6063 -0.4426 -1.0354
 4562SOL    HW114585   3.393   3.948   4.879 -1.1205  2.1587 -2.9823
 4562SOL    HW214586   3.525   4.041   4.854  1.7694 -0.7465  0.5198
 4563SOL     OW14587   4.898   3.133   5.906  0.4423  0.2098  0.1014
 4563SOL    HW114588   4.904   3.034   5.895 -0.0195  0.3981 -2.3322
 4563SOL    HW214589   4.819   3.155   5.963  0.9576 -0.8144  1.2689
 4564SOL     OW14590   6.172   5.620   6.316 -0.1574  0.0861 -0.4201
 4564SOL    HW114591   6.224   5.610   6.231 -0.8757  1.0882 -1.0145
 4564SOL    HW214592   6.075   5.635   6.293 -0.3235  0.5807  0.5671
 4565SOL     OW14593   3.790   1.734   4.147  0.8641 -0.2377  0.1513
 4565SOL    HW114594   3.837   1.662   4.095 -3.4739 -1.0720 -3.1462
 4565SOL    HW214595   3.781   1.815   4.090  1.2027  1.1161  1.9545
 4566SOL     OW14596   1.448   0.494   1.104 -0.2415  0.1795 -0.1749
 4566SOL    HW114597   1.479   0.527   1.193 -0.6511  1.0681 -0.3444
 4566SOL    HW214598   1.429   0.573   1.045  1.1922 -0.3832 -1.4712
 4567SOL     OW14599   5.518   2.283   2.010  0.0005 -0.3510 -0.1937
 4567SOL    HW114600   5.429   2.274   1.965 -0.2232 -0.4928  0.2725
 4567SOL    HW214601   5.558   2.372   1.988 -0.8835  0.2827  0.7077
 4568SOL     OW14602   4.858   3.799   2.604  0.0328 -0.4298  0.0602
 4568SOL    HW114603   4.791   3.813   2.677  1.5801  2.8511  1.0329
 4568SOL    HW214604   4.866   3.882   2.550  1.3750 -1.6882 -1.7944
 4569SOL     OW14605   1.971   0.954   5.195  0.1869 -0.3582  0.0931
 4569SOL    HW114606   1.911   0.997   5.128  1.1169 -1.1057 -1.2729
 4569SOL    HW214607   1.918   0.930   5.276 -0.5924  2.2979  0.4786
 4570SOL     OW14608   5.670   6.677   4.603  0.1459 -0.4136  0.2550
 4570SOL    HW114609   5.702   6.598   4.655  1.3167  0.4165  0.8549
 4570SOL    HW214610   5.741   6.706   4.539 -0.4013 -0.0626 -0.1974
 4571SOL     OW14611   3.833   4.005   3.367  0.2128 -0.1830  0.0579
 4571SOL    HW114612   3.878   3.936   3.311 -1.3984 -0.6381 -0.7302
 4571SOL    HW214613   3.781   4.067   3.308  2.0832  2.1294  0.6746
 4572SOL     OW14614   1.423   5.961   0.888  0.0931 -0.0785 -0.3100
 4572SOL    HW114615   1.494   5.915   0.834  1.5868 -0.2304  1.6733
 4572SOL    HW214616   1.460   5.985   0.978 -1.8323  1.5619  0.1109
 4573SOL     OW14617   5.112   5.024   3.475  0.0938  0.3200 -0.2302
 4573SOL    HW114618   5.127   4.989   3.567 -1.0208 -0.6566 -0.3907
 4573SOL    HW214619   5.074   5.117   3.481 -1.6216 -0.3836  0.3783
 4574SOL     OW14620   6.423   3.856   2.288  0.0364 -0.1434  0.1442
 4574SOL    HW114621   6.381   3.930   2.342  1.3916 -1.1321  2.7179
 4574SOL    HW214622   6.468   3.896   2.208 -0.1345  1.7199  0.9062
 4575SOL     OW14623   5.433   5.880   1.726 -0.7186 -0.1800 -0.3486
 4575SOL    HW114624   5.531   5.865   1.734 -0.9122 -1.1186  0.5945
 4575SOL    HW214625   5.415   5.948   1.656  0.6468  0.7346  0.1553
 4576SOL     OW14626   3.727   6.700   5.579  0.4202  0.1186  0.5271
 4576SOL    HW114627   3.630   6.723   5.568  0.4923  0.1180 -0.1585
 4576SOL    HW214628   3.759   6.655   5.496  1.7924  2.7871 -0.4943
 4577SOL     OW14629   1.887   3.893   2.334  0.0018 -0.7462  0.1353
 4577SOL    HW114630   1.912   3.803   2.298  1.5580  0.1226 -1.0793
 4577SOL    HW214631   1.790   3.909   2.319  0.3719 -0.7991 -2.9801
 4578SOL     OW14632   6.735   6.693   3.341 -0.0962 -0.2108  0.1579
 4578SOL    HW114633   6.674   6.753   3.393  0.6034 -0.1178  0.8927
 4578SOL    HW214634   6.782   6.747   3.271  1.0548  0.2845  1.2660
 4579SOL     OW14635   4.026   1.685   3.364 -0.5634 -0.0753 -0.4324
 4579SOL    HW114636   3.940   1.643   3.393 -0.1658 -1.1856 -0.8253
 4579SOL    HW214637   4.038   1.773   3.412 -2.1239  0.3222 -0.7239
 4580SOL     OW14638   0.272   3.481   5.992  0.3537 -0.4056  0.2162
 4580SOL    HW114639   0.209   3.405   6.008  1.5869 -1.3214  0.9186
 4580SOL    HW214640   0.283   3.494   5.893 -1.2706  0.1006  0.0620
 4581SOL     OW14641   2.553   5.839   3.645  0.2458 -0.0527 -0.2656
 4581SOL    HW114642   2.579   5.745   3.667  0.7840 -0.1083 -1.0646
 4581SOL    HW214643   2.457   5.854   3.669  0.7701 -0.0861  2.0443
 4582SOL     OW14644   5.290   5.382   3.211  0.2831 -0.0329  0.0585
 4582SOL    HW114645   5.294   5.282   3.213  0.1160 -0.0422 -0.0568
 4582SOL    HW214646   5.372   5.418   3.168 -0.0108 -0.1529 -0.6194
 4583SOL     OW14647   3.592   6.046   5.142 -0.6288  0.0440 -0.3046
 4583SOL    HW114648   3.665   5.980   5.123 -0.6747 -1.0296  2.7176
 4583SOL    HW214649   3.503   5.999   5.136 -0.8759  0.5755 -0.9215
 4584SOL     OW14650   1.809   4.901   3.517  0.5956  0.0429 -0.0151
 4584SOL    HW114651   1.726   4.861   3.555 -0.6541  1.3280 -1.2641
 4584SOL    HW214652   1.842   4.973   3.578  0.6017 -0.2378  0.3161
 4585SOL     OW14653   3.326   5.108   3.415 -0.3699 -0.6335 -0.3376
 4585SOL    HW114654   3.332   5.104   3.315  0.6275 -2.1600 -0.2408
 4585SOL    HW214655   3.418   5.100   3.454 -0.7772 -0.2908  0.7283
 4586SOL     OW14656   2.385   6.642   1.585  1.0958  0.2253  0.2392
 4586SOL    HW114657   2.357   6.725   1.633  0.6554 -0.0803  0.5065
 4586SOL    HW214658   2.380   6.658   1.486 -0.4411  0.0451  0.2647
 4587SOL     OW14659   3.057   4.368   0.720  0.6359  0.4038 -0.5005
 4587SOL    HW114660   3.018   4.430   0.651  0.1477  1.0265  0.3090
 4587SOL    HW214661   3.125   4.309   0.677  0.6837  1.0976 -1.4170
 4588SOL     OW14662   3.602   3.590   3.848  0.2444 -0.4126  0.0992
 4588SOL    HW114663   3.559   3.506   3.880 -1.6110  1.0004  1.5646
 4588SOL    HW214664   3.547   3.631   3.776 -1.3951  1.6888  2.3514
 4589SOL     OW14665   6.811   3.064   3.955 -0.4917 -0.0649 -0.6311
 4589SOL    HW114666   6.906   3.090   3.938 -0.4873 -0.6668 -1.6085
 4589SOL    HW214667   6.799   3.042   4.052  0.1236  0.9550 -0.3116
 4590SOL     OW14668   2.612   0.352   0.892 -0.1149 -0.2411  0.2602
 4590SOL    HW114669   2.627   0.366   0.794 -0.2884  0.4645  0.3272
 4590SOL    HW214670   2.699   0.333   0.937 -0.0650 -0.8115 -0.0621
 4591SOL     OW14671   5.889   6.598   5.311  0.1121  0.5317 -0.1458
 4591SOL    HW114672   5.941   6.679   5.338  0.7371 -0.1143  0.6291
 4591SOL    HW214673   5.798   6.600   5.353 -0.1480  1.1819 -0.7209
 4592SOL     OW14674   5.212   1.841   6.093  0.5503 -0.5926  0.3792
 4592SOL    HW114675   5.303   1.872   6.063  0.3645 -0.7631 -0.3882
 4592SOL    HW214676   5.203   1.743   6.075 -0.0662 -0.4218 -0.2704
 4593SOL     OW14677   5.924   5.389   2.284  0.3496 -0.5809  0.1371
 4593SOL    HW114678   5.982   5.324   2.235 -0.3834 -0.6896 -0.5992
 4593SOL    HW214679   5.895   5.349   2.371  1.0604 -0.6709  0.3429
 4594SOL     OW14680   3.246   1.704   3.763  0.1513  0.3739 -0.3573
 4594SOL    HW114681   3.187   1.624   3.756 -2.1445  2.0762 -1.6421
 4594SOL    HW214682   3.242   1.741   3.856 -1.4480  0.8747 -0.5993
 4595SOL     OW14683   3.467   2.613   5.398 -0.4286 -0.3208 -0.1173
 4595SOL    HW114684   3.425   2.687   5.345 -1.1886 -0.3012  0.4966
 4595SOL    HW214685   3.433   2.615   5.492  1.9126  0.4891  0.8018
 4596SOL     OW14686   5.178   1.507   1.936  0.0953  0.2225  0.7603
 4596SOL    HW114687   5.264   1.523   1.889  1.1620 -2.3162  1.6722
 4596SOL    HW214688   5.173   1.567   2.016  0.0063  1.8377 -0.3937
 4597SOL     OW14689   5.663   4.139   6.986 -0.0842 -0.1454 -0.5875
 4597SOL    HW114690   5.601   4.145   7.064  0.4907 -1.5770  0.0198
 4597SOL    HW214691   5.634   4.204   6.915 -0.8818  0.8454  0.6146
 4598SOL     OW14692   1.918   4.869   5.557 -0.2114  0.0036  0.2728
 4598SOL    HW114693   1.830   4.903   5.591 -0.6954 -2.0493  1.2578
 4598SOL    HW214694   1.993   4.911   5.609 -0.8699 -1.7356  2.8422
 4599SOL     OW14695   4.361   6.012   0.535  0.4793  0.1724 -0.3305
 4599SOL    HW114696   4.298   5.935   0.530  0.6406 -0.0084  0.3435
 4599SOL    HW214697   4.330   6.076   0.605 -0.6631  1.6592 -2.0806
 4600SOL     OW14698   1.435   3.365   0.762  0.3996 -0.1385  0.2868
 4600SOL    HW114699   1.391   3.438   0.814  2.0172  0.7745  0.4127
 4600SOL    HW214700   1.519   3.337   0.807  0.3015 -1.4429 -0.2702
 4601SOL     OW14701   2.728   5.684   2.290 -0.3087 -0.0871  0.0505
 4601SOL    HW114702   2.824   5.657   2.286 -0.5741 -0.8870 -2.7078
 4601SOL    HW214703   2.715   5.770   2.241 -1.0077  0.0355  0.4332
 4602SOL     OW14704   0.429   1.438   1.529  0.0137  0.3182 -0.4842
 4602SOL    HW114705   0.457   1.370   1.597 -1.3254 -0.3921 -0.6038
 4602SOL    HW214706   0.506   1.460   1.469  0.7036 -0.4153  0.1172
 4603SOL     OW14707   2.761   1.492   6.350 -0.0590  0.1804 -0.1723
 4603SOL    HW114708   2.834   1.425   6.344  0.5124  0.9050 -1.6106
 4603SOL    HW214709   2.771   1.545   6.435  1.2690  0.4711 -0.4962
 4604SOL     OW14710   1.682   1.246   2.282 -0.2862  0.1919 -0.2804
 4604SOL    HW114711   1.744   1.305   2.230 -2.1721  1.3838 -1.2865
 4604SOL    HW214712   1.647   1.296   2.362  1.0865 -0.9605  1.0932
 4605SOL     OW14713   4.309   6.020   6.188 -0.2406  0.2555  0.1794
 4605SOL    HW114714   4.223   6.065   6.161 -0.1084  0.2505 -0.2581
 4605SOL    HW214715   4.385   6.084   6.179 -0.4276  0.8643  2.3921
 4606SOL     OW14716   0.598   6.021   4.630  0.4893 -0.4482 -0.2217
 4606SOL    HW114717   0.622   6.095   4.567  0.8341 -0.4579 -0.1027
 4606SOL    HW214718   0.504   6.034   4.662  0.7193  0.2175  0.1917
 4607SOL     OW14719   2.955   5.607   0.180  0.1723 -0.3020  0.5924
 4607SOL    HW114720   2.934   5.548   0.101 -0.3853  0.2553  0.3105
 4607SOL    HW214721   2.996   5.552   0.253 -0.7283 -1.1234  0.5020
 4608SOL     OW14722   2.297   5.455   5.269  0.9452 -0.1376  0.1939
 4608SOL    HW114723   2.205   5.417   5.280  0.9704 -0.1113  0.5230
 4608SOL    HW214724   2.358   5.415   5.338  0.9881  0.4464  0.5011
 4609SOL     OW14725   4.092   6.401   1.704 -0.0399 -0.1152 -0.4759
 4609SOL    HW114726   4.139   6.475   1.752 -1.1705  1.3091 -1.4722
 4609SOL    HW214727   4.148   6.370   1.627  0.9749 -1.1684  0.6552
 4610SOL     OW14728   1.173   5.577   0.054 -0.1186 -0.4055 -0.6049
 4610SOL    HW114729   1.263   5.614   0.077 -0.5660 -0.1901  0.9274
 4610SOL    HW214730   1.159   5.491   0.103 -0.0054 -1.4649 -2.3470
 4611SOL     OW14731   1.747   4.941   3.208  0.3011  0.1780 -0.3121
 4611SOL    HW114732   1.773   4.949   3.112 -1.2155 -2.1799 -1.0060
 4611SOL    HW214733   1.820   4.897   3.260 -0.7395 -3.3128 -1.5448
 4612SOL     OW14734   1.031   0.385   6.056  0.2221  0.2356  0.0495
 4612SOL    HW114735   1.103   0.455   6.048  0.9862 -0.6928 -1.8311
 4612SOL    HW214736   0.944   0.430   6.078  1.3806  1.3459  2.8059
 4613SOL     OW14737   4.075   5.175   1.586 -0.7164 -0.3892 -0.0671
 4613SOL    HW114738   4.050   5.146   1.678 -0.1195  0.7396  0.4687
 4613SOL    HW214739   4.175   5.175   1.576 -0.7451  0.1840 -0.4602
 4614SOL     OW14740   2.096   4.050   2.218 -0.0269 -0.0637  0.3253
 4614SOL    HW114741   2.036   3.985   2.265 -0.4965 -0.4154 -0.7444
 4614SOL    HW214742   2.156   4.094   2.285  0.8707 -2.1737  0.9842
 4615SOL     OW14743   5.100   4.180   6.043  0.4320  0.2447  0.1446
 4615SOL    HW114744   5.052   4.154   5.959 -0.0910  1.6273 -0.0018
 4615SOL    HW214745   5.047   4.150   6.122  0.6817 -0.6147  0.0048
 4616SOL     OW14746   6.488   0.740   0.185  0.1053  0.5686 -0.1229
 4616SOL    HW114747   6.538   0.805   0.128  0.7828 -0.7127 -1.0453
 4616SOL    HW214748   6.416   0.696   0.130  0.0072  0.1536  0.3269
 4617SOL     OW14749   0.203   5.268   1.622 -0.3208  0.2514 -0.3786
 4617SOL    HW114750   0.167   5.358   1.648 -1.1484 -0.7567  2.2092
 4617SOL    HW214751   0.290   5.252   1.670 -1.7758 -1.5675  1.8749
 4618SOL     OW14752   2.139   3.333   0.154  0.0207  0.5237 -0.3361
 4618SOL    HW114753   2.047   3.370   0.142  0.4598  1.3244 -1.3409
 4618SOL    HW214754   2.152   3.254   0.095  0.0278  0.4851 -0.2837
 4619SOL     OW14755   4.252   0.904   3.113  0.2226  0.3315 -0.5667
 4619SOL    HW114756   4.342   0.911   3.155  0.7171  0.2360 -1.5822
 4619SOL    HW214757   4.191   0.851   3.172  0.8605  0.2853  0.0602
 4620SOL     OW14758   0.296   5.176   6.814  0.1502  0.0940  0.0943
 4620SOL    HW114759   0.309   5.080   6.839  0.9592  0.8577  3.0121
 4620SOL    HW214760   0.379   5.211   6.770  0.6019 -0.0757  0.7946
 4621SOL     OW14761   5.452   0.387   0.266  0.0876  0.2945 -0.0773
 4621SOL    HW114762   5.355   0.368   0.248  0.2948  0.0197 -0.9577
 4621SOL    HW214763   5.508   0.327   0.210  0.7887 -0.2987  1.2111
 4622SOL     OW14764   1.285   3.911   5.131  0.0620 -0.8321 -0.2422
 4622SOL    HW114765   1.305   3.930   5.035  1.6743 -2.5397 -0.2935
 4622SOL    HW214766   1.197   3.864   5.137 -0.5410  0.1961 -0.7588
 4623SOL     OW14767   5.208   2.821   6.037  0.1783 -0.0338 -0.3082
 4623SOL    HW114768   5.134   2.793   6.098 -0.6088 -1.0239 -1.6433
 4623SOL    HW214769   5.278   2.750   6.035  1.5244  1.1604  1.4086
 4624SOL     OW14770   2.451   0.702   6.410 -0.3666  0.3892  0.5232
 4624SOL    HW114771   2.514   0.671   6.339  0.3241 -1.0732  1.7257
 4624SOL    HW214772   2.473   0.796   6.436  0.4435  0.3554 -0.0213
 4625SOL     OW14773   1.207   2.305   6.320 -0.4784 -0.3122  0.2521
 4625SOL    HW114774   1.155   2.384   6.353  1.1711  0.2877  1.5671
 4625SOL    HW214775   1.185   2.287   6.224 -1.8642  0.9076  0.3203
 4626SOL     OW14776   6.631   3.486   1.953 -0.0316  0.1432  0.1376
 4626SOL    HW114777   6.618   3.423   2.030 -1.5299 -1.2176 -1.1513
 4626SOL    HW214778   6.585   3.572   1.972 -0.4338 -0.1973  0.7530
 4627SOL     OW14779   2.408   6.116   3.789 -0.4262  0.7861  0.2389
 4627SOL    HW114780   2.463   6.113   3.706  0.5599  1.3598  0.8447
 4627SOL    HW214781   2.315   6.146   3.767 -0.5488 -0.3325 -0.8259
 4628SOL     OW14782   6.831   1.786   2.530 -0.3130  0.6199  0.3961
 4628SOL    HW114783   6.858   1.875   2.492  0.5653 -0.4178 -1.5570
 4628SOL    HW214784   6.822   1.720   2.456  0.5002 -1.3124  1.9364
 4629SOL     OW14785   5.305   4.963   3.721  0.5677 -0.2280  0.2599
 4629SOL    HW114786   5.280   5.059   3.716 -0.1568 -0.4800 -1.5209
 4629SOL    HW214787   5.223   4.906   3.720  1.0280 -0.9100 -0.5645
 4630SOL     OW14788   1.633   0.304   4.053  0.1518 -0.2906  0.1450
 4630SOL    HW114789   1.614   0.258   3.966  0.9664  0.2099 -0.3133
 4630SOL    HW214790   1.726   0.339   4.052  0.4896 -1.0884  1.6117
 4631SOL     OW14791   0.270   1.045   4.876 -0.1286 -0.1441  0.2727
 4631SOL    HW114792   0.238   1.124   4.824  0.7238 -0.5333 -0.9017
 4631SOL    HW214793   0.333   1.075   4.947  2.6416  0.1172 -2.0764
 4632SOL     OW14794   5.445   0.904   3.978  0.2442  0.1153 -1.0403
 4632SOL    HW114795   5.380   0.854   3.920 -2.6367  1.0405  1.1017
 4632SOL    HW214796   5.437   1.002   3.959  0.8480  0.2627 -0.5578
 4633SOL     OW14797   4.020   3.411   4.023 -0.1277  0.3600  0.3291
 4633SOL    HW114798   4.067   3.499   4.029 -2.3566  1.6875 -0.4875
 4633SOL    HW214799   4.025   3.375   3.930 -0.2435  0.2240  0.3739
 4634SOL     OW14800   2.478   4.433   0.239  0.2691 -0.1969  0.1190
 4634SOL    HW114801   2.489   4.482   0.153 -1.3020  0.5249  0.2878
 4634SOL    HW214802   2.521   4.343   0.232 -2.0990 -1.2777 -2.4295
 4635SOL     OW14803   6.610   5.322   6.725  0.4453  0.2086 -0.4551
 4635SOL    HW114804   6.691   5.292   6.776  1.6995  0.4802 -2.1920
 4635SOL    HW214805   6.541   5.355   6.789  1.3959 -0.7226  1.1312
 4636SOL     OW14806   1.236   5.980   0.444 -0.5125  0.7291 -0.2669
 4636SOL    HW114807   1.192   5.899   0.405  1.7495  0.4815 -2.5766
 4636SOL    HW214808   1.252   6.047   0.372 -1.0965  2.7099  1.3566
 4637SOL     OW14809   5.737   0.005   6.027  0.2612 -0.1380  0.0162
 4637SOL    HW114810   5.822   0.026   5.978  0.7461 -0.1905  0.8134
 4637SOL    HW214811   5.741   0.045   6.119 -0.5671 -0.1708  0.0727
 4638SOL     OW14812   4.448   5.509   0.779 -0.3359  0.1969  0.3187
 4638SOL    HW114813   4.508   5.574   0.825 -0.9460  0.6291  0.5154
 4638SOL    HW214814   4.486   5.417   0.786  1.2932  0.7078 -1.2232
 4639SOL     OW14815   4.998   4.635   5.695 -0.4597 -0.0138  0.0532
 4639SOL    HW114816   5.092   4.670   5.701 -0.0459 -1.2916  1.5572
 4639SOL    HW214817   4.996   4.558   5.631 -0.8796  1.0726 -1.3176
 4640SOL     OW14818   0.555   5.214   1.575  0.2990 -0.4487  0.3139
 4640SOL    HW114819   0.649   5.187   1.598  1.1430  0.4962 -1.7959
 4640SOL    HW214820   0.523   5.282   1.640  1.6156  0.2521  0.2539
 4641SOL     OW14821   3.097   3.148   5.312 -0.4125  0.7542  0.2484
 4641SOL    HW114822   3.173   3.212   5.321 -0.1250  0.4687 -0.1482
 4641SOL    HW214823   3.067   3.120   5.403  0.6922  0.0019  0.4047
 4642SOL     OW14824   0.485   5.640   4.248  0.8293 -0.0805 -0.2181
 4642SOL    HW114825   0.487   5.625   4.347  1.3955 -1.1226 -0.3773
 4642SOL    HW214826   0.535   5.567   4.202  2.0310  1.2916 -1.1818
 4643SOL     OW14827   3.482   2.851   1.580  0.0258 -0.8026 -0.0619
 4643SOL    HW114828   3.495   2.930   1.640  0.8096 -1.5796  0.8277
 4643SOL    HW214829   3.417   2.874   1.508  0.9717  0.9636 -0.4096
 4644SOL     OW14830   3.568   5.348   6.891 -0.2849  0.2249 -0.1062
 4644SOL    HW114831   3.596   5.360   6.796 -0.4172  0.9053 -0.0651
 4644SOL    HW214832   3.643   5.372   6.952 -0.4679  0.5985 -0.0251
 4645SOL     OW14833   2.413   6.027   6.166 -0.5460  0.0672 -0.4063
 4645SOL    HW114834   2.403   6.080   6.250 -0.0261  0.7080 -0.7387
 4645SOL    HW214835   2.335   5.966   6.155  0.2208 -1.3283  1.4397
 4646SOL     OW14836   4.414   1.524   1.398 -0.2231  0.6596 -0.3129
 4646SOL    HW114837   4.476   1.603   1.396  0.4215  0.1873  0.3365
 4646SOL    HW214838   4.343   1.540   1.466  1.2241 -0.2325  1.5218
 4647SOL     OW14839   4.089   0.959   6.876 -0.1333 -0.2921  0.2692
 4647SOL    HW114840   4.081   0.985   6.780  2.5033 -0.7081 -0.1393
 4647SOL    HW214841   4.100   1.042   6.932 -1.9141 -0.0351  0.2813
 4648SOL     OW14842   1.705   5.626   0.907  0.5457  0.0052 -1.0255
 4648SOL    HW114843   1.674   5.715   0.874 -2.3829 -1.3729 -2.4242
 4648SOL    HW214844   1.737   5.634   1.001  0.3516  2.5061 -1.1075
 4649SOL     OW14845   6.252   4.884   6.956  0.2657 -0.5267  0.0542
 4649SOL    HW114846   6.327   4.942   6.923  1.0321 -0.9420  1.0004
 4649SOL    HW214847   6.275   4.788   6.944 -0.1064 -0.6607  0.3643
 4650SOL     OW14848   5.793   2.531   0.126 -0.1345 -0.2136  0.3205
 4650SOL    HW114849   5.865   2.526   0.057  0.7575 -0.4623  1.2362
 4650SOL    HW214850   5.769   2.438   0.155 -2.2554 -0.2772 -1.3603
 4651SOL     OW14851   6.811   1.847   1.356  0.2606 -0.0992  0.1702
 4651SOL    HW114852   6.752   1.925   1.335  0.6088  0.2673  0.5329
 4651SOL    HW214853   6.856   1.817   1.272  0.2648  0.2074  0.0600
 4652SOL     OW14854   6.107   6.755   0.745  0.2098  0.5905  0.4509
 4652SOL    HW114855   6.056   6.840   0.748  0.4911  0.8414 -1.0990
 4652SOL    HW214856   6.200   6.771   0.778  0.7106  1.2598 -1.1825
 4653SOL     OW14857   2.904   5.426   0.703  0.3582  0.0733  0.1692
 4653SOL    HW114858   2.944   5.413   0.612 -0.2345  1.2742 -0.2907
 4653SOL    HW214859   2.975   5.420   0.772  1.2928  1.6227 -0.5823
 4654SOL     OW14860   1.433   2.274   6.535  0.1295 -0.4252 -0.3670
 4654SOL    HW114861   1.378   2.330   6.473 -0.2030 -0.8359 -0.4460
 4654SOL    HW214862   1.526   2.312   6.541 -0.6731  1.4753  1.3173
 4655SOL     OW14863   5.961   5.289   4.004  0.1100 -0.0672 -0.2428
 4655SOL    HW114864   6.060   5.274   4.010  0.2561  0.4302 -1.2496
 4655SOL    HW214865   5.941   5.354   3.931 -1.0164 -0.5997 -0.4349
 4656SOL     OW14866   1.291   6.376   2.100  0.3461 -0.2601 -0.2888
 4656SOL    HW114867   1.223   6.327   2.156 -0.3762  1.3570  0.3238
 4656SOL    HW214868   1.257   6.385   2.007 -0.2297  0.3859 -0.0279
 4657SOL     OW14869   6.527   1.465   0.939 -0.1155 -0.0248 -0.4572
 4657SOL    HW114870   6.561   1.425   1.024 -1.0897  2.1080  1.0179
 4657SOL    HW214871   6.591   1.535   0.907  0.4262 -1.0469 -1.7471
 4658SOL     OW14872   6.392   0.038   3.625  0.2796 -0.3119 -0.5897
 4658SOL    HW114873   6.387   0.042   3.725 -0.1014  1.9755 -0.6455
 4658SOL    HW214874   6.300   0.024   3.587  0.6521 -3.1563 -0.6348
 4659SOL     OW14875   1.847   2.590   2.848 -0.1341 -0.0865 -0.2828
 4659SOL    HW114876   1.839   2.654   2.772  1.0414  1.0213  0.4860
 4659SOL    HW214877   1.938   2.596   2.887 -0.4858 -1.1694  0.7683
 4660SOL     OW14878   4.884   0.527   6.171  0.5445 -0.4911  0.5332
 4660SOL    HW114879   4.792   0.567   6.171  0.4481 -0.7156  0.6656
 4660SOL    HW214880   4.898   0.475   6.255  1.1903  0.4672  1.0481
 4661SOL     OW14881   3.120   3.094   3.684 -0.0006 -0.3399  0.0692
 4661SOL    HW114882   3.180   3.043   3.746  0.7304  0.7774  0.3128
 4661SOL    HW214883   3.129   3.056   3.592  1.1212 -0.1849  0.0956
 4662SOL     OW14884   6.039   6.497   5.110  0.6971  0.1344  0.3119
 4662SOL    HW114885   6.046   6.398   5.119  0.0764  0.0670  0.0578
 4662SOL    HW214886   5.976   6.532   5.179 -1.9025 -0.0659 -1.8226
 4663SOL     OW14887   1.102   6.250   2.229  0.6907 -0.0596  0.1512
 4663SOL    HW114888   1.011   6.261   2.188  1.3384  1.5613 -0.9913
 4663SOL    HW214889   1.097   6.266   2.328 -0.4043 -0.8999  0.2397
 4664SOL     OW14890   4.137   5.829   0.618 -0.3709  0.2545  0.1090
 4664SOL    HW114891   4.163   5.735   0.641 -2.2140 -0.1036  0.9504
 4664SOL    HW214892   4.091   5.830   0.529 -0.5064  0.3091  0.1784
 4665SOL     OW14893   4.878   2.166   5.640  0.0615  0.2248 -0.7482
 4665SOL    HW114894   4.953   2.209   5.590  0.3540  3.2471  1.9255
 4665SOL    HW214895   4.792   2.183   5.592  0.5838  0.9838 -1.4523
 4666SOL     OW14896   2.685   0.101   0.218  0.3135 -0.1864  0.0072
 4666SOL    HW114897   2.616   0.029   0.229  1.0418 -1.2012 -1.6600
 4666SOL    HW214898   2.770   0.073   0.263  0.3418  0.0172  0.0807
 4667SOL     OW14899   1.533   6.001   3.413 -0.6166  0.2679 -0.1607
 4667SOL    HW114900   1.459   5.933   3.406 -0.9920  0.3875  2.0831
 4667SOL    HW214901   1.527   6.048   3.501  2.3277  0.0872  0.2273
 4668SOL     OW14902   6.084   5.119   3.743 -0.4501  0.8104 -0.4809
 4668SOL    HW114903   5.993   5.079   3.730 -0.9717  1.2200  1.6048
 4668SOL    HW214904   6.152   5.047   3.751 -0.6823  0.4868 -1.3095
 4669SOL     OW14905   1.878   2.444   3.085 -0.1045 -0.1334 -0.4299
 4669SOL    HW114906   1.818   2.409   3.157  0.2076  2.9039  1.4738
 4669SOL    HW214907   1.825   2.462   3.002 -0.9402 -1.3457 -0.1913
 4670SOL     OW14908   2.341   0.449   5.422  0.1467 -0.7709  0.1252
 4670SOL    HW114909   2.383   0.539   5.426 -0.2322 -0.5295 -0.9316
 4670SOL    HW214910   2.380   0.397   5.347 -1.3715 -0.5562 -0.8649
 4671SOL     OW14911   6.783   2.483   3.555  0.4042  0.5160  0.3535
 4671SOL    HW114912   6.759   2.400   3.606  0.8968 -0.6225 -1.1850
 4671SOL    HW214913   6.878   2.507   3.576  0.0710  1.0696  1.2733
 4672SOL     OW14914   4.277   1.634   5.520  0.1395  0.5331  0.7417
 4672SOL    HW114915   4.366   1.677   5.503  0.7600 -0.2207  1.9215
 4672SOL    HW214916   4.272   1.547   5.471  1.2254 -0.7865  2.8121
 4673SOL     OW14917   4.507   0.695   1.243 -0.3653  0.2299  0.0291
 4673SOL    HW114918   4.408   0.687   1.230 -0.3040  0.4134 -0.5648
 4673SOL    HW214919   4.541   0.616   1.293 -0.6363 -0.3878 -0.7510
 4674SOL     OW14920   3.565   6.489   6.541  0.6262  0.1962 -0.0202
 4674SOL    HW114921   3.497   6.442   6.485  0.5474 -0.5905  0.6975
 4674SOL    HW214922   3.651   6.437   6.539  0.9321  0.7077 -0.2202
 4675SOL     OW14923   6.162   2.602   0.313  0.5501 -0.3175 -0.0073
 4675SOL    HW114924   6.076   2.646   0.341  0.1022  0.0167 -1.7916
 4675SOL    HW214925   6.173   2.517   0.364 -1.2687 -0.7744 -0.2832
 4676SOL     OW14926   2.083   4.394   4.649  0.1020  0.1009  0.2319
 4676SOL    HW114927   2.160   4.457   4.634  0.1892 -0.2816 -1.0374
 4676SOL    HW214928   2.092   4.352   4.739  1.4996 -0.0762  0.0392
 4677SOL     OW14929   1.106   3.678   1.778  0.3904  0.2862 -0.1971
 4677SOL    HW114930   1.124   3.768   1.739  0.5782  0.3583  0.0567
 4677SOL    HW214931   1.055   3.623   1.712  0.0737  0.6562 -0.2684
 4678SOL     OW14932   2.377   3.779   6.870 -0.4875 -0.2304  0.1959
 4678SOL    HW114933   2.407   3.818   6.783 -1.0199  1.6610  0.8159
 4678SOL    HW214934   2.454   3.732   6.913 -0.5705 -2.4743 -1.9111
 4679SOL     OW14935   5.574   5.158   1.073 -0.5017  0.8925  0.1933
 4679SOL    HW114936   5.669   5.140   1.099 -0.5127  2.2069  1.2188
 4679SOL    HW214937   5.556   5.117   0.984  1.8400  2.9088 -1.3370
 4680SOL     OW14938   4.134   2.671   6.865  0.0225  0.2913 -0.5456
 4680SOL    HW114939   4.069   2.740   6.896  0.2828  0.4734 -0.3966
 4680SOL    HW214940   4.171   2.698   6.776 -0.9551 -0.3868 -1.1758
 4681SOL     OW14941   6.235   4.880   3.709  0.2033 -1.0059  1.0044
 4681SOL    HW114942   6.317   4.853   3.761 -0.4771 -1.2178  1.9910
 4681SOL    HW214943   6.246   4.853   3.614  2.1565  0.7713  0.6511
 4682SOL     OW14944   3.914   4.668   0.879 -0.3977 -0.0646 -0.3467
 4682SOL    HW114945   3.865   4.593   0.923 -0.6281  0.4143  0.2259
 4682SOL    HW214946   3.926   4.743   0.944  0.5242  0.0876 -0.6798
 4683SOL     OW14947   0.915   4.053   4.056  0.2219  0.2844  0.2986
 4683SOL    HW114948   1.004   4.057   4.102  0.8401  0.7380 -0.8735
 4683SOL    HW214949   0.916   3.978   3.989 -0.0581  0.6599 -0.1329
 4684SOL     OW14950   5.645   0.415   5.521 -0.1209  0.0552 -0.6338
 4684SOL    HW114951   5.732   0.379   5.486  0.1890  0.3224 -0.1454
 4684SOL    HW214952   5.659   0.451   5.613 -0.9842 -0.8497 -0.1359
 4685SOL     OW14953   3.180   2.943   2.295 -0.6858  0.1689 -1.2204
 4685SOL    HW114954   3.279   2.934   2.307 -0.9579 -0.3726  1.1153
 4685SOL    HW214955   3.155   2.919   2.201  1.1303 -2.3102 -1.1536
 4686SOL     OW14956   0.357   0.639   0.748  0.0588  0.5834 -0.4891
 4686SOL    HW114957   0.315   0.608   0.834  1.0282  1.6602  0.4027
 4686SOL    HW214958   0.436   0.580   0.727  0.3562  0.8628 -0.1623
 4687SOL     OW14959   2.150   0.397   0.871  0.1459  0.1746  0.7547
 4687SOL    HW114960   2.223   0.332   0.892  0.1830 -0.7062 -1.7873
 4687SOL    HW214961   2.180   0.460   0.800 -1.7777 -0.7459 -0.9843
 4688SOL     OW14962   4.046   0.499   5.472 -0.7183  0.3133  0.4683
 4688SOL    HW114963   4.108   0.538   5.404  0.0665  1.1885  1.6214
 4688SOL    HW214964   4.078   0.526   5.564 -3.7133  2.2411  1.0958
 4689SOL     OW14965   6.318   1.688   1.998  0.8409 -0.4864  0.1820
 4689SOL    HW114966   6.238   1.734   2.037  0.2003  1.1402 -2.8100
 4689SOL    HW214967   6.400   1.740   2.022  0.4078  0.7586 -0.9217
 4690SOL     OW14968   3.761   1.076   0.772 -0.3045 -0.2167  0.3644
 4690SOL    HW114969   3.795   1.164   0.803  0.5571 -0.9209  1.5127
 4690SOL    HW214970   3.739   1.019   0.852 -1.3711 -0.8427 -0.3588
 4691SOL     OW14971   4.903   3.701   6.479  0.3095 -0.3323  0.2782
 4691SOL    HW114972   4.913   3.800   6.484 -0.4454 -0.2425  0.2463
 4691SOL    HW214973   4.878   3.674   6.386 -1.1986 -0.3558  0.6603
 4692SOL     OW14974   5.862   1.585   5.183  0.3727 -0.1760  0.1317
 4692SOL    HW114975   5.849   1.669   5.236  1.2650  0.1944 -0.2067
 4692SOL    HW214976   5.832   1.507   5.237 -1.2592  0.4220  0.1262
 4693SOL     OW14977   6.777   6.280   3.211  0.2002 -0.4512 -0.1401
 4693SOL    HW114978   6.830   6.196   3.200 -0.1352 -0.8034  0.8234
 4693SOL    HW214979   6.697   6.277   3.150  1.6881  0.4623 -2.2328
 4694SOL     OW14980   2.164   1.048   0.630  0.2340  0.2786  0.1566
 4694SOL    HW114981   2.098   0.978   0.657  1.3059 -1.2265 -0.9644
 4694SOL    HW214982   2.129   1.099   0.552  0.3618 -0.5364 -0.4526
 4695SOL     OW14983   1.357   5.286   0.348  0.1606 -0.1473  0.0509
 4695SOL    HW114984   1.392   5.378   0.331  0.0284 -0.4318 -2.0791
 4695SOL    HW214985   1.427   5.232   0.395  0.4631  0.8511  0.7849
 4696SOL     OW14986   1.311   6.933   6.554 -0.2978  0.2156  0.1029
 4696SOL    HW114987   1.352   6.971   6.471 -0.4576  0.8359  0.3014
 4696SOL    HW214988   1.253   6.855   6.530 -0.2233  0.2970 -0.3525
 4697SOL     OW14989   5.711   4.404   1.621  0.1787  0.1098 -0.1009
 4697SOL    HW114990   5.664   4.418   1.708  1.3020  1.5658  0.3143
 4697SOL    HW214991   5.805   4.372   1.638  0.8978  1.7842 -0.6540
 4698SOL     OW14992   0.016   2.398   5.699  0.0840 -0.0175  0.3857
 4698SOL    HW114993   0.085   2.366   5.764  0.4856  0.3222  0.1345
 4698SOL    HW214994   0.016   2.498   5.697 -1.1308  0.0163  1.1370
 4699SOL     OW14995   1.471   2.349   1.496 -0.2266 -0.2903 -0.5153
 4699SOL    HW114996   1.547   2.338   1.560  0.4687  0.7327 -1.1427
 4699SOL    HW214997   1.507   2.371   1.405 -1.1843 -1.7862 -1.3016
 4700SOL     OW14998   6.667   2.237   2.178  0.2148  0.0564 -0.2067
 4700SOL    HW114999   6.734   2.300   2.218 -0.0846  0.7340 -0.7408
 4700SOL    HW215000   6.711   2.181   2.108  0.3228  0.1743 -0.2327
 4701SOL     OW15001   2.104   3.032   2.466  0.5402 -0.0271  0.1448
 4701SOL    HW115002   2.050   2.991   2.539  1.1837  1.1968  1.3434
 4701SOL    HW215003   2.199   3.003   2.473  0.8332  0.9702  0.5022
 4702SOL     OW15004   6.362   5.222   0.387 -0.0407  0.0733  0.2142
 4702SOL    HW115005   6.434   5.253   0.326  0.2031  1.1114  0.9989
 4702SOL    HW215006   6.290   5.177   0.334  0.9345 -0.5271 -0.6306
 4703SOL     OW15007   1.549   0.459   4.236 -0.0015 -0.4209  0.0077
 4703SOL    HW115008   1.598   0.426   4.155  0.7802 -0.5706  0.5278
 4703SOL    HW215009   1.615   0.476   4.309 -0.6821 -0.0950  0.5493
 4704SOL     OW15010   1.192   5.207   3.978  0.1951  0.4736  0.2367
 4704SOL    HW115011   1.100   5.236   4.003  0.2474  0.5644  0.3240
 4704SOL    HW215012   1.241   5.283   3.936  0.1645  0.3689  0.0091
 4705SOL     OW15013   2.277   2.016   5.884  0.0113  0.8148  0.2371
 4705SOL    HW115014   2.184   2.051   5.895 -0.1474  1.2589 -2.0149
 4705SOL    HW215015   2.343   2.091   5.893 -0.0129  0.8837 -0.1184
 4706SOL     OW15016   3.026   1.119   1.794 -0.1383 -0.6736 -0.2957
 4706SOL    HW115017   3.087   1.097   1.718 -0.4525 -1.7203 -0.2595
 4706SOL    HW215018   3.012   1.218   1.798 -2.3704 -0.7068 -3.3851
 4707SOL     OW15019   6.893   6.451   2.573  0.3150 -0.0125  0.1947
 4707SOL    HW115020   6.926   6.379   2.513 -1.5941 -1.4740  0.8076
 4707SOL    HW215021   6.832   6.512   2.522  0.4868  0.0911  0.1123
 4708SOL     OW15022   1.101   3.066   6.376 -0.2193 -0.3097  0.2017
 4708SOL    HW115023   1.049   2.994   6.421  1.6284 -1.6039  0.4031
 4708SOL    HW215024   1.117   3.141   6.440  0.4455 -1.1160  0.9976
 4709SOL     OW15025   1.214   3.558   4.922 -0.6492 -0.4272 -0.2766
 4709SOL    HW115026   1.263   3.596   5.000  0.5009 -0.4555 -0.9469
 4709SOL    HW215027   1.132   3.612   4.903 -0.6670 -0.1266  0.6279
 4710SOL     OW15028   6.298   4.226   5.278  0.1825 -0.3156  0.2260
 4710SOL    HW115029   6.316   4.308   5.332 -2.4146  0.0420  0.7026
 4710SOL    HW215030   6.280   4.149   5.340  0.2972 -0.6727 -0.1801
 4711SOL     OW15031   5.583   3.341   3.882  0.6984 -0.5325 -0.8312
 4711SOL    HW115032   5.605   3.361   3.977 -1.8926  0.8526 -0.4378
 4711SOL    HW215033   5.495   3.294   3.878  0.7804 -0.5905 -2.5462
 4712SOL     OW15034   3.109   6.477   6.284  0.3765  0.7655  0.0494
 4712SOL    HW115035   3.123   6.570   6.248 -0.5424  1.3020  1.0096
 4712SOL    HW215036   3.042   6.480   6.358 -0.0795 -0.7654 -0.2716
 4713SOL     OW15037   5.495   4.552   2.650 -0.0609  0.6070 -0.0864
 4713SOL    HW115038   5.442   4.502   2.718  0.4222 -0.7359 -0.6619
 4713SOL    HW215039   5.586   4.511   2.642 -0.2040  0.5458 -1.7253
 4714SOL     OW15040   6.779   1.206   3.990  0.0820  0.3790 -0.6440
 4714SOL    HW115041   6.726   1.182   4.071  0.7136 -0.3622 -0.4378
 4714SOL    HW215042   6.718   1.242   3.919 -0.5222  0.6919  0.0228
 4715SOL     OW15043   5.543   1.540   2.619  0.4969  0.5188  0.6299
 4715SOL    HW115044   5.571   1.634   2.636 -0.9810  1.1066 -0.0160
 4715SOL    HW215045   5.566   1.484   2.699  0.8166  1.5613  1.2942
 4716SOL     OW15046   4.217   3.648   5.089 -0.0005  0.0644  0.4717
 4716SOL    HW115047   4.117   3.649   5.085 -0.0765 -0.1651  1.9016
 4716SOL    HW215048   4.251   3.566   5.044 -0.4293  0.2495 -0.2135
 4717SOL     OW15049   6.999   3.705   5.590 -0.0579  0.1676 -0.0208
 4717SOL    HW115050   7.013   3.759   5.673 -0.4109  0.4673 -0.1491
 4717SOL    HW215051   7.021   3.609   5.608 -0.0330  0.2479  0.3885
 4718SOL     OW15052   5.616   3.374   2.879 -0.3307  0.0519  0.5169
 4718SOL    HW115053   5.594   3.462   2.836  1.0256 -0.5215 -1.5091
 4718SOL    HW215054   5.546   3.307   2.855 -0.0922 -0.0194  0.0119
 4719SOL     OW15055   5.585   5.096   3.819  0.0547 -0.4522  0.4867
 4719SOL    HW115056   5.608   5.089   3.916 -1.7602 -0.7148  0.9356
 4719SOL    HW215057   5.486   5.084   3.807  0.3382 -1.2119 -1.4796
 4720SOL     OW15058   1.032   1.260   5.234  0.2870 -0.2935 -0.0972
 4720SOL    HW115059   1.082   1.174   5.229  0.7183 -0.0061 -0.8804
 4720SOL    HW215060   1.051   1.314   5.152 -1.8592 -0.4925 -0.7927
 4721SOL     OW15061   0.980   3.121   1.069 -0.1994  0.5164 -0.1415
 4721SOL    HW115062   0.958   3.038   1.120 -0.6569  0.2201 -0.8112
 4721SOL    HW215063   0.954   3.110   0.973  1.2486  0.8272 -0.5913
 4722SOL     OW15064   2.219   5.867   6.085  0.1128  0.2412  0.3213
 4722SOL    HW115065   2.196   5.773   6.110 -0.1899  0.4488  0.8467
 4722SOL    HW215066   2.216   5.877   5.986 -1.7898  0.1561  0.3231
 4723SOL     OW15067   3.293   4.441   6.516 -0.3212  0.1128 -0.7248
 4723SOL    HW115068   3.289   4.368   6.585  0.2862  0.8123  0.0650
 4723SOL    HW215069   3.383   4.484   6.518 -0.9211  1.4099 -0.6239
 4724SOL     OW15070   6.232   1.193   3.905  0.2536  0.4213  0.2506
 4724SOL    HW115071   6.304   1.136   3.865  0.6993  3.3472 -3.7414
 4724SOL    HW215072   6.147   1.179   3.855 -0.6685  0.5882  1.7115
 4725SOL     OW15073   5.570   5.970   0.414  0.4427 -0.3246  0.2534
 4725SOL    HW115074   5.533   5.886   0.453  1.5836 -1.1385 -0.3694
 4725SOL    HW215075   5.664   5.983   0.444  0.7409 -0.0072 -0.7617
 4726SOL     OW15076   1.380   2.520   6.763 -0.1141 -0.2962 -0.2531
 4726SOL    HW115077   1.403   2.520   6.860 -1.8875  3.2632  0.3351
 4726SOL    HW215078   1.456   2.560   6.711 -0.1815  0.2660  0.0646
 4727SOL     OW15079   6.046   6.231   1.428  0.6742  0.0639 -0.1003
 4727SOL    HW115080   6.027   6.167   1.353 -0.0445  0.1569 -0.0093
 4727SOL    HW215081   6.099   6.308   1.393  3.6432 -1.6862  0.2612
 4728SOL     OW15082   5.850   0.260   3.229 -0.0686  0.3994  0.7402
 4728SOL    HW115083   5.846   0.313   3.313 -2.5282 -0.1933  1.0681
 4728SOL    HW215084   5.799   0.175   3.240  1.1182 -0.5837 -0.7922
 4729SOL     OW15085   6.685   2.403   2.632 -0.3251  0.0040  0.2281
 4729SOL    HW115086   6.654   2.405   2.537 -1.0575 -0.0403  0.4601
 4729SOL    HW215087   6.736   2.319   2.649 -0.2508 -0.0193 -0.1117
 4730SOL     OW15088   1.809   2.003   2.869  0.3127  0.3175  0.3075
 4730SOL    HW115089   1.735   2.068   2.849  0.0170  0.3187  1.3562
 4730SOL    HW215090   1.893   2.054   2.889  0.4111  0.3353 -0.1379
 4731SOL     OW15091   3.861   0.081   3.122  0.1823 -0.0415 -0.1667
 4731SOL    HW115092   3.927   0.076   3.197  0.3730 -4.0096 -0.3621
 4731SOL    HW215093   3.772   0.045   3.153 -1.4543  3.3840 -0.4527
 4732SOL     OW15094   6.852   5.021   4.521 -0.2085  0.1304  0.4057
 4732SOL    HW115095   6.842   5.113   4.483 -3.2068 -0.8098 -1.3772
 4732SOL    HW215096   6.914   4.968   4.465 -0.9661  0.1594 -0.4854
 4733SOL     OW15097   3.969   5.194   4.719  0.1407  0.1089 -0.2248
 4733SOL    HW115098   3.881   5.209   4.764  0.8490  2.5028  0.5141
 4733SOL    HW215099   3.981   5.261   4.646  0.6656 -1.2669 -1.4443
 4734SOL     OW15100   1.992   6.194   6.532 -0.6555  0.4158  0.0396
 4734SOL    HW115101   2.023   6.287   6.514  0.0723  0.2463  0.3738
 4734SOL    HW215102   2.065   6.143   6.578 -0.3982 -0.8340 -1.6747
 4735SOL     OW15103   6.678   6.661   5.873  0.7047  0.0620 -0.0822
 4735SOL    HW115104   6.763   6.704   5.903 -0.3909  2.9256 -0.8284
 4735SOL    HW215105   6.600   6.715   5.904 -0.8019 -1.4949 -0.9708
 4736SOL     OW15106   4.453   6.443   3.574 -0.2566 -0.2870 -0.2711
 4736SOL    HW115107   4.374   6.438   3.635 -0.2213 -1.0394 -0.2847
 4736SOL    HW215108   4.524   6.500   3.616 -0.6193  0.0155 -0.0577
 4737SOL     OW15109   2.652   4.992   6.053 -0.0488 -0.2323  0.6119
 4737SOL    HW115110   2.619   4.931   5.980 -0.0299 -0.2828  0.6450
 4737SOL    HW215111   2.725   4.945   6.103  1.2871  0.5157 -0.5462
 4738SOL     OW15112   6.512   0.458   3.434  0.1402  0.4302 -0.1321
 4738SOL    HW115113   6.605   0.488   3.411  0.3142  0.5364  0.6541
 4738SOL    HW215114   6.505   0.359   3.424 -0.2206  0.6128 -2.0213
 4739SOL     OW15115   6.485   2.160   3.278 -0.4823 -0.3311 -0.5972
 4739SOL    HW115116   6.479   2.178   3.376 -0.9900  0.9574 -0.8488
 4739SOL    HW215117   6.494   2.062   3.263  2.2591 -0.3964  0.8560
 4740SOL     OW15118   2.698   0.144   1.354 -0.4020 -1.2033 -0.1790
 4740SOL    HW115119   2.608   0.162   1.314  0.8091  2.2870 -1.7501
 4740SOL    HW215120   2.763   0.123   1.281  1.1748  2.1561  0.0425
 4741SOL     OW15121   6.383   5.321   2.805 -0.2960 -0.1272  0.0513
 4741SOL    HW115122   6.351   5.410   2.838  1.3525  0.6327 -0.2670
 4741SOL    HW215123   6.329   5.293   2.726 -1.2283  0.2897  0.5242
 4742SOL     OW15124   1.030   5.209   3.437 -0.0949  0.3148 -0.3341
 4742SOL    HW115125   0.949   5.246   3.484 -0.3244  0.7309 -1.0475
 4742SOL    HW215126   1.018   5.218   3.339  1.1154  0.9866 -0.4300
 4743SOL     OW15127   2.010   3.659   6.890  0.0166 -0.2514 -0.0944
 4743SOL    HW115128   1.948   3.631   6.964 -1.2246  1.2631 -0.5036
 4743SOL    HW215129   1.983   3.749   6.857  1.7299 -0.0828 -1.1336
 4744SOL     OW15130   4.222   1.852   7.005  0.0787  0.2120 -0.3430
 4744SOL    HW115131   4.257   1.855   6.911 -0.1058  0.3385 -0.4085
 4744SOL    HW215132   4.298   1.839   7.069 -0.0121 -3.1629 -0.7091
 4745SOL     OW15133   3.290   5.582   4.383 -0.1699 -0.6675 -0.2646
 4745SOL    HW115134   3.342   5.543   4.459  0.5833  2.0013  0.7045
 4745SOL    HW215135   3.343   5.655   4.341 -2.1345  0.4688 -0.8888
 4746SOL     OW15136   5.936   1.953   3.291 -0.4396 -0.1278 -0.1825
 4746SOL    HW115137   5.863   1.914   3.235 -0.5138  0.5069 -0.5301
 4746SOL    HW215138   5.896   2.001   3.369 -0.3331 -1.1211  0.5054
 4747SOL     OW15139   1.472   3.382   4.193 -0.1241  0.1522 -0.2445
 4747SOL    HW115140   1.430   3.298   4.160 -0.3823  0.2492 -0.1657
 4747SOL    HW215141   1.484   3.446   4.117  3.4505 -1.3103 -1.0928
 4748SOL     OW15142   2.309   5.999   1.218  0.1321  0.1446  0.1269
 4748SOL    HW115143   2.297   6.095   1.242  0.7073  0.0534  0.8046
 4748SOL    HW215144   2.295   5.988   1.119 -0.6185  0.8004  0.1519
 4749SOL     OW15145   3.945   6.343   0.458 -0.1256 -0.0495 -0.1238
 4749SOL    HW115146   4.045   6.355   0.460  0.0327 -0.7941 -2.0553
 4749SOL    HW215147   3.902   6.429   0.487  1.0533  0.4196  0.3471
 4750SOL     OW15148   1.074   2.583   1.197  0.5505  0.1293  0.5045
 4750SOL    HW115149   1.092   2.673   1.237 -0.2494 -0.1878  1.6411
 4750SOL    HW215150   1.026   2.526   1.263  0.7900 -1.0545 -0.2980
 4751SOL     OW15151   1.607   5.091   6.092 -0.1035 -0.0945  0.0524
 4751SOL    HW115152   1.678   5.021   6.088  0.0681  0.0763  0.0968
 4751SOL    HW215153   1.639   5.168   6.147 -0.1845  0.1392 -0.2246
 4752SOL     OW15154   1.251   6.516   0.491 -0.4047  0.3820  0.5074
 4752SOL    HW115155   1.171   6.462   0.517 -1.7938  1.1252 -1.8850
 4752SOL    HW215156   1.273   6.581   0.563 -2.2884  0.4849  1.0333
 4753SOL     OW15157   1.421   1.517   6.669 -0.2388  0.3020 -0.5696
 4753SOL    HW115158   1.465   1.479   6.587 -1.1742  0.1905 -1.0321
 4753SOL    HW215159   1.458   1.608   6.687  1.0935 -0.2876 -0.2026
 4754SOL     OW15160   2.751   2.055   5.628 -0.5698  0.6179  0.1103
 4754SOL    HW115161   2.768   2.128   5.695  0.5145 -1.0495  1.7275
 4754SOL    HW215162   2.838   2.025   5.588 -0.8701 -0.6099  0.3572
 4755SOL     OW15163   1.817   0.258   2.964 -0.1306 -0.4933 -0.3572
 4755SOL    HW115164   1.744   0.321   2.990  1.7341  1.8925 -0.4985
 4755SOL    HW215165   1.793   0.213   2.878 -0.9929  1.1006 -0.9997
 4756SOL     OW15166   6.223   2.748   0.082 -0.3901 -0.0778 -0.8474
 4756SOL    HW115167   6.184   2.697   0.159 -0.6679 -1.1937 -1.7147
 4756SOL    HW215168   6.151   2.796   0.033 -0.3654 -0.2810 -1.0838
 4757SOL     OW15169   3.371   4.021   0.623 -0.5347  0.0670  0.0984
 4757SOL    HW115170   3.363   4.025   0.722 -1.1930 -1.9139  0.1794
 4757SOL    HW215171   3.280   4.013   0.583 -0.1967 -0.7526 -0.5406
 4758SOL     OW15172   6.069   1.491   6.724  0.7976 -0.4327  0.7605
 4758SOL    HW115173   6.053   1.422   6.795  1.1837 -1.4962 -0.1426
 4758SOL    HW215174   6.012   1.471   6.644  0.4082  0.7131  0.7307
 4759SOL     OW15175   6.498   2.999   0.422  0.1949  0.0671  0.6838
 4759SOL    HW115176   6.468   2.909   0.390 -0.5659  0.5241  0.0786
 4759SOL    HW215177   6.595   3.011   0.402 -0.2197  0.3073 -1.4575
 4760SOL     OW15178   0.334   6.714   1.279 -0.0086 -0.0315  0.4775
 4760SOL    HW115179   0.420   6.693   1.325  0.3392 -1.0634 -0.5981
 4760SOL    HW215180   0.261   6.722   1.347  1.0809  1.8882  1.5196
 4761SOL     OW15181   3.046   1.822   6.987 -0.1061 -0.4783 -0.0404
 4761SOL    HW115182   3.047   1.730   7.026  2.2047 -0.1302  0.8342
 4761SOL    HW215183   3.036   1.890   7.060 -2.4113  0.0136 -0.7283
 4762SOL     OW15184   3.726   2.106   3.076 -0.0958  0.3217  0.6530
 4762SOL    HW115185   3.658   2.090   3.148  0.1559  1.3389  1.1371
 4762SOL    HW215186   3.681   2.104   2.987 -0.7664  0.9534  0.9696
 4763SOL     OW15187   6.608   4.974   4.629 -0.0183 -0.2960 -0.1171
 4763SOL    HW115188   6.581   4.902   4.565 -0.0138  0.6559 -1.2286
 4763SOL    HW215189   6.706   4.994   4.618 -0.1156  0.1903 -0.1555
 4764SOL     OW15190   3.859   3.176   4.563  0.0563 -0.1140  0.4365
 4764SOL    HW115191   3.853   3.166   4.663 -1.1624 -0.8099  0.3168
 4764SOL    HW215192   3.768   3.195   4.527  0.4504 -0.1149 -0.5716
 4765SOL     OW15193   1.408   6.509   6.326  0.0321  0.3624 -0.3603
 4765SOL    HW115194   1.423   6.592   6.272 -2.3954  0.1610 -1.4960
 4765SOL    HW215195   1.455   6.432   6.282  0.3978  0.7139 -0.5926
 4766SOL     OW15196   4.532   0.386   1.914  0.1179  0.2584  0.6479
 4766SOL    HW115197   4.574   0.443   1.843 -0.1312 -0.3397  0.0047
 4766SOL    HW215198   4.457   0.436   1.957  0.1212  0.5468  0.3220
 4767SOL     OW15199   3.107   1.237   6.810  0.3628  0.1082 -0.2726
 4767SOL    HW115200   3.055   1.263   6.728 -0.5409  0.7156  0.4730
 4767SOL    HW215201   3.137   1.142   6.801  0.2980  0.1713 -1.3131
 4768SOL     OW15202   3.648   6.601   4.675 -0.1196  0.4751  0.2637
 4768SOL    HW115203   3.723   6.616   4.740  0.7737 -0.7762 -0.4203
 4768SOL    HW215204   3.687   6.573   4.587 -1.4238 -1.0637  0.1475
 4769SOL     OW15205   5.875   0.058   1.848  0.4096  0.2340  0.3627
 4769SOL    HW115206   5.893   0.099   1.759 -1.0764 -1.2171 -0.6640
 4769SOL    HW215207   5.913  -0.035   1.850  3.8649  1.4642  2.6948
 4770SOL     OW15208   2.214   3.087   4.557  0.1207  0.2546 -0.1631
 4770SOL    HW115209   2.213   3.047   4.466  1.2776  0.4252 -0.2677
 4770SOL    HW215210   2.226   3.186   4.550 -0.3041  0.3322  0.1640
 4771SOL     OW15211   3.503   6.371   4.811  0.2616 -0.1090 -0.4699
 4771SOL    HW115212   3.412   6.341   4.839 -0.3876  0.7718 -1.5547
 4771SOL    HW215213   3.524   6.459   4.854  1.9315 -1.6806  2.2636
 4772SOL     OW15214   4.431   1.626   5.897 -0.4857 -0.0334 -0.0363
 4772SOL    HW115215   4.424   1.568   5.816 -1.2664 -0.8692  0.6129
 4772SOL    HW215216   4.344   1.626   5.946  0.5746 -1.2581  1.9609
 4773SOL     OW15217   1.674   4.428   5.163 -0.1793  0.3680 -0.6048
 4773SOL    HW115218   1.738   4.412   5.239 -1.7523 -0.7271  0.5494
 4773SOL    HW215219   1.725   4.426   5.077  1.5987  1.2396  0.3549
 4774SOL     OW15220   2.617   5.204   0.100  0.3418  0.0445  0.4053
 4774SOL    HW115221   2.687   5.191   0.030  0.9849 -0.3473  1.0943
 4774SOL    HW215222   2.529   5.221   0.057  0.8146  0.3065 -0.4878
 4775SOL     OW15223   2.106   3.732   4.417  0.2166  0.8120  0.3289
 4775SOL    HW115224   2.127   3.671   4.341  1.2107  0.5454  0.8018
 4775SOL    HW215225   2.075   3.820   4.381 -2.5170 -0.3361 -0.3660
 4776SOL     OW15226   4.154   5.557   0.786  0.5292 -0.4855  0.2191
 4776SOL    HW115227   4.123   5.541   0.880  0.9137  1.5631  0.7574
 4776SOL    HW215228   4.250   5.532   0.778  0.8117  0.3962  0.7147
 4777SOL     OW15229   1.792   5.021   1.840  0.1347  0.4458 -0.1834
 4777SOL    HW115230   1.858   4.980   1.904  2.0434  2.1101 -0.9740
 4777SOL    HW215231   1.758   4.950   1.778  1.5092 -0.4225 -0.0080
 4778SOL     OW15232   0.216   2.933   3.317  0.4094 -0.2732 -0.0591
 4778SOL    HW115233   0.213   2.838   3.285  1.7222 -0.6398  0.8473
 4778SOL    HW215234   0.124   2.961   3.346  0.2824 -1.7955  1.1175
 4779SOL     OW15235   5.591   1.466   3.376  0.6489  0.0398  0.0733
 4779SOL    HW115236   5.587   1.370   3.349 -1.3814  0.3463 -0.8586
 4779SOL    HW215237   5.551   1.477   3.467  2.6703 -0.2252  1.0538
 4780SOL     OW15238   6.571   1.898   0.351 -0.3090  0.2561 -0.1507
 4780SOL    HW115239   6.627   1.979   0.334  0.7683 -0.3143  0.5499
 4780SOL    HW215240   6.601   1.824   0.290 -0.9349  0.2253 -0.4231
 4781SOL     OW15241   3.049   5.081   2.356 -0.4671  0.3487  0.2185
 4781SOL    HW115242   3.050   5.101   2.454  1.7612  0.2049  0.2920
 4781SOL    HW215243   3.114   5.007   2.337 -1.8226 -0.5328 -1.2199
 4782SOL     OW15244   0.394   6.119   1.627  0.1733 -0.2107  0.5808
 4782SOL    HW115245   0.417   6.194   1.688  0.2159 -0.8268  1.3335
 4782SOL    HW215246   0.441   6.132   1.539  0.4712  0.4443  0.8318
 4783SOL     OW15247   5.163   5.542   4.681  0.0649  0.4217  0.3775
 4783SOL    HW115248   5.171   5.641   4.694  1.9588  0.6266 -1.7961
 4783SOL    HW215249   5.093   5.522   4.613 -0.0577  0.2629  0.5465
 4784SOL     OW15250   5.620   4.682   4.857 -0.9543 -0.4817  0.0098
 4784SOL    HW115251   5.641   4.742   4.934 -0.6120 -1.6110  0.8285
 4784SOL    HW215252   5.586   4.736   4.781 -0.3588  0.7789  0.6049
 4785SOL     OW15253   6.240   5.852   1.099 -0.3957 -0.0905  1.0206
 4785SOL    HW115254   6.333   5.849   1.134 -0.5145 -0.7058  1.3108
 4785SOL    HW215255   6.197   5.762   1.112 -0.3611 -0.4403 -0.9321
 4786SOL     OW15256   2.799   5.890   1.442  0.6740 -0.2484 -0.3328
 4786SOL    HW115257   2.720   5.913   1.384 -1.5878 -0.1678  2.5399
 4786SOL    HW215258   2.783   5.800   1.485  2.7752 -0.8001 -0.6232
 4787SOL     OW15259   4.322   2.302   1.596 -0.4885 -0.1386 -0.1242
 4787SOL    HW115260   4.311   2.203   1.587  0.7993 -0.1898 -1.5090
 4787SOL    HW215261   4.419   2.324   1.610 -0.6898  0.9704 -0.3514
 4788SOL     OW15262   4.390   0.449   5.806 -0.0589  0.9001 -0.1293
 4788SOL    HW115263   4.379   0.410   5.898 -0.5281 -0.1895 -0.6324
 4788SOL    HW215264   4.484   0.482   5.796  0.6413 -0.9252  0.0373
 4789SOL     OW15265   6.461   4.720   6.690  0.0333  0.0380  0.2073
 4789SOL    HW115266   6.555   4.695   6.666  0.0418  0.2312  0.0326
 4789SOL    HW215267   6.402   4.711   6.609  0.2357  1.5618 -0.1563
 4790SOL     OW15268   6.427   0.529   0.958  0.1008 -1.0415 -0.4045
 4790SOL    HW115269   6.399   0.578   0.876  0.8778  0.8579  0.3948
 4790SOL    HW215270   6.481   0.449   0.933 -0.4588 -1.0212 -1.7413
 4791SOL     OW15271   3.079   1.270   2.526 -1.1370 -0.0069 -0.6134
 4791SOL    HW115272   3.038   1.180   2.534 -1.3588  0.0248 -1.3048
 4791SOL    HW215273   3.007   1.339   2.513 -1.0672  0.4432  1.1195
 4792SOL     OW15274   3.970   2.918   5.616  0.2332  0.2417  0.3857
 4792SOL    HW115275   3.873   2.937   5.601  0.0808 -1.4421 -1.1263
 4792SOL    HW215276   3.980   2.836   5.673  0.7706  0.0355  0.0013
 4793SOL     OW15277   1.383   0.707   5.817  0.5147  0.3008 -0.1459
 4793SOL    HW115278   1.448   0.632   5.804  1.6511  1.4677 -1.4851
 4793SOL    HW215279   1.298   0.686   5.769  0.4252 -0.5644  0.3552
 4794SOL     OW15280   4.579   1.316   1.990 -0.3932 -0.3783 -0.3939
 4794SOL    HW115281   4.496   1.278   1.949 -1.5555  0.2883  1.2098
 4794SOL    HW215282   4.606   1.399   1.942 -0.6581 -0.5964 -0.9207
 4795SOL     OW15283   5.614   0.446   3.100  0.0941 -0.4057 -0.0808
 4795SOL    HW115284   5.574   0.519   3.155  2.8181  1.0463  0.1542
 4795SOL    HW215285   5.640   0.370   3.160 -3.5197 -2.0999 -0.4294
 4796SOL     OW15286   5.760   5.347   3.739 -0.0738 -0.2540 -0.1810
 4796SOL    HW115287   5.717   5.260   3.763  0.7492 -0.7066 -0.3179
 4796SOL    HW215288   5.711   5.388   3.662 -0.3990 -0.6497 -0.1852
 4797SOL     OW15289   0.709   0.415   5.056 -0.3373 -0.1164 -0.0492
 4797SOL    HW115290   0.801   0.440   5.028  0.7112 -0.2765  2.8538
 4797SOL    HW215291   0.647   0.491   5.038  0.8301  0.8623 -0.0524
 4798SOL     OW15292   0.139   4.283   1.299  0.0440  0.2714 -0.3979
 4798SOL    HW115293   0.192   4.228   1.235 -0.5515 -0.4949 -0.2411
 4798SOL    HW215294   0.143   4.379   1.272 -0.5015 -0.0796 -1.7936
 4799SOL     OW15295   5.219   0.172   5.674  0.3610  0.5220 -0.2975
 4799SOL    HW115296   5.196   0.262   5.710 -0.0724  0.9441 -1.5708
 4799SOL    HW215297   5.153   0.104   5.707  1.1581  0.4881  1.3201
 4800SOL     OW15298   2.292   0.302   4.992  0.0068 -0.2909 -0.8960
 4800SOL    HW115299   2.291   0.301   4.892  1.4002  0.9406 -0.9604
 4800SOL    HW215300   2.208   0.343   5.026  0.0856  0.4988 -1.6220
 4801SOL     OW15301   6.165   1.727   1.472 -0.3080 -0.0964 -0.1365
 4801SOL    HW115302   6.077   1.753   1.432  0.3448 -0.3211 -1.7885
 4801SOL    HW215303   6.222   1.809   1.484 -0.5218 -0.0225  0.4247
 4802SOL     OW15304   1.549   6.038   0.276 -0.0196  0.1217 -0.0979
 4802SOL    HW115305   1.629   5.981   0.292  0.0388  0.3549  0.4641
 4802SOL    HW215306   1.526   6.088   0.360 -0.7909  0.0091 -0.2352
 4803SOL     OW15307   0.822   6.379   6.498 -0.2737  0.5357  0.0275
 4803SOL    HW115308   0.780   6.435   6.427  1.4971 -0.6185 -2.0399
 4803SOL    HW215309   0.759   6.306   6.525 -0.0219 -0.7394 -2.4944
 4804SOL     OW15310   5.033   3.606   0.919  0.4603  0.0339  0.4543
 4804SOL    HW115311   5.129   3.579   0.906  0.7877 -0.4360  3.3404
 4804SOL    HW215312   4.974   3.527   0.901  0.4206  0.5744 -2.3320
 4805SOL     OW15313   6.068   5.673   2.064  0.4898 -0.3025 -0.3443
 4805SOL    HW115314   6.118   5.758   2.079 -0.3944  0.4070 -1.2994
 4805SOL    HW215315   5.984   5.692   2.013  0.2517 -1.7416 -0.5289
 4806SOL     OW15316   0.419   2.813   4.013  0.3427  0.3709 -0.3265
 4806SOL    HW115317   0.354   2.800   4.088 -1.9769  1.7606 -1.9308
 4806SOL    HW215318   0.483   2.886   4.035  1.4033 -0.9677  1.2625
 4807SOL     OW15319   6.486   0.426   2.984 -0.7309 -0.2699  0.4611
 4807SOL    HW115320   6.478   0.485   3.064  2.4602  0.0181  0.6807
 4807SOL    HW215321   6.395   0.411   2.945 -2.3427 -0.0430  3.7837
 4808SOL     OW15322   1.008   2.008   0.208  0.1077  0.1354  0.3683
 4808SOL    HW115323   0.949   2.089   0.219  1.5974  1.4399 -0.7815
 4808SOL    HW215324   1.103   2.033   0.224  0.4556 -1.8185  1.6768
 4809SOL     OW15325   4.889   0.288   2.075  1.1417  0.4859  0.7346
 4809SOL    HW115326   4.801   0.266   2.032  0.3064  1.1519  2.0126
 4809SOL    HW215327   4.953   0.320   2.006 -0.2706  1.9003  0.0128
 4810SOL     OW15328   6.874   0.650   4.772 -0.5226 -0.2380  0.1612
 4810SOL    HW115329   6.872   0.686   4.865  1.4129 -1.8130  0.8933
 4810SOL    HW215330   6.963   0.608   4.755 -1.5740 -1.8715 -1.6571
 4811SOL     OW15331   4.736   4.871   4.306  0.4163  0.0735  0.4422
 4811SOL    HW115332   4.754   4.778   4.275  0.0422 -0.1442  0.8640
 4811SOL    HW215333   4.791   4.891   4.387 -0.7922 -0.4133  1.4230
 4812SOL     OW15334   6.250   4.448   1.252 -0.3540  0.1056  0.1146
 4812SOL    HW115335   6.311   4.527   1.259 -0.7083  0.5545 -1.4242
 4812SOL    HW215336   6.162   4.469   1.294 -0.3468  0.4295 -0.0318
 4813SOL     OW15337   0.060   3.204   2.284  0.7227 -0.2091  0.2942
 4813SOL    HW115338   0.104   3.286   2.320  1.1736 -1.1890  2.0907
 4813SOL    HW215339   0.099   3.181   2.195  2.3033  0.1855  0.8605
 4814SOL     OW15340   6.705   1.518   3.683 -0.0700  0.5414 -0.4958
 4814SOL    HW115341   6.682   1.422   3.702 -4.5539  1.5796  0.5343
 4814SOL    HW215342   6.750   1.557   3.764  0.1506 -0.2480 -0.2241
 4815SOL     OW15343   4.190   1.918   3.066  0.0284  0.4004 -0.2260
 4815SOL    HW115344   4.120   1.847   3.069  1.4332 -1.0099  1.4959
 4815SOL    HW215345   4.230   1.929   3.157  0.1705  3.1375 -0.5459
 4816SOL     OW15346   5.390   6.547   4.022 -0.2837 -0.2554 -1.1066
 4816SOL    HW115347   5.422   6.636   4.054 -0.7681 -1.0556  1.8751
 4816SOL    HW215348   5.467   6.492   3.992  0.6468 -0.3921  1.3201
 4817SOL     OW15349   5.436   1.120   1.997  0.4800  0.4192 -0.2517
 4817SOL    HW115350   5.441   1.133   1.898  0.7524 -1.4949 -0.5265
 4817SOL    HW215351   5.525   1.092   2.032  0.1274  0.0212  0.3519
 4818SOL     OW15352   0.725   6.063   2.918 -0.4309  0.1055 -0.5893
 4818SOL    HW115353   0.726   6.026   3.011  0.3767  1.1929 -0.1393
 4818SOL    HW215354   0.711   6.162   2.922  0.3008  0.2656 -1.5738
 4819SOL     OW15355   0.543   1.991   1.015  0.1001 -0.0944  0.6300
 4819SOL    HW115356   0.617   1.961   1.075 -0.2750 -2.5316 -0.0364
 4819SOL    HW215357   0.581   2.049   0.942  1.0042  0.4430  1.5095
 4820SOL     OW15358   5.344   4.345   2.066  0.1998  0.4866 -0.4407
 4820SOL    HW115359   5.432   4.373   2.105  0.0990  0.1033  0.0700
 4820SOL    HW215360   5.323   4.251   2.095  0.2904  0.0529 -1.7083
 4821SOL     OW15361   0.503   2.400   2.548  0.0512  0.3656  0.5425
 4821SOL    HW115362   0.524   2.479   2.605  0.0574 -0.3134  1.5101
 4821SOL    HW215363   0.584   2.343   2.539  1.4755  2.6048 -3.8502
 4822SOL     OW15364   1.517   4.783   4.604  0.0147  0.1274 -0.1939
 4822SOL    HW115365   1.457   4.703   4.603 -0.3328  0.3448  1.2848
 4822SOL    HW215366   1.592   4.768   4.668  0.3949  0.6808 -0.4997
 4823SOL     OW15367   2.711   3.123   1.704 -0.1595  0.4887 -0.3263
 4823SOL    HW115368   2.658   3.206   1.691 -0.6514  0.4077  1.0046
 4823SOL    HW215369   2.765   3.130   1.788  0.6280 -0.1148 -0.7597
 4824SOL     OW15370   6.208   1.855   1.730  0.5001  0.0543 -0.6301
 4824SOL    HW115371   6.125   1.799   1.731  0.7058 -0.3049 -1.8565
 4824SOL    HW215372   6.245   1.861   1.822 -0.6586 -0.1240 -0.1306
 4825SOL     OW15373   1.008   6.636   3.170  0.0775 -0.1848 -0.2644
 4825SOL    HW115374   1.027   6.719   3.119 -2.5186 -0.1186 -1.2689
 4825SOL    HW215375   0.917   6.602   3.146  0.8222 -3.0171  0.5442
 4826SOL     OW15376   3.759   4.898   0.328 -0.3173  0.1724  0.0205
 4826SOL    HW115377   3.661   4.914   0.339 -0.6587 -0.8491 -1.2182
 4826SOL    HW215378   3.773   4.823   0.262  1.2788 -0.1140  0.6377
 4827SOL     OW15379   6.645   1.158   2.275  0.6500 -0.0903 -0.5482
 4827SOL    HW115380   6.680   1.075   2.231  0.0444 -0.9479  0.5224
 4827SOL    HW215381   6.562   1.136   2.327  1.3115  0.8562  0.9986
 4828SOL     OW15382   4.288   2.933   1.258 -0.1742 -0.5079  0.0874
 4828SOL    HW115383   4.204   2.925   1.311 -0.5756 -0.7914 -0.5879
 4828SOL    HW215384   4.366   2.937   1.321 -0.8023  2.0226  0.8576
 4829SOL     OW15385   3.693   5.171   4.768 -0.0175  0.9355  0.1387
 4829SOL    HW115386   3.685   5.211   4.677 -0.7317  1.8104  0.5701
 4829SOL    HW215387   3.619   5.104   4.781 -1.6859  2.8459  1.0521
 4830SOL     OW15388   1.286   0.167   2.858 -0.1112  0.1430  0.2845
 4830SOL    HW115389   1.275   0.109   2.777  0.2622  0.2346  0.1661
 4830SOL    HW215390   1.196   0.196   2.890 -0.2851 -0.2372  0.1532
 4831SOL     OW15391   2.887   4.935   5.689 -0.4437 -0.3464 -0.5356
 4831SOL    HW115392   2.962   4.961   5.627 -0.4947  1.4284  0.0939
 4831SOL    HW215393   2.911   4.850   5.736  1.4172  0.4239  0.0129
 4832SOL     OW15394   3.971   3.656   2.055  0.5876 -0.6505 -0.7637
 4832SOL    HW115395   3.978   3.755   2.045 -1.2518 -0.6311 -2.3863
 4832SOL    HW215396   3.986   3.631   2.151 -1.2070  1.4667  0.1464
 4833SOL     OW15397   5.770   1.317   6.383  0.0662 -0.7211  0.3782
 4833SOL    HW115398   5.740   1.375   6.308 -1.9718 -1.0657  0.8643
 4833SOL    HW215399   5.834   1.248   6.349 -0.3660 -0.5127 -0.9134
 4834SOL     OW15400   2.057   4.094   0.805  0.2499  0.1368 -0.1775
 4834SOL    HW115401   1.979   4.045   0.844  1.8665 -0.7241  2.2267
 4834SOL    HW215402   2.141   4.043   0.822  1.6824  2.3637 -0.1030
 4835SOL     OW15403   6.154   2.355   5.053  0.1466 -0.0030  0.5316
 4835SOL    HW115404   6.173   2.338   5.150  0.8305  0.4128  0.4778
 4835SOL    HW215405   6.148   2.267   5.005 -0.7143 -0.2294  1.0369
 4836SOL     OW15406   2.816   0.459   6.196  0.0320  0.8759 -0.3931
 4836SOL    HW115407   2.850   0.441   6.104 -0.3267  1.2052 -0.5954
 4836SOL    HW215408   2.751   0.388   6.222  1.6613 -0.3794  0.4287
 4837SOL     OW15409   1.153   5.193   2.238  0.8926 -1.0570  0.1143
 4837SOL    HW115410   1.067   5.171   2.194  0.3713 -1.6627  1.3898
 4837SOL    HW215411   1.175   5.289   2.221 -0.4680 -0.6609  0.4615
 4838SOL     OW15412   0.440   4.739   5.885 -0.1384 -0.4383  0.0531
 4838SOL    HW115413   0.403   4.655   5.845  0.6966 -0.8378  0.1058
 4838SOL    HW215414   0.479   4.720   5.975  0.4021 -0.0743 -0.0987
 4839SOL     OW15415   1.366   6.810   1.620 -0.0209  0.2560 -0.8410
 4839SOL    HW115416   1.393   6.716   1.599  2.5937  0.8193 -0.4222
 4839SOL    HW215417   1.355   6.862   1.536 -0.5525 -0.1934 -1.0511
 4840SOL     OW15418   4.489   1.151   4.351  0.2232  0.3584 -0.2518
 4840SOL    HW115419   4.492   1.111   4.443  0.8332 -1.5127 -1.0281
 4840SOL    HW215420   4.575   1.197   4.332  0.3986  0.0759 -0.1514
 4841SOL     OW15421   3.406   6.247   3.864  0.3026  0.0885  0.0753
 4841SOL    HW115422   3.369   6.187   3.935 -0.0292  0.1385 -0.0492
 4841SOL    HW215423   3.332   6.305   3.829 -0.3802 -2.0837 -2.5048
 4842SOL     OW15424   6.043   4.939   2.926 -0.0767 -0.2480  0.3380
 4842SOL    HW115425   5.993   4.855   2.908  0.6183 -0.6738  0.3609
 4842SOL    HW215426   6.131   4.917   2.968  0.8386  0.3737 -1.1657
 4843SOL     OW15427   6.035   2.882   1.413  0.9237  0.1199 -0.0027
 4843SOL    HW115428   6.006   2.907   1.321 -1.2431  0.2363  0.6733
 4843SOL    HW215429   5.957   2.885   1.475  2.0995 -1.1005  1.6224
 4844SOL     OW15430   6.098   4.841   0.812 -0.0230 -0.1944 -0.1963
 4844SOL    HW115431   6.153   4.764   0.781 -0.5082 -0.9587  0.8107
 4844SOL    HW215432   6.157   4.905   0.863  0.3522  0.0520 -0.9257
 4845SOL     OW15433   6.719   4.675   6.606  0.5671  0.1352 -0.3946
 4845SOL    HW115434   6.710   4.583   6.645 -5.6605  0.4775  0.0126
 4845SOL    HW215435   6.689   4.674   6.510  1.7002  1.6248 -0.8128
 4846SOL     OW15436   0.975   4.513   5.210 -0.1608 -0.6106 -0.1212
 4846SOL    HW115437   1.008   4.607   5.211 -1.7935  0.0835 -2.4505
 4846SOL    HW215438   0.994   4.472   5.120  1.5335 -2.9583  1.2027
 4847SOL     OW15439   1.227   1.080   6.448  0.4025  0.1850  0.6304
 4847SOL    HW115440   1.288   1.072   6.527 -0.0261 -0.7899  0.8678
 4847SOL    HW215441   1.268   1.032   6.370  0.7086  0.9359  0.3191
 4848SOL     OW15442   2.637   0.026   2.574  0.4795  0.1379  0.1446
 4848SOL    HW115443   2.731   0.058   2.564  0.0006  1.3899 -0.6216
 4848SOL    HW215444   2.629  -0.066   2.536  0.9451  0.8613 -1.8160
 4849SOL     OW15445   6.436   6.369   1.571 -0.5936  0.6424  0.2329
 4849SOL    HW115446   6.476   6.412   1.490  1.6022  0.9310  1.3820
 4849SOL    HW215447   6.362   6.427   1.606  1.3384  2.8681  0.9174
 4850SOL     OW15448   3.042   0.338   1.267 -0.4267  0.3574  0.2209
 4850SOL    HW115449   3.006   0.273   1.333  0.2185  0.8389  1.0741
 4850SOL    HW215450   3.014   0.431   1.293 -2.3030  0.3989 -1.5975
 4851SOL     OW15451   3.712   4.190   6.004 -0.1915 -0.6613  0.3684
 4851SOL    HW115452   3.804   4.174   5.971 -0.1093  0.1379  0.1688
 4851SOL    HW215453   3.714   4.215   6.101 -0.2340 -0.9883  0.4545
 4852SOL     OW15454   3.612   3.584   5.857 -0.2886  0.6067  0.1056
 4852SOL    HW115455   3.673   3.506   5.843  0.8682  0.8756  2.8802
 4852SOL    HW215456   3.660   3.668   5.832 -0.0437  0.6949  0.8328
 4853SOL     OW15457   4.615   0.140   1.566 -0.6215 -0.1133  0.1215
 4853SOL    HW115458   4.567   0.227   1.555  0.1507  0.2474 -0.5252
 4853SOL    HW215459   4.558   0.076   1.618 -1.0655  0.8821  0.8908
 4854SOL     OW15460   4.341   6.078   1.505 -0.6796 -0.0223 -0.9663
 4854SOL    HW115461   4.374   6.029   1.424 -0.1618  0.6490 -1.1684
 4854SOL    HW215462   4.324   6.013   1.578 -0.1362 -0.5238 -1.2765
 4855SOL     OW15463   4.122   4.041   6.819 -0.3691  0.0951  0.2158
 4855SOL    HW115464   4.146   3.944   6.806  0.2659  0.1789  0.7525
 4855SOL    HW215465   4.023   4.049   6.830 -0.8758 -0.1256 -3.2198
 4856SOL     OW15466   0.072   1.173   1.305  0.1740  0.8222  0.5433
 4856SOL    HW115467   0.125   1.199   1.386  0.3742  1.7171  0.1380
 4856SOL    HW215468   0.065   1.252   1.244  2.4876 -0.5717 -1.7074
 4857SOL     OW15469   3.559   1.014   0.325  0.8736  0.1172  0.0364
 4857SOL    HW115470   3.567   1.086   0.394 -0.5202 -0.3475  0.7231
 4857SOL    HW215471   3.650   0.980   0.301  1.3635 -0.2104  2.1964
 4858SOL     OW15472   4.506   5.818   3.215 -0.0791  0.2209  0.0410
 4858SOL    HW115473   4.565   5.743   3.184 -0.4236  0.2672 -0.7511
 4858SOL    HW215474   4.511   5.893   3.149 -2.2234 -0.3814 -0.8946
 4859SOL     OW15475   0.127   5.528   3.210 -0.2650 -0.2371 -0.7462
 4859SOL    HW115476   0.027   5.533   3.219 -0.2058  0.5499 -0.4279
 4859SOL    HW215477   0.169   5.590   3.276  0.4890 -1.6074  0.0916
 4860SOL     OW15478   2.205   0.589   0.697  0.3323  0.6468  0.5871
 4860SOL    HW115479   2.117   0.590   0.650 -0.4141 -0.6366  1.8442
 4860SOL    HW215480   2.229   0.681   0.725 -0.1092  1.1594 -0.6453
 4861SOL     OW15481   5.189   4.795   4.422  0.7029 -0.5252 -0.8721
 4861SOL    HW115482   5.170   4.757   4.331  0.4621  0.9837 -1.4709
 4861SOL    HW215483   5.250   4.873   4.414 -0.1326  0.2657  0.1631
 4862SOL     OW15484   0.296   3.506   3.198 -0.2643  0.0610  0.3874
 4862SOL    HW115485   0.274   3.409   3.198 -2.2907  0.4574 -0.0616
 4862SOL    HW215486   0.353   3.528   3.119 -1.5573 -0.4552 -0.7268
 4863SOL     OW15487   6.281   2.379   2.298  0.1949  0.2045  0.2903
 4863SOL    HW115488   6.315   2.410   2.387  1.0239  0.4630 -0.1062
 4863SOL    HW215489   6.253   2.283   2.305  0.3153  0.2008  0.8068
 4864SOL     OW15490   1.403   3.108   1.660  0.0534  0.0054  0.4451
 4864SOL    HW115491   1.470   3.126   1.732  1.3044 -0.4321 -0.5750
 4864SOL    HW215492   1.386   3.010   1.655  1.5941 -0.2134 -1.2221
 4865SOL     OW15493   3.928   0.522   5.139 -0.4001 -0.1922 -0.3404
 4865SOL    HW115494   4.013   0.515   5.190 -0.7174  4.3428  1.2779
 4865SOL    HW215495   3.851   0.530   5.203 -1.3225  1.4949 -1.5700
 4866SOL     OW15496   6.377   5.393   1.925  0.7910 -0.1365  0.3596
 4866SOL    HW115497   6.356   5.477   1.874 -0.3210 -0.5744  0.0734
 4866SOL    HW215498   6.317   5.387   2.004 -1.5442 -2.3053 -1.4414
 4867SOL     OW15499   3.662   3.441   6.571  0.0921  0.3551  0.2767
 4867SOL    HW115500   3.661   3.341   6.559  0.2277  0.4659 -0.7959
 4867SOL    HW215501   3.632   3.484   6.486  0.2550  1.2423  0.6628
 4868SOL     OW15502   1.092   5.740   0.427  0.1897 -0.4120  0.5920
 4868SOL    HW115503   1.044   5.713   0.343  0.5969 -0.3008  0.3191
 4868SOL    HW215504   1.028   5.737   0.504 -0.3396  0.0618  0.1810
 4869SOL     OW15505   5.472   0.481   1.202 -0.3394 -0.0915  0.4727
 4869SOL    HW115506   5.438   0.559   1.149  0.9382 -0.4375 -0.9304
 4869SOL    HW215507   5.571   0.475   1.192 -0.5466 -2.9761 -1.0508
 4870SOL     OW15508   6.214   6.672   6.965 -0.0779 -0.1001 -0.1733
 4870SOL    HW115509   6.294   6.714   7.008  1.5966 -2.5132 -0.7219
 4870SOL    HW215510   6.225   6.674   6.865 -1.8483  1.5675 -0.3793
 4871SOL     OW15511   6.976   1.686   0.217  0.4578 -0.2922  0.1906
 4871SOL    HW115512   6.949   1.782   0.228 -2.6865 -1.1211  0.5254
 4871SOL    HW215513   6.959   1.657   0.123  1.9195 -0.4242 -0.0587
 4872SOL     OW15514   1.345   2.426   3.462  0.6210 -0.2309  0.2594
 4872SOL    HW115515   1.375   2.466   3.548  0.5428 -0.6182  0.4672
 4872SOL    HW215516   1.373   2.485   3.386  0.3318  0.3199  0.5763
 4873SOL     OW15517   1.807   5.986   3.968 -0.1233  0.0719 -0.0437
 4873SOL    HW115518   1.711   5.998   3.994 -0.1737  2.3473 -1.0574
 4873SOL    HW215519   1.815   5.990   3.869  1.1268  0.8817  0.0774
 4874SOL     OW15520   6.695   2.588   4.292 -0.1927 -0.3406  0.3467
 4874SOL    HW115521   6.598   2.568   4.304 -0.0147 -0.1570  2.5306
 4874SOL    HW215522   6.743   2.570   4.377  1.3204  1.6995 -0.0066
 4875SOL     OW15523   5.377   1.863   2.534 -0.4469 -0.0983  0.0675
 4875SOL    HW115524   5.354   1.959   2.542 -0.2350 -0.0466  0.0673
 4875SOL    HW215525   5.460   1.853   2.480  0.0387 -0.2213  0.8213
 4876SOL     OW15526   6.574   2.375   6.647  0.4954 -0.8490  0.2353
 4876SOL    HW115527   6.486   2.376   6.599  1.1583 -0.9293 -1.0324
 4876SOL    HW215528   6.591   2.465   6.688  0.1487 -0.6105 -0.1428
 4877SOL     OW15529   5.569   2.687   1.613  0.2171  0.4431 -0.3993
 4877SOL    HW115530   5.528   2.655   1.528  0.6430 -1.1766 -0.0145
 4877SOL    HW215531   5.526   2.774   1.639  0.4461  1.2546 -2.5100
 4878SOL     OW15532   1.507   2.193   4.954 -0.0070  0.5600  0.3893
 4878SOL    HW115533   1.513   2.246   4.869  0.5724 -0.8931 -0.5238
 4878SOL    HW215534   1.499   2.255   5.032  0.1600  1.9564 -0.6678
 4879SOL     OW15535   4.676   5.166   4.422  0.2712  0.6969 -0.5101
 4879SOL    HW115536   4.687   5.075   4.384  2.4051  1.0046 -0.7241
 4879SOL    HW215537   4.588   5.204   4.393 -0.1956 -0.8816 -1.2486
 4880SOL     OW15538   5.380   6.698   5.375 -0.3408 -0.3406  0.5255
 4880SOL    HW115539   5.286   6.679   5.347 -0.3024  1.4255 -1.0178
 4880SOL    HW215540   5.384   6.784   5.425  0.4799 -0.2206  0.2829
 4881SOL     OW15541   1.440   1.347   5.945 -0.2436 -0.9053  0.4140
 4881SOL    HW115542   1.503   1.285   5.898 -0.4472 -1.5403  0.9572
 4881SOL    HW215543   1.355   1.355   5.893 -1.2537 -3.1333  1.5424
 4882SOL     OW15544   4.692   5.613   0.906  0.2289 -0.4497  0.2299
 4882SOL    HW115545   4.748   5.545   0.859  0.9260  0.6875 -0.6304
 4882SOL    HW215546   4.733   5.704   0.896 -0.8776  0.1718  1.0311
 4883SOL     OW15547   4.817   5.346   1.262 -0.3530  0.5506 -0.4770
 4883SOL    HW115548   4.867   5.429   1.239  0.0890 -0.1903 -2.3449
 4883SOL    HW215549   4.748   5.327   1.192  0.6072 -1.4768 -0.9702
 4884SOL     OW15550   5.480   5.564   1.771 -0.4099  0.6764  0.0850
 4884SOL    HW115551   5.416   5.520   1.708 -0.0450 -1.1646  0.9281
 4884SOL    HW215552   5.430   5.627   1.830 -0.9934  1.2542 -0.9897
 4885SOL     OW15553   0.628   5.859   1.804 -0.0673  0.1476 -0.0168
 4885SOL    HW115554   0.574   5.824   1.880  0.9751 -1.1637  0.1501
 4885SOL    HW215555   0.661   5.951   1.826 -1.7925  0.7873  0.0600
 4886SOL     OW15556   5.494   6.033   6.687  0.5182 -0.4709 -0.0642
 4886SOL    HW115557   5.583   5.988   6.676  0.3570 -1.1289  1.1062
 4886SOL    HW215558   5.424   5.963   6.702  0.0288  0.1081  0.3809
 4887SOL     OW15559   1.162   2.803   6.022  0.1182 -0.0761 -0.1289
 4887SOL    HW115560   1.186   2.774   5.930  0.6698 -1.5097  0.4340
 4887SOL    HW215561   1.157   2.723   6.082  1.9785  0.9778  1.5866
 4888SOL     OW15562   5.739   6.796   0.879  0.3641  0.3441  0.0438
 4888SOL    HW115563   5.815   6.844   0.924  1.2470  0.5530 -1.5928
 4888SOL    HW215564   5.760   6.783   0.782 -1.6549  0.2944 -0.4388
 4889SOL     OW15565   0.665   3.025   5.791 -0.1824 -0.6546  0.1039
 4889SOL    HW115566   0.664   3.105   5.851 -0.3945 -0.5850  0.0089
 4889SOL    HW215567   0.726   2.955   5.829 -0.1857 -0.5433  0.3132
 4890SOL     OW15568   6.288   0.301   2.626  0.5230  0.3016 -0.3670
 4890SOL    HW115569   6.276   0.347   2.714  0.6784 -1.0727  0.4022
 4890SOL    HW215570   6.246   0.210   2.630  0.4955  0.2383 -1.7364
 4891SOL     OW15571   7.003   3.919   0.844  0.0104 -0.2232  0.1787
 4891SOL    HW115572   7.043   3.837   0.886 -0.1251 -0.2046  0.3462
 4891SOL    HW215573   6.942   3.891   0.770 -1.4695 -0.3894  1.4102
 4892SOL     OW15574   2.309   5.069   0.477 -0.0521  0.3342  0.1802
 4892SOL    HW115575   2.274   5.086   0.385  0.6722  0.3244 -0.1067
 4892SOL    HW215576   2.336   4.973   0.485 -0.9387  0.1212  0.6934
 4893SOL     OW15577   0.191   4.631   6.711  0.0381  0.1263 -0.0204
 4893SOL    HW115578   0.147   4.706   6.660  0.8447  2.0241  1.9204
 4893SOL    HW215579   0.121   4.570   6.748 -0.9490  2.0713  1.4962
 4894SOL     OW15580   6.125   1.195   4.182  0.6796 -0.0006 -0.2058
 4894SOL    HW115581   6.133   1.181   4.083  1.3820  0.0366 -0.1560
 4894SOL    HW215582   6.033   1.229   4.203  0.3898 -0.3950 -0.7978
 4895SOL     OW15583   6.478   4.495   5.068 -0.0488  0.0372  0.3496
 4895SOL    HW115584   6.403   4.436   5.037 -0.2029 -0.0434  0.8640
 4895SOL    HW215585   6.554   4.438   5.100  0.0238  0.1184  0.3206
 4896SOL     OW15586   5.378   1.458   5.590 -0.3337 -0.4268 -0.1129
 4896SOL    HW115587   5.424   1.534   5.636 -3.8212  2.2474 -0.5455
 4896SOL    HW215588   5.307   1.421   5.651 -0.4787 -1.5228 -0.9178
 4897SOL     OW15589   2.103   6.067   6.230  0.1846  0.2760  0.7500
 4897SOL    HW115590   2.140   5.988   6.180 -1.0689  0.6246 -0.8282
 4897SOL    HW215591   2.030   6.036   6.291  0.4048  0.0922  0.9245
 4898SOL     OW15592   4.563   2.284   5.781  0.1737 -0.1146 -0.9266
 4898SOL    HW115593   4.485   2.225   5.760 -0.1106  0.6090 -1.9707
 4898SOL    HW215594   4.601   2.259   5.870  0.9416 -2.8159 -1.9229
 4899SOL     OW15595   2.256   4.691   2.679  0.1065  0.9278  0.6099
 4899SOL    HW115596   2.276   4.605   2.632  1.5787  1.2694  0.5833
 4899SOL    HW215597   2.157   4.697   2.695 -0.1252 -0.3617 -0.1525
 4900SOL     OW15598   1.554   6.210   4.670 -0.7351  0.2178  0.4246
 4900SOL    HW115599   1.564   6.131   4.610 -0.4968 -0.0985  0.8833
 4900SOL    HW215600   1.548   6.293   4.614 -0.1632 -0.0388 -0.0280
 4901SOL     OW15601   0.143   6.490   3.431 -0.0392  0.0884 -0.3881
 4901SOL    HW115602   0.138   6.401   3.477  0.9351  1.3214  2.2710
 4901SOL    HW215603   0.238   6.519   3.425 -0.1890  0.2916 -2.7357
 4902SOL     OW15604   4.013   5.760   1.175 -0.1323 -0.3072 -0.5444
 4902SOL    HW115605   4.094   5.810   1.149  0.2614 -0.1682  0.8462
 4902SOL    HW215606   3.953   5.819   1.229 -0.3240 -0.9104 -0.0828
 4903SOL     OW15607   5.475   4.001   6.506 -0.5463 -0.1933  0.2301
 4903SOL    HW115608   5.462   3.903   6.494 -0.2431  0.0496 -2.9745
 4903SOL    HW215609   5.524   4.019   6.592 -0.4089 -2.8261  0.7658
 4904SOL     OW15610   3.462   1.386   3.333 -0.2453  0.5130  0.3068
 4904SOL    HW115611   3.444   1.478   3.301 -0.1406  1.5965  3.1081
 4904SOL    HW215612   3.376   1.337   3.347 -0.3524  0.6156  0.0083
 4905SOL     OW15613   4.774   2.730   1.938  0.1149 -0.1026 -0.1624
 4905SOL    HW115614   4.776   2.829   1.936 -3.8258  0.1241 -1.7290
 4905SOL    HW215615   4.758   2.699   2.032 -0.7865  0.9137  0.0396
 4906SOL     OW15616   5.269   0.635   1.540 -0.4223  0.1413  0.2809
 4906SOL    HW115617   5.326   0.696   1.594 -0.4392  0.9623 -0.6012
 4906SOL    HW215618   5.173   0.650   1.563 -0.3955  0.0668  0.4436
 4907SOL     OW15619   2.934   3.540   6.229 -0.1240  0.4595  0.0965
 4907SOL    HW115620   2.899   3.609   6.165 -1.4589  0.0468  0.3648
 4907SOL    HW215621   2.987   3.472   6.179 -0.3684  0.6556 -0.4382
 4908SOL     OW15622   5.489   1.288   5.416 -0.7092  0.3564  0.4287
 4908SOL    HW115623   5.456   1.350   5.487  0.3987 -1.4214  2.6242
 4908SOL    HW215624   5.492   1.195   5.453  1.3750 -0.4055 -1.4715
 4909SOL     OW15625   6.150   6.218   6.116 -0.2313 -0.2873  0.1350
 4909SOL    HW115626   6.160   6.282   6.193  0.0486 -0.1160 -0.0394
 4909SOL    HW215627   6.081   6.252   6.053  0.2730  0.1092 -0.2146
 4910SOL     OW15628   0.736   0.062   6.343  0.0717  0.7026  0.1175
 4910SOL    HW115629   0.649   0.051   6.391  0.6684  0.9262  1.3145
 4910SOL    HW215630   0.764   0.158   6.348 -0.9025  1.2095 -2.6412
 4911SOL     OW15631   5.844   3.677   0.418  0.6820 -0.4934 -0.3680
 4911SOL    HW115632   5.856   3.681   0.319 -1.5946 -0.8813 -0.7158
 4911SOL    HW215633   5.822   3.768   0.453 -2.6446 -0.9479 -0.9287
 4912SOL     OW15634   2.170   3.926   4.164  0.3169  0.4036 -0.6335
 4912SOL    HW115635   2.125   4.009   4.129 -0.5642  0.0852 -0.2771
 4912SOL    HW215636   2.136   3.846   4.114 -1.3493 -0.1225  1.2295
 4913SOL     OW15637   2.115   4.207   1.151  0.4841  0.2687  0.1333
 4913SOL    HW115638   2.067   4.285   1.112  1.4120  2.2578  2.7008
 4913SOL    HW215639   2.048   4.139   1.182 -0.3305 -0.1221 -2.2353
 4914SOL     OW15640   2.767   0.930   3.647  0.3788 -0.1925  0.1522
 4914SOL    HW115641   2.850   0.983   3.630  0.1103 -0.4379 -2.3546
 4914SOL    HW215642   2.776   0.840   3.605 -1.7890  0.4304 -1.8866
 4915SOL     OW15643   0.883   1.014   3.989 -0.5876 -0.1794  0.0025
 4915SOL    HW115644   0.882   0.965   4.076  1.1008 -0.0857  0.1002
 4915SOL    HW215645   0.977   1.028   3.959 -1.1144  0.5641 -1.4153
 4916SOL     OW15646   2.217   0.725   2.448 -0.5521  0.2097  0.1776
 4916SOL    HW115647   2.130   0.760   2.483 -1.4714 -0.1186 -1.6604
 4916SOL    HW215648   2.238   0.638   2.492 -1.6953 -0.2107 -0.0657
 4917SOL     OW15649   0.899   6.522   5.154 -0.5334  0.0683 -0.1266
 4917SOL    HW115650   0.842   6.594   5.193 -0.1199 -0.5472  1.7159
 4917SOL    HW215651   0.976   6.504   5.216 -1.4379 -2.9655  0.2707
 4918SOL     OW15652   2.038   5.001   3.011  0.5683 -0.6108  0.4516
 4918SOL    HW115653   2.056   5.099   3.000 -0.4217 -0.3273  1.1831
 4918SOL    HW215654   1.948   4.980   2.973  0.7334 -1.2219  0.3970
 4919SOL     OW15655   2.386   3.860   1.690 -0.9226  0.0515 -0.2784
 4919SOL    HW115656   2.362   3.764   1.705 -1.5748  0.4487  1.4907
 4919SOL    HW215657   2.334   3.896   1.613 -1.8685 -0.6012  0.0406
 4920SOL     OW15658   4.967   5.022   6.296 -0.3290  0.0416 -0.0003
 4920SOL    HW115659   4.928   4.933   6.320 -1.7080  1.0063  1.4714
 4920SOL    HW215660   4.952   5.087   6.370  0.3168  1.6266 -1.1969
 4921SOL     OW15661   0.471   3.346   1.450 -0.1810  0.0444 -0.1824
 4921SOL    HW115662   0.558   3.357   1.402 -0.4412 -0.1896 -0.7159
 4921SOL    HW215663   0.488   3.323   1.545  0.3444  1.3832  0.0624
 4922SOL     OW15664   6.685   4.895   6.135 -0.0187  0.0111  0.3295
 4922SOL    HW115665   6.624   4.904   6.214  0.3751  0.3753  0.5988
 4922SOL    HW215666   6.689   4.982   6.086 -2.4934 -0.9489 -1.7914
 4923SOL     OW15667   5.242   2.362   0.158  0.1731 -0.4657  0.2554
 4923SOL    HW115668   5.228   2.263   0.159 -1.7529 -0.2330  0.0314
 4923SOL    HW215669   5.162   2.407   0.199  0.8381  1.0136 -0.0286
 4924SOL     OW15670   0.815   2.555   4.993  0.3531  0.0705  0.1910
 4924SOL    HW115671   0.719   2.580   5.008  0.1351 -0.5571 -0.1137
 4924SOL    HW215672   0.874   2.626   5.032 -0.1911 -0.5751  2.3247
 4925SOL     OW15673   4.906   5.750   4.481  0.3059  0.3369 -0.6886
 4925SOL    HW115674   4.992   5.750   4.430  0.8693 -2.6358  0.1011
 4925SOL    HW215675   4.919   5.797   4.568  0.7946  0.9038 -1.0600
 4926SOL     OW15676   5.232   3.092   1.820  0.2767  0.0109 -0.1171
 4926SOL    HW115677   5.218   3.167   1.884 -1.4880  1.2055 -1.8016
 4926SOL    HW215678   5.294   3.121   1.747 -0.5617 -0.0807 -0.8809
 4927SOL     OW15679   4.360   4.734   2.702  0.5601  0.2429  0.3408
 4927SOL    HW115680   4.419   4.670   2.654  2.0759  1.2971  0.7331
 4927SOL    HW215681   4.382   4.734   2.799  0.6234  1.3932  0.3378
 4928SOL     OW15682   5.417   0.730   0.269  0.1322 -0.1550  0.1883
 4928SOL    HW115683   5.473   0.788   0.328  0.3843 -0.8636  0.6695
 4928SOL    HW215684   5.450   0.635   0.275 -1.7132 -0.7872  1.2664
 4929SOL     OW15685   0.926   3.767   3.963 -0.4920 -0.3328  0.3055
 4929SOL    HW115686   0.996   3.776   3.892 -0.0649 -0.1882  0.7414
 4929SOL    HW215687   0.945   3.686   4.018 -0.3208  0.0402  0.8019
 4930SOL     OW15688   0.854   1.295   1.219  0.2686  0.1557 -0.5832
 4930SOL    HW115689   0.882   1.307   1.315  0.7577  0.5056 -0.7644
 4930SOL    HW215690   0.916   1.346   1.160  1.5527 -2.1241 -1.3041
 4931SOL     OW15691   5.430   6.495   2.329  0.1340 -0.0664 -0.2973
 4931SOL    HW115692   5.390   6.448   2.408  1.2457  1.4308  1.2321
 4931SOL    HW215693   5.497   6.434   2.284 -0.8547 -1.1018 -0.4192
 4932SOL     OW15694   2.571   2.385   0.027  0.1862 -0.2655  0.0782
 4932SOL    HW115695   2.509   2.337  -0.036  0.9462 -1.2779  0.0859
 4932SOL    HW215696   2.559   2.348   0.120  1.7031 -1.4186 -0.1387
 4933SOL     OW15697   2.217   6.862   3.872 -0.4546 -0.2265  0.0573
 4933SOL    HW115698   2.261   6.794   3.931 -0.3416  0.8858  1.3167
 4933SOL    HW215699   2.287   6.919   3.829 -0.5658 -0.4453 -0.4080
 4934SOL     OW15700   1.205   6.596   4.827 -0.5415  0.1574 -0.3946
 4934SOL    HW115701   1.170   6.689   4.823  0.7336  0.7263  0.9896
 4934SOL    HW215702   1.133   6.535   4.860 -0.6647  1.0741  1.1066
 4935SOL     OW15703   2.422   1.567   1.583 -0.7654  0.4085  0.7217
 4935SOL    HW115704   2.423   1.514   1.498 -3.4407 -1.9146  1.9481
 4935SOL    HW215705   2.385   1.658   1.565 -0.9904  0.0720 -0.6462
 4936SOL     OW15706   6.332   3.330   3.036  0.4991  0.2781 -0.0803
 4936SOL    HW115707   6.413   3.324   3.095 -0.8196  2.9039  2.2210
 4936SOL    HW215708   6.357   3.300   2.944  3.5280 -0.9383  0.9870
 4937SOL     OW15709   5.329   3.241   6.580  0.3909 -0.2012 -0.2781
 4937SOL    HW115710   5.424   3.265   6.601  0.6754 -0.1292 -1.5866
 4937SOL    HW215711   5.328   3.163   6.518 -0.4457 -0.9119  0.5988
 4938SOL     OW15712   2.155   3.356   0.463  0.1005 -0.5272 -0.1411
 4938SOL    HW115713   2.222   3.281   0.463 -0.6084 -1.2117 -1.5792
 4938SOL    HW215714   2.106   3.356   0.376  1.4679  2.9070 -1.0553
 4939SOL     OW15715   1.472   2.681   0.992  0.4457  0.6859  0.2437
 4939SOL    HW115716   1.484   2.751   0.922 -0.3790  1.7297  1.1108
 4939SOL    HW215717   1.481   2.722   1.082 -1.6243  0.0455  0.8077
 4940SOL     OW15718   1.536   2.008   6.505 -0.2717 -0.2278 -0.2465
 4940SOL    HW115719   1.497   2.100   6.516 -1.1503 -0.7893  1.9091
 4940SOL    HW215720   1.636   2.013   6.510 -0.1624  0.8085 -2.2611
 4941SOL     OW15721   4.142   0.248   6.794  0.2764 -0.3123 -1.1335
 4941SOL    HW115722   4.124   0.327   6.852 -0.2614 -0.7255 -0.7234
 4941SOL    HW215723   4.059   0.225   6.743  0.6677 -0.1111 -1.8760
 4942SOL     OW15724   0.098   0.864   1.658  0.3646 -0.4268  0.4945
 4942SOL    HW115725   0.004   0.859   1.690 -0.4769  2.6534 -1.1158
 4942SOL    HW215726   0.105   0.821   1.568  0.4168 -0.3000  0.4380
 4943SOL     OW15727   5.123   2.744   1.418  0.2319 -0.6746  0.3958
 4943SOL    HW115728   5.079   2.761   1.506 -0.9114  2.4302 -0.6373
 4943SOL    HW215729   5.054   2.723   1.349  0.7098  0.4276 -0.4511
 4944SOL     OW15730   1.144   4.770   0.024 -0.4604  1.0070  0.3794
 4944SOL    HW115731   1.107   4.852   0.068  0.2237  1.6771 -0.2606
 4944SOL    HW215732   1.177   4.706   0.093 -2.2274  0.6479  0.9504
 4945SOL     OW15733   0.778   2.087   5.265 -0.1719 -0.2406 -0.2776
 4945SOL    HW115734   0.793   2.185   5.253 -0.7902  0.0080  0.8713
 4945SOL    HW215735   0.755   2.046   5.177  0.3692  0.5830 -0.8214
 4946SOL     OW15736   1.829   0.232   6.158 -0.1519  0.2087  0.4549
 4946SOL    HW115737   1.854   0.292   6.234 -1.2348 -0.4387  1.3566
 4946SOL    HW215738   1.905   0.226   6.093  0.2512  1.9190  0.7331
 4947SOL     OW15739   1.570   6.435   1.036 -0.1158 -0.2881  0.0911
 4947SOL    HW115740   1.528   6.476   0.955 -0.1576 -0.1545  0.1804
 4947SOL    HW215741   1.539   6.483   1.118  1.7540  1.1136  0.0217
 4948SOL     OW15742   1.730   0.603   1.704 -0.0172  0.4126  0.3581
 4948SOL    HW115743   1.688   0.692   1.686  1.5711  0.8218 -1.5421
 4948SOL    HW215744   1.765   0.602   1.798  1.5154  2.5032 -0.1114
 4949SOL     OW15745   0.699   6.576   5.906 -0.4377  0.6856  0.4990
 4949SOL    HW115746   0.753   6.523   5.970 -3.8093 -1.5123  1.8408
 4949SOL    HW215747   0.625   6.623   5.955 -2.1609  0.2482 -1.5150
 4950SOL     OW15748   3.618   0.807   5.412  0.1182  0.1695  0.0300
 4950SOL    HW115749   3.643   0.889   5.361 -0.6758  0.2071 -0.3094
 4950SOL    HW215750   3.531   0.822   5.459 -0.8684 -0.9936 -1.3263
 4951SOL     OW15751   5.137   6.154   3.599 -0.4285 -0.2980 -0.0127
 4951SOL    HW115752   5.140   6.172   3.501  3.3524  1.0036  0.1829
 4951SOL    HW215753   5.137   6.055   3.615  0.9259 -0.5490 -1.3831
 4952SOL     OW15754   7.012   2.068   6.342 -0.4351 -0.4681 -0.3400
 4952SOL    HW115755   6.930   2.036   6.294 -0.8322 -0.5053  0.3476
 4952SOL    HW215756   6.985   2.131   6.415  0.0729 -1.1864  0.4864
 4953SOL     OW15757   1.094   1.148   5.873  0.3165 -0.1063  0.0133
 4953SOL    HW115758   1.179   1.200   5.870  0.0918  0.2582 -0.1111
 4953SOL    HW215759   1.083   1.107   5.963 -0.1419  1.1491  0.5510
 4954SOL     OW15760   4.428   2.893   5.553 -0.3926 -0.5616 -0.7338
 4954SOL    HW115761   4.455   2.976   5.504 -0.2633  0.0320  0.3135
 4954SOL    HW215762   4.336   2.866   5.527 -0.6673  0.2680 -0.6298
 4955SOL     OW15763   2.435   0.004   0.023 -0.0770 -0.0540 -0.8099
 4955SOL    HW115764   2.367   0.069   0.056 -0.0392  0.1071 -1.0462
 4955SOL    HW215765   2.456   0.023  -0.073 -0.9828 -1.1807 -1.2550
 4956SOL     OW15766   1.001   5.999   2.098  0.0011  0.9704  0.9432
 4956SOL    HW115767   0.938   5.930   2.062  1.2734  1.4133 -2.5201
 4956SOL    HW215768   0.949   6.076   2.135 -1.8083  2.0541 -3.2108
 4957SOL     OW15769   0.100   5.104   6.170 -0.3377  0.2144  0.7887
 4957SOL    HW115770   0.152   5.152   6.100  1.1312 -0.3003  1.4857
 4957SOL    HW215771   0.068   5.016   6.134 -0.1780  0.2560  0.5462
 4958SOL     OW15772   2.540   3.218   6.182 -0.0669  0.3621  0.0988
 4958SOL    HW115773   2.554   3.233   6.280 -0.2200  1.1258  0.0148
 4958SOL    HW215774   2.442   3.214   6.163 -0.0396 -0.9409  0.1261
 4959SOL     OW15775   0.937   2.093   2.548 -0.3281 -0.5244  0.3497
 4959SOL    HW115776   0.956   2.121   2.642 -0.4022  1.5714 -0.2131
 4959SOL    HW215777   0.848   2.048   2.544 -0.4730 -0.3390  1.2274
 4960SOL     OW15778   4.770   4.111   4.335  0.1156 -0.1142  0.4221
 4960SOL    HW115779   4.739   4.167   4.412  0.4699 -0.6503  0.9628
 4960SOL    HW215780   4.838   4.044   4.367 -0.2712 -0.8318 -0.2072
 4961SOL     OW15781   3.736   3.345   2.055 -0.3014 -0.1449 -0.1117
 4961SOL    HW115782   3.822   3.379   2.015  0.7047  1.0286  2.7782
 4961SOL    HW215783   3.757   3.283   2.131 -1.9647  0.7124  1.1016
 4962SOL     OW15784   2.210   3.896   1.100 -0.1693  0.1418 -0.6204
 4962SOL    HW115785   2.265   3.852   1.170  2.7684  2.6577 -1.1074
 4962SOL    HW215786   2.151   3.965   1.142  1.5612  1.6234 -0.5078
 4963SOL     OW15787   0.241   4.010   5.509 -0.4218 -0.3006  0.0747
 4963SOL    HW115788   0.165   3.998   5.445 -0.7472 -0.2897  0.4533
 4963SOL    HW215789   0.258   4.108   5.522 -0.3304 -0.3028 -0.0190
 4964SOL     OW15790   0.559   5.371   2.294 -0.2363  0.1365  0.2475
 4964SOL    HW115791   0.484   5.346   2.354  1.1449  2.3332  3.1808
 4964SOL    HW215792   0.607   5.450   2.333  1.6291  0.8675 -3.1523
 4965SOL     OW15793   2.185   5.507   1.105 -0.0598 -0.1291 -0.4858
 4965SOL    HW115794   2.202   5.501   1.204  1.5285  0.8033 -0.6686
 4965SOL    HW215795   2.265   5.473   1.055 -0.9716 -0.8796 -1.4644
 4966SOL     OW15796   3.774   0.399   6.803  0.1537 -0.0197 -0.1941
 4966SOL    HW115797   3.691   0.374   6.853  0.8322 -2.1651 -0.0367
 4966SOL    HW215798   3.761   0.382   6.705  0.1331  0.4556 -0.2766
 4967SOL     OW15799   6.607   4.299   4.030  0.2302 -0.6736  0.3766
 4967SOL    HW115800   6.621   4.250   3.944  0.3110  1.5503 -0.9624
 4967SOL    HW215801   6.511   4.293   4.057  0.3903 -2.2083  0.7205
 4968SOL     OW15802   0.475   1.297   2.346  0.0550 -0.1077  0.4053
 4968SOL    HW115803   0.396   1.249   2.310  0.1390  1.4688 -2.2209
 4968SOL    HW215804   0.473   1.297   2.446 -2.0529 -1.9519  0.4255
 4969SOL     OW15805   1.920   6.514   3.712 -0.3066 -0.0020 -0.0830
 4969SOL    HW115806   1.888   6.591   3.658  0.3598  0.2481 -0.1363
 4969SOL    HW215807   1.851   6.442   3.713 -0.4549  0.1148 -1.0161
 4970SOL     OW15808   2.051   1.354   6.769  0.0122 -0.5684  0.2219
 4970SOL    HW115809   2.050   1.290   6.692 -0.2176 -1.1196  0.6737
 4970SOL    HW215810   1.990   1.320   6.841  1.2841 -0.7938  1.2295
 4971SOL     OW15811   6.867   0.241   6.882 -0.4303  0.1518  0.4040
 4971SOL    HW115812   6.901   0.308   6.948  0.2863  0.2827 -0.0834
 4971SOL    HW215813   6.786   0.196   6.919 -0.2553  0.4820  1.2122
 4972SOL     OW15814   0.335   3.862   0.336 -0.3655 -0.0730 -0.7276
 4972SOL    HW115815   0.400   3.814   0.395 -0.3759 -0.0494 -0.6966
 4972SOL    HW215816   0.382   3.895   0.254  0.2384  2.0620  0.3965
 4973SOL     OW15817   5.384   1.759   6.974  0.2016  0.3849 -0.2258
 4973SOL    HW115818   5.357   1.806   7.059  0.8391  0.3366  0.0059
 4973SOL    HW215819   5.341   1.805   6.896  0.0450  0.7643  0.0765
 4974SOL     OW15820   1.194   2.220   6.658 -0.4287 -0.4882 -0.2503
 4974SOL    HW115821   1.149   2.309   6.664 -1.3234 -0.9149 -0.4256
 4974SOL    HW215822   1.293   2.232   6.654 -0.4615  0.4300  1.1725
 4975SOL     OW15823   6.097   4.843   1.160 -0.0972  0.0535  0.0237
 4975SOL    HW115824   6.038   4.879   1.232 -0.5360 -0.6167  0.0143
 4975SOL    HW215825   6.111   4.913   1.090 -1.4938 -0.0016 -0.3421
 4976SOL     OW15826   2.136   0.274   2.080 -0.3501  0.4087 -0.7096
 4976SOL    HW115827   2.128   0.326   1.995 -2.0332  3.3349  1.0255
 4976SOL    HW215828   2.047   0.238   2.105  0.2752 -1.0347 -0.5040
 4977SOL     OW15829   1.994   2.708   5.546 -0.3639  0.2338  0.1791
 4977SOL    HW115830   2.013   2.806   5.549 -1.6254  0.4847  1.0076
 4977SOL    HW215831   2.074   2.657   5.579  0.3799  0.9526 -0.4739
 4978SOL     OW15832   0.337   6.030   4.726  0.3146  0.3162  0.4183
 4978SOL    HW115833   0.319   5.934   4.704 -1.8814  0.8051 -0.2676
 4978SOL    HW215834   0.258   6.068   4.775  0.9233  1.8872  0.2428
 4979SOL     OW15835   4.686   0.221   6.204  0.5229  0.0775  0.3622
 4979SOL    HW115836   4.710   0.302   6.259  1.6518 -1.3894  2.1683
 4979SOL    HW215837   4.766   0.193   6.151  0.3085 -0.1913  0.1828
 4980SOL     OW15838   4.842   3.452   3.421  0.1319  0.0257  0.2752
 4980SOL    HW115839   4.842   3.394   3.503 -0.5593 -0.2501  0.0928
 4980SOL    HW215840   4.796   3.403   3.346 -0.9638  1.0237  0.2735
 4981SOL     OW15841   3.581   6.630   2.253  0.2923 -0.4948 -0.9190
 4981SOL    HW115842   3.593   6.531   2.267 -0.1771 -0.5656 -1.0119
 4981SOL    HW215843   3.662   6.678   2.287 -1.3528 -0.5019  3.5559
 4982SOL     OW15844   3.290   1.441   4.246 -0.1854  0.2306  0.3375
 4982SOL    HW115845   3.389   1.452   4.248  0.0279 -0.0433 -2.8911
 4982SOL    HW215846   3.255   1.427   4.339  3.2936 -4.0974  1.2993
 4983SOL     OW15847   5.669   4.784   3.198  0.6303  0.8375  0.1033
 4983SOL    HW115848   5.627   4.772   3.109 -0.9419  1.8875  0.6755
 4983SOL    HW215849   5.741   4.854   3.193  2.5957 -1.1222 -0.9216
 4984SOL     OW15850   4.927   3.070   5.027 -0.7897  0.1595 -0.0643
 4984SOL    HW115851   4.840   3.021   5.032 -0.9065  0.4231  0.8249
 4984SOL    HW215852   4.912   3.166   5.048 -0.0005 -0.1855  2.4441
 4985SOL     OW15853   5.608   0.169   0.839  0.3077 -0.4840  0.1291
 4985SOL    HW115854   5.674   0.200   0.770  0.7167 -0.4832  0.5155
 4985SOL    HW215855   5.566   0.248   0.883  1.2119 -0.4570  0.9821
 4986SOL     OW15856   1.090   6.857   6.996 -0.1602  0.7466  0.5935
 4986SOL    HW115857   1.093   6.926   7.068  1.5760 -0.4409  1.7470
 4986SOL    HW215858   1.176   6.806   6.995 -0.4166  0.2650 -1.9002
 4987SOL     OW15859   2.178   5.473   6.852  0.5204 -0.1850  0.1758
 4987SOL    HW115860   2.171   5.375   6.869 -0.6204 -0.0547  0.5880
 4987SOL    HW215861   2.110   5.500   6.784  0.7089  0.3498  0.1917
 4988SOL     OW15862   1.255   4.315   3.430  0.4099 -0.4119 -0.7562
 4988SOL    HW115863   1.241   4.277   3.339 -0.2503 -1.7146 -0.1372
 4988SOL    HW215864   1.293   4.407   3.422 -1.7203  0.4010 -2.3871
 4989SOL     OW15865   6.023   0.313   6.619  0.5872 -0.1706 -0.4067
 4989SOL    HW115866   6.057   0.277   6.532  2.5507 -1.0724  0.6596
 4989SOL    HW215867   5.974   0.241   6.668 -0.0371  0.1737 -0.5195
 4990SOL     OW15868   5.492   0.182   5.544 -0.1920 -1.1123 -0.3817
 4990SOL    HW115869   5.417   0.212   5.603  0.4379 -0.7996  0.2711
 4990SOL    HW215870   5.556   0.258   5.530 -0.2581 -1.2243 -1.3520
 4991SOL     OW15871   1.946   5.098   2.650 -0.0055  0.2020  0.0168
 4991SOL    HW115872   2.042   5.077   2.672  0.2091 -0.3326 -1.3046
 4991SOL    HW215873   1.939   5.123   2.554 -1.4667 -1.7385 -0.4510
 4992SOL     OW15874   2.416   2.528   6.081 -0.4453  0.3427 -0.0188
 4992SOL    HW115875   2.357   2.544   6.001 -1.3367  1.9590  0.9077
 4992SOL    HW215876   2.417   2.610   6.138 -1.4314 -1.4099  2.6962
 4993SOL     OW15877   2.513   4.941   2.114  0.0743  0.3306  0.1973
 4993SOL    HW115878   2.567   4.865   2.150 -0.0455  0.6413  1.0590
 4993SOL    HW215879   2.505   5.012   2.184  0.1877  1.1408 -0.5966
 4994SOL     OW15880   4.389   4.693   6.274  0.1579 -0.0729  0.5160
 4994SOL    HW115881   4.315   4.626   6.284  1.3968 -1.5521  0.0460
 4994SOL    HW215882   4.445   4.670   6.195  1.8564  0.2799  1.5593
 4995SOL     OW15883   0.162   2.193   6.763  0.0312  0.3551  0.0527
 4995SOL    HW115884   0.177   2.098   6.793 -0.0374  0.7447  1.3743
 4995SOL    HW215885   0.071   2.223   6.790  0.7507  1.4224  1.4218
 4996SOL     OW15886   6.397   2.093   3.546  0.3078 -0.0570  0.2416
 4996SOL    HW115887   6.488   2.086   3.588  0.1745  0.2952  0.6017
 4996SOL    HW215888   6.329   2.112   3.617  0.3979  3.1166 -0.3385
 4997SOL     OW15889   2.263   1.347   0.692  0.0961  0.6906  0.0135
 4997SOL    HW115890   2.349   1.299   0.712 -0.2808  0.3254  0.8143
 4997SOL    HW215891   2.221   1.307   0.611  0.0682  0.0138  0.3481
 4998SOL     OW15892   1.788   4.911   2.948  0.0244  0.2719 -0.1151
 4998SOL    HW115893   1.803   4.813   2.955 -0.9838  0.1172  0.0522
 4998SOL    HW215894   1.699   4.928   2.907 -0.3656  1.0979  1.0043
 4999SOL     OW15895   0.553   3.321   1.141  0.4536  0.3105  0.5733
 4999SOL    HW115896   0.569   3.407   1.189  0.7191 -0.2171  1.4515
 4999SOL    HW215897   0.454   3.310   1.125  0.5970  2.3074 -2.4979
 5000SOL     OW15898   2.314   1.138   1.559  0.3593 -0.1952 -0.0744
 5000SOL    HW115899   2.333   1.062   1.621  0.0566  1.1964  1.8148
 5000SOL    HW215900   2.387   1.206   1.566  0.1888  0.1024 -1.0598
 5001SOL     OW15901   1.627   0.426   2.203  0.3469 -0.3399 -0.1321
 5001SOL    HW115902   1.581   0.342   2.175  1.0828 -0.6043 -0.5672
 5001SOL    HW215903   1.579   0.505   2.165 -1.1896 -0.4534  1.4305
 5002SOL     OW15904   1.316   5.458   3.841  0.5180 -0.2128  0.0331
 5002SOL    HW115905   1.379   5.497   3.775 -0.9264  0.8564 -0.7793
 5002SOL    HW215906   1.343   5.486   3.934  0.8312  0.8291 -0.3549
 5003SOL     OW15907   3.352   0.919   2.110 -0.6609 -0.2283 -0.3076
 5003SOL    HW115908   3.346   0.822   2.133 -0.9612 -0.2998 -0.6707
 5003SOL    HW215909   3.447   0.949   2.116 -0.7818 -0.1271  1.4492
 5004SOL     OW15910   4.854   6.003   1.773  0.1316  0.0373  0.0274
 5004SOL    HW115911   4.839   6.062   1.694 -2.3908 -0.4315  0.0687
 5004SOL    HW215912   4.921   5.932   1.750  0.9648  1.1252 -0.9767
 5005SOL     OW15913   5.568   2.924   2.354 -0.3529 -0.0130  0.3701
 5005SOL    HW115914   5.531   2.943   2.263 -0.1380 -0.0283  0.2787
 5005SOL    HW215915   5.599   2.828   2.358  1.3396  0.4651 -0.1457
 5006SOL     OW15916   4.100   0.737   2.503 -0.1753  0.1449  0.6171
 5006SOL    HW115917   4.065   0.830   2.488 -0.5538 -0.4702 -3.2143
 5006SOL    HW215918   4.198   0.735   2.484 -0.2740 -0.3315  0.1493
 5007SOL     OW15919   6.059   6.964   4.632 -0.0577 -0.1257  0.3811
 5007SOL    HW115920   6.009   7.028   4.574 -1.0431  1.1948  2.5766
 5007SOL    HW215921   6.000   6.886   4.652 -0.1202 -0.0490  0.4973
 5008SOL     OW15922   3.166   0.900   5.379 -0.0485 -0.2301  0.6623
 5008SOL    HW115923   3.205   0.809   5.389  0.7452 -0.2478 -1.8838
 5008SOL    HW215924   3.083   0.895   5.324  1.0230  0.7104 -1.1605
 5009SOL     OW15925   0.674   2.866   5.327  0.6994 -0.7794 -0.4872
 5009SOL    HW115926   0.716   2.900   5.412 -0.6083 -0.9192  0.2523
 5009SOL    HW215927   0.592   2.920   5.308  0.0565 -1.8282 -0.7443
 5010SOL     OW15928   5.638   4.833   1.861 -0.7777  0.7422 -0.5251
 5010SOL    HW115929   5.711   4.765   1.868 -1.0301  0.5860  1.0679
 5010SOL    HW215930   5.670   4.912   1.810  0.6556  0.8268  0.4526
 5011SOL     OW15931   3.098   2.675   5.541 -0.1697 -0.1504 -0.1697
 5011SOL    HW115932   3.103   2.751   5.607  2.3779  0.0640 -0.5092
 5011SOL    HW215933   3.119   2.709   5.450  1.1237 -1.2630 -0.3060
 5012SOL     OW15934   5.170   2.559   4.052  0.0200 -0.0830  0.0596
 5012SOL    HW115935   5.157   2.590   4.146 -0.3842  2.2224 -0.6820
 5012SOL    HW215936   5.083   2.564   4.002  0.0139 -2.1999 -0.2413
 5013SOL     OW15937   4.311   5.986   5.435 -0.3006 -0.2368  0.2082
 5013SOL    HW115938   4.381   6.056   5.448 -1.2577  0.6441  0.8042
 5013SOL    HW215939   4.301   5.966   5.338 -0.6204  1.1184 -0.0546
 5014SOL     OW15940   5.534   3.240   6.936 -0.0325  0.4418 -0.3212
 5014SOL    HW115941   5.530   3.151   6.890 -0.1804  0.1069  0.3290
 5014SOL    HW215942   5.456   3.249   6.998  1.8813 -0.5474  2.4126
 5015SOL     OW15943   0.081   5.247   5.438 -0.2687 -0.7955  0.2014
 5015SOL    HW115944   0.173   5.231   5.475  0.5445 -1.9180 -2.1167
 5015SOL    HW215945   0.024   5.166   5.455 -0.8859 -0.0944  1.6504
 5016SOL     OW15946   0.211   1.723   6.937 -0.2277  0.3127  0.3569
 5016SOL    HW115947   0.204   1.767   7.026  0.5527 -1.4654  1.3625
 5016SOL    HW215948   0.307   1.704   6.916 -0.4078  0.6337 -0.8392
 5017SOL     OW15949   0.246   0.657   1.787  0.7679  0.2013  0.4170
 5017SOL    HW115950   0.224   0.562   1.767  1.8514  0.3538 -1.7387
 5017SOL    HW215951   0.162   0.712   1.783  0.3713 -0.4134  0.1269
 5018SOL     OW15952   5.988   0.372   6.289 -0.0100  0.6019 -0.0074
 5018SOL    HW115953   5.958   0.438   6.358 -0.4603  1.0848 -0.6531
 5018SOL    HW215954   6.050   0.416   6.224  0.0128  0.2844 -0.2058
 5019SOL     OW15955   1.688   3.806   6.137 -0.6989  0.0538  0.5053
 5019SOL    HW115956   1.739   3.854   6.208 -1.0172  0.8372  0.2192
 5019SOL    HW215957   1.629   3.871   6.089 -0.8216 -0.5519 -0.1786
 5020SOL     OW15958   1.051   5.261   1.457  0.3032 -0.2848 -0.0414
 5020SOL    HW115959   1.012   5.246   1.367  1.9450  1.3242 -1.0821
 5020SOL    HW215960   1.138   5.212   1.466  0.0859 -0.5564  0.7450
 5021SOL     OW15961   3.155   6.804   1.554  0.2282  0.4564 -0.4227
 5021SOL    HW115962   3.235   6.762   1.510  1.3840  0.5229  1.5021
 5021SOL    HW215963   3.077   6.799   1.492  1.0353 -1.9631 -1.3760
 5022SOL     OW15964   0.444   1.564   0.762  0.2232  0.8453 -0.0676
 5022SOL    HW115965   0.371   1.605   0.816 -0.3059  1.2909 -1.0965
 5022SOL    HW215966   0.408   1.488   0.709  0.9463 -0.2108  0.9036
 5023SOL     OW15967   0.007   0.080   2.744  0.1408  0.2233  0.1182
 5023SOL    HW115968   0.063   0.127   2.676 -0.6018  0.3102 -0.4412
 5023SOL    HW215969   0.065   0.020   2.799  1.2373  2.1716  1.2176
 5024SOL     OW15970   4.940   4.410   1.877 -0.6550 -0.0025  0.4046
 5024SOL    HW115971   4.941   4.348   1.798 -1.4042  0.4481  0.0366
 5024SOL    HW215972   5.033   4.417   1.915 -0.3407 -0.4256 -0.2695
 5025SOL     OW15973   4.382   1.803   5.033 -0.2244  0.1956 -0.1789
 5025SOL    HW115974   4.311   1.831   5.098 -2.7609 -1.4913 -2.0374
 5025SOL    HW215975   4.421   1.884   4.989 -0.0805  1.2283  1.7568
 5026SOL     OW15976   2.843   4.350   5.780  0.0715  0.1435 -0.5076
 5026SOL    HW115977   2.863   4.412   5.705  1.6099  2.6271  1.7943
 5026SOL    HW215978   2.912   4.278   5.784 -1.8267 -2.0604 -3.3028
 5027SOL     OW15979   5.636   5.740   1.142  0.5586  0.2043 -0.0585
 5027SOL    HW115980   5.627   5.786   1.231 -0.0213  1.2628 -0.6454
 5027SOL    HW215981   5.570   5.665   1.137  1.3068 -0.5420  0.7935
 5028SOL     OW15982   0.637   1.576   0.474 -0.0306 -0.1201  0.9801
 5028SOL    HW115983   0.613   1.670   0.499  1.6007  0.7832 -0.5633
 5028SOL    HW215984   0.555   1.520   0.471 -1.5125  1.9650 -0.8177
 5029SOL     OW15985   0.422   2.768   2.339  0.0466 -0.0294 -0.1647
 5029SOL    HW115986   0.476   2.762   2.423  0.1593 -1.0857 -0.3013
 5029SOL    HW215987   0.325   2.773   2.362 -0.0901 -2.5495  0.0235
 5030SOL     OW15988   3.319   2.472   6.909 -0.1122 -0.4882  0.2425
 5030SOL    HW115989   3.279   2.400   6.965 -0.9206 -0.0483  0.2413
 5030SOL    HW215990   3.414   2.487   6.937  0.4560 -2.3443 -0.5262
 5031SOL     OW15991   5.485   3.119   5.859 -0.4115 -0.0315 -0.4051
 5031SOL    HW115992   5.503   3.206   5.906  1.2797 -0.2001 -0.6786
 5031SOL    HW215993   5.458   3.138   5.765 -1.4531  0.2330 -0.0600
 5032SOL     OW15994   1.875   5.024   6.033 -0.0793  0.4853  0.1639
 5032SOL    HW115995   1.958   5.009   6.086 -0.1958 -0.7392  0.0295
 5032SOL    HW215996   1.891   5.095   5.965  1.2095 -0.4420 -0.5626
 5033SOL     OW15997   0.672   0.028   2.426  0.2648  0.1633 -0.1398
 5033SOL    HW115998   0.656  -0.070   2.438 -0.4350  0.3240  0.3487
 5033SOL    HW215999   0.584   0.074   2.416  0.5918  0.7480 -0.3187
 5034SOL     OW16000   4.975   4.991   4.124  0.2474  0.1418  0.2431
 5034SOL    HW116001   4.966   4.972   4.222  2.0871 -1.4331  0.1599
 5034SOL    HW216002   4.974   5.090   4.109 -1.4591  0.4012  1.6526
 5035SOL     OW16003   2.243   4.111   3.634 -0.1424  0.0454 -0.0181
 5035SOL    HW116004   2.291   4.155   3.558 -2.0685  0.2379 -1.1901
 5035SOL    HW216005   2.288   4.134   3.720  1.7611  0.2988 -1.0262
 5036SOL     OW16006   6.985   1.828   5.330 -0.6384 -0.3483  0.2577
 5036SOL    HW116007   7.083   1.838   5.347 -0.7962  0.7307  0.6197
 5036SOL    HW216008   6.963   1.859   5.238 -0.5610 -1.1566 -0.0402
 5037SOL     OW16009   1.113   3.992   0.551  0.3837  0.2557 -0.0284
 5037SOL    HW116010   1.096   3.931   0.628  0.0873 -1.2773 -1.2514
 5037SOL    HW216011   1.026   4.029   0.517  0.2857 -0.7139 -0.8846
 5038SOL     OW16012   3.967   3.600   4.773  0.2589 -0.0443 -0.3566
 5038SOL    HW116013   3.969   3.696   4.800 -2.4921 -0.2302  0.8447
 5038SOL    HW216014   3.989   3.592   4.676  2.7891  1.4794 -0.0069
 5039SOL     OW16015   5.923   2.376   0.796 -0.0203 -0.1478 -0.0957
 5039SOL    HW116016   5.847   2.426   0.755  0.0455  0.6707  0.7601
 5039SOL    HW216017   5.890   2.289   0.833  0.0242 -1.2176 -2.3730
 5040SOL     OW16018   6.598   1.753   6.283 -0.1325 -0.7422  0.1724
 5040SOL    HW116019   6.664   1.707   6.343 -0.9576 -0.8757  0.9855
 5040SOL    HW216020   6.575   1.692   6.206 -0.5682 -1.3631  0.7848
 5041SOL     OW16021   6.206   2.763   1.599 -0.5709  0.8917 -0.4727
 5041SOL    HW116022   6.241   2.815   1.677 -5.0863  0.2789  2.2892
 5041SOL    HW216023   6.157   2.825   1.537 -1.6203  0.6995  0.1380
 5042SOL     OW16024   0.300   1.243   6.333  0.0961 -0.5014  0.0452
 5042SOL    HW116025   0.343   1.322   6.377 -0.4440  0.1747 -0.6244
 5042SOL    HW216026   0.227   1.209   6.392 -0.5649  0.3462 -0.2584
 5043SOL     OW16027   2.086   1.470   1.170  0.2220 -0.1443 -0.0131
 5043SOL    HW116028   2.128   1.457   1.080  0.8990 -0.2437  0.3085
 5043SOL    HW216029   1.999   1.519   1.160  0.3588 -0.0339 -0.7031
 5044SOL     OW16030   1.035   5.556   0.898  0.1519 -0.5337 -0.1388
 5044SOL    HW116031   1.120   5.606   0.911 -1.1671  1.7601  0.4317
 5044SOL    HW216032   0.981   5.601   0.827 -2.5737  1.1762  2.6981
 5045SOL     OW16033   6.605   1.332   1.169  0.0260  0.0198  0.2205
 5045SOL    HW116034   6.649   1.406   1.219  1.4633  0.2551 -1.2969
 5045SOL    HW216035   6.632   1.244   1.208  0.2793  0.2203  0.4968
 5046SOL     OW16036   4.575   3.478   1.655 -0.0051 -0.4091  0.3042
 5046SOL    HW116037   4.541   3.385   1.670  0.1914 -0.2828  1.7423
 5046SOL    HW216038   4.549   3.510   1.564 -0.4034 -1.7270 -0.0593
 5047SOL     OW16039   3.314   5.176   4.036 -0.6143 -0.3026  0.7468
 5047SOL    HW116040   3.240   5.200   4.098 -0.2489 -0.7913  1.3886
 5047SOL    HW216041   3.276   5.153   3.946 -1.0181  1.9548  0.2898
 5048SOL     OW16042   3.180   0.129   5.653  0.2302 -0.2451  0.0060
 5048SOL    HW116043   3.205   0.222   5.627 -1.1371 -0.3768 -1.9407
 5048SOL    HW216044   3.246   0.064   5.615  1.2519 -0.1231  1.4625
 5049SOL     OW16045   4.434   2.232   0.531  0.0881  0.7945  0.4245
 5049SOL    HW116046   4.502   2.169   0.567 -0.3627 -0.1349 -0.2998
 5049SOL    HW216047   4.445   2.322   0.574 -0.2543 -0.1588  2.6488
 5050SOL     OW16048   0.422   0.635   1.357  0.0516 -0.1877 -0.3456
 5050SOL    HW116049   0.431   0.674   1.266 -0.3558  0.4839 -0.1094
 5050SOL    HW216050   0.503   0.657   1.411  0.1118 -0.2306 -0.4186
 5051SOL     OW16051   2.976   4.688   1.720 -0.3175 -0.4390  0.1097
 5051SOL    HW116052   2.971   4.677   1.620 -0.4695 -2.4263  0.3096
 5051SOL    HW216053   2.932   4.611   1.765  1.2997 -0.4967  1.7385
 5052SOL     OW16054   2.137   4.472   3.445  0.4882 -0.0154 -0.1814
 5052SOL    HW116055   2.106   4.563   3.416  1.2074  0.5194  0.7085
 5052SOL    HW216056   2.072   4.434   3.511 -0.4108 -0.6509 -1.3743
 5053SOL     OW16057   4.871   0.968   1.599  0.0822 -0.2526  0.5197
 5053SOL    HW116058   4.860   1.067   1.599 -0.6104 -0.3115 -0.5658
 5053SOL    HW216059   4.897   0.937   1.691  2.1976  1.1033  0.4405
 5054SOL     OW16060   0.219   6.937   2.824  0.3735  0.0390  0.4893
 5054SOL    HW116061   0.217   6.846   2.865 -1.3665  0.2558  0.9881
 5054SOL    HW216062   0.295   6.990   2.862 -0.2200 -0.3102  2.2920
 5055SOL     OW16063   6.706   4.067   6.298  0.8291  0.3918  0.2410
 5055SOL    HW116064   6.623   4.036   6.345  1.0371  0.6891  0.8214
 5055SOL    HW216065   6.762   3.988   6.272  0.7088  0.2210  0.5009
 5056SOL     OW16066   0.348   4.936   3.552 -0.2719 -0.4743 -0.0930
 5056SOL    HW116067   0.431   4.889   3.583 -0.3355 -1.1589 -0.9321
 5056SOL    HW216068   0.368   4.990   3.471 -0.4058  0.2488  0.3491
 5057SOL     OW16069   6.867   6.700   2.034  0.1056  0.1942  0.1858
 5057SOL    HW116070   6.922   6.772   1.991  3.6003 -2.1140  0.3553
 5057SOL    HW216071   6.878   6.706   2.133  1.2887 -1.1278  0.1557
 5058SOL     OW16072   2.883   6.195   6.374  0.0585 -1.0362  0.5261
 5058SOL    HW116073   2.847   6.104   6.392 -1.8132 -0.1692  1.4833
 5058SOL    HW216074   2.820   6.245   6.315 -1.9048  1.3969  4.2552
 5059SOL     OW16075   1.029   7.010   2.798  0.4512  0.5294  0.1693
 5059SOL    HW116076   1.114   7.001   2.747 -0.8719 -0.9311 -1.9669
 5059SOL    HW216077   0.957   7.044   2.737 -0.7600  0.6311  1.5963
 5060SOL     OW16078   4.939   2.841   1.007  0.3359 -0.3996  0.5696
 5060SOL    HW116079   4.958   2.835   0.909 -0.4910 -0.2835  0.3996
 5060SOL    HW216080   4.863   2.903   1.023  2.8282  2.6929  1.5755
 5061SOL     OW16081   6.394   3.096   2.145 -0.2657  0.3393  0.0443
 5061SOL    HW116082   6.296   3.109   2.157 -0.4405 -1.4868  0.9686
 5061SOL    HW216083   6.410   3.030   2.072  0.3259  1.2454 -0.6611
 5062SOL     OW16084   5.943   0.332   5.516 -0.3738  0.5793  0.7441
 5062SOL    HW116085   5.932   0.233   5.505 -1.0167  0.8128 -0.9986
 5062SOL    HW216086   6.040   0.355   5.511 -0.2170  0.0619  1.1786
 5063SOL     OW16087   2.166   0.177   2.560  0.2382  0.5271 -0.3861
 5063SOL    HW116088   2.081   0.195   2.511 -0.2164  0.7911  0.4750
 5063SOL    HW216089   2.157   0.207   2.655  1.0077 -0.1989 -0.0690
 5064SOL     OW16090   6.624   5.116   6.555  0.1911 -0.3438 -0.2622
 5064SOL    HW116091   6.626   5.194   6.618  1.4131  0.0532 -0.7686
 5064SOL    HW216092   6.672   5.140   6.471 -1.0940 -0.9961 -1.2229
 5065SOL     OW16093   2.688   0.539   5.380  0.1785 -0.1961 -0.7163
 5065SOL    HW116094   2.628   0.529   5.460 -1.0536  3.2281 -1.0630
 5065SOL    HW216095   2.633   0.558   5.299  1.5885 -0.5736 -1.8090
 5066SOL     OW16096   4.838   4.834   6.431  0.0727  0.1547  0.0456
 5066SOL    HW116097   4.909   4.874   6.489 -1.2043 -0.3238  2.0435
 5066SOL    HW216098   4.757   4.815   6.486 -0.3868 -2.5839 -1.3825
 5067SOL     OW16099   5.154   1.581   4.912 -0.0929 -0.5305  0.2487
 5067SOL    HW116100   5.161   1.482   4.896 -2.1679 -0.3093 -2.9821
 5067SOL    HW216101   5.185   1.630   4.831 -1.8996  1.3234  0.5960
 5068SOL     OW16102   6.735   6.012   2.854 -0.1306  1.2876 -0.2647
 5068SOL    HW116103   6.692   5.993   2.765  0.8336  2.6580 -1.0598
 5068SOL    HW216104   6.814   5.952   2.866 -1.4064 -0.2979  0.6026
 5069SOL     OW16105   6.482   2.679   2.840 -0.6086  0.0577 -0.0143
 5069SOL    HW116106   6.441   2.728   2.763  0.1429 -0.1952 -0.5860
 5069SOL    HW216107   6.420   2.683   2.919 -1.4911  0.1221 -0.6957
 5070SOL     OW16108   4.779   2.916   4.073 -0.1535  0.0909 -0.1126
 5070SOL    HW116109   4.785   2.924   4.172  0.8284  0.1367 -0.1689
 5070SOL    HW216110   4.868   2.936   4.032 -1.2681  3.4038 -1.2350
 5071SOL     OW16111   5.188   1.275   1.743  0.0991 -0.0864 -0.2734
 5071SOL    HW116112   5.237   1.288   1.657  0.7088 -0.1463  0.0559
 5071SOL    HW216113   5.187   1.360   1.794 -2.7199  0.7729 -1.5498
 5072SOL     OW16114   1.097   4.395   2.527  0.6152  0.4327 -0.3881
 5072SOL    HW116115   1.195   4.412   2.538  0.4075  2.4541 -1.1606
 5072SOL    HW216116   1.048   4.482   2.532 -0.7897 -0.0691 -3.1812
 5073SOL     OW16117   4.027   1.929   3.661  0.3894  0.0493 -0.0207
 5073SOL    HW116118   3.941   1.980   3.654  0.3954  0.0267 -0.3039
 5073SOL    HW216119   4.073   1.930   3.572 -0.1644 -1.3937 -0.3614
 5074SOL     OW16120   3.660   4.897   5.318 -0.6974  0.3412  0.2896
 5074SOL    HW116121   3.749   4.896   5.271  0.2266  0.5361  1.9822
 5074SOL    HW216122   3.602   4.825   5.280 -0.6599  1.5764 -2.3502
 5075SOL     OW16123   5.900   0.190   4.735 -0.7704  0.2216  0.0950
 5075SOL    HW116124   5.898   0.173   4.637 -2.5179 -0.8724  0.2695
 5075SOL    HW216125   5.882   0.105   4.784  1.3799  0.4623  1.4479
 5076SOL     OW16126   6.124   6.428   0.154 -0.1754 -0.2920 -0.1945
 5076SOL    HW116127   6.061   6.360   0.119 -2.5661  1.3485  0.6835
 5076SOL    HW216128   6.151   6.490   0.079 -2.5486  1.1416  0.0338
 5077SOL     OW16129   6.279   2.726   1.916  0.2864 -0.4014  0.1143
 5077SOL    HW116130   6.342   2.803   1.923  1.1964 -0.9823 -1.2498
 5077SOL    HW216131   6.322   2.645   1.957 -0.6213 -0.2318  1.4458
 5078SOL     OW16132   1.037   1.323   5.536  0.3190  0.1832  0.1109
 5078SOL    HW116133   0.962   1.281   5.588  1.2681 -1.0836  0.5172
 5078SOL    HW216134   1.044   1.279   5.446  0.9102 -0.1067  0.2897
 5079SOL     OW16135   4.425   6.483   3.296 -0.5048  0.1675 -0.2583
 5079SOL    HW116136   4.445   6.580   3.278 -2.3487  0.5869 -0.2295
 5079SOL    HW216137   4.465   6.457   3.384 -0.6506  1.1342  0.1108
 5080SOL     OW16138   5.536   4.742   4.279  0.1625  0.4482  0.0622
 5080SOL    HW116139   5.576   4.756   4.188 -0.2864 -0.8563 -0.3663
 5080SOL    HW216140   5.448   4.696   4.270 -0.8165  2.0207  1.0774
 5081SOL     OW16141   3.250   3.787   2.068 -0.2648 -0.1280 -0.0891
 5081SOL    HW116142   3.238   3.695   2.105 -0.7081 -0.2667 -0.5791
 5081SOL    HW216143   3.322   3.785   1.999 -0.7228 -0.2394 -0.5675
 5082SOL     OW16144   6.999   2.034   7.010 -0.2294 -0.2232  0.4310
 5082SOL    HW116145   7.008   1.996   7.102 -1.9864 -1.0039  0.3177
 5082SOL    HW216146   7.052   1.980   6.945  1.1462  0.4264  0.9835
 5083SOL     OW16147   6.519   4.522   1.768  0.0286 -0.1890 -0.7209
 5083SOL    HW116148   6.452   4.583   1.726  0.0480  0.9756  0.8495
 5083SOL    HW216149   6.610   4.560   1.757 -0.0838  0.7683  1.3676
 5084SOL     OW16150   1.321   0.045   2.266 -0.3106  0.3028  0.4820
 5084SOL    HW116151   1.364   0.101   2.336 -1.8756  1.7009  0.3978
 5084SOL    HW216152   1.237   0.004   2.302 -0.1978 -0.4424 -0.0554
 5085SOL     OW16153   6.886   3.487   0.890 -0.1703  0.5361  0.1280
 5085SOL    HW116154   6.791   3.509   0.867  0.4277  0.6586 -2.6037
 5085SOL    HW216155   6.937   3.572   0.904 -0.2112  0.5087  0.4476
 5086SOL     OW16156   0.127   6.906   6.009 -0.0730 -0.5644 -0.0944
 5086SOL    HW116157   0.083   6.818   6.025  0.2881 -0.3219  2.5748
 5086SOL    HW216158   0.226   6.895   6.008 -0.0468 -0.4890 -2.0575
 5087SOL     OW16159   4.847   4.258   5.462  0.4374  0.6054  0.4728
 5087SOL    HW116160   4.783   4.278   5.535  0.2948 -0.0758  0.5418
 5087SOL    HW216161   4.875   4.162   5.467 -0.0349  0.3747 -0.7048
 5088SOL     OW16162   5.651   1.822   6.663  0.4922  0.6269 -0.4826
 5088SOL    HW116163   5.684   1.733   6.695 -1.3533  0.1658  0.2355
 5088SOL    HW216164   5.564   1.811   6.615  0.7091  1.9444 -1.2344
 5089SOL     OW16165   5.419   4.341   4.311 -0.0143  0.1439 -0.1187
 5089SOL    HW116166   5.400   4.243   4.303  2.1011 -0.3448  0.0631
 5089SOL    HW216167   5.412   4.368   4.407 -1.7995  0.4931 -0.3113
 5090SOL     OW16168   2.438   5.355   5.057  0.4958  0.1144 -0.3408
 5090SOL    HW116169   2.438   5.255   5.061  1.3522  0.0532 -1.4266
 5090SOL    HW216170   2.383   5.391   5.132 -1.6848 -1.2190 -1.2162
 5091SOL     OW16171   5.803   6.592   4.959  0.3548 -0.3468 -0.0347
 5091SOL    HW116172   5.725   6.604   5.020 -0.3598 -1.8218 -0.6063
 5091SOL    HW216173   5.882   6.563   5.013  0.3653  0.5511  0.4645
 5092SOL     OW16174   3.891   3.876   6.743  0.1042  0.2914 -0.1610
 5092SOL    HW116175   3.924   3.817   6.669 -0.1877  0.6863 -0.6101
 5092SOL    HW216176   3.802   3.844   6.774 -0.5836  1.1267 -1.1697
 5093SOL     OW16177   0.979   0.569   1.981  0.3819 -0.1375  0.8932
 5093SOL    HW116178   0.908   0.502   1.959  0.1093 -0.0253  1.4269
 5093SOL    HW216179   0.946   0.661   1.959 -0.3403  0.0941  2.8165
 5094SOL     OW16180   1.048   1.029   6.128 -0.0727 -0.2466 -0.6314
 5094SOL    HW116181   1.139   0.987   6.118 -0.1447 -0.6739  0.4287
 5094SOL    HW216182   0.987   0.965   6.175 -0.2722  0.9408  0.7635
 5095SOL     OW16183   4.009   1.861   5.338  0.5321 -0.2987 -0.5930
 5095SOL    HW116184   4.025   1.767   5.369 -0.1403  0.0717  0.9615
 5095SOL    HW216185   3.911   1.878   5.329  0.6004  0.4945 -0.0094
 5096SOL     OW16186   3.323   4.968   0.994 -0.0106 -0.1856 -0.0984
 5096SOL    HW116187   3.415   4.997   0.967 -0.1689 -0.6236 -1.1641
 5096SOL    HW216188   3.263   4.970   0.914 -0.4391 -1.7962  0.1542
 5097SOL     OW16189   2.332   3.153   5.675 -0.5235 -0.5513  0.6391
 5097SOL    HW116190   2.407   3.131   5.612 -1.5575 -1.4398 -0.3268
 5097SOL    HW216191   2.355   3.120   5.766  1.3509  1.4699  0.9732
 5098SOL     OW16192   1.527   2.384   3.111  0.4572  0.2952  0.4270
 5098SOL    HW116193   1.562   2.418   3.024  1.9086 -0.4132  0.6877
 5098SOL    HW216194   1.433   2.352   3.099 -0.1686  2.2833 -0.3143
 5099SOL     OW16195   1.680   2.242   5.859 -0.0878 -0.2167 -0.1384
 5099SOL    HW116196   1.708   2.208   5.949  0.4334  0.7594  0.0853
 5099SOL    HW216197   1.699   2.173   5.790  0.3091 -0.6483  0.3919
 5100SOL     OW16198   5.961   4.227   5.745  0.5851  0.0382  0.3529
 5100SOL    HW116199   5.874   4.269   5.719  1.4797  1.3199 -0.7058
 5100SOL    HW216200   6.027   4.299   5.766  0.7567 -0.9059  3.5033
 5101SOL     OW16201   4.883   6.046   0.983  0.0445 -0.1752 -0.5694
 5101SOL    HW116202   4.838   5.985   0.917 -5.1141 -1.0756  3.1360
 5101SOL    HW216203   4.849   6.139   0.970  0.8827  0.1254 -0.6346
 5102SOL     OW16204   4.497   4.160   0.888  0.3603 -0.1156 -0.2341
 5102SOL    HW116205   4.399   4.147   0.880 -0.0147  0.7059  2.2803
 5102SOL    HW216206   4.517   4.255   0.913  1.8081 -0.2677 -0.6772
 5103SOL     OW16207   2.055   2.797   4.549 -0.1160 -0.0705 -0.4992
 5103SOL    HW116208   2.037   2.732   4.622 -0.9942 -0.6164 -1.1868
 5103SOL    HW216209   2.038   2.890   4.582  0.3896 -0.2332  0.2500
 5104SOL     OW16210   1.312   1.817   6.498  0.2065 -0.0687 -0.4954
 5104SOL    HW116211   1.241   1.871   6.544 -0.8170 -1.2749 -0.6157
 5104SOL    HW216212   1.387   1.877   6.472 -0.7003  1.2208 -0.2386
 5105SOL     OW16213   0.510   3.691   0.909  0.2343 -0.0064 -0.7416
 5105SOL    HW116214   0.450   3.701   0.829  1.1069  0.0698 -1.4063
 5105SOL    HW216215   0.471   3.740   0.987 -0.6395 -0.0935 -1.1120
 5106SOL     OW16216   1.628   5.631   1.654 -0.7344  0.1447  0.3431
 5106SOL    HW116217   1.710   5.576   1.667 -0.1125  0.8578 -0.4787
 5106SOL    HW216218   1.629   5.672   1.563 -1.1467  1.5537  0.9425
 5107SOL     OW16219   6.863   6.842   6.185  0.2790  0.8370 -0.2043
 5107SOL    HW116220   6.947   6.852   6.239 -1.5771  3.4400  2.5450
 5107SOL    HW216221   6.815   6.759   6.214 -0.0013  1.4642  1.2349
 5108SOL     OW16222   4.032   3.787   4.290  0.1553  0.0607  0.0594
 5108SOL    HW116223   4.013   3.811   4.385  1.0381 -1.2024  0.5773
 5108SOL    HW216224   3.989   3.855   4.230  0.7239  1.6526  1.3706
 5109SOL     OW16225   2.337   2.111   3.104 -0.3855 -0.1271  0.3417
 5109SOL    HW116226   2.362   2.056   3.024  1.2865  1.0441  0.0007
 5109SOL    HW216227   2.275   2.184   3.076  0.6033  0.5941 -0.0198
 5110SOL     OW16228   2.422   5.955   4.356 -0.0884  0.2259 -0.9396
 5110SOL    HW116229   2.479   5.950   4.274 -0.0158 -1.5553 -0.8118
 5110SOL    HW216230   2.374   5.869   4.369 -1.7944  1.2112 -0.2899
 5111SOL     OW16231   1.164   2.312   0.178  0.0881  0.0455 -0.1089
 5111SOL    HW116232   1.225   2.380   0.218  0.5609  0.4925 -1.5027
 5111SOL    HW216233   1.217   2.237   0.140 -0.5041 -2.3586  3.3796
 5112SOL     OW16234   0.113   6.886   4.658  0.7127 -0.3639  0.3576
 5112SOL    HW116235   0.021   6.860   4.685  0.0759 -0.7050 -1.9419
 5112SOL    HW216236   0.109   6.957   4.587  2.2776  0.9718  1.5196
 5113SOL     OW16237   0.504   3.189   6.842 -0.0512 -0.4838  0.4281
 5113SOL    HW116238   0.535   3.278   6.809  0.2460 -1.5590 -2.4465
 5113SOL    HW216239   0.426   3.159   6.788  1.4839 -3.1001 -0.4706
 5114SOL     OW16240   5.250   2.903   6.722  0.0407  0.4797  0.7524
 5114SOL    HW116241   5.291   2.819   6.687  1.5358  1.6796 -0.5757
 5114SOL    HW216242   5.178   2.933   6.660  0.5073  0.9123  0.4025
 5115SOL     OW16243   2.500   0.983   4.916 -0.0251 -0.4799  0.2918
 5115SOL    HW116244   2.492   1.045   4.838 -0.4511 -0.2016  0.5537
 5115SOL    HW216245   2.472   1.030   4.999  2.9697  0.0909  1.0747
 5116SOL     OW16246   6.137   5.281   0.072 -0.4369  0.2537 -0.3416
 5116SOL    HW116247   6.137   5.373   0.111  1.2921  1.0698 -2.0838
 5116SOL    HW216248   6.050   5.264   0.025 -0.3950  1.4438 -0.8968
 5117SOL     OW16249   4.532   4.898   3.567 -0.0172  0.2013  0.0559
 5117SOL    HW116250   4.605   4.846   3.522 -1.5659 -0.6922 -1.5247
 5117SOL    HW216251   4.465   4.835   3.607 -0.6920  0.9981  0.2120
 5118SOL     OW16252   4.034   4.678   1.369 -0.2995  0.3474 -0.6445
 5118SOL    HW116253   4.026   4.579   1.370  1.1042  0.2059 -0.7555
 5118SOL    HW216254   3.955   4.719   1.415  0.0851 -0.8997  1.2690
 5119SOL     OW16255   6.526   0.756   3.765  0.1072 -0.3856 -0.0902
 5119SOL    HW116256   6.593   0.823   3.797  0.2032  0.6529 -2.2775
 5119SOL    HW216257   6.562   0.664   3.777  2.4570  0.1593 -2.0882
 5120SOL     OW16258   3.229   0.321   1.082  0.3458  0.2362  0.3240
 5120SOL    HW116259   3.297   0.250   1.098 -0.3393 -0.8588 -1.3058
 5120SOL    HW216260   3.167   0.326   1.160  0.9865 -0.2837  0.8754
 5121SOL     OW16261   1.104   3.888   4.441  0.1223 -0.1105  0.4163
 5121SOL    HW116262   1.145   3.842   4.362 -0.0804 -0.4316  0.4965
 5121SOL    HW216263   1.108   3.828   4.520 -2.2721 -0.9820 -0.0335
 5122SOL     OW16264   1.882   5.436   2.071  0.0271 -0.1700 -0.7610
 5122SOL    HW116265   1.862   5.534   2.071  2.2725  0.3404  0.0618
 5122SOL    HW216266   1.816   5.389   2.011 -1.8876  1.6242 -0.2032
 5123SOL     OW16267   6.526   3.617   2.386 -0.2565  0.1599 -0.7309
 5123SOL    HW116268   6.612   3.589   2.342  0.1582  1.0514 -0.5040
 5123SOL    HW216269   6.490   3.699   2.342 -1.2086 -0.4285 -1.0764
 5124SOL     OW16270   3.103   0.300   0.569  0.2269 -0.1201 -0.3823
 5124SOL    HW116271   3.083   0.297   0.667  0.6032  0.4768 -0.2814
 5124SOL    HW216272   3.021   0.326   0.519  0.3855  1.0303 -0.0858
 5125SOL     OW16273   0.147   2.557   6.732 -0.7295  0.1473 -0.1252
 5125SOL    HW116274   0.203   2.636   6.708  0.5557 -0.4403  0.7605
 5125SOL    HW216275   0.128   2.502   6.651  1.4128 -0.5025 -0.2475
 5126SOL     OW16276   3.977   0.984   5.897 -0.2332  0.4122  0.2591
 5126SOL    HW116277   3.991   0.927   5.817  0.5004 -1.0505  1.3786
 5126SOL    HW216278   3.887   0.964   5.936 -1.1380  2.0538 -0.8814
 5127SOL     OW16279   5.051   4.804   5.929  0.0577 -0.4574 -0.0110
 5127SOL    HW116280   5.036   4.766   5.838  2.1559  1.1498 -1.0967
 5127SOL    HW216281   5.127   4.756   5.973  0.3206  0.0508  0.0958
 5128SOL     OW16282   2.175   5.631   6.396  0.2403  0.0240  0.4885
 5128SOL    HW116283   2.156   5.657   6.302 -2.8049  0.8646  1.2438
 5128SOL    HW216284   2.121   5.551   6.421  1.3484 -0.4668  1.4236
 5129SOL     OW16285   4.657   2.414   3.828  0.6574  0.2242 -0.1399
 5129SOL    HW116286   4.558   2.429   3.834  0.8157  0.8320  1.3025
 5129SOL    HW216287   4.689   2.370   3.911  1.5219 -0.5622 -0.8693
 5130SOL     OW16288   1.694   6.840   5.001 -0.0649  0.3765 -0.5328
 5130SOL    HW116289   1.777   6.790   4.976 -1.4479 -3.6457  2.0255
 5130SOL    HW216290   1.614   6.794   4.964 -1.4105  1.4586  0.8959
 5131SOL     OW16291   3.906   5.421   1.209  0.2785 -0.1511 -0.0660
 5131SOL    HW116292   3.987   5.435   1.152  0.1406  1.1194  0.0127
 5131SOL    HW216293   3.933   5.423   1.306  0.3485 -1.2067 -0.0456
 5132SOL     OW16294   2.814   2.461   6.422  0.1210  0.0184  0.1139
 5132SOL    HW116295   2.805   2.482   6.519  0.9843 -0.5366  0.3206
 5132SOL    HW216296   2.789   2.542   6.368 -0.2628  0.3567  0.7924
 5133SOL     OW16297   3.188   4.932   0.746  0.1986  0.0112 -0.3601
 5133SOL    HW116298   3.112   4.992   0.722  0.6874  0.6680 -0.2935
 5133SOL    HW216299   3.155   4.859   0.806  0.0886  1.8345  1.9527
 5134SOL     OW16300   0.465   5.733   2.289 -0.6689 -0.4748  0.0016
 5134SOL    HW116301   0.404   5.666   2.331 -1.6141  0.1505 -0.3289
 5134SOL    HW216302   0.476   5.811   2.351  0.4529 -0.9276  0.4005
 5135SOL     OW16303   0.230   1.391   0.958  0.1998  0.3596 -0.3132
 5135SOL    HW116304   0.287   1.312   0.933  1.0789  1.1810 -0.9824
 5135SOL    HW216305   0.288   1.462   0.998 -0.3162  1.2752 -1.1356
 5136SOL     OW16306   6.305   6.960   0.385 -0.2573 -0.4861  0.0374
 5136SOL    HW116307   6.321   6.960   0.286 -1.4096 -1.3301 -0.1652
 5136SOL    HW216308   6.267   6.872   0.412  1.7216 -0.9522  1.5296
 5137SOL     OW16309   4.017   0.468   1.866  0.4054 -0.1264 -0.5709
 5137SOL    HW116310   4.073   0.392   1.833  0.2556 -0.0660 -0.9757
 5137SOL    HW216311   3.964   0.438   1.945 -0.3693 -0.7443 -1.2921
 5138SOL     OW16312   3.915   3.510   3.145  0.1929  0.0117  0.0111
 5138SOL    HW116313   3.833   3.537   3.196 -0.3739  0.3435 -1.0209
 5138SOL    HW216314   3.981   3.469   3.206 -0.9039 -0.6005  0.8166
 5139SOL     OW16315   5.571   1.883   5.314 -0.5252  0.5982  0.6172
 5139SOL    HW116316   5.575   1.903   5.216  0.8523 -1.2815  0.2314
 5139SOL    HW216317   5.478   1.854   5.338 -0.3543 -1.2171 -0.6759
 5140SOL     OW16318   1.409   5.220   5.232  0.4147 -0.1826  0.4833
 5140SOL    HW116319   1.416   5.288   5.305 -0.3168  1.0606 -0.5518
 5140SOL    HW216320   1.472   5.244   5.158  1.5046 -1.6964  0.8633
 5141SOL     OW16321   6.987   2.551   2.102  0.5838 -0.0173 -0.3161
 5141SOL    HW116322   7.085   2.540   2.117  0.3330 -0.0733  1.4286
 5141SOL    HW216323   6.937   2.481   2.153 -0.3791  0.0320 -1.1497
 5142SOL     OW16324   6.853   4.301   3.717  0.6296 -0.5129  0.1882
 5142SOL    HW116325   6.941   4.257   3.737  0.8927 -0.9344 -1.7199
 5142SOL    HW216326   6.869   4.390   3.674  0.1978 -1.2769 -1.6583
 5143SOL     OW16327   0.663   5.011   1.319 -0.6371 -0.6942 -0.4423
 5143SOL    HW116328   0.701   5.040   1.406  0.4744 -1.7229 -0.5631
 5143SOL    HW216329   0.605   5.084   1.282 -0.0144  0.2944  0.4842
 5144SOL     OW16330   2.156   3.456   3.909 -0.9367  1.1094 -0.3380
 5144SOL    HW116331   2.179   3.366   3.945 -0.6154  1.1164 -0.5214
 5144SOL    HW216332   2.135   3.448   3.812  1.2476  1.5457 -0.9000
 5145SOL     OW16333   6.347   0.112   6.287  0.0264  0.4655 -0.2904
 5145SOL    HW116334   6.411   0.129   6.361 -0.0097  2.9057 -0.7588
 5145SOL    HW216335   6.386   0.144   6.201  0.1876 -2.5463 -1.4759
 5146SOL     OW16336   5.180   5.575   5.206 -0.5509  0.3524 -0.4974
 5146SOL    HW116337   5.104   5.532   5.254 -0.5844  0.5346 -0.3841
 5146SOL    HW216338   5.145   5.636   5.135 -0.5052  0.2166 -0.6376
 5147SOL     OW16339   4.349   0.933   2.026  0.5393 -0.5207  0.3555
 5147SOL    HW116340   4.343   0.936   2.126 -3.7575 -1.8132  0.3802
 5147SOL    HW216341   4.338   1.025   1.989  0.9929 -0.1750  1.0659
 5148SOL     OW16342   6.836   6.563   3.094 -0.2724 -0.1296 -0.3368
 5148SOL    HW116343   6.774   6.586   3.018 -1.2834 -0.6088  0.3115
 5148SOL    HW216344   6.792   6.495   3.153  1.3099 -1.2660 -0.4044
 5149SOL     OW16345   3.029   6.708   2.263  0.3018 -0.9084 -0.2010
 5149SOL    HW116346   2.984   6.752   2.341  0.0284  0.1792 -0.9525
 5149SOL    HW216347   3.066   6.620   2.292 -1.5630 -1.4611  0.6435
 5150SOL     OW16348   6.835   6.947   4.517 -0.0290  0.4784 -0.4612
 5150SOL    HW116349   6.878   6.882   4.579  0.5660  0.0401 -1.3121
 5150SOL    HW216350   6.784   7.015   4.570 -1.4810 -1.2198  0.4295
 5151SOL     OW16351   5.340   5.703   2.700  0.1467  0.1222 -0.0635
 5151SOL    HW116352   5.290   5.770   2.755  0.4923 -0.5130  1.0737
 5151SOL    HW216353   5.276   5.651   2.645 -0.0753  1.8177 -1.5076
 5152SOL     OW16354   3.329   3.415   6.792 -0.0889 -0.7989  0.1306
 5152SOL    HW116355   3.373   3.327   6.773 -0.7013 -1.1682  0.4062
 5152SOL    HW216356   3.245   3.400   6.844 -0.6672 -0.1140 -0.5853
 5153SOL     OW16357   2.876   1.249   0.079 -0.0956 -0.1504  0.1254
 5153SOL    HW116358   2.805   1.263   0.148 -1.8416 -1.1359 -1.3916
 5153SOL    HW216359   2.964   1.237   0.125 -1.0678 -0.1094  2.1290
 5154SOL     OW16360   5.975   2.160   0.482  0.0033  0.1114 -0.0398
 5154SOL    HW116361   5.881   2.191   0.467 -0.0369 -0.9701 -2.6562
 5154SOL    HW216362   6.037   2.238   0.475 -0.4080  0.3013 -2.7209
 5155SOL     OW16363   0.907   6.324   0.804  0.3457 -0.6363  0.5423
 5155SOL    HW116364   0.922   6.420   0.824  0.2094 -0.6394  0.6563
 5155SOL    HW216365   0.939   6.304   0.711  0.9840 -0.6277  0.7562
 5156SOL     OW16366   5.803   4.407   5.605 -0.3445 -0.2846  0.2914
 5156SOL    HW116367   5.729   4.422   5.670  0.2347  1.7228  0.5472
 5156SOL    HW216368   5.781   4.449   5.518  0.4531  0.2719  0.3469
 5157SOL     OW16369   4.451   2.112   2.418 -0.8189 -0.2576 -0.1865
 5157SOL    HW116370   4.508   2.096   2.499 -0.8336  0.4428 -0.0328
 5157SOL    HW216371   4.355   2.112   2.445 -0.7925  0.7916 -0.0494
 5158SOL     OW16372   0.989   1.489   1.006 -0.4060  0.1898  0.3291
 5158SOL    HW116373   0.948   1.544   0.934 -1.2091 -2.1975 -1.1846
 5158SOL    HW216374   1.053   1.544   1.060 -1.5543  2.6345 -0.7052
 5159SOL     OW16375   0.611   3.219   5.360 -0.5784  0.8346  0.5209
 5159SOL    HW116376   0.706   3.187   5.361 -1.3288 -1.6919 -0.5623
 5159SOL    HW216377   0.598   3.279   5.281 -0.0830  0.4248  0.1125
 5160SOL     OW16378   5.449   1.331   4.159 -0.4689  0.4501 -0.4095
 5160SOL    HW116379   5.356   1.296   4.148 -0.3688 -0.3527  1.0597
 5160SOL    HW216380   5.512   1.278   4.102 -0.4737 -1.2109  1.0147
 5161SOL     OW16381   0.562   0.795   5.786  0.0932 -0.1082  0.3819
 5161SOL    HW116382   0.563   0.865   5.714 -0.7400 -0.1112  0.3527
 5161SOL    HW216383   0.587   0.837   5.873 -0.9091  0.3546  0.4613
 5162SOL     OW16384   5.929   0.790   6.734  0.5194 -0.2878 -0.0173
 5162SOL    HW116385   5.877   0.734   6.798 -1.5640  1.3596 -0.1541
 5162SOL    HW216386   5.967   0.869   6.781  2.1476 -0.9740 -0.1218
 5163SOL     OW16387   1.196   2.456   1.836 -0.1747  0.6878 -0.5525
 5163SOL    HW116388   1.121   2.497   1.887 -0.5733  1.0323 -1.3853
 5163SOL    HW216389   1.199   2.358   1.854 -0.2646  0.8098  0.1648
 5164SOL     OW16390   4.190   3.570   6.572  0.1268 -0.1958 -0.4674
 5164SOL    HW116391   4.135   3.487   6.578  2.9877 -2.2521 -0.8607
 5164SOL    HW216392   4.203   3.608   6.664 -0.9577 -0.2956 -0.2543
 5165SOL     OW16393   6.239   1.016   4.913  0.1521 -0.6987  0.9211
 5165SOL    HW116394   6.261   1.011   5.010 -2.0879  0.9348  1.5930
 5165SOL    HW216395   6.170   0.947   4.890 -1.4737  0.7454  1.2256
 5166SOL     OW16396   5.719   6.433   4.730 -0.1029  0.3055 -0.0049
 5166SOL    HW116397   5.737   6.478   4.817  0.6082  0.0747 -0.0243
 5166SOL    HW216398   5.682   6.342   4.746  1.2362 -0.2494  0.1012
 5167SOL     OW16399   6.543   2.006   0.615 -0.1426 -0.5717 -0.0655
 5167SOL    HW116400   6.585   1.956   0.540 -0.4061 -0.5222 -0.2470
 5167SOL    HW216401   6.555   2.105   0.601 -1.0958 -0.5134 -0.5919
 5168SOL     OW16402   5.411   5.608   5.324  0.2674  0.1594  0.2617
 5168SOL    HW116403   5.325   5.597   5.274 -0.2953  2.4942  0.6003
 5168SOL    HW216404   5.418   5.538   5.394 -2.4703  1.1793  1.6986
 5169SOL     OW16405   6.405   6.009   5.183 -0.9485  0.3046 -0.2623
 5169SOL    HW116406   6.375   5.985   5.091 -0.4948 -1.1016 -0.0619
 5169SOL    HW216407   6.446   6.100   5.182  0.1790 -0.1771 -1.7145
 5170SOL     OW16408   3.232   3.879   7.009 -0.2377  0.5057 -0.1518
 5170SOL    HW116409   3.313   3.820   7.004  1.9463  3.3443 -1.8028
 5170SOL    HW216410   3.192   3.874   7.101  2.4779 -0.2391  1.0934
 5171SOL     OW16411   0.666   6.176   4.931  0.4795  0.5367 -0.1634
 5171SOL    HW116412   0.664   6.216   5.023  0.5530  0.3770 -0.0918
 5171SOL    HW216413   0.635   6.244   4.865  1.3179  0.9577 -0.1348
 5172SOL     OW16414   3.853   5.165   3.890  0.0635  0.7082 -0.3499
 5172SOL    HW116415   3.824   5.225   3.814 -0.0098  1.1113 -0.0084
 5172SOL    HW216416   3.899   5.084   3.853 -1.9748 -0.2464 -0.9730
 5173SOL     OW16417   4.028   0.055   3.314  0.4275 -0.3047  0.1123
 5173SOL    HW116418   4.028  -0.006   3.394  0.3396  1.1501  1.2633
 5173SOL    HW216419   4.122   0.074   3.287  0.4981  0.2039  0.6873
 5174SOL     OW16420   0.725   5.005   4.860  0.0567 -0.2745 -0.2269
 5174SOL    HW116421   0.708   5.087   4.915 -0.9319 -0.8309  0.3320
 5174SOL    HW216422   0.784   5.028   4.783  1.4357  0.5365  1.0340
 5175SOL     OW16423   2.060   2.145   6.855  0.4539 -0.2161 -0.4337
 5175SOL    HW116424   2.134   2.096   6.809  1.7627  0.4309  0.8851
 5175SOL    HW216425   2.047   2.107   6.947 -1.7846 -1.1741 -1.0731
 5176SOL     OW16426   5.793   5.019   6.198  0.5062 -0.0825 -0.2751
 5176SOL    HW116427   5.711   4.963   6.211  0.7614 -0.4196 -0.0761
 5176SOL    HW216428   5.844   4.986   6.119  0.4693  0.1009 -0.3753
 5177SOL     OW16429   4.924   5.819   1.535  0.5155  0.8151  0.0638
 5177SOL    HW116430   4.969   5.767   1.607 -2.2650  0.7820  1.9593
 5177SOL    HW216431   4.926   5.768   1.450  0.8624 -0.8024  1.0079
 5178SOL     OW16432   1.971   4.497   1.422 -0.1247 -0.0915 -0.1782
 5178SOL    HW116433   1.958   4.530   1.329 -1.4360 -2.6553 -0.9676
 5178SOL    HW216434   1.902   4.429   1.445  0.1791  0.4163  2.6900
 5179SOL     OW16435   3.642   4.880   1.260 -0.6606  0.3734 -0.0839
 5179SOL    HW116436   3.544   4.884   1.278 -0.5214 -0.2796  0.9090
 5179SOL    HW216437   3.677   4.972   1.246 -1.8858  0.4904 -3.3482
 5180SOL     OW16438   3.522   6.708   3.130 -0.6738  0.0304 -0.1645
 5180SOL    HW116439   3.520   6.662   3.041 -0.1384  0.4740 -0.4146
 5180SOL    HW216440   3.461   6.661   3.193  0.8140 -1.8264 -0.0112
 5181SOL     OW16441   0.389   0.895   0.815 -0.1438 -0.0308  0.6570
 5181SOL    HW116442   0.401   0.799   0.789 -1.1166 -0.9089  3.1769
 5181SOL    HW216443   0.394   0.952   0.733 -2.4339 -2.4894 -1.3915
 5182SOL     OW16444   1.798   6.616   3.385  0.0733  0.3696  0.7199
 5182SOL    HW116445   1.715   6.586   3.433  0.6240  1.0564  2.1254
 5182SOL    HW216446   1.851   6.535   3.358  0.1477 -0.0113  1.9688
 5183SOL     OW16447   6.763   2.631   3.325  0.0820 -0.2837 -0.0115
 5183SOL    HW116448   6.835   2.584   3.275  0.4997  0.3137  0.0135
 5183SOL    HW216449   6.740   2.578   3.407 -0.5881 -1.2473 -0.8035
 5184SOL     OW16450   2.613   2.427   0.775 -0.5254  0.5152  0.4392
 5184SOL    HW116451   2.701   2.413   0.821  0.3527  0.1666 -1.2962
 5184SOL    HW216452   2.546   2.364   0.813  0.2964 -0.0805  0.9416
 5185SOL     OW16453   5.539   1.324   0.714 -0.2235  0.5412 -0.3114
 5185SOL    HW116454   5.446   1.345   0.683 -0.5976  0.1904  0.5426
 5185SOL    HW216455   5.604   1.346   0.641 -1.0343  0.0806 -1.1914
 5186SOL     OW16456   0.414   1.516   6.221  0.9171  0.2096 -0.3529
 5186SOL    HW116457   0.503   1.478   6.247  0.9271 -0.4894 -1.3222
 5186SOL    HW216458   0.363   1.541   6.303  0.3662 -3.2024  0.4964
 5187SOL     OW16459   6.857   3.060   5.354  0.1354  0.4839 -0.4288
 5187SOL    HW116460   6.948   3.056   5.394 -0.0170 -0.0247 -0.1176
 5187SOL    HW216461   6.817   3.151   5.369  1.4646  1.5000 -2.5534
 5188SOL     OW16462   5.348   1.567   0.404  0.0097  0.2214  0.0991
 5188SOL    HW116463   5.414   1.640   0.389  2.0627 -1.3385  1.0253
 5188SOL    HW216464   5.320   1.529   0.315  2.2919 -0.6717 -0.3076
 5189SOL     OW16465   3.987   4.241   5.656 -0.2786 -0.2345  0.6691
 5189SOL    HW116466   3.900   4.271   5.617  0.5511  0.3642 -0.8120
 5189SOL    HW216467   4.047   4.209   5.583  1.1239  0.3404  1.5259
 5190SOL     OW16468   1.434   5.640   6.980  0.3704 -0.1533  1.1376
 5190SOL    HW116469   1.447   5.593   6.893  0.3981 -0.2998  1.2201
 5190SOL    HW216470   1.503   5.712   6.990  0.7822 -0.5672  1.3300
 5191SOL     OW16471   2.904   4.576   0.129 -0.0503 -0.1013 -0.2402
 5191SOL    HW116472   2.868   4.506   0.067 -0.9676 -1.1046  1.3512
 5191SOL    HW216473   2.995   4.550   0.160 -0.6710 -0.9920  0.8979
 5192SOL     OW16474   0.776   4.038   2.304  0.5096  0.6515 -0.0894
 5192SOL    HW116475   0.840   4.103   2.344  0.0178  1.4531 -0.5672
 5192SOL    HW216476   0.684   4.078   2.304  0.0992 -0.2720  0.1170
 5193SOL     OW16477   2.216   1.554   5.908  0.3580 -0.5527 -0.6188
 5193SOL    HW116478   2.291   1.619   5.903  1.1959 -1.4787 -0.3673
 5193SOL    HW216479   2.216   1.497   5.826 -1.7620  1.1940 -1.9514
 5194SOL     OW16480   3.484   2.115   3.614 -0.1894 -0.0918  0.1230
 5194SOL    HW116481   3.436   2.095   3.700 -0.3110  2.3885  0.7247
 5194SOL    HW216482   3.423   2.164   3.552  1.5290  3.9636  1.2518
 5195SOL     OW16483   0.754   6.922   5.891 -0.1562  0.6636  0.6880
 5195SOL    HW116484   0.826   6.904   5.824 -0.6402  2.1593 -0.2846
 5195SOL    HW216485   0.795   6.951   5.977  0.4587 -0.8638  0.9395
 5196SOL     OW16486   5.966   5.883   3.768 -0.2114 -0.4902 -0.4095
 5196SOL    HW116487   5.962   5.788   3.736  0.3188  0.0181 -2.0656
 5196SOL    HW216488   5.907   5.940   3.711  0.7492  0.4567 -0.4827
 5197SOL     OW16489   3.581   4.086   3.529  0.0397 -0.2010  0.0741
 5197SOL    HW116490   3.514   4.104   3.458 -0.7768 -2.0993  0.3202
 5197SOL    HW216491   3.661   4.041   3.489 -0.0126 -0.4218  0.2210
 5198SOL     OW16492   0.929   4.497   4.143  0.1004  0.5934  0.0259
 5198SOL    HW116493   0.958   4.406   4.111 -0.4530  0.5949 -0.4990
 5198SOL    HW216494   0.850   4.487   4.204 -0.1109  0.7380 -0.2247
 5199SOL     OW16495   0.720   5.902   0.823  0.0833 -0.2342  0.2432
 5199SOL    HW116496   0.701   5.967   0.749 -0.8216  0.5053  1.0963
 5199SOL    HW216497   0.633   5.867   0.860  0.5381 -2.7688 -0.8862
 5200SOL     OW16498   6.384   3.166   0.649  0.9596 -0.1502  0.6526
 5200SOL    HW116499   6.353   3.251   0.605  0.9319  0.9350  2.6610
 5200SOL    HW216500   6.439   3.114   0.584 -0.2680  0.6470 -1.1300
 5201SOL     OW16501   1.081   5.609   5.954  0.1759 -0.1821  0.2463
 5201SOL    HW116502   1.069   5.612   6.053 -1.2433  0.0153  0.0920
 5201SOL    HW216503   1.018   5.540   5.915  0.0934  0.3534 -0.5891
 5202SOL     OW16504   1.035   5.579   6.203 -0.1074 -0.2802  0.0184
 5202SOL    HW116505   1.113   5.566   6.265 -1.1370 -1.3121  1.1255
 5202SOL    HW216506   0.995   5.669   6.219 -0.1752 -0.4188  0.6408
 5203SOL     OW16507   6.339   2.913   6.821  0.4927 -0.2110  0.1020
 5203SOL    HW116508   6.394   2.961   6.890  0.4052  0.6671 -0.4325
 5203SOL    HW216509   6.331   2.817   6.847  1.9275 -0.2651  0.4085
 5204SOL     OW16510   5.373   6.925   5.494  0.0780  0.4025 -0.2272
 5204SOL    HW116511   5.400   7.005   5.548 -0.5002  0.0120  0.6732
 5204SOL    HW216512   5.292   6.883   5.535  0.6098 -0.8778 -0.4446
 5205SOL     OW16513   2.406   0.902   6.112 -0.0959 -0.1076 -0.4064
 5205SOL    HW116514   2.352   0.866   6.036 -0.2844  0.2463 -0.4417
 5205SOL    HW216515   2.474   0.966   6.078  1.4449 -1.7314 -0.5580
 5206SOL     OW16516   1.495   2.857   5.290 -0.3794 -0.2823  0.1068
 5206SOL    HW116517   1.584   2.812   5.290  1.0486  2.2978  1.4157
 5206SOL    HW216518   1.476   2.895   5.199  1.9193  2.6748  0.7136
 5207SOL     OW16519   0.972   0.548   1.128 -0.1476  0.2289  0.6142
 5207SOL    HW116520   1.040   0.493   1.177 -0.4590 -0.5424  0.1987
 5207SOL    HW216521   1.018   0.620   1.078  0.4297 -0.5833 -0.0564
 5208SOL     OW16522   4.995   4.089   1.864  0.3310 -0.1078 -0.1464
 5208SOL    HW116523   5.070   4.100   1.798  1.6997 -1.2798  1.1494
 5208SOL    HW216524   4.914   4.056   1.817  0.3853  1.7545 -1.6975
 5209SOL     OW16525   6.799   0.628   3.822  0.8367  0.0403  0.5949
 5209SOL    HW116526   6.865   0.576   3.767 -1.8716 -1.6445 -1.2875
 5209SOL    HW216527   6.818   0.726   3.812  2.1007 -0.3306 -1.1228
 5210SOL     OW16528   4.127   2.781   1.637  0.0277  0.1298 -0.0760
 5210SOL    HW116529   4.119   2.682   1.646 -0.6579 -0.1386 -2.9394
 5210SOL    HW216530   4.047   2.825   1.679 -0.9922 -0.7014 -1.1057
 5211SOL     OW16531   1.691   4.586   1.316  0.1839 -0.0494  0.1880
 5211SOL    HW116532   1.768   4.638   1.280 -0.3041 -1.5491 -3.4417
 5211SOL    HW216533   1.722   4.496   1.347 -0.0500 -0.6468 -1.2572
 5212SOL     OW16534   1.047   0.107   3.899  0.2286  0.7489  0.0878
 5212SOL    HW116535   1.042   0.205   3.880  1.3362  1.2896  2.2164
 5212SOL    HW216536   0.954   0.071   3.909 -0.2096  1.4031 -1.3805
 5213SOL     OW16537   5.565   2.977   0.150  0.1525  0.0058  0.0077
 5213SOL    HW116538   5.558   3.058   0.208  3.3915  0.1957  0.3600
 5213SOL    HW216539   5.648   2.926   0.175 -1.0886 -2.7417 -1.0653
 5214SOL     OW16540   4.474   0.523   6.701  0.0770 -0.5459  0.0521
 5214SOL    HW116541   4.428   0.460   6.638  0.7953  0.2767 -1.3423
 5214SOL    HW216542   4.417   0.536   6.782 -1.2699 -0.9867 -0.7888
 5215SOL     OW16543   4.327   6.085   3.582  0.2422  0.0359 -0.7088
 5215SOL    HW116544   4.267   6.031   3.641 -2.3826  2.8948 -0.5531
 5215SOL    HW216545   4.384   6.145   3.638  0.2881  0.2511 -0.9811
 5216SOL     OW16546   3.203   1.553   1.494 -0.7283 -0.1266 -1.0024
 5216SOL    HW116547   3.244   1.643   1.483 -0.2023 -0.2726 -0.2796
 5216SOL    HW216548   3.275   1.483   1.498 -1.1421 -0.6330 -1.9685
 5217SOL     OW16549   3.177   4.863   3.729 -0.4196 -0.1892  0.2180
 5217SOL    HW116550   3.087   4.828   3.756 -0.3444 -0.4019  0.1935
 5217SOL    HW216551   3.190   4.849   3.630 -0.3029 -0.2880  0.2467
 5218SOL     OW16552   2.382   1.810   4.008  0.0952  0.1365  0.4958
 5218SOL    HW116553   2.393   1.843   3.914  1.0109  0.2801  0.6464
 5218SOL    HW216554   2.329   1.726   4.009 -0.3680  0.4198 -0.1007
 5219SOL     OW16555   2.474   0.064   6.765 -0.6800 -0.0859 -0.4053
 5219SOL    HW116556   2.525   0.001   6.707  1.0145 -0.0995  1.0190
 5219SOL    HW216557   2.497   0.158   6.740  1.0443 -0.0809  0.9547
 5220SOL     OW16558   0.637   6.728   0.859 -0.6141 -0.0105  0.0944
 5220SOL    HW116559   0.699   6.796   0.897 -1.2788  0.8325 -0.2861
 5220SOL    HW216560   0.550   6.732   0.907 -0.5149 -0.9080  0.3593
 5221SOL     OW16561   4.317   7.008   0.798  0.6057  0.7567 -0.7666
 5221SOL    HW116562   4.413   7.019   0.824  0.2039 -0.2846  1.3802
 5221SOL    HW216563   4.263   7.080   0.840 -0.0193 -0.7846  1.2108
 5222SOL     OW16564   0.209   4.120   2.191 -0.1677 -0.4865 -0.0581
 5222SOL    HW116565   0.178   4.108   2.285 -0.2455  1.8552  0.2735
 5222SOL    HW216566   0.131   4.146   2.134 -0.1831 -2.1886 -0.8849
 5223SOL     OW16567   3.821   5.356   1.943 -0.1537 -0.0916  0.1494
 5223SOL    HW116568   3.738   5.351   1.998 -0.6456 -0.4002 -0.5962
 5223SOL    HW216569   3.873   5.271   1.952 -1.1537 -0.8914 -1.2418
 5224SOL     OW16570   4.047   1.656   0.880  0.4446 -0.1731  0.3205
 5224SOL    HW116571   4.092   1.569   0.862  0.3803 -0.3666  1.0568
 5224SOL    HW216572   4.112   1.731   0.868 -0.2051  0.0026 -3.3263
 5225SOL     OW16573   5.274   1.102   6.562 -0.4059 -0.1486 -0.1275
 5225SOL    HW116574   5.224   1.168   6.617 -0.7464 -0.9854  0.5814
 5225SOL    HW216575   5.366   1.138   6.543 -0.3885  0.2906  0.7232
 5226SOL     OW16576   3.556   1.357   4.240  0.3213  0.0721 -0.3737
 5226SOL    HW116577   3.597   1.411   4.313 -0.3183 -0.1449  0.1520
 5226SOL    HW216578   3.608   1.370   4.155  1.0120  0.3934  0.0959
 5227SOL     OW16579   5.803   3.758   4.635  0.0902  0.0859 -0.0296
 5227SOL    HW116580   5.748   3.727   4.557 -0.7824 -0.0864  0.6367
 5227SOL    HW216581   5.834   3.678   4.687  0.5437  0.2070 -0.1064
 5228SOL     OW16582   5.713   6.124   1.302 -0.4933 -0.2165  0.1294
 5228SOL    HW116583   5.669   6.036   1.322  0.1719 -0.9759 -1.4839
 5228SOL    HW216584   5.797   6.107   1.249 -0.6179  1.4151 -0.6391
 5229SOL     OW16585   0.543   2.813   3.401 -0.3661  0.5395 -0.2039
 5229SOL    HW116586   0.519   2.760   3.482  0.9342 -0.6956 -0.6002
 5229SOL    HW216587   0.491   2.780   3.322 -0.6852  0.8818 -0.1378
 5230SOL     OW16588   6.858   3.035   6.046 -0.0284  0.1031 -0.1561
 5230SOL    HW116589   6.827   3.056   5.954  1.0027  1.8282 -0.1513
 5230SOL    HW216590   6.873   2.936   6.055 -0.5884 -0.1414 -1.6606
 5231SOL     OW16591   2.942   3.737   3.697 -0.3425  0.0907  0.2222
 5231SOL    HW116592   2.912   3.777   3.611  0.3462 -2.1974 -1.1508
 5231SOL    HW216593   2.923   3.639   3.697  2.3717 -0.5238  1.3981
 5232SOL     OW16594   6.220   2.809   4.964 -0.6245  0.4948 -0.1292
 5232SOL    HW116595   6.170   2.818   5.050 -0.6500  0.7245 -0.1682
 5232SOL    HW216596   6.280   2.729   4.969 -0.9863  0.2243 -0.0793
 5233SOL     OW16597   6.787   0.368   2.331 -0.1691 -0.0231 -0.5548
 5233SOL    HW116598   6.752   0.274   2.332  0.0334 -0.1308  1.2692
 5233SOL    HW216599   6.743   0.421   2.403  1.7916  0.4352  0.3986
 5234SOL     OW16600   3.359   2.947   1.353  0.1926  1.0449  0.6224
 5234SOL    HW116601   3.321   2.897   1.275  1.1860  0.4664  0.4943
 5234SOL    HW216602   3.351   3.045   1.336 -0.9485  0.9392  0.4696
 5235SOL     OW16603   0.352   1.285   1.888 -0.2527  0.5027  0.1517
 5235SOL    HW116604   0.289   1.234   1.830  0.3694  0.4472 -0.4867
 5235SOL    HW216605   0.357   1.243   1.978  1.6419 -1.7152 -0.8911
 5236SOL     OW16606   1.320   3.168   2.442  0.3228  0.2384  0.4953
 5236SOL    HW116607   1.280   3.254   2.474 -0.0176  0.0518  0.5849
 5236SOL    HW216608   1.250   3.114   2.395  0.8937  0.6327 -0.8334
 5237SOL     OW16609   2.383   2.672   3.014  0.2616  0.3102  0.1301
 5237SOL    HW116610   2.437   2.611   3.073 -0.6008 -0.0635  0.5445
 5237SOL    HW216611   2.420   2.670   2.921 -0.4594 -1.7959 -0.1710
 5238SOL     OW16612   1.908   2.397   1.407 -0.6181  0.7164 -0.1353
 5238SOL    HW116613   1.955   2.377   1.321 -1.0566 -1.1835  0.0213
 5238SOL    HW216614   1.874   2.312   1.447 -1.4858  1.6985  1.3167
 5239SOL     OW16615   2.173   2.287   5.134 -0.0608  0.4558 -0.0114
 5239SOL    HW116616   2.166   2.212   5.200 -0.9843 -0.2567 -0.8879
 5239SOL    HW216617   2.085   2.334   5.126  0.6363  1.9985  0.9084
 5240SOL     OW16618   5.500   1.921   4.178 -0.0794  0.8477  0.0295
 5240SOL    HW116619   5.465   1.867   4.102 -2.4855  1.3553  0.6987
 5240SOL    HW216620   5.560   1.864   4.234 -1.1097 -0.6094 -0.2808
 5241SOL     OW16621   4.130   5.756   5.158 -0.9315 -0.1313 -0.0246
 5241SOL    HW116622   4.208   5.697   5.180 -0.5245 -0.4978 -2.2682
 5241SOL    HW216623   4.161   5.851   5.156 -0.4604 -0.2915 -1.1015
 5242SOL     OW16624   1.875   1.049   5.947 -0.0799 -0.2938  0.1135
 5242SOL    HW116625   1.898   0.975   6.011 -1.0930 -0.2939  0.4849
 5242SOL    HW216626   1.924   1.033   5.860 -0.0519 -1.2398  0.2841
 5243SOL     OW16627   1.455   3.681   0.654  0.2672  0.9844 -0.3583
 5243SOL    HW116628   1.527   3.725   0.599 -0.3878  0.2317 -1.8972
 5243SOL    HW216629   1.432   3.593   0.613  0.3692 -0.0505  1.6849
 5244SOL     OW16630   6.376   2.212   1.246  0.5484 -0.3957 -0.0028
 5244SOL    HW116631   6.406   2.265   1.326 -0.8900  0.3378  0.0821
 5244SOL    HW216632   6.406   2.258   1.162 -0.9750  0.8229  0.0585
 5245SOL     OW16633   2.185   6.028   5.338 -0.2282 -0.0623  0.0909
 5245SOL    HW116634   2.132   6.112   5.329 -2.2853 -1.4153 -1.5526
 5245SOL    HW216635   2.236   6.012   5.254 -0.6259 -0.9024 -0.0080
 5246SOL     OW16636   1.486   4.140   3.388 -0.1212 -0.4704 -0.0987
 5246SOL    HW116637   1.573   4.175   3.352 -0.0872 -0.7297 -0.2688
 5246SOL    HW216638   1.415   4.209   3.375  0.2938  0.2216  1.0884
 5247SOL     OW16639   2.130   5.218   6.233 -0.4182 -0.4051 -0.6949
 5247SOL    HW116640   2.053   5.190   6.291  0.7036 -2.2060  0.0326
 5247SOL    HW216641   2.133   5.160   6.151 -0.3090  0.2051 -1.1323
 5248SOL     OW16642   4.849   1.226   1.657 -0.1275  0.1196  0.5099
 5248SOL    HW116643   4.901   1.236   1.742  0.6605 -0.1781  0.0688
 5248SOL    HW216644   4.759   1.270   1.668 -0.0990 -0.0515  1.5421
 5249SOL     OW16645   1.500   5.786   5.958 -1.0781  0.3323 -0.1955
 5249SOL    HW116646   1.480   5.783   6.056  0.3491 -0.5256  0.0934
 5249SOL    HW216647   1.421   5.752   5.907 -1.0027 -1.4623  0.8008
 5250SOL     OW16648   1.296   2.056   0.660 -0.1796  0.2334 -0.2440
 5250SOL    HW116649   1.327   2.149   0.680  2.0495  0.6331 -4.3854
 5250SOL    HW216650   1.223   2.059   0.592 -2.5068 -1.1176  1.9933
 5251SOL     OW16651   1.035   2.824   3.943  0.4491  0.3111 -0.6928
 5251SOL    HW116652   1.067   2.739   3.985  2.3446  0.6393 -1.3857
 5251SOL    HW216653   0.953   2.805   3.888 -0.7637 -0.5174  1.3004
 5252SOL     OW16654   5.834   5.279   2.524 -0.1157 -0.0759  0.8798
 5252SOL    HW116655   5.920   5.241   2.558  0.2961  1.8871  2.2274
 5252SOL    HW216656   5.757   5.235   2.569  0.1552 -1.6765 -0.1567
 5253SOL     OW16657   4.855   3.032   3.481  0.6356  0.3273  0.2495
 5253SOL    HW116658   4.854   2.957   3.546  0.4755  0.0630 -0.0556
 5253SOL    HW216659   4.852   3.119   3.530 -0.7759  0.1205  0.5558
 5254SOL     OW16660   4.408   1.451   5.699  0.5957  0.3030 -0.5568
 5254SOL    HW116661   4.428   1.515   5.625 -0.0304  0.5818 -0.4959
 5254SOL    HW216662   4.434   1.358   5.671 -0.4334  0.2663 -1.4920
 5255SOL     OW16663   0.895   4.851   1.295 -0.6133  0.7394 -0.4532
 5255SOL    HW116664   0.981   4.902   1.304 -0.7150  0.7867  0.3383
 5255SOL    HW216665   0.819   4.910   1.324 -1.1263  1.2768 -2.7164
 5256SOL     OW16666   4.310   5.733   1.126 -0.2350 -0.4648 -0.0470
 5256SOL    HW116667   4.324   5.807   1.192  0.3317 -1.3902  0.9131
 5256SOL    HW216668   4.396   5.684   1.112 -0.1869  0.1008 -2.0007
 5257SOL     OW16669   3.223   1.047   1.614  0.1178 -0.0823  0.2270
 5257SOL    HW116670   3.210   0.951   1.636  0.4474 -0.2258 -0.1826
 5257SOL    HW216671   3.321   1.067   1.608  0.0516  0.0659 -0.5707
 5258SOL     OW16672   0.163   3.733   2.898 -0.1823  0.0202  0.1070
 5258SOL    HW116673   0.116   3.808   2.944  0.1279  0.6164 -0.5386
 5258SOL    HW216674   0.143   3.647   2.945  0.5621  0.6759  1.7023
 5259SOL     OW16675   5.454   6.187   0.952 -0.2121 -0.2533 -0.1398
 5259SOL    HW116676   5.502   6.099   0.952  0.1157 -0.1948 -3.3200
 5259SOL    HW216677   5.503   6.251   0.893 -1.6717  1.3448  0.3236
 5260SOL     OW16678   6.121   3.344   1.982  0.0526  0.2875  0.3591
 5260SOL    HW116679   6.191   3.407   2.015 -0.7219  1.3080  0.0912
 5260SOL    HW216680   6.037   3.394   1.962 -0.2489 -0.6605 -0.8798
 5261SOL     OW16681   1.946   3.396   5.703  0.2241  0.1305 -0.3711
 5261SOL    HW116682   1.931   3.414   5.800 -2.2193 -0.8532 -0.5121
 5261SOL    HW216683   1.918   3.476   5.650  1.4843  0.6374 -0.3118
 5262SOL     OW16684   3.042   5.453   1.447 -0.0184  0.1706 -1.0415
 5262SOL    HW116685   2.983   5.378   1.477 -0.2797  0.6468 -0.3490
 5262SOL    HW216686   2.997   5.505   1.376 -1.7423  2.2704  1.3978
 5263SOL     OW16687   1.785   6.174   6.696  0.3550 -0.2607  0.7967
 5263SOL    HW116688   1.729   6.255   6.716  1.1360  0.8636 -1.2774
 5263SOL    HW216689   1.851   6.197   6.625  1.8617 -2.2382  1.4868
 5264SOL     OW16690   1.374   5.688   1.113 -0.7873 -1.1421 -0.4316
 5264SOL    HW116691   1.436   5.765   1.131 -0.4483 -1.1176 -1.6114
 5264SOL    HW216692   1.292   5.698   1.169  0.6183 -1.6457  1.8694
 5265SOL     OW16693   5.664   5.258   3.443 -0.3814  0.3065  0.2956
 5265SOL    HW116694   5.644   5.184   3.507 -0.4846  1.3246  1.4674
 5265SOL    HW216695   5.732   5.227   3.376 -1.0419 -1.1022  0.2409
 5266SOL     OW16696   6.633   6.784   0.389  0.1827 -0.0537 -1.0589
 5266SOL    HW116697   6.642   6.849   0.465  3.0439 -2.1722  0.6187
 5266SOL    HW216698   6.593   6.699   0.423  1.1540 -0.9042 -1.9957
 5267SOL     OW16699   3.412   3.875   3.833 -0.2386  0.0297  0.4540
 5267SOL    HW116700   3.446   3.850   3.924  0.5380  0.0937  0.1881
 5267SOL    HW216701   3.369   3.795   3.791 -1.1217  0.1546  1.1046
 5268SOL     OW16702   6.135   2.796   6.105  0.2946 -0.5349  0.5844
 5268SOL    HW116703   6.149   2.778   6.202 -0.6692  0.2360  0.8788
 5268SOL    HW216704   6.088   2.884   6.093 -0.3349 -0.9997 -0.5357
 5269SOL     OW16705   1.019   4.105   6.355  0.3168  0.9391 -0.3157
 5269SOL    HW116706   1.113   4.108   6.388 -0.2753 -1.3493  1.9504
 5269SOL    HW216707   1.014   4.050   6.272  0.8367 -0.2032  0.3840
 5270SOL     OW16708   0.549   6.828   1.647  0.1681 -0.0816 -1.0650
 5270SOL    HW116709   0.593   6.917   1.659  1.3657 -0.5830 -1.6174
 5270SOL    HW216710   0.450   6.838   1.662  0.5103  0.9284  0.9488
 5271SOL     OW16711   0.237   4.681   4.977 -0.4276  0.0871 -0.6618
 5271SOL    HW116712   0.200   4.625   4.903 -1.1403 -0.2950 -0.0430
 5271SOL    HW216713   0.169   4.750   5.004 -1.0954 -1.1497  1.0428
 5272SOL     OW16714   1.310   3.457   2.992 -0.0775  0.1024  0.1423
 5272SOL    HW116715   1.366   3.449   2.910  0.1078 -0.5992  0.3364
 5272SOL    HW216716   1.347   3.530   3.050 -1.7308  2.4880 -1.5785
 5273SOL     OW16717   1.259   0.227   0.877 -0.3040  0.0910 -0.3754
 5273SOL    HW116718   1.266   0.155   0.808  0.3746 -0.4139  0.2004
 5273SOL    HW216719   1.350   0.245   0.915 -0.7494 -0.0253  0.7766
 5274SOL     OW16720   0.183   3.364   4.331  0.5049 -0.0967  0.0830
 5274SOL    HW116721   0.168   3.268   4.354 -0.0542  0.1280  0.6720
 5274SOL    HW216722   0.125   3.388   4.253 -1.2312  0.3926  1.4642
 5275SOL     OW16723   3.123   5.745   6.278  0.0314  0.0896  0.0908
 5275SOL    HW116724   3.113   5.844   6.290  0.4938 -0.0486  2.0488
 5275SOL    HW216725   3.219   5.720   6.290 -0.2660 -0.7205  0.8861
 5276SOL     OW16726   1.031   0.335   6.749 -0.0818 -0.1604  0.0296
 5276SOL    HW116727   0.943   0.371   6.719 -0.4585 -0.6491  0.5117
 5276SOL    HW216728   1.047   0.247   6.705  0.0272 -0.2083  0.1658
 5277SOL     OW16729   0.852   6.762   1.395 -0.0113 -0.6909  1.2188
 5277SOL    HW116730   0.891   6.727   1.309 -1.6490 -1.8691  0.9044
 5277SOL    HW216731   0.926   6.777   1.461  1.2259 -0.3597 -0.1703
 5278SOL     OW16732   0.020   5.761   6.521 -0.2663  0.2324 -0.1690
 5278SOL    HW116733  -0.047   5.825   6.559 -0.9055 -0.3433 -0.2941
 5278SOL    HW216734   0.050   5.698   6.592  0.0957  0.4451 -0.1310
 5279SOL     OW16735   3.428   0.732   1.524  0.7722  0.1288  0.2591
 5279SOL    HW116736   3.376   0.738   1.439  1.0018 -0.8318  0.0432
 5279SOL    HW216737   3.368   0.755   1.601  0.7175  1.6024 -0.1838
 5280SOL     OW16738   4.326   3.978   0.013 -0.1490  0.0202 -0.2775
 5280SOL    HW116739   4.310   4.076   0.000 -1.0788 -0.1302 -0.3700
 5280SOL    HW216740   4.388   3.964   0.090  1.9736  0.7619 -1.7658
 5281SOL     OW16741   2.100   5.457   4.817 -0.5169 -0.3917  0.5905
 5281SOL    HW116742   2.105   5.520   4.894 -1.5522  0.6625 -0.1723
 5281SOL    HW216743   2.033   5.385   4.838  2.3725 -2.7621  2.4641
 5282SOL     OW16744   0.251   5.302   2.270 -0.3143 -0.1446 -0.9337
 5282SOL    HW116745   0.233   5.379   2.330  1.1892 -0.9235  0.5975
 5282SOL    HW216746   0.225   5.326   2.176 -1.3648  1.6154 -0.2409
 5283SOL     OW16747   1.657   0.295   5.624  0.3991 -0.1814  0.1419
 5283SOL    HW116748   1.603   0.376   5.650 -1.5512 -0.4681 -2.6266
 5283SOL    HW216749   1.741   0.324   5.578 -1.0153  0.4122 -2.2433
 5284SOL     OW16750   5.256   2.972   3.796  0.5125 -0.4519 -0.4556
 5284SOL    HW116751   5.245   2.986   3.697 -1.0480 -1.8542 -0.5146
 5284SOL    HW216752   5.319   2.896   3.811 -0.4548 -1.2647 -0.4291
 5285SOL     OW16753   0.839   0.744   3.453  0.2322 -0.3325  0.1368
 5285SOL    HW116754   0.868   0.786   3.367  0.8229  1.0350  0.9767
 5285SOL    HW216755   0.810   0.815   3.517 -1.5317 -1.4211  0.6200
 5286SOL     OW16756   6.227   0.621   1.884 -0.3681 -0.1252  0.2594
 5286SOL    HW116757   6.298   0.565   1.842 -0.9320 -0.7461  0.1183
 5286SOL    HW216758   6.259   0.653   1.974  1.5180  2.5738 -1.2251
 5287SOL     OW16759   0.567   5.805   0.151 -0.1572  0.3528 -0.1462
 5287SOL    HW116760   0.594   5.900   0.143  2.0020 -0.2242 -0.1870
 5287SOL    HW216761   0.644   5.746   0.128 -2.0955 -1.4641 -2.6237
 5288SOL     OW16762   2.250   2.527   2.617  0.0722  0.0398  0.4712
 5288SOL    HW116763   2.177   2.543   2.550  0.8189 -0.6471 -0.5309
 5288SOL    HW216764   2.293   2.439   2.599  1.3868  0.5904  0.8280
 5289SOL     OW16765   2.121   5.539   5.738  0.0074  0.2018  0.3099
 5289SOL    HW116766   2.092   5.519   5.644  1.1797 -0.9204  0.1622
 5289SOL    HW216767   2.041   5.540   5.798 -0.7038  0.5023 -0.6155
 5290SOL     OW16768   1.356   1.807   5.599 -0.3869 -0.1634  0.1125
 5290SOL    HW116769   1.307   1.893   5.607 -2.4297 -1.3437  1.0607
 5290SOL    HW216770   1.454   1.822   5.615 -0.2555  2.3355 -2.2156
 5291SOL     OW16771   3.912   6.047   4.911 -0.1586 -0.3580 -0.2037
 5291SOL    HW116772   3.951   6.101   4.986  0.3164  0.2595 -0.8926
 5291SOL    HW216773   3.855   5.974   4.950  2.0682 -1.6462  0.8694
 5292SOL     OW16774   2.161   3.668   2.992  0.0438  0.3257 -0.5645
 5292SOL    HW116775   2.181   3.693   3.087 -1.4215 -0.0857 -0.1260
 5292SOL    HW216776   2.077   3.614   2.989 -0.1950  0.7550 -2.1585
 5293SOL     OW16777   2.938   6.275   2.403 -0.1809 -0.0558  0.3056
 5293SOL    HW116778   2.946   6.178   2.426 -0.5910 -0.1385  0.0960
 5293SOL    HW216779   2.842   6.303   2.408 -0.1770  0.1246 -0.5054
 5294SOL     OW16780   4.949   0.285   5.832  0.3873 -0.0067  0.2450
 5294SOL    HW116781   4.852   0.260   5.823  1.2301 -3.0602 -1.8757
 5294SOL    HW216782   4.969   0.359   5.768 -0.0604 -1.1489 -1.2786
 5295SOL     OW16783   2.452   1.450   1.321 -0.0776  0.5542 -0.2072
 5295SOL    HW116784   2.547   1.419   1.329  0.2421  1.5859  0.2092
 5295SOL    HW216785   2.423   1.445   1.226  0.5784  0.7500 -0.4219
 5296SOL     OW16786   4.918   3.525   2.516  0.2344  0.6327  0.2859
 5296SOL    HW116787   4.887   3.618   2.539  1.2838  1.2990 -0.9258
 5296SOL    HW216788   4.953   3.481   2.599  0.4751  1.6106  0.7192
 5297SOL     OW16789   4.857   6.701   6.583 -0.5573 -0.5347  0.3902
 5297SOL    HW116790   4.779   6.760   6.601 -0.7285 -0.2184 -1.2900
 5297SOL    HW216791   4.825   6.608   6.564 -0.5815 -0.2903 -0.8137
 5298SOL     OW16792   1.966   0.504   6.815  0.2231  0.4012 -0.7830
 5298SOL    HW116793   1.883   0.483   6.763  0.6038 -1.8155 -0.5533
 5298SOL    HW216794   1.945   0.504   6.913  0.6209 -0.9796 -0.6785
 5299SOL     OW16795   1.677   6.530   1.781  0.2752 -0.2095  0.4757
 5299SOL    HW116796   1.652   6.497   1.872  1.2001 -0.2631  0.7187
 5299SOL    HW216797   1.614   6.603   1.753  0.5988  0.5214  1.5896
 5300SOL     OW16798   0.374   4.194   0.549  0.0690  0.1030  0.2063
 5300SOL    HW116799   0.293   4.140   0.524  0.8525 -0.5494 -1.0048
 5300SOL    HW216800   0.456   4.140   0.530  0.8009  0.7789  1.3755
 5301SOL     OW16801   5.765   0.125   3.512  0.2952  0.0245 -0.0850
 5301SOL    HW116802   5.834   0.105   3.443  1.6932  0.2467  1.2104
 5301SOL    HW216803   5.749   0.045   3.569  1.9427  0.8808  1.6890
 5302SOL     OW16804   5.117   5.885   3.572  0.7933 -0.2581  0.6689
 5302SOL    HW116805   5.190   5.863   3.507  0.6935 -1.5686  0.9670
 5302SOL    HW216806   5.135   5.838   3.658 -0.7796 -1.2450  0.4975
 5303SOL     OW16807   2.549   5.570   3.743 -0.6341 -0.3150  0.0455
 5303SOL    HW116808   2.557   5.616   3.832 -0.2104  1.3457 -0.8091
 5303SOL    HW216809   2.576   5.474   3.753 -0.0035 -0.0121  1.5785
 5304SOL     OW16810   1.959   0.319   2.452 -0.0031 -0.2504 -0.4161
 5304SOL    HW116811   1.869   0.309   2.494 -0.8696  0.4570 -2.0197
 5304SOL    HW216812   1.957   0.396   2.388  1.5392 -0.6939 -1.0317
 5305SOL     OW16813   0.473   5.644   4.532  0.0575  0.4980 -0.2023
 5305SOL    HW116814   0.449   5.547   4.540  0.7916  0.4130  1.2685
 5305SOL    HW216815   0.406   5.699   4.581 -0.6442  0.8192 -1.4537
 5306SOL     OW16816   0.077   0.205   0.870 -0.6653 -0.4829 -0.5773
 5306SOL    HW116817   0.137   0.262   0.814  0.2743  0.5441  1.3678
 5306SOL    HW216818   0.121   0.188   0.959 -4.0375  2.0862  1.8146
 5307SOL     OW16819   2.026   1.572   0.526  0.0707 -0.4253 -0.3121
 5307SOL    HW116820   1.955   1.622   0.476 -0.5805 -1.7029 -0.7257
 5307SOL    HW216821   2.004   1.572   0.623 -0.0038 -0.0401 -0.3264
 5308SOL     OW16822   2.309   4.467   2.548  0.4439  0.5564  0.0849
 5308SOL    HW116823   2.317   4.451   2.449  0.3682 -1.2029  0.3409
 5308SOL    HW216824   2.391   4.434   2.594 -0.6083 -1.0822  0.8630
 5309SOL     OW16825   6.403   5.888   4.303 -0.6491  0.4072  0.2890
 5309SOL    HW116826   6.348   5.968   4.280 -2.7375 -1.0811 -0.1613
 5309SOL    HW216827   6.485   5.886   4.245 -0.6634  2.0781  0.1728
 5310SOL     OW16828   5.605   3.066   6.484 -0.0886 -0.4275  0.2316
 5310SOL    HW116829   5.675   3.135   6.500 -0.9165  0.0634  1.9956
 5310SOL    HW216830   5.543   3.063   6.562 -1.3424 -1.6740 -0.7608
 5311SOL     OW16831   5.110   5.823   6.065  0.7126 -0.2173 -0.5815
 5311SOL    HW116832   5.085   5.764   6.142  0.6698 -0.9296 -1.1367
 5311SOL    HW216833   5.044   5.897   6.057 -0.9531 -1.7228 -1.6545
 5312SOL     OW16834   5.130   5.133   6.653 -0.0609  0.0884  0.6729
 5312SOL    HW116835   5.114   5.121   6.751 -0.1965  1.0122  0.7718
 5312SOL    HW216836   5.154   5.228   6.634  0.2995 -0.1556 -0.1495
 5313SOL     OW16837   6.031   6.266   5.845 -0.1217 -0.2240 -0.4083
 5313SOL    HW116838   6.065   6.353   5.811  2.4059 -1.3389 -0.9667
 5313SOL    HW216839   6.038   6.197   5.774 -0.8295 -1.1865  0.4257
 5314SOL     OW16840   5.610   2.607   3.433  0.4837  0.3183 -0.3164
 5314SOL    HW116841   5.702   2.638   3.409 -0.1405  2.6790  0.0998
 5314SOL    HW216842   5.571   2.667   3.503 -1.1688 -0.9803 -0.0438
 5315SOL     OW16843   3.741   2.155   3.968  0.1485 -0.1222  0.2031
 5315SOL    HW116844   3.766   2.190   4.058 -0.0534 -2.6011  1.3100
 5315SOL    HW216845   3.655   2.103   3.975  0.5210 -0.9961 -1.2516
 5316SOL     OW16846   5.821   2.157   5.457 -0.2868  0.0899 -0.5803
 5316SOL    HW116847   5.781   2.228   5.399 -0.4782  0.0683 -0.4744
 5316SOL    HW216848   5.748   2.097   5.491 -0.2057  0.2869 -0.0636
 5317SOL     OW16849   5.475   3.298   2.618  0.3691 -0.2945  0.3326
 5317SOL    HW116850   5.504   3.202   2.619 -0.8981 -0.7067 -0.1764
 5317SOL    HW216851   5.391   3.308   2.670 -1.3333 -0.1207 -2.2550
 5318SOL     OW16852   0.929   5.495   5.166 -0.4226  0.1377 -0.0089
 5318SOL    HW116853   0.865   5.499   5.088  1.3529  1.5157 -1.4786
 5318SOL    HW216854   0.928   5.582   5.214 -0.5052 -0.2568  0.7288
 5319SOL     OW16855   4.825   6.258   2.589 -0.4318 -0.8734 -0.1067
 5319SOL    HW116856   4.845   6.164   2.562  1.0141 -0.7755  0.5419
 5319SOL    HW216857   4.755   6.296   2.529 -0.0433 -1.9028 -1.2417
 5320SOL     OW16858   4.385   5.573   0.055  0.1690 -0.1868  0.1691
 5320SOL    HW116859   4.371   5.571  -0.044 -0.3641 -0.0246  0.2382
 5320SOL    HW216860   4.322   5.639   0.097 -0.5384 -1.1965  0.7551
 5321SOL     OW16861   1.931   3.989   4.560 -0.1560 -1.2398 -0.3103
 5321SOL    HW116862   2.030   4.000   4.566 -0.2009 -0.1048 -1.2573
 5321SOL    HW216863   1.895   3.964   4.649  0.9047 -0.9798  0.2115
 5322SOL     OW16864   3.703   5.436   2.541 -0.3282  0.0168  0.3155
 5322SOL    HW116865   3.710   5.490   2.625 -0.2382  0.3848  0.0745
 5322SOL    HW216866   3.788   5.443   2.489 -0.6513  0.4089 -0.1719
 5323SOL     OW16867   4.332   0.182   6.376 -0.2274  0.0768 -0.2154
 5323SOL    HW116868   4.324   0.232   6.462 -0.4118  0.2840 -0.3525
 5323SOL    HW216869   4.349   0.085   6.396  1.1939  0.3593  0.0373
 5324SOL     OW16870   2.097   6.766   6.794  0.3533 -0.4152 -0.2036
 5324SOL    HW116871   1.998   6.757   6.803  0.2312 -0.4088 -1.4038
 5324SOL    HW216872   2.122   6.863   6.797  0.3588 -0.4311  0.3686
 5325SOL     OW16873   0.797   1.223   5.612 -0.1005  0.4261 -0.2534
 5325SOL    HW116874   0.784   1.307   5.664 -0.9106  0.1079  0.0875
 5325SOL    HW216875   0.748   1.148   5.657  2.0167 -0.6376  0.4293
 5326SOL     OW16876   5.964   6.991   0.745 -0.2751 -0.1528 -0.0771
 5326SOL    HW116877   5.927   7.036   0.826 -0.9809  1.0727 -1.0585
 5326SOL    HW216878   6.020   7.056   0.693 -0.1026 -0.8276 -0.7570
 5327SOL     OW16879   0.957   2.857   0.890  0.0385  0.2266  0.3962
 5327SOL    HW116880   0.890   2.843   0.963 -0.0958 -1.3432  0.0068
 5327SOL    HW216881   1.047   2.872   0.931  0.0794 -1.2580  0.9080
 5328SOL     OW16882   4.612   5.006   6.737 -0.3422  0.1033  0.1383
 5328SOL    HW116883   4.702   4.981   6.773 -0.2647  0.0457 -0.0944
 5328SOL    HW216884   4.584   4.941   6.667 -0.0898  0.7119 -0.5477
 5329SOL     OW16885   0.420   0.221   0.544  0.2252  0.4667 -0.0231
 5329SOL    HW116886   0.421   0.162   0.625  1.1070  1.8726  1.0248
 5329SOL    HW216887   0.487   0.188   0.477 -0.7722 -0.9228 -0.3811
 5330SOL     OW16888   0.572   5.427   6.413  0.0867 -0.3551  0.2215
 5330SOL    HW116889   0.552   5.504   6.353 -0.7127 -1.0286 -0.3978
 5330SOL    HW216890   0.550   5.342   6.367 -0.4914 -0.8946  1.4458
 5331SOL     OW16891   4.028   1.863   6.396 -0.7423  0.2057  0.0129
 5331SOL    HW116892   4.024   1.918   6.480 -0.3053 -1.0228  0.8551
 5331SOL    HW216893   4.099   1.900   6.336  1.1154 -0.6871  1.5291
 5332SOL     OW16894   1.807   6.401   2.588  0.2670  0.0045 -0.4236
 5332SOL    HW116895   1.898   6.437   2.611  0.3585 -0.6918  0.3349
 5332SOL    HW216896   1.771   6.350   2.666 -0.9833  0.6701 -0.5522
 5333SOL     OW16897   1.842   1.520   2.725  0.5739  0.3222  0.1082
 5333SOL    HW116898   1.910   1.460   2.682  2.1598  1.1565  1.3552
 5333SOL    HW216899   1.804   1.476   2.806  1.5211  0.8434  0.8548
 5334SOL     OW16900   3.836   6.377   4.769  0.2852  0.1012  0.3900
 5334SOL    HW116901   3.790   6.442   4.829  0.1422 -1.2623  1.8330
 5334SOL    HW216902   3.796   6.286   4.781  0.7684 -0.3640 -1.2349
 5335SOL     OW16903   5.824   5.740   1.954  0.2248  0.2848 -0.2846
 5335SOL    HW116904   5.801   5.718   1.859  1.3758 -0.3748 -0.4380
 5335SOL    HW216905   5.769   5.817   1.985 -1.1033 -0.3185 -1.0581
 5336SOL     OW16906   1.375   3.381   1.542  0.1042 -0.2172 -0.2765
 5336SOL    HW116907   1.362   3.291   1.584 -0.6450  0.0020 -0.0248
 5336SOL    HW216908   1.366   3.452   1.611  0.5105  0.0627 -0.5099
 5337SOL     OW16909   6.839   4.663   2.115  0.6808  0.5674  0.0512
 5337SOL    HW116910   6.920   4.629   2.162  0.7822 -0.2574 -0.7039
 5337SOL    HW216911   6.824   4.611   2.032 -0.9136  0.3539  0.4361
 5338SOL     OW16912   5.733   3.750   0.806  0.1681 -0.0272  0.3137
 5338SOL    HW116913   5.725   3.840   0.763 -0.3325  0.0858  0.6454
 5338SOL    HW216914   5.771   3.760   0.898 -1.0368 -0.0202  0.8303
 5339SOL     OW16915   5.677   2.136   3.091  0.4697 -0.0562  0.1641
 5339SOL    HW116916   5.658   2.208   3.157  0.4110  0.2305 -0.1607
 5339SOL    HW216917   5.672   2.047   3.136 -2.0312 -0.0485  0.0709
 5340SOL     OW16918   4.501   2.200   0.995  0.5697 -0.6995 -0.7257
 5340SOL    HW116919   4.431   2.219   1.065  2.9476  0.7828  1.4124
 5340SOL    HW216920   4.523   2.102   0.997  1.5908 -0.5048  1.7249
 5341SOL     OW16921   3.313   6.334   1.399  0.4937 -0.5017  0.4509
 5341SOL    HW116922   3.220   6.297   1.395  0.0946  0.3517  1.6875
 5341SOL    HW216923   3.323   6.395   1.477  1.9317 -0.0983 -0.0035
 5342SOL     OW16924   2.320   0.651   5.052  0.2844  0.0332  0.2236
 5342SOL    HW116925   2.279   0.577   5.104 -1.1799  0.7698  0.1779
 5342SOL    HW216926   2.287   0.739   5.087 -2.6817  0.5691 -3.2454
 5343SOL     OW16927   2.906   3.482   2.277 -0.7401  0.3034 -0.0552
 5343SOL    HW116928   2.939   3.575   2.291 -0.8090  0.3282 -0.0577
 5343SOL    HW216929   2.880   3.469   2.181 -0.7957  0.3027 -0.0402
 5344SOL     OW16930   1.954   2.744   3.541  0.1243 -0.3802  0.7584
 5344SOL    HW116931   1.881   2.745   3.472 -1.5113  0.0637  2.4018
 5344SOL    HW216932   1.993   2.653   3.546  0.4507 -0.3656 -0.8962
 5345SOL     OW16933   5.723   1.604   3.063  0.1861  0.0631  0.2961
 5345SOL    HW116934   5.704   1.538   3.136 -1.2751 -0.8681 -0.8785
 5345SOL    HW216935   5.751   1.556   2.980  0.5505  1.0178 -0.1520
 5346SOL     OW16936   3.793   1.170   4.003 -0.2430 -0.1653 -0.2254
 5346SOL    HW116937   3.770   1.176   3.905 -1.1382  0.5657  0.0200
 5346SOL    HW216938   3.731   1.106   4.047 -0.9397  0.7641  0.1741
 5347SOL     OW16939   6.660   2.402   1.079  0.3279 -0.3413 -0.4728
 5347SOL    HW116940   6.726   2.407   1.004  0.9368  0.4696  0.0996
 5347SOL    HW216941   6.706   2.376   1.164 -0.0334  0.4100 -0.0253
 5348SOL     OW16942   5.941   1.063   1.899 -0.3684 -0.7284 -0.4462
 5348SOL    HW116943   5.870   1.041   1.966  1.1185 -1.1743  1.0295
 5348SOL    HW216944   5.957   0.984   1.840  1.0133 -1.7616  1.2209
 5349SOL     OW16945   4.983   6.921   1.534 -0.4595  0.1140 -0.1883
 5349SOL    HW116946   4.901   6.864   1.542 -0.1293 -0.1929  1.3568
 5349SOL    HW216947   4.984   6.966   1.445 -2.4219  0.2920 -0.1586
 5350SOL     OW16948   1.176   2.646   6.992 -0.6296 -0.1741  0.0951
 5350SOL    HW116949   1.233   2.726   6.977 -0.2965 -0.5464 -0.7031
 5350SOL    HW216950   1.081   2.668   6.972 -0.2909 -0.4728 -2.1048
 5351SOL     OW16951   5.297   0.642   2.915 -0.6696 -0.3785 -0.9660
 5351SOL    HW116952   5.300   0.707   2.839 -1.4857  0.8963  0.0384
 5351SOL    HW216953   5.350   0.560   2.891 -1.2695 -0.2230 -3.0531
 5352SOL     OW16954   4.622   1.024   4.972  0.0660 -0.4053 -0.0245
 5352SOL    HW116955   4.697   1.003   4.908 -0.3029  0.5534 -0.8071
 5352SOL    HW216956   4.573   0.940   4.994  0.4483 -0.8190 -0.6996
 5353SOL     OW16957   6.212   0.209   5.343  0.2373  0.6993  0.0166
 5353SOL    HW116958   6.168   0.287   5.299 -0.9818  0.1286  0.1700
 5353SOL    HW216959   6.142   0.148   5.379  1.1791 -0.1853  0.3939
 5354SOL     OW16960   0.279   1.069   0.577  0.2005  0.6576  0.9829
 5354SOL    HW116961   0.325   0.993   0.531  0.8096  0.8653  1.2430
 5354SOL    HW216962   0.218   1.032   0.647 -0.4298  0.3612  0.2859
 5355SOL     OW16963   4.630   1.719   6.043  0.5968 -0.1622  0.1318
 5355SOL    HW116964   4.695   1.645   6.059 -0.8125 -1.2612  1.0426
 5355SOL    HW216965   4.545   1.680   6.007 -0.3913  0.9388  1.2229
 5356SOL     OW16966   0.018   2.723   3.131 -0.1697 -0.3237 -0.4040
 5356SOL    HW116967  -0.014   2.755   3.043 -1.0508 -0.2333 -0.0559
 5356SOL    HW216968  -0.013   2.630   3.147  2.9363 -1.7322 -1.7049
 5357SOL     OW16969   3.153   5.732   0.025  0.1299  0.3098  0.2303
 5357SOL    HW116970   3.071   5.704   0.076 -0.3432  0.9445 -0.1635
 5357SOL    HW216971   3.218   5.656   0.022 -1.0235 -0.6949 -0.6292
 5358SOL     OW16972   4.837   5.446   1.678 -0.2414  0.1474 -0.2450
 5358SOL    HW116973   4.923   5.492   1.701 -0.1086 -0.1104 -0.2319
 5358SOL    HW216974   4.856   5.364   1.624 -0.5085  0.3487 -0.6442
 5359SOL     OW16975   2.188   6.790   4.658 -0.5992 -0.1214  0.1668
 5359SOL    HW116976   2.136   6.856   4.604 -2.4703 -0.2068  1.7683
 5359SOL    HW216977   2.235   6.838   4.732 -0.5585 -0.3824  0.3096
 5360SOL     OW16978   5.874   6.390   0.642  0.2665 -0.7508  0.1298
 5360SOL    HW116979   5.902   6.313   0.699 -1.4890 -1.4263  0.1522
 5360SOL    HW216980   5.836   6.356   0.555 -5.4208 -0.5247  2.0856
 5361SOL     OW16981   0.826   5.967   0.419 -0.7097 -0.1868 -0.1778
 5361SOL    HW116982   0.883   6.044   0.446  0.7002 -1.3712  0.3743
 5361SOL    HW216983   0.734   5.979   0.455  0.5031 -0.6390  3.4141
 5362SOL     OW16984   3.069   5.538   4.251 -0.1680 -0.3081 -0.0844
 5362SOL    HW116985   3.156   5.567   4.290  0.9366 -1.9212 -1.1700
 5362SOL    HW216986   3.038   5.605   4.183  0.0614  0.4233  0.5303
 5363SOL     OW16987   0.516   4.429   4.418  0.3554 -0.0362  0.3219
 5363SOL    HW116988   0.424   4.390   4.425  0.1121  0.7439  1.6670
 5363SOL    HW216989   0.511   4.528   4.423  1.3716 -0.0286  1.7986
 5364SOL     OW16990   0.250   4.861   4.585  0.0701  0.0964  0.2463
 5364SOL    HW116991   0.302   4.877   4.669  1.2847  1.2269 -0.6663
 5364SOL    HW216992   0.304   4.804   4.523 -1.0211 -1.1428  0.3985
 5365SOL     OW16993   6.188   3.940   5.441 -0.2677  0.2728  0.4731
 5365SOL    HW116994   6.243   3.864   5.405  0.4559  1.0191 -0.0400
 5365SOL    HW216995   6.218   3.961   5.534 -0.6861 -0.2721  0.7342
 5366SOL     OW16996   6.125   3.639   5.772  0.3383 -0.3172 -0.3182
 5366SOL    HW116997   6.103   3.608   5.865 -0.6142 -0.4301 -0.5720
 5366SOL    HW216998   6.043   3.676   5.729  1.2357  1.7423 -0.3593
 5367SOL     OW16999   6.590   3.690   0.438 -0.2664  0.5313  0.1110
 5367SOL    HW117000   6.607   3.643   0.351 -1.2821  0.3751 -0.0063
 5367SOL    HW217001   6.557   3.624   0.505  2.5059  0.1878  1.3008
 5368SOL     OW17002   0.294   0.691   4.058 -0.1035  0.7456  0.2704
 5368SOL    HW117003   0.255   0.738   3.978  0.0141 -1.1908 -1.0083
 5368SOL    HW217004   0.228   0.693   4.133  1.3499  6.3420  1.8645
 5369SOL     OW17005   2.826   5.933   0.891 -0.2057 -0.1808 -0.0432
 5369SOL    HW117006   2.751   5.893   0.945  0.3167 -1.0753  0.0410
 5369SOL    HW217007   2.906   5.943   0.949 -0.3279  1.0303 -0.0629
 5370SOL     OW17008   2.260   4.756   1.001  0.1491 -0.0467  0.2890
 5370SOL    HW117009   2.336   4.775   1.064  2.3144 -1.9218 -1.5477
 5370SOL    HW217010   2.219   4.668   1.025  0.9317 -0.7284 -0.7859
 5371SOL     OW17011   2.923   4.679   6.087  0.3563 -0.0974 -0.4699
 5371SOL    HW117012   2.894   4.591   6.127  0.3739 -0.3870 -1.0818
 5371SOL    HW217013   2.879   4.754   6.136 -0.9923 -0.5121 -1.0135
 5372SOL     OW17014   3.686   5.200   1.632 -0.6317  0.3044 -0.3078
 5372SOL    HW117015   3.623   5.160   1.698  0.6158 -0.2908  0.5685
 5372SOL    HW217016   3.656   5.293   1.608 -1.1970  0.4628  0.9613
 5373SOL     OW17017   4.220   5.376   4.323 -0.5544 -0.1261 -0.5822
 5373SOL    HW117018   4.148   5.379   4.391  0.6436 -0.9609  0.7730
 5373SOL    HW217019   4.181   5.351   4.234 -2.0676  0.5247 -0.1308
 5374SOL     OW17020   1.958   1.950   1.095 -0.9452  0.1598 -0.3267
 5374SOL    HW117021   1.898   2.020   1.133  0.2133  1.3419 -0.5725
 5374SOL    HW217022   2.052   1.966   1.126 -0.7211 -1.5655 -0.0436
 5375SOL     OW17023   1.868   4.955   4.331  0.6858 -0.0118  0.6140
 5375SOL    HW117024   1.888   5.028   4.396 -1.0805 -0.4476  1.7100
 5375SOL    HW217025   1.825   4.993   4.250  0.7946  0.2833  0.6942
 5376SOL     OW17026   3.684   4.614   6.005  0.2371  0.0609 -0.2583
 5376SOL    HW117027   3.640   4.531   5.971  1.8427 -0.8057 -0.3302
 5376SOL    HW217028   3.693   4.679   5.930  2.5367 -1.3113 -1.2864
 5377SOL     OW17029   2.128   0.779   1.717  0.3297  0.1038 -0.3878
 5377SOL    HW117030   2.054   0.726   1.675 -0.2513 -0.1767  0.9425
 5377SOL    HW217031   2.093   0.866   1.749  0.6681  0.1405 -0.1116
 5378SOL     OW17032   5.101   6.379   5.786 -0.0357 -0.2072  0.2179
 5378SOL    HW117033   5.048   6.382   5.870  2.4953 -0.6076  1.9494
 5378SOL    HW217034   5.196   6.355   5.807  0.4069 -1.8144 -2.9210
 5379SOL     OW17035   6.744   0.136   0.272 -0.1627  0.5623 -0.0336
 5379SOL    HW117036   6.673   0.168   0.335 -0.6627  0.8044 -0.7090
 5379SOL    HW217037   6.715   0.050   0.230  1.3659 -1.1438  2.1188
 5380SOL     OW17038   0.497   1.881   6.539  0.4081 -0.0206  0.5816
 5380SOL    HW117039   0.397   1.887   6.537  0.4059  0.0332 -1.5147
 5380SOL    HW217040   0.536   1.973   6.550  0.2072  0.1184  0.1753
 5381SOL     OW17041   5.319   5.335   2.212 -0.0163 -0.4321  0.4301
 5381SOL    HW117042   5.280   5.357   2.122  1.3789  1.4369  0.2233
 5381SOL    HW217043   5.398   5.275   2.200  0.2283 -0.1035  0.4029
 5382SOL     OW17044   3.928   6.935   0.953  0.0706 -0.0209 -0.0719
 5382SOL    HW117045   4.018   6.915   0.915 -0.1083 -0.1752 -0.4102
 5382SOL    HW217046   3.857   6.919   0.884 -0.2585 -0.3781  0.3385
 5383SOL     OW17047   2.596   3.217   6.819 -0.2140 -0.9314  0.3198
 5383SOL    HW117048   2.502   3.231   6.789  0.7968  0.2216 -2.7539
 5383SOL    HW217049   2.653   3.293   6.788  1.8230 -1.7226  1.8425
 5384SOL     OW17050   4.643   0.837   5.646  0.2061 -0.6792  0.1648
 5384SOL    HW117051   4.549   0.812   5.623 -0.0294  1.5667 -1.5550
 5384SOL    HW217052   4.699   0.837   5.563  1.8027 -2.0835  1.1751
 5385SOL     OW17053   4.038   1.878   2.205 -0.1007 -0.1713  0.2231
 5385SOL    HW117054   4.133   1.853   2.223  0.4883  2.4314  1.0860
 5385SOL    HW217055   4.027   1.897   2.107  0.2998 -0.3095  0.1478
 5386SOL     OW17056   5.650   6.623   5.490 -0.0250  0.1030 -0.2908
 5386SOL    HW117057   5.613   6.645   5.580 -1.0713 -0.7237 -0.5013
 5386SOL    HW217058   5.581   6.640   5.420  1.2887  2.3254 -1.1787
 5387SOL     OW17059   4.840   5.078   3.106 -0.3523  0.2821 -0.1443
 5387SOL    HW117060   4.867   5.151   3.169  2.5779 -0.1692 -0.7106
 5387SOL    HW217061   4.837   4.991   3.155 -0.9314  0.3479 -0.0591
 5388SOL     OW17062   5.614   0.532   1.455  0.1777 -0.0333 -0.1248
 5388SOL    HW117063   5.576   0.536   1.362  1.6001  1.4774 -0.7050
 5388SOL    HW217064   5.678   0.456   1.462 -0.2384 -0.3979 -0.2471
 5389SOL     OW17065   6.989   4.168   0.995  0.2579 -0.7716  0.3773
 5389SOL    HW117066   6.939   4.222   0.927  0.9792 -1.2724 -0.5851
 5389SOL    HW217067   6.993   4.072   0.965  1.2071 -0.8626  0.7600
 5390SOL     OW17068   6.325   4.685   0.809 -0.0494 -0.0891 -0.3296
 5390SOL    HW117069   6.359   4.637   0.728  1.1561  0.3751 -0.1201
 5390SOL    HW217070   6.402   4.724   0.860 -0.9050  1.1152  0.1056
 5391SOL     OW17071   3.151   5.719   0.913  0.6069 -0.5044 -0.0003
 5391SOL    HW117072   3.124   5.809   0.947 -0.7100 -0.5305 -0.9098
 5391SOL    HW217073   3.130   5.713   0.815  0.4948 -1.8709  0.0925
 5392SOL     OW17074   6.656   0.686   3.122  0.2209  0.1859  0.0208
 5392SOL    HW117075   6.663   0.720   3.028  2.1561  3.5025  1.2032
 5392SOL    HW217076   6.563   0.652   3.138  0.3005 -2.3777 -3.5287
 5393SOL     OW17077   6.872   5.542   5.165  0.8025  0.0438 -0.2202
 5393SOL    HW117078   6.951   5.521   5.222  0.2441  1.6992  1.2472
 5393SOL    HW217079   6.890   5.626   5.113 -0.0969  0.6228  0.3807
 5394SOL     OW17080   0.093   4.441   6.468 -0.1317 -0.2610  0.1642
 5394SOL    HW117081   0.039   4.449   6.552  2.4539  0.8746  1.8471
 5394SOL    HW217082   0.120   4.346   6.454 -2.6498 -0.9110 -0.8755
 5395SOL     OW17083   5.712   1.406   1.171  0.0886  0.0242  0.1618
 5395SOL    HW117084   5.791   1.387   1.229 -0.2828  1.3782  1.1577
 5395SOL    HW217085   5.700   1.332   1.105  1.5048 -0.7429  0.7355
 5396SOL     OW17086   2.698   2.210   1.464 -0.4315 -0.2075  1.1031
 5396SOL    HW117087   2.675   2.161   1.548 -0.5829 -0.8904  0.6679
 5396SOL    HW217088   2.678   2.152   1.385  1.9871 -0.5560  0.6630
 5397SOL     OW17089   2.929   1.747   3.286  0.2967 -0.2650 -0.3459
 5397SOL    HW117090   2.951   1.667   3.230  0.4532 -0.4983  0.0467
 5397SOL    HW217091   3.013   1.787   3.321  0.1970 -0.1646 -0.2198
 5398SOL     OW17092   2.755   4.416   1.596  0.1307 -0.0814  0.3845
 5398SOL    HW117093   2.667   4.457   1.619  0.4898  0.0103  1.6774
 5398SOL    HW217094   2.808   4.401   1.680  2.1948  1.7367 -0.4967
 5399SOL     OW17095   1.035   6.200   5.450  0.9155  0.3375 -0.3849
 5399SOL    HW117096   1.035   6.215   5.549  0.7855  1.0139 -0.4803
 5399SOL    HW217097   1.081   6.277   5.405  0.6818  0.1973 -0.8670
 5400SOL     OW17098   2.386   3.434   0.102 -0.5294  0.0374  0.0274
 5400SOL    HW117099   2.415   3.348   0.062  1.0985  0.8029 -0.5322
 5400SOL    HW217100   2.305   3.419   0.159 -0.9504 -1.6363 -0.9473
 5401SOL     OW17101   5.374   1.677   1.803 -0.7769  0.1200 -0.6986
 5401SOL    HW117102   5.417   1.765   1.822 -0.6402 -0.1127  0.1288
 5401SOL    HW217103   5.291   1.691   1.750  0.1919  0.5935 -2.1371
 5402SOL     OW17104   0.637   4.282   1.043 -0.0488 -0.4573 -0.2293
 5402SOL    HW117105   0.654   4.194   1.000  0.5980 -0.4827  0.0608
 5402SOL    HW217106   0.725   4.326   1.064 -0.3640  0.3491 -0.5592
 5403SOL     OW17107   5.812   3.396   5.607 -0.4243 -0.1504 -0.2851
 5403SOL    HW117108   5.785   3.488   5.576 -1.2553  0.3273  1.6886
 5403SOL    HW217109   5.755   3.328   5.562  0.8622  0.1659 -2.5407
 5404SOL     OW17110   6.215   2.095   2.226 -0.5626 -0.0067  0.0837
 5404SOL    HW117111   6.140   2.161   2.220 -2.7102 -2.2159  1.0442
 5404SOL    HW217112   6.220   2.043   2.140  0.6375  0.8409 -0.3886
 5405SOL     OW17113   0.841   4.143   3.119 -0.2116 -0.1150  0.6866
 5405SOL    HW117114   0.927   4.127   3.168  0.8852  1.8844 -0.4492
 5405SOL    HW217115   0.840   4.087   3.036  1.1318  1.5102 -0.4971
 5406SOL     OW17116   2.218   6.873   1.634  0.6932  0.1361 -0.6274
 5406SOL    HW117117   2.272   6.906   1.556  0.1377 -0.9104 -1.4742
 5406SOL    HW217118   2.230   6.937   1.711  2.3864  0.4293 -1.0732
 5407SOL     OW17119   4.409   3.530   6.002 -0.1195 -0.7590 -0.0982
 5407SOL    HW117120   4.376   3.623   6.023  0.7475  0.2456 -2.7247
 5407SOL    HW217121   4.374   3.502   5.912  0.1108 -2.7773  0.3968
 5408SOL     OW17122   3.570   2.736   6.428 -0.4363  0.1622 -0.2474
 5408SOL    HW117123   3.477   2.756   6.456 -0.3655 -1.1659  1.0609
 5408SOL    HW217124   3.572   2.712   6.331 -1.8268 -1.8646  0.1744
 5409SOL     OW17125   3.198   0.040   0.871 -0.1742  0.2451  0.1296
 5409SOL    HW117126   3.197  -0.040   0.931 -0.3089 -0.7455 -1.1589
 5409SOL    HW217127   3.270   0.030   0.803 -0.3638  1.1111 -0.2143
 5410SOL     OW17128   2.181   1.656   2.701  0.1042  0.3113  0.5686
 5410SOL    HW117129   2.089   1.669   2.738  0.2193  0.3625  0.8336
 5410SOL    HW217130   2.191   1.712   2.618 -0.3852 -0.3357  0.0601
 5411SOL     OW17131   2.592   4.950   4.461  0.1485  0.3215 -0.5903
 5411SOL    HW117132   2.560   4.899   4.380 -3.0674  0.3792  0.4822
 5411SOL    HW217133   2.578   5.048   4.447 -4.7900  0.2220  1.3589
 5412SOL     OW17134   0.544   1.572   0.184  0.2713 -0.2446 -0.2679
 5412SOL    HW117135   0.534   1.476   0.157  1.1224  0.1390 -2.0796
 5412SOL    HW217136   0.577   1.576   0.278 -1.5177 -1.6755  0.4906
 5413SOL     OW17137   0.637   6.324   3.002 -0.0321  0.2616  0.2881
 5413SOL    HW117138   0.562   6.378   3.038 -1.6040 -1.8659  0.4385
 5413SOL    HW217139   0.707   6.311   3.072 -2.0076 -1.9804  2.0321
 5414SOL     OW17140   3.076   0.288   0.849  0.3937  0.4566 -0.0091
 5414SOL    HW117141   3.106   0.193   0.854 -2.0466 -0.3630  0.3613
 5414SOL    HW217142   3.108   0.337   0.930 -0.9463 -0.9186  1.4195
 5415SOL     OW17143   6.598   4.322   1.972  0.3689  0.0871  0.4955
 5415SOL    HW117144   6.539   4.375   1.912  0.3598 -1.0617 -0.5574
 5415SOL    HW217145   6.543   4.278   2.043 -0.1849 -1.3712 -0.7674
 5416SOL     OW17146   4.520   4.246   5.287  0.1644  0.3534  0.3094
 5416SOL    HW117147   4.600   4.221   5.233  0.1402 -0.7446  0.7519
 5416SOL    HW217148   4.474   4.325   5.246  1.1675  0.6608 -0.2384
 5417SOL     OW17149   3.298   0.446   5.776  0.5834 -0.3738  0.1761
 5417SOL    HW117150   3.204   0.455   5.744  1.0762  0.3539 -1.1294
 5417SOL    HW217151   3.300   0.390   5.859 -0.8833 -1.2641 -0.3581
 5418SOL     OW17152   3.182   0.850   4.363 -0.1978  0.3311 -0.5898
 5418SOL    HW117153   3.270   0.814   4.394 -0.6109  0.2927  0.6280
 5418SOL    HW217154   3.173   0.945   4.391  0.0849  0.8172 -2.0902
 5419SOL     OW17155   3.254   3.523   5.605  0.0898 -0.1405 -0.1060
 5419SOL    HW117156   3.335   3.465   5.598  0.9523  1.0646 -0.5811
 5419SOL    HW217157   3.280   3.612   5.642 -1.1323  0.0719  0.2777
 5420SOL     OW17158   2.526   2.119   2.383 -0.4893 -0.1971 -0.0564
 5420SOL    HW117159   2.468   2.058   2.436  1.3878 -1.9423  0.1296
 5420SOL    HW217160   2.562   2.070   2.303  0.3947  0.9359 -0.3851
 5421SOL     OW17161   2.648   4.269   6.118 -0.1271  0.0678 -0.0393
 5421SOL    HW117162   2.639   4.179   6.160  0.5718  0.4413  0.9463
 5421SOL    HW217163   2.601   4.269   6.029 -0.9026 -0.9899  0.3434
 5422SOL     OW17164   6.970   3.439   6.154  0.6507  0.6142 -0.2448
 5422SOL    HW117165   7.028   3.368   6.114  1.6265 -0.4370  2.7748
 5422SOL    HW217166   7.001   3.528   6.123  1.7846 -0.0929 -1.2416
 5423SOL     OW17167   4.927   3.614   5.483 -0.0173 -0.3727 -0.2809
 5423SOL    HW117168   5.013   3.604   5.532 -0.8397 -0.6522  1.1788
 5423SOL    HW217169   4.863   3.668   5.538 -1.1152 -1.0421 -0.8451
 5424SOL     OW17170   6.389   3.763   4.801 -0.1642 -0.1255  0.1252
 5424SOL    HW117171   6.355   3.694   4.865 -1.6321  0.2814 -0.1879
 5424SOL    HW217172   6.317   3.829   4.781  0.5344  0.2582 -1.2729
 5425SOL     OW17173   4.351   1.807   4.580  0.1372  0.4338 -0.0154
 5425SOL    HW117174   4.262   1.828   4.539  0.9133  1.4278 -1.2384
 5425SOL    HW217175   4.350   1.834   4.676 -0.6779  1.0477 -0.1858
 5426SOL     OW17176   0.304   6.096   3.369 -0.7533 -0.1812  0.3102
 5426SOL    HW117177   0.342   6.127   3.456  0.1178 -0.3039 -0.0107
 5426SOL    HW217178   0.208   6.070   3.381 -0.3607 -1.1935  1.4718
 5427SOL     OW17179   4.407   6.695   0.611  0.0203 -0.3236 -0.1286
 5427SOL    HW117180   4.360   6.664   0.694 -0.1336  2.6556  1.0457
 5427SOL    HW217181   4.347   6.683   0.532 -0.5756 -1.5011  0.4815
 5428SOL     OW17182   2.982   1.378   5.944  0.5366 -0.4571 -0.2188
 5428SOL    HW117183   3.060   1.316   5.936 -0.8808 -2.1121 -2.1958
 5428SOL    HW217184   2.920   1.345   6.015 -0.5104 -1.7421 -1.6685
 5429SOL     OW17185   1.502   1.882   0.654 -0.2636  0.0369 -0.0764
 5429SOL    HW117186   1.526   1.812   0.587  1.9473  1.7227 -1.1935
 5429SOL    HW217187   1.409   1.913   0.638 -0.5348 -1.1496 -0.9079
 5430SOL     OW17188   2.760   1.937   5.984  0.1089 -0.0492 -0.0911
 5430SOL    HW117189   2.740   1.854   6.037 -0.1090  0.1430  0.1358
 5430SOL    HW217190   2.858   1.942   5.965  0.3262  0.2955  1.0218
 5431SOL     OW17191   2.316   6.348   2.857  0.3889 -0.2883  0.0628
 5431SOL    HW117192   2.346   6.261   2.818  0.9712  0.3541 -0.9587
 5431SOL    HW217193   2.378   6.375   2.930  0.0911 -0.8195  0.5205
 5432SOL     OW17194   5.073   5.179   2.326  0.4164 -0.0680 -0.5934
 5432SOL    HW117195   5.152   5.123   2.351  0.6104  0.6447  0.4292
 5432SOL    HW217196   5.030   5.215   2.408  0.7880  1.9607 -1.2482
 5433SOL     OW17197   3.267   2.116   3.829  0.1475  0.0961 -0.3260
 5433SOL    HW117198   3.206   2.093   3.904 -0.1681  2.9259  0.3909
 5433SOL    HW217199   3.214   2.157   3.754  0.9689  1.3099 -0.2643
 5434SOL     OW17200   2.468   0.018   3.761 -0.0665  0.1777  0.1532
 5434SOL    HW117201   2.520  -0.006   3.844 -0.3871 -0.6129  0.1374
 5434SOL    HW217202   2.479   0.115   3.742 -0.1464  0.4112  1.2336
 5435SOL     OW17203   5.067   0.365   1.872 -0.2457  0.1347 -0.3370
 5435SOL    HW117204   4.996   0.426   1.835 -0.2106  0.8380  0.7122
 5435SOL    HW217205   5.118   0.324   1.797 -1.6816 -0.2849 -1.1082
 5436SOL     OW17206   5.813   4.088   4.251 -0.2002 -0.5083 -0.0753
 5436SOL    HW117207   5.754   4.091   4.170  0.0924  1.0352 -0.2673
 5436SOL    HW217208   5.904   4.057   4.224 -0.0417  0.2194 -0.3908
 5437SOL     OW17209   2.833   6.623   5.275  0.1845  0.7451  0.2069
 5437SOL    HW117210   2.876   6.533   5.278 -0.5213  0.4084  2.7755
 5437SOL    HW217211   2.872   6.676   5.200  0.3306 -1.7983 -1.6403
 5438SOL     OW17212   5.553   2.138   0.018 -0.3142  0.2783 -0.3642
 5438SOL    HW117213   5.489   2.200  -0.028  0.4350  1.1057 -0.3095
 5438SOL    HW217214   5.612   2.095  -0.050 -1.0103 -0.6013 -0.4298
 5439SOL     OW17215   1.222   2.012   2.019 -0.6240 -0.2588  0.7564
 5439SOL    HW117216   1.312   1.980   1.989 -1.7156 -2.6697 -0.1918
 5439SOL    HW217217   1.222   2.026   2.118  1.0585  0.9048  0.6447
 5440SOL     OW17218   3.531   1.067   1.536  0.0498  0.8832  0.2971
 5440SOL    HW117219   3.540   1.144   1.473 -0.0821  1.1415  0.5884
 5440SOL    HW217220   3.554   1.097   1.628  0.3518  0.4789  0.3550
 5441SOL     OW17221   3.559   1.346   5.057 -0.5560 -0.0306  0.0843
 5441SOL    HW117222   3.595   1.256   5.083 -0.1537  0.1265  0.0760
 5441SOL    HW217223   3.633   1.413   5.059 -0.3611 -0.1098 -2.0130
 5442SOL     OW17224   4.957   0.266   2.338 -0.2113  0.2306 -0.3888
 5442SOL    HW117225   4.919   0.248   2.248 -2.1946 -1.7941  0.7340
 5442SOL    HW217226   5.057   0.271   2.333 -0.1380 -1.9060 -2.3917
 5443SOL     OW17227   3.256   6.426   3.757 -0.3740 -0.0188  0.1440
 5443SOL    HW117228   3.161   6.399   3.743 -0.1650 -0.4073 -0.6137
 5443SOL    HW217229   3.263   6.526   3.755 -0.8606  0.0396  0.9293
 5444SOL     OW17230   5.658   6.362   3.962  0.4843 -0.1738  0.2964
 5444SOL    HW117231   5.747   6.352   3.917  0.2897  0.7744 -0.3365
 5444SOL    HW217232   5.666   6.422   4.041  0.4787 -0.4160  0.4835
 5445SOL     OW17233   6.548   5.041   2.195  0.0930  0.5756  0.4336
 5445SOL    HW117234   6.505   5.019   2.107 -2.2914  2.2300  1.0715
 5445SOL    HW217235   6.624   4.978   2.212 -0.6446 -1.0762 -1.8629
 5446SOL     OW17236   7.006   0.471   4.021  0.5001 -0.5936 -0.4858
 5446SOL    HW117237   7.021   0.475   3.922 -1.7032 -1.9945 -0.9630
 5446SOL    HW217238   6.946   0.547   4.049  0.4252 -0.6890 -0.3854
 5447SOL     OW17239   4.722   2.495   0.606  0.4225 -0.0777  0.3829
 5447SOL    HW117240   4.802   2.555   0.617  0.0198  0.8702 -1.4264
 5447SOL    HW217241   4.743   2.404   0.640  2.0052  0.3707  0.6709
 5448SOL     OW17242   3.403   1.800   1.144 -0.3529 -0.0565 -0.6466
 5448SOL    HW117243   3.353   1.715   1.164 -1.3425  0.5806 -0.3412
 5448SOL    HW217244   3.377   1.832   1.053  2.7744 -1.9825 -2.3997
 5449SOL     OW17245   0.532   2.828   1.746 -0.6454 -0.3850  0.3837
 5449SOL    HW117246   0.457   2.884   1.710 -1.0061 -1.3290 -0.3792
 5449SOL    HW217247   0.612   2.837   1.686  0.6973  2.4028  2.3973
 5450SOL     OW17248   1.992   6.237   0.775 -0.2964 -0.0551  0.0647
 5450SOL    HW117249   1.930   6.267   0.848 -1.8534 -2.0109 -0.3414
 5450SOL    HW217250   2.076   6.201   0.815  0.7295  2.7532  0.6292
 5451SOL     OW17251   1.768   0.679   2.966 -0.4799 -0.4729  0.0613
 5451SOL    HW117252   1.710   0.599   2.953  0.1860 -0.7589 -1.3920
 5451SOL    HW217253   1.755   0.742   2.889 -0.5927  0.5591  0.9139
 5452SOL     OW17254   2.703   3.736   6.472  0.1287 -0.2083  0.1037
 5452SOL    HW117255   2.795   3.762   6.444 -0.1581  1.2220  0.4492
 5452SOL    HW217256   2.636   3.796   6.428 -0.7215 -1.7766 -0.8367
 5453SOL     OW17257   1.698   3.582   5.900  0.0909  0.3533 -0.8238
 5453SOL    HW117258   1.623   3.612   5.841 -2.5204 -0.5976  1.7839
 5453SOL    HW217259   1.710   3.648   5.975  0.3569 -0.5731 -0.0243
 5454SOL     OW17260   1.013   3.769   5.571 -0.2572 -0.3666  0.4052
 5454SOL    HW117261   0.920   3.785   5.538  0.4622  0.1322 -1.5065
 5454SOL    HW217262   1.047   3.682   5.535  0.0847 -0.4713  0.9646
 5455SOL     OW17263   5.802   2.154   0.904 -0.2251  0.1430  0.4198
 5455SOL    HW117264   5.737   2.120   0.835  0.0820 -0.1263  0.2646
 5455SOL    HW217265   5.770   2.127   0.995 -1.0510  1.1660  0.4525
 5456SOL     OW17266   2.983   0.084   0.264  0.3699  0.2650  0.6600
 5456SOL    HW117267   2.956   0.027   0.342 -1.3688  0.2553  0.0901
 5456SOL    HW217268   2.985   0.027   0.181  1.5959  0.4080  0.5778
 5457SOL     OW17269   0.245   1.641   1.450  0.4754  0.5318  0.6959
 5457SOL    HW117270   0.292   1.557   1.478 -2.3606 -0.9583  1.2624
 5457SOL    HW217271   0.270   1.664   1.356 -1.2815 -2.9652 -0.7591
 5458SOL     OW17272   0.064   3.516   3.863 -0.8422 -0.6176 -0.3344
 5458SOL    HW117273   0.051   3.602   3.912  0.7235 -1.0059  0.8246
 5458SOL    HW217274   0.072   3.535   3.765  2.1593  0.9479  0.0950
 5459SOL     OW17275   1.733   6.752   5.663 -0.6176 -0.7257 -0.1380
 5459SOL    HW117276   1.766   6.685   5.731 -2.1989 -1.7240 -0.3009
 5459SOL    HW217277   1.729   6.842   5.705  1.4652 -0.6924  0.1261
 5460SOL     OW17278   2.941   0.686   6.486  0.6200 -0.5417 -0.2296
 5460SOL    HW117279   3.035   0.651   6.482  0.8088  0.0060 -0.6656
 5460SOL    HW217280   2.939   0.772   6.536 -0.1414 -2.0686  2.5871
 5461SOL     OW17281   3.556   5.882   5.648  0.2092  0.2426 -0.4051
 5461SOL    HW117282   3.543   5.973   5.687  1.6609  0.7612 -1.0385
 5461SOL    HW217283   3.538   5.884   5.550 -1.1195 -0.4981 -0.1961
 5462SOL     OW17284   6.598   0.896   2.493 -0.7440  0.0763  0.0027
 5462SOL    HW117285   6.662   0.909   2.569 -0.0935 -0.0342 -0.5237
 5462SOL    HW217286   6.553   0.983   2.472 -0.7758  0.1519  0.3737
 5463SOL     OW17287   1.845   0.553   2.675 -0.2395 -0.2685  0.6832
 5463SOL    HW117288   1.853   0.454   2.663 -0.5971 -0.2565  0.3425
 5463SOL    HW217289   1.819   0.595   2.589 -0.1198  0.1216  0.8363
 5464SOL     OW17290   1.909   0.316   3.246  0.2239 -0.3125  0.3363
 5464SOL    HW117291   1.980   0.344   3.311 -0.9974  0.6431  1.3197
 5464SOL    HW217292   1.910   0.378   3.167 -0.1452  0.3500  0.8311
 5465SOL     OW17293   2.658   5.550   6.923 -0.5072 -0.4065 -0.3738
 5465SOL    HW117294   2.686   5.466   6.876  1.7580 -0.3331  0.7211
 5465SOL    HW217295   2.596   5.528   6.998 -0.6775 -1.0016 -0.6879
 5466SOL     OW17296   4.973   6.292   4.452  0.3467  0.5777  0.0300
 5466SOL    HW117297   4.971   6.313   4.355 -1.0549  4.1253  0.6537
 5466SOL    HW217298   5.062   6.316   4.491  0.2819  0.9967 -0.0768
 5467SOL     OW17299   5.399   1.420   6.198 -0.8639  0.3432  0.0120
 5467SOL    HW117300   5.408   1.321   6.193  1.2249  0.5310 -0.7851
 5467SOL    HW217301   5.389   1.458   6.106 -0.3998  0.9581  0.2062
 5468SOL     OW17302   3.074   0.960   6.121 -0.6098 -0.0955 -0.2134
 5468SOL    HW117303   2.999   0.915   6.170  0.5452 -1.2201  0.5571
 5468SOL    HW217304   3.066   0.940   6.023 -1.6351  0.2836 -0.2212
 5469SOL     OW17305   4.270   4.803   6.663  0.3983 -0.0410 -0.1708
 5469SOL    HW117306   4.257   4.888   6.714  2.4461 -0.4618  1.1694
 5469SOL    HW217307   4.228   4.812   6.572 -2.0481  1.2685  0.9874
 5470SOL     OW17308   0.125   4.925   1.772  0.4461  0.6221  0.6119
 5470SOL    HW117309   0.207   4.968   1.734  0.4753 -0.7101 -0.9160
 5470SOL    HW217310   0.150   4.840   1.819 -0.1580 -0.6162 -1.1920
 5471SOL     OW17311   6.112   3.135   2.192 -0.5106 -0.3767  0.1388
 5471SOL    HW117312   6.026   3.097   2.226 -1.2498  1.7274  0.7889
 5471SOL    HW217313   6.092   3.214   2.133  0.9461 -0.8631 -1.0572
 5472SOL     OW17314   5.042   0.022   4.528  0.4316 -0.4962  0.2012
 5472SOL    HW117315   5.044   0.115   4.492  0.9466  0.9242  3.5050
 5472SOL    HW217316   4.952   0.005   4.569 -0.2816 -2.2023 -1.8563
 5473SOL     OW17317   1.459   5.197   4.331 -0.5024  0.0426 -0.1139
 5473SOL    HW117318   1.534   5.262   4.315 -1.8813  1.7163  0.0370
 5473SOL    HW217319   1.498   5.108   4.356  1.4512  0.5661 -1.0524
 5474SOL     OW17320   0.899   5.009   2.159 -0.4453  0.7747  0.4966
 5474SOL    HW117321   0.970   4.940   2.176 -1.2011  0.3046  1.9399
 5474SOL    HW217322   0.886   5.020   2.061 -1.0299 -1.9746  0.1646
 5475SOL     OW17323   2.657   0.287   2.663  0.4220 -0.3852 -0.4708
 5475SOL    HW117324   2.626   0.200   2.625  0.2672 -0.1028 -1.0051
 5475SOL    HW217325   2.683   0.275   2.758 -0.1875 -0.8876 -0.3623
 5476SOL     OW17326   0.752   3.584   6.156 -0.0357 -0.5726  0.4878
 5476SOL    HW117327   0.681   3.528   6.113 -0.2661 -0.0864  0.2227
 5476SOL    HW217328   0.836   3.580   6.101  0.1012 -1.0440  0.7314
 5477SOL     OW17329   2.109   1.544   2.036 -0.0396 -0.9036 -0.1159
 5477SOL    HW117330   2.038   1.506   1.977  0.2341 -0.4027 -0.7825
 5477SOL    HW217331   2.184   1.579   1.979 -0.6905  1.4922  0.3918
 5478SOL     OW17332   0.130   4.152   4.441  0.5649  0.1751  0.3325
 5478SOL    HW117333   0.061   4.148   4.514  0.6712  1.0721  0.4904
 5478SOL    HW217334   0.086   4.136   4.353 -0.3610  3.3429  0.1316
 5479SOL     OW17335   5.128   1.359   3.515  0.3455  0.2788 -0.0201
 5479SOL    HW117336   5.049   1.300   3.502  2.1657 -1.8401 -2.8426
 5479SOL    HW217337   5.118   1.442   3.459 -0.6318  0.9769  1.1363
 5480SOL     OW17338   0.070   3.033   5.478 -0.1475 -0.1916 -0.4184
 5480SOL    HW117339   0.078   2.939   5.445  0.4181 -0.1740 -0.3440
 5480SOL    HW217340   0.160   3.066   5.508 -0.4856  0.0900  0.3276
 5481SOL     OW17341   6.484   6.054   2.029  0.5809 -0.4013  0.6278
 5481SOL    HW117342   6.513   5.961   2.005  0.5773 -0.4848  0.9314
 5481SOL    HW217343   6.488   6.113   1.949  1.7117 -0.3813  0.6883
 5482SOL     OW17344   0.305   1.176   0.344 -0.1653 -0.3786 -0.1513
 5482SOL    HW117345   0.293   1.131   0.432  0.4569 -0.7075 -0.2312
 5482SOL    HW217346   0.352   1.114   0.281 -0.8653 -0.2558 -0.8097
 5483SOL     OW17347   1.631   1.453   0.752  0.1401 -0.0628 -0.8808
 5483SOL    HW117348   1.611   1.551   0.757 -0.6883 -0.2213 -0.8759
 5483SOL    HW217349   1.624   1.423   0.657  0.7329 -0.0493 -0.9280
 5484SOL     OW17350   5.858   6.132   5.250 -0.1770  0.0917 -0.3592
 5484SOL    HW117351   5.835   6.035   5.255  0.6756 -0.0859  0.5036
 5484SOL    HW217352   5.867   6.168   5.343  1.3793  0.5222 -0.6430
 5485SOL     OW17353   4.480   0.148   5.503 -1.1043 -0.1296  0.5690
 5485SOL    HW117354   4.569   0.185   5.531 -1.2438 -0.4342  1.4413
 5485SOL    HW217355   4.461   0.176   5.409 -0.1956  0.1447  0.4500
 5486SOL     OW17356   3.945   5.580   3.659 -0.0424  0.0691 -0.0969
 5486SOL    HW117357   3.960   5.660   3.717  0.4686 -1.2019  1.5861
 5486SOL    HW217358   3.911   5.610   3.570  2.9799  2.3882 -0.6136
 5487SOL     OW17359   3.129   5.323   4.847  0.1812 -0.3328 -0.1294
 5487SOL    HW117360   3.071   5.333   4.766  1.0755  1.0201 -0.6535
 5487SOL    HW217361   3.206   5.263   4.826 -0.0985 -0.7443  0.0202
 5488SOL     OW17362   6.080   1.897   1.129 -0.1340 -0.1872 -0.1665
 5488SOL    HW117363   6.077   1.937   1.037 -1.1645 -2.6145 -1.2771
 5488SOL    HW217364   6.020   1.817   1.133 -0.2866 -0.0455  2.7215
 5489SOL     OW17365   6.005   2.539   5.187  0.3086  0.2320  0.3272
 5489SOL    HW117366   5.961   2.586   5.111 -0.2771  0.6218  0.9058
 5489SOL    HW217367   6.096   2.508   5.158  0.5322  1.3229 -0.1976
 5490SOL     OW17368   0.775   3.671   0.582 -0.2605  0.1361  0.0820
 5490SOL    HW117369   0.762   3.627   0.671 -1.1569 -0.7201 -0.4620
 5490SOL    HW217370   0.746   3.767   0.588 -0.7297 -0.0350  0.5846
 5491SOL     OW17371   1.375   3.046   2.962 -0.2466  0.0142 -0.5208
 5491SOL    HW117372   1.422   3.043   2.874 -0.5935 -0.0840 -0.7024
 5491SOL    HW217373   1.308   3.119   2.962 -0.4021 -0.1272 -0.4151
 5492SOL     OW17374   1.728   2.279   6.826  0.4926  0.2114  0.3416
 5492SOL    HW117375   1.814   2.292   6.876  1.0934 -0.4841 -0.4835
 5492SOL    HW217376   1.732   2.330   6.740 -0.0719  0.4630  0.4614
 5493SOL     OW17377   3.345   2.585   5.633 -0.2329 -0.2314 -0.0411
 5493SOL    HW117378   3.259   2.606   5.586 -0.8160 -0.9063  0.6904
 5493SOL    HW217379   3.366   2.488   5.621 -0.0250 -0.2540  0.5003
 5494SOL     OW17380   5.855   2.737   6.375  0.0863  0.3286  1.2397
 5494SOL    HW117381   5.768   2.730   6.327  0.3550 -0.6136  0.8653
 5494SOL    HW217382   5.841   2.724   6.473 -0.1086 -0.5971  1.1000
 5495SOL     OW17383   0.052   0.335   1.428 -0.0859 -0.3685  0.4964
 5495SOL    HW117384   0.033   0.396   1.351  0.0614  1.0407  1.5291
 5495SOL    HW217385   0.043   0.240   1.399 -0.6295  0.1411 -1.0900
 5496SOL     OW17386   5.212   5.430   4.920  0.3207 -0.0837 -0.3116
 5496SOL    HW117387   5.191   5.479   4.836 -0.8385 -0.0599 -0.0259
 5496SOL    HW217388   5.128   5.417   4.973  0.5176 -2.6239 -0.5102
 5497SOL     OW17389   6.459   1.188   4.698  0.1645 -0.3184  0.0582
 5497SOL    HW117390   6.471   1.089   4.699  2.5131 -0.0885  2.1463
 5497SOL    HW217391   6.413   1.217   4.782  0.0210  0.4290 -0.2719
 5498SOL     OW17392   0.287   5.060   2.411  0.2748 -0.6017 -0.3565
 5498SOL    HW117393   0.277   5.137   2.347  2.0484 -0.6431 -0.7530
 5498SOL    HW217394   0.382   5.030   2.411  0.4125 -0.4422  2.5225
 5499SOL     OW17395   1.402   6.209   2.450  0.2297 -0.2510  0.1865
 5499SOL    HW117396   1.499   6.232   2.455  0.3034 -0.6974  0.9596
 5499SOL    HW217397   1.381   6.171   2.360  0.6554  0.3465 -0.1702
 5500SOL     OW17398   0.635   0.527   0.348  0.3318 -0.2341  0.1735
 5500SOL    HW117399   0.717   0.473   0.363 -1.2562 -2.7464  0.5305
 5500SOL    HW217400   0.615   0.582   0.429  1.4429  0.1158  0.2143
 5501SOL     OW17401   3.659   2.241   1.633 -0.3739  0.1241  0.1557
 5501SOL    HW117402   3.645   2.237   1.732  0.4430  2.3484  0.4097
 5501SOL    HW217403   3.676   2.335   1.605  0.5190 -0.6017 -1.9673
 5502SOL     OW17404   5.983   1.461   0.681  0.2886 -0.4064 -0.0580
 5502SOL    HW117405   5.937   1.524   0.618  0.6290 -2.0252 -2.0507
 5502SOL    HW217406   5.989   1.502   0.772 -1.8745  1.3002 -0.6049
 5503SOL     OW17407   4.702   2.653   2.493 -0.1991  0.1135  0.0621
 5503SOL    HW117408   4.786   2.706   2.482 -0.6076  1.3130  2.2250
 5503SOL    HW217409   4.666   2.665   2.585 -2.1561 -1.2963 -0.4393
 5504SOL     OW17410   3.539   3.521   6.297  0.3341 -0.9615  0.2094
 5504SOL    HW117411   3.514   3.569   6.212  1.8361 -0.3411  0.1007
 5504SOL    HW217412   3.468   3.453   6.318  0.7882 -2.4061 -2.5161
 5505SOL     OW17413   2.653   0.176   2.273  0.3637 -0.0450  0.3022
 5505SOL    HW117414   2.687   0.237   2.344  0.4454  0.7396 -0.4035
 5505SOL    HW217415   2.555   0.191   2.259  0.3650 -0.1354  0.1870
 5506SOL     OW17416   6.465   2.770   2.402  0.0341 -0.2318 -0.8285
 5506SOL    HW117417   6.393   2.807   2.343  0.5175 -0.6219 -1.6904
 5506SOL    HW217418   6.433   2.769   2.497 -1.6931 -1.7773 -1.3598
 5507SOL     OW17419   2.113   6.969   0.140  0.3127 -0.4166  0.0340
 5507SOL    HW117420   2.165   7.055   0.141  0.1641 -0.3276  0.1204
 5507SOL    HW217421   2.029   6.981   0.087 -0.5422 -0.0157  1.4450
 5508SOL     OW17422   5.240   3.663   5.229 -0.0778 -0.2282  0.8793
 5508SOL    HW117423   5.159   3.604   5.234 -1.4936  1.6644  1.7667
 5508SOL    HW217424   5.225   3.735   5.162  0.1234  1.1516  2.2544
 5509SOL     OW17425   4.999   3.524   6.644 -0.1060  0.4340 -0.4527
 5509SOL    HW117426   4.950   3.583   6.581 -0.5010 -0.3244 -0.8681
 5509SOL    HW217427   4.974   3.547   6.738 -2.0761 -0.6030 -0.6712
 5510SOL     OW17428   6.531   5.002   0.499 -0.8866 -0.6130 -0.3923
 5510SOL    HW117429   6.472   5.079   0.475  0.2872  0.4538  0.0142
 5510SOL    HW217430   6.613   5.037   0.545 -0.4569 -2.1387  0.0412
 5511SOL     OW17431   5.701   3.816   5.966 -0.4152 -0.4747 -0.3790
 5511SOL    HW117432   5.742   3.860   5.886 -0.3040  0.6864  0.3022
 5511SOL    HW217433   5.626   3.871   6.000  0.4146 -0.2345  1.1446
 5512SOL     OW17434   1.250   0.725   1.310  0.5099  0.4461  0.1840
 5512SOL    HW117435   1.313   0.648   1.299 -0.3894 -0.3852  0.7573
 5512SOL    HW217436   1.217   0.728   1.404 -1.7165 -0.2643 -0.5117
 5513SOL     OW17437   3.378   4.707   6.167 -0.0174  0.3081 -0.0673
 5513SOL    HW117438   3.357   4.760   6.250 -1.8424  0.2710 -0.4655
 5513SOL    HW217439   3.462   4.656   6.181  0.4374  1.3606  1.2608
 5514SOL     OW17440   4.765   1.282   1.032 -0.2741 -0.1170  0.1551
 5514SOL    HW117441   4.815   1.289   1.118  0.3260 -0.7350 -0.1300
 5514SOL    HW217442   4.691   1.348   1.031  1.0704  1.4491  0.2280
 5515SOL     OW17443   2.302   4.382   3.227 -0.5277 -0.2241 -0.1751
 5515SOL    HW117444   2.237   4.430   3.286 -1.6080  0.3140 -1.7257
 5515SOL    HW217445   2.254   4.311   3.176  0.3758 -0.6561 -0.4410
 5516SOL     OW17446   0.701   2.809   0.159 -0.0634  0.1530  0.5245
 5516SOL    HW117447   0.671   2.890   0.108 -1.5282 -0.5358  0.2311
 5516SOL    HW217448   0.627   2.780   0.221  0.3122 -1.1595  0.3787
 5517SOL     OW17449   0.540   1.884   4.486 -0.1296  0.1988  0.5326
 5517SOL    HW117450   0.488   1.965   4.515  0.6322  0.5223  1.0206
 5517SOL    HW217451   0.519   1.864   4.391 -0.8210  0.5820  0.5969
 5518SOL     OW17452   3.006   4.407   6.791 -0.4083 -0.2285  0.5902
 5518SOL    HW117453   2.999   4.492   6.739  1.3008  0.5060  1.4996
 5518SOL    HW217454   2.989   4.329   6.731 -3.8197  0.7408  0.0954
 5519SOL     OW17455   5.614   1.999   5.548 -0.0761  0.0291 -0.2681
 5519SOL    HW117456   5.537   2.062   5.562 -1.3235 -1.0112 -2.0212
 5519SOL    HW217457   5.601   1.949   5.463  2.1083 -0.8825 -0.1384
 5520SOL     OW17458   5.838   5.160   1.174 -0.1746 -0.1476 -0.0730
 5520SOL    HW117459   5.928   5.199   1.195 -0.1438  0.2153 -0.8139
 5520SOL    HW217460   5.780   5.164   1.255 -0.2621  1.7440 -0.1740
 5521SOL     OW17461   5.822   6.509   3.186  0.1511 -0.5869 -0.4745
 5521SOL    HW117462   5.848   6.584   3.124  0.1449  0.6975  1.0135
 5521SOL    HW217463   5.731   6.477   3.163  0.5297 -0.7983 -1.7372
 5522SOL     OW17464   6.323   4.731   6.459  0.9829 -0.3038  0.4773
 5522SOL    HW117465   6.336   4.657   6.393  3.3197  0.6048 -0.1679
 5522SOL    HW217466   6.304   4.816   6.410  0.9078  0.0285  1.0795
 5523SOL     OW17467   5.258   0.169   2.249  0.1474 -0.8233  0.5120
 5523SOL    HW117468   5.232   0.114   2.170  0.2961  0.8369 -0.7472
 5523SOL    HW217469   5.358   0.169   2.259  0.0712 -2.0524  1.4994
 5524SOL     OW17470   3.531   1.776   2.204 -0.2950  0.1184 -0.2710
 5524SOL    HW117471   3.493   1.684   2.197 -0.7199  0.2056  0.7065
 5524SOL    HW217472   3.627   1.770   2.232 -0.3280 -0.0216 -0.1872
 5525SOL     OW17473   5.121   6.473   0.947 -0.1429  0.3476 -0.2712
 5525SOL    HW117474   5.094   6.457   1.042 -1.7710 -1.4055 -0.9849
 5525SOL    HW217475   5.078   6.557   0.914 -0.3394  0.4489  0.2303
 5526SOL     OW17476   5.064   5.035   5.286  0.2606 -0.1241 -0.2942
 5526SOL    HW117477   5.026   5.069   5.373  0.8797 -0.9844  0.3298
 5526SOL    HW217478   5.139   5.093   5.257  0.3178 -0.0678 -0.0357
 5527SOL     OW17479   0.371   6.456   2.601 -0.3442 -0.8299  0.3414
 5527SOL    HW117480   0.350   6.553   2.612  1.7662 -0.3158  0.1950
 5527SOL    HW217481   0.446   6.430   2.661 -0.7423 -2.3446  0.2399
 5528SOL     OW17482   2.771   2.548   6.966  0.0728 -0.0903  0.4494
 5528SOL    HW117483   2.827   2.592   7.036 -0.3209  0.3627  0.4851
 5528SOL    HW217484   2.698   2.495   7.009 -0.3364  0.4097  0.3867
 5529SOL     OW17485   3.344   0.785   1.258 -0.1989  0.1848  0.2460
 5529SOL    HW117486   3.396   0.867   1.281  0.5136 -0.4511  0.9533
 5529SOL    HW217487   3.377   0.746   1.172 -0.0460  0.2279  0.2866
 5530SOL     OW17488   1.355   1.434   0.174  0.6789 -0.4043 -0.3846
 5530SOL    HW117489   1.303   1.518   0.160  1.6247  0.0009 -1.5585
 5530SOL    HW217490   1.295   1.355   0.157 -0.4483 -0.0326  1.5327
 5531SOL     OW17491   0.988   3.997   6.091 -0.4474  0.5540  0.4966
 5531SOL    HW117492   0.904   3.968   6.046  0.1628  2.5009 -2.1458
 5531SOL    HW217493   1.067   3.970   6.035  0.6884 -0.2667  2.3733
 5532SOL     OW17494   0.411   4.994   4.202 -0.1682  0.2737 -0.2882
 5532SOL    HW117495   0.332   4.941   4.172 -0.4446  0.2923  0.3977
 5532SOL    HW217496   0.409   5.004   4.301 -1.1121  3.0569 -0.5038
 5533SOL     OW17497   3.887   1.135   4.608  0.4628 -0.5905 -0.6359
 5533SOL    HW117498   3.980   1.171   4.601  1.3758 -2.8165 -0.6100
 5533SOL    HW217499   3.874   1.095   4.699 -0.4044 -0.6431 -0.7772
 5534SOL     OW17500   1.376   0.562   3.090  0.3462 -0.2678  0.2667
 5534SOL    HW117501   1.344   0.591   3.180 -1.7536 -2.1135  0.1936
 5534SOL    HW217502   1.323   0.609   3.019  0.1197 -0.8290  0.0617
 5535SOL     OW17503   0.507   1.546   2.629  0.5151  0.2145 -0.8786
 5535SOL    HW117504   0.430   1.572   2.571  0.1947 -0.3470 -0.7124
 5535SOL    HW217505   0.592   1.578   2.588  0.2704  0.0391 -1.5260
 5536SOL     OW17506   4.652   0.364   5.512  0.5396  0.1952 -0.2195
 5536SOL    HW117507   4.723   0.434   5.504 -1.4342  2.4684  0.9604
 5536SOL    HW217508   4.575   0.386   5.452  0.0567 -1.2697 -0.1962
 5537SOL     OW17509   1.505   2.717   2.928  0.0872  0.2748 -0.5142
 5537SOL    HW117510   1.576   2.721   2.998 -0.9202  0.0919  0.5391
 5537SOL    HW217511   1.548   2.703   2.839  1.2673 -3.0601  0.4011
 5538SOL     OW17512   2.264   6.416   3.462 -0.2584  0.2566  0.1455
 5538SOL    HW117513   2.288   6.324   3.491  0.9087  0.4260 -0.2655
 5538SOL    HW217514   2.292   6.482   3.532  0.5512  0.4576 -0.3546
 5539SOL     OW17515   1.733   4.128   6.784 -0.2301 -0.1810  0.2379
 5539SOL    HW117516   1.748   4.186   6.864 -0.5346  2.3110 -1.3722
 5539SOL    HW217517   1.647   4.154   6.740 -0.5258 -2.1262 -0.4200
 5540SOL     OW17518   3.807   4.105   6.919 -0.2736  0.2147  0.3582
 5540SOL    HW117519   3.768   4.151   6.840 -1.1702  0.3338  0.8572
 5540SOL    HW217520   3.800   4.006   6.907 -1.5973  0.2273  0.8382
 5541SOL     OW17521   5.601   4.805   6.204 -0.1079  0.2403  0.6545
 5541SOL    HW117522   5.626   4.721   6.250 -0.5050 -0.2807 -0.0649
 5541SOL    HW217523   5.502   4.818   6.208 -0.3540 -0.6152 -1.3347
 5542SOL     OW17524   4.380   2.527   5.473 -0.0617 -0.4532 -0.0181
 5542SOL    HW117525   4.384   2.591   5.396  2.3901 -0.3097  0.1733
 5542SOL    HW217526   4.417   2.570   5.555 -2.2998 -0.7404  1.2249
 5543SOL     OW17527   5.890   3.726   5.614 -0.1101 -0.4788  0.1888
 5543SOL    HW117528   5.918   3.772   5.530  0.4282  0.4115  0.8384
 5543SOL    HW217529   5.798   3.688   5.602  0.0229 -0.5075 -0.8454
 5544SOL     OW17530   5.542   6.754   0.512 -0.3780 -0.1278 -0.4969
 5544SOL    HW117531   5.488   6.760   0.597 -1.2369 -2.9706 -0.7533
 5544SOL    HW217532   5.630   6.712   0.532 -0.9667 -1.7288 -1.0884
 5545SOL     OW17533   3.341   1.567   2.187 -0.3202 -0.0449 -0.3515
 5545SOL    HW117534   3.285   1.526   2.115 -0.3121  0.0687 -0.4221
 5545SOL    HW217535   3.281   1.609   2.256 -0.3367 -0.4314 -0.1272
 5546SOL     OW17536   3.382   0.311   5.538 -0.0295  0.1142 -0.1899
 5546SOL    HW117537   3.416   0.360   5.618  0.0050  1.1743 -0.8250
 5546SOL    HW217538   3.458   0.266   5.491 -0.0891 -0.7405  0.5085
 5547SOL     OW17539   2.226   5.610   3.798  0.3405  0.0568  0.2290
 5547SOL    HW117540   2.225   5.707   3.774 -1.8471  0.3870  1.3736
 5547SOL    HW217541   2.314   5.587   3.841 -0.3588  2.5288  3.3952
 5548SOL     OW17542   6.055   0.982   6.386 -0.4312  0.1889 -0.2102
 5548SOL    HW117543   5.988   1.039   6.339 -1.1324 -0.0464  0.4776
 5548SOL    HW217544   6.118   0.943   6.319 -1.3744 -0.1082 -0.9571
 5549SOL     OW17545   4.870   5.511   4.769  0.2635  0.0700  0.3586
 5549SOL    HW117546   4.777   5.545   4.758  0.5593  0.4038 -1.4359
 5549SOL    HW217547   4.869   5.411   4.776 -0.1576 -0.0114 -0.7567
 5550SOL     OW17548   3.104   3.840   0.225  0.5351  0.1871  0.1646
 5550SOL    HW117549   3.107   3.770   0.296  2.0709 -1.2834 -1.2743
 5550SOL    HW217550   3.047   3.808   0.149 -1.7286  2.0576  0.9356
 5551SOL     OW17551   0.608   0.794   2.402 -0.1302  0.7472  0.5604
 5551SOL    HW117552   0.606   0.872   2.464 -1.8126  0.7641  0.5336
 5551SOL    HW217553   0.515   0.773   2.372  0.2501 -1.3586  0.6831
 5552SOL     OW17554   1.740   2.235   2.648  0.1775  0.5879 -0.7334
 5552SOL    HW117555   1.836   2.215   2.630  0.0503  0.5322 -1.3653
 5552SOL    HW217556   1.683   2.188   2.581 -0.4227 -1.0609  0.8350
 5553SOL     OW17557   4.146   0.650   6.322  0.1845  0.3671 -0.1184
 5553SOL    HW117558   4.102   0.698   6.245 -1.1218 -0.6494 -0.0305
 5553SOL    HW217559   4.203   0.715   6.373  1.5359  0.9611 -2.2373
 5554SOL     OW17560   3.511   0.498   5.162 -0.0715  0.8723  0.4772
 5554SOL    HW117561   3.567   0.547   5.228 -0.0357  1.5316 -0.0339
 5554SOL    HW217562   3.431   0.553   5.139  0.5562  1.2203 -0.9727
 5555SOL     OW17563   0.946   6.494   2.692 -0.2365  0.3449  0.2228
 5555SOL    HW117564   0.896   6.564   2.744  0.2376  2.3963 -1.8979
 5555SOL    HW217565   0.885   6.454   2.623  0.1368  0.3919 -0.1357
 5556SOL     OW17566   0.482   0.463   6.356 -0.1345 -0.5235 -0.0538
 5556SOL    HW117567   0.475   0.558   6.386  1.3489 -0.5049  0.2939
 5556SOL    HW217568   0.471   0.459   6.256 -0.1995  0.0062 -0.0701
 5557SOL     OW17569   3.349   1.034   3.020  0.1478 -0.0392 -0.4421
 5557SOL    HW117570   3.344   1.131   2.996 -0.5920 -0.3269 -1.5434
 5557SOL    HW217571   3.302   0.980   2.950 -0.4502 -1.1040  0.7394
 5558SOL     OW17572   5.611   2.698   7.000 -0.2321  0.4807 -0.3164
 5558SOL    HW117573   5.597   2.747   7.086 -1.7868 -0.7758  0.2063
 5558SOL    HW217574   5.660   2.613   7.018  0.8547  0.9479 -0.9463
 5559SOL     OW17575   4.511   1.748   1.525  0.0880  0.2860  0.1239
 5559SOL    HW117576   4.527   1.706   1.615 -0.3945 -0.2845 -0.0473
 5559SOL    HW217577   4.442   1.819   1.534 -1.9088 -1.4912 -0.1913
 5560SOL     OW17578   5.692   1.865   3.196 -0.3784 -0.2455  0.3783
 5560SOL    HW117579   5.605   1.864   3.246 -1.5224  0.6046 -1.4637
 5560SOL    HW217580   5.693   1.790   3.130  0.0428  0.0509  0.0428
 5561SOL     OW17581   2.588   4.523   2.308  0.2943 -0.0067 -0.1514
 5561SOL    HW117582   2.507   4.465   2.306  0.6493 -0.6620  1.8145
 5561SOL    HW217583   2.638   4.514   2.222 -0.8036 -0.9211 -0.7204
 5562SOL     OW17584   4.900   3.732   2.170 -0.2572  0.7796 -0.0480
 5562SOL    HW117585   4.995   3.757   2.153  0.0599 -0.9313 -1.0663
 5562SOL    HW217586   4.890   3.632   2.166 -1.9595  0.8714  0.8071
 5563SOL     OW17587   4.617   3.760   1.425  0.4397 -0.2779 -0.3794
 5563SOL    HW117588   4.519   3.743   1.426  0.1208  1.3551  1.0892
 5563SOL    HW217589   4.634   3.852   1.390  1.5446 -0.9149 -1.5945
 5564SOL     OW17590   5.645   2.340   3.514  0.5028  0.0557  0.1104
 5564SOL    HW117591   5.605   2.348   3.605  1.2453  1.7188  0.3264
 5564SOL    HW217592   5.645   2.430   3.469  2.1916 -0.2798 -0.6375
 5565SOL     OW17593   1.757   3.162   1.409  0.2872  0.3576 -0.4251
 5565SOL    HW117594   1.818   3.228   1.453  0.6480  0.5993 -1.2588
 5565SOL    HW217595   1.681   3.140   1.470  1.7926 -0.8398  1.1130
 5566SOL     OW17596   1.701   3.894   0.820  0.5434 -0.4660  0.0071
 5566SOL    HW117597   1.686   3.941   0.733  2.2492 -1.0142 -0.6255
 5566SOL    HW217598   1.704   3.962   0.894  0.4285  0.1417 -0.5343
 5567SOL     OW17599   0.501   6.708   2.821 -0.1485 -0.6355  0.0637
 5567SOL    HW117600   0.412   6.681   2.857  0.0507 -1.2068  0.1313
 5567SOL    HW217601   0.544   6.772   2.885 -1.6736  1.8775 -1.2539
 5568SOL     OW17602   3.549   1.558   0.583 -0.3297  0.2506 -0.5760
 5568SOL    HW117603   3.482   1.620   0.625 -0.6626 -0.4173 -0.1075
 5568SOL    HW217604   3.608   1.520   0.654 -2.3946 -2.7330 -0.2933
 5569SOL     OW17605   4.945   6.861   7.016  0.4290 -0.4932  0.2304
 5569SOL    HW117606   5.011   6.821   6.952  0.8267 -0.1219  0.4020
 5569SOL    HW217607   4.980   6.855   7.109  0.9166  1.0382  0.1770
 5570SOL     OW17608   6.934   2.613   4.845  0.3286 -0.2486 -0.4515
 5570SOL    HW117609   6.856   2.670   4.872  0.6927  0.3773 -0.6973
 5570SOL    HW217610   6.920   2.520   4.878 -0.4303 -0.0962 -0.3252
 5571SOL     OW17611   6.330   4.058   6.359 -0.4000  0.2529  0.5623
 5571SOL    HW117612   6.342   4.114   6.277  0.2786 -1.2584 -0.4153
 5571SOL    HW217613   6.315   4.117   6.438 -1.5749  1.7296 -0.7130
 5572SOL     OW17614   0.981   4.494   6.107  0.3691 -0.6298 -0.6796
 5572SOL    HW117615   0.971   4.433   6.029 -1.2421  0.2931 -1.2536
 5572SOL    HW217616   0.907   4.562   6.106  1.3185  0.4919  0.6818
 5573SOL     OW17617   1.490   4.177   7.012 -0.0289 -0.5024  0.2013
 5573SOL    HW117618   1.471   4.125   6.929  1.0385 -0.2205 -0.2281
 5573SOL    HW217619   1.587   4.197   7.018 -0.2477  0.4204  0.9764
 5574SOL     OW17620   0.999   6.533   5.486 -0.1820 -0.5702 -0.2384
 5574SOL    HW117621   0.994   6.619   5.537  0.7895  1.3640 -3.1645
 5574SOL    HW217622   0.913   6.483   5.496 -1.9028  2.1304 -0.6373
 5575SOL     OW17623   2.759   0.251   2.953  0.0193  0.3824  0.4055
 5575SOL    HW117624   2.770   0.312   3.031 -1.7130 -1.4522  2.2075
 5575SOL    HW217625   2.723   0.163   2.984  2.6452 -1.7448 -2.0033
 5576SOL     OW17626   5.583   5.917   4.407  0.0567  0.3700  0.4395
 5576SOL    HW117627   5.606   5.858   4.485 -0.0331 -0.3529 -0.0713
 5576SOL    HW217628   5.522   5.990   4.437 -2.3561 -1.5668  0.5145
 5577SOL     OW17629   1.288   5.682   5.817 -0.0727 -0.1722 -0.0411
 5577SOL    HW117630   1.208   5.667   5.876 -0.6047 -0.1957 -0.7553
 5577SOL    HW217631   1.259   5.683   5.722  0.4357  2.1461 -0.2207
 5578SOL     OW17632   3.891   6.709   6.365 -0.6339 -0.2157  0.4728
 5578SOL    HW117633   3.939   6.790   6.331 -1.4552  0.9755  2.0482
 5578SOL    HW217634   3.804   6.735   6.405 -0.0074 -1.5494  2.9592
 5579SOL     OW17635   5.621   2.520   2.849 -0.0050  0.2828  0.8518
 5579SOL    HW117636   5.633   2.486   2.943 -1.3147  0.9031  1.2607
 5579SOL    HW217637   5.537   2.482   2.810  1.1164 -0.8941 -0.5224
 5580SOL     OW17638   0.523   6.285   0.788 -0.2794  0.0213  0.3111
 5580SOL    HW117639   0.598   6.295   0.723 -0.5664  0.5316  0.0525
 5580SOL    HW217640   0.522   6.364   0.850 -0.1931 -0.3121  0.7470
 5581SOL     OW17641   2.718   6.214   1.215  0.0453 -0.3342 -0.7806
 5581SOL    HW117642   2.787   6.145   1.234  0.5634  0.6079  0.9566
 5581SOL    HW217643   2.659   6.226   1.295 -1.2828 -0.1546 -1.7522
 5582SOL     OW17644   4.120   3.641   3.436  0.4467  0.5709  0.3991
 5582SOL    HW117645   4.081   3.549   3.435  1.4726  0.0750 -2.0815
 5582SOL    HW217646   4.122   3.676   3.530  0.6331 -2.1751  1.5036
 5583SOL     OW17647   3.501   0.631   2.151 -0.4024  0.0216 -0.2991
 5583SOL    HW117648   3.432   0.565   2.180  0.1602 -0.6002 -0.3590
 5583SOL    HW217649   3.519   0.696   2.225 -0.0913 -0.6172  0.1858
 5584SOL     OW17650   5.338   4.731   5.333  0.0646 -0.6125  0.7825
 5584SOL    HW117651   5.240   4.745   5.349  0.1064  3.4886 -1.2156
 5584SOL    HW217652   5.350   4.673   5.252 -0.8309  0.3252 -0.0637
 5585SOL     OW17653   7.014   1.675   5.078  0.1707 -0.1965 -0.1736
 5585SOL    HW117654   6.919   1.697   5.057 -0.2877 -0.0484  1.8346
 5585SOL    HW217655   7.061   1.648   4.994 -1.3106  0.8609 -1.4102
 5586SOL     OW17656   1.375   0.685   0.890  0.1954  0.2367 -0.5491
 5586SOL    HW117657   1.355   0.625   0.813  0.8024 -2.0125  0.9448
 5586SOL    HW217658   1.292   0.695   0.946  0.7955 -1.7192  0.7884
 5587SOL     OW17659   3.803   5.976   3.360 -0.2238  0.6083  0.4087
 5587SOL    HW117660   3.885   5.999   3.413 -0.1734  0.9698  0.1749
 5587SOL    HW217661   3.817   6.001   3.264  0.4758 -1.8431 -0.2130
 5588SOL     OW17662   5.958   5.012   6.863 -0.0593 -0.5762 -0.1765
 5588SOL    HW117663   6.048   4.984   6.898 -0.5247 -1.9229  0.0205
 5588SOL    HW217664   5.932   4.951   6.788 -0.8961 -0.3376 -0.0854
 5589SOL     OW17665   1.906   3.949   6.639  0.4490  0.4678  0.1808
 5589SOL    HW117666   1.848   4.023   6.673 -0.4277 -1.0330  2.0848
 5589SOL    HW217667   2.000   3.963   6.670  0.1440  0.4078  1.1378
 5590SOL     OW17668   5.111   6.693   4.367  0.8250  0.6154 -0.6986
 5590SOL    HW117669   5.155   6.734   4.446  2.1905 -0.2126 -0.9980
 5590SOL    HW217670   5.012   6.689   4.382  0.6661  3.4926 -0.4718
 5591SOL     OW17671   4.083   0.682   4.901  0.3671 -0.0861 -0.0046
 5591SOL    HW117672   4.038   0.601   4.938  0.9720  0.5576  2.2647
 5591SOL    HW217673   4.168   0.654   4.856 -0.1988 -0.8536 -0.6324
 5592SOL     OW17674   1.512   4.259   4.320  0.3226  0.2752 -0.6386
 5592SOL    HW117675   1.607   4.233   4.302  0.8180  1.8495 -0.4342
 5592SOL    HW217676   1.476   4.205   4.396  0.7312 -1.0035 -1.3294
 5593SOL     OW17677   3.161   5.198   6.932  0.6456  0.2095  0.4023
 5593SOL    HW117678   3.112   5.122   6.975  1.0328 -1.0759 -1.2955
 5593SOL    HW217679   3.188   5.171   6.839  3.1323  1.4453  0.6778
 5594SOL     OW17680   4.232   0.726   0.167 -0.1680  0.0608  0.2545
 5594SOL    HW117681   4.278   0.793   0.225 -0.1777  0.6591 -0.4254
 5594SOL    HW217682   4.246   0.635   0.206  0.0112  0.4233  1.0785
 5595SOL     OW17683   5.799   3.729   2.468 -0.0395 -0.5755 -0.2538
 5595SOL    HW117684   5.775   3.639   2.432  1.1578 -1.2247  0.4864
 5595SOL    HW217685   5.730   3.796   2.441 -1.9754 -2.0707  0.8125
 5596SOL     OW17686   4.774   3.932   3.351 -0.3060  0.1475 -0.1668
 5596SOL    HW117687   4.850   3.921   3.415  0.6041 -0.6230 -1.3306
 5596SOL    HW217688   4.746   4.028   3.347  2.7036  1.0978 -1.9713
 5597SOL     OW17689   3.629   3.271   0.512 -0.0979  0.0955 -1.3304
 5597SOL    HW117690   3.702   3.230   0.458  0.2666  0.4517 -1.1080
 5597SOL    HW217691   3.613   3.365   0.480  1.1580  0.8614  0.1582
 5598SOL     OW17692   3.928   6.007   1.978  0.3257 -0.0784 -0.6433
 5598SOL    HW117693   4.017   5.974   1.946  0.2543 -0.1980 -0.7202
 5598SOL    HW217694   3.925   6.107   1.971  0.9665  0.0568  0.6785
 5599SOL     OW17695   0.053   4.145   2.432 -0.6023 -0.0402  0.0360
 5599SOL    HW117696   0.054   4.076   2.505  3.0940 -0.9270 -0.6453
 5599SOL    HW217697   0.069   4.235   2.471  1.0583 -0.4749  0.4544
 5600SOL     OW17698   0.607   4.189   3.506  0.3027  0.1729  0.0418
 5600SOL    HW117699   0.653   4.267   3.463 -0.3656  1.5150  1.6649
 5600SOL    HW217700   0.620   4.193   3.605  0.2640 -1.8150  0.1603
 5601SOL     OW17701   5.329   2.541   5.643  0.0759  0.3523 -0.2273
 5601SOL    HW117702   5.305   2.636   5.661 -0.1757  0.1675  0.4787
 5601SOL    HW217703   5.279   2.508   5.563 -0.4759  0.5758  0.0159
 5602SOL     OW17704   4.100   0.692   2.010 -0.0805 -0.4174 -0.0753
 5602SOL    HW117705   4.019   0.723   2.059 -1.7439 -2.2090 -1.5443
 5602SOL    HW217706   4.076   0.614   1.952  3.1213 -2.4764  1.0637
 5603SOL     OW17707   3.966   1.597   5.371  0.1973  0.0266  0.0302
 5603SOL    HW117708   3.926   1.581   5.462 -0.3691 -2.7981 -0.6310
 5603SOL    HW217709   4.059   1.561   5.369  0.7471  1.3868 -0.1411
 5604SOL     OW17710   1.640   2.689   3.798 -0.4136  0.9598 -0.3984
 5604SOL    HW117711   1.586   2.738   3.866 -0.8599 -1.0544  0.7745
 5604SOL    HW217712   1.737   2.694   3.821 -0.7374 -2.6454  2.6125
 5605SOL     OW17713   3.654   6.955   3.206  0.1209  0.3024  0.0354
 5605SOL    HW117714   3.615   6.912   3.124  0.1925  0.5564 -0.1347
 5605SOL    HW217715   3.731   6.900   3.239 -0.4815 -0.2952  0.4751
 5606SOL     OW17716   3.903   4.245   6.526  0.6799 -0.0211  0.3385
 5606SOL    HW117717   3.988   4.201   6.555  0.5025  0.3662  1.4862
 5606SOL    HW217718   3.829   4.221   6.590 -0.0783 -0.3299 -0.6287
 5607SOL     OW17719   6.942   0.813   1.301 -0.4588  0.0081  0.2024
 5607SOL    HW117720   6.923   0.880   1.229 -2.3552  0.7943  1.3686
 5607SOL    HW217721   7.036   0.780   1.292 -0.3796  0.6956 -2.1092
 5608SOL     OW17722   6.372   6.655   4.007  0.1353  0.5516  0.0521
 5608SOL    HW117723   6.471   6.668   4.016 -0.1045  1.0328  3.2957
 5608SOL    HW217724   6.340   6.597   4.082 -2.2006  1.2706 -0.3151
 5609SOL     OW17725   0.142   6.563   0.167  0.5190  0.4938 -0.1483
 5609SOL    HW117726   0.103   6.529   0.252 -0.9282 -0.8831 -1.3000
 5609SOL    HW217727   0.222   6.508   0.142 -0.6303 -0.8937 -0.9763
 5610SOL     OW17728   4.749   6.060   6.864  0.3344  0.2006 -0.4466
 5610SOL    HW117729   4.823   6.042   6.799  0.5352 -0.5609 -0.0217
 5610SOL    HW217730   4.681   5.987   6.858  1.9632 -1.7375  2.4420
 5611SOL     OW17731   6.302   4.208   3.145 -0.9771  0.0632  0.2339
 5611SOL    HW117732   6.349   4.293   3.171  1.8612 -1.5039  0.6304
 5611SOL    HW217733   6.349   4.167   3.067 -1.6687 -1.6804  0.7018
 5612SOL     OW17734   4.972   2.578   6.935 -0.1625  0.0214  0.7467
 5612SOL    HW117735   4.946   2.668   6.899 -1.1815 -0.3025  0.6307
 5612SOL    HW217736   4.919   2.560   7.018  0.1101 -0.4342  0.8219
 5613SOL     OW17737   0.968   3.408   5.097  0.5576 -0.3802  0.0739
 5613SOL    HW117738   1.036   3.473   5.131  2.4301 -0.7965 -2.5620
 5613SOL    HW217739   1.009   3.317   5.093 -0.9888 -1.1271  0.6999
 5614SOL     OW17740   0.325   1.452   3.768 -0.5054 -0.3189  0.8642
 5614SOL    HW117741   0.299   1.519   3.838 -0.4785 -0.3635  0.9163
 5614SOL    HW217742   0.377   1.378   3.810  1.0326  0.5163  0.5490
 5615SOL     OW17743   6.002   2.913   3.893  0.2037 -0.0893 -0.3208
 5615SOL    HW117744   6.070   2.840   3.883  0.9191  0.6529 -1.0426
 5615SOL    HW217745   6.032   2.976   3.965 -0.9758 -1.0841  1.1114
 5616SOL     OW17746   6.773   3.489   2.313  0.1678  0.2298  0.0551
 5616SOL    HW117747   6.833   3.533   2.246 -0.1765  0.8831  0.1649
 5616SOL    HW217748   6.705   3.433   2.265  1.6996 -1.6533 -0.0264
 5617SOL     OW17749   6.312   4.939   5.050  0.4585  0.1661  0.3063
 5617SOL    HW117750   6.332   4.991   4.967  1.7678 -0.5843  0.1212
 5617SOL    HW217751   6.236   4.982   5.099 -1.0826  0.0338 -1.8036
 5618SOL     OW17752   3.930   0.693   4.061  0.8880 -0.2991  0.0504
 5618SOL    HW117753   3.946   0.614   4.119  1.6258 -0.4725 -0.3742
 5618SOL    HW217754   4.007   0.704   3.998 -0.1036 -0.4163 -1.2278
 5619SOL     OW17755   3.282   3.287   3.497  0.0446  0.5977  0.0016
 5619SOL    HW117756   3.230   3.213   3.455  1.4339  1.6488 -3.9550
 5619SOL    HW217757   3.367   3.251   3.535  0.0393 -0.0435 -0.5848
 5620SOL     OW17758   5.943   4.796   5.577 -0.0788  0.1737 -0.3423
 5620SOL    HW117759   5.862   4.852   5.594 -1.1764 -1.1711 -1.0167
 5620SOL    HW217760   6.014   4.853   5.535 -1.3265  0.9833 -1.4210
 5621SOL     OW17761   3.184   5.286   0.745  0.4338  0.0713 -0.4611
 5621SOL    HW117762   3.184   5.268   0.844 -0.5065  1.6344 -0.1472
 5621SOL    HW217763   3.218   5.378   0.727  0.0257  0.0276 -1.5392
 5622SOL     OW17764   6.631   3.647   3.946 -0.1729 -0.2514  0.1752
 5622SOL    HW117765   6.644   3.585   3.868 -1.2332  0.9621 -1.0249
 5622SOL    HW217766   6.635   3.594   4.031 -0.5081 -1.8891 -0.7697
 5623SOL     OW17767   4.896   4.608   4.058 -0.3065 -0.7143 -0.1651
 5623SOL    HW117768   4.987   4.647   4.042 -0.1971 -1.1125 -0.5358
 5623SOL    HW217769   4.905   4.518   4.101 -0.4728 -1.2811 -1.2703
 5624SOL     OW17770   0.303   3.959   4.859 -0.2185 -0.1779  0.6850
 5624SOL    HW117771   0.293   4.050   4.818 -0.0389 -0.1511  0.7010
 5624SOL    HW217772   0.220   3.906   4.841 -0.9381  0.4774  1.9385
 5625SOL     OW17773   3.019   6.894   0.043  0.0378  0.1108  0.3297
 5625SOL    HW117774   3.053   6.873  -0.049  0.3046 -0.8904  0.6475
 5625SOL    HW217775   2.983   6.811   0.085 -1.0879  0.7741  0.7292
 5626SOL     OW17776   3.439   4.520   5.686 -0.2670 -0.1124  0.0815
 5626SOL    HW117777   3.521   4.552   5.637 -0.4533 -0.6256 -0.5912
 5626SOL    HW217778   3.466   4.474   5.770  0.1181  0.0379  0.0413
 5627SOL     OW17779   1.892   5.222   5.836  0.1954 -0.0481 -0.6111
 5627SOL    HW117780   1.842   5.258   5.758 -0.7162  1.5325  0.6307
 5627SOL    HW217781   1.988   5.250   5.830  0.4882 -1.1907 -1.8608
 5628SOL     OW17782   2.969   2.498   1.157 -0.0672 -0.2181  0.1426
 5628SOL    HW117783   3.026   2.419   1.179 -0.9232 -1.1325 -0.8143
 5628SOL    HW217784   2.877   2.484   1.194 -0.3302  0.1579 -0.3616
 5629SOL     OW17785   0.623   2.953   4.383  0.2334  0.3419  0.5839
 5629SOL    HW117786   0.614   3.052   4.396 -1.9212  0.8873 -3.5136
 5629SOL    HW217787   0.552   2.906   4.435 -2.5504  1.5842 -1.8189
 5630SOL     OW17788   2.357   5.018   5.172 -0.0358  0.1372  0.4398
 5630SOL    HW117789   2.268   5.033   5.129  0.0924 -0.6756 -0.1235
 5630SOL    HW217790   2.357   4.931   5.221 -1.1348  2.1986  4.6263
 5631SOL     OW17791   4.191   2.140   2.456  0.0259  0.5384 -0.8258
 5631SOL    HW117792   4.128   2.217   2.453  2.5084  2.6906 -1.9186
 5631SOL    HW217793   4.164   2.077   2.528 -2.0968  2.4570  0.1692
 5632SOL     OW17794   2.627   6.257   5.745 -0.3731 -0.2540  0.4850
 5632SOL    HW117795   2.627   6.338   5.687  1.6598 -1.1645 -0.8713
 5632SOL    HW217796   2.596   6.283   5.837 -1.4646  1.6647 -0.3518
 5633SOL     OW17797   1.376   5.556   4.088 -0.0115 -0.2066 -0.2621
 5633SOL    HW117798   1.377   5.655   4.095 -1.7868  0.0009 -2.0139
 5633SOL    HW217799   1.334   5.517   4.170  0.2587  0.4929  0.2194
 5634SOL     OW17800   2.554   6.821   2.209 -0.1698  0.0495 -0.6604
 5634SOL    HW117801   2.602   6.883   2.148  0.5311  0.0633 -0.0997
 5634SOL    HW217802   2.528   6.738   2.159  0.9633 -0.2205 -0.8258
 5635SOL     OW17803   3.702   0.045   2.253  0.0678 -0.1390  0.0942
 5635SOL    HW117804   3.678   0.137   2.282  0.9462  0.4167 -0.8740
 5635SOL    HW217805   3.620  -0.012   2.252 -0.3063  0.3065  1.7588
 5636SOL     OW17806   3.194   6.734   3.667  0.2455 -0.2741  0.2654
 5636SOL    HW117807   3.293   6.743   3.657  0.4137 -0.7016  1.3532
 5636SOL    HW217808   3.148   6.790   3.599  1.2358  0.8893  0.5264
 5637SOL     OW17809   0.298   6.575   4.237 -0.5213  0.2046  0.1336
 5637SOL    HW117810   0.232   6.613   4.173 -1.5173 -1.6175  0.0249
 5637SOL    HW217811   0.371   6.530   4.186 -1.7722 -2.0220  0.1934
 5638SOL     OW17812   3.722   6.831   0.754  0.2202  0.6001  0.2377
 5638SOL    HW117813   3.756   6.738   0.741 -0.0247  0.6528 -0.8897
 5638SOL    HW217814   3.668   6.859   0.674 -0.8243  1.2339  1.1292
 5639SOL     OW17815   2.484   0.885   0.409 -0.1829  0.1700  0.5912
 5639SOL    HW117816   2.387   0.909   0.410  0.3998  2.9366  2.9860
 5639SOL    HW217817   2.510   0.846   0.498  1.6435  3.4671  1.6597
 5640SOL     OW17818   3.838   6.799   3.306  0.4653 -0.4681  0.2255
 5640SOL    HW117819   3.932   6.769   3.319  0.3878 -0.4858  0.7688
 5640SOL    HW217820   3.781   6.765   3.381  0.0961 -0.1616  0.0880
 5641SOL     OW17821   6.966   2.946   3.555 -0.0440  0.1649  0.7630
 5641SOL    HW117822   6.993   3.025   3.610  0.5822  2.4643 -2.5517
 5641SOL    HW217823   6.867   2.948   3.541  0.0172  0.6432  0.3571
 5642SOL     OW17824   1.945   2.206   0.508  0.0786  0.1042  0.2405
 5642SOL    HW117825   1.873   2.213   0.577  1.3984  0.8325  1.6030
 5642SOL    HW217826   1.938   2.282   0.444 -0.4292  0.0936  0.2789
 5643SOL     OW17827   5.679   2.414   4.131  0.2608 -0.2586 -0.4469
 5643SOL    HW117828   5.760   2.395   4.075  0.1226 -1.5337 -0.2533
 5643SOL    HW217829   5.614   2.338   4.122 -0.7393  0.5690 -0.2881
 5644SOL     OW17830   3.236   6.200   4.084  0.6417  0.1852 -0.3553
 5644SOL    HW117831   3.196   6.291   4.069  0.0644 -0.0504 -0.2663
 5644SOL    HW217832   3.289   6.200   4.168 -0.8961 -0.0525  0.6541
 5645SOL     OW17833   7.014   0.304   4.376  0.3702 -0.6959  0.2982
 5645SOL    HW117834   7.006   0.305   4.475  0.2273 -1.3988  0.2977
 5645SOL    HW217835   6.923   0.309   4.335  0.4077 -0.8115  0.2023
 5646SOL     OW17836   5.866   1.457   2.834 -0.6261  0.0519 -0.2578
 5646SOL    HW117837   5.859   1.401   2.751  1.7195 -0.3372 -0.2368
 5646SOL    HW217838   5.923   1.410   2.901 -1.5784  0.8765  1.1751
 5647SOL     OW17839   5.665   4.934   4.497  0.5981  0.7169  0.2166
 5647SOL    HW117840   5.597   4.908   4.428 -0.1608 -1.1382  1.5821
 5647SOL    HW217841   5.733   4.861   4.505  0.4421  0.7089  1.6907
 5648SOL     OW17842   2.411   2.605   0.680  0.5123 -0.8248 -0.2806
 5648SOL    HW117843   2.470   2.534   0.720  1.7445 -0.6199 -1.6207
 5648SOL    HW217844   2.466   2.686   0.659 -0.2511 -0.5940 -1.5008
 5649SOL     OW17845   0.807   5.114   4.248 -0.2176  0.5178  0.0439
 5649SOL    HW117846   0.748   5.163   4.312 -0.9041  0.0460 -0.2113
 5649SOL    HW217847   0.784   5.016   4.250  0.0972  0.4293 -0.5452
 5650SOL     OW17848   5.919   4.843   6.644 -0.0957 -0.4421  0.7900
 5650SOL    HW117849   5.968   4.858   6.558 -1.7131 -0.9984 -0.2677
 5650SOL    HW217850   5.837   4.901   6.646 -1.0908 -1.8208  1.0883
 5651SOL     OW17851   5.730   0.867   2.755 -0.0611 -0.5263  0.4611
 5651SOL    HW117852   5.719   0.778   2.711 -0.1307 -0.6939  0.8216
 5651SOL    HW217853   5.648   0.890   2.807 -0.4425  0.1904 -0.4218
 5652SOL     OW17854   4.556   5.830   6.908 -0.1718 -0.4361  0.1026
 5652SOL    HW117855   4.540   5.757   6.841  1.4902 -1.1163  0.4102
 5652SOL    HW217856   4.471   5.881   6.922 -0.6746 -0.4851 -2.2595
 5653SOL     OW17857   3.650   0.232   4.872  0.0819 -0.4133 -0.7965
 5653SOL    HW117858   3.585   0.221   4.797 -0.4124  1.3416 -0.6728
 5653SOL    HW217859   3.694   0.321   4.866  1.2111 -0.8711  0.1257
 5654SOL     OW17860   2.780   0.751   0.823 -0.4174 -0.2538 -0.2331
 5654SOL    HW117861   2.853   0.684   0.807  0.5432  0.7903 -0.3371
 5654SOL    HW217862   2.754   0.749   0.919 -1.4157 -1.7627 -0.5007
 5655SOL     OW17863   0.403   2.912   2.613 -0.2582  0.3708 -0.0262
 5655SOL    HW117864   0.340   2.865   2.551  0.8788 -0.7058 -0.4229
 5655SOL    HW217865   0.375   2.897   2.708 -0.1058 -0.8552 -0.1618
 5656SOL     OW17866   2.625   6.453   6.736  0.3280 -0.3148  0.4393
 5656SOL    HW117867   2.700   6.492   6.790  0.7652  3.3127 -2.3649
 5656SOL    HW217868   2.540   6.463   6.787  1.0825  0.1529  1.6771
 5657SOL     OW17869   4.555   4.417   1.674 -0.5040 -0.2698  0.6135
 5657SOL    HW117870   4.580   4.507   1.710 -0.8865  0.1182 -0.0507
 5657SOL    HW217871   4.512   4.362   1.746 -1.4164  0.5516  0.7239
 5658SOL     OW17872   4.184   1.237   4.801 -0.1266 -0.2988  0.0166
 5658SOL    HW117873   4.117   1.275   4.865 -1.1308 -3.5402  1.1038
 5658SOL    HW217874   4.198   1.301   4.726 -1.1456  2.3787  1.9523
 5659SOL     OW17875   2.696   4.155   1.472  0.0116 -0.1244  0.6374
 5659SOL    HW117876   2.681   4.242   1.518 -0.2802  0.4311 -0.4531
 5659SOL    HW217877   2.787   4.153   1.431  0.1051 -0.4291  0.8551
 5660SOL     OW17878   1.143   2.573   2.870  0.2500  0.4568  0.3046
 5660SOL    HW117879   1.161   2.654   2.925  0.3474 -0.0369  1.0099
 5660SOL    HW217880   1.226   2.518   2.862 -0.0934 -0.1480  0.7870
 5661SOL     OW17881   0.247   5.067   4.928 -0.3318 -0.3219  0.0718
 5661SOL    HW117882   0.156   5.053   4.891 -0.5521  0.3770  0.3253
 5661SOL    HW217883   0.255   5.161   4.963  0.2031 -0.6387  0.8308
 5662SOL     OW17884   1.189   4.159   4.405 -0.2944 -0.1083 -0.4461
 5662SOL    HW117885   1.146   4.077   4.441 -0.8086  0.8078  1.1003
 5662SOL    HW217886   1.284   4.164   4.437 -0.8549  0.8874  1.2050
 5663SOL     OW17887   1.994   4.011   0.269 -0.1304  0.5834  1.2313
 5663SOL    HW117888   2.068   3.970   0.216 -0.7020  0.4371  0.5227
 5663SOL    HW217889   1.907   3.969   0.242 -0.6092  1.5639  1.2162
 5664SOL     OW17890   3.697   6.614   6.971 -0.0897 -0.6399  0.2843
 5664SOL    HW117891   3.603   6.647   6.973 -0.4696 -1.6997  0.3779
 5664SOL    HW217892   3.755   6.680   6.923 -0.8049  0.1985  0.5640
 5665SOL     OW17893   0.661   6.163   6.650  0.0383 -0.0991 -0.0153
 5665SOL    HW117894   0.707   6.202   6.729  0.0077  0.2078 -0.1488
 5665SOL    HW217895   0.643   6.066   6.667  1.7098 -0.5132 -0.3800
 5666SOL     OW17896   4.398   1.157   6.723 -0.0220 -0.7484  0.2078
 5666SOL    HW117897   4.328   1.216   6.683  0.8150 -0.6510 -1.1805
 5666SOL    HW217898   4.364   1.118   6.808 -2.5759 -2.2601 -1.3534
 5667SOL     OW17899   5.067   3.178   2.483  0.2482 -0.3834  0.2366
 5667SOL    HW117900   5.148   3.237   2.484 -0.5233  0.7107  0.3138
 5667SOL    HW217901   5.085   3.097   2.427  1.1693  0.1668 -0.2898
 5668SOL     OW17902   5.899   3.841   6.753 -0.3252 -0.3187  0.0434
 5668SOL    HW117903   5.936   3.786   6.828  0.9535 -1.8321 -1.6230
 5668SOL    HW217904   5.800   3.849   6.764 -0.1697 -0.4809  1.8683
 5669SOL     OW17905   6.704   3.543   5.090 -0.0209 -0.3439 -0.0069
 5669SOL    HW117906   6.679   3.597   5.009 -0.5758  2.0184  1.6521
 5669SOL    HW217907   6.662   3.583   5.171  2.9764 -0.8034  1.9008
 5670SOL     OW17908   0.418   1.540   2.234 -0.2612 -0.3925  0.2233
 5670SOL    HW117909   0.400   1.447   2.266  0.9080 -0.4304  0.8238
 5670SOL    HW217910   0.395   1.605   2.306 -1.0646 -0.2026 -0.1911
 5671SOL     OW17911   0.686   2.616   6.325  0.5862 -0.4145 -0.1512
 5671SOL    HW117912   0.724   2.553   6.392 -0.0380 -2.2186 -1.4016
 5671SOL    HW217913   0.631   2.685   6.372  2.6586  0.2724  1.3988
 5672SOL     OW17914   1.557   4.566   0.846  0.3452  0.3412  0.2031
 5672SOL    HW117915   1.531   4.480   0.889 -0.6481 -0.3296 -1.6170
 5672SOL    HW217916   1.585   4.549   0.751 -2.1323  2.2162 -0.9732
 5673SOL     OW17917   1.777   5.990   0.933  0.7161 -0.1800  0.0460
 5673SOL    HW117918   1.870   5.986   0.897  1.3286  0.1746  1.5347
 5673SOL    HW217919   1.768   6.068   0.995 -0.6030 -0.1614 -0.1290
 5674SOL     OW17920   6.874   2.758   6.168  0.4207 -0.1553 -0.5713
 5674SOL    HW117921   6.903   2.664   6.147 -2.2099 -1.0368 -0.5518
 5674SOL    HW217922   6.812   2.758   6.246  1.8257  1.8846  0.6472
 5675SOL     OW17923   4.450   0.830   5.086 -0.0431  0.5266 -0.8097
 5675SOL    HW117924   4.355   0.820   5.116 -0.1883 -0.6205 -1.5909
 5675SOL    HW217925   4.490   0.739   5.070  1.3842  0.9556  0.0668
 5676SOL     OW17926   3.027   5.487   3.278  0.0758 -0.1648  0.3142
 5676SOL    HW117927   3.118   5.517   3.308  0.2095  0.8997 -1.0353
 5676SOL    HW217928   3.032   5.393   3.245  0.9205  0.1812 -0.6050
 5677SOL     OW17929   4.527   0.711   3.841 -1.1469 -0.2077 -0.0366
 5677SOL    HW117930   4.618   0.687   3.875 -0.8070 -0.5703 -1.1568
 5677SOL    HW217931   4.534   0.791   3.782 -1.4743 -0.5519 -0.5474
 5678SOL     OW17932   0.313   4.381   2.142 -0.2509 -0.3998 -0.2947
 5678SOL    HW117933   0.309   4.405   2.046 -1.0210  1.2208  0.1036
 5678SOL    HW217934   0.294   4.283   2.153 -1.6785 -0.3094 -1.6676
 5679SOL     OW17935   3.064   0.330   6.285 -0.3781  0.5420  0.3323
 5679SOL    HW117936   3.156   0.293   6.297 -0.3839  0.3314 -0.2230
 5679SOL    HW217937   3.066   0.405   6.219 -0.5065  0.9612  0.7967
 5680SOL     OW17938   0.122   0.146   5.945  0.4521 -0.2010  0.0401
 5680SOL    HW117939   0.120   0.051   5.976 -0.0662 -0.7072 -1.4439
 5680SOL    HW217940   0.043   0.163   5.885  0.1916  1.3480  0.7658
 5681SOL     OW17941   4.960   4.040   1.243 -0.2928  0.1497  0.1171
 5681SOL    HW117942   4.903   4.006   1.168  0.4822  0.4701 -0.6271
 5681SOL    HW217943   4.902   4.086   1.310 -0.9958 -0.1597 -0.2650
 5682SOL     OW17944   2.969   5.533   1.783  0.2149 -0.2531 -0.3060
 5682SOL    HW117945   2.976   5.434   1.796 -0.1893 -0.5308 -1.9689
 5682SOL    HW217946   3.036   5.562   1.715 -1.2301  0.2184 -1.5713
 5683SOL     OW17947   3.483   3.351   2.282  0.4573  0.0548  1.2231
 5683SOL    HW117948   3.495   3.261   2.241  1.3176  0.0868  1.3860
 5683SOL    HW217949   3.455   3.341   2.378 -1.2356 -0.0195  0.7643
 5684SOL     OW17950   3.581   3.435   3.282 -0.5770 -0.2419 -0.1756
 5684SOL    HW117951   3.591   3.534   3.292 -3.3362  0.4571 -2.7450
 5684SOL    HW217952   3.484   3.412   3.274  0.0815 -2.8737 -1.8219
 5685SOL     OW17953   6.806   1.566   1.954  0.2693  0.0116 -0.6269
 5685SOL    HW117954   6.844   1.659   1.958  1.2005 -0.3979  0.2919
 5685SOL    HW217955   6.877   1.502   1.926 -0.4490 -0.4012 -1.5709
 5686SOL     OW17956   3.967   2.081   6.132  0.2812 -0.0830 -0.3585
 5686SOL    HW117957   3.890   2.018   6.126 -1.3377  1.7548  0.1134
 5686SOL    HW217958   4.010   2.073   6.223 -0.0002 -0.4053 -0.2539
 5687SOL     OW17959   4.055   0.416   6.466 -0.1074  0.0435  0.1266
 5687SOL    HW117960   4.063   0.513   6.443  2.0394  0.2217  1.3311
 5687SOL    HW217961   4.075   0.361   6.384 -1.1752  0.5805 -0.5186
 5688SOL     OW17962   4.402   6.890   2.449 -0.0692 -0.2164 -0.2435
 5688SOL    HW117963   4.337   6.903   2.374 -0.4244 -0.3436  0.0391
 5688SOL    HW217964   4.491   6.928   2.424 -0.1831 -0.2766 -0.7350
 5689SOL     OW17965   3.469   4.708   5.239 -0.5470 -0.5753  0.1113
 5689SOL    HW117966   3.471   4.614   5.204 -0.3962 -0.3103 -0.6083
 5689SOL    HW217967   3.431   4.768   5.169 -0.1856 -0.0227  0.3854
 5690SOL     OW17968   3.466   1.088   3.647 -0.1067  0.1237  0.0747
 5690SOL    HW117969   3.419   1.008   3.684 -1.9620  0.5869 -1.0913
 5690SOL    HW217970   3.519   1.061   3.567 -0.7760  0.0468 -0.3524
 5691SOL     OW17971   3.063   5.912   1.639 -0.5919  0.0802 -0.2813
 5691SOL    HW117972   3.057   5.945   1.733  2.1771 -0.1038  0.0466
 5691SOL    HW217973   2.979   5.933   1.590 -2.3346 -0.3010  2.3710
 5692SOL     OW17974   6.431   3.696   2.675 -0.3021  0.2128 -0.1515
 5692SOL    HW117975   6.518   3.675   2.720 -0.3641  0.5049  0.1163
 5692SOL    HW217976   6.423   3.643   2.591  0.4535  0.6981 -0.5501
 5693SOL     OW17977   5.855   2.945   3.658 -0.2180 -0.1211 -0.0453
 5693SOL    HW117978   5.764   2.983   3.672  0.0818  0.6773 -0.2247
 5693SOL    HW217979   5.892   2.915   3.746 -1.3515 -2.1209 -0.1941
 5694SOL     OW17980   2.349   1.529   5.022 -0.2350 -0.5823 -0.2705
 5694SOL    HW117981   2.343   1.561   4.928  0.7277 -0.7081 -0.3824
 5694SOL    HW217982   2.354   1.608   5.084  1.9077 -0.4467 -0.5330
 5695SOL     OW17983   1.382   3.710   2.389 -0.3729 -0.0310  0.3598
 5695SOL    HW117984   1.415   3.690   2.297 -1.4795  0.7743 -0.2374
 5695SOL    HW217985   1.423   3.646   2.454  1.3257  0.1275 -0.5119
 5696SOL     OW17986   3.381   0.896   6.485 -0.3144 -0.3542 -0.8537
 5696SOL    HW117987   3.419   0.840   6.558 -1.2124 -0.0069 -0.1015
 5696SOL    HW217988   3.433   0.982   6.478  0.6065 -0.9426 -1.5307
 5697SOL     OW17989   4.827   3.488   0.510 -0.5666 -0.1144 -0.1122
 5697SOL    HW117990   4.897   3.418   0.491  0.5121  0.5479  1.3121
 5697SOL    HW217991   4.809   3.540   0.426 -0.0284 -0.8758 -0.7182
 5698SOL     OW17992   1.947   4.013   5.805 -0.1119  0.7484 -0.0990
 5698SOL    HW117993   1.888   4.034   5.882  0.8994  1.0856  0.6070
 5698SOL    HW217994   2.031   4.068   5.811  0.2469  0.3376 -1.1066
 5699SOL     OW17995   0.834   1.165   6.773 -0.2160  0.2563 -0.5861
 5699SOL    HW117996   0.747   1.201   6.739 -0.3997 -1.4297 -2.0370
 5699SOL    HW217997   0.893   1.142   6.695  1.2755  0.7303  0.3592
 5700SOL     OW17998   2.055   6.353   4.763  0.0310 -0.2424  0.5315
 5700SOL    HW117999   2.010   6.374   4.850 -1.5492 -2.6756  0.3898
 5700SOL    HW218000   2.117   6.276   4.776 -1.0808 -1.3741 -0.7008
 5701SOL     OW18001   3.693   0.996   2.012  0.0893  0.0681 -0.0955
 5701SOL    HW118002   3.636   0.952   1.942  0.8156 -0.3956 -0.4047
 5701SOL    HW218003   3.758   0.929   2.048 -0.2814  0.2930  1.0396
 5702SOL     OW18004   4.050   0.974   0.192  0.0188  0.3122  0.9127
 5702SOL    HW118005   4.098   0.886   0.197  0.3551  0.3646 -0.8697
 5702SOL    HW218006   4.097   1.034   0.128 -1.5456  0.9570  0.3240
 5703SOL     OW18007   4.731   4.131   1.747  0.1813 -0.0721 -0.5585
 5703SOL    HW118008   4.791   4.210   1.740 -0.7427  0.7452  0.4832
 5703SOL    HW218009   4.643   4.159   1.784 -1.2514 -1.0495 -2.9635
 5704SOL     OW18010   0.821   3.531   1.621 -0.0881  0.1821  0.0929
 5704SOL    HW118011   0.776   3.619   1.640  0.7828  0.4306  1.1260
 5704SOL    HW218012   0.795   3.465   1.692 -0.6240 -0.3583 -0.5985
 5705SOL     OW18013   5.849   1.869   5.308  0.0896 -0.3158  0.0012
 5705SOL    HW118014   5.750   1.872   5.298  0.1713  0.6476 -0.6357
 5705SOL    HW218015   5.879   1.945   5.366  0.5779  0.2407 -0.9672
 5706SOL     OW18016   2.333   3.171   0.011  0.6897 -0.1130  0.0368
 5706SOL    HW118017   2.344   3.112   0.090  1.5960  0.8385  0.6530
 5706SOL    HW218018   2.302   3.118  -0.067  0.0186 -1.1139  0.9616
 5707SOL     OW18019   5.324   5.038   1.831  0.1668  0.4894 -0.9229
 5707SOL    HW118020   5.247   5.019   1.769  0.5013 -1.5498 -0.7807
 5707SOL    HW218021   5.341   4.957   1.888  0.0839  2.1536  1.6482
 5708SOL     OW18022   6.846   6.907   6.826 -0.4095  0.3407  0.2098
 5708SOL    HW118023   6.886   6.841   6.763 -1.4275  0.1383 -0.2442
 5708SOL    HW218024   6.899   6.992   6.823  0.9309 -0.4432  0.8352
 5709SOL     OW18025   6.499   3.539   0.640  0.5514  0.0043 -0.1240
 5709SOL    HW118026   6.420   3.478   0.634  0.2983  0.2712  0.3991
 5709SOL    HW218027   6.550   3.518   0.724  0.9924 -0.1153 -0.4196
 5710SOL     OW18028   3.150   5.854   4.564  0.3793  0.9548 -0.0876
 5710SOL    HW118029   3.204   5.833   4.482  1.0771 -0.0762  0.6095
 5710SOL    HW218030   3.167   5.948   4.591  2.7618  0.3666  0.7406
 5711SOL     OW18031   6.739   1.753   5.036  0.4368 -0.6760 -0.4622
 5711SOL    HW118032   6.665   1.729   5.099  0.7338  0.9234  0.5718
 5711SOL    HW218033   6.701   1.777   4.947 -0.2111 -0.6767 -0.1919
 5712SOL     OW18034   5.239   2.346   6.042 -0.2747  0.7651  0.4995
 5712SOL    HW118035   5.146   2.311   6.054 -0.9806  2.6544  0.8127
 5712SOL    HW218036   5.298   2.312   6.115 -0.9408  0.3127  0.8301
 5713SOL     OW18037   0.543   1.793   2.799 -0.0387 -0.3165  0.1831
 5713SOL    HW118038   0.583   1.784   2.890  0.3048  0.7879  0.1553
 5713SOL    HW218039   0.523   1.702   2.762  0.3230 -0.7927  1.1329
 5714SOL     OW18040   3.846   5.848   1.381  0.3094  0.7895 -0.6468
 5714SOL    HW118041   3.746   5.859   1.389  0.4876  2.1665  0.0203
 5714SOL    HW218042   3.871   5.753   1.397 -0.7226  0.7900  1.2377
 5715SOL     OW18043   4.785   0.576   4.085  0.7404  0.6978 -0.0217
 5715SOL    HW118044   4.745   0.663   4.112  1.7774  1.1769 -0.0057
 5715SOL    HW218045   4.873   0.564   4.129  0.9157 -0.0553 -0.5527
 5716SOL     OW18046   1.181   2.823   4.948  0.2443 -0.6491 -0.1500
 5716SOL    HW118047   1.212   2.831   4.853  2.3813  0.3716  0.5685
 5716SOL    HW218048   1.231   2.749   4.993  0.0091 -0.4562  0.4375
 5717SOL     OW18049   0.386   3.791   0.003 -0.1965 -0.3317 -0.0443
 5717SOL    HW118050   0.351   3.885  -0.001  1.3198  0.2702 -0.1296
 5717SOL    HW218051   0.312   3.729   0.026 -1.5071  0.7174 -1.2240
 5718SOL     OW18052   2.239   0.373   3.891  0.0053 -0.5675  0.0931
 5718SOL    HW118053   2.186   0.374   3.976  0.4148 -2.9722  0.4599
 5718SOL    HW218054   2.328   0.418   3.906 -0.2403 -0.2759  0.6987
 5719SOL     OW18055   3.138   2.654   0.947 -0.3236  0.2264  0.2586
 5719SOL    HW118056   3.185   2.610   0.870 -2.4176 -0.2084 -0.8473
 5719SOL    HW218057   3.090   2.584   1.001 -0.0621  0.6967  1.1112
 5720SOL     OW18058   1.504   4.902   3.603 -0.1437 -0.3628  0.0469
 5720SOL    HW118059   1.518   4.825   3.665  2.2120  1.1438  1.5524
 5720SOL    HW218060   1.455   4.975   3.651 -0.7765 -0.2218 -0.7890
 5721SOL     OW18061   4.197   5.027   6.834 -0.5125 -0.1361  0.5137
 5721SOL    HW118062   4.262   5.093   6.798 -2.5164  0.5079 -2.2918
 5721SOL    HW218063   4.105   5.068   6.835 -1.3018 -1.7707  2.0505
 5722SOL     OW18064   5.257   1.905   3.315  0.8886 -0.3483 -0.2778
 5722SOL    HW118065   5.164   1.912   3.350  2.3145 -0.6033  4.1836
 5722SOL    HW218066   5.292   1.996   3.294 -0.0906 -0.1962 -1.3501
 5723SOL     OW18067   7.001   6.842   1.627  0.3549 -0.2712 -0.1687
 5723SOL    HW118068   6.940   6.920   1.618  0.7711  0.1995  0.9527
 5723SOL    HW218069   6.984   6.795   1.713  0.4237 -1.1580 -0.6242
 5724SOL     OW18070   4.338   2.426   6.532 -0.1163 -0.5574 -0.2091
 5724SOL    HW118071   4.354   2.445   6.435  1.3246 -3.6488 -0.6895
 5724SOL    HW218072   4.239   2.420   6.549 -0.3778 -0.1015 -1.4749
 5725SOL     OW18073   6.249   5.715   5.123  0.4181 -0.5564 -0.3482
 5725SOL    HW118074   6.288   5.712   5.031  0.3488 -1.5457 -0.3574
 5725SOL    HW218075   6.318   5.750   5.187 -0.0087  1.5758 -0.9810
 5726SOL     OW18076   3.122   0.160   6.564  0.1291 -0.2700  0.4573
 5726SOL    HW118077   3.199   0.165   6.500  0.8813 -0.0033  1.3590
 5726SOL    HW218078   3.083   0.251   6.576 -1.1967 -0.5985 -0.9913
 5727SOL     OW18079   6.021   2.326   4.175 -0.3050 -0.0689  0.3613
 5727SOL    HW118080   6.002   2.331   4.273  1.0925 -0.5568  0.6785
 5727SOL    HW218081   6.023   2.230   4.146  0.9868 -0.0135  0.2261
 5728SOL     OW18082   4.243   6.870   6.159 -0.3024 -0.2811  0.0306
 5728SOL    HW118083   4.212   6.780   6.129  0.8216 -0.5974 -0.2235
 5728SOL    HW218084   4.299   6.911   6.087 -2.5847  1.5989 -0.8210
 5729SOL     OW18085   3.468   1.645   4.657 -0.2532  0.3415  0.3714
 5729SOL    HW118086   3.552   1.698   4.674 -0.6131  0.9656  0.2412
 5729SOL    HW218087   3.434   1.608   4.743 -0.0936  0.4683  0.4888
 5730SOL     OW18088   5.090   5.294   0.389  0.4926 -0.2764 -0.4098
 5730SOL    HW118089   5.035   5.245   0.458  0.4614  0.5326  0.1505
 5730SOL    HW218090   5.128   5.377   0.430  0.8463 -0.0202 -1.2494
 5731SOL     OW18091   2.732   2.319   4.774  0.3432  0.1299 -0.2151
 5731SOL    HW118092   2.714   2.334   4.677  0.2850 -2.9724 -0.7852
 5731SOL    HW218093   2.830   2.304   4.789  0.5191  1.6848  0.4434
 5732SOL     OW18094   6.472   4.436   5.967  0.9257  0.1449  0.7691
 5732SOL    HW118095   6.458   4.495   5.887  1.9503 -0.6961 -0.0679
 5732SOL    HW218096   6.567   4.441   5.996  0.5994  0.2971  1.8432
 5733SOL     OW18097   4.654   3.773   6.607 -0.1859 -0.5803 -0.0509
 5733SOL    HW118098   4.562   3.759   6.570  0.0158 -0.3574 -0.6561
 5733SOL    HW218099   4.719   3.719   6.554 -0.0429 -1.3050  0.8226
 5734SOL     OW18100   2.629   1.380   0.230 -0.3992  0.2748  0.0322
 5734SOL    HW118101   2.631   1.434   0.146  0.2331 -0.6247 -0.5567
 5734SOL    HW218102   2.585   1.292   0.212  2.8828 -1.4675 -0.3906
 5735SOL     OW18103   5.112   0.137   2.557 -0.2967  0.6982 -0.4376
 5735SOL    HW118104   5.157   0.225   2.566  0.0917  0.4520  0.0935
 5735SOL    HW218105   5.030   0.146   2.500 -0.3731  1.4403 -0.2099
 5736SOL     OW18106   4.300   0.341   6.584  0.0621 -0.7170 -0.0873
 5736SOL    HW118107   4.219   0.368   6.532  0.2154 -1.7420 -0.8892
 5736SOL    HW218108   4.271   0.295   6.668 -0.2067 -1.6384 -0.6709
 5737SOL     OW18109   6.902   5.069   2.946  0.3650 -0.5010 -0.6175
 5737SOL    HW118110   6.892   4.969   2.945  2.5644 -0.7625 -1.0551
 5737SOL    HW218111   6.916   5.100   3.040 -0.0517 -0.6280 -0.5114
 5738SOL     OW18112   3.718   0.659   1.524 -0.0926 -0.1998 -0.0308
 5738SOL    HW118113   3.623   0.688   1.516 -0.7124 -1.6019  1.6131
 5738SOL    HW218114   3.728   0.598   1.602  1.6357 -2.1894 -1.6776
 5739SOL     OW18115   1.152   0.750   1.031 -0.1710  0.1108 -0.3187
 5739SOL    HW118116   1.167   0.809   1.111  1.2573  0.3030 -0.6873
 5739SOL    HW218117   1.084   0.791   0.971  0.2610  1.0352 -0.1985
 5740SOL     OW18118   6.200   3.692   2.164  0.3495 -0.4485 -0.0585
 5740SOL    HW118119   6.229   3.599   2.142  0.3484  0.1708 -3.1000
 5740SOL    HW218120   6.279   3.744   2.199  0.8259 -1.0697 -0.1889
 5741SOL     OW18121   1.958   3.014   3.466 -0.5604 -0.1639  0.0438
 5741SOL    HW118122   1.947   2.916   3.480  0.2460 -0.0963  1.3464
 5741SOL    HW218123   1.872   3.061   3.486 -0.8788 -0.5727 -0.3521
 5742SOL     OW18124   0.495   4.212   0.267 -0.1210  0.7435 -0.7771
 5742SOL    HW118125   0.526   4.301   0.233  1.6158  1.1239  1.5560
 5742SOL    HW218126   0.569   4.168   0.318 -2.5014  0.3440  2.6489
 5743SOL     OW18127   2.595   6.561   0.069  0.2693 -0.0325  0.3176
 5743SOL    HW118128   2.675   6.503   0.085 -0.3406 -0.7916  0.7125
 5743SOL    HW218129   2.529   6.512   0.011 -0.1428  0.3702  0.4387
 5744SOL     OW18130   5.534   6.742   4.155  0.1192 -0.2912  0.1332
 5744SOL    HW118131   5.590   6.821   4.128  1.1482  0.1708  3.2069
 5744SOL    HW218132   5.591   6.660   4.155  0.2559 -0.2129  1.1221
 5745SOL     OW18133   3.071   4.406   1.626  0.7133 -0.3158 -0.0858
 5745SOL    HW118134   3.076   4.309   1.602  1.5364 -0.7380  1.5916
 5745SOL    HW218135   3.025   4.417   1.714 -1.9552  1.1199 -1.5335
 5746SOL     OW18136   5.078   6.044   5.051  0.1208 -0.2665  0.0233
 5746SOL    HW118137   5.077   6.131   5.100 -0.0705  0.2019 -0.7992
 5746SOL    HW218138   5.173   6.014   5.038  0.1903 -0.1074  0.1660
 5747SOL     OW18139   2.124   1.160   2.076  0.5396  0.1001  0.7974
 5747SOL    HW118140   2.197   1.219   2.110  0.0783 -0.0128  2.0188
 5747SOL    HW218141   2.053   1.151   2.146 -0.9065  0.6272 -0.5492
 5748SOL     OW18142   6.124   0.007   1.318  0.5939  0.9606 -0.0623
 5748SOL    HW118143   6.039  -0.041   1.336  0.2942  0.9012 -1.5083
 5748SOL    HW218144   6.103   0.100   1.286  0.9599  0.4032 -2.0783
 5749SOL     OW18145   2.111   6.446   5.617 -0.6379 -0.1727 -0.1299
 5749SOL    HW118146   2.013   6.449   5.597 -0.3381 -1.0933 -1.8525
 5749SOL    HW218147   2.135   6.359   5.659 -0.3333 -0.5677 -1.0936
 5750SOL     OW18148   4.011   1.714   3.064  0.1908 -0.5901  0.5175
 5750SOL    HW118149   3.912   1.733   3.067  0.0778 -1.1727  0.4737
 5750SOL    HW218150   4.036   1.652   3.137  0.7277  0.4327  1.2297
 5751SOL     OW18151   6.116   5.071   5.171 -0.1148  0.5295 -1.0312
 5751SOL    HW118152   6.175   5.149   5.150  1.6574 -0.2374  0.7024
 5751SOL    HW218153   6.112   5.058   5.270 -3.0948  0.3725 -1.0886
 5752SOL     OW18154   5.565   1.926   1.191  0.3313  0.2552  0.5455
 5752SOL    HW118155   5.586   1.832   1.162 -1.6591  0.0868 -0.5130
 5752SOL    HW218156   5.550   1.928   1.290  0.6920 -0.4811  0.6216
 5753SOL     OW18157   3.590   3.872   1.729  0.4191 -0.1674 -0.2979
 5753SOL    HW118158   3.636   3.928   1.798 -1.5610  1.4137 -0.1895
 5753SOL    HW218159   3.515   3.821   1.772 -0.2045  0.0566 -1.1087
 5754SOL     OW18160   5.116   1.525   0.799 -0.2019  0.3983 -0.1196
 5754SOL    HW118161   5.164   1.468   0.733  0.3932 -0.8456  1.3340
 5754SOL    HW218162   5.174   1.603   0.824  0.8973 -0.7982  1.2155
 5755SOL     OW18163   2.450   3.813   6.343 -0.3904  0.3568  0.1677
 5755SOL    HW118164   2.378   3.841   6.280 -0.7438 -0.1109  0.3590
 5755SOL    HW218165   2.418   3.737   6.399 -0.0273  0.6642  0.8061
 5756SOL     OW18166   6.788   4.919   2.177  0.1242 -0.0592  0.1792
 5756SOL    HW118167   6.824   4.965   2.096 -0.1637  0.6155  0.4278
 5756SOL    HW218168   6.790   4.820   2.163  0.8648  0.0176 -0.3134
 5757SOL     OW18169   6.706   2.069   5.644  0.0145  0.1082 -0.0520
 5757SOL    HW118170   6.612   2.064   5.678 -1.0104 -1.3103 -2.8062
 5757SOL    HW218171   6.760   1.995   5.686 -0.8949 -0.8840 -0.5791
 5758SOL     OW18172   6.841   4.677   4.501  0.2227 -0.4282 -0.0933
 5758SOL    HW118173   6.753   4.703   4.461  1.3302  3.7315 -0.2720
 5758SOL    HW218174   6.831   4.674   4.601  0.1485  1.7058  0.0088
 5759SOL     OW18175   2.931   5.917   3.058 -0.1130  0.2054 -0.0313
 5759SOL    HW118176   3.006   5.895   2.996  1.0581  1.3207  0.9180
 5759SOL    HW218177   2.857   5.960   3.007 -0.3422 -1.3667 -1.0685
 5760SOL     OW18178   0.060   1.896   1.255 -0.5536 -0.0661 -0.1561
 5760SOL    HW118179  -0.008   1.942   1.198 -0.4281 -0.9170 -1.0139
 5760SOL    HW218180   0.094   1.960   1.324 -2.0349  0.4479  0.1395
 5761SOL     OW18181   0.083   0.480   4.772 -0.3229 -0.1652 -0.2903
 5761SOL    HW118182   0.054   0.397   4.726  1.6748 -1.1948  0.2010
 5761SOL    HW218183   0.137   0.457   4.853  1.9180  1.5540 -1.1833
 5762SOL     OW18184   0.445   5.536   6.702 -0.1048  0.2261  0.6853
 5762SOL    HW118185   0.464   5.440   6.679 -0.7206  0.3000 -0.1744
 5762SOL    HW218186   0.496   5.561   6.784  0.4595 -0.6903  0.6280
 5763SOL     OW18187   4.038   3.229   6.685 -0.2241  0.1875 -0.5192
 5763SOL    HW118188   3.978   3.191   6.755 -1.3358  1.6648 -0.6345
 5763SOL    HW218189   4.063   3.157   6.621 -0.4899 -0.8301  0.4839
 5764SOL     OW18190   5.218   5.820   3.116  0.2639  0.4364 -0.0838
 5764SOL    HW118191   5.143   5.795   3.054  1.5576  1.5710 -2.2342
 5764SOL    HW218192   5.189   5.804   3.210 -2.3815  0.0888 -0.8456
 5765SOL     OW18193   0.093   4.144   3.720  0.0990  0.2197 -0.1475
 5765SOL    HW118194   0.178   4.190   3.744  0.1341  0.1446 -0.1297
 5765SOL    HW218195   0.041   4.124   3.803  0.3611 -0.3150 -0.1094
 5766SOL     OW18196   0.653   1.381   6.300  0.1623  0.2647  0.0965
 5766SOL    HW118197   0.723   1.390   6.230 -0.6609  2.4553 -0.5417
 5766SOL    HW218198   0.679   1.434   6.381 -0.2908  0.2779  0.2381
 5767SOL     OW18199   5.630   5.120   1.801 -0.1091  0.0674  0.4084
 5767SOL    HW118200   5.546   5.105   1.853 -0.5027  0.6227 -0.0501
 5767SOL    HW218201   5.657   5.216   1.808 -0.7291  0.3951 -1.1951
 5768SOL     OW18202   1.998   6.980   3.989  0.2997 -0.2559  0.3585
 5768SOL    HW118203   1.964   7.061   3.941 -0.4259 -1.4376 -1.2060
 5768SOL    HW218204   2.087   6.954   3.952 -0.7052 -1.7502 -1.1113
 5769SOL     OW18205   0.747   3.126   1.467  0.1761  0.4286  0.0895
 5769SOL    HW118206   0.733   3.139   1.369 -0.8652  1.2690  0.3323
 5769SOL    HW218207   0.733   3.030   1.491 -1.4863  0.5630 -0.2880
 5770SOL     OW18208   1.856   1.762   3.282  0.3307 -0.3511 -0.1515
 5770SOL    HW118209   1.942   1.733   3.324  0.2849  0.1068  0.2568
 5770SOL    HW218210   1.810   1.829   3.340 -1.4960 -2.3316  0.8690
 5771SOL     OW18211   3.122   0.211   2.353  0.4666  0.6240  0.4649
 5771SOL    HW118212   3.213   0.216   2.394  0.2426  1.1264  0.9098
 5771SOL    HW218213   3.105   0.294   2.300  0.2054  0.6017  0.5126
 5772SOL     OW18214   1.771   3.364   4.268 -0.7458 -0.3075  0.0837
 5772SOL    HW118215   1.676   3.345   4.244 -1.0015  0.3752  0.5108
 5772SOL    HW218216   1.822   3.391   4.186 -1.5253  1.6908  0.1964
 5773SOL     OW18217   4.649   6.917   3.519  0.6258 -0.1613 -0.0542
 5773SOL    HW118218   4.710   6.856   3.468  0.4598 -1.3443  1.1159
 5773SOL    HW218219   4.677   7.012   3.503  0.6316 -0.4657 -2.2594
 5774SOL     OW18220   1.730   0.488   4.426 -0.5502  0.0537  0.7928
 5774SOL    HW118221   1.678   0.505   4.509 -0.5895  2.0037  0.4172
 5774SOL    HW218222   1.823   0.522   4.438 -0.1273 -0.9692  0.5232
 5775SOL     OW18223   6.708   5.507   3.402 -0.2764  0.5763  0.0931
 5775SOL    HW118224   6.623   5.477   3.359 -0.5765  0.3814  0.8197
 5775SOL    HW218225   6.691   5.533   3.497 -0.0472  3.1517 -0.5029
 5776SOL     OW18226   4.084   6.598   4.478 -0.1405  0.3244 -1.1101
 5776SOL    HW118227   4.099   6.659   4.401 -0.7365  0.4323 -1.1413
 5776SOL    HW218228   4.015   6.636   4.539 -0.6748 -0.4001 -1.2362
 5777SOL     OW18229   0.395   6.723   2.505  0.9182 -0.0736  0.3569
 5777SOL    HW118230   0.386   6.679   2.415 -1.4200 -0.8608  0.8979
 5777SOL    HW218231   0.345   6.810   2.505  1.1009  0.0366  0.8416
 5778SOL     OW18232   6.991   0.398   0.061 -0.0313 -0.4338  0.8189
 5778SOL    HW118233   7.036   0.485   0.040 -0.9865 -0.3922 -1.3930
 5778SOL    HW218234   6.947   0.404   0.150 -2.0420  2.2569 -0.1905
 5779SOL     OW18235   4.820   3.328   1.377  0.3213  0.5550  0.0272
 5779SOL    HW118236   4.840   3.421   1.408  0.5911  1.4321 -2.5543
 5779SOL    HW218237   4.891   3.266   1.411  1.6500  1.7950 -0.3756
 5780SOL     OW18238   5.869   5.069   3.322 -0.3961 -0.3519 -0.2361
 5780SOL    HW118239   5.967   5.073   3.341 -0.3656 -3.2977  0.6112
 5780SOL    HW218240   5.827   4.998   3.378 -3.2679  1.5037  0.1864
 5781SOL     OW18241   6.594   6.608   4.993 -0.1734 -0.2834 -0.1882
 5781SOL    HW118242   6.534   6.658   4.932 -2.3623 -1.5608  0.8103
 5781SOL    HW218243   6.570   6.511   4.992  0.6129 -0.5542  1.6608
 5782SOL     OW18244   3.886   0.595   2.376 -0.5584 -0.0007 -0.1099
 5782SOL    HW118245   3.956   0.658   2.408 -1.3114  1.3265 -0.9973
 5782SOL    HW218246   3.923   0.502   2.376  0.0473  0.1369  2.8492
 5783SOL     OW18247   3.704   3.103   5.362 -0.0248  0.2605  0.2082
 5783SOL    HW118248   3.708   3.031   5.431 -0.5883 -0.3020 -0.3329
 5783SOL    HW218249   3.688   3.062   5.272  1.4185  0.9236 -0.3776
 5784SOL     OW18250   0.358   5.902   7.002 -0.0406  0.2336 -0.4815
 5784SOL    HW118251   0.330   5.852   6.920 -0.4673  2.0658 -1.4992
 5784SOL    HW218252   0.405   5.839   7.065  0.4199 -1.1851 -2.1668
 5785SOL     OW18253   1.493   1.754   3.335 -0.1982 -0.3774 -0.3750
 5785SOL    HW118254   1.544   1.838   3.319 -0.6377 -0.1292 -0.4735
 5785SOL    HW218255   1.556   1.683   3.368  0.1200  0.0710 -0.0019
 5786SOL     OW18256   5.377   4.667   3.073  0.2521  0.4564 -0.1687
 5786SOL    HW118257   5.333   4.643   3.160 -1.4915  1.4299 -0.7445
 5786SOL    HW218258   5.377   4.588   3.013  1.4016 -0.2054  0.6529
 5787SOL     OW18259   2.428   0.718   5.433  0.4515  0.0305 -0.2238
 5787SOL    HW118260   2.473   0.771   5.505 -1.8193  0.6730  0.8007
 5787SOL    HW218261   2.404   0.779   5.358 -3.7489  1.0716  1.6964
 5788SOL     OW18262   3.495   0.612   5.686 -0.1109 -0.8338  0.2344
 5788SOL    HW118263   3.430   0.546   5.724 -0.2080 -0.2873  1.0622
 5788SOL    HW218264   3.578   0.565   5.656 -0.7785 -1.5114 -0.5964
 5789SOL     OW18265   2.755   6.084   0.677 -0.4074  0.2203 -0.0952
 5789SOL    HW118266   2.803   6.025   0.742 -0.0138  0.4349 -0.1868
 5789SOL    HW218267   2.747   6.037   0.589 -3.3552 -1.2007  0.8190
 5790SOL     OW18268   2.856   5.034   2.834 -0.4305  0.3369  0.2785
 5790SOL    HW118269   2.886   5.027   2.739  0.7236  1.4494  0.5344
 5790SOL    HW218270   2.778   4.974   2.849  0.0684 -0.6885 -1.0834
 5791SOL     OW18271   0.190   0.826   2.037 -0.2862 -0.4766  0.1152
 5791SOL    HW118272   0.193   0.899   2.106  0.5973 -2.2020  2.0163
 5791SOL    HW218273   0.283   0.800   2.011 -0.6028  0.1773 -1.8422
 5792SOL     OW18274   0.102   2.323   4.062 -0.3594  0.8538  0.4029
 5792SOL    HW118275   0.175   2.306   3.996 -1.3052  0.5041 -0.5795
 5792SOL    HW218276   0.044   2.241   4.069 -0.1230  0.7818  1.8811
 5793SOL     OW18277   6.989   0.734   6.322  0.4852  0.1376 -0.3614
 5793SOL    HW118278   6.994   0.719   6.421  1.0029  1.8879 -0.0918
 5793SOL    HW218279   6.989   0.832   6.303 -1.2926 -0.1354 -2.0490
 5794SOL     OW18280   6.411   3.578   1.137 -0.0319  0.5712  0.1802
 5794SOL    HW118281   6.393   3.497   1.193 -1.1410  0.5362 -0.2124
 5794SOL    HW218282   6.413   3.659   1.196 -0.9958  0.5119  0.3097
 5795SOL     OW18283   0.280   3.982   0.874  0.1189  0.1940  0.1997
 5795SOL    HW118284   0.183   3.994   0.852  0.1318  1.4348  0.6881
 5795SOL    HW218285   0.314   3.899   0.831 -0.8563  0.3839 -1.0188
 5796SOL     OW18286   3.872   4.464   5.274 -0.1303  0.0580 -0.4329
 5796SOL    HW118287   3.937   4.540   5.272 -1.4162  1.2940  1.4969
 5796SOL    HW218288   3.921   4.378   5.256  1.7838  1.0674 -0.3460
 5797SOL     OW18289   2.288   2.797   5.659 -0.2518  0.4040  0.0314
 5797SOL    HW118290   2.305   2.855   5.579 -2.3604  0.5427 -0.3599
 5797SOL    HW218291   2.349   2.825   5.733  1.2655  0.7289 -1.2838
 5798SOL     OW18292   0.159   4.680   6.347  0.1265 -0.3086 -0.2770
 5798SOL    HW118293   0.134   4.592   6.387  0.1320  0.7278  2.2245
 5798SOL    HW218294   0.212   4.666   6.264  0.4960 -2.6656  0.2956
 5799SOL     OW18295   4.824   5.955   4.991  0.2439 -0.0865  0.2754
 5799SOL    HW118296   4.916   5.994   5.004  0.5716 -0.7148 -0.0983
 5799SOL    HW218297   4.813   5.875   5.049 -0.2348  0.2342  0.6388
 5800SOL     OW18298   3.975   6.301   5.927  0.6511  0.1308  0.1917
 5800SOL    HW118299   3.959   6.382   5.983 -0.3348 -1.0712  1.6964
 5800SOL    HW218300   3.889   6.274   5.882  0.6709 -0.7959  0.6948
 5801SOL     OW18301   6.977   6.883   3.213 -0.6094  0.4364 -0.3879
 5801SOL    HW118302   7.055   6.927   3.168  0.0516 -0.9838 -0.7022
 5801SOL    HW218303   6.916   6.844   3.145  0.3306 -1.6138 -0.1174
 5802SOL     OW18304   1.544   4.077   3.677  0.1695  0.2965 -0.1620
 5802SOL    HW118305   1.608   4.001   3.687 -0.4427 -0.1543  0.3929
 5802SOL    HW218306   1.518   4.087   3.580  0.5539  0.0520 -0.2891
 5803SOL     OW18307   2.691   6.101   4.424 -0.1783 -0.3784  0.2884
 5803SOL    HW118308   2.607   6.143   4.457 -1.1535 -0.9987 -1.3150
 5803SOL    HW218309   2.768   6.134   4.479 -1.1451  1.9383  0.3721
 5804SOL     OW18310   0.058   3.813   6.851  0.2282 -0.3293  0.1170
 5804SOL    HW118311   0.026   3.765   6.933 -0.3873  1.3256  0.8944
 5804SOL    HW218312   0.024   3.766   6.769 -0.3084 -1.2365  0.8453
 5805SOL     OW18313   5.592   4.354   6.838  0.3229 -0.3704 -0.3936
 5805SOL    HW118314   5.494   4.374   6.844  0.4360  0.2631 -0.5822
 5805SOL    HW218315   5.644   4.437   6.857  0.8092 -0.4739 -1.2412
 5806SOL     OW18316   6.469   6.562   5.577  0.6543 -0.5767 -0.1193
 5806SOL    HW118317   6.401   6.551   5.505 -0.7006  0.2202  0.9825
 5806SOL    HW218318   6.434   6.524   5.663  0.5336  1.9314  1.0442
 5807SOL     OW18319   2.152   4.753   6.943  0.0848 -0.2422 -0.5751
 5807SOL    HW118320   2.087   4.722   6.874  0.6332  1.0968 -1.7374
 5807SOL    HW218321   2.102   4.785   7.023 -0.7332  0.9413 -1.5222
 5808SOL     OW18322   5.493   1.848   3.397  0.3484  0.6766  0.6796
 5808SOL    HW118323   5.399   1.849   3.364  0.0392  1.5445  1.5587
 5808SOL    HW218324   5.494   1.825   3.495  1.0383  0.8209  0.7140
 5809SOL     OW18325   1.106   2.003   3.323 -0.0224  0.1493 -0.1443
 5809SOL    HW118326   1.134   1.907   3.323 -2.7769 -0.7496 -0.3063
 5809SOL    HW218327   1.073   2.028   3.414  0.2196  0.8130 -0.2349
 5810SOL     OW18328   2.966   1.408   3.285 -0.4427  0.2442 -0.0330
 5810SOL    HW118329   2.932   1.316   3.299  1.5658 -0.5897 -0.2836
 5810SOL    HW218330   2.950   1.436   3.190 -0.4942 -0.0811 -0.1191
 5811SOL     OW18331   2.281   1.473   6.514  0.3082 -0.3344  0.2614
 5811SOL    HW118332   2.186   1.473   6.481  0.5022  1.3964 -0.4076
 5811SOL    HW218333   2.343   1.490   6.437  1.0510  0.0113  0.9173
 5812SOL     OW18334   6.282   6.119   5.547  0.4296 -0.1961 -0.7039
 5812SOL    HW118335   6.374   6.141   5.579  0.5834 -1.3834 -0.2810
 5812SOL    HW218336   6.228   6.203   5.537  1.0249  0.3664  0.6648
 5813SOL     OW18337   6.538   1.131   6.830 -0.4456  0.1187 -0.3543
 5813SOL    HW118338   6.526   1.170   6.921  1.6133  0.3891 -0.1377
 5813SOL    HW218339   6.520   1.201   6.761 -2.8585 -0.3164 -0.2424
 5814SOL     OW18340   0.910   5.725   0.708  0.4399 -0.3709 -0.1514
 5814SOL    HW118341   0.873   5.791   0.773  0.1879 -1.7833  1.2177
 5814SOL    HW218342   0.838   5.663   0.678  0.7097 -0.1653 -1.2605
 5815SOL     OW18343   5.494   4.744   7.005  0.0109  0.0647  0.0977
 5815SOL    HW118344   5.583   4.770   6.966 -0.5207 -1.8837 -2.6974
 5815SOL    HW218345   5.426   4.814   6.984  0.7549  1.5342  2.1911
 5816SOL     OW18346   4.244   1.419   0.171 -0.6362 -0.0522 -0.0374
 5816SOL    HW118347   4.204   1.491   0.115  0.9307  0.1432 -0.9277
 5816SOL    HW218348   4.300   1.459   0.243 -1.2708 -0.3504  0.6405
 5817SOL     OW18349   6.936   2.164   5.268  0.1447  0.1427 -0.0287
 5817SOL    HW118350   6.933   2.077   5.219  1.4362 -0.0073  0.1273
 5817SOL    HW218351   7.027   2.177   5.309 -0.0951  1.4519  0.1550
 5818SOL     OW18352   6.973   5.708   4.852 -0.0234 -0.1082  0.1876
 5818SOL    HW118353   6.876   5.731   4.860  0.4653  1.6208  2.0244
 5818SOL    HW218354   7.001   5.715   4.757 -1.7402 -0.9423 -0.4214
 5819SOL     OW18355   6.536   5.610   2.118 -0.2681 -0.3670 -0.1171
 5819SOL    HW118356   6.622   5.563   2.135  0.0937 -0.0942 -1.0911
 5819SOL    HW218357   6.460   5.555   2.150  0.3311  0.1450  2.3581
 5820SOL     OW18358   0.235   4.928   2.129 -0.1144 -0.0617 -0.8114
 5820SOL    HW118359   0.306   4.888   2.186 -2.3498 -0.3495  1.9979
 5820SOL    HW218360   0.197   4.856   2.070 -1.1904 -1.1659  1.1089
 5821SOL     OW18361   2.704   5.073   1.040 -0.0061 -0.3813  0.1837
 5821SOL    HW118362   2.728   5.094   0.946 -0.3406  0.4451  0.2671
 5821SOL    HW218363   2.644   4.993   1.043 -1.1612  0.4203 -0.4564
 5822SOL     OW18364   6.975   0.413   3.711  0.2742 -0.8667  0.2598
 5822SOL    HW118365   6.899   0.356   3.679  0.7290 -1.2352 -0.1858
 5822SOL    HW218366   7.062   0.372   3.683  0.5970  0.6953 -1.2346
 5823SOL     OW18367   0.720   0.537   3.992  0.3631 -0.5499  0.8140
 5823SOL    HW118368   0.635   0.549   3.942  1.1702 -0.6752 -0.6377
 5823SOL    HW218369   0.717   0.589   4.077 -0.6495  0.4911  0.1629
 5824SOL     OW18370   4.089   6.881   1.370 -0.3438  0.4920 -0.0553
 5824SOL    HW118371   4.029   6.958   1.390 -0.8744  0.1380 -0.2829
 5824SOL    HW218372   4.170   6.886   1.430 -0.0472  1.5832 -0.5156
 5825SOL     OW18373   2.150   2.112   1.653  0.3392 -0.5320 -0.5697
 5825SOL    HW118374   2.179   2.055   1.730 -0.9608 -0.8464 -0.2817
 5825SOL    HW218375   2.211   2.191   1.645  1.1825 -1.1078  0.0512
 5826SOL     OW18376   1.696   5.292   3.576 -0.2231  0.4099  0.1717
 5826SOL    HW118377   1.650   5.275   3.489  0.4388 -0.4892 -0.0120
 5826SOL    HW218378   1.670   5.220   3.642  0.3746  0.2936  0.2811
 5827SOL     OW18379   1.473   3.667   6.249 -0.3160  0.1066 -0.3792
 5827SOL    HW118380   1.552   3.699   6.197  0.7930 -0.7184  0.7108
 5827SOL    HW218381   1.500   3.654   6.345 -1.8502  0.0334  0.0697
 5828SOL     OW18382   6.507   0.994   1.942  0.0570 -0.5467  0.0002
 5828SOL    HW118383   6.427   0.949   1.982  1.3252 -1.1689  1.9865
 5828SOL    HW218384   6.481   1.086   1.912 -1.4114 -0.7326  0.5955
 5829SOL     OW18385   1.297   4.872   0.335 -0.1970  0.2143  0.0392
 5829SOL    HW118386   1.258   4.784   0.309 -0.8125  0.9064 -1.4910
 5829SOL    HW218387   1.223   4.937   0.352  0.2651  1.0453 -1.0772
 5830SOL     OW18388   0.429   1.133   5.778 -0.2896  0.7657 -0.2541
 5830SOL    HW118389   0.451   1.142   5.875  0.1831 -0.7819 -0.1759
 5830SOL    HW218390   0.333   1.156   5.763 -0.0328  2.3363  0.3310
 5831SOL     OW18391   3.951   5.535   2.421  0.0407  0.0882  0.1774
 5831SOL    HW118392   4.012   5.466   2.385 -1.3655 -0.5201 -1.1548
 5831SOL    HW218393   3.966   5.622   2.373  0.6919  0.2760  0.7155
 5832SOL     OW18394   3.800   3.159   4.845  0.1411 -0.4886  0.1292
 5832SOL    HW118395   3.854   3.110   4.913 -0.4530  0.1654  1.0919
 5832SOL    HW218396   3.702   3.144   4.863 -0.0475  0.7439  0.2306
 5833SOL     OW18397   3.101   3.967   2.677 -0.1790  0.4860  0.3808
 5833SOL    HW118398   3.123   4.034   2.748 -1.1318  1.1976  0.0303
 5833SOL    HW218399   3.043   3.895   2.716  0.5861  0.0163  0.6810
 5834SOL     OW18400   5.402   2.637   6.081 -0.4028 -0.2580  0.1414
 5834SOL    HW118401   5.382   2.541   6.098  0.7233 -0.8221 -1.4700
 5834SOL    HW218402   5.469   2.645   6.006 -1.4555  1.8041 -0.6781
 5835SOL     OW18403   5.291   1.988   4.364  0.7007 -0.2005 -0.2852
 5835SOL    HW118404   5.213   2.038   4.328 -0.1297 -1.6641 -0.5905
 5835SOL    HW218405   5.346   1.953   4.288  1.2142  0.1486 -0.0771
 5836SOL     OW18406   1.909   6.385   2.339 -0.4503 -0.8385  0.0025
 5836SOL    HW118407   1.900   6.412   2.435  0.2340 -1.6635  0.3100
 5836SOL    HW218408   1.843   6.436   2.284  0.2156  0.8237  0.6753
 5837SOL     OW18409   5.226   4.819   1.169  0.5113  0.1628 -0.2895
 5837SOL    HW118410   5.143   4.781   1.210  1.4400 -1.6565  0.0164
 5837SOL    HW218411   5.237   4.782   1.076  0.9448  0.4232 -0.3441
 5838SOL     OW18412   6.367   0.812   0.736 -0.4914 -0.3290  0.1445
 5838SOL    HW118413   6.449   0.793   0.790 -0.2620 -0.0200 -0.0921
 5838SOL    HW218414   6.382   0.893   0.679 -1.5614  0.7878  1.3723
 5839SOL     OW18415   0.793   4.272   2.074  0.0728  0.1108 -0.3220
 5839SOL    HW118416   0.778   4.237   1.981  1.3621 -0.6411 -0.2729
 5839SOL    HW218417   0.742   4.216   2.139 -0.0842  0.0538 -0.4910
 5840SOL     OW18418   2.051   7.014   0.942  0.1390 -0.1418 -0.5049
 5840SOL    HW118419   1.975   6.956   0.972 -1.9132  1.8873 -1.4795
 5840SOL    HW218420   2.080   7.072   1.018  0.3769 -0.5400 -0.2853
 5841SOL     OW18421   5.899   2.167   3.501  0.6231  0.1649  0.5182
 5841SOL    HW118422   5.848   2.252   3.485 -1.8749 -1.3502  0.0366
 5841SOL    HW218423   5.913   2.155   3.600  0.0365  0.6079  0.6605
 5842SOL     OW18424   4.304   2.868   0.222  0.1915  0.3756  0.7586
 5842SOL    HW118425   4.376   2.870   0.153  0.9694  2.6383  1.5583
 5842SOL    HW218426   4.325   2.798   0.291  1.5511  0.9197  0.9107
 5843SOL     OW18427   0.311   1.012   1.356 -0.6801 -0.4194 -0.2120
 5843SOL    HW118428   0.213   0.997   1.360 -1.2459  2.8432  1.2011
 5843SOL    HW218429   0.355   0.965   1.433 -1.2105 -1.3757 -0.4845
 5844SOL     OW18430   2.969   6.917   6.006  0.0990  0.3277 -0.3476
 5844SOL    HW118431   2.979   7.009   6.043 -1.9155  0.4829 -0.0988
 5844SOL    HW218432   2.940   6.922   5.910 -2.3823  0.0483  0.3158
 5845SOL     OW18433   2.730   1.875   6.421 -0.2476 -0.6049 -0.8127
 5845SOL    HW118434   2.752   1.823   6.503 -1.7826 -0.9472 -0.5838
 5845SOL    HW218435   2.665   1.823   6.365 -1.9524  1.0755 -0.5134
 5846SOL     OW18436   0.143   4.758   1.380 -0.3620  0.4878 -0.1069
 5846SOL    HW118437   0.236   4.787   1.397 -0.8054  0.9852  1.6524
 5846SOL    HW218438   0.140   4.658   1.369  0.5656  0.6189 -1.8529
 5847SOL     OW18439   1.703   2.505   3.516 -0.0156 -0.4580 -1.0798
 5847SOL    HW118440   1.628   2.509   3.582 -0.4781  0.8935 -1.6621
 5847SOL    HW218441   1.785   2.470   3.561 -0.1567  0.9851  0.3752
 5848SOL     OW18442   2.411   4.539   3.524 -0.2754 -0.4181 -0.7301
 5848SOL    HW118443   2.328   4.571   3.479 -0.5556 -0.5521 -0.3114
 5848SOL    HW218444   2.399   4.543   3.623 -0.0507 -1.1432 -0.6696
 5849SOL     OW18445   2.504   6.408   5.340  0.3402  0.1795  0.3816
 5849SOL    HW118446   2.530   6.314   5.359 -3.0587 -1.2215 -1.1398
 5849SOL    HW218447   2.531   6.432   5.246 -0.6806 -0.0648  0.0166
 5850SOL     OW18448   0.598   4.827   3.587  0.7274 -0.3466  0.3794
 5850SOL    HW118449   0.647   4.770   3.653  1.2226 -0.8140 -0.3786
 5850SOL    HW218450   0.580   4.773   3.504  0.1095  0.2315  0.1276
 5851SOL     OW18451   5.675   3.952   2.350 -0.4343  0.3489  0.5439
 5851SOL    HW118452   5.577   3.966   2.362 -0.1062  2.8894  0.7566
 5851SOL    HW218453   5.706   4.004   2.270  0.7451 -0.4160  0.4909
 5852SOL     OW18454   3.504   6.555   2.011 -0.6766 -0.3108 -0.7172
 5852SOL    HW118455   3.514   6.565   2.110 -0.0458  0.3217 -0.8395
 5852SOL    HW218456   3.422   6.501   1.991 -2.2923  1.7189  0.0852
 5853SOL     OW18457   4.717   4.563   5.533  0.4304 -0.6179 -0.8487
 5853SOL    HW118458   4.623   4.539   5.513  0.0586 -1.4005  1.4790
 5853SOL    HW218459   4.734   4.554   5.632  1.9159  3.0562 -0.5828
 5854SOL     OW18460   5.725   1.224   5.645 -0.4654 -0.0148  0.1552
 5854SOL    HW118461   5.722   1.267   5.555 -1.8648  1.2822  0.7754
 5854SOL    HW218462   5.698   1.290   5.715  1.3372 -0.7574  1.6531
 5855SOL     OW18463   0.279   2.790   6.648 -0.6675  0.2424  0.2072
 5855SOL    HW118464   0.361   2.752   6.605 -1.5477 -2.9785  1.1342
 5855SOL    HW218465   0.304   2.835   6.733  0.3919  1.6047 -0.7770
 5856SOL     OW18466   0.449   0.063   2.891 -0.1403  0.5087  0.0933
 5856SOL    HW118467   0.506   0.125   2.837  0.0474 -0.3040 -0.6493
 5856SOL    HW218468   0.504  -0.011   2.927 -0.8753 -0.8816 -1.5171
 5857SOL     OW18469   5.869   3.141   5.912 -0.3200 -0.1835 -0.2629
 5857SOL    HW118470   5.875   3.101   5.821 -1.0112  0.1060 -0.4391
 5857SOL    HW218471   5.855   3.068   5.979 -2.2198 -0.2101 -0.6529
 5858SOL     OW18472   3.791   6.924   3.687 -0.5097  0.1989  0.6821
 5858SOL    HW118473   3.767   6.926   3.590  0.1379  0.1759  0.5155
 5858SOL    HW218474   3.720   6.971   3.740 -1.1145 -0.2295  0.2569
 5859SOL     OW18475   5.347   4.833   2.020 -0.3210 -0.1260  0.1272
 5859SOL    HW118476   5.447   4.830   2.017 -0.3381 -0.0313 -0.7975
 5859SOL    HW218477   5.312   4.743   2.043 -0.0317 -0.2820 -0.0333
 5860SOL     OW18478   6.504   3.498   5.526 -0.2417 -0.4061 -0.1427
 5860SOL    HW118479   6.479   3.402   5.541  0.8494 -0.5551  0.8874
 5860SOL    HW218480   6.567   3.527   5.598 -0.4535  1.0543 -0.5258
 5861SOL     OW18481   0.674   1.237   4.200  0.0631 -0.4225 -0.1924
 5861SOL    HW118482   0.578   1.210   4.214  0.0513 -0.4509 -0.3235
 5861SOL    HW218483   0.707   1.197   4.114 -0.1764  0.5467 -0.7515
 5862SOL     OW18484   0.708   5.774   4.615  0.1957  0.0658  0.4540
 5862SOL    HW118485   0.682   5.871   4.620  1.2030  0.7601 -3.8320
 5862SOL    HW218486   0.631   5.721   4.580  0.0695 -0.5210  1.5658
 5863SOL     OW18487   2.482   2.048   0.386  0.8032 -0.3820  0.4763
 5863SOL    HW118488   2.389   2.046   0.425  0.7480  0.9044  0.4469
 5863SOL    HW218489   2.482   1.998   0.299  0.3513 -1.1257  0.8844
 5864SOL     OW18490   6.108   3.558   6.375 -0.3039 -0.0068 -0.2218
 5864SOL    HW118491   6.065   3.648   6.385 -0.1246  0.3316 -2.0786
 5864SOL    HW218492   6.044   3.496   6.329  0.6835  0.1334 -1.8668
 5865SOL     OW18493   4.057   0.468   3.107  0.4089 -0.1654 -0.2405
 5865SOL    HW118494   4.014   0.400   3.047  1.0551 -0.2997 -0.5629
 5865SOL    HW218495   4.156   0.465   3.094  0.5242  0.0959  0.5328
 5866SOL     OW18496   3.674   1.993   0.261  0.1779  0.1215  0.0706
 5866SOL    HW118497   3.711   1.910   0.305 -0.7217 -0.7656 -0.8081
 5866SOL    HW218498   3.656   2.062   0.331  1.6876 -0.1123  0.7335
 5867SOL     OW18499   6.195   2.513   3.295 -0.0981 -0.0348 -0.0392
 5867SOL    HW118500   6.133   2.445   3.333 -0.5532  0.0870 -0.5570
 5867SOL    HW218501   6.269   2.467   3.246  0.6709 -0.2016  1.2478
 5868SOL     OW18502   0.734   5.375   5.608  0.5185  0.9025 -1.0575
 5868SOL    HW118503   0.671   5.298   5.612  0.1942  1.1484  2.7462
 5868SOL    HW218504   0.827   5.344   5.629  0.3108  1.4938  0.9822
 5869SOL     OW18505   2.496   4.844   4.224 -0.2110 -0.6762 -0.3729
 5869SOL    HW118506   2.546   4.895   4.155 -0.1911  0.1735  0.2579
 5869SOL    HW218507   2.407   4.816   4.187 -1.8416  2.9743  0.3736
 5870SOL     OW18508   5.317   0.844   3.384 -0.0241  0.2246  0.4488
 5870SOL    HW118509   5.253   0.847   3.308  0.0833  1.1887  0.3929
 5870SOL    HW218510   5.329   0.749   3.414 -0.4726 -0.0964 -0.3815
 5871SOL     OW18511   1.363   4.059   1.134 -0.3105 -0.7247 -0.0257
 5871SOL    HW118512   1.350   4.064   1.035 -0.1211  0.0643 -0.0103
 5871SOL    HW218513   1.274   4.069   1.179 -0.1389  1.1109 -0.0485
 5872SOL     OW18514   4.366   6.858   4.731 -0.6377 -0.0583  0.1313
 5872SOL    HW118515   4.370   6.766   4.691 -1.4398 -1.5635  3.1749
 5872SOL    HW218516   4.271   6.891   4.728 -0.4337  0.4916 -0.5194
 5873SOL     OW18517   1.962   2.618   0.902 -0.5727 -0.9037 -0.5970
 5873SOL    HW118518   2.021   2.644   0.979 -0.3874 -0.8711 -0.7482
 5873SOL    HW218519   2.011   2.553   0.844 -0.5221 -0.5426 -0.9585
 5874SOL     OW18520   6.125   4.642   6.634 -0.2664 -0.3217  0.1586
 5874SOL    HW118521   6.173   4.698   6.566 -1.3064  1.6128  0.9338
 5874SOL    HW218522   6.067   4.701   6.689  0.0067 -1.9408  2.2743
 5875SOL     OW18523   3.702   2.633   1.792  0.2027 -0.5093 -0.8465
 5875SOL    HW118524   3.604   2.652   1.789  0.0746 -1.1943 -1.2586
 5875SOL    HW218525   3.749   2.704   1.846 -0.4320  0.1514 -1.1610
 5876SOL     OW18526   4.610   3.489   5.603 -0.0296  0.2961  0.2406
 5876SOL    HW118527   4.650   3.473   5.513 -1.0666 -1.1158 -0.0121
 5876SOL    HW218528   4.653   3.429   5.670 -0.2251  0.3287  0.3984
 5877SOL     OW18529   0.217   4.669   3.516 -0.0633 -0.0233 -0.7968
 5877SOL    HW118530   0.277   4.590   3.522 -0.1000  0.0096  3.5843
 5877SOL    HW218531   0.270   4.753   3.528 -0.6069  0.1311  0.9033
 5878SOL     OW18532   5.600   3.624   2.762  0.3603  0.1459 -0.3827
 5878SOL    HW118533   5.585   3.638   2.664 -1.6382  0.2316 -0.0954
 5878SOL    HW218534   5.599   3.712   2.809  0.5099  0.0356 -0.1705
 5879SOL     OW18535   4.735   4.212   0.317  0.4797  0.2688 -0.2247
 5879SOL    HW118536   4.734   4.251   0.225  0.1827 -0.2071 -0.4280
 5879SOL    HW218537   4.660   4.146   0.326  0.0607  0.8457  0.5894
 5880SOL     OW18538   3.737   2.450   5.834 -0.6053 -0.0005  0.0215
 5880SOL    HW118539   3.817   2.410   5.790 -0.6585 -0.3024  0.1957
 5880SOL    HW218540   3.707   2.530   5.782  0.2070  0.5174  0.3276
 5881SOL     OW18541   0.667   0.208   4.590  0.3039 -0.4021  0.0909
 5881SOL    HW118542   0.670   0.277   4.663 -1.3413 -1.3685  1.1397
 5881SOL    HW218543   0.714   0.243   4.509 -0.2828  1.8540  0.6563
 5882SOL     OW18544   0.830   6.735   4.727  0.4483  0.2360 -0.1132
 5882SOL    HW118545   0.892   6.662   4.699  0.8541  0.3254  0.5240
 5882SOL    HW218546   0.883   6.810   4.768 -0.1389  0.0062  1.0848
 5883SOL     OW18547   5.262   0.016   6.360 -0.0816  0.1101  0.4571
 5883SOL    HW118548   5.355  -0.022   6.360 -0.4179 -0.7375 -0.3430
 5883SOL    HW218549   5.202  -0.041   6.305 -1.0170  0.8432  0.6799
 5884SOL     OW18550   1.946   1.639   6.853  0.6236  0.3892 -0.1731
 5884SOL    HW118551   1.992   1.572   6.795  0.1963  0.3853 -0.5148
 5884SOL    HW218552   2.012   1.679   6.917  0.6722 -1.1616  0.8157
 5885SOL     OW18553   0.514   4.116   2.268  0.6737  0.3083  0.7181
 5885SOL    HW118554   0.484   4.036   2.319  0.7731  0.6376  1.2975
 5885SOL    HW218555   0.450   4.134   2.193  0.6284 -0.2801  0.6074
 5886SOL     OW18556   1.085   3.255   2.734 -0.3435  0.2265 -0.3937
 5886SOL    HW118557   1.047   3.205   2.656  0.2749 -2.7170  1.0582
 5886SOL    HW218558   1.148   3.325   2.701 -1.3076  0.1558 -2.5578
 5887SOL     OW18559   1.936   3.330   1.519  0.4855  0.0391 -1.1006
 5887SOL    HW118560   1.932   3.424   1.485  0.7577  0.8385  0.9822
 5887SOL    HW218561   1.940   3.330   1.619  2.5192 -2.1129 -1.0845
 5888SOL     OW18562   2.044   0.055   0.439 -0.1430  0.1577 -0.0333
 5888SOL    HW118563   2.133   0.071   0.397 -0.3413 -0.5879 -0.7599
 5888SOL    HW218564   2.054  -0.001   0.521  0.1595  0.9659  0.4985
 5889SOL     OW18565   5.970   1.077   1.579  0.4813 -0.4446 -0.2575
 5889SOL    HW118566   5.875   1.046   1.583  0.5216 -0.4987  0.3556
 5889SOL    HW218567   5.995   1.094   1.483  0.0230 -0.9405 -0.4755
 5890SOL     OW18568   4.734   4.632   2.839 -0.3298  0.2164  0.3562
 5890SOL    HW118569   4.772   4.643   2.931  0.0113 -0.1944  0.2692
 5890SOL    HW218570   4.635   4.645   2.842 -0.3341  0.1035  0.8033
 5891SOL     OW18571   2.701   4.025   6.721  0.2246 -0.0875 -0.0282
 5891SOL    HW118572   2.632   4.088   6.758  0.5050  0.2814 -0.1315
 5891SOL    HW218573   2.790   4.069   6.720  0.4516 -0.5353  0.0181
 5892SOL     OW18574   0.047   0.694   2.451  0.1156  0.0740 -0.7808
 5892SOL    HW118575   0.017   0.775   2.401  0.1096 -0.3901 -1.5435
 5892SOL    HW218576   0.037   0.613   2.393 -1.3828 -0.7131  0.4720
 5893SOL     OW18577   5.817   6.245   2.576 -0.9600  0.0936 -0.1413
 5893SOL    HW118578   5.876   6.167   2.597  0.3849  1.1209 -0.0070
 5893SOL    HW218579   5.787   6.288   2.661 -2.9586 -1.1216 -0.1469
 5894SOL     OW18580   1.914   5.802   6.633  0.5492 -0.4688  0.2361
 5894SOL    HW118581   1.852   5.846   6.698  0.1869 -1.0697  0.3051
 5894SOL    HW218582   1.981   5.869   6.600 -0.6654  0.4396 -0.5041
 5895SOL     OW18583   5.215   2.610   6.284  0.5006 -0.0816  0.0450
 5895SOL    HW118584   5.264   2.607   6.371  0.8985  3.4551  0.0982
 5895SOL    HW218585   5.279   2.633   6.211 -0.5209  1.6840 -0.3558
 5896SOL     OW18586   3.908   2.888   1.725 -0.1796 -0.5359  0.2585
 5896SOL    HW118587   3.909   2.903   1.824 -0.2348  0.5380  0.1041
 5896SOL    HW218588   3.837   2.944   1.683 -1.2319 -2.1499 -0.2297
 5897SOL     OW18589   3.094   4.107   6.026 -0.4597  0.4317 -0.5631
 5897SOL    HW118590   3.186   4.074   6.006 -0.3275 -0.3909  1.2006
 5897SOL    HW218591   3.086   4.203   5.998  0.9047  0.5061 -0.7737
 5898SOL     OW18592   3.457   6.731   6.955 -0.1269  0.9776  0.2447
 5898SOL    HW118593   3.405   6.696   7.033  0.5135  2.4010  1.3778
 5898SOL    HW218594   3.395   6.746   6.878 -1.3382  2.0250  1.3494
 5899SOL     OW18595   6.524   6.503   1.337  0.4954  0.1551  0.4113
 5899SOL    HW118596   6.528   6.481   1.239 -0.9187  2.8131 -0.3533
 5899SOL    HW218597   6.617   6.515   1.372  1.0917 -2.3375 -0.1635
 5900SOL     OW18598   6.089   6.277   1.697 -0.5116  0.1028  0.1058
 5900SOL    HW118599   6.094   6.273   1.597  0.2846  0.1061  0.1386
 5900SOL    HW218600   6.023   6.210   1.730 -0.3483 -0.3132 -0.3920
 5901SOL     OW18601   2.482   6.867   4.594  0.1610 -0.1331 -0.3603
 5901SOL    HW118602   2.521   6.787   4.549  0.2680 -0.9205  1.0506
 5901SOL    HW218603   2.385   6.850   4.613  0.4286 -0.3885  0.8772
 5902SOL     OW18604   3.522   4.381   5.905 -0.0998 -0.1879  0.1668
 5902SOL    HW118605   3.432   4.389   5.947  0.1441  2.9645  0.3235
 5902SOL    HW218606   3.574   4.309   5.951 -1.5733 -0.2079  1.9122
 5903SOL     OW18607   4.736   6.981   1.104  0.7647  0.7212 -0.6901
 5903SOL    HW118608   4.828   6.989   1.067  1.4561 -0.3536  0.7317
 5903SOL    HW218609   4.734   7.015   1.198 -0.4718  1.4105 -0.9403
 5904SOL     OW18610   1.546   6.797   1.282 -0.0428 -0.0134  0.2756
 5904SOL    HW118611   1.559   6.896   1.289 -0.5189  0.0414  0.5029
 5904SOL    HW218612   1.514   6.774   1.191 -0.3164  0.0947  0.3417
 5905SOL     OW18613   6.011   2.491   5.888  0.0351  0.0655  0.0880
 5905SOL    HW118614   6.098   2.531   5.919 -1.3209  2.1761  1.4852
 5905SOL    HW218615   6.025   2.442   5.802  2.4737  0.9157 -0.0789
 5906SOL     OW18616   4.323   6.434   5.546  0.4961  0.3974  0.2054
 5906SOL    HW118617   4.332   6.429   5.646  0.8397 -1.6139  0.1100
 5906SOL    HW218618   4.230   6.462   5.522 -0.0661 -0.6528  1.0950
 5907SOL     OW18619   1.461   3.625   0.919 -0.0063  0.5817  0.2924
 5907SOL    HW118620   1.494   3.640   0.826  2.1793 -1.4472  0.6711
 5907SOL    HW218621   1.498   3.696   0.979  0.2331  0.7216 -0.0167
 5908SOL     OW18622   5.634   1.833   6.139  0.1842 -0.1103  0.3765
 5908SOL    HW118623   5.562   1.855   6.072  0.0735  0.5296  0.6954
 5908SOL    HW218624   5.724   1.843   6.095  0.1038 -0.0177  0.2316
 5909SOL     OW18625   6.635   5.371   2.689 -0.7487  0.3962  0.0464
 5909SOL    HW118626   6.699   5.295   2.702 -0.0754  0.9265 -0.1084
 5909SOL    HW218627   6.549   5.350   2.735 -0.2681 -0.0732  0.7605
 5910SOL     OW18628   2.306   5.093   2.981  0.4407  0.6904  0.8563
 5910SOL    HW118629   2.310   5.111   3.080  1.8300  0.9307  0.7722
 5910SOL    HW218630   2.370   5.153   2.934  0.6435 -0.2348 -0.0742
 5911SOL     OW18631   1.415   1.833   5.088  0.0756 -0.6818 -0.2266
 5911SOL    HW118632   1.514   1.815   5.093 -0.0453 -1.2416  0.2283
 5911SOL    HW218633   1.380   1.806   4.998  0.4045 -0.1057 -0.5359
 5912SOL     OW18634   0.905   2.655   5.626  0.2104 -0.1449  0.1157
 5912SOL    HW118635   0.978   2.702   5.577  0.5270  0.8271  1.4714
 5912SOL    HW218636   0.846   2.722   5.670 -0.6599 -0.9689  0.2239
 5913SOL     OW18637   1.097   3.828   5.891 -0.2820 -0.2020 -0.0033
 5913SOL    HW118638   1.144   3.903   5.844 -0.6505  2.2745  3.2347
 5913SOL    HW218639   1.163   3.761   5.922  0.7565  1.3086  1.2100
 5914SOL     OW18640   1.600   4.594   6.582  0.1259  0.9457  0.8458
 5914SOL    HW118641   1.535   4.612   6.656  1.1315  0.8209  1.8029
 5914SOL    HW218642   1.558   4.613   6.494 -1.9057 -1.2160  1.2679
 5915SOL     OW18643   5.045   4.493   4.315 -0.2818 -0.1813  0.1171
 5915SOL    HW118644   5.032   4.436   4.234 -1.6200 -0.9480  0.8234
 5915SOL    HW218645   5.141   4.519   4.324  0.2239 -1.7058 -0.6413
 5916SOL     OW18646   4.301   1.739   6.704 -0.2464  0.7529 -0.7251
 5916SOL    HW118647   4.383   1.712   6.653 -0.2364  1.4098 -1.0689
 5916SOL    HW218648   4.220   1.697   6.662 -0.3854  2.2908 -2.0989
 5917SOL     OW18649   2.884   3.536   1.768 -0.2841  0.5419 -0.1893
 5917SOL    HW118650   2.919   3.463   1.708  1.4830  1.2797 -0.1347
 5917SOL    HW218651   2.870   3.499   1.860 -0.8464 -0.0726 -0.5141
 5918SOL     OW18652   2.046   2.972   5.549  0.7630  0.3034  0.1949
 5918SOL    HW118653   2.084   2.979   5.642 -0.0554  0.3835  0.5343
 5918SOL    HW218654   1.972   3.038   5.539  1.4544  0.9418 -0.8334
 5919SOL     OW18655   0.864   0.387   0.153  0.4136  0.9229  0.0893
 5919SOL    HW118656   0.933   0.425   0.091  1.2651  0.7731  0.9243
 5919SOL    HW218657   0.772   0.404   0.115  0.9025  0.9487 -1.1327
 5920SOL     OW18658   1.437   4.418   6.147 -0.0863  0.2838  0.8622
 5920SOL    HW118659   1.479   4.435   6.058  1.9787 -2.3375  1.2104
 5920SOL    HW218660   1.367   4.487   6.165  2.3898  3.5104 -0.8772
 5921SOL     OW18661   4.302   0.081   3.232  0.3659  0.6825  0.2228
 5921SOL    HW118662   4.364   0.107   3.158 -1.1782  0.9222 -1.0494
 5921SOL    HW218663   4.355   0.054   3.313  2.1474 -0.9184 -1.3814
 5922SOL     OW18664   1.179   6.646   2.408 -0.2085  0.2678  0.2298
 5922SOL    HW118665   1.176   6.737   2.367  1.3889  0.8046  1.2207
 5922SOL    HW218666   1.263   6.599   2.381  0.0483 -0.0312  1.4867
 5923SOL     OW18667   0.320   3.320   3.478 -0.0961 -0.4715  0.3468
 5923SOL    HW118668   0.348   3.416   3.481 -0.0788 -0.4773  0.3667
 5923SOL    HW218669   0.299   3.294   3.384 -0.8130 -0.2361  0.4304
 5924SOL     OW18670   0.614   1.197   3.535  0.2049 -0.3112 -0.4667
 5924SOL    HW118671   0.522   1.200   3.496  0.4492  0.0712 -1.0430
 5924SOL    HW218672   0.671   1.268   3.491  1.0120 -1.1226 -0.7642
 5925SOL     OW18673   0.728   5.466   1.574  0.2195 -0.2259 -0.0110
 5925SOL    HW118674   0.758   5.460   1.669  1.4124  0.0263 -0.3592
 5925SOL    HW218675   0.645   5.411   1.562  1.0555 -1.7453  0.7727
 5926SOL     OW18676   3.306   5.162   1.377  0.0186 -0.0019  0.7674
 5926SOL    HW118677   3.288   5.236   1.313 -0.5171  1.1987  2.2268
 5926SOL    HW218678   3.222   5.141   1.429  0.9417  0.6559  2.6269
 5927SOL     OW18679   1.598   0.925   6.773 -0.1014  1.0143 -0.7877
 5927SOL    HW118680   1.635   1.011   6.807 -0.4681  0.2066  1.8954
 5927SOL    HW218681   1.672   0.868   6.738  0.0860  2.5430 -3.0567
 5928SOL     OW18682   0.564   4.945   0.996 -0.2192 -0.2127 -0.0080
 5928SOL    HW118683   0.564   4.873   1.066 -1.2579 -0.1941  0.0238
 5928SOL    HW218684   0.644   5.004   1.009 -0.4881 -0.1057  1.2747
 5929SOL     OW18685   6.770   0.766   0.637 -0.2371  0.0978 -0.2544
 5929SOL    HW118686   6.687   0.760   0.582  0.0924 -0.8564 -0.6803
 5929SOL    HW218687   6.850   0.763   0.576  0.1143  1.2057  0.1304
 5930SOL     OW18688   5.281   6.075   6.425  0.6665  0.2123  0.1144
 5930SOL    HW118689   5.347   6.148   6.406  0.5303  0.6919  1.4372
 5930SOL    HW218690   5.317   6.016   6.497  0.5973 -0.8271 -0.6704
 5931SOL     OW18691   5.838   4.804   0.877  0.0954 -0.3984  0.6608
 5931SOL    HW118692   5.822   4.878   0.943  0.1478 -0.0659  0.2991
 5931SOL    HW218693   5.925   4.820   0.830 -0.6020  0.1027 -0.4793
 5932SOL     OW18694   2.399   2.620   0.197  0.3710 -0.1892 -0.4874
 5932SOL    HW118695   2.328   2.552   0.180  0.6858 -0.8183  0.6284
 5932SOL    HW218696   2.383   2.663   0.286  1.0158  0.1304 -0.5222
 5933SOL     OW18697   5.212   2.266   3.804 -0.1527  0.3053  0.2234
 5933SOL    HW118698   5.144   2.326   3.760 -1.4728 -2.0190 -1.1218
 5933SOL    HW218699   5.299   2.273   3.756  0.0173  1.8086  0.6923
 5934SOL     OW18700   4.712   2.809   1.358 -0.4175 -0.5138 -0.4438
 5934SOL    HW118701   4.645   2.735   1.373 -0.5810 -0.4284 -0.7471
 5934SOL    HW218702   4.663   2.893   1.334 -0.3202  0.0477  1.2131
 5935SOL     OW18703   3.580   2.975   2.681 -0.5938 -0.1928 -0.2836
 5935SOL    HW118704   3.603   3.068   2.655 -1.0915  0.0469  0.1147
 5935SOL    HW218705   3.616   2.956   2.772  0.6548 -0.8383 -0.8965
 5936SOL     OW18706   6.326   6.376   0.606  0.1977  0.5704  0.1750
 5936SOL    HW118707   6.233   6.381   0.571 -0.0276  1.7817  0.8909
 5936SOL    HW218708   6.339   6.446   0.677  1.5294  0.1602  0.3625
 5937SOL     OW18709   2.914   3.990   1.745  0.1467  0.3105  0.0763
 5937SOL    HW118710   2.818   3.972   1.725 -0.2736  0.9075  1.4396
 5937SOL    HW218711   2.952   3.912   1.795 -0.0867  0.7281  0.9298
 5938SOL     OW18712   3.431   6.959   1.137 -0.2746 -0.5954 -0.1748
 5938SOL    HW118713   3.468   7.044   1.099 -0.1544 -0.8077 -0.5331
 5938SOL    HW218714   3.425   6.967   1.237 -0.8773  0.0787 -0.2550
 5939SOL     OW18715   6.518   6.644   3.170  0.1706 -0.5816 -0.1344
 5939SOL    HW118716   6.591   6.651   3.238  0.7565 -0.5237 -0.7485
 5939SOL    HW218717   6.529   6.718   3.103  0.7189 -1.7082 -1.3308
 5940SOL     OW18718   4.801   2.928   2.270 -0.4287  0.1447 -0.3042
 5940SOL    HW118719   4.783   2.967   2.179 -0.7309  0.4078 -0.1303
 5940SOL    HW218720   4.747   2.845   2.281 -0.2959  0.0423 -0.4119
 5941SOL     OW18721   6.554   3.357   4.862  0.3064  0.4809 -0.7894
 5941SOL    HW118722   6.474   3.298   4.867  0.8656 -0.2065  1.0280
 5941SOL    HW218723   6.548   3.415   4.781 -2.3951  0.9855 -0.3283
 5942SOL     OW18724   2.083   0.427   3.650 -0.3438  0.3159  0.2306
 5942SOL    HW118725   2.070   0.521   3.680 -0.6537 -0.1620  1.6540
 5942SOL    HW218726   2.143   0.379   3.714  1.5981  0.1123 -1.6289
 5943SOL     OW18727   1.572   5.904   0.034  0.1249 -0.2589  0.5096
 5943SOL    HW118728   1.528   5.965   0.100  0.6581  0.1721  0.4785
 5943SOL    HW218729   1.671   5.905   0.049  0.4395  1.1345 -1.3196
 5944SOL     OW18730   6.029   2.946   4.845  1.0523 -0.0925 -0.2688
 5944SOL    HW118731   5.940   2.923   4.884  1.0771  1.1712  0.6254
 5944SOL    HW218732   6.099   2.888   4.885  0.7765 -0.3169 -0.1064
 5945SOL     OW18733   5.369   5.929   6.082  0.2229  0.6885  0.7063
 5945SOL    HW118734   5.415   5.902   6.166  0.7775  0.3313  0.2936
 5945SOL    HW218735   5.272   5.903   6.086  0.6730 -1.1403  0.4272
 5946SOL     OW18736   3.357   0.520   4.827 -0.1009 -0.6140  0.2859
 5946SOL    HW118737   3.336   0.561   4.738 -1.7927  1.5128  1.5581
 5946SOL    HW218738   3.273   0.488   4.870  0.6262 -1.1607  1.3373
 5947SOL     OW18739   0.742   4.291   5.067 -0.2039 -0.2164 -0.1558
 5947SOL    HW118740   0.806   4.295   5.143  0.9477 -0.2498 -1.1036
 5947SOL    HW218741   0.734   4.196   5.035 -0.9616 -0.2620  0.1275
 5948SOL     OW18742   3.511   5.401   0.784 -0.0143 -0.1126  1.0537
 5948SOL    HW118743   3.460   5.372   0.864 -1.2575  2.1033  1.1520
 5948SOL    HW218744   3.501   5.500   0.771  0.8472 -0.2503 -1.3507
 5949SOL     OW18745   6.106   3.419   3.472 -0.3675  0.0167 -0.2000
 5949SOL    HW118746   6.162   3.501   3.488 -0.6631 -0.0261  1.2591
 5949SOL    HW218747   6.094   3.371   3.559 -3.9928  0.8762 -0.0495
 5950SOL     OW18748   1.079   1.439   6.027 -0.2914 -0.1464 -0.3607
 5950SOL    HW118749   1.126   1.526   6.015 -0.5543 -0.1782 -1.8027
 5950SOL    HW218750   1.129   1.367   5.978 -2.2739 -0.0053 -2.7605
 5951SOL     OW18751   2.500   0.595   4.662  0.7878  0.2268 -0.1074
 5951SOL    HW118752   2.480   0.645   4.577 -1.8797 -1.4453 -0.5886
 5951SOL    HW218753   2.565   0.522   4.643 -0.2515 -0.5320 -0.9426
 5952SOL     OW18754   6.239   0.036   4.811 -0.7214 -0.0449 -0.6230
 5952SOL    HW118755   6.248   0.132   4.784 -0.7244 -0.7107 -3.2331
 5952SOL    HW218756   6.162  -0.005   4.762  0.1012 -1.7162 -0.5644
 5953SOL     OW18757   2.711   3.186   5.775 -0.2481  0.2333 -0.1043
 5953SOL    HW118758   2.640   3.244   5.815  0.5105  0.4542  1.0018
 5953SOL    HW218759   2.708   3.193   5.676  0.2095  2.7099 -0.0202
 5954SOL     OW18760   6.795   4.282   6.474 -0.3335  0.1813  0.2519
 5954SOL    HW118761   6.721   4.214   6.471  0.4025 -0.6087 -0.7050
 5954SOL    HW218762   6.883   4.236   6.459  0.0043  1.6071 -2.9020
 5955SOL     OW18763   4.601   5.686   1.336 -0.1154 -0.3692  0.2567
 5955SOL    HW118764   4.559   5.644   1.256 -0.5328  3.6199 -1.8844
 5955SOL    HW218765   4.700   5.669   1.335 -0.0811 -0.1815 -1.2737
 5956SOL     OW18766   0.162   1.559   0.357 -0.4158 -0.0678 -0.6277
 5956SOL    HW118767   0.105   1.617   0.298  0.9529  0.3004 -1.6463
 5956SOL    HW218768   0.212   1.494   0.300 -0.0166 -0.5597  0.2707
 5957SOL     OW18769   3.960   0.076   6.697  0.4004 -0.6626  0.3116
 5957SOL    HW118770   3.872   0.086   6.744  0.6435 -1.6081  1.0112
 5957SOL    HW218771   3.944   0.067   6.598 -0.2473 -0.3164  0.3782
 5958SOL     OW18772   1.980   6.265   3.947  0.2454 -0.3111  0.0866
 5958SOL    HW118773   1.915   6.219   4.008 -0.4465 -0.0616 -0.4534
 5958SOL    HW218774   1.966   6.364   3.952  0.9073 -0.2218  0.3152
 5959SOL     OW18775   3.194   6.471   4.036  0.1133  0.3877 -0.0818
 5959SOL    HW118776   3.157   6.562   4.018  0.1557  0.3101 -0.5612
 5959SOL    HW218777   3.247   6.440   3.957  1.0709  0.4275  0.5192
 5960SOL     OW18778   4.558   5.518   3.460 -0.0249  0.9661 -0.1847
 5960SOL    HW118779   4.533   5.596   3.401 -0.3629  0.9148 -0.1104
 5960SOL    HW218780   4.476   5.485   3.508 -0.1174 -0.1435 -1.0572
 5961SOL     OW18781   1.709   0.184   4.878  0.0588  0.0587  0.3214
 5961SOL    HW118782   1.705   0.178   4.978  0.4325  0.8121  0.3930
 5961SOL    HW218783   1.789   0.135   4.844 -0.5992 -1.0320  0.2977
 5962SOL     OW18784   5.436   3.874   3.660 -0.3018 -0.6552 -0.3464
 5962SOL    HW118785   5.340   3.848   3.651 -0.1807 -1.2451  0.0085
 5962SOL    HW218786   5.487   3.838   3.583 -0.5699  0.7236 -1.2037
 5963SOL     OW18787   3.766   2.884   2.007 -0.6601  0.1801 -0.1828
 5963SOL    HW118788   3.811   2.796   2.026 -1.8203 -0.8298 -1.7923
 5963SOL    HW218789   3.835   2.956   1.998  0.4735 -0.9273 -0.6567
 5964SOL     OW18790   3.181   6.082   5.677  0.9106 -0.1205  0.2442
 5964SOL    HW118791   3.192   5.985   5.699  0.3104  0.0471  1.3780
 5964SOL    HW218792   3.083   6.105   5.677  0.9566  0.1920 -1.4048
 5965SOL     OW18793   1.940   2.450   5.083 -0.3688  0.1739  0.4330
 5965SOL    HW118794   1.889   2.434   4.999  0.7759  0.2310 -0.2867
 5965SOL    HW218795   1.966   2.547   5.088  3.4541 -0.5506 -1.4855
 5966SOL     OW18796   1.937   0.037   4.890 -0.7143  0.1335  0.5962
 5966SOL    HW118797   2.036   0.032   4.885 -0.6796  0.5326  0.8713
 5966SOL    HW218798   1.899  -0.055   4.894 -0.2945 -0.0032  1.6472
 5967SOL     OW18799   4.904   6.056   6.595  0.0234  0.1056 -0.2923
 5967SOL    HW118800   4.929   6.142   6.639 -0.0854  0.7046 -1.3616
 5967SOL    HW218801   4.915   6.065   6.496 -0.6711 -0.8890 -0.4744
 5968SOL     OW18802   1.353   1.204   4.933 -0.2494 -0.7249  0.2047
 5968SOL    HW118803   1.339   1.205   4.834  0.9506  0.1392  0.0172
 5968SOL    HW218804   1.335   1.295   4.971 -0.4327 -0.9780  0.7357
 5969SOL     OW18805   6.414   1.112   2.392  0.7286  0.3665 -0.5051
 5969SOL    HW118806   6.401   1.147   2.485  2.7748  0.2624 -0.1286
 5969SOL    HW218807   6.345   1.042   2.373  1.0856 -0.5910  1.4665
 5970SOL     OW18808   2.287   4.177   3.917  0.0262  0.3756  0.4558
 5970SOL    HW118809   2.335   4.224   3.991 -1.4264  1.3119  0.8712
 5970SOL    HW218810   2.213   4.121   3.955  0.5339 -0.7588 -0.1765
 5971SOL     OW18811   2.520   5.625   2.874 -0.5673  0.0316  0.1842
 5971SOL    HW118812   2.470   5.640   2.789 -1.3862 -1.8214  0.2831
 5971SOL    HW218813   2.608   5.581   2.854  0.1210  1.3736  0.1720
 5972SOL     OW18814   4.773   6.611   2.372 -0.1387 -0.0867 -0.3933
 5972SOL    HW118815   4.795   6.692   2.319 -1.4223 -0.2618 -1.2539
 5972SOL    HW218816   4.854   6.552   2.379  1.0107  1.5781  0.8896
 5973SOL     OW18817   1.840   5.694   4.008 -0.4904  0.4400 -0.0343
 5973SOL    HW118818   1.851   5.783   3.964 -0.9700  0.6183  0.1898
 5973SOL    HW218819   1.810   5.708   4.103 -1.3521  0.0305 -0.2336
 5974SOL     OW18820   0.004   3.123   6.277 -0.0028  0.4878  0.6963
 5974SOL    HW118821  -0.092   3.113   6.252 -0.5474  2.2007  1.8639
 5974SOL    HW218822   0.052   3.173   6.205  0.0125 -0.3635  0.1142
 5975SOL     OW18823   1.398   3.038   1.131  0.2711  0.0872  0.6700
 5975SOL    HW118824   1.441   2.968   1.188 -1.7677 -1.3917  0.5141
 5975SOL    HW218825   1.459   3.063   1.057 -0.1167 -4.2808 -1.4596
 5976SOL     OW18826   3.655   3.688   4.232  0.4014 -0.6885  0.0362
 5976SOL    HW118827   3.694   3.603   4.197 -0.4726 -1.1985  0.2692
 5976SOL    HW218828   3.673   3.696   4.330 -2.7856 -2.5789  0.9297
 5977SOL     OW18829   1.059   2.541   3.603  0.4328 -0.2344  0.7133
 5977SOL    HW118830   1.070   2.486   3.686  0.3089 -0.3555  0.6496
 5977SOL    HW218831   1.060   2.482   3.523 -0.1861 -0.1997  0.6748
 5978SOL     OW18832   5.191   5.746   0.840  0.1004  0.2012  0.2463
 5978SOL    HW118833   5.138   5.740   0.756  0.6164 -1.2861 -0.0060
 5978SOL    HW218834   5.129   5.742   0.919 -0.4296  2.0785 -0.0089
 5979SOL     OW18835   0.239   0.268   2.605  0.1959  0.2902 -0.0558
 5979SOL    HW118836   0.294   0.324   2.543  0.4103 -2.2742 -2.3660
 5979SOL    HW218837   0.283   0.179   2.618 -0.9238  0.0017  2.1626
 5980SOL     OW18838   5.312   2.263   4.072  0.0147 -0.1191 -0.2524
 5980SOL    HW118839   5.285   2.281   3.978  0.7336  1.0116 -0.2680
 5980SOL    HW218840   5.400   2.215   4.074  0.1551  0.1387 -0.1613
 5981SOL     OW18841   3.121   2.520   5.952 -0.1376 -0.1090  0.7627
 5981SOL    HW118842   3.071   2.531   6.037 -2.1231 -0.2060 -0.3360
 5981SOL    HW218843   3.057   2.512   5.876  1.5625  1.7060 -0.9927
 5982SOL     OW18844   5.245   3.577   0.517 -0.0819 -0.2290  0.7580
 5982SOL    HW118845   5.298   3.642   0.462 -0.9004 -0.3293 -0.1672
 5982SOL    HW218846   5.307   3.520   0.570  0.6681  1.1697  1.4432
 5983SOL     OW18847   5.812   1.363   2.589 -0.0285  1.0836  0.2844
 5983SOL    HW118848   5.724   1.385   2.545 -0.4694 -0.1156  0.5383
 5983SOL    HW218849   5.886   1.411   2.541 -0.6764  1.0819 -0.7483
 5984SOL     OW18850   5.676   0.874   0.837  0.3591 -0.4170  0.7727
 5984SOL    HW118851   5.764   0.901   0.798  1.2041  3.0278  4.3879
 5984SOL    HW218852   5.603   0.930   0.797  0.2761 -1.0789 -0.0138
 5985SOL     OW18853   4.871   3.123   2.994  0.3263 -0.0179  0.1379
 5985SOL    HW118854   4.832   3.074   3.072  1.1768  0.1422  0.6765
 5985SOL    HW218855   4.876   3.220   3.014 -0.9711  0.2615 -0.7723
 5986SOL     OW18856   3.521   3.410   2.852  0.6248 -0.3163  0.3749
 5986SOL    HW118857   3.511   3.335   2.918  2.7508 -1.6146 -0.6528
 5986SOL    HW218858   3.563   3.488   2.898 -0.1129 -0.3154  1.0860
 5987SOL     OW18859   3.444   5.568   4.914  0.0807 -0.1979 -0.4025
 5987SOL    HW118860   3.452   5.663   4.884 -0.0036 -0.1990 -0.4292
 5987SOL    HW218861   3.533   5.523   4.907  0.2311  0.0143  0.0614
 5988SOL     OW18862   2.725   6.782   5.652  0.4048  0.3767  0.1432
 5988SOL    HW118863   2.681   6.735   5.728  0.8203 -1.6786 -0.8322
 5988SOL    HW218864   2.677   6.762   5.567  0.4053  2.0228 -0.2892
 5989SOL     OW18865   4.379   0.595   6.150  0.1830 -0.2719  0.5329
 5989SOL    HW118866   4.283   0.573   6.166  0.1469 -0.6195 -0.1242
 5989SOL    HW218867   4.435   0.513   6.163 -0.0558 -1.1242 -2.8422
 5990SOL     OW18868   1.243   5.957   3.706  0.0978 -0.6583 -0.3896
 5990SOL    HW118869   1.150   5.921   3.700 -0.3092  0.1815  0.7017
 5990SOL    HW218870   1.295   5.906   3.775 -0.1135  0.0335  0.2940
 5991SOL     OW18871   4.804   3.969   2.234  0.7534  0.3919 -0.1339
 5991SOL    HW118872   4.717   3.980   2.186  0.2980  1.1619  0.8388
 5991SOL    HW218873   4.838   3.876   2.219 -0.3219  0.0155 -0.3677
 5992SOL     OW18874   4.127   2.255   2.725  0.5495  0.0974 -0.1718
 5992SOL    HW118875   4.131   2.242   2.824 -2.1937  1.3984  0.2027
 5992SOL    HW218876   4.107   2.167   2.681 -0.0213 -0.1803  0.6160
 5993SOL     OW18877   2.319   0.727   2.142 -0.0750 -0.1485 -0.4881
 5993SOL    HW118878   2.342   0.790   2.216 -0.2900 -1.6124  0.8860
 5993SOL    HW218879   2.370   0.642   2.154 -0.7707 -0.7388 -1.5312
 5994SOL     OW18880   6.304   3.213   1.303  0.2790 -0.6637 -0.0124
 5994SOL    HW118881   6.334   3.241   1.394 -1.4928 -0.5095  0.5620
 5994SOL    HW218882   6.358   3.135   1.272  0.9520 -0.6730  1.1436
 5995SOL     OW18883   6.058   4.038   1.450 -0.1519  0.4559 -0.1160
 5995SOL    HW118884   6.003   4.092   1.386  0.2951  1.1990  0.1108
 5995SOL    HW218885   6.142   4.088   1.472  0.3898 -0.4355 -0.0776
 5996SOL     OW18886   0.994   0.570   4.252  0.0620 -0.2997 -0.2131
 5996SOL    HW118887   1.052   0.589   4.172 -0.9895 -3.0328 -1.7781
 5996SOL    HW218888   0.902   0.607   4.236  0.3784  0.8980  0.6623
 5997SOL     OW18889   6.589   5.296   0.280 -0.2408  0.0970 -0.2670
 5997SOL    HW118890   6.616   5.215   0.227  0.4028 -0.1463  0.4137
 5997SOL    HW218891   6.671   5.337   0.321 -0.7747  0.0842  0.8142
 5998SOL     OW18892   5.136   3.797   2.632 -0.0928 -0.5487  0.4212
 5998SOL    HW118893   5.045   3.785   2.595  0.1084 -0.5008 -0.1002
 5998SOL    HW218894   5.167   3.712   2.674 -1.1035 -0.0398  2.2693
 5999SOL     OW18895   3.115   4.831   1.909 -0.3071  0.2879 -0.1948
 5999SOL    HW118896   3.059   4.768   1.854 -2.6099  1.5798  0.5538
 5999SOL    HW218897   3.097   4.816   2.006  0.7118  0.7172  0.0793
 6000SOL     OW18898   2.245   2.420   2.272  0.2884 -0.4720  0.5653
 6000SOL    HW118899   2.248   2.351   2.345 -0.4806  0.9802  2.0370
 6000SOL    HW218900   2.195   2.501   2.304  0.9744  0.7093 -1.1759
 6001SOL     OW18901   4.848   1.568   0.190 -0.3071 -0.2728  0.5050
 6001SOL    HW118902   4.888   1.516   0.265  1.2729  1.1414  0.6944
 6001SOL    HW218903   4.898   1.654   0.178 -0.4171 -0.5051 -2.2557
 6002SOL     OW18904   2.041   0.927   2.686 -0.1585  0.7591  0.1222
 6002SOL    HW118905   2.057   0.952   2.781  0.2459  2.0251 -0.2596
 6002SOL    HW218906   2.081   0.997   2.626  1.3257 -0.9787 -1.0183
 6003SOL     OW18907   0.771   4.375   4.343 -0.7208 -0.3845 -0.2774
 6003SOL    HW118908   0.789   4.276   4.345 -0.6552 -0.3847 -0.8017
 6003SOL    HW218909   0.685   4.393   4.391  0.6294 -0.3609  2.3188
 6004SOL     OW18910   1.922   3.152   3.066 -0.5958 -0.5093 -0.2086
 6004SOL    HW118911   2.008   3.136   3.114 -0.9693 -1.3596  0.1953
 6004SOL    HW218912   1.887   3.065   3.030 -0.3709  0.0904 -1.9450
 6005SOL     OW18913   1.520   6.207   1.162  0.5048  0.1602 -0.8702
 6005SOL    HW118914   1.422   6.187   1.161  0.7139 -1.1236  0.6234
 6005SOL    HW218915   1.539   6.284   1.101 -1.1474 -0.7470 -2.6557
 6006SOL     OW18916   1.574   5.955   5.757  0.2252  0.4473  0.2548
 6006SOL    HW118917   1.526   5.881   5.804 -1.1911 -0.7184 -2.7474
 6006SOL    HW218918   1.669   5.929   5.743  0.2565  0.1238  0.9906
 6007SOL     OW18919   5.703   3.928   4.827 -0.1566 -0.0626 -0.0327
 6007SOL    HW118920   5.705   4.028   4.826  0.3223 -0.0642  0.5888
 6007SOL    HW218921   5.743   3.894   4.742 -1.9991  0.2737 -1.0994
 6008SOL     OW18922   5.798   5.002   3.063  0.2504 -0.1713 -0.2495
 6008SOL    HW118923   5.884   4.987   3.014  0.9435 -1.9123  1.3559
 6008SOL    HW218924   5.818   5.029   3.158 -0.8205 -2.9611  0.8811
 6009SOL     OW18925   2.500   2.598   4.605  0.0788  0.0982 -0.4098
 6009SOL    HW118926   2.432   2.610   4.532  1.6895  1.2015 -1.7999
 6009SOL    HW218927   2.462   2.632   4.691 -2.2033 -2.0544 -0.4532
 6010SOL     OW18928   1.420   4.436   3.651  0.4398  0.0723  0.6616
 6010SOL    HW118929   1.327   4.398   3.646  0.4383 -0.2119  2.3067
 6010SOL    HW218930   1.439   4.465   3.744  1.3023  2.0081 -0.0751
 6011SOL     OW18931   1.191   2.500   2.366  0.0760  0.5914  0.2774
 6011SOL    HW118932   1.096   2.515   2.391 -0.8567 -1.2325 -1.8564
 6011SOL    HW218933   1.220   2.410   2.398  0.4141  0.2824 -0.8615
 6012SOL     OW18934   0.718   2.323   0.535  0.4051  0.3391 -0.0088
 6012SOL    HW118935   0.692   2.257   0.605 -0.3354 -0.5898 -1.1195
 6012SOL    HW218936   0.792   2.381   0.569  0.1469 -0.1660  1.4756
 6013SOL     OW18937   5.781   1.695   2.704  0.5092 -0.1798 -0.0570
 6013SOL    HW118938   5.830   1.619   2.745 -0.2341 -0.5440  0.1836
 6013SOL    HW218939   5.824   1.720   2.617  1.6687  0.1307  0.5869
 6014SOL     OW18940   5.974   6.836   2.629 -0.1486 -0.7941 -0.6259
 6014SOL    HW118941   5.978   6.742   2.596 -1.1448 -0.5277 -1.5568
 6014SOL    HW218942   5.921   6.892   2.565  1.8126  0.7833 -0.9723
 6015SOL     OW18943   6.297   5.548   5.551 -0.0519  0.1287  0.3209
 6015SOL    HW118944   6.275   5.592   5.638 -0.3295  0.4346  0.0995
 6015SOL    HW218945   6.384   5.499   5.559  1.1896  2.1743  0.1004
 6016SOL     OW18946   0.831   0.421   5.362 -0.5370  0.4054 -0.3728
 6016SOL    HW118947   0.916   0.387   5.402 -0.1150  1.2955 -0.4813
 6016SOL    HW218948   0.824   0.390   5.267 -2.3550 -3.1513  0.7362
 6017SOL     OW18949   6.841   2.925   3.285  0.0613  0.5058  0.5011
 6017SOL    HW118950   6.818   2.829   3.303 -1.7644  0.8479  0.2413
 6017SOL    HW218951   6.876   2.967   3.368  0.4872 -0.2831  0.7291
 6018SOL     OW18952   2.545   6.244   0.582 -0.3156 -0.1255 -0.0621
 6018SOL    HW118953   2.584   6.163   0.626 -1.8873 -0.9947 -0.1977
 6018SOL    HW218954   2.512   6.219   0.491 -0.6910  0.7030 -0.1573
 6019SOL     OW18955   1.557   6.197   3.246  0.1720 -0.2460 -0.7302
 6019SOL    HW118956   1.655   6.199   3.225  0.2462 -1.8669 -0.6653
 6019SOL    HW218957   1.539   6.124   3.311 -0.9830  0.5859 -0.0705
 6020SOL     OW18958   2.995   6.234   2.125 -0.0936  0.1197 -0.7944
 6020SOL    HW118959   3.092   6.220   2.143 -0.1119 -2.5549 -2.3470
 6020SOL    HW218960   2.949   6.262   2.210  1.7656 -0.0329  0.3105
 6021SOL     OW18961   2.468   6.412   4.232 -0.3198 -0.0792  0.5813
 6021SOL    HW118962   2.542   6.345   4.226  0.6962  1.0622  0.0407
 6021SOL    HW218963   2.431   6.428   4.140  1.8576  2.6925  0.0601
 6022SOL     OW18964   3.349   0.985   5.120  0.3820 -0.2866  0.2714
 6022SOL    HW118965   3.313   1.012   5.210 -0.2784  0.1554 -0.1195
 6022SOL    HW218966   3.355   0.886   5.116  0.7983 -0.3002  0.9481
 6023SOL     OW18967   1.060   1.898   1.820  0.2360  0.1077 -0.5273
 6023SOL    HW118968   1.007   1.816   1.838 -0.3303  0.3713 -0.9575
 6023SOL    HW218969   1.122   1.916   1.897  1.1552 -1.3177 -0.9098
 6024SOL     OW18970   4.751   3.869   1.763 -0.2136 -0.1985 -0.0539
 6024SOL    HW118971   4.841   3.855   1.720 -0.2327  0.5112 -0.3343
 6024SOL    HW218972   4.728   3.966   1.761 -0.7071 -0.2948  0.5935
 6025SOL     OW18973   3.554   0.613   3.086 -0.4513  0.2156 -0.0653
 6025SOL    HW118974   3.581   0.523   3.052 -1.2327 -0.0398 -0.0335
 6025SOL    HW218975   3.459   0.610   3.118 -0.4854  1.0476 -0.0506
 6026SOL     OW18976   1.252   4.164   4.974  0.5520  0.1292  0.3746
 6026SOL    HW118977   1.322   4.112   4.924  1.9183  3.3791 -1.4049
 6026SOL    HW218978   1.296   4.235   5.029 -1.2755  0.5813  1.3403
 6027SOL     OW18979   4.408   4.143   0.427  0.2961  0.2272 -0.2912
 6027SOL    HW118980   4.419   4.231   0.382 -2.7495  0.2731 -1.1801
 6027SOL    HW218981   4.321   4.141   0.477  0.3892 -2.1717 -0.0984
 6028SOL     OW18982   1.841   5.936   5.652 -0.5023  0.4481 -0.1094
 6028SOL    HW118983   1.854   6.026   5.610  0.7680  0.2387 -0.2029
 6028SOL    HW218984   1.855   5.942   5.751  1.6952  0.0140 -0.3340
 6029SOL     OW18985   0.396   3.157   1.844  0.5510 -0.3667 -0.2370
 6029SOL    HW118986   0.464   3.179   1.773  0.8426 -1.4830 -0.3222
 6029SOL    HW218987   0.360   3.065   1.828 -0.6300  0.0175  0.0978
 6030SOL     OW18988   1.855   0.120   2.137 -0.5742  0.4293 -0.2190
 6030SOL    HW118989   1.856   0.076   2.226 -0.1442  0.2920 -0.2854
 6030SOL    HW218990   1.788   0.076   2.077  1.1504 -1.4075 -0.9032
 6031SOL     OW18991   4.471   6.582   4.119 -0.0143  0.0454  0.3348
 6031SOL    HW118992   4.444   6.609   4.212 -1.5387 -1.3186  0.3314
 6031SOL    HW218993   4.426   6.642   4.053  0.0012  0.1659  0.4335
 6032SOL     OW18994   1.077   3.218   4.533 -0.4957 -0.2214 -0.0509
 6032SOL    HW118995   1.055   3.284   4.604 -0.2011  0.9111 -0.9725
 6032SOL    HW218996   1.033   3.245   4.447  1.2644 -0.0580 -0.9531
 6033SOL     OW18997   1.116   0.716   2.533 -1.0494  0.0684  0.2929
 6033SOL    HW118998   1.136   0.768   2.450  0.4862  1.6621  1.5797
 6033SOL    HW218999   1.059   0.770   2.594 -0.3272 -0.1563  1.2001
 6034SOL     OW19000   3.088   4.900   4.890  0.0227  0.3927 -0.2646
 6034SOL    HW119001   2.998   4.857   4.898  0.4576 -0.4636  0.2812
 6034SOL    HW219002   3.148   4.841   4.835  0.7374  0.0985  0.8038
 6035SOL     OW19003   4.495   1.061   4.623 -0.1276  0.3836  0.0357
 6035SOL    HW119004   4.460   1.112   4.701  1.8352  2.0033 -0.0633
 6035SOL    HW219005   4.588   1.030   4.642 -0.1846 -0.5771 -1.0930
 6036SOL     OW19006   0.752   1.361   3.918  0.1417  0.4874  0.3244
 6036SOL    HW119007   0.779   1.442   3.971  0.7026  0.3068  0.3197
 6036SOL    HW219008   0.742   1.385   3.822  0.5438  0.5017  0.2848
 6037SOL     OW19009   6.906   4.147   3.331 -0.0262 -0.3139 -0.4299
 6037SOL    HW119010   6.952   4.059   3.346 -1.4263 -0.7499  1.8155
 6037SOL    HW219011   6.811   4.130   3.303 -1.3475  0.2931  3.2177
 6038SOL     OW19012   0.613   2.390   6.949  0.5185  0.0252 -0.1724
 6038SOL    HW119013   0.703   2.430   6.931  0.8996 -1.0183 -0.6661
 6038SOL    HW219014   0.559   2.391   6.865  0.7573 -1.0481 -0.3414
 6039SOL     OW19015   3.244   2.955   3.015  0.5244 -0.6272  0.1862
 6039SOL    HW119016   3.247   2.947   2.916  1.3701  1.1011  0.0284
 6039SOL    HW219017   3.202   3.042   3.041 -2.1940 -2.1961  1.4537
 6040SOL     OW19018   1.462   1.027   2.603  0.2404  0.3938 -0.3529
 6040SOL    HW119019   1.492   1.069   2.688  1.6106  1.5559 -1.3601
 6040SOL    HW219020   1.541   1.015   2.542 -0.7058 -0.3977 -1.4639
 6041SOL     OW19021   0.598   3.433   6.866  0.4694  0.1889 -0.6616
 6041SOL    HW119022   0.695   3.410   6.875  1.2002  2.0976 -2.7987
 6041SOL    HW219023   0.579   3.516   6.920 -0.1858 -0.5694  0.3160
 6042SOL     OW19024   6.897   5.346   6.127 -0.7274  0.0118 -0.4976
 6042SOL    HW119025   6.901   5.384   6.219 -2.6366 -0.4448 -0.1820
 6042SOL    HW219026   6.923   5.250   6.129 -0.9260 -0.0399 -0.4096
 6043SOL     OW19027   1.158   4.010   4.168  0.7260 -0.0522 -0.7789
 6043SOL    HW119028   1.244   3.971   4.138  0.8852 -0.2999 -0.0213
 6043SOL    HW219029   1.166   4.040   4.263  0.2848  0.8562 -1.0136
 6044SOL     OW19030   0.965   2.604   1.954  0.0835  0.5108 -0.2932
 6044SOL    HW119031   0.981   2.689   1.903 -0.7577  0.3911 -0.7688
 6044SOL    HW219032   0.880   2.562   1.923 -0.0727  0.0646  0.7156
 6045SOL     OW19033   5.670   3.586   3.781  0.5507  0.1145 -0.5108
 6045SOL    HW119034   5.621   3.503   3.807 -0.6359  0.7829 -0.5690
 6045SOL    HW219035   5.768   3.566   3.773  0.4769 -0.9483  0.8772
 6046SOL     OW19036   0.078   3.451   5.626  0.3269  0.4830 -0.5769
 6046SOL    HW119037   0.072   3.431   5.528 -0.3273 -0.3202 -0.3770
 6046SOL    HW219038   0.021   3.387   5.677 -0.4518  1.7711  0.2216
 6047SOL     OW19039   6.303   0.703   5.281  0.1269 -0.5906  0.1370
 6047SOL    HW119040   6.376   0.762   5.245  1.5548 -1.1385  1.9996
 6047SOL    HW219041   6.306   0.615   5.234 -0.5044 -0.0321 -1.0076
 6048SOL     OW19042   5.592   0.307   2.650  0.2176 -0.5124  0.1770
 6048SOL    HW119043   5.550   0.218   2.632  0.5430 -0.6415  0.0508
 6048SOL    HW219044   5.674   0.294   2.707  1.2888 -0.4943 -1.2995
 6049SOL     OW19045   6.768   4.978   0.738 -0.3833 -0.1446 -0.8106
 6049SOL    HW119046   6.819   4.914   0.681  0.7953 -2.5261  2.6229
 6049SOL    HW219047   6.721   4.928   0.810 -1.3006  2.7236  0.7149
 6050SOL     OW19048   4.746   4.953   4.731  0.0976  0.2399 -0.3853
 6050SOL    HW119049   4.777   4.998   4.815  0.5011  0.0319 -0.4218
 6050SOL    HW219050   4.807   4.877   4.709  0.5480  0.8719 -1.3768
 6051SOL     OW19051   1.733   1.324   4.961  0.0587 -0.0446 -0.2633
 6051SOL    HW119052   1.753   1.400   4.899  0.6858 -0.6335 -0.8093
 6051SOL    HW219053   1.708   1.359   5.051 -0.6886  0.8250 -0.7948
 6052SOL     OW19054   0.236   1.908   6.522 -0.0303  0.1098  0.5383
 6052SOL    HW119055   0.223   2.001   6.489  0.2924 -0.5318 -1.5525
 6052SOL    HW219056   0.171   1.846   6.477  0.6447 -0.8803  0.8737
 6053SOL     OW19057   1.673   0.704   6.377 -0.6246  0.0054  0.0404
 6053SOL    HW119058   1.656   0.797   6.409 -2.0448  0.5504 -2.0649
 6053SOL    HW219059   1.767   0.696   6.344  0.0291  0.1637  1.7444
 6054SOL     OW19060   5.937   3.843   5.371 -0.5311  0.2596  0.3037
 6054SOL    HW119061   6.017   3.899   5.393 -1.5190  1.5037  0.8753
 6054SOL    HW219062   5.859   3.902   5.351 -1.9890 -0.8371  2.2583
 6055SOL     OW19063   4.526   0.024   4.579  0.3550 -0.1570  0.1564
 6055SOL    HW119064   4.460  -0.016   4.643 -0.3642 -1.0116 -1.0842
 6055SOL    HW219065   4.614   0.036   4.625 -0.2033 -0.5364  1.3660
 6056SOL     OW19066   6.300   1.838   0.453  0.9070  0.0382  0.0955
 6056SOL    HW119067   6.250   1.762   0.411 -0.9979  0.4169  1.5195
 6056SOL    HW219068   6.385   1.853   0.404 -0.5594 -0.3850 -2.8009
 6057SOL     OW19069   5.238   0.549   0.404 -0.6870 -0.6143  0.1222
 6057SOL    HW119070   5.244   0.643   0.372 -1.3260 -0.5512  0.1708
 6057SOL    HW219071   5.324   0.501   0.385 -0.7121 -0.3039 -0.8053
 6058SOL     OW19072   6.407   1.748   6.619  0.1190 -0.2570 -0.3375
 6058SOL    HW119073   6.399   1.802   6.535 -1.2434  0.3579  0.1484
 6058SOL    HW219074   6.367   1.658   6.604 -0.6540  0.0509 -0.2112
 6059SOL     OW19075   5.066   4.405   3.874  0.6150 -0.0915  0.3834
 6059SOL    HW119076   5.013   4.338   3.822 -2.0179  1.5819  0.7192
 6059SOL    HW219077   5.065   4.381   3.971 -0.9957  0.7836  0.6090
 6060SOL     OW19078   1.966   0.056   6.684 -0.4354 -0.5203 -0.4351
 6060SOL    HW119079   1.882   0.088   6.728  0.0704  1.3696 -0.7161
 6060SOL    HW219080   2.037   0.043   6.753 -0.6031 -0.9168 -0.3340
 6061SOL     OW19081   3.512   2.055   6.879  0.3545  0.3019  0.5568
 6061SOL    HW119082   3.538   2.114   6.956  1.0636  0.6622  0.0559
 6061SOL    HW219083   3.486   2.113   6.801  1.8232 -0.0220 -0.2014
 6062SOL     OW19084   1.589   6.763   4.107  0.2295  0.6488  0.1386
 6062SOL    HW119085   1.669   6.733   4.158 -0.1036  1.2319  1.0262
 6062SOL    HW219086   1.508   6.714   4.140  0.2632 -0.2305 -1.0238
 6063SOL     OW19087   5.578   4.866   5.929  0.6958  0.5308  0.1193
 6063SOL    HW119088   5.545   4.956   5.902 -0.3221  0.1828  0.1845
 6063SOL    HW219089   5.572   4.856   6.028  1.4072  0.6171  0.1782
 6064SOL     OW19090   0.125   6.534   0.929 -0.3292  0.3361  0.1506
 6064SOL    HW119091   0.140   6.622   0.885 -1.6286  0.1622 -0.6983
 6064SOL    HW219092   0.034   6.499   0.904  0.3444 -1.4692  0.0658
 6065SOL     OW19093   5.845   6.565   1.649  0.3773  0.0126 -0.0095
 6065SOL    HW119094   5.812   6.498   1.583  0.8952 -0.9557  0.6870
 6065SOL    HW219095   5.898   6.635   1.602  0.9612 -0.8054 -0.5866
 6066SOL     OW19096   5.631   2.348   6.200  0.6101 -0.1641 -0.6845
 6066SOL    HW119097   5.649   2.411   6.124  0.8072  0.1149 -0.4136
 6066SOL    HW219098   5.712   2.344   6.259  0.4537 -0.3666 -0.4827
 6067SOL     OW19099   5.504   1.362   0.083  0.2471  0.0843 -0.0251
 6067SOL    HW119100   5.584   1.418   0.061  1.4973 -1.5546  0.1463
 6067SOL    HW219101   5.527   1.266   0.071 -2.0878 -0.3909 -1.1257
 6068SOL     OW19102   4.159   2.273   3.701  0.0143  0.2812  0.0633
 6068SOL    HW119103   4.234   2.217   3.667 -2.1987 -2.4642 -0.6288
 6068SOL    HW219104   4.125   2.235   3.787 -1.7514  0.3180 -0.5790
 6069SOL     OW19105   6.142   5.510   4.372  0.0271  0.3310 -0.6232
 6069SOL    HW119106   6.075   5.584   4.379 -0.5799  0.0457 -2.6915
 6069SOL    HW219107   6.227   5.545   4.332  0.2837  0.2072 -0.1937
 6070SOL     OW19108   3.631   2.505   0.921  0.1714 -0.1145 -0.2286
 6070SOL    HW119109   3.580   2.543   0.998 -0.2923  0.5435 -0.8483
 6070SOL    HW219110   3.722   2.546   0.918 -0.1585  0.6204 -0.6051
 6071SOL     OW19111   4.957   3.012   5.279  0.1888 -0.1299  0.0578
 6071SOL    HW119112   4.976   3.083   5.346  0.2605  0.0327 -0.1336
 6071SOL    HW219113   4.938   3.054   5.190 -0.8303 -0.2994  0.1849
 6072SOL     OW19114   4.099   1.842   1.123 -0.1028 -0.0167 -0.1374
 6072SOL    HW119115   4.082   1.934   1.158 -0.6978 -0.2189  0.1119
 6072SOL    HW219116   4.059   1.775   1.185 -1.2746 -0.3867 -1.2532
 6073SOL     OW19117   6.654   5.866   5.987 -0.1107 -0.2208  0.0055
 6073SOL    HW119118   6.729   5.808   6.019 -1.1320 -1.6275 -0.0866
 6073SOL    HW219119   6.593   5.813   5.929 -0.0329  1.4611 -1.7051
 6074SOL     OW19120   0.128   0.625   0.578  0.1145 -0.0837  0.0914
 6074SOL    HW119121   0.216   0.655   0.614  2.0537  0.4241 -4.3941
 6074SOL    HW219122   0.082   0.702   0.533 -1.6495 -0.8132  0.5668
 6075SOL     OW19123   4.991   3.546   5.238 -0.2529  0.1798 -0.8050
 6075SOL    HW119124   4.919   3.535   5.169 -0.0284  0.4570 -1.0818
 6075SOL    HW219125   4.956   3.601   5.313 -0.7641 -0.7922 -0.3034
 6076SOL     OW19126   3.050   6.665   2.836 -0.1176 -0.5223 -0.5810
 6076SOL    HW119127   3.128   6.639   2.893 -0.3258  0.2242  0.0638
 6076SOL    HW219128   2.984   6.716   2.892 -0.3748  0.1294 -1.4576
 6077SOL     OW19129   4.642   5.364   5.033 -0.1019 -0.3272  0.0407
 6077SOL    HW119130   4.633   5.449   4.982  0.2418 -0.2107  0.1759
 6077SOL    HW219131   4.555   5.343   5.078 -0.0133  0.2535  0.4854
 6078SOL     OW19132   3.432   5.947   6.129 -0.1850  0.6101  0.0748
 6078SOL    HW119133   3.480   5.880   6.073 -2.0313 -1.4012  0.7638
 6078SOL    HW219134   3.338   5.957   6.097 -1.3424 -0.6765  2.6969
 6079SOL     OW19135   2.232   3.482   1.397 -0.6001 -0.2441 -0.4180
 6079SOL    HW119136   2.271   3.398   1.435 -1.0060  0.0603  0.7271
 6079SOL    HW219137   2.169   3.460   1.323 -1.9485 -1.0854  0.9317
 6080SOL     OW19138   6.907   3.789   3.608  0.5744 -0.3519 -0.2602
 6080SOL    HW119139   6.990   3.843   3.598 -0.2897  1.1888  0.5393
 6080SOL    HW219140   6.842   3.815   3.536 -0.1462  0.2793  0.5983
 6081SOL     OW19141   2.378   4.315   2.303  0.4812 -0.2912 -0.1735
 6081SOL    HW119142   2.346   4.307   2.208 -0.2868 -1.1907  0.1469
 6081SOL    HW219143   2.336   4.243   2.358 -0.0538  0.9942  1.1254
 6082SOL     OW19144   4.345   1.366   6.364  0.3175 -0.1502 -0.0803
 6082SOL    HW119145   4.297   1.387   6.449 -0.2731 -2.3963  0.2290
 6082SOL    HW219146   4.444   1.373   6.379  0.2294 -0.6899  0.8634
 6083SOL     OW19147   0.689   4.418   6.841 -0.2510 -0.1694  0.2614
 6083SOL    HW119148   0.729   4.498   6.886  4.6699 -2.1520  0.0514
 6083SOL    HW219149   0.702   4.426   6.742 -1.2193 -0.5659  0.0903
 6084SOL     OW19150   1.494   3.371   6.004 -0.1904 -0.5493  0.1628
 6084SOL    HW119151   1.566   3.441   5.999 -0.2327 -0.2677  2.4314
 6084SOL    HW219152   1.529   3.286   5.965  0.2595  0.3681 -1.5918
 6085SOL     OW19153   6.691   4.362   2.960  0.0914  0.1256  0.1906
 6085SOL    HW119154   6.705   4.265   2.944  0.6998  0.4066 -1.1035
 6085SOL    HW219155   6.755   4.415   2.905  0.0239  1.2653  1.1587
 6086SOL     OW19156   2.614   2.472   1.469  0.1219  0.4960  0.2130
 6086SOL    HW119157   2.610   2.527   1.552 -0.1960 -0.4752  0.8596
 6086SOL    HW219158   2.641   2.379   1.492  2.5801  0.8122 -1.0789
 6087SOL     OW19159   3.929   2.181   0.292  0.2280 -0.0320  0.3636
 6087SOL    HW119160   3.965   2.228   0.211 -2.7816  2.5776  0.3067
 6087SOL    HW219161   3.865   2.109   0.263 -0.8043  0.8633  0.3291
 6088SOL     OW19162   5.358   0.333   6.646  0.0870  0.4249 -0.4973
 6088SOL    HW119163   5.420   0.255   6.638 -0.7621 -0.2874 -0.3221
 6088SOL    HW219164   5.273   0.303   6.689  0.8413  2.0340  2.4495
 6089SOL     OW19165   1.121   4.011   1.279  0.7028 -0.3698  0.1315
 6089SOL    HW119166   1.097   4.014   1.376  4.2494 -0.6295  1.1693
 6089SOL    HW219167   1.155   3.919   1.256 -1.5570 -0.7992 -1.8421
 6090SOL     OW19168   6.774   6.402   5.667  0.5161 -0.3054  0.5458
 6090SOL    HW119169   6.710   6.478   5.658  0.2782 -0.2284  2.4478
 6090SOL    HW219170   6.724   6.318   5.689  0.7165 -1.2099 -2.0610
 6091SOL     OW19171   6.478   3.710   1.976 -0.2933  0.3807 -0.1029
 6091SOL    HW119172   6.460   3.695   1.879 -1.8155 -0.8910  0.3390
 6091SOL    HW219173   6.503   3.806   1.991  0.7106  0.4195 -1.8300
 6092SOL     OW19174   0.539   1.198   0.691  0.0937  0.1028  0.0583
 6092SOL    HW119175   0.576   1.268   0.752 -0.0546  0.3823 -0.1691
 6092SOL    HW219176   0.506   1.242   0.607  0.7822 -0.3393 -0.4521
 6093SOL     OW19177   1.516   3.163   6.848 -0.0582  0.2808  0.0430
 6093SOL    HW119178   1.596   3.224   6.849  0.5314 -0.3914 -1.5206
 6093SOL    HW219179   1.503   3.128   6.755 -3.2188  1.6870 -0.1325
 6094SOL     OW19180   0.846   0.012   1.460 -0.1018 -0.0567 -0.5108
 6094SOL    HW119181   0.932   0.039   1.418  2.0064 -1.7971  2.3541
 6094SOL    HW219182   0.836  -0.087   1.456 -0.6817 -0.1116  1.3892
 6095SOL     OW19183   0.874   2.755   5.178  0.7508 -0.0543  0.1358
 6095SOL    HW119184   0.889   2.667   5.223 -0.2324 -1.0378 -1.4005
 6095SOL    HW219185   0.789   2.796   5.212  0.8310 -0.0321  0.3141
 6096SOL     OW19186   6.111   1.826   2.326  0.4725  0.1204 -0.0580
 6096SOL    HW119187   6.156   1.912   2.301  0.4674 -0.0054 -0.5191
 6096SOL    HW219188   6.071   1.785   2.244 -0.3322  0.1397  0.3111
 6097SOL     OW19189   1.847   1.978   3.914  0.2639  0.0118  0.0063
 6097SOL    HW119190   1.877   1.886   3.888 -0.5379 -0.1062 -0.5294
 6097SOL    HW219191   1.822   2.029   3.832  0.1794  0.5300  0.3477
 6098SOL     OW19192   0.474   2.421   5.469  0.5554 -0.6254 -0.0175
 6098SOL    HW119193   0.414   2.351   5.432  0.2143 -0.1490 -0.3903
 6098SOL    HW219194   0.499   2.485   5.397  1.1719 -0.5768  0.2298
 6099SOL     OW19195   0.210   4.459   5.214  0.3135  0.3331  0.2402
 6099SOL    HW119196   0.250   4.518   5.144 -0.5329 -0.2955 -0.7953
 6099SOL    HW219197   0.182   4.373   5.173 -1.2247  0.3832  1.1250
 6100SOL     OW19198   0.576   2.498   1.246 -0.7284 -0.0929 -0.1825
 6100SOL    HW119199   0.655   2.489   1.185 -0.8835  0.9122 -0.5436
 6100SOL    HW219200   0.593   2.570   1.313 -1.3490  0.1425 -0.2712
 6101SOL     OW19201   0.017   5.438   4.949  0.2818  0.9096 -0.3902
 6101SOL    HW119202  -0.066   5.438   5.005 -0.7349 -0.3805 -1.8068
 6101SOL    HW219203   0.003   5.495   4.868  0.5910  0.3149 -0.8709
 6102SOL     OW19204   4.307   5.766   5.598 -0.5144  0.1770 -0.5682
 6102SOL    HW119205   4.220   5.722   5.576  0.3953 -0.4688 -3.2283
 6102SOL    HW219206   4.319   5.848   5.542 -0.7907  2.1724  2.1154
 6103SOL     OW19207   6.740   2.354   5.621 -0.2928 -0.5468 -0.0176
 6103SOL    HW119208   6.721   2.256   5.613  1.0627 -0.9255  1.0431
 6103SOL    HW219209   6.837   2.367   5.639 -0.5865  0.9693  0.5539
 6104SOL     OW19210   2.427   3.326   1.485 -0.4138  0.0129 -0.0275
 6104SOL    HW119211   2.477   3.280   1.413 -0.9720 -3.8335  1.7977
 6104SOL    HW219212   2.491   3.359   1.555 -0.0232  2.0889 -1.2781
 6105SOL     OW19213   3.283   5.189   2.651  0.3054 -0.5516 -0.1459
 6105SOL    HW119214   3.324   5.257   2.712 -1.2377  0.4856 -0.1759
 6105SOL    HW219215   3.343   5.173   2.573 -0.0270  2.2467 -1.1214
 6106SOL     OW19216   1.095   3.755   3.725  0.6354 -0.1294 -0.2855
 6106SOL    HW119217   1.184   3.799   3.737  1.8925 -2.6225  0.2488
 6106SOL    HW219218   1.108   3.658   3.705 -1.9838 -0.4940 -0.6286
 6107SOL     OW19219   3.394   5.874   5.034 -0.0528  0.0692 -0.6823
 6107SOL    HW119220   3.318   5.939   5.024  0.6569  1.0974  0.3509
 6107SOL    HW219221   3.434   5.856   4.944 -2.3115 -1.5493 -1.4779
 6108SOL     OW19222   5.883   1.305   4.084 -0.0355 -0.3332  0.7771
 6108SOL    HW119223   5.911   1.379   4.023  1.3861 -1.2718  0.2423
 6108SOL    HW219224   5.808   1.254   4.042  0.5684 -0.6338  0.0470
 6109SOL     OW19225   0.912   4.376   2.781 -0.3763 -0.2727 -0.0501
 6109SOL    HW119226   0.951   4.301   2.834 -3.3792 -0.9918  1.3086
 6109SOL    HW219227   0.961   4.384   2.694  2.4352 -1.3074  1.3101
 6110SOL     OW19228   1.304   3.173   4.157 -0.4387  0.0227  0.1635
 6110SOL    HW119229   1.251   3.116   4.220 -1.2993  1.4814  0.8066
 6110SOL    HW219230   1.271   3.158   4.063 -1.9883  0.8527  0.5422
 6111SOL     OW19231   0.667   3.241   3.424 -0.6724 -0.4682  0.1982
 6111SOL    HW119232   0.569   3.235   3.443 -1.1750  2.7572 -0.7711
 6111SOL    HW219233   0.681   3.273   3.331  1.2348  0.7747  0.8433
 6112SOL     OW19234   3.294   0.480   0.873  0.0131 -0.4341  0.3534
 6112SOL    HW119235   3.323   0.572   0.898  0.2393 -0.4297  0.0740
 6112SOL    HW219236   3.272   0.428   0.956  2.7268 -1.0936  0.7572
 6113SOL     OW19237   1.252   4.776   6.396  0.5977 -0.7066  0.2423
 6113SOL    HW119238   1.238   4.832   6.314  3.5037 -1.0931 -0.6473
 6113SOL    HW219239   1.212   4.822   6.475  1.0163  1.6001 -0.7902
 6114SOL     OW19240   3.822   5.213   0.134 -0.2247 -0.2069  0.4054
 6114SOL    HW119241   3.830   5.306   0.097 -0.5723 -0.7001 -0.9718
 6114SOL    HW219242   3.771   5.216   0.220 -3.9176  0.4987 -1.5700
 6115SOL     OW19243   1.367   4.401   2.849 -0.7405  0.0461  0.3583
 6115SOL    HW119244   1.375   4.410   2.750 -1.6016 -0.3729  0.2419
 6115SOL    HW219245   1.362   4.305   2.874  0.0948  0.1295  0.8699
 6116SOL     OW19246   5.484   2.125   1.747  0.1590 -0.8421 -0.4405
 6116SOL    HW119247   5.572   2.122   1.699  1.0892 -0.7926  1.1922
 6116SOL    HW219248   5.448   2.218   1.742  0.4880 -0.7171 -0.6094
 6117SOL     OW19249   5.656   6.337   2.266  0.4081  0.7411 -0.5208
 6117SOL    HW119250   5.649   6.259   2.327 -1.8990  2.3564  1.4893
 6117SOL    HW219251   5.666   6.306   2.172  1.1691 -1.8802  0.3520
 6118SOL     OW19252   6.110   0.566   3.242  0.2722 -0.4535  0.1635
 6118SOL    HW119253   6.096   0.637   3.310 -0.8955  0.7849 -1.2903
 6118SOL    HW219254   6.064   0.482   3.271  0.3815 -0.1608  1.2028
 6119SOL     OW19255   6.365   4.592   4.694 -0.2207 -0.2803  0.1941
 6119SOL    HW119256   6.328   4.500   4.706 -2.9262  0.9730  3.4021
 6119SOL    HW219257   6.428   4.612   4.769  0.3216  0.4643 -0.4520
 6120SOL     OW19258   1.443   0.481   1.787  0.6809 -0.4960 -0.0761
 6120SOL    HW119259   1.370   0.421   1.820  0.1167 -0.4493 -1.2299
 6120SOL    HW219260   1.513   0.426   1.741  1.3546 -0.5310  0.9472
 6121SOL     OW19261   1.521   1.148   3.140 -0.0247 -0.2740 -0.5053
 6121SOL    HW119262   1.456   1.076   3.117 -0.1005 -1.6338  3.2867
 6121SOL    HW219263   1.589   1.112   3.204  0.9443  2.6285  0.2453
 6122SOL     OW19264   5.237   5.730   4.444 -0.2433  0.5818 -0.0359
 6122SOL    HW119265   5.284   5.747   4.530 -3.2236  0.2855  1.7936
 6122SOL    HW219266   5.231   5.631   4.428  0.0156  0.6256 -0.4149
 6123SOL     OW19267   0.282   2.466   3.274  0.2362  0.6979  0.4906
 6123SOL    HW119268   0.327   2.553   3.294  0.8356  0.4310  0.3121
 6123SOL    HW219269   0.229   2.476   3.190  0.3493  0.8750  0.4386
 6124SOL     OW19270   2.585   6.382   5.991 -0.9656 -0.4767 -0.2589
 6124SOL    HW119271   2.497   6.429   5.994 -1.0054 -0.5303 -0.5529
 6124SOL    HW219272   2.613   6.357   6.084 -0.7590  0.4636 -0.0587
 6125SOL     OW19273   2.220   4.187   3.068 -0.2010  0.1658 -0.0634
 6125SOL    HW119274   2.214   4.090   3.048 -1.5679  0.4068 -0.8898
 6125SOL    HW219275   2.187   4.240   2.991  0.3143  1.2990  0.4600
 6126SOL     OW19276   3.788   6.356   2.785 -0.3383  0.1892 -0.7501
 6126SOL    HW119277   3.750   6.311   2.704 -1.2681  0.5153 -0.5094
 6126SOL    HW219278   3.871   6.405   2.759  0.8642 -1.8405 -0.9647
 6127SOL     OW19279   1.996   6.963   6.423 -0.5528  0.1743 -0.3216
 6127SOL    HW119280   1.960   6.998   6.509 -1.5589  1.6788 -1.2948
 6127SOL    HW219281   2.072   6.900   6.441  0.1724  1.5152  1.5942
 6128SOL     OW19282   6.535   3.671   2.957 -0.5741 -0.3289  0.4723
 6128SOL    HW119283   6.557   3.729   3.035  0.2935 -2.1022  1.6298
 6128SOL    HW219284   6.437   3.648   2.958 -0.1693 -2.4101  2.6512
 6129SOL     OW19285   6.609   3.821   4.218  0.4409  0.3532 -0.8018
 6129SOL    HW119286   6.552   3.895   4.181 -1.8019 -0.0102  1.5867
 6129SOL    HW219287   6.555   3.736   4.220  1.1418 -0.1020  1.2492
 6130SOL     OW19288   5.718   4.427   2.589 -0.0244 -0.2585 -0.7836
 6130SOL    HW119289   5.817   4.440   2.591 -0.1294  0.9570 -1.6711
 6130SOL    HW219290   5.696   4.330   2.594  1.3377 -0.7412 -2.8047
 6131SOL     OW19291   6.353   2.088   4.752 -0.2498  0.2594 -0.1384
 6131SOL    HW119292   6.387   2.167   4.701  1.9894  0.2993  1.3091
 6131SOL    HW219293   6.273   2.114   4.805 -1.9233  0.5095 -2.5870
 6132SOL     OW19294   6.639   3.728   6.713 -0.1803  0.5737  0.0428
 6132SOL    HW119295   6.713   3.674   6.753  1.4494  2.6532 -0.0312
 6132SOL    HW219296   6.555   3.714   6.767  0.3965 -1.2562  0.5598
 6133SOL     OW19297   0.450   4.944   6.196  0.5830 -0.7841 -0.2641
 6133SOL    HW119298   0.544   4.920   6.217  0.4073 -1.3796 -0.1233
 6133SOL    HW219299   0.400   4.961   6.281  0.1804 -1.9936 -0.2411
 6134SOL     OW19300   3.024   4.352   6.400  0.4896 -0.9284  0.0716
 6134SOL    HW119301   3.122   4.370   6.404  0.2760  0.1356  1.4077
 6134SOL    HW219302   2.997   4.299   6.481 -0.0990 -0.7807 -0.0210
 6135SOL     OW19303   5.688   0.744   2.386 -0.7326 -0.1279  0.0537
 6135SOL    HW119304   5.693   0.726   2.484  1.7241 -0.5751 -0.0827
 6135SOL    HW219305   5.652   0.664   2.338 -3.2165  0.5574  0.6413
 6136SOL     OW19306   1.946   0.766   4.380 -0.0178 -0.2055 -0.0673
 6136SOL    HW119307   1.968   0.678   4.423 -2.8097 -1.7763 -1.6059
 6136SOL    HW219308   1.994   0.773   4.293 -1.9343 -1.6133 -1.3150
 6137SOL     OW19309   2.558   3.113   0.320  0.0495  0.6115 -0.4984
 6137SOL    HW119310   2.591   3.181   0.254 -0.8611  0.0560 -1.5569
 6137SOL    HW219311   2.466   3.084   0.295  0.8227 -1.8340 -0.7557
 6138SOL     OW19312   5.162   0.905   4.447 -0.1572  0.1783 -0.0736
 6138SOL    HW119313   5.066   0.932   4.460 -0.4675  0.1829 -2.1492
 6138SOL    HW219314   5.203   0.961   4.375  1.2825 -0.1596  0.4469
 6139SOL     OW19315   2.469   6.644   3.883 -0.1372 -0.1541  0.3681
 6139SOL    HW119316   2.567   6.663   3.881 -0.4259  1.6332  0.8036
 6139SOL    HW219317   2.436   6.647   3.977 -0.5615 -1.0841  0.2581
 6140SOL     OW19318   2.053   5.903   1.223 -0.1618 -0.7389  0.3689
 6140SOL    HW119319   2.018   5.882   1.314  0.1858  0.1036  0.7061
 6140SOL    HW219320   2.141   5.951   1.232 -1.1691  1.3615 -0.3334
 6141SOL     OW19321   6.731   6.258   4.867  0.1567  0.1884  0.1170
 6141SOL    HW119322   6.667   6.301   4.804 -1.2025  0.9894  1.9627
 6141SOL    HW219323   6.768   6.326   4.930  1.9219 -0.4861 -0.1208
 6142SOL     OW19324   6.567   3.435   4.511  0.0223  0.2868 -0.2471
 6142SOL    HW119325   6.540   3.340   4.499  0.9784 -0.0544  0.2314
 6142SOL    HW219326   6.645   3.456   4.451 -0.2526  0.7997 -0.4341
 6143SOL     OW19327   6.842   6.249   6.980 -0.2572 -0.2353  0.4067
 6143SOL    HW119328   6.907   6.233   6.905  1.6770 -2.1429  2.3416
 6143SOL    HW219329   6.857   6.340   7.018  0.4114 -0.1608 -0.0156
 6144SOL     OW19330   0.670   5.067   5.208  0.1966  0.9576  0.0008
 6144SOL    HW119331   0.573   5.050   5.187 -0.7780  2.8809  2.3603
 6144SOL    HW219332   0.707   5.133   5.143 -0.6580  1.5428  0.0813
 6145SOL     OW19333   4.693   4.700   3.889  0.6693 -0.2597  0.0580
 6145SOL    HW119334   4.696   4.800   3.893 -2.1706 -0.0891  0.4150
 6145SOL    HW219335   4.745   4.662   3.965  0.0135  1.0534  1.2195
 6146SOL     OW19336   5.572   2.165   4.052  0.2271  0.1353  0.2062
 6146SOL    HW119337   5.652   2.137   3.998  2.8691 -0.7122  4.1456
 6146SOL    HW219338   5.545   2.091   4.112 -2.6907  0.9615  0.0539
 6147SOL     OW19339   1.635   6.384   5.171 -0.1090  0.1215 -0.3248
 6147SOL    HW119340   1.630   6.316   5.098 -0.9512  0.5653 -0.7014
 6147SOL    HW219341   1.545   6.428   5.182 -0.3913 -0.8574  1.8737
 6148SOL     OW19342   6.193   6.602   2.807  0.5022  0.2324 -0.3679
 6148SOL    HW119343   6.222   6.679   2.749  2.3099 -0.4139 -0.3630
 6148SOL    HW219344   6.264   6.532   2.808 -0.0811 -0.3762  1.5749
 6149SOL     OW19345   1.135   6.504   5.823 -0.2773  0.2502  0.3319
 6149SOL    HW119346   1.099   6.578   5.766 -0.8723 -1.0332 -1.0134
 6149SOL    HW219347   1.229   6.525   5.849  0.8128 -0.0620 -2.9500
 6150SOL     OW19348   3.716   0.110   6.037  0.1184 -0.6227  0.0354
 6150SOL    HW119349   3.625   0.121   5.998  0.1395  1.3021  0.4351
 6150SOL    HW219350   3.713   0.133   6.135  1.1236  0.0352 -0.0722
 6151SOL     OW19351   4.733   0.949   5.859 -0.0048  0.2527  0.2356
 6151SOL    HW119352   4.676   0.921   5.936  0.9897 -0.9425  0.5711
 6151SOL    HW219353   4.708   0.899   5.777  0.2397  0.0828  0.2640
 6152SOL     OW19354   0.548   3.772   6.251 -0.3819  0.0157  0.5179
 6152SOL    HW119355   0.577   3.860   6.290 -0.2683 -0.2581  1.0613
 6152SOL    HW219356   0.629   3.714   6.238 -0.4446  0.0314  0.0557
 6153SOL     OW19357   5.085   4.476   6.203 -0.3210 -0.1044  0.5085
 6153SOL    HW119358   5.155   4.548   6.207 -1.7157  1.3826 -0.4927
 6153SOL    HW219359   5.075   4.445   6.109  0.6174 -2.0409  1.0009
 6154SOL     OW19360   4.806   1.024   3.820 -0.0713 -0.0940 -0.1852
 6154SOL    HW119361   4.750   1.107   3.816 -0.5926 -0.3655  1.1089
 6154SOL    HW219362   4.776   0.960   3.750 -0.3994  0.3535 -0.4611
 6155SOL     OW19363   4.075   6.125   2.238 -0.2971  0.4087 -0.5649
 6155SOL    HW119364   4.124   6.148   2.154  1.8104 -0.5260  0.3223
 6155SOL    HW219365   4.132   6.063   2.293 -3.3228 -2.4608 -0.3682
 6156SOL     OW19366   6.010   1.501   4.366 -0.1594  0.3354  0.3778
 6156SOL    HW119367   6.068   1.420   4.373 -2.4615 -1.4568  0.1433
 6156SOL    HW219368   5.995   1.539   4.457  0.5831  0.2424  0.5469
 6157SOL     OW19369   2.708   0.414   4.605 -0.1678 -0.2843  0.0049
 6157SOL    HW119370   2.661   0.326   4.594 -0.8951 -0.0671  1.1873
 6157SOL    HW219371   2.787   0.403   4.664 -0.1095 -0.1929 -0.0558
 6158SOL     OW19372   3.794   6.064   6.804 -0.1118 -0.2443 -0.3940
 6158SOL    HW119373   3.785   6.007   6.723  2.6289  0.3639 -1.2099
 6158SOL    HW219374   3.851   6.018   6.872 -0.5778  0.1774  0.3023
 6159SOL     OW19375   3.733   2.749   6.795  0.1791 -0.6314  0.4527
 6159SOL    HW119376   3.760   2.777   6.702 -1.3339 -0.3410  0.0681
 6159SOL    HW219377   3.658   2.808   6.826 -0.1966 -1.5514  1.3381
 6160SOL     OW19378   6.622   6.653   6.581  0.2499  0.0589  0.2119
 6160SOL    HW119379   6.570   6.721   6.530  0.2721  0.1369  0.2924
 6160SOL    HW219380   6.559   6.586   6.621  0.2770 -0.4034 -0.4918
 6161SOL     OW19381   4.753   2.314   1.220  0.0154 -0.3874 -0.1618
 6161SOL    HW119382   4.743   2.284   1.315 -0.1171 -0.9679 -0.3516
 6161SOL    HW219383   4.663   2.314   1.176  0.1970 -1.0176 -0.5444
 6162SOL     OW19384   0.001   5.343   3.453  0.0220  0.0735 -0.6132
 6162SOL    HW119385   0.017   5.268   3.388 -1.9738 -0.0975 -0.9627
 6162SOL    HW219386  -0.073   5.401   3.420 -0.9204  0.1028  1.4083
 6163SOL     OW19387   1.151   4.724   4.538  0.3153  0.6648 -0.5120
 6163SOL    HW119388   1.064   4.674   4.535  0.5400  0.1544  0.7544
 6163SOL    HW219389   1.215   4.676   4.598  0.9492  1.8403 -0.2226
 6164SOL     OW19390   5.241   4.108   2.192  0.7650 -0.2183 -0.5313
 6164SOL    HW119391   5.266   4.115   2.288 -0.0994 -2.5084 -0.0563
 6164SOL    HW219392   5.143   4.129   2.181  1.2253  1.7405 -1.2277
 6165SOL     OW19393   1.987   2.052   3.502 -0.3138 -0.2111  0.0462
 6165SOL    HW119394   2.014   2.006   3.418  1.0761 -0.4045  0.5651
 6165SOL    HW219395   2.069   2.069   3.558 -1.1732  0.1691  1.2236
 6166SOL     OW19396   4.907   6.750   1.154 -0.3400 -0.2148  0.5543
 6166SOL    HW119397   4.987   6.791   1.199 -0.5949  0.3925  0.4598
 6166SOL    HW219398   4.834   6.818   1.147 -0.0280 -0.0318 -1.5026
 6167SOL     OW19399   1.698   4.678   3.686 -0.3456 -0.3090 -0.2555
 6167SOL    HW119400   1.644   4.619   3.747 -1.2172 -0.0209 -0.7335
 6167SOL    HW219401   1.719   4.628   3.602 -3.1030  0.7148 -1.7125
 6168SOL     OW19402   1.256   0.405   2.143  0.2274 -0.3933 -0.2506
 6168SOL    HW119403   1.267   0.431   2.239 -1.1085 -2.3301  0.4869
 6168SOL    HW219404   1.265   0.486   2.085 -1.3083  1.2589  1.6932
 6169SOL     OW19405   4.553   4.625   0.178  0.5243 -0.3789  0.0675
 6169SOL    HW119406   4.570   4.557   0.106  0.7235  0.6697 -0.9155
 6169SOL    HW219407   4.478   4.684   0.150  0.8446  0.2692  0.5550
 6170SOL     OW19408   6.931   0.220   5.180 -0.1674 -0.3078 -0.4258
 6170SOL    HW119409   6.860   0.198   5.248 -0.2563  0.5502 -0.2276
 6170SOL    HW219410   6.945   0.319   5.178  0.9782 -0.4644 -0.5206
 6171SOL     OW19411   6.738   1.538   0.017  0.2443 -0.3598 -0.9400
 6171SOL    HW119412   6.777   1.579  -0.065  1.3039  0.0515 -0.2458
 6171SOL    HW219413   6.734   1.438   0.006 -1.7465 -0.1721 -2.3703
 6172SOL     OW19414   0.093   3.981   3.038 -0.4524  0.5329 -0.5593
 6172SOL    HW119415   0.146   3.998   3.121 -0.7974 -2.1288  0.3068
 6172SOL    HW219416   0.112   4.053   2.971  2.5586  0.8996  0.5219
 6173SOL     OW19417   6.343   6.771   3.381 -0.3627  0.1563  0.3932
 6173SOL    HW119418   6.243   6.779   3.379 -0.5942 -1.9655  0.9410
 6173SOL    HW219419   6.372   6.699   3.317  0.5529 -0.9470  1.9710
 6174SOL     OW19420   0.453   2.700   4.409 -0.1760  0.3845  0.0303
 6174SOL    HW119421   0.480   2.729   4.501  2.0489 -0.7850 -0.1835
 6174SOL    HW219422   0.353   2.701   4.401 -0.5219 -1.0933  3.0154
 6175SOL     OW19423   3.868   1.220   5.580 -0.1692  0.3510 -0.2108
 6175SOL    HW119424   3.820   1.226   5.668 -0.9301 -0.2374 -0.5702
 6175SOL    HW219425   3.813   1.265   5.510  0.1058  0.2196 -0.5115
 6176SOL     OW19426   3.192   6.071   5.067 -0.0382 -0.3979 -0.0844
 6176SOL    HW119427   3.112   6.010   5.061  1.7098 -2.8534 -0.2103
 6176SOL    HW219428   3.181   6.131   5.147 -1.0382 -2.2323  1.2602
 6177SOL     OW19429   0.377   4.435   1.461  0.1335  0.9209  0.6254
 6177SOL    HW119430   0.394   4.408   1.367  0.6867 -0.6719  1.1441
 6177SOL    HW219431   0.280   4.453   1.474 -0.2584 -0.6819  0.1599
 6178SOL     OW19432   4.374   3.717   1.231  0.1412  0.8787 -0.0885
 6178SOL    HW119433   4.344   3.637   1.283  1.6289 -0.9905 -1.9441
 6178SOL    HW219434   4.296   3.759   1.186 -0.4770 -0.4624 -0.3178
 6179SOL     OW19435   3.924   5.942   4.273 -0.4143  0.1000  0.3576
 6179SOL    HW119436   3.993   5.963   4.204  2.0141 -4.3100  1.0371
 6179SOL    HW219437   3.852   5.886   4.232 -1.3353  1.1128  0.5580
 6180SOL     OW19438   0.936   2.924   6.717 -0.5041 -0.0417  0.0921
 6180SOL    HW119439   0.934   2.881   6.626 -1.5566 -0.7177  0.4191
 6180SOL    HW219440   0.856   2.981   6.728  0.6060  1.6207 -0.1225
 6181SOL     OW19441   1.083   6.152   6.907  0.6467  0.0052  0.3135
 6181SOL    HW119442   1.109   6.165   6.812  1.8520  1.0420  0.7605
 6181SOL    HW219443   1.103   6.057   6.934  1.3871  0.0152 -0.1548
 6182SOL     OW19444   4.553   2.047   5.085  0.1186  0.0018 -0.1133
 6182SOL    HW119445   4.503   2.133   5.068 -2.0091 -1.2072 -0.3696
 6182SOL    HW219446   4.625   2.037   5.016  0.8490  1.8452  0.3063
 6183SOL     OW19447   0.123   6.513   0.455 -0.1201  0.1268 -0.8832
 6183SOL    HW119448   0.117   6.430   0.511 -0.8821  0.4535 -0.4563
 6183SOL    HW219449   0.037   6.564   0.464  0.3433  0.9544 -1.1527
 6184SOL     OW19450   1.853   6.710   5.413  0.2287  0.0094  0.2533
 6184SOL    HW119451   1.812   6.726   5.502 -0.7426  0.4870 -0.2603
 6184SOL    HW219452   1.952   6.720   5.419  0.1106  0.7770  1.1132
 6185SOL     OW19453   3.984   3.122   2.209  0.0058  0.2624 -0.4238
 6185SOL    HW119454   4.069   3.173   2.221 -0.0354  0.1906  0.2276
 6185SOL    HW219455   3.923   3.142   2.285  0.3537 -1.4650  0.3633
 6186SOL     OW19456   1.810   1.775   3.559 -0.3475  0.4218  0.0510
 6186SOL    HW119457   1.717   1.811   3.561 -0.9321 -1.0272 -0.6312
 6186SOL    HW219458   1.809   1.678   3.539  1.2602  0.1375  1.1007
 6187SOL     OW19459   3.720   1.540   5.224  0.5353 -0.5735 -0.0909
 6187SOL    HW119460   3.800   1.585   5.264 -0.6647  2.6367 -1.0200
 6187SOL    HW219461   3.643   1.547   5.287 -0.0414 -0.0654 -0.8389
 6188SOL     OW19462   1.891   1.082   4.142  0.6308 -0.1043 -0.1808
 6188SOL    HW119463   1.802   1.103   4.101  0.2447 -1.4001 -0.0471
 6188SOL    HW219464   1.897   1.128   4.231  0.8476  1.4498 -0.9509
 6189SOL     OW19465   0.837   6.883   6.899 -0.2070 -0.0709 -0.1671
 6189SOL    HW119466   0.823   6.914   6.805 -0.2759  0.6305  0.0637
 6189SOL    HW219467   0.932   6.896   6.925 -0.0772 -0.7344 -0.3015
 6190SOL     OW19468   2.380   1.872   4.375  0.2315  0.7521  0.0545
 6190SOL    HW119469   2.410   1.929   4.451 -0.4891  1.0557  0.1204
 6190SOL    HW219470   2.351   1.930   4.299  0.5569  0.4572 -0.2990
 6191SOL     OW19471   2.643   5.859   4.628 -0.0191 -0.0948 -0.1839
 6191SOL    HW119472   2.616   5.787   4.565  2.0416 -0.4683 -0.6946
 6191SOL    HW219473   2.662   5.944   4.578 -0.5610  0.2613  0.1976
 6192SOL     OW19474   1.553   1.772   1.034 -0.2820  0.0863  0.2413
 6192SOL    HW119475   1.618   1.755   0.959  0.6743  2.5028  0.4177
 6192SOL    HW219476   1.501   1.855   1.013 -0.7977  0.1611  1.7486
 6193SOL     OW19477   5.218   3.627   6.472 -0.1143 -0.5051  0.1048
 6193SOL    HW119478   5.225   3.543   6.418  0.4685 -0.1419 -0.3970
 6193SOL    HW219479   5.155   3.612   6.548 -0.8670 -1.0489 -0.6126
 6194SOL     OW19480   2.902   0.267   4.265  0.0598 -0.0665 -0.0775
 6194SOL    HW119481   2.952   0.350   4.289 -1.1030  0.4971  0.5255
 6194SOL    HW219482   2.908   0.201   4.340 -0.6267  0.2708  0.2870
 6195SOL     OW19483   5.186   6.522   5.007 -0.7592  0.0245 -0.3056
 6195SOL    HW119484   5.136   6.445   4.969 -0.1187 -0.7109  0.3238
 6195SOL    HW219485   5.278   6.525   4.970 -1.0791  1.0845 -1.0785
 6196SOL     OW19486   1.715   3.687   4.260 -0.1289 -0.1246 -0.0558
 6196SOL    HW119487   1.733   3.589   4.272 -0.2573 -0.0367  0.9113
 6196SOL    HW219488   1.780   3.725   4.194  0.3594 -0.7195  0.0766
 6197SOL     OW19489   1.063   6.030   0.872 -0.4810 -0.0973  0.4052
 6197SOL    HW119490   1.016   6.119   0.868 -0.7516 -0.1548  1.7788
 6197SOL    HW219491   1.057   5.994   0.965  2.2640 -0.1195  0.6314
 6198SOL     OW19492   5.235   1.872   3.786 -0.1101 -0.3721 -0.2138
 6198SOL    HW119493   5.203   1.803   3.721 -0.4421 -0.0531 -0.3909
 6198SOL    HW219494   5.163   1.939   3.801  1.0341  1.3476 -1.9717
 6199SOL     OW19495   3.667   6.659   5.253  0.7907  0.3985  0.2432
 6199SOL    HW119496   3.717   6.572   5.265  0.8682 -0.1120 -2.8927
 6199SOL    HW219497   3.729   6.735   5.273  0.7006 -0.1751  3.1368
 6200SOL     OW19498   1.417   5.077   6.388 -0.9927  0.0176 -0.0218
 6200SOL    HW119499   1.515   5.096   6.396 -0.8393  1.0616 -3.1562
 6200SOL    HW219500   1.403   5.001   6.325 -2.2156 -1.0294  1.4452
 6201SOL     OW19501   6.958   2.783   2.252 -0.4173  0.3069  0.0686
 6201SOL    HW119502   7.020   2.822   2.185  0.4577  0.8110  1.1436
 6201SOL    HW219503   6.960   2.683   2.245  2.8077  0.0934  1.9604
 6202SOL     OW19504   6.470   4.072   2.974 -0.2666  0.0814  0.6233
 6202SOL    HW119505   6.437   4.022   2.894  0.5978  0.2639  0.1475
 6202SOL    HW219506   6.483   4.008   3.050 -1.2208 -0.0700  0.6736
 6203SOL     OW19507   0.758   0.101   0.710  0.5094  0.1386 -0.0488
 6203SOL    HW119508   0.788   0.106   0.614 -1.1759  2.1824 -0.5230
 6203SOL    HW219509   0.748   0.193   0.747 -4.1053 -0.2593  0.3103
 6204SOL     OW19510   0.002   5.754   4.583 -0.4085  0.0434  0.0878
 6204SOL    HW119511   0.036   5.726   4.493  2.1666  1.5030  0.5145
 6204SOL    HW219512  -0.068   5.825   4.572 -1.6182 -1.2208 -0.7536
 6205SOL     OW19513   0.879   3.758   2.673 -0.2687 -0.4498 -0.4329
 6205SOL    HW119514   0.895   3.760   2.772 -0.6041 -0.2669 -0.3806
 6205SOL    HW219515   0.784   3.783   2.654 -0.1422 -0.2496 -0.8171
 6206SOL     OW19516   6.324   2.679   6.569 -0.2299  0.4995  0.2880
 6206SOL    HW119517   6.407   2.711   6.615 -0.4632  1.4262  0.0833
 6206SOL    HW219518   6.270   2.758   6.540  0.5845  0.0390 -2.8528
 6207SOL     OW19519   1.124   5.341   4.495  0.5177  0.5936 -0.2749
 6207SOL    HW119520   1.054   5.412   4.489  0.5879  1.2089  3.4493
 6207SOL    HW219521   1.083   5.252   4.477 -0.7837  1.1189 -0.0043
 6208SOL     OW19522   4.637   5.201   6.333  0.6618 -0.1625 -0.3549
 6208SOL    HW119523   4.720   5.201   6.387 -0.7218 -1.4335  1.9202
 6208SOL    HW219524   4.620   5.109   6.298 -0.9791 -0.5053  1.2320
 6209SOL     OW19525   3.452   6.925   2.226 -0.1825 -0.1569  0.0108
 6209SOL    HW119526   3.428   6.879   2.312 -1.5172 -0.2719 -0.3894
 6209SOL    HW219527   3.475   6.856   2.157 -0.2975 -0.1334 -0.0523
 6210SOL     OW19528   5.117   0.794   3.133 -0.3324 -0.0894  0.6916
 6210SOL    HW119529   5.135   0.883   3.091  2.0714  1.2593  4.1249
 6210SOL    HW219530   5.168   0.723   3.084 -0.5623  0.7358 -0.8007
 6211SOL     OW19531   5.084   3.004   4.249  0.2847 -0.1464 -0.0918
 6211SOL    HW119532   5.119   3.096   4.267  2.1770 -0.2456 -2.6940
 6211SOL    HW219533   5.139   2.936   4.297  0.2297 -0.0286  0.1373
 6212SOL     OW19534   5.443   5.286   4.942 -0.3291  0.3194 -0.1123
 6212SOL    HW119535   5.356   5.336   4.945 -0.1148  0.6865  0.0647
 6212SOL    HW219536   5.498   5.311   5.021 -0.1568 -0.0909 -0.1016
 6213SOL     OW19537   5.666   5.121   6.899 -0.3207 -0.0035 -0.4927
 6213SOL    HW119538   5.611   5.121   6.982 -1.2883 -2.2214 -1.0552
 6213SOL    HW219539   5.728   5.199   6.900 -1.3210  0.8404  1.6070
 6214SOL     OW19540   5.442   5.414   5.511 -0.9744  0.0174  0.2236
 6214SOL    HW119541   5.370   5.353   5.544 -0.7944  0.7521  2.0761
 6214SOL    HW219542   5.485   5.460   5.588  0.0699  1.1843 -1.0026
 6215SOL     OW19543   4.904   1.303   5.819  0.3152 -0.0921  0.6425
 6215SOL    HW119544   4.842   1.274   5.892  0.7236 -0.4228  0.8554
 6215SOL    HW219545   4.850   1.330   5.739 -0.1259  0.1280  1.0093
 6216SOL     OW19546   5.946   2.764   5.832 -0.2480  0.2210 -0.0858
 6216SOL    HW119547   5.935   2.764   5.733 -2.1732 -0.2996  0.0895
 6216SOL    HW219548   5.961   2.670   5.863 -0.6492  0.2510  0.2010
 6217SOL     OW19549   3.230   4.867   2.326 -0.5820 -0.1717 -0.4287
 6217SOL    HW119550   3.324   4.881   2.296 -0.1519 -0.2683  0.7987
 6217SOL    HW219551   3.176   4.827   2.252  0.1936  0.4193 -1.3291
 6218SOL     OW19552   6.109   6.232   0.928 -0.0208 -0.0315 -0.9746
 6218SOL    HW119553   6.113   6.332   0.921  0.4069 -0.1379 -3.0348
 6218SOL    HW219554   6.015   6.202   0.913 -0.0775  0.0336 -0.7545
 6219SOL     OW19555   2.981   2.325   0.481  0.3153 -0.2513 -0.3193
 6219SOL    HW119556   2.978   2.393   0.554 -2.4024  0.0999 -0.6703
 6219SOL    HW219557   3.032   2.362   0.403 -1.4555  1.6194 -0.6644
 6220SOL     OW19558   2.294   6.893   2.797 -0.2619  0.1790  0.4508
 6220SOL    HW119559   2.357   6.966   2.827  0.5631  0.2094 -1.2487
 6220SOL    HW219560   2.346   6.809   2.783 -0.8029 -0.0995  0.1089
 6221SOL     OW19561   4.401   5.870   5.985 -0.3493 -0.7456 -0.6276
 6221SOL    HW119562   4.346   5.940   6.031 -2.6357 -0.9702 -2.7598
 6221SOL    HW219563   4.396   5.785   6.038  0.2619 -0.0396  0.6153
 6222SOL     OW19564   1.663   0.020   1.972  0.0430  0.3946 -0.5845
 6222SOL    HW119565   1.716   0.036   1.889  0.6107  2.0314  0.0605
 6222SOL    HW219566   1.581   0.077   1.972  0.5729  1.1820  0.4344
 6223SOL     OW19567   6.266   4.802   2.453  0.3907  0.2995  0.3961
 6223SOL    HW119568   6.351   4.804   2.401  0.6571  0.6823  0.8263
 6223SOL    HW219569   6.240   4.707   2.472  1.1333  0.1866  0.9034
 6224SOL     OW19570   4.239   0.893   1.398  0.4298 -0.3141 -0.3048
 6224SOL    HW119571   4.169   0.961   1.420 -0.0459 -0.8149 -0.2483
 6224SOL    HW219572   4.293   0.875   1.480 -0.1078 -0.7591 -0.0392
 6225SOL     OW19573   4.588   6.031   6.582  0.0146 -0.2924  1.0092
 6225SOL    HW119574   4.649   6.018   6.504 -0.2847 -3.0610  1.1412
 6225SOL    HW219575   4.608   6.119   6.625  3.5376 -0.8019  0.7343
 6226SOL     OW19576   3.055   2.173   2.514 -0.0594 -0.3409  0.4253
 6226SOL    HW119577   3.155   2.168   2.506  0.0217 -0.3124  1.2988
 6226SOL    HW219578   3.016   2.194   2.425  0.6520 -1.2296 -0.1168
 6227SOL     OW19579   1.339   4.912   6.170  0.2111  0.1810  0.4221
 6227SOL    HW119580   1.361   4.823   6.131  3.0648  1.4307 -1.1422
 6227SOL    HW219581   1.322   4.977   6.097  1.5650  1.6518  1.3393
 6228SOL     OW19582   1.899   4.166   2.041  0.0902 -0.4238 -0.4905
 6228SOL    HW119583   1.859   4.083   2.000 -0.5872 -0.6589  0.5892
 6228SOL    HW219584   1.957   4.140   2.118 -0.9663  0.1400  0.5256
 6229SOL     OW19585   1.333   5.227   5.673  0.1133  0.3253  0.6251
 6229SOL    HW119586   1.403   5.282   5.719  1.0647 -0.0031 -0.4078
 6229SOL    HW219587   1.310   5.148   5.730  1.2917 -0.0887  0.5528
 6230SOL     OW19588   0.674   0.842   0.902  0.3650  0.4402  0.2793
 6230SOL    HW119589   0.579   0.872   0.899 -0.1939 -0.8371  2.7066
 6230SOL    HW219590   0.699   0.820   0.996  2.2919 -1.7195 -0.6431
 6231SOL     OW19591   1.979   5.555   5.458  0.2023 -0.3923 -0.0208
 6231SOL    HW119592   1.891   5.600   5.444  0.5306  0.3484  0.2329
 6231SOL    HW219593   2.053   5.619   5.437  0.6822 -0.7178  0.6432
 6232SOL     OW19594   5.043   1.440   4.634 -0.1222 -0.4170  0.5347
 6232SOL    HW119595   5.068   1.530   4.598 -0.1873  0.1266  1.7796
 6232SOL    HW219596   5.116   1.406   4.693 -0.8033 -0.3862  1.4300
 6233SOL     OW19597   6.746   4.350   0.486  0.2582 -0.3634 -0.0246
 6233SOL    HW119598   6.839   4.342   0.448  0.2101 -2.7512  0.1774
 6233SOL    HW219599   6.681   4.308   0.423 -0.8161  1.7701 -0.4157
 6234SOL     OW19600   6.450   4.662   3.831 -0.0626 -0.0142  0.2611
 6234SOL    HW119601   6.417   4.701   3.917 -2.5832 -0.1818 -0.5416
 6234SOL    HW219602   6.397   4.580   3.809  0.8004 -0.2084 -1.2589
 6235SOL     OW19603   6.643   0.743   2.818  0.0126  0.5699 -0.2057
 6235SOL    HW119604   6.575   0.720   2.748  0.0365  2.5858 -0.9468
 6235SOL    HW219605   6.687   0.830   2.794  2.2303 -0.2401  0.7218
 6236SOL     OW19606   5.900   0.378   7.011  0.0011 -0.7763 -0.0366
 6236SOL    HW119607   5.805   0.349   7.028  0.4858 -1.9885  0.7919
 6236SOL    HW219608   5.923   0.362   6.915 -0.6288 -0.4833 -0.2407
 6237SOL     OW19609   3.080   2.060   4.034 -0.0249  0.3328 -0.0710
 6237SOL    HW119610   3.077   2.125   4.110  0.2310 -1.2753  1.3954
 6237SOL    HW219611   2.988   2.027   4.015  0.0362 -0.0642  0.2960
 6238SOL     OW19612   1.727   5.976   2.505 -0.2509 -0.1476  0.2828
 6238SOL    HW119613   1.755   5.922   2.426  2.2817  1.6084 -0.1587
 6238SOL    HW219614   1.689   6.064   2.474 -1.1599 -0.2518  1.0264
 6239SOL     OW19615   4.286   1.256   3.399 -0.2833 -0.2003  0.1023
 6239SOL    HW119616   4.264   1.203   3.481 -2.6755  0.4869 -0.0232
 6239SOL    HW219617   4.230   1.224   3.322  0.7679  0.2197 -0.8579
 6240SOL     OW19618   3.148   3.825   3.235 -0.3378  0.1287  0.0954
 6240SOL    HW119619   3.181   3.750   3.179  3.2443  1.1671  0.5623
 6240SOL    HW219620   3.183   3.815   3.328  0.5541  2.4710  0.0889
 6241SOL     OW19621   4.168   5.350   3.819  0.2838 -0.4646 -0.8089
 6241SOL    HW119622   4.102   5.368   3.891  0.6731  0.6530 -0.7195
 6241SOL    HW219623   4.222   5.432   3.801  1.4001 -1.2344 -1.1346
 6242SOL     OW19624   1.464   2.603   4.939  0.1761 -0.7786  0.6163
 6242SOL    HW119625   1.371   2.587   4.973  0.3784 -2.7687  0.3535
 6242SOL    HW219626   1.461   2.620   4.841 -0.0591  1.1876  0.9264
 6243SOL     OW19627   2.806   0.669   0.104  0.0528 -0.3682  0.4999
 6243SOL    HW119628   2.855   0.733   0.164  0.0744  1.2084 -1.1380
 6243SOL    HW219629   2.872   0.606   0.062  0.0914 -1.1800  1.7174
 6244SOL     OW19630   6.859   2.030   2.438 -0.0017  0.6998 -0.2816
 6244SOL    HW119631   6.795   2.063   2.508  1.5098 -2.1548  2.6743
 6244SOL    HW219632   6.941   2.087   2.438  0.4036  0.1399  1.0373
 6245SOL     OW19633   0.337   3.403   2.321 -0.9922 -0.1261  0.3295
 6245SOL    HW119634   0.373   3.313   2.346 -1.3224 -0.0193  1.2210
 6245SOL    HW219635   0.376   3.431   2.234 -1.0383 -1.2285 -0.0671
 6246SOL     OW19636   0.677   3.982   5.013 -0.1095  0.3142  0.0831
 6246SOL    HW119637   0.604   3.916   5.031 -0.7127  0.9956  0.2092
 6246SOL    HW219638   0.715   3.965   4.922  0.4095 -0.8011  0.4885
 6247SOL     OW19639   6.371   4.461   3.660 -0.2586  0.3427  0.9558
 6247SOL    HW119640   6.447   4.506   3.614 -1.2874  1.1247 -0.0406
 6247SOL    HW219641   6.373   4.363   3.639 -0.0981  0.5183  0.0975
 6248SOL     OW19642   5.341   2.982   4.766 -0.0067  0.2346 -0.0702
 6248SOL    HW119643   5.368   2.888   4.746  1.0877  0.9756 -2.4269
 6248SOL    HW219644   5.371   3.007   4.858  2.1233 -0.9007 -0.3892
 6249SOL     OW19645   4.785   1.497   4.127 -0.4164  0.6991  0.6443
 6249SOL    HW119646   4.703   1.475   4.075  0.6552  0.2944 -0.9851
 6249SOL    HW219647   4.764   1.564   4.198 -2.7556 -1.5405  2.2872
 6250SOL     OW19648   5.119   2.248   5.509 -0.2454 -0.0114  0.0918
 6250SOL    HW119649   5.155   2.336   5.478  0.4674 -0.7313 -1.2080
 6250SOL    HW219650   5.145   2.233   5.604  3.2260 -0.6240 -0.8406
 6251SOL     OW19651   4.070   0.476   1.046 -0.2976 -0.1661 -0.1384
 6251SOL    HW119652   4.015   0.549   1.087  0.0966  0.9979 -1.6117
 6251SOL    HW219653   4.090   0.498   0.951  2.6367 -0.5843  0.2952
 6252SOL     OW19654   2.343   5.438   6.034 -0.1329 -0.6225 -0.1041
 6252SOL    HW119655   2.339   5.356   6.090 -0.2318 -0.6054 -0.0862
 6252SOL    HW219656   2.403   5.422   5.955  0.8104 -0.3236  0.5305
 6253SOL     OW19657   2.537   5.832   3.052 -0.0313  0.3867 -0.4306
 6253SOL    HW119658   2.444   5.870   3.045 -1.2601 -1.2908  3.6795
 6253SOL    HW219659   2.541   5.745   3.003 -1.6418 -0.8949  1.5283
 6254SOL     OW19660   1.971   6.764   1.633  0.3290  0.5732  0.6534
 6254SOL    HW119661   1.980   6.705   1.553 -0.5011  2.5714 -0.9737
 6254SOL    HW219662   2.063   6.789   1.666  0.6786 -0.7874  0.7818
 6255SOL     OW19663   2.675   1.032   0.273 -0.3004 -0.0493  0.0981
 6255SOL    HW119664   2.763   1.023   0.321 -0.6554  0.4077  0.8514
 6255SOL    HW219665   2.607   0.974   0.318 -0.7025  0.5884  0.3238
 6256SOL     OW19666   6.417   4.392   2.383  0.4030 -0.5734  0.5097
 6256SOL    HW119667   6.436   4.340   2.300 -0.0290 -1.2382  0.8165
 6256SOL    HW219668   6.465   4.480   2.380 -0.3880 -0.1620 -0.8773
 6257SOL     OW19669   5.359   5.118   0.381 -0.3708 -0.4290 -0.3723
 6257SOL    HW119670   5.280   5.177   0.365 -1.0161 -1.4441 -1.0095
 6257SOL    HW219671   5.374   5.107   0.479 -0.7228  0.1562 -0.2541
 6258SOL     OW19672   3.737   4.928   3.407 -0.0453  0.2856 -0.2195
 6258SOL    HW119673   3.716   4.944   3.311 -1.3010  1.9920  0.2926
 6258SOL    HW219674   3.664   4.965   3.464  0.4046 -1.1792  1.3963
 6259SOL     OW19675   6.620   6.740   4.595  0.4365  0.2647  0.1626
 6259SOL    HW119676   6.716   6.735   4.621 -0.5490 -1.4735  4.1363
 6259SOL    HW219677   6.575   6.814   4.644 -1.0355 -1.6128  1.8430
 6260SOL     OW19678   3.560   2.417   6.028  0.0871  0.3338 -0.7871
 6260SOL    HW119679   3.484   2.479   6.009 -0.7338  0.1594  1.5812
 6260SOL    HW219680   3.639   2.445   5.974 -0.5593  2.8105 -0.6012
 6261SOL     OW19681   5.559   5.430   1.383  0.6935 -0.1922  0.0928
 6261SOL    HW119682   5.591   5.488   1.458 -0.5105  1.5370 -0.6522
 6261SOL    HW219683   5.527   5.488   1.308 -4.6218 -1.5274  0.9148
 6262SOL     OW19684   5.364   2.187   4.556  0.4515  0.3716  0.0787
 6262SOL    HW119685   5.395   2.235   4.475  1.1434 -0.8825 -0.4389
 6262SOL    HW219686   5.365   2.088   4.539  0.0941  0.1058  1.4279
 6263SOL     OW19687   5.299   5.638   6.353 -0.6771  0.6447  0.0023
 6263SOL    HW119688   5.206   5.672   6.337 -0.3364  1.9895  0.7366
 6263SOL    HW219689   5.300   5.579   6.433 -1.0300 -0.0243 -0.4762
 6264SOL     OW19690   0.769   5.375   6.616  0.0398 -0.4565 -0.1503
 6264SOL    HW119691   0.702   5.413   6.552  0.3892  0.6087  0.0913
 6264SOL    HW219692   0.846   5.439   6.625 -0.4012 -0.1474  1.9967
 6265SOL     OW19693   5.220   0.905   2.076 -0.4866 -0.2365  0.2755
 6265SOL    HW119694   5.310   0.946   2.090  0.1677 -1.1115 -1.1107
 6265SOL    HW219695   5.163   0.967   2.022 -0.4744  0.0131  0.5461
 6266SOL     OW19696   2.700   5.633   5.206  0.2745 -0.0360 -0.0127
 6266SOL    HW119697   2.765   5.648   5.132  1.9112 -1.0260  1.1745
 6266SOL    HW219698   2.703   5.711   5.269 -0.6654  0.5128 -0.6126
 6267SOL     OW19699   5.711   1.518   4.204 -0.2416  0.0812  0.2519
 6267SOL    HW119700   5.789   1.457   4.220 -0.5150 -0.2053  0.5172
 6267SOL    HW219701   5.691   1.521   4.107  1.2657  1.6232 -0.0601
 6268SOL     OW19702   4.445   4.806   0.701  0.4919 -0.2167  0.0509
 6268SOL    HW119703   4.493   4.894   0.697  0.2172 -0.1123 -2.4822
 6268SOL    HW219704   4.347   4.823   0.707  0.4729 -0.3594  0.1427
 6269SOL     OW19705   6.973   4.341   0.336  0.0972  0.1352  0.7810
 6269SOL    HW119706   6.913   4.277   0.289 -0.6951  0.9044  0.7152
 6269SOL    HW219707   7.069   4.314   0.323 -0.1647 -0.3286 -0.2792
 6270SOL     OW19708   1.765   0.524   0.381 -0.8493  0.3098  0.5597
 6270SOL    HW119709   1.809   0.579   0.453 -0.3671  0.5517  0.0926
 6270SOL    HW219710   1.826   0.519   0.302 -1.4401  0.1743  0.1074
 6271SOL     OW19711   0.897   5.077   4.652  0.0504 -0.1259  0.5347
 6271SOL    HW119712   0.869   5.172   4.654 -1.7739 -0.5463 -1.5054
 6271SOL    HW219713   0.944   5.057   4.566  0.5383 -1.0548  0.9918
 6272SOL     OW19714   5.501   0.788   1.890 -0.7361  0.5172  0.9364
 6272SOL    HW119715   5.447   0.829   1.816  0.9028  0.5393 -0.3192
 6272SOL    HW219716   5.450   0.713   1.932 -2.0354  1.0392  0.3441
 6273SOL     OW19717   2.410   6.868   3.548 -0.1338  0.1391 -0.1603
 6273SOL    HW119718   2.487   6.865   3.484  0.5365 -0.8271  0.6483
 6273SOL    HW219719   2.426   6.939   3.617  0.8506 -1.1246  0.9566
 6274SOL     OW19720   1.587   4.495   4.733  0.1239 -0.2370 -0.4089
 6274SOL    HW119721   1.649   4.429   4.774  0.2478 -0.7691 -1.4242
 6274SOL    HW219722   1.617   4.588   4.755  2.2433 -0.4261 -2.1701
 6275SOL     OW19723   3.621   6.442   1.026  0.0486 -0.3055 -0.1458
 6275SOL    HW119724   3.620   6.541   1.008  1.4971  0.0171  1.2783
 6275SOL    HW219725   3.688   6.422   1.098 -1.2218 -2.1773  0.5847
 6276SOL     OW19726   2.933   4.806   3.844 -0.0691  0.6236  0.2537
 6276SOL    HW119727   2.887   4.740   3.785  0.2573  0.1477  0.5249
 6276SOL    HW219728   2.911   4.786   3.940  0.4228  0.6110  0.3651
 6277SOL     OW19729   0.094   6.713   1.408  0.1586 -0.1715 -0.6069
 6277SOL    HW119730   0.065   6.728   1.502 -1.3358 -1.2508 -0.8633
 6277SOL    HW219731   0.023   6.744   1.345 -0.8002 -3.3014 -1.2377
 6278SOL     OW19732   4.795   2.106   6.696  0.0980  0.4930  0.5208
 6278SOL    HW119733   4.779   2.183   6.759  1.6921  1.5388 -0.2823
 6278SOL    HW219734   4.746   2.123   6.611  1.5054  1.3219 -0.1538
 6279SOL     OW19735   1.115   4.590   0.688  0.2250  0.1254  0.0515
 6279SOL    HW119736   1.033   4.616   0.739  0.8083 -0.2395  1.2348
 6279SOL    HW219737   1.094   4.584   0.591 -0.5672  2.4447  0.0136
 6280SOL     OW19738   4.359   6.039   0.136 -0.1823  0.0357 -0.0915
 6280SOL    HW119739   4.432   6.009   0.197 -0.3403 -1.8650 -0.7864
 6280SOL    HW219740   4.387   6.123   0.089  0.8206  0.3057  0.9444
 6281SOL     OW19741   5.981   4.312   5.253  0.0116 -0.3116  0.3743
 6281SOL    HW119742   6.012   4.396   5.299 -3.3522  0.7875  0.9206
 6281SOL    HW219743   5.926   4.258   5.317  0.3591 -1.8894 -0.6186
 6282SOL     OW19744   6.083   4.114   5.051  0.5438  0.1170 -0.6036
 6282SOL    HW119745   6.043   4.175   5.120  1.4696  0.3264 -0.2331
 6282SOL    HW219746   6.021   4.038   5.034  0.5604 -0.2738  0.9316
 6283SOL     OW19747   2.703   4.616   5.548  0.0025  0.3047  0.0296
 6283SOL    HW119748   2.692   4.715   5.543  0.2000  0.2576 -2.9032
 6283SOL    HW219749   2.798   4.593   5.568 -0.2505  0.6493  1.8163
 6284SOL     OW19750   1.899   3.304   6.194 -0.4453  0.2776  0.3661
 6284SOL    HW119751   1.832   3.295   6.268 -2.3130 -2.0286 -1.4584
 6284SOL    HW219752   1.852   3.328   6.109  1.3115  0.3055 -0.6405
 6285SOL     OW19753   0.702   4.516   5.473 -0.7334  0.4112 -0.0962
 6285SOL    HW119754   0.622   4.568   5.503  0.1938  0.7405  2.0021
 6285SOL    HW219755   0.714   4.437   5.533  0.5051  0.3545 -0.3924
 6286SOL     OW19756   6.825   4.203   6.067  0.6285  0.4561  0.6409
 6286SOL    HW119757   6.765   4.181   6.144 -0.0791  1.6136  0.4473
 6286SOL    HW219758   6.885   4.126   6.048 -2.0489 -1.5554 -0.3427
 6287SOL     OW19759   4.690   4.347   3.580  0.4349  0.1458 -0.1537
 6287SOL    HW119760   4.676   4.336   3.678  0.2521  0.3226 -0.1609
 6287SOL    HW219761   4.758   4.419   3.563 -0.7654  1.3006 -0.2026
 6288SOL     OW19762   3.437   2.881   5.585  0.1203  0.2692  0.2033
 6288SOL    HW119763   3.346   2.876   5.625 -0.0021 -1.6964 -0.2328
 6288SOL    HW219764   3.430   2.902   5.488  0.1484  0.4524  0.2412
 6289SOL     OW19765   2.206   7.015   5.845 -0.3881  0.2974 -0.5819
 6289SOL    HW119766   2.290   7.067   5.851 -0.4508  0.2689  0.8803
 6289SOL    HW219767   2.226   6.923   5.809  0.0797  0.5336 -0.9328
 6290SOL     OW19768   6.457   0.688   2.625 -0.0537 -0.4691 -0.2799
 6290SOL    HW119769   6.451   0.774   2.575 -0.3379 -0.1972  0.2240
 6290SOL    HW219770   6.382   0.628   2.597  0.3193 -0.6737 -0.8535
 6291SOL     OW19771   2.689   4.975   1.344  0.0548  0.6417 -0.3693
 6291SOL    HW119772   2.765   5.038   1.330 -0.9125  1.6614 -1.2272
 6291SOL    HW219773   2.723   4.889   1.382  1.9573  0.2235 -2.7591
 6292SOL     OW19774   1.474   4.551   4.156 -0.3815 -0.4135 -0.1636
 6292SOL    HW119775   1.391   4.604   4.172  0.4950  0.7938  0.5718
 6292SOL    HW219776   1.502   4.506   4.241 -0.4278 -1.0444 -0.4778
 6293SOL     OW19777   4.069   2.166   1.181 -0.2807  0.0643 -0.5685
 6293SOL    HW119778   4.024   2.241   1.228 -1.9641 -1.0034 -0.3703
 6293SOL    HW219779   4.003   2.121   1.120  0.4028 -1.7971  0.0044
 6294SOL     OW19780   1.814   7.011   1.741  0.4868  0.8776  0.4699
 6294SOL    HW119781   1.901   7.059   1.753  1.4563 -1.0518  1.4439
 6294SOL    HW219782   1.830   6.914   1.725 -1.5291  0.2107  2.0549
 6295SOL     OW19783   4.408   2.434   6.234 -0.1944  0.7849 -0.4359
 6295SOL    HW119784   4.393   2.497   6.159 -0.7917 -0.2020 -1.1724
 6295SOL    HW219785   4.501   2.396   6.228  0.2301  1.6934  0.1125
 6296SOL     OW19786   6.759   1.610   2.305 -0.0525  0.1633  0.2640
 6296SOL    HW119787   6.778   1.592   2.209  0.2327  0.5424  0.2495
 6296SOL    HW219788   6.689   1.546   2.337 -1.1120  0.8718 -0.5507
 6297SOL     OW19789   6.118   1.420   5.705  0.2204 -0.1872  0.6497
 6297SOL    HW119790   6.131   1.473   5.789  0.2933  1.5859 -0.4456
 6297SOL    HW219791   6.207   1.393   5.669  0.4062  2.0540 -0.6866
 6298SOL     OW19792   0.358   0.674   5.373  0.1587 -0.1387  0.0003
 6298SOL    HW119793   0.409   0.671   5.459  1.2700  2.1160 -0.5142
 6298SOL    HW219794   0.260   0.669   5.393  0.3917  0.4276  1.4021
 6299SOL     OW19795   3.243   0.948   4.686  0.2770  0.0344 -0.4362
 6299SOL    HW119796   3.340   0.969   4.671 -0.4523  1.8869 -3.5173
 6299SOL    HW219797   3.190   0.982   4.609 -2.8849 -0.9372  1.1561
 6300SOL     OW19798   0.885   2.497   6.859 -0.7635 -0.2909 -0.5184
 6300SOL    HW119799   0.880   2.564   6.934  2.0934 -0.5612  0.0400
 6300SOL    HW219800   0.919   2.410   6.895 -0.6348 -0.8378 -1.9025
 6301SOL     OW19801   5.411   4.766   0.344 -0.2674  0.0674  0.4857
 6301SOL    HW119802   5.393   4.717   0.430 -0.1162 -0.3399  0.2866
 6301SOL    HW219803   5.466   4.709   0.284 -1.0472  0.0332 -0.2137
 6302SOL     OW19804   1.839   3.501   2.661  0.3501  0.5050  0.2183
 6302SOL    HW119805   1.918   3.506   2.600  0.9094  0.4487  0.9236
 6302SOL    HW219806   1.819   3.592   2.697 -1.2419  0.9317 -1.5867
 6303SOL     OW19807   0.655   4.072   6.248 -0.4711 -0.1227  0.5124
 6303SOL    HW119808   0.737   4.059   6.304 -0.1299  0.2969  0.1101
 6303SOL    HW219809   0.637   4.169   6.236 -1.7903 -0.1886  1.6972
 6304SOL     OW19810   1.892   0.988   4.937 -0.0829  0.3348 -0.3288
 6304SOL    HW119811   1.839   1.069   4.912 -1.0799 -0.2039 -0.0033
 6304SOL    HW219812   1.860   0.910   4.884  0.8767  0.1407 -0.6462
 6305SOL     OW19813   2.609   6.094   3.572  0.0983  0.3154  0.4576
 6305SOL    HW119814   2.601   5.999   3.603  0.3594 -0.1163 -0.7588
 6305SOL    HW219815   2.681   6.139   3.624 -1.2828  0.4284  2.3730
 6306SOL     OW19816   1.448   4.171   2.969 -0.1680  0.2968 -0.0802
 6306SOL    HW119817   1.507   4.151   3.047 -1.1710  1.3575  0.9778
 6306SOL    HW219818   1.361   4.123   2.980 -0.0372 -0.1547 -0.9423
 6307SOL     OW19819   3.895   2.565   0.887 -0.0735 -0.1131  0.1456
 6307SOL    HW119820   3.940   2.480   0.859 -1.4214 -0.3489 -1.5161
 6307SOL    HW219821   3.964   2.636   0.902  1.1157 -1.5445  1.9345
 6308SOL     OW19822   1.841   0.890   1.616 -0.2623 -0.2094 -0.0865
 6308SOL    HW119823   1.833   0.837   1.531  2.0931 -1.8803  0.6463
 6308SOL    HW219824   1.846   0.988   1.593  1.3819 -0.6730 -1.9987
 6309SOL     OW19825   1.863   5.247   2.914  0.0546 -0.3042 -0.8065
 6309SOL    HW119826   1.768   5.279   2.919 -0.1204 -0.9350 -0.0171
 6309SOL    HW219827   1.867   5.161   2.864  0.2356 -0.1974 -0.9793
 6310SOL     OW19828   1.047   6.889   3.032 -0.1384  0.2466  0.1734
 6310SOL    HW119829   1.078   6.956   3.100  0.9334  1.6238 -1.5736
 6310SOL    HW219830   1.039   6.934   2.943 -0.1371 -1.8042 -0.9178
 6311SOL     OW19831   4.860   6.705   5.540 -0.1444 -0.4012 -0.3748
 6311SOL    HW119832   4.887   6.609   5.531  2.1765  0.2063 -0.6287
 6311SOL    HW219833   4.797   6.729   5.466 -2.8920 -2.3122  1.1553
 6312SOL     OW19834   5.145   5.089   0.816  0.2533  0.0646 -0.0544
 6312SOL    HW119835   5.087   5.011   0.838  0.9872  0.3523  3.3726
 6312SOL    HW219836   5.167   5.140   0.899  0.5990  3.4248 -2.0069
 6313SOL     OW19837   0.035   5.305   3.856  0.3188  0.1690  0.0910
 6313SOL    HW119838   0.077   5.227   3.902  3.2260  0.1775 -2.2769
 6313SOL    HW219839  -0.027   5.272   3.785  1.7018 -0.0815 -1.0473
 6314SOL     OW19840   3.657   5.554   2.791 -0.3373 -0.1842 -0.1304
 6314SOL    HW119841   3.572   5.544   2.844 -0.4846  0.3452 -0.2577
 6314SOL    HW219842   3.664   5.648   2.758  0.6967 -0.0113  0.5527
 6315SOL     OW19843   1.807   1.561   5.494 -0.4879 -0.2861  0.1354
 6315SOL    HW119844   1.725   1.610   5.464 -1.2186 -2.0538 -0.9689
 6315SOL    HW219845   1.790   1.517   5.582 -0.4875 -0.1055  0.2261
 6316SOL     OW19846   5.255   0.704   0.726  0.3469 -0.3996 -0.1801
 6316SOL    HW119847   5.278   0.800   0.738 -0.3364 -0.3950  1.2393
 6316SOL    HW219848   5.156   0.694   0.711  0.2730 -0.9493  0.6216
 6317SOL     OW19849   5.888   4.454   3.844 -0.2202  0.3668 -0.3533
 6317SOL    HW119850   5.912   4.515   3.920 -0.4132 -1.1359  0.9782
 6317SOL    HW219851   5.791   4.462   3.824 -0.2041  0.6427 -0.3262
 6318SOL     OW19852   4.932   6.059   6.038 -0.0929  0.4420 -0.5888
 6318SOL    HW119853   4.835   6.076   6.026 -0.2160 -0.9428 -1.8738
 6318SOL    HW219854   4.974   6.137   6.086 -1.2424  2.5027 -2.7209
 6319SOL     OW19855   5.663   1.017   4.106  0.0584  0.2703  0.8451
 6319SOL    HW119856   5.744   0.966   4.136  0.0781 -0.1814  0.0413
 6319SOL    HW219857   5.581   0.960   4.119 -0.1044  0.6134  1.3729
 6320SOL     OW19858   5.951   4.571   0.241 -0.1573 -0.2197  0.1503
 6320SOL    HW119859   6.031   4.615   0.281  0.6670 -1.2517 -0.3027
 6320SOL    HW219860   5.966   4.555   0.144 -2.1590  2.3064 -0.6811
 6321SOL     OW19861   6.299   2.337   0.279 -0.0730  0.6487 -0.0123
 6321SOL    HW119862   6.207   2.366   0.253 -0.4938  0.1599  0.8762
 6321SOL    HW219863   6.335   2.276   0.208 -1.1903 -0.6435  0.4753
 6322SOL     OW19864   2.422   1.212   2.261 -0.2900 -0.3814 -0.0414
 6322SOL    HW119865   2.421   1.113   2.279 -0.9795 -0.5474 -0.9596
 6322SOL    HW219866   2.511   1.249   2.288 -0.1359 -1.1844  0.6264
 6323SOL     OW19867   3.270   1.026   6.813 -0.3693  0.0695 -0.3476
 6323SOL    HW119868   3.307   1.104   6.863 -2.6801  0.0829  1.5183
 6323SOL    HW219869   3.318   0.943   6.842  0.8015  0.5282 -0.9140
 6324SOL     OW19870   6.421   3.370   3.450  0.3895  0.3149 -0.2699
 6324SOL    HW119871   6.353   3.421   3.398  0.7587 -0.2126 -1.2856
 6324SOL    HW219872   6.512   3.390   3.415  0.5546 -0.8745 -0.5595
 6325SOL     OW19873   1.210   4.132   3.654  1.3463 -0.4561  0.0596
 6325SOL    HW119874   1.236   4.199   3.585  0.6738  0.1632  0.3944
 6325SOL    HW219875   1.192   4.179   3.741  0.4617 -1.0219  0.1919
 6326SOL     OW19876   4.780   0.961   2.805  0.3790 -0.0057  0.2330
 6326SOL    HW119877   4.759   0.946   2.709  0.6293  0.4113  0.1101
 6326SOL    HW219878   4.849   1.033   2.813 -1.3854  1.6852  0.8258
 6327SOL     OW19879   0.822   6.214   2.194 -0.1702 -0.0359 -0.7388
 6327SOL    HW119880   0.787   6.208   2.288 -0.0622  0.1849 -0.6829
 6327SOL    HW219881   0.773   6.150   2.136  0.0883 -0.5204 -0.4283
 6328SOL     OW19882   3.287   2.962   2.738  0.3135 -0.3140 -0.0967
 6328SOL    HW119883   3.384   2.965   2.713  0.1851  1.2782 -0.5200
 6328SOL    HW219884   3.231   2.953   2.656  0.1015 -3.5010  0.2658
 6329SOL     OW19885   6.161   2.451   5.665  0.2375  0.0371 -0.0094
 6329SOL    HW119886   6.213   2.536   5.678 -2.3852  1.7358  0.0871
 6329SOL    HW219887   6.107   2.458   5.581 -1.8136 -0.5203  1.2090
 6330SOL     OW19888   3.583   1.916   3.319  0.2753  0.7176  0.2265
 6330SOL    HW119889   3.537   1.847   3.264 -1.9276  1.7498  0.6907
 6330SOL    HW219890   3.629   1.872   3.397 -2.3202 -0.1726  1.3623
 6331SOL     OW19891   1.534   3.882   4.310  0.4872  0.2814  0.1457
 6331SOL    HW119892   1.596   3.806   4.288  2.0610  1.5475  0.0061
 6331SOL    HW219893   1.498   3.870   4.402  1.7565  0.0041  0.6351
 6332SOL     OW19894   3.679   0.155   1.472  0.2468  0.0094 -0.2025
 6332SOL    HW119895   3.619   0.219   1.423  0.2800  0.6253  0.5296
 6332SOL    HW219896   3.663   0.165   1.570  0.9796 -0.4029 -0.0400
 6333SOL     OW19897   0.476   2.057   0.737  0.1703 -0.1128 -0.1700
 6333SOL    HW119898   0.572   2.055   0.765 -0.1560 -3.0811  1.0305
 6333SOL    HW219899   0.465   2.003   0.653 -0.8246 -2.4075  1.3475
 6334SOL     OW19900   2.127   3.287   3.473 -0.2434 -0.2932 -0.1412
 6334SOL    HW119901   2.060   3.215   3.492 -2.4970  1.9798  1.2792
 6334SOL    HW219902   2.151   3.285   3.376 -3.6925 -0.2662 -1.1372
 6335SOL     OW19903   4.826   2.861   4.351  0.3636  0.5161 -0.5093
 6335SOL    HW119904   4.893   2.935   4.355  0.8263  0.0784  0.0098
 6335SOL    HW219905   4.754   2.877   4.418  2.7359 -1.6336  2.9002
 6336SOL     OW19906   1.459   5.517   0.285  0.0502  0.0112  0.0440
 6336SOL    HW119907   1.467   5.603   0.235 -0.9402  0.1244  0.0508
 6336SOL    HW219908   1.430   5.535   0.379  0.8112 -0.2710  0.3417
 6337SOL     OW19909   4.328   0.721   4.793  0.3075  0.2242 -0.3699
 6337SOL    HW119910   4.300   0.815   4.812 -1.4075 -0.2737 -0.2617
 6337SOL    HW219911   4.317   0.702   4.695 -0.2752 -0.1504 -0.2337
 6338SOL     OW19912   3.183   5.230   1.095 -0.5777 -0.0863 -0.5462
 6338SOL    HW119913   3.107   5.292   1.115 -0.3240  0.0396  0.0701
 6338SOL    HW219914   3.152   5.136   1.100 -0.6101 -0.0472  0.1151
 6339SOL     OW19915   2.557   4.555   4.224 -0.3776 -0.2791  0.1220
 6339SOL    HW119916   2.514   4.645   4.221 -2.0897 -1.0765 -1.5669
 6339SOL    HW219917   2.490   4.485   4.200  0.9453 -2.0191  1.2184
 6340SOL     OW19918   2.407   6.597   4.425 -0.3311  0.4380 -0.0834
 6340SOL    HW119919   2.427   6.528   4.355 -0.2078  0.1200  0.2624
 6340SOL    HW219920   2.330   6.567   4.480 -1.8796  1.7024 -1.4646
 6341SOL     OW19921   1.246   5.361   4.247  0.7681  0.3544 -0.1570
 6341SOL    HW119922   1.324   5.302   4.267  0.6995  0.2688 -0.1391
 6341SOL    HW219923   1.189   5.369   4.329 -0.3470 -1.2465 -0.7252
 6342SOL     OW19924   2.519   1.353   1.715  0.1006  0.3164  0.2157
 6342SOL    HW119925   2.474   1.433   1.674  1.1365  1.2254  0.8007
 6342SOL    HW219926   2.465   1.321   1.792 -1.2197 -0.6428 -1.0550
 6343SOL     OW19927   0.563   4.523   5.755  0.3417 -0.6843  0.0732
 6343SOL    HW119928   0.577   4.446   5.817  0.8368  0.9046  2.0375
 6343SOL    HW219929   0.620   4.600   5.784 -0.6967  0.6951 -1.3634
 6344SOL     OW19930   2.716   1.580   4.377 -0.0162  0.1015  0.0857
 6344SOL    HW119931   2.814   1.604   4.378  0.2775 -0.9451 -1.0192
 6344SOL    HW219932   2.673   1.621   4.297  0.1165 -1.5222 -0.8708
 6345SOL     OW19933   6.573   2.764   5.599  0.1519  0.2437  0.3104
 6345SOL    HW119934   6.636   2.798   5.669  0.0068  0.0549  0.5357
 6345SOL    HW219935   6.600   2.798   5.510  0.7380 -0.0674  0.3691
 6346SOL     OW19936   1.171   3.411   5.930 -0.1005  0.2447 -0.0176
 6346SOL    HW119937   1.154   3.412   5.831 -2.0757 -0.5113  0.2656
 6346SOL    HW219938   1.222   3.328   5.954  1.3121  0.9357 -0.4865
 6347SOL     OW19939   4.562   1.905   1.910  0.1374  0.2402 -0.0312
 6347SOL    HW119940   4.480   1.957   1.884 -0.1599  0.2774  0.9299
 6347SOL    HW219941   4.616   1.885   1.828 -0.8118  0.2458 -0.6792
 6348SOL     OW19942   4.752   4.418   6.824 -0.2149  0.5483 -0.0827
 6348SOL    HW119943   4.664   4.377   6.847  0.1323  0.5580  1.3648
 6348SOL    HW219944   4.740   4.516   6.807 -0.3109  0.8147  1.4088
 6349SOL     OW19945   5.225   6.223   2.972 -0.1436 -0.0907  0.0596
 6349SOL    HW119946   5.293   6.277   2.923  0.3999 -0.6225  0.2192
 6349SOL    HW219947   5.135   6.238   2.931 -0.3706  2.4217  1.2719
 6350SOL     OW19948   5.852   6.995   1.493 -0.3584 -0.1961  0.2001
 6350SOL    HW119949   5.786   6.969   1.563 -0.3471 -0.5201  0.0964
 6350SOL    HW219950   5.892   7.083   1.515 -1.1841  0.2372  0.0117
 6351SOL     OW19951   6.839   0.683   4.092  0.0757  0.1326 -0.2020
 6351SOL    HW119952   6.864   0.779   4.105  0.1039  0.0122  0.7643
 6351SOL    HW219953   6.772   0.675   4.018 -1.0551  1.0852  0.6646
 6352SOL     OW19954   1.585   1.576   5.952  0.5439  0.2558  0.0650
 6352SOL    HW119955   1.535   1.492   5.929 -1.1319  1.1561  0.2993
 6352SOL    HW219956   1.558   1.608   6.043  0.8346  1.2961 -0.2001
 6353SOL     OW19957   3.717   5.708   6.330 -0.2326 -0.7860 -0.4753
 6353SOL    HW119958   3.691   5.733   6.237 -0.5522  1.3202  0.1249
 6353SOL    HW219959   3.654   5.638   6.364 -2.0943  0.6221 -0.8142
 6354SOL     OW19960   5.649   6.392   4.456  0.3339 -0.2590  0.5231
 6354SOL    HW119961   5.740   6.374   4.417  0.8985 -0.0865  1.7087
 6354SOL    HW219962   5.657   6.403   4.555 -0.8143  0.9245  0.5179
 6355SOL     OW19963   3.504   0.337   0.243 -0.1523 -0.6050  0.1933
 6355SOL    HW119964   3.440   0.321   0.168  1.3854 -0.0870 -1.2840
 6355SOL    HW219965   3.455   0.329   0.330 -1.4042 -4.1037 -0.6732
 6356SOL     OW19966   0.213   6.719   5.304 -0.0037  0.2890 -0.4110
 6356SOL    HW119967   0.245   6.772   5.225  3.0964 -1.1090 -0.2332
 6356SOL    HW219968   0.249   6.626   5.298 -2.3667 -0.8158  1.0968
 6357SOL     OW19969   6.401   2.387   3.182 -0.6801  0.1992 -0.3981
 6357SOL    HW119970   6.359   2.374   3.093  1.6745  0.2098 -1.5762
 6357SOL    HW219971   6.425   2.298   3.221  0.8925  0.2842 -1.1211
 6358SOL     OW19972   2.240   0.256   4.709 -0.2205 -0.4185  0.1302
 6358SOL    HW119973   2.246   0.356   4.698 -0.2962 -0.3355  0.8257
 6358SOL    HW219974   2.155   0.224   4.667 -1.2227  0.0856  1.6898
 6359SOL     OW19975   6.925   6.069   3.237  0.1878 -0.0564  0.7380
 6359SOL    HW119976   6.988   6.067   3.159  1.9488  1.1288  2.0460
 6359SOL    HW219977   6.957   6.004   3.306 -1.0680 -0.7305  0.7008
 6360SOL     OW19978   1.842   3.358   0.651 -0.4899  0.5905 -0.1432
 6360SOL    HW119979   1.768   3.397   0.706  0.5149  2.6780 -0.1705
 6360SOL    HW219980   1.915   3.326   0.711 -0.0182  1.5557 -0.1779
 6361SOL     OW19981   0.182   1.706   3.386 -0.3230 -0.4342 -1.1496
 6361SOL    HW119982   0.256   1.653   3.427 -1.1361  0.6284  1.9307
 6361SOL    HW219983   0.211   1.739   3.296  2.6677 -0.6068 -0.3567
 6362SOL     OW19984   1.596   4.149   6.470  0.4526 -0.6951 -0.1542
 6362SOL    HW119985   1.622   4.228   6.415 -0.4764 -0.1536  0.1647
 6362SOL    HW219986   1.550   4.180   6.553  1.1827 -1.5248  0.5930
 6363SOL     OW19987   0.990   1.318   0.467  0.2933  0.6266  0.4036
 6363SOL    HW119988   0.933   1.344   0.545 -2.5651 -1.6452 -0.7317
 6363SOL    HW219989   1.032   1.229   0.483  2.3480  1.5670  0.5612
 6364SOL     OW19990   1.315   1.459   5.006  0.1526  0.0321 -0.2806
 6364SOL    HW119991   1.306   1.536   4.942  0.9887  0.8975  0.5922
 6364SOL    HW219992   1.400   1.470   5.057 -0.5840 -0.5421  1.0974
 6365SOL     OW19993   4.734   6.589   1.470 -0.0759 -0.2282 -0.2988
 6365SOL    HW119994   4.688   6.503   1.492 -0.6374 -0.1335 -1.0930
 6365SOL    HW219995   4.718   6.613   1.375 -0.8881  1.3419  0.1923
 6366SOL     OW19996   0.066   2.229   0.638 -0.3338 -0.3820 -0.1948
 6366SOL    HW119997   0.078   2.317   0.683  0.9016 -0.2101 -0.8242
 6366SOL    HW219998   0.028   2.163   0.703 -0.8317  0.4874  0.4041
 6367SOL     OW19999   2.103   3.464   5.925  0.2302 -0.0849 -0.4581
 6367SOL    HW120000   2.058   3.549   5.899 -1.3315 -0.6291  0.3652
 6367SOL    HW220001   2.063   3.429   6.010 -0.0792 -2.3224 -1.4635
 6368SOL     OW20002   5.419   3.367   5.280 -0.0127  0.5714  0.6172
 6368SOL    HW120003   5.399   3.388   5.375  1.4134 -0.5222  1.2006
 6368SOL    HW220004   5.461   3.447   5.237  0.4927  0.6768  1.2829
 6369SOL     OW20005   2.384   6.465   0.630 -0.3618  0.1042  0.2184
 6369SOL    HW120006   2.346   6.504   0.547 -0.3697 -0.7369 -0.1800
 6369SOL    HW220007   2.438   6.384   0.608 -2.3728 -1.5963  1.2405
 6370SOL     OW20008   6.315   3.565   3.227  0.0202  0.1087  0.3385
 6370SOL    HW120009   6.402   3.601   3.193 -0.0192  2.2810  2.3191
 6370SOL    HW220010   6.272   3.510   3.155  2.4615 -0.0833 -1.0898
 6371SOL     OW20011   6.280   4.243   1.010  0.2487 -0.3817 -0.8584
 6371SOL    HW120012   6.378   4.249   1.029 -0.1005 -1.3338  1.5039
 6371SOL    HW220013   6.233   4.323   1.047 -0.1699 -1.2133  0.4817
 6372SOL     OW20014   5.924   0.710   2.262 -0.0680 -0.2096  0.7697
 6372SOL    HW120015   5.859   0.771   2.308  1.4335  1.0468  1.2979
 6372SOL    HW220016   5.912   0.717   2.163 -0.2655  0.5323  0.8452
 6373SOL     OW20017   6.627   2.017   1.166  0.3166  0.4846 -0.1311
 6373SOL    HW120018   6.596   1.979   1.078 -1.6122 -0.4014  0.8530
 6373SOL    HW220019   6.565   2.091   1.194 -0.4630 -0.7113  1.4766
 6374SOL     OW20020   4.440   4.480   5.472 -0.3090  0.1881  0.5125
 6374SOL    HW120021   4.454   4.382   5.487 -1.2139  0.1019  0.8670
 6374SOL    HW220022   4.342   4.500   5.474 -0.1984  0.9193 -0.7189
 6375SOL     OW20023   5.067   1.099   1.909  0.2255 -0.2532 -0.1656
 6375SOL    HW120024   5.056   1.161   1.986  0.7036  0.5878 -0.7582
 6375SOL    HW220025   5.115   1.146   1.835  1.4313 -1.6148 -0.2882
 6376SOL     OW20026   4.040   1.038   6.630 -0.2186 -0.4801  0.2210
 6376SOL    HW120027   4.114   0.996   6.578 -0.8203 -0.4125 -0.7066
 6376SOL    HW220028   3.985   1.097   6.570 -0.5483  0.1076  1.0707
 6377SOL     OW20029   5.253   0.058   0.296 -0.3895 -0.0551 -0.3065
 6377SOL    HW120030   5.340   0.031   0.336 -0.4957 -1.5520 -1.0339
 6377SOL    HW220031   5.197   0.104   0.365  0.3583 -0.4629  0.5866
 6378SOL     OW20032   0.962   3.357   2.011  0.9529  0.2233  0.7039
 6378SOL    HW120033   1.057   3.386   1.999  0.5435  1.3747  0.1451
 6378SOL    HW220034   0.949   3.324   2.105  1.1258  3.2793  1.9056
 6379SOL     OW20035   0.316   4.906   6.848  0.1762  0.3991  0.4096
 6379SOL    HW120036   0.405   4.859   6.850  0.6401  1.2863  1.3190
 6379SOL    HW220037   0.246   4.843   6.813  0.9508 -0.6696  0.7383
 6380SOL     OW20038   1.664   1.767   5.347  0.4995  0.2347 -0.3938
 6380SOL    HW120039   1.653   1.866   5.338 -2.7498 -0.1476 -1.9821
 6380SOL    HW220040   1.677   1.727   5.256 -1.0943 -1.0092 -0.1253
 6381SOL     OW20041   4.755   3.647   5.907 -0.0146  0.1749  0.1793
 6381SOL    HW120042   4.787   3.557   5.876  0.9935  0.2081  1.0928
 6381SOL    HW220043   4.655   3.645   5.916  0.0727 -1.1725  1.1288
 6382SOL     OW20044   1.783   1.459   0.248  0.0381  0.0315 -0.3219
 6382SOL    HW120045   1.743   1.447   0.157  0.7356 -1.6056 -0.4453
 6382SOL    HW220046   1.710   1.460   0.316 -0.5665  2.0891 -0.9158
 6383SOL     OW20047   4.751   1.845   1.692  0.2442 -0.2801 -0.0044
 6383SOL    HW120048   4.810   1.925   1.681  1.4608 -0.7848  2.3377
 6383SOL    HW220049   4.791   1.768   1.641  0.4012 -0.0475 -0.2389
 6384SOL     OW20050   6.026   1.300   1.967 -0.2525 -0.5350  0.2569
 6384SOL    HW120051   5.976   1.223   1.926 -1.3157 -1.1217  2.4936
 6384SOL    HW220052   6.100   1.264   2.023 -0.4121  0.1005  0.8807
 6385SOL     OW20053   2.448   4.994   1.834 -0.0157 -0.4757  1.0854
 6385SOL    HW120054   2.443   4.911   1.778  2.4221 -0.0451  0.0973
 6385SOL    HW220055   2.513   4.979   1.908  1.4169  0.9167  0.1532
 6386SOL     OW20056   1.638   5.864   0.749 -0.2066  0.2803  0.2046
 6386SOL    HW120057   1.698   5.903   0.819 -1.4144  2.1480  0.2559
 6386SOL    HW220058   1.693   5.808   0.686  1.5652  1.7717  0.3284
 6387SOL     OW20059   6.352   2.425   6.468 -0.1936 -0.3820 -0.2652
 6387SOL    HW120060   6.337   2.519   6.500  1.5106 -0.5869  1.3459
 6387SOL    HW220061   6.271   2.369   6.489 -0.1566  0.1206  1.4056
 6388SOL     OW20062   6.829   4.860   3.174 -0.0562  0.1257 -0.0011
 6388SOL    HW120063   6.882   4.896   3.251 -1.1245  2.2046 -0.1587
 6388SOL    HW220064   6.743   4.822   3.208 -0.1009  0.1713 -0.0618
 6389SOL     OW20065   1.148   1.049   0.497 -0.2950 -0.3199 -0.0753
 6389SOL    HW120066   1.123   0.977   0.431 -0.2349 -0.4290  0.0200
 6389SOL    HW220067   1.240   1.031   0.532  0.5184  0.8710 -1.4984
 6390SOL     OW20068   4.267   6.718   6.749 -0.0620  0.0713  0.4760
 6390SOL    HW120069   4.238   6.808   6.778  1.7509  1.6060 -2.0260
 6390SOL    HW220070   4.188   6.667   6.714 -1.2029  0.3712  2.4561
 6391SOL     OW20071   1.144   2.336   4.906  0.1833 -0.0186 -0.2291
 6391SOL    HW120072   1.160   2.400   4.831 -2.0828  1.7118  0.6249
 6391SOL    HW220073   1.048   2.306   4.905  0.3169 -0.6384  1.4263
 6392SOL     OW20074   6.012   6.377   2.789  0.0220  0.2068  0.1390
 6392SOL    HW120075   5.933   6.364   2.848 -0.5779  0.9871 -0.4731
 6392SOL    HW220076   6.077   6.439   2.834 -0.0518  0.1519  0.3226
 6393SOL     OW20077   1.554   5.918   1.122  0.8345 -0.4769 -0.0254
 6393SOL    HW120078   1.638   5.865   1.140  1.1882 -0.0505 -0.3988
 6393SOL    HW220079   1.565   6.011   1.158 -0.3727 -1.0615  2.0324
 6394SOL     OW20080   1.581   0.483   5.841 -0.4299 -1.0175  0.2203
 6394SOL    HW120081   1.669   0.523   5.864 -0.3980 -0.8787 -0.1337
 6394SOL    HW220082   1.568   0.398   5.893 -0.3440 -0.7352  0.7018
 6395SOL     OW20083   0.133   4.169   5.163  0.3211  0.0298 -0.0058
 6395SOL    HW120084   0.102   4.149   5.070  2.3759 -1.3584 -0.4544
 6395SOL    HW220085   0.087   4.109   5.228 -1.6417  1.4679  0.0360
 6396SOL     OW20086   0.189   3.156   2.569 -0.1777 -0.0621 -0.0988
 6396SOL    HW120087   0.240   3.183   2.487  0.3838  0.1583  0.3133
 6396SOL    HW220088   0.254   3.124   2.638 -0.4720  1.3589  0.8828
 6397SOL     OW20089   6.652   4.147   3.815  0.2229 -0.2692 -0.1148
 6397SOL    HW120090   6.664   4.056   3.775  0.3444 -0.5378  0.5268
 6397SOL    HW220091   6.724   4.207   3.783 -0.7270  0.0449 -1.7836
 6398SOL     OW20092   0.680   5.175   1.842  0.3164 -0.0090  0.1197
 6398SOL    HW120093   0.756   5.112   1.858 -0.6359 -1.0582  0.6793
 6398SOL    HW220094   0.712   5.269   1.855  1.0179 -0.5068  2.7281
 6399SOL     OW20095   2.769   1.553   1.355  0.7158 -0.0350 -0.0322
 6399SOL    HW120096   2.726   1.463   1.350 -1.8094  1.0884 -0.1727
 6399SOL    HW220097   2.848   1.556   1.293  0.3167 -1.8637 -0.6775
 6400SOL     OW20098   0.673   6.765   2.593  0.3061 -0.3486 -0.5436
 6400SOL    HW120099   0.691   6.754   2.691  1.4584  3.1146 -0.2543
 6400SOL    HW220100   0.574   6.757   2.577  0.1702 -1.8426  0.6877
 6401SOL     OW20101   4.279   5.348   0.172  0.4959 -0.0163 -0.1478
 6401SOL    HW120102   4.330   5.421   0.127 -1.1511  0.8732 -0.6653
 6401SOL    HW220103   4.291   5.355   0.271  0.6384  0.7447 -0.2126
 6402SOL     OW20104   4.799   1.936   0.414  0.0413  0.3028 -0.2348
 6402SOL    HW120105   4.848   1.935   0.327  0.4535  2.5716 -0.0889
 6402SOL    HW220106   4.861   1.964   0.487 -1.1988  2.4623  0.0727
 6403SOL     OW20107   2.388   5.062   6.371 -0.2601  0.9062  0.3852
 6403SOL    HW120108   2.394   5.148   6.321  0.0087  1.3278  1.1442
 6403SOL    HW220109   2.344   4.993   6.312 -0.4654  1.5455 -0.2252
 6404SOL     OW20110   3.873   5.113   6.227 -0.3353 -0.3494 -0.7754
 6404SOL    HW120111   3.776   5.087   6.228 -0.6666  0.7689  1.0298
 6404SOL    HW220112   3.890   5.175   6.151 -1.1378 -0.2187 -0.8633
 6405SOL     OW20113   2.701   2.087   5.193  0.2898  0.1266 -0.8577
 6405SOL    HW120114   2.614   2.043   5.218  0.5345  0.4949  0.8173
 6405SOL    HW220115   2.776   2.024   5.212  0.6199  1.0533  1.2511
 6406SOL     OW20116   2.409   2.657   1.856 -0.4763  0.3076  0.3887
 6406SOL    HW120117   2.440   2.740   1.811 -0.7231  0.1686 -0.0438
 6406SOL    HW220118   2.402   2.673   1.954 -1.9361  1.2493  0.1628
 6407SOL     OW20119   0.849   1.399   2.775  0.3432  0.0887 -0.1824
 6407SOL    HW120120   0.946   1.423   2.763  0.5841 -0.5030  0.5372
 6407SOL    HW220121   0.795   1.446   2.705  1.1326  0.5234 -0.5193
 6408SOL     OW20122   0.313   1.689   2.487  0.0160 -0.0741 -0.0876
 6408SOL    HW120123   0.296   1.779   2.526  2.9499  1.8576 -2.6973
 6408SOL    HW220124   0.236   1.662   2.429 -1.5663 -0.0526  1.9326
 6409SOL     OW20125   6.912   3.522   2.957 -0.1556  0.0530 -0.3887
 6409SOL    HW120126   6.932   3.424   2.958 -3.1288 -0.6579 -1.4518
 6409SOL    HW220127   6.876   3.550   3.046  0.3503  0.1047 -0.1989
 6410SOL     OW20128   2.581   1.446   5.141  0.9570  0.2015 -0.1804
 6410SOL    HW120129   2.499   1.483   5.099  1.2355  0.9888 -0.0501
 6410SOL    HW220130   2.585   1.473   5.237 -0.5517 -2.9951  0.9386
 6411SOL     OW20131   6.924   2.914   5.072  0.2438 -0.1958 -0.0029
 6411SOL    HW120132   6.990   2.867   5.129 -2.0057 -2.3108  1.0390
 6411SOL    HW220133   6.883   2.990   5.124  0.4111 -0.1598  0.0759
 6412SOL     OW20134   6.014   2.548   1.028 -0.1881  0.2382 -0.2041
 6412SOL    HW120135   6.044   2.495   1.107  3.5710 -1.0926 -2.2535
 6412SOL    HW220136   5.965   2.489   0.964  0.5785  0.1813 -0.7524
 6413SOL     OW20137   4.731   4.995   3.971  0.2899 -0.0066  0.0220
 6413SOL    HW120138   4.785   5.031   4.047  2.0995 -0.2577 -1.1012
 6413SOL    HW220139   4.633   5.006   3.992  0.7188 -0.2263  2.4366
 6414SOL     OW20140   1.569   0.002   6.007 -0.8062 -0.2096 -0.0804
 6414SOL    HW120141   1.601  -0.066   6.073 -0.6319 -1.3344 -1.3027
 6414SOL    HW220142   1.558   0.090   6.054  3.6051  0.2195  0.5941
 6415SOL     OW20143   6.468   0.819   3.496  0.2822  0.6257  0.4002
 6415SOL    HW120144   6.531   0.894   3.476 -0.0520  0.4729 -1.4546
 6415SOL    HW220145   6.506   0.761   3.568  1.9344  0.9326 -0.1858
 6416SOL     OW20146   1.822   6.080   1.226  0.1605 -0.1198  0.0239
 6416SOL    HW120147   1.915   6.061   1.255  0.5182  0.6604 -0.5746
 6416SOL    HW220148   1.765   6.098   1.307  1.0314  1.5199  0.3263
 6417SOL     OW20149   6.126   3.751   4.135 -0.4882  0.1397  0.0821
 6417SOL    HW120150   6.140   3.713   4.226 -1.0477  0.8361  0.4636
 6417SOL    HW220151   6.175   3.695   4.068  0.5009  0.0195  0.8764
 6418SOL     OW20152   4.169   4.861   0.738  0.3617  0.0414  0.1147
 6418SOL    HW120153   4.082   4.904   0.762  1.0450  0.1504  2.6853
 6418SOL    HW220154   4.161   4.817   0.648 -1.7535  1.5875 -0.5314
 6419SOL     OW20155   0.572   0.405   6.051  0.1351  0.5577  0.1282
 6419SOL    HW120156   0.582   0.500   6.080 -0.2395  1.1104 -1.4222
 6419SOL    HW220157   0.481   0.393   6.009 -0.2342 -0.7593  1.2581
 6420SOL     OW20158   3.043   5.728   4.039 -0.1909  0.6747 -0.3262
 6420SOL    HW120159   3.084   5.771   3.958 -0.2836 -1.1647 -1.4126
 6420SOL    HW220160   2.968   5.784   4.072  0.2737  1.8017 -1.1118
 6421SOL     OW20161   3.527   0.310   1.982 -0.2970  0.3314 -0.3068
 6421SOL    HW120162   3.510   0.215   1.954 -0.4648  0.5493 -0.9430
 6421SOL    HW220163   3.449   0.367   1.957 -0.6887  0.4453  1.0656
 6422SOL     OW20164   2.596   6.686   5.410 -0.4771  0.5191 -0.6576
 6422SOL    HW120165   2.506   6.676   5.369 -1.1224  0.2322  0.7870
 6422SOL    HW220166   2.665   6.646   5.349 -1.6207 -1.7784 -0.5453
 6423SOL     OW20167   1.992   3.259   2.399 -0.3958 -0.1304 -0.0226
 6423SOL    HW120168   2.029   3.167   2.417  1.2263  0.0531 -2.0556
 6423SOL    HW220169   2.027   3.292   2.312 -0.3754  2.7482  0.9792
 6424SOL     OW20170   6.097   4.787   5.278 -0.4229  0.0311 -0.1303
 6424SOL    HW120171   6.077   4.853   5.206 -4.5996  0.1256  0.8511
 6424SOL    HW220172   6.178   4.816   5.329  0.0355  2.3065 -1.9775
 6425SOL     OW20173   0.637   1.693   4.637  0.8628  0.7455  0.0772
 6425SOL    HW120174   0.631   1.605   4.589  1.1990  0.8014 -0.0720
 6425SOL    HW220175   0.616   1.767   4.573  1.5148  0.8337 -0.0408
 6426SOL     OW20176   3.215   5.038   2.952  0.4571  0.5541 -0.2231
 6426SOL    HW120177   3.237   5.082   2.865  2.1951 -0.0226 -0.1248
 6426SOL    HW220178   3.148   4.965   2.938  2.5025 -1.1943 -1.5676
 6427SOL     OW20179   3.435   2.861   3.544 -0.0807 -0.2778  0.2386
 6427SOL    HW120180   3.498   2.785   3.531 -0.8640 -0.7632 -0.9173
 6427SOL    HW220181   3.352   2.844   3.491 -0.4956  1.1343  0.4105
 6428SOL     OW20182   6.961   2.564   1.283 -0.2999  0.3556  0.3442
 6428SOL    HW120183   6.905   2.641   1.254  0.2399  0.6144 -0.0290
 6428SOL    HW220184   7.056   2.593   1.292 -0.1794 -0.1378  0.7278
 6429SOL     OW20185   4.750   0.325   4.676 -0.4458 -0.2633 -0.1728
 6429SOL    HW120186   4.692   0.327   4.757 -0.3919  0.1796 -0.1411
 6429SOL    HW220187   4.705   0.374   4.601 -0.0353  0.2472 -0.0916
 6430SOL     OW20188   6.683   6.775   3.909 -1.1364 -0.5038 -0.1291
 6430SOL    HW120189   6.679   6.874   3.918 -0.5772 -0.4205 -0.7036
 6430SOL    HW220190   6.678   6.750   3.812  1.2191 -0.8778 -0.2102
 6431SOL     OW20191   4.121   3.595   2.323 -0.5965 -0.2871  0.3073
 6431SOL    HW120192   4.106   3.608   2.421 -2.6352  0.5761 -0.0630
 6431SOL    HW220193   4.203   3.645   2.295  0.8331 -1.6965  1.7684
 6432SOL     OW20194   5.122   4.836   0.553 -0.2764 -0.8880 -0.1722
 6432SOL    HW120195   5.191   4.794   0.611 -0.3077 -0.3895  0.2289
 6432SOL    HW220196   5.167   4.891   0.483 -0.2685  1.0476  1.2874
 6433SOL     OW20197   3.693   5.713   6.068  0.4765 -0.4497  0.4473
 6433SOL    HW120198   3.639   5.742   5.989  1.3636 -0.4711 -0.1770
 6433SOL    HW220199   3.730   5.621   6.052  1.1880 -0.1997  0.6051
 6434SOL     OW20200   6.364   5.481   6.784 -0.0199 -0.1035  0.5245
 6434SOL    HW120201   6.346   5.517   6.876  1.3366 -0.9011  1.1381
 6434SOL    HW220202   6.348   5.553   6.717 -0.4510  0.6837  1.4365
 6435SOL     OW20203   4.873   2.050   1.975 -0.4615 -0.2128  0.0472
 6435SOL    HW120204   4.932   1.978   1.937  0.9136 -1.3229  3.8822
 6435SOL    HW220205   4.783   2.012   1.996  0.0303 -0.6519  1.4037
 6436SOL     OW20206   0.167   1.122   1.734  0.7126  0.1111  0.4545
 6436SOL    HW120207   0.166   1.034   1.687 -1.6789  1.3653 -2.1813
 6436SOL    HW220208   0.096   1.124   1.804  1.0657 -0.1969  0.8213
 6437SOL     OW20209   1.877   3.324   0.119  0.4075 -0.1119  0.0759
 6437SOL    HW120210   1.851   3.416   0.089 -0.8107 -0.9127 -1.5543
 6437SOL    HW220211   1.829   3.301   0.204 -1.0870 -0.0196 -0.7000
 6438SOL     OW20212   1.114   0.660   3.567 -0.5448 -0.4723 -0.1857
 6438SOL    HW120213   1.117   0.607   3.652  0.0120 -0.0008  0.1018
 6438SOL    HW220214   1.030   0.715   3.565 -1.1403 -1.3781 -0.5034
 6439SOL     OW20215   4.664   5.582   2.366 -1.0629  1.1805  0.4096
 6439SOL    HW120216   4.643   5.601   2.270 -0.5802 -0.5703 -0.0720
 6439SOL    HW220217   4.763   5.571   2.376 -1.2813 -1.0408  0.5962
 6440SOL     OW20218   3.061   3.343   5.889  0.1311 -0.7936  0.5172
 6440SOL    HW120219   3.158   3.327   5.904  0.3521 -0.6346 -0.6459
 6440SOL    HW220220   3.046   3.375   5.795 -1.0382 -0.7784  0.6884
 6441SOL     OW20221   1.187   6.392   1.848 -0.0918 -0.4690  0.3982
 6441SOL    HW120222   1.235   6.410   1.762 -0.2548  0.2202  0.4417
 6441SOL    HW220223   1.148   6.301   1.846 -0.2802 -0.3772 -0.3514
 6442SOL     OW20224   3.968   2.179   3.229 -0.2631  0.3675  0.4132
 6442SOL    HW120225   3.960   2.196   3.327 -0.5994 -0.1910  0.4865
 6442SOL    HW220226   3.877   2.162   3.190 -0.2593  1.5866 -0.1920
 6443SOL     OW20227   0.392   2.741   6.181 -0.6027  0.1019  0.3253
 6443SOL    HW120228   0.428   2.831   6.207 -0.1696 -0.4517  1.7890
 6443SOL    HW220229   0.414   2.722   6.086 -0.2631  1.3276  0.1399
 6444SOL     OW20230   6.915   4.481   6.145  0.4093 -0.1891 -0.6656
 6444SOL    HW120231   7.013   4.496   6.150  0.4037 -0.3835  0.5423
 6444SOL    HW220232   6.897   4.383   6.129  0.4113 -0.0564 -1.5001
 6445SOL     OW20233   3.561   3.056   2.229 -0.0917 -0.3706  0.0926
 6445SOL    HW120234   3.540   2.985   2.296 -0.6100 -1.4642 -1.1692
 6445SOL    HW220235   3.570   3.014   2.139  0.1508  1.1153 -0.6029
 6446SOL     OW20236   6.450   6.840   2.218  0.4136 -0.1297  0.2601
 6446SOL    HW120237   6.371   6.870   2.163  1.6916  0.1021 -1.5403
 6446SOL    HW220238   6.444   6.741   2.231 -0.4823 -0.0333  0.6711
 6447SOL     OW20239   0.692   3.156   2.265  0.7312  0.4936 -0.2715
 6447SOL    HW120240   0.691   3.117   2.357 -0.0595  0.6899 -0.1863
 6447SOL    HW220241   0.773   3.214   2.254  0.8847  0.3857  0.2674
 6448SOL     OW20242   3.784   4.537   1.653 -0.9287 -0.3587 -0.1984
 6448SOL    HW120243   3.738   4.582   1.730 -3.5639 -1.5819 -0.9272
 6448SOL    HW220244   3.738   4.561   1.568 -0.5886 -2.0968 -0.9134
 6449SOL     OW20245   3.070   1.215   0.273  0.4518 -0.0162 -0.3100
 6449SOL    HW120246   3.129   1.135   0.285  0.4772  0.1753  0.9350
 6449SOL    HW220247   3.057   1.261   0.361  0.1441  1.1514 -0.9427
 6450SOL     OW20248   5.721   4.668   0.248  0.2747 -0.1781 -0.8209
 6450SOL    HW120249   5.819   4.648   0.240  0.1822 -0.8005 -0.4700
 6450SOL    HW220250   5.685   4.625   0.331  0.0521  1.4259 -0.0556
 6451SOL     OW20251   4.504   4.209   1.317 -0.2084 -0.2904  0.3997
 6451SOL    HW120252   4.432   4.190   1.250  0.3625 -0.8015 -0.0848
 6451SOL    HW220253   4.582   4.251   1.270  0.3341 -0.9744  0.6732
 6452SOL     OW20254   6.340   6.479   5.808 -0.0708  0.0841 -0.1544
 6452SOL    HW120255   6.334   6.379   5.803 -2.3873  0.2067 -0.7762
 6452SOL    HW220256   6.337   6.508   5.904  1.6131 -0.4322  0.0969
 6453SOL     OW20257   3.206   1.696   4.552  0.1507 -0.4110  0.4193
 6453SOL    HW120258   3.260   1.740   4.480  0.5612  0.9267  1.5007
 6453SOL    HW220259   3.227   1.737   4.640 -2.3044 -0.1060  0.9570
 6454SOL     OW20260   4.632   5.336   6.044  0.8109  0.1503 -0.0412
 6454SOL    HW120261   4.587   5.248   6.060  1.5463 -0.3362 -0.5983
 6454SOL    HW220262   4.582   5.386   5.974  1.3402 -0.5674 -0.9584
 6455SOL     OW20263   6.435   4.314   4.444 -0.1761 -0.2680  0.7005
 6455SOL    HW120264   6.441   4.214   4.452  1.2050 -0.1675  1.2323
 6455SOL    HW220265   6.384   4.351   4.522 -2.4147 -0.6792 -0.5018
 6456SOL     OW20266   6.329   3.347   4.162 -0.0151  0.5125  0.5674
 6456SOL    HW120267   6.277   3.332   4.246  1.0251  0.9701  1.3166
 6456SOL    HW220268   6.394   3.272   4.148 -0.2991  0.3509  0.0682
 6457SOL     OW20269   1.464   6.891   2.503  0.6044  0.3383  0.6455
 6457SOL    HW120270   1.519   6.831   2.561  0.0533 -1.7958 -0.9193
 6457SOL    HW220271   1.461   6.854   2.410 -1.3139  1.8076  0.0546
 6458SOL     OW20272   0.836   0.195   5.170  0.1697  0.1849  0.4978
 6458SOL    HW120273   0.783   0.262   5.118 -0.9496  0.3846  1.8514
 6458SOL    HW220274   0.927   0.186   5.130  0.0602  1.8977 -0.1958
 6459SOL     OW20275   0.383   3.704   1.829  0.3467 -0.6009 -0.3413
 6459SOL    HW120276   0.398   3.705   1.731 -0.0815  1.1097 -0.4191
 6459SOL    HW220277   0.293   3.664   1.849 -0.0480  0.0562 -0.7474
 6460SOL     OW20278   1.288   6.425   4.444 -0.4303 -0.5239  0.1384
 6460SOL    HW120279   1.323   6.517   4.459 -0.6171 -0.5324  0.6542
 6460SOL    HW220280   1.204   6.430   4.389 -1.9598 -0.1193  2.3396
 6461SOL     OW20281   5.811   1.523   1.576  0.1998 -0.3354 -0.1811
 6461SOL    HW120282   5.810   1.439   1.630 -3.0122 -0.7317 -0.6729
 6461SOL    HW220283   5.820   1.602   1.636 -1.3624 -0.8652  0.7916
 6462SOL     OW20284   2.197   6.236   5.761  0.0218  0.2141  0.2086
 6462SOL    HW120285   2.133   6.189   5.821  0.1795  1.6535  1.5793
 6462SOL    HW220286   2.289   6.232   5.799  0.8837 -2.0675 -1.8820
 6463SOL     OW20287   5.536   3.734   1.273  0.2070 -0.1322  0.2652
 6463SOL    HW120288   5.629   3.712   1.302 -0.0154 -1.1325  0.2457
 6463SOL    HW220289   5.471   3.696   1.339 -0.2116 -0.1483 -0.1501
 6464SOL     OW20290   6.303   3.693   5.507 -0.1612  0.0624  0.3112
 6464SOL    HW120291   6.253   3.706   5.593 -0.1749 -0.5419  0.4026
 6464SOL    HW220292   6.365   3.615   5.516 -0.2893 -0.1179 -0.2791
 6465SOL     OW20293   3.088   5.709   3.565 -0.3381  0.1726  0.0401
 6465SOL    HW120294   3.038   5.627   3.592  0.3064  0.1345  1.1575
 6465SOL    HW220295   3.153   5.686   3.492  1.9058 -1.0007  2.2760
 6466SOL     OW20296   6.697   5.437   0.504  0.3469 -0.0702  0.6465
 6466SOL    HW120297   6.600   5.461   0.508  0.4941  0.8852 -0.7397
 6466SOL    HW220298   6.752   5.517   0.526  0.8313 -0.6741  1.6752
 6467SOL     OW20299   5.394   1.788   5.589 -0.1400 -0.3194  0.4177
 6467SOL    HW120300   5.377   1.865   5.651  1.0399  0.5165 -0.2461
 6467SOL    HW220301   5.346   1.803   5.503 -2.0426 -1.6386  1.1899
 6468SOL     OW20302   4.692   1.926   0.020 -0.0158 -0.0523  0.1792
 6468SOL    HW120303   4.640   1.856  -0.028 -0.0054 -0.8328  1.2658
 6468SOL    HW220304   4.639   1.958   0.099 -0.4381  1.8756 -0.8333
 6469SOL     OW20305   2.746   0.582   2.677 -0.1904  1.1025  0.0934
 6469SOL    HW120306   2.808   0.521   2.627 -2.2952 -0.8201 -0.3289
 6469SOL    HW220307   2.776   0.590   2.772  1.1794  0.9680 -0.3081
 6470SOL     OW20308   4.575   1.335   7.016 -0.1898 -0.3539  0.0962
 6470SOL    HW120309   4.575   1.425   7.061  0.3576  0.2367 -1.0508
 6470SOL    HW220310   4.523   1.341   6.931  0.5534 -0.9100 -0.4012
 6471SOL     OW20311   0.646   0.136   4.953 -0.3022 -0.1127 -0.3684
 6471SOL    HW120312   0.740   0.107   4.973  0.3812  2.9815  1.6079
 6471SOL    HW220313   0.638   0.235   4.967 -3.5675 -0.0341 -1.8780
 6472SOL     OW20314   1.219   0.389   0.184 -0.0216 -0.7493 -0.4332
 6472SOL    HW120315   1.210   0.482   0.148  0.3357 -1.2553 -1.9071
 6472SOL    HW220316   1.157   0.377   0.261  1.6507  1.4502  1.3878
 6473SOL     OW20317   3.727   1.838   2.527  0.0927 -0.2077 -0.3856
 6473SOL    HW120318   3.767   1.929   2.531  0.1960 -0.2017 -1.3631
 6473SOL    HW220319   3.629   1.846   2.509  0.2285 -0.3036 -1.1832
 6474SOL     OW20320   3.673   6.667   4.321  0.4444  0.0369 -0.6874
 6474SOL    HW120321   3.575   6.654   4.307  0.1440  0.1066  1.1739
 6474SOL    HW220322   3.711   6.586   4.365  1.1607  0.1718 -1.0456
 6475SOL     OW20323   6.667   5.069   4.013  0.4315  0.4824 -0.3300
 6475SOL    HW120324   6.710   4.990   4.058 -0.7985  0.6790  1.2850
 6475SOL    HW220325   6.715   5.152   4.040  0.7785  0.4481 -0.8181
 6476SOL     OW20326   6.205   6.290   4.506 -0.2884 -0.4773 -0.1595
 6476SOL    HW120327   6.263   6.371   4.515 -0.1414 -0.4076 -1.4468
 6476SOL    HW220328   6.117   6.307   4.550  0.2609 -0.1740  0.8521
 6477SOL     OW20329   0.281   6.157   0.783  1.1484  0.1388 -0.5810
 6477SOL    HW120330   0.361   6.217   0.776  1.5036 -0.4110 -1.3896
 6477SOL    HW220331   0.310   6.062   0.770  0.5681 -0.2150  0.5384
 6478SOL     OW20332   2.351   0.422   0.233 -0.5904 -0.1917 -0.0817
 6478SOL    HW120333   2.271   0.482   0.224 -0.9800 -0.5537  0.8301
 6478SOL    HW220334   2.432   0.469   0.198 -1.5266 -0.6392 -3.1690
 6479SOL     OW20335   5.075   0.202   4.942 -0.4365 -0.4878 -0.0296
 6479SOL    HW120336   4.979   0.229   4.943 -0.0739  0.8941  0.7413
 6479SOL    HW220337   5.129   0.270   4.893  0.1472 -1.3114 -0.5641
 6480SOL     OW20338   2.361   2.399   4.785 -0.2956  0.1094 -0.3799
 6480SOL    HW120339   2.406   2.479   4.745  0.0845  0.2742  0.3552
 6480SOL    HW220340   2.419   2.361   4.857 -0.9880 -0.1454  0.0538
 6481SOL     OW20341   3.671   3.096   1.182 -0.1974 -0.1828  0.0352
 6481SOL    HW120342   3.601   3.146   1.129 -0.6156  1.6945  2.1790
 6481SOL    HW220343   3.749   3.157   1.199  1.4729 -1.8627 -1.2645
 6482SOL     OW20344   5.952   3.251   3.676  0.1003  0.0422 -0.5159
 6482SOL    HW120345   5.998   3.162   3.674  0.9410  0.3060  2.2927
 6482SOL    HW220346   5.860   3.241   3.639  0.5084 -1.7762 -1.1691
 6483SOL     OW20347   1.972   0.126   5.185  0.2514  0.2323 -0.0413
 6483SOL    HW120348   1.889   0.176   5.210 -0.5166 -1.7248  1.6042
 6483SOL    HW220349   1.964   0.095   5.090 -1.2381 -0.4718  0.2702
 6484SOL     OW20350   2.994   1.057   2.331 -0.1975 -0.3319  0.1217
 6484SOL    HW120351   3.016   1.038   2.236 -0.2812  0.5387 -0.0827
 6484SOL    HW220352   3.072   1.034   2.389 -0.6838 -2.3537  0.0479
 6485SOL     OW20353   1.188   5.140   5.985 -0.1032 -0.6308 -0.7151
 6485SOL    HW120354   1.201   5.193   6.069  2.2851 -0.0224 -1.3944
 6485SOL    HW220355   1.100   5.164   5.944 -0.6780  0.1135  0.8608
 6486SOL     OW20356   0.884   3.091   3.054  0.0216  0.0471  0.2773
 6486SOL    HW120357   0.845   3.028   3.122  2.0923 -1.2812  0.3184
 6486SOL    HW220358   0.944   3.157   3.100  0.4113 -0.0336 -0.1062
 6487SOL     OW20359   5.598   5.324   6.060  0.3088 -0.4607 -0.4714
 6487SOL    HW120360   5.574   5.419   6.081  0.2275 -0.1049 -2.0502
 6487SOL    HW220361   5.559   5.299   5.971 -1.3386 -2.6152  0.7609
 6488SOL     OW20362   3.767   6.524   3.098 -0.8279  0.3389 -1.0524
 6488SOL    HW120363   3.742   6.442   3.150  1.3139  0.3151  0.0341
 6488SOL    HW220364   3.716   6.603   3.132 -1.0423 -0.0747 -0.4024
 6489SOL     OW20365   0.571   2.677   4.992 -0.0262  0.5814 -0.3377
 6489SOL    HW120366   0.538   2.770   5.006 -0.8019  0.7746 -2.8888
 6489SOL    HW220367   0.494   2.619   4.965  0.8260 -0.2733 -0.9956
 6490SOL     OW20368   1.372   3.086   6.588 -0.5986  0.0965 -0.1558
 6490SOL    HW120369   1.322   3.001   6.572 -0.6332  0.0233  0.3173
 6490SOL    HW220370   1.326   3.139   6.659  0.8472 -0.7224  1.4643
 6491SOL     OW20371   1.011   6.706   3.894  0.2851  1.0605 -0.2354
 6491SOL    HW120372   1.089   6.760   3.862  1.6224 -0.2504  0.7165
 6491SOL    HW220373   1.020   6.690   3.992  0.6221 -1.9416 -0.6875
 6492SOL     OW20374   3.349   2.947   3.800 -0.2233 -0.1269  0.9568
 6492SOL    HW120375   3.390   2.925   3.712 -0.2172  1.1491  0.6236
 6492SOL    HW220376   3.421   2.960   3.868 -0.2199 -0.9017  1.1109
 6493SOL     OW20377   0.685   5.116   2.306  0.7777  0.0230 -0.1209
 6493SOL    HW120378   0.642   5.193   2.259  0.4928 -0.9759 -1.5909
 6493SOL    HW220379   0.769   5.090   2.257  0.0684 -1.5317 -0.5937
 6494SOL     OW20380   5.795   0.377   1.977  0.3857  0.8322  0.0791
 6494SOL    HW120381   5.710   0.350   1.933  1.2616  1.8258 -2.3846
 6494SOL    HW220382   5.865   0.307   1.962  0.5523  0.9240  0.3969
 6495SOL     OW20383   6.306   4.149   1.567 -0.6916 -0.1524  0.1865
 6495SOL    HW120384   6.329   4.154   1.470  1.4640 -0.3309  0.6443
 6495SOL    HW220385   6.369   4.087   1.614 -1.9515 -0.4078  1.6529
 6496SOL     OW20386   1.856   1.696   2.109 -0.4093 -0.9999  0.2351
 6496SOL    HW120387   1.756   1.699   2.099 -0.4356 -3.0716 -0.5951
 6496SOL    HW220388   1.879   1.664   2.201 -0.6002 -2.8812 -0.3311
 6497SOL     OW20389   6.502   4.461   1.420  0.1253 -0.3320 -0.0145
 6497SOL    HW120390   6.533   4.373   1.456 -0.0792 -0.5459 -0.3466
 6497SOL    HW220391   6.426   4.495   1.474  0.1964 -0.3684  0.1073
 6498SOL     OW20392   2.897   6.404   2.815 -0.6677  0.7353  0.2551
 6498SOL    HW120393   2.864   6.394   2.721  0.4690  0.3023 -0.1102
 6498SOL    HW220394   2.922   6.500   2.831 -0.5157  0.7397 -0.0041
 6499SOL     OW20395   4.882   0.543   1.825  0.7400 -0.0776  0.8935
 6499SOL    HW120396   4.811   0.565   1.758 -0.4936 -1.2780  1.7418
 6499SOL    HW220397   4.860   0.586   1.912  1.3127 -0.0962  1.0516
 6500SOL     OW20398   1.890   2.799   3.805 -0.1646 -0.3963 -0.3615
 6500SOL    HW120399   1.904   2.898   3.810 -0.0048 -0.4734  1.7562
 6500SOL    HW220400   1.935   2.764   3.723  2.6648  0.8833  0.5024
 6501SOL     OW20401   5.503   0.101   4.012 -0.3010  0.1911 -0.3739
 6501SOL    HW120402   5.501   0.190   3.968 -1.0364  0.7161  0.6827
 6501SOL    HW220403   5.414   0.056   4.000 -0.0521 -0.2504 -0.5929
 6502SOL     OW20404   0.817   1.215   1.945 -0.3667  0.0651  0.1332
 6502SOL    HW120405   0.880   1.149   1.987  0.8085  1.1720  0.2003
 6502SOL    HW220406   0.751   1.247   2.013 -1.1017 -1.1928  0.0358
 6503SOL     OW20407   2.448   2.779   6.230 -0.7656  0.0641 -0.8049
 6503SOL    HW120408   2.412   2.789   6.323 -0.9408 -0.1168 -0.8517
 6503SOL    HW220409   2.378   2.806   6.164 -0.3237  1.0925 -0.8682
 6504SOL     OW20410   4.312   1.004   5.384  0.5027 -0.0586 -0.6874
 6504SOL    HW120411   4.354   1.069   5.321  0.3267 -0.0197 -0.7673
 6504SOL    HW220412   4.244   1.052   5.440  0.1285 -0.2392 -0.9825
 6505SOL     OW20413   5.179   6.813   0.213 -0.1641  0.1555  0.3012
 6505SOL    HW120414   5.208   6.909   0.212 -0.5151  0.3036  1.6595
 6505SOL    HW220415   5.114   6.799   0.287  0.7864 -1.3921  0.8992
 6506SOL     OW20416   0.389   3.760   2.103  0.3178  0.4239  0.3354
 6506SOL    HW120417   0.369   3.710   2.018 -0.5014  0.8960  0.2418
 6506SOL    HW220418   0.473   3.724   2.143 -0.1546 -0.9191  0.1812
 6507SOL     OW20419   6.649   4.050   6.648 -0.0665  0.5101 -0.4435
 6507SOL    HW120420   6.551   4.053   6.627  0.3366 -0.9002 -3.0015
 6507SOL    HW220421   6.678   3.955   6.653  1.1834  0.9215  0.2623
 6508SOL     OW20422   5.294   5.206   5.224  0.2758 -0.0777  0.2530
 6508SOL    HW120423   5.303   5.273   5.299 -1.0871 -2.5257  2.8010
 6508SOL    HW220424   5.364   5.135   5.235 -1.6419 -1.9349  0.9278
 6509SOL     OW20425   1.659   2.155   6.128 -0.2258  0.3856  0.3046
 6509SOL    HW120426   1.703   2.184   6.213 -1.7248  0.9798  0.8978
 6509SOL    HW220427   1.705   2.073   6.093  1.2964  0.9429  0.9225
 6510SOL     OW20428   4.561   4.540   4.336 -0.4095 -0.2848 -0.2993
 6510SOL    HW120429   4.512   4.587   4.263 -1.6458 -0.0720  0.6443
 6510SOL    HW220430   4.518   4.559   4.424  0.7163 -0.9850  0.4392
 6511SOL     OW20431   4.864   3.048   6.733  0.1485 -0.4178  0.3155
 6511SOL    HW120432   4.933   3.052   6.805 -0.8778 -0.3069  1.3256
 6511SOL    HW220433   4.799   3.123   6.744  0.8498  0.5490 -1.6939
 6512SOL     OW20434   5.249   0.812   2.700 -0.8377 -0.3373 -0.2198
 6512SOL    HW120435   5.156   0.812   2.736 -1.0906  0.5724 -0.8491
 6512SOL    HW220436   5.246   0.804   2.600 -0.3070  0.8993 -0.3533
 6513SOL     OW20437   2.563   3.937   0.274  0.4132 -0.0900  0.4332
 6513SOL    HW120438   2.467   3.962   0.286 -0.0373 -1.4409 -0.1299
 6513SOL    HW220439   2.583   3.929   0.177  0.5047 -1.8630  0.5690
 6514SOL     OW20440   6.109   6.951   5.684  0.0632  0.2854  0.0392
 6514SOL    HW120441   6.114   6.857   5.719 -3.0136 -0.6257 -1.5548
 6514SOL    HW220442   6.045   7.004   5.740 -1.9947 -0.0947 -1.8170
 6515SOL     OW20443   6.956   4.182   2.055 -0.5120  0.5464 -0.2378
 6515SOL    HW120444   6.912   4.166   1.967 -0.7063 -1.9464  0.2359
 6515SOL    HW220445   6.889   4.172   2.128  0.4990 -2.2933  0.4257
 6516SOL     OW20446   5.921   2.040   1.976 -0.0503  0.0807 -0.1363
 6516SOL    HW120447   5.865   2.074   2.051 -3.0709 -2.6417 -0.9340
 6516SOL    HW220448   5.913   2.103   1.898 -2.3546 -0.3414 -0.3112
 6517SOL     OW20449   0.551   2.252   1.377 -0.6070  0.2114 -0.1582
 6517SOL    HW120450   0.482   2.257   1.449 -0.4793  1.7518 -0.1019
 6517SOL    HW220451   0.551   2.338   1.325 -0.7168 -0.8719 -2.0303
 6518SOL     OW20452   6.154   0.794   3.745 -0.5374  0.2487 -0.1710
 6518SOL    HW120453   6.204   0.734   3.684 -1.0724 -0.9537  0.5455
 6518SOL    HW220454   6.073   0.747   3.781 -1.4158  1.6515 -0.1920
 6519SOL     OW20455   6.835   1.284   1.715 -0.7044  0.4371  0.0237
 6519SOL    HW120456   6.911   1.349   1.706 -1.2938  1.0723 -0.4501
 6519SOL    HW220457   6.863   1.209   1.776  0.8628 -0.1884 -1.3696
 6520SOL     OW20458   5.111   6.800   1.290 -0.0135 -0.6191  0.6643
 6520SOL    HW120459   5.106   6.900   1.300  0.0886 -0.5275 -0.1733
 6520SOL    HW220460   5.204   6.774   1.265 -0.2471 -0.8434  0.0157
 6521SOL     OW20461   2.410   2.890   5.410 -0.0862 -0.6623  0.1007
 6521SOL    HW120462   2.416   2.961   5.340  0.4924 -0.2144  0.5995
 6521SOL    HW220463   2.345   2.820   5.380 -0.1216 -0.2945 -0.7188
 6522SOL     OW20464   3.697   3.245   5.625  0.6626  0.0490  0.3233
 6522SOL    HW120465   3.709   3.147   5.640  1.6125 -0.0717 -1.0223
 6522SOL    HW220466   3.702   3.264   5.527 -1.1514  1.2554  0.4234
 6523SOL     OW20467   4.629   5.400   1.521 -0.5812  0.3326  1.4630
 6523SOL    HW120468   4.655   5.373   1.428 -1.5630  1.0881  0.9449
 6523SOL    HW220469   4.709   5.432   1.570  0.1123 -0.8705  1.1764
 6524SOL     OW20470   3.870   3.930   2.292 -0.3833  0.8030 -0.1562
 6524SOL    HW120471   3.886   3.961   2.386  0.9233 -1.5783  0.5034
 6524SOL    HW220472   3.781   3.886   2.286 -0.5745  1.1780 -0.1137
 6525SOL     OW20473   1.876   4.846   2.435  0.5489 -0.0641  0.5640
 6525SOL    HW120474   1.975   4.829   2.439  0.9819  2.2698  2.5562
 6525SOL    HW220475   1.859   4.923   2.374 -0.1119 -0.6963 -0.0618
 6526SOL     OW20476   0.384   5.684   6.483  0.5187 -0.1184 -0.0760
 6526SOL    HW120477   0.424   5.618   6.547  4.2509  1.8323 -0.1269
 6526SOL    HW220478   0.355   5.766   6.533 -2.6310 -1.0169 -0.2153
 6527SOL     OW20479   0.566   0.325   2.047  0.0599 -0.2964  0.2387
 6527SOL    HW120480   0.659   0.349   2.020 -0.1216  0.1126 -0.0378
 6527SOL    HW220481   0.501   0.372   1.986 -0.3479  0.3645  1.1583
 6528SOL     OW20482   4.555   6.392   1.474  0.7810 -0.3141  0.7211
 6528SOL    HW120483   4.583   6.322   1.408  0.9510  0.0630  0.3915
 6528SOL    HW220484   4.502   6.462   1.428 -0.2879 -0.7584  1.2492
 6529SOL     OW20485   2.457   0.772   6.672  0.3213 -0.3243 -0.3576
 6529SOL    HW120486   2.416   0.715   6.601 -0.2469  0.2024 -0.4609
 6529SOL    HW220487   2.530   0.721   6.718  0.2405 -0.9059 -0.8650
 6530SOL     OW20488   5.572   3.605   5.815  0.4179 -0.0895  0.5447
 6530SOL    HW120489   5.599   3.674   5.883  1.7521 -0.7485  0.7237
 6530SOL    HW220490   5.628   3.523   5.828  0.9398 -0.1224 -1.5464
 6531SOL     OW20491   3.693   4.164   4.149 -0.0980  0.3011 -0.0797
 6531SOL    HW120492   3.683   4.262   4.162 -0.3845  0.2592  0.0149
 6531SOL    HW220493   3.620   4.130   4.090  0.1378  0.1842 -0.3070
 6532SOL     OW20494   0.421   4.111   5.218 -0.4201 -0.0665 -0.0482
 6532SOL    HW120495   0.441   4.021   5.178 -0.6735 -0.8719  1.5536
 6532SOL    HW220496   0.323   4.130   5.211 -0.4774 -0.2459  0.2644
 6533SOL     OW20497   6.879   5.513   2.785  0.3051 -0.1156  0.1569
 6533SOL    HW120498   6.805   5.474   2.730 -0.5662  0.2170  1.0648
 6533SOL    HW220499   6.946   5.442   2.807  0.1732 -0.4578 -0.5276
 6534SOL     OW20500   6.146   2.105   4.933 -0.0563  0.1264 -0.0473
 6534SOL    HW120501   6.051   2.114   4.901 -0.6900  0.9092  1.9129
 6534SOL    HW220502   6.150   2.039   5.008  0.7197  0.9773  0.6782
 6535SOL     OW20503   5.443   2.838   4.182 -0.3206 -0.3984 -0.1207
 6535SOL    HW120504   5.401   2.772   4.119 -2.0263 -0.8752  1.4246
 6535SOL    HW220505   5.542   2.828   4.180 -0.2287 -0.0542 -3.0428
 6536SOL     OW20506   6.684   5.079   0.112 -0.9592  0.5528 -0.1909
 6536SOL    HW120507   6.666   4.984   0.088 -0.1925  0.4176 -0.2618
 6536SOL    HW220508   6.705   5.131   0.029 -0.8005  0.6492 -0.0916
 6537SOL     OW20509   1.191   3.500   3.729 -0.5111  0.0207  0.5375
 6537SOL    HW120510   1.253   3.533   3.658 -0.2358 -0.5898  0.4925
 6537SOL    HW220511   1.149   3.415   3.700 -1.2622  0.3524  0.6359
 6538SOL     OW20512   1.046   5.204   5.037 -0.2150  0.3321  0.4277
 6538SOL    HW120513   1.035   5.130   4.970 -1.1445 -0.3290  1.2832
 6538SOL    HW220514   1.083   5.285   4.991  3.4075 -1.3868 -0.0918
 6539SOL     OW20515   5.245   6.159   4.224 -0.7824  0.1276  0.1717
 6539SOL    HW120516   5.316   6.144   4.155 -0.5281 -1.5164  0.7520
 6539SOL    HW220517   5.214   6.254   4.219 -1.4907 -0.1424 -2.8719
 6540SOL     OW20518   0.145   3.176   0.199 -0.4435  0.2596 -0.5482
 6540SOL    HW120519   0.077   3.249   0.194 -0.1064  0.5646 -0.6714
 6540SOL    HW220520   0.228   3.204   0.151 -0.1998 -0.0781 -0.3259
 6541SOL     OW20521   4.025   1.415   6.805 -0.0575 -0.0768  0.3402
 6541SOL    HW120522   3.954   1.481   6.782  0.0615 -0.3809 -1.0020
 6541SOL    HW220523   3.987   1.343   6.863 -0.8888 -0.2767 -0.4259
 6542SOL     OW20524   1.128   4.981   0.727  0.5840  0.7957  0.0987
 6542SOL    HW120525   1.152   4.991   0.824 -0.4841 -0.1497  0.4902
 6542SOL    HW220526   1.212   4.984   0.672  1.6494 -1.8593  1.3554
 6543SOL     OW20527   4.744   1.571   4.999 -0.1400  0.0514 -0.6364
 6543SOL    HW120528   4.776   1.483   4.964  0.2253  0.8136 -2.3166
 6543SOL    HW220529   4.727   1.563   5.097 -0.9470 -2.1115 -0.8925
 6544SOL     OW20530   3.886   0.149   1.945  0.1576 -0.1261  0.1639
 6544SOL    HW120531   3.921   0.122   1.855  0.7491 -1.4293  0.7644
 6544SOL    HW220532   3.883   0.249   1.951 -0.3596 -0.0182 -1.4717
 6545SOL     OW20533   5.838   4.576   1.045  0.5200 -0.2652  0.1165
 6545SOL    HW120534   5.847   4.658   0.988 -0.3530 -0.9884 -1.1280
 6545SOL    HW220535   5.927   4.532   1.056  0.6705 -0.2798 -0.9945
 6546SOL     OW20536   3.761   5.673   4.863  0.4405  0.6047 -0.6461
 6546SOL    HW120537   3.846   5.628   4.889  0.1838  0.3259 -0.2696
 6546SOL    HW220538   3.758   5.683   4.764  0.1054 -1.0557 -0.8408
 6547SOL     OW20539   0.371   6.320   5.527  0.2230  0.5647  0.2992
 6547SOL    HW120540   0.408   6.338   5.618  0.9014  2.1362 -0.2405
 6547SOL    HW220541   0.446   6.315   5.461 -0.1638 -1.7593 -0.0404
 6548SOL     OW20542   1.314   1.759   4.857 -0.1258 -0.4714 -0.9780
 6548SOL    HW120543   1.224   1.719   4.875  0.4962 -1.0242  1.2038
 6548SOL    HW220544   1.311   1.857   4.872 -0.2381 -0.5785 -0.2541
 6549SOL     OW20545   0.500   2.305   1.929 -0.2704 -0.1917  0.3522
 6549SOL    HW120546   0.414   2.313   1.980  0.9122  1.6840  2.1815
 6549SOL    HW220547   0.542   2.395   1.919  0.6591 -0.8134 -2.0992
 6550SOL     OW20548   3.533   2.082   2.245  0.1505 -0.0218  0.6075
 6550SOL    HW120549   3.524   1.990   2.207  0.7074  0.2354 -0.1883
 6550SOL    HW220550   3.614   2.126   2.207  0.4736  0.4302  1.7744
 6551SOL     OW20551   3.641   3.858   6.848 -0.2448  0.1520  0.0295
 6551SOL    HW120552   3.618   3.914   6.928  1.6130  2.6129 -1.0435
 6551SOL    HW220553   3.557   3.819   6.811 -1.4781  1.1369  1.6058
 6552SOL     OW20554   1.775   3.314   6.872  0.1206  0.4630 -0.4605
 6552SOL    HW120555   1.816   3.312   6.963 -0.1565 -1.8700 -0.3134
 6552SOL    HW220556   1.735   3.404   6.854 -0.4651  0.7535  2.0034
 6553SOL     OW20557   0.805   2.315   3.684 -0.3294 -0.0654 -0.3324
 6553SOL    HW120558   0.736   2.380   3.716 -0.2101 -0.9678  1.9668
 6553SOL    HW220559   0.894   2.338   3.725  0.0308 -0.8325 -0.6635
 6554SOL     OW20560   0.119   1.570   5.315 -0.1518 -0.7684 -0.4130
 6554SOL    HW120561   0.044   1.617   5.270 -0.5958 -2.1617 -1.2063
 6554SOL    HW220562   0.109   1.577   5.414  0.7680  2.2405 -0.4335
 6555SOL     OW20563   2.345   1.609   3.129  0.0679 -0.7020 -0.0553
 6555SOL    HW120564   2.398   1.668   3.190 -0.3091 -0.0535 -0.3438
 6555SOL    HW220565   2.379   1.516   3.135  0.2788 -0.5737  0.8692
 6556SOL     OW20566   5.082   1.406   2.790  0.1950  0.4328  0.1176
 6556SOL    HW120567   5.165   1.448   2.828  1.4974 -0.6102 -1.4482
 6556SOL    HW220568   5.006   1.470   2.797  0.7990  0.9974  2.6642
 6557SOL     OW20569   2.098   0.341   4.123  0.4807 -0.0686 -0.0316
 6557SOL    HW120570   1.999   0.351   4.111  0.6301 -0.4844 -1.8816
 6557SOL    HW220571   2.119   0.249   4.155  0.3090 -0.1808 -0.2414
 6558SOL     OW20572   4.404   4.417   0.300 -0.4269 -0.0264 -0.0022
 6558SOL    HW120573   4.437   4.492   0.241 -0.5556  0.7723  0.9193
 6558SOL    HW220574   4.401   4.448   0.395 -1.9054 -0.7291  0.2115
 6559SOL     OW20575   0.727   2.107   0.808  0.0488  0.0481  0.1255
 6559SOL    HW120576   0.777   2.152   0.882 -0.1185  2.0059 -0.9017
 6559SOL    HW220577   0.790   2.052   0.753  0.5714  0.3917  0.3824
 6560SOL     OW20578   5.816   3.189   0.201  0.1923  0.6968 -0.0241
 6560SOL    HW120579   5.878   3.142   0.137 -0.7847  1.3158 -1.4862
 6560SOL    HW220580   5.733   3.217   0.153 -1.8389 -1.1966  2.1624
 6561SOL     OW20581   2.904   6.969   5.765  0.3911 -0.4051  0.2549
 6561SOL    HW120582   2.848   6.897   5.725  0.8025 -0.9427  0.6448
 6561SOL    HW220583   2.883   7.056   5.720  0.0298 -0.7965 -0.3431
 6562SOL     OW20584   5.312   4.386   0.672  0.0203 -0.7837 -0.8298
 6562SOL    HW120585   5.368   4.314   0.630 -0.2152 -1.6043  0.2251
 6562SOL    HW220586   5.222   4.389   0.627  0.4812 -0.2575 -1.7391
 6563SOL     OW20587   6.625   4.105   5.372 -0.1720 -0.0603 -0.1000
 6563SOL    HW120588   6.717   4.132   5.401 -0.4557  0.6778  0.1408
 6563SOL    HW220589   6.564   4.104   5.452 -0.3825 -0.5033 -0.2644
 6564SOL     OW20590   6.820   4.265   2.314  0.0751  0.1705 -0.3712
 6564SOL    HW120591   6.747   4.211   2.353 -0.2757  1.0304  0.1876
 6564SOL    HW220592   6.909   4.227   2.340 -0.1663 -0.0579  0.1133
 6565SOL     OW20593   5.817   4.652   1.904  0.4312 -0.0832  0.3647
 6565SOL    HW120594   5.859   4.680   1.990  0.4857  1.2760 -0.0871
 6565SOL    HW220595   5.887   4.644   1.833 -0.0775  3.4222 -0.7153
 6566SOL     OW20596   5.905   6.283   3.841  0.1588  0.7723  0.3654
 6566SOL    HW120597   5.989   6.296   3.893  1.9974 -1.2409 -1.8352
 6566SOL    HW220598   5.874   6.188   3.850  0.0585  0.5932 -1.4518
 6567SOL     OW20599   2.368   1.944   2.488 -0.5341  0.7546 -0.4732
 6567SOL    HW120600   2.390   1.933   2.585 -1.0918  1.0284 -0.3100
 6567SOL    HW220601   2.304   1.873   2.460  0.3761  0.0777 -0.8983
 6568SOL     OW20602   0.442   2.935   0.978 -0.3522  0.2108 -0.5235
 6568SOL    HW120603   0.452   2.841   0.948  1.9582  0.2488 -0.0851
 6568SOL    HW220604   0.451   2.997   0.900 -1.0224  0.1042 -0.6884
 6569SOL     OW20605   1.730   4.111   4.229 -0.0783 -0.5452  0.2744
 6569SOL    HW120606   1.660   4.041   4.217  0.5967 -1.3552  0.9354
 6569SOL    HW220607   1.809   4.072   4.277  0.1684  0.7591  0.9861
 6570SOL     OW20608   3.519   5.179   2.077 -0.5228  0.3131  0.3684
 6570SOL    HW120609   3.590   5.191   2.146  0.8475  0.4219 -1.0187
 6570SOL    HW220610   3.496   5.267   2.037 -0.0607  0.0430 -0.5125
 6571SOL     OW20611   2.619   6.041   5.108 -0.2148  0.7173  0.5506
 6571SOL    HW120612   2.680   6.071   5.181 -0.1551 -0.9948  1.2579
 6571SOL    HW220613   2.669   5.981   5.045 -0.9497 -0.0883  0.7105
 6572SOL     OW20614   2.790   0.222   3.259  0.2057  0.0131  0.4729
 6572SOL    HW120615   2.728   0.146   3.277 -0.3731  0.7248  1.5974
 6572SOL    HW220616   2.739   0.298   3.219  0.1896  0.8576  2.0550
 6573SOL     OW20617   1.025   1.921   2.338 -0.4081  0.1088 -0.3273
 6573SOL    HW120618   0.984   1.860   2.271 -0.7847  0.6109 -0.5536
 6573SOL    HW220619   0.954   1.960   2.397 -0.3622  1.5830 -1.2168
 6574SOL     OW20620   3.487   5.947   2.841 -0.5514  0.0041 -0.0182
 6574SOL    HW120621   3.556   5.895   2.791  2.3074  2.2289  1.2587
 6574SOL    HW220622   3.515   5.956   2.936 -2.1094  1.8399  0.3339
 6575SOL     OW20623   6.338   0.579   4.210 -0.4896  0.3551  0.4635
 6575SOL    HW120624   6.378   0.670   4.195 -0.8168  0.4237 -0.0140
 6575SOL    HW220625   6.412   0.511   4.213 -0.3618  0.3405 -1.4946
 6576SOL     OW20626   2.596   0.378   1.594  0.0502  0.2372 -0.3328
 6576SOL    HW120627   2.594   0.402   1.691 -2.5954  1.9788 -0.6916
 6576SOL    HW220628   2.581   0.280   1.583 -0.9044  0.2010  1.0341
 6577SOL     OW20629   1.156   1.002   5.253  0.5359 -0.0497 -0.2749
 6577SOL    HW120630   1.224   1.010   5.326  1.2206 -0.9840 -0.7735
 6577SOL    HW220631   1.082   0.941   5.283 -0.0336  0.8545  0.2151
 6578SOL     OW20632   6.223   0.096   6.876  0.0729  0.3713  0.5702
 6578SOL    HW120633   6.239   0.191   6.853 -1.5515  0.6038  0.2636
 6578SOL    HW220634   6.219   0.041   6.793  0.0258  0.2052  0.6801
 6579SOL     OW20635   1.202   2.026   4.331 -0.0342  0.6377 -0.6758
 6579SOL    HW120636   1.129   2.093   4.344  0.8545  1.5177 -0.1098
 6579SOL    HW220637   1.237   1.998   4.421  0.5699  0.5081 -0.9515
 6580SOL     OW20638   3.849   3.559   6.982  0.2005 -0.2071 -0.8971
 6580SOL    HW120639   3.759   3.572   6.941 -0.5985  0.5007  0.9872
 6580SOL    HW220640   3.919   3.561   6.910 -1.1393  0.6300 -2.2327
 6581SOL     OW20641   6.210   0.882   2.406  0.3811  0.3645 -0.3865
 6581SOL    HW120642   6.169   0.851   2.492  1.0839 -1.0093 -0.5155
 6581SOL    HW220643   6.138   0.899   2.339 -0.0846 -0.2378 -0.0496
 6582SOL     OW20644   2.989   0.307   2.853  1.2451 -0.0546 -0.4885
 6582SOL    HW120645   3.013   0.218   2.816  0.6193 -0.0101 -1.0234
 6582SOL    HW220646   2.896   0.304   2.891  1.4380  0.2159  0.0151
 6583SOL     OW20647   2.454   6.146   0.340 -0.8582 -0.2992  0.1544
 6583SOL    HW120648   2.372   6.092   0.354 -0.3546 -1.3239 -0.7261
 6583SOL    HW220649   2.467   6.162   0.242  1.4380 -2.5580 -0.0210
 6584SOL     OW20650   5.068   2.443   4.817  0.2317  0.3109  0.2504
 6584SOL    HW120651   5.111   2.395   4.740  0.3940 -0.7458  0.9880
 6584SOL    HW220652   5.082   2.542   4.806 -0.3067  0.2413 -1.4121
 6585SOL     OW20653   4.252   4.924   2.127 -0.5449 -0.3053 -0.2901
 6585SOL    HW120654   4.269   4.833   2.165  1.6049  0.1444 -0.0449
 6585SOL    HW220655   4.242   4.917   2.028 -0.7923 -0.8444 -0.2303
 6586SOL     OW20656   6.050   1.697   6.422  0.4702 -0.5001 -0.0734
 6586SOL    HW120657   6.051   1.737   6.514  2.3529 -1.0742  0.1900
 6586SOL    HW220658   6.093   1.760   6.358  0.0599 -0.5262 -0.3757
 6587SOL     OW20659   2.559   5.316   3.898 -0.0810 -0.2962  0.0090
 6587SOL    HW120660   2.517   5.346   3.983  0.8395  0.1038  0.3383
 6587SOL    HW220661   2.603   5.227   3.912 -1.3579 -1.0363 -0.5138
 6588SOL     OW20662   0.729   3.782   1.610 -0.2607 -0.4405 -0.0711
 6588SOL    HW120663   0.809   3.837   1.587 -1.2719  1.2238  0.2058
 6588SOL    HW220664   0.721   3.775   1.710 -0.9045  0.1023 -0.0807
 6589SOL     OW20665   4.698   0.811   1.085 -0.4338 -0.0214 -0.1964
 6589SOL    HW120666   4.645   0.779   1.163 -1.0325  2.1100  0.3401
 6589SOL    HW220667   4.794   0.787   1.098 -0.5954 -0.1176  0.9627
 6590SOL     OW20668   1.638   6.209   4.949 -0.0769 -0.4285  0.2403
 6590SOL    HW120669   1.726   6.184   4.991  0.2575 -0.2348 -0.3314
 6590SOL    HW220670   1.642   6.192   4.851 -0.1609  0.9760 -0.0271
 6591SOL     OW20671   0.124   3.747   2.489  0.2467 -0.3523 -0.5616
 6591SOL    HW120672   0.179   3.821   2.525 -0.1638  0.8588 -2.3064
 6591SOL    HW220673   0.097   3.767   2.395 -1.2949 -1.9404 -0.5250
 6592SOL     OW20674   0.445   1.336   4.524 -0.7072  0.0064 -0.2780
 6592SOL    HW120675   0.531   1.308   4.568 -1.2424 -0.8641  0.2415
 6592SOL    HW220676   0.466   1.395   4.446  0.3332  0.3459  0.2281
 6593SOL     OW20677   2.435   0.216   4.314 -0.6416  0.0129 -0.0517
 6593SOL    HW120678   2.404   0.276   4.388  0.7843 -1.0676  1.5153
 6593SOL    HW220679   2.457   0.270   4.233  0.2658  1.5979  1.1883
 6594SOL     OW20680   4.612   0.121   6.513 -0.4319 -0.2598  0.1884
 6594SOL    HW120681   4.629   0.213   6.549 -0.9946  0.5304 -1.4699
 6594SOL    HW220682   4.599   0.126   6.414 -0.7820 -2.0968  0.1122
 6595SOL     OW20683   4.836   0.721   4.868  0.4567  0.1264  0.4366
 6595SOL    HW120684   4.910   0.655   4.857 -0.6191 -1.0795  0.1563
 6595SOL    HW220685   4.781   0.697   4.948  0.7861  1.4475  1.0903
 6596SOL     OW20686   4.484   1.153   1.543 -0.1625 -0.0184  0.1400
 6596SOL    HW120687   4.501   1.169   1.446 -0.9170 -1.3173 -0.2338
 6596SOL    HW220688   4.542   1.079   1.576  0.2918  0.6035  0.7609
 6597SOL     OW20689   1.222   6.613   0.244  0.5155 -0.4930 -0.3515
 6597SOL    HW120690   1.219   6.586   0.340  3.3182  0.2902  0.0518
 6597SOL    HW220691   1.149   6.566   0.194  0.0720 -2.2945  1.8067
 6598SOL     OW20692   2.059   4.856   6.667  0.3496 -1.0467 -0.2559
 6598SOL    HW120693   1.959   4.847   6.664  0.1590  0.8379 -0.5366
 6598SOL    HW220694   2.100   4.766   6.650 -1.2828 -2.2522  1.6792
 6599SOL     OW20695   6.471   5.316   5.330 -0.2669  0.3691  0.4484
 6599SOL    HW120696   6.451   5.310   5.428 -2.8852 -0.9040 -0.0570
 6599SOL    HW220697   6.563   5.350   5.316 -0.4865  2.4524  3.3123
 6600SOL     OW20698   5.032   2.212   6.862 -0.4074  0.2487  0.6814
 6600SOL    HW120699   5.050   2.137   6.798  0.9263  1.1019  0.0026
 6600SOL    HW220700   5.055   2.299   6.818 -1.1535  1.0013  1.7316
 6601SOL     OW20701   6.961   3.325   4.677  0.0648  0.0049 -0.3470
 6601SOL    HW120702   6.900   3.330   4.756  1.2233  0.9427  0.5220
 6601SOL    HW220703   6.908   3.302   4.596 -1.3052 -0.0037  0.5144
 6602SOL     OW20704   6.402   7.014   1.482  0.2786  0.0290  0.3195
 6602SOL    HW120705   6.398   7.078   1.559 -0.0306 -0.7672  0.9854
 6602SOL    HW220706   6.311   6.974   1.468  1.0010 -2.2656  1.6753
 6603SOL     OW20707   6.967   3.321   3.312  0.1455 -0.5304 -0.1723
 6603SOL    HW120708   6.972   3.300   3.409 -2.3129 -0.7977 -0.0297
 6603SOL    HW220709   6.896   3.264   3.269 -0.1217  0.8859 -1.7221
 6604SOL     OW20710   0.682   4.797   2.150 -0.4354 -0.5155  0.6051
 6604SOL    HW120711   0.747   4.873   2.150 -1.3310  0.2691  0.4859
 6604SOL    HW220712   0.730   4.713   2.125  0.5886 -0.0122  0.7947
 6605SOL     OW20713   0.285   4.066   6.368 -0.1349 -0.6048  0.2317
 6605SOL    HW120714   0.313   3.970   6.369 -1.0444 -0.8973 -0.3891
 6605SOL    HW220715   0.359   4.123   6.404  0.2981 -1.5635  0.9074
 6606SOL     OW20716   0.976   6.942   3.554 -0.3103 -0.0073  0.2399
 6606SOL    HW120717   1.013   6.956   3.462 -0.0118  0.7691  0.4728
 6606SOL    HW220718   0.991   7.024   3.609  0.7723 -0.9505  1.4184
 6607SOL     OW20719   0.516   2.459   5.754  0.6866  0.4827 -0.2008
 6607SOL    HW120720   0.587   2.399   5.792  0.7202  1.1393  0.7918
 6607SOL    HW220721   0.516   2.451   5.654  1.5051 -0.2552 -0.1523
 6608SOL     OW20722   1.453   0.088   4.754 -0.3922  0.6973  0.0491
 6608SOL    HW120723   1.529   0.134   4.800  1.3495 -1.0705 -0.9270
 6608SOL    HW220724   1.431   0.137   4.669 -0.4306  1.2745  0.3844
 6609SOL     OW20725   1.941   2.509   1.690 -0.1897 -0.3413  0.2825
 6609SOL    HW120726   2.012   2.579   1.697 -0.4956 -0.1299  1.4364
 6609SOL    HW220727   1.950   2.461   1.602 -0.8536  2.0621 -1.1832
 6610SOL     OW20728   4.740   6.361   1.000 -0.0901  0.5656  0.4671
 6610SOL    HW120729   4.757   6.400   0.909 -0.4371 -0.7971 -0.2066
 6610SOL    HW220730   4.793   6.412   1.068  2.9661 -0.5102 -0.9392
 6611SOL     OW20731   1.540   2.191   5.432  0.5119  0.3485  0.2866
 6611SOL    HW120732   1.480   2.116   5.404  2.4084 -0.8943 -0.6006
 6611SOL    HW220733   1.633   2.157   5.444  1.0979  2.2541  1.5106
 6612SOL     OW20734   5.235   6.492   0.355 -0.1903 -0.1847  0.6107
 6612SOL    HW120735   5.218   6.567   0.419 -0.7915  0.0277  0.2093
 6612SOL    HW220736   5.310   6.517   0.294 -1.7833  1.0560 -0.9694
 6613SOL     OW20737   5.770   6.321   5.982 -0.3682 -0.1867 -0.2111
 6613SOL    HW120738   5.744   6.233   6.021  1.4862  1.2589  5.2923
 6613SOL    HW220739   5.850   6.310   5.924  0.0273 -2.0900  0.6315
 6614SOL     OW20740   2.664   5.263   0.775 -0.5985  0.5748 -0.4917
 6614SOL    HW120741   2.625   5.271   0.683  2.3572 -2.9317 -2.2749
 6614SOL    HW220742   2.761   5.286   0.772 -0.6321  1.3898  2.0763
 6615SOL     OW20743   2.103   0.284   6.553 -0.3556 -0.5385  0.1113
 6615SOL    HW120744   2.038   0.221   6.596 -0.3458 -0.6015  0.0330
 6615SOL    HW220745   2.172   0.310   6.620 -0.5531 -0.3465  0.2414
 6616SOL     OW20746   3.327   3.201   0.265 -0.2426  0.0763  0.3747
 6616SOL    HW120747   3.236   3.180   0.300  0.2972  0.6574  2.2986
 6616SOL    HW220748   3.386   3.121   0.278 -0.5004 -0.3669 -1.0496
 6617SOL     OW20749   5.098   2.277   4.598  0.0238 -0.1515  0.1283
 6617SOL    HW120750   5.179   2.228   4.566  0.4493  1.2654 -1.1053
 6617SOL    HW220751   5.020   2.254   4.539 -0.2084 -0.6522  0.6223
 6618SOL     OW20752   6.323   2.710   4.066 -0.1358  0.8629 -0.8986
 6618SOL    HW120753   6.351   2.751   4.153 -0.6945 -1.5928  0.5225
 6618SOL    HW220754   6.400   2.663   4.025 -0.6752 -0.9782  0.1029
 6619SOL     OW20755   5.853   4.604   3.570  0.1501 -0.1318 -0.6959
 6619SOL    HW120756   5.818   4.555   3.490  0.0834  0.7907 -1.2522
 6619SOL    HW220757   5.942   4.567   3.596 -0.5195 -1.4774 -0.2222
 6620SOL     OW20758   1.045   2.317   5.377 -0.3112 -0.4853 -0.5666
 6620SOL    HW120759   1.124   2.307   5.317 -0.6134 -0.4223 -0.9792
 6620SOL    HW220760   1.015   2.413   5.376 -0.2390 -0.4601 -0.2178
 6621SOL     OW20761   2.908   3.431   3.667  0.4896  0.6815 -0.0921
 6621SOL    HW120762   2.950   3.412   3.579 -0.6317  1.0831 -0.7370
 6621SOL    HW220763   2.918   3.352   3.727  0.8454  0.2220 -0.7495
 6622SOL     OW20764   6.879   4.296   1.636  0.1043  0.4269 -0.0938
 6622SOL    HW120765   6.960   4.250   1.599 -0.9292 -2.9885  1.4440
 6622SOL    HW220766   6.824   4.333   1.560  0.9157 -1.1810 -1.5245
 6623SOL     OW20767   3.458   3.995   3.121  0.2199 -0.0121 -0.0749
 6623SOL    HW120768   3.438   3.936   3.043  2.5730 -1.8515  0.5966
 6623SOL    HW220769   3.556   4.013   3.125 -0.1288  1.8650  1.2330
 6624SOL     OW20770   2.179   2.825   3.094  0.2993 -0.5125 -0.1581
 6624SOL    HW120771   2.274   2.807   3.070  1.1936  0.3864  2.3907
 6624SOL    HW220772   2.142   2.747   3.145 -0.4990 -1.0146 -1.4466
 6625SOL     OW20773   1.009   0.517   6.982 -0.3582 -0.0644 -0.1425
 6625SOL    HW120774   1.087   0.557   7.029  1.1717 -1.9277 -0.9296
 6625SOL    HW220775   1.038   0.481   6.893 -2.3558  0.0931 -0.9164
 6626SOL     OW20776   3.485   6.659   6.232 -0.7219 -0.9243 -0.3807
 6626SOL    HW120777   3.398   6.693   6.196 -0.8164  0.9642  1.4617
 6626SOL    HW220778   3.470   6.574   6.281 -1.5816 -0.5043  0.0980
 6627SOL     OW20779   2.927   1.428   4.644  0.3086 -0.2417  0.2821
 6627SOL    HW120780   2.964   1.498   4.705  0.9845 -1.4807  1.3346
 6627SOL    HW220781   2.827   1.433   4.644  0.3299  0.2704  0.8943
 6628SOL     OW20782   4.975   5.097   2.729 -0.3351  0.3586 -0.2526
 6628SOL    HW120783   4.891   5.072   2.776 -0.8191  3.6743  0.9687
 6628SOL    HW220784   5.053   5.087   2.792 -0.0888 -0.8044 -0.7274
 6629SOL     OW20785   4.384   0.468   3.448  0.4737 -0.4222  0.0448
 6629SOL    HW120786   4.297   0.458   3.401  0.7970 -2.7943 -0.1664
 6629SOL    HW220787   4.367   0.498   3.542 -0.7071 -1.8966  0.3518
 6630SOL     OW20788   2.287   0.603   6.966  0.6488  0.1388  0.0246
 6630SOL    HW120789   2.373   0.590   7.016  1.5867  1.3105 -1.1892
 6630SOL    HW220790   2.295   0.561   6.875 -0.4093 -0.4936  0.2024
 6631SOL     OW20791   3.431   3.312   5.619 -0.5510 -0.0956  0.2993
 6631SOL    HW120792   3.529   3.295   5.632 -0.5450 -0.0794  0.2759
 6631SOL    HW220793   3.391   3.346   5.704 -0.3227  0.8810  0.0271
 6632SOL     OW20794   0.826   0.719   5.328  0.2713  0.4004  0.1216
 6632SOL    HW120795   0.828   0.620   5.344  0.5915  0.4505  0.4202
 6632SOL    HW220796   0.841   0.766   5.415 -0.2135  0.7149  0.0369
 6633SOL     OW20797   4.958   3.973   6.468 -0.1791 -0.0286 -0.4949
 6633SOL    HW120798   4.929   4.000   6.376 -0.2318  0.5778 -0.2982
 6633SOL    HW220799   4.913   4.030   6.536  1.1505  0.6491 -0.1621
 6634SOL     OW20800   5.781   1.645   4.905  0.3275  0.3904 -0.4049
 6634SOL    HW120801   5.834   1.669   4.986  0.2692 -3.0332  0.8062
 6634SOL    HW220802   5.842   1.640   4.825  0.7594  1.8157 -0.1791
 6635SOL     OW20803   4.392   5.194   6.759 -0.8315 -0.1987  0.3579
 6635SOL    HW120804   4.457   5.120   6.742 -0.0531  0.0385  2.0974
 6635SOL    HW220805   4.440   5.282   6.756 -1.3793  0.1016  0.1925
 6636SOL     OW20806   4.593   2.531   6.619  0.0284  0.7389 -0.0662
 6636SOL    HW120807   4.578   2.623   6.656 -0.5839  0.6332 -0.0504
 6636SOL    HW220808   4.508   2.496   6.580  0.7090  0.9606 -1.8352
 6637SOL     OW20809   0.136   2.805   0.815  0.4303  0.2935  0.2169
 6637SOL    HW120810   0.193   2.822   0.734 -0.9108 -0.6452 -0.9801
 6637SOL    HW220811   0.056   2.865   0.813 -1.5583 -2.1916 -1.2228
 6638SOL     OW20812   3.232   3.519   2.136 -0.3471  0.0707 -0.2741
 6638SOL    HW120813   3.176   3.451   2.181 -2.1395  1.9885  0.5562
 6638SOL    HW220814   3.251   3.491   2.042 -0.0730 -2.0439  0.3803
 6639SOL     OW20815   6.039   2.358   6.156  0.5014  0.0945 -0.4376
 6639SOL    HW120816   6.138   2.366   6.169  0.2792  1.2855  0.8725
 6639SOL    HW220817   6.010   2.419   6.082  0.6109  0.7738  0.0622
 6640SOL     OW20818   0.801   2.980   5.540 -0.0080 -0.0248  0.3374
 6640SOL    HW120819   0.894   3.014   5.557 -0.2908  0.9688 -0.0620
 6640SOL    HW220820   0.745   2.995   5.621 -0.0429  0.1603  0.2797
 6641SOL     OW20821   6.509   2.051   2.287  0.5003  0.0830  0.2320
 6641SOL    HW120822   6.410   2.055   2.269  0.6910 -1.8420 -1.7180
 6641SOL    HW220823   6.554   2.130   2.245 -0.0859  0.3242  0.0467
 6642SOL     OW20824   0.815   6.347   6.031  0.3090  0.0459 -0.1417
 6642SOL    HW120825   0.908   6.347   5.996  0.1065  0.0986 -0.6930
 6642SOL    HW220826   0.809   6.288   6.112  0.9582  0.5550  0.2896
 6643SOL     OW20827   5.487   5.539   6.708  0.0327  0.5340 -0.1278
 6643SOL    HW120828   5.473   5.610   6.777  1.2208  0.6424  0.0358
 6643SOL    HW220829   5.581   5.506   6.713 -0.2585 -0.4506 -0.7776
 6644SOL     OW20830   0.807   0.073   3.051  0.1224  0.4728 -0.1881
 6644SOL    HW120831   0.776   0.156   3.005  0.0918  1.4321  1.4619
 6644SOL    HW220832   0.905   0.063   3.039  0.0469  0.4647 -0.8192
 6645SOL     OW20833   4.915   2.086   4.073  0.0203 -0.4617  0.1269
 6645SOL    HW120834   4.940   2.078   3.976 -0.6340 -0.7529 -0.0221
 6645SOL    HW220835   4.998   2.097   4.127  0.4259 -0.7073 -0.4276
 6646SOL     OW20836   5.043   0.647   5.965  0.3794 -0.2547 -0.5672
 6646SOL    HW120837   4.985   0.611   6.039  0.9409 -0.2905 -0.1365
 6646SOL    HW220838   5.086   0.732   5.995  1.1488 -0.6258 -0.5931
 6647SOL     OW20839   2.608   6.854   0.768  0.2876  1.0381  0.2406
 6647SOL    HW120840   2.537   6.856   0.839  2.1390 -1.1577  2.3341
 6647SOL    HW220841   2.591   6.777   0.706  0.1781  1.2795 -0.0329
 6648SOL     OW20842   4.602   6.371   4.724  0.3835 -0.1173  0.1733
 6648SOL    HW120843   4.642   6.432   4.656 -0.7228  0.0928 -0.3162
 6648SOL    HW220844   4.600   6.417   4.813  1.1672 -0.1168  0.1982
 6649SOL     OW20845   5.679   2.518   5.168  0.3833  0.1318 -0.1627
 6649SOL    HW120846   5.630   2.477   5.245 -0.0251 -1.6373 -1.3037
 6649SOL    HW220847   5.613   2.549   5.099  0.7803  0.6397 -0.3208
 6650SOL     OW20848   3.479   1.019   3.313 -0.1433 -0.4146 -0.2116
 6650SOL    HW120849   3.555   0.956   3.326 -0.2605 -0.5943 -0.3900
 6650SOL    HW220850   3.458   1.027   3.215 -1.1498 -1.3310 -0.0914
 6651SOL     OW20851   5.157   1.603   4.361 -0.8380  0.5124 -0.3117
 6651SOL    HW120852   5.154   1.686   4.417 -0.3650 -0.1444  0.7103
 6651SOL    HW220853   5.246   1.560   4.370  0.0854  1.5395 -3.3411
 6652SOL     OW20854   6.288   5.268   5.133 -0.2492 -0.2725  0.6713
 6652SOL    HW120855   6.363   5.262   5.199  0.5072  0.2511 -0.1197
 6652SOL    HW220856   6.230   5.346   5.154  0.9310  0.8887 -0.1996
 6653SOL     OW20857   5.160   4.159   5.165 -0.2653 -0.6826 -0.4655
 6653SOL    HW120858   5.164   4.234   5.099  0.2882  0.6074  0.9867
 6653SOL    HW220859   5.064   4.137   5.184 -0.4411 -1.3006 -1.9002
 6654SOL     OW20860   5.604   0.881   0.444  0.1094 -0.3909 -0.0682
 6654SOL    HW120861   5.560   0.924   0.523  0.4966 -2.2472  1.2375
 6654SOL    HW220862   5.665   0.946   0.400  0.3204  0.5413  1.5262
 6655SOL     OW20863   0.504   5.108   0.537 -0.5895  0.0062  0.0662
 6655SOL    HW120864   0.453   5.187   0.571 -1.1424 -0.5617  0.5804
 6655SOL    HW220865   0.523   5.045   0.613 -1.7788 -1.2533 -0.6357
 6656SOL     OW20866   4.687   2.756   3.890  0.3580 -0.5829  0.5574
 6656SOL    HW120867   4.698   2.809   3.974 -0.5817  1.4557 -0.5141
 6656SOL    HW220868   4.591   2.758   3.862  0.4703 -2.1279 -0.0250
 6657SOL     OW20869   4.935   0.852   3.330  0.3111  0.3233 -0.2338
 6657SOL    HW120870   4.999   0.827   3.257 -1.0061 -1.9098 -0.7214
 6657SOL    HW220871   4.943   0.788   3.406  0.5491  1.6830  0.9498
 6658SOL     OW20872   6.967   2.508   3.872  0.1910 -0.5697  0.1554
 6658SOL    HW120873   6.909   2.449   3.816  1.1754 -0.9289 -0.5102
 6658SOL    HW220874   6.975   2.470   3.964  1.5853 -2.0559 -0.5235
 6659SOL     OW20875   0.253   0.542   0.996 -0.3490  0.0494 -0.1930
 6659SOL    HW120876   0.274   0.445   1.008  0.4936  0.0587 -1.3850
 6659SOL    HW220877   0.288   0.594   1.074 -1.0946 -0.6300  0.6078
 6660SOL     OW20878   1.760   0.870   2.753  0.5038 -0.2127  0.3313
 6660SOL    HW120879   1.856   0.899   2.748  0.4461  0.7469  2.9915
 6660SOL    HW220880   1.704   0.949   2.778 -1.0210 -0.7835 -1.1026
 6661SOL     OW20881   3.139   6.279   2.895 -0.1271  0.1263  0.4997
 6661SOL    HW120882   3.052   6.313   2.860  0.4030  0.8731 -0.1267
 6661SOL    HW220883   3.212   6.300   2.830  0.5909 -0.1384  1.1972
 6662SOL     OW20884   5.297   5.740   0.163 -0.2966 -0.4086  0.2546
 6662SOL    HW120885   5.318   5.689   0.246 -2.8124 -0.7293  0.7706
 6662SOL    HW220886   5.237   5.817   0.185 -3.5762 -2.2108 -1.4921
 6663SOL     OW20887   1.260   0.311   6.932 -0.3833  0.0452  0.3393
 6663SOL    HW120888   1.169   0.321   6.891 -1.0169 -2.5811  0.9171
 6663SOL    HW220889   1.253   0.321   7.031 -0.5381 -2.4716  0.6323
 6664SOL     OW20890   2.087   0.085   3.138 -0.0739 -0.9449 -0.6626
 6664SOL    HW120891   2.089   0.002   3.082  0.5462 -0.9879 -0.5832
 6664SOL    HW220892   1.993   0.105   3.163 -0.3129 -1.1588 -1.3702
 6665SOL     OW20893   1.886   0.865   0.050  0.0274  0.0665 -0.1580
 6665SOL    HW120894   1.936   0.896  -0.032  1.1918 -0.9700  0.1220
 6665SOL    HW220895   1.831   0.940   0.086  1.8284  1.4717 -0.1767
 6666SOL     OW20896   4.193   6.511   6.934  0.0179 -0.3499 -0.0226
 6666SOL    HW120897   4.202   6.557   6.846 -1.0744  0.2909  0.1825
 6666SOL    HW220898   4.144   6.570   6.998  2.2925 -0.0810  1.5949
 6667SOL     OW20899   0.422   4.572   5.542 -0.0586  0.7253 -0.2652
 6667SOL    HW120900   0.454   4.662   5.512  1.0634 -0.0039 -1.3728
 6667SOL    HW220901   0.472   4.545   5.625  1.1830  0.2408 -1.1372
 6668SOL     OW20902   4.915   5.197   5.903 -0.6445  0.1275  0.2654
 6668SOL    HW120903   4.928   5.251   5.986 -0.7478  0.8473 -0.1754
 6668SOL    HW220904   4.857   5.247   5.839  0.3671  0.1009 -0.7042
 6669SOL     OW20905   0.074   2.863   4.091  0.2136 -0.3413  0.0913
 6669SOL    HW120906   0.140   2.936   4.074  1.6123 -1.8176 -1.0915
 6669SOL    HW220907   0.087   2.827   4.183 -0.0014  0.3755  0.4150
 6670SOL     OW20908   2.492   3.485   0.872 -0.5613 -0.0672  0.2535
 6670SOL    HW120909   2.416   3.471   0.935 -0.4678  0.7563  0.5573
 6670SOL    HW220910   2.525   3.579   0.879  0.7953 -0.5256  0.4832
 6671SOL     OW20911   0.526   6.617   0.141  0.2511  0.2634  0.4630
 6671SOL    HW120912   0.468   6.682   0.093  1.0998 -0.8915 -2.2963
 6671SOL    HW220913   0.473   6.535   0.163  0.3570 -0.0405 -0.3907
 6672SOL     OW20914   1.921   3.688   1.558  0.7182 -0.4651  0.2351
 6672SOL    HW120915   1.965   3.767   1.600 -2.5579  1.7211 -0.0600
 6672SOL    HW220916   1.971   3.662   1.476  1.8571  1.3685  0.2860
 6673SOL     OW20917   6.910   3.196   4.177 -0.0602 -0.4787  0.0353
 6673SOL    HW120918   6.949   3.285   4.154 -1.7049  0.1860 -0.3244
 6673SOL    HW220919   6.981   3.126   4.171  1.5580  0.9328  1.4308
 6674SOL     OW20920   6.209   1.227   0.025 -0.2541  0.4274 -0.5351
 6674SOL    HW120921   6.157   1.282   0.090 -0.3757  0.4252 -0.6307
 6674SOL    HW220922   6.246   1.147   0.072  1.9268  1.7792  0.1905
 6675SOL     OW20923   4.594   0.410   1.226  0.5094  0.1942 -0.0269
 6675SOL    HW120924   4.577   0.411   1.127  1.7303  0.9819 -0.2479
 6675SOL    HW220925   4.662   0.339   1.247 -2.0636 -2.2612  0.7214
 6676SOL     OW20926   2.206   2.891   3.959 -0.3666 -0.1214 -0.0791
 6676SOL    HW120927   2.133   2.934   4.013 -0.5575  0.5635 -0.8617
 6676SOL    HW220928   2.218   2.941   3.873  0.5135 -0.6831 -0.2983
 6677SOL     OW20929   6.441   2.568   1.613 -0.3586 -0.0575  0.0372
 6677SOL    HW120930   6.524   2.623   1.619 -0.4895  0.5406 -2.4139
 6677SOL    HW220931   6.361   2.628   1.622 -0.4958  0.0141 -1.4087
 6678SOL     OW20932   2.344   3.549   6.368 -0.2269 -0.0962 -0.3889
 6678SOL    HW120933   2.265   3.502   6.328 -1.0477  0.7324  0.2159
 6678SOL    HW220934   2.343   3.538   6.467  0.4285 -0.0996 -0.3805
 6679SOL     OW20935   0.148   0.975   4.177 -0.0281  0.2161  0.4789
 6679SOL    HW120936   0.207   0.957   4.256  0.8826  1.4794  0.1122
 6679SOL    HW220937   0.191   1.044   4.119 -2.3463  1.9767  0.7253
 6680SOL     OW20938   6.910   5.634   3.251  0.0121 -0.3133 -0.2036
 6680SOL    HW120939   6.872   5.568   3.316  0.7726 -0.1191  0.4487
 6680SOL    HW220940   6.864   5.722   3.262 -0.4653 -0.5190 -0.5377
 6681SOL     OW20941   4.086   6.919   0.585  0.0979  0.5853 -0.7157
 6681SOL    HW120942   4.070   6.845   0.519 -1.3774 -1.8061  2.0492
 6681SOL    HW220943   4.176   6.906   0.627  0.6545  1.5707 -1.5644
 6682SOL     OW20944   1.804   5.764   5.424 -0.7832  0.2144 -1.0353
 6682SOL    HW120945   1.813   5.811   5.511 -4.5334 -0.7789  0.0983
 6682SOL    HW220946   1.732   5.808   5.370 -3.5741 -3.1346 -0.4396
 6683SOL     OW20947   6.245   6.734   5.787  0.4646  0.0195  0.2550
 6683SOL    HW120948   6.253   6.637   5.763  0.2144  0.2216 -0.6850
 6683SOL    HW220949   6.331   6.766   5.825  1.5475  0.1239 -2.0973
 6684SOL     OW20950   0.618   0.316   5.540  0.3362  0.3695 -0.7835
 6684SOL    HW120951   0.530   0.297   5.496  0.4358 -2.4938  0.0601
 6684SOL    HW220952   0.678   0.361   5.474 -1.5188  1.9103 -1.5470
 6685SOL     OW20953   3.568   2.500   0.648  0.5900  0.3314  0.2906
 6685SOL    HW120954   3.638   2.467   0.585  0.1272 -1.2488  0.5531
 6685SOL    HW220955   3.603   2.495   0.742  0.6125  0.8680  0.3119
 6686SOL     OW20956   4.541   4.550   5.209 -0.4623  0.5231 -0.2587
 6686SOL    HW120957   4.491   4.565   5.295 -1.9052  1.3813 -1.2023
 6686SOL    HW220958   4.478   4.514   5.140  0.8258 -0.8103 -0.7999
 6687SOL     OW20959   1.287   1.579   0.725  0.5934  1.3437  0.1221
 6687SOL    HW120960   1.359   1.541   0.668 -2.1389 -1.8119 -1.6251
 6687SOL    HW220961   1.306   1.560   0.822  1.8302  0.0967 -0.3414
 6688SOL     OW20962   4.795   0.896   6.253 -0.6284 -0.1685  0.3833
 6688SOL    HW120963   4.868   0.861   6.311 -1.6064  2.1014  3.2111
 6688SOL    HW220964   4.834   0.932   6.168  1.2483 -0.8134  0.9310
 6689SOL     OW20965   3.537   4.810   6.555  0.8086 -0.2031 -0.8139
 6689SOL    HW120966   3.458   4.838   6.609  1.2533 -0.5474  0.0231
 6689SOL    HW220967   3.615   4.870   6.576  0.8911 -0.1288 -1.3207
 6690SOL     OW20968   6.962   1.620   0.560 -0.1693 -0.0815  0.2113
 6690SOL    HW120969   6.866   1.621   0.530 -0.4791  1.6856  1.1244
 6690SOL    HW220970   7.020   1.596   0.483 -1.3356 -1.2444 -0.3501
 6691SOL     OW20971   0.669   6.574   1.922 -0.0149  0.1943  0.7606
 6691SOL    HW120972   0.652   6.671   1.939 -1.2101 -0.1226  1.5122
 6691SOL    HW220973   0.673   6.557   1.823 -1.4575  0.7633  0.5868
 6692SOL     OW20974   5.633   5.512   3.980  0.1490  0.5079  0.1091
 6692SOL    HW120975   5.572   5.452   4.032  0.7771  0.5642  0.9374
 6692SOL    HW220976   5.699   5.456   3.928  1.1540  0.4509  1.3911
 6693SOL     OW20977   1.208   0.595   5.209  0.9020  0.0022  0.1355
 6693SOL    HW120978   1.271   0.610   5.132  0.2532  0.5159 -0.3056
 6693SOL    HW220979   1.246   0.636   5.292  0.2365  2.1560 -0.5502
 6694SOL     OW20980   2.298   3.727   1.304 -0.2065 -0.1151  0.8395
 6694SOL    HW120981   2.267   3.652   1.364  0.3088 -0.9297  0.1067
 6694SOL    HW220982   2.394   3.713   1.280 -0.5100 -0.0191 -0.4996
 6695SOL     OW20983   4.068   3.262   0.162  0.2136  0.3203  0.7997
 6695SOL    HW120984   4.096   3.353   0.191  0.5306  0.0345  1.4178
 6695SOL    HW220985   4.147   3.214   0.123 -0.5142  1.2288 -2.0180
 6696SOL     OW20986   3.732   4.030   3.091 -0.6304  0.0219  0.3009
 6696SOL    HW120987   3.783   3.946   3.073 -1.1372 -0.3519  0.5615
 6696SOL    HW220988   3.736   4.089   3.011 -0.1155 -0.1738  0.1810
 6697SOL     OW20989   4.469   1.403   2.243 -0.2506  0.0998  0.1436
 6697SOL    HW120990   4.547   1.442   2.292  1.0433 -2.3211  0.1976
 6697SOL    HW220991   4.498   1.376   2.151 -1.0934 -0.6104  0.0737
 6698SOL     OW20992   1.198   3.119   1.481 -0.2583 -0.0723 -0.0302
 6698SOL    HW120993   1.270   3.128   1.551 -0.5409  0.0355  0.2485
 6698SOL    HW220994   1.181   3.208   1.439  0.5068 -0.2927 -0.8403
 6699SOL     OW20995   1.620   4.352   5.515  0.6735 -0.0468  0.0095
 6699SOL    HW120996   1.602   4.449   5.529 -1.1857 -0.6664  2.7018
 6699SOL    HW220997   1.718   4.334   5.519  0.9921  1.6170  0.0138
 6700SOL     OW20998   4.083   6.743   0.033 -0.3708  0.3269 -0.4129
 6700SOL    HW120999   4.052   6.783   0.119 -1.1300 -0.5876 -0.2424
 6700SOL    HW221000   4.050   6.797  -0.044 -0.7857  0.4239 -0.1660
 6701SOL     OW21001   5.749   0.115   6.282  0.3515 -0.4846  0.3978
 6701SOL    HW121002   5.757   0.043   6.351 -0.6519  0.2651  1.3549
 6701SOL    HW221003   5.834   0.168   6.279  0.5647 -0.7977  0.7500
 6702SOL     OW21004   5.281   3.198   0.634  0.3569 -0.2588  0.4432
 6702SOL    HW121005   5.206   3.171   0.694  0.4739  0.3763  0.8807
 6702SOL    HW221006   5.325   3.280   0.670 -0.9370  1.4386 -1.6031
 6703SOL     OW21007   6.770   6.235   1.869  0.1534 -0.0470 -0.2516
 6703SOL    HW121008   6.838   6.303   1.897 -0.2526 -0.0749  0.8329
 6703SOL    HW221009   6.720   6.270   1.789  0.9845  0.2553 -0.6519
 6704SOL     OW21010   1.511   4.430   5.869  0.5160 -0.1194  0.7234
 6704SOL    HW121011   1.414   4.405   5.862  0.4959 -0.5613  2.1744
 6704SOL    HW221012   1.535   4.492   5.795 -0.7520 -0.4046  0.0478
 6705SOL     OW21013   2.191   5.001   2.696  0.4359 -0.0355  0.1066
 6705SOL    HW121014   2.187   5.042   2.787 -2.1006 -0.3644  0.2259
 6705SOL    HW221015   2.226   4.907   2.703  0.5299  0.0423  0.7014
 6706SOL     OW21016   6.494   0.244   0.419  0.0250 -0.0931 -0.1523
 6706SOL    HW121017   6.406   0.198   0.431  1.0982 -1.9305  1.1195
 6706SOL    HW221018   6.491   0.302   0.338 -1.8714 -1.3010 -0.9930
 6707SOL     OW21019   4.019   0.222   2.941  0.0056 -0.4585  0.3013
 6707SOL    HW121020   3.995   0.158   3.014  0.5566 -1.6340 -0.5012
 6707SOL    HW221021   4.111   0.200   2.908  0.7748  1.6458  0.9129
 6708SOL     OW21022   0.467   3.696   1.531 -0.1498  0.0693 -0.0884
 6708SOL    HW121023   0.564   3.713   1.551 -0.3027  1.7423 -0.5934
 6708SOL    HW221024   0.459   3.619   1.468  0.9401  0.5699 -0.8773
 6709SOL     OW21025   0.941   4.515   1.368 -0.4238  0.1427  0.1294
 6709SOL    HW121026   1.023   4.549   1.322 -0.1469 -1.8410 -0.9671
 6709SOL    HW221027   0.916   4.577   1.443  0.6770  2.0272 -0.9967
 6710SOL     OW21028   5.210   3.340   1.205  0.4013  0.6088 -0.6312
 6710SOL    HW121029   5.220   3.337   1.304  0.5767 -0.5021 -0.6684
 6710SOL    HW221030   5.187   3.249   1.171  1.3885  0.7324 -1.7171
 6711SOL     OW21031   3.630   6.899   0.102  0.2056  0.2676  0.3541
 6711SOL    HW121032   3.573   6.849   0.037  0.8646 -0.6306  0.4506
 6711SOL    HW221033   3.573   6.942   0.172 -0.4717  0.8122 -0.5126
 6712SOL     OW21034   5.614   2.984   0.653 -0.0653  0.6222  0.5624
 6712SOL    HW121035   5.670   3.045   0.598 -0.3828 -0.7283 -1.3336
 6712SOL    HW221036   5.529   2.963   0.605 -0.7754  0.1066  1.9799
 6713SOL     OW21037   1.947   5.260   4.910 -0.0070 -0.2575 -0.1171
 6713SOL    HW121038   2.009   5.213   4.972 -0.6907  0.9757  1.5669
 6713SOL    HW221039   1.899   5.193   4.854  1.7053 -1.3152 -0.4109
 6714SOL     OW21040   5.957   0.825   3.116 -0.0077  0.0471 -0.5582
 6714SOL    HW121041   5.914   0.887   3.050 -0.7009 -1.1902 -1.3019
 6714SOL    HW221042   5.887   0.787   3.177  0.6968  1.6626  1.3805
 6715SOL     OW21043   5.776   0.334   4.021  0.2246 -0.0973 -0.5717
 6715SOL    HW121044   5.691   0.303   4.062 -0.7045  0.6917 -1.8363
 6715SOL    HW221045   5.776   0.313   3.923  1.8950 -0.9099 -0.4454
 6716SOL     OW21046   0.097   3.481   2.059  0.2057  0.0500  0.1843
 6716SOL    HW121047   0.064   3.387   2.050 -0.7217  0.2074  1.6368
 6716SOL    HW221048   0.035   3.533   2.119  3.1316  0.2911  3.2900
 6717SOL     OW21049   5.921   3.121   4.242 -0.3311  0.0138 -0.0882
 6717SOL    HW121050   5.872   3.164   4.318  2.2835  2.5482  0.3227
 6717SOL    HW221051   5.918   3.181   4.162 -0.3258 -1.1320 -0.9778
 6718SOL     OW21052   5.179   1.784   0.927 -0.4944 -0.9566  0.0228
 6718SOL    HW121053   5.095   1.831   0.902 -0.2466  0.8123  2.1503
 6718SOL    HW221054   5.217   1.826   1.010  2.9158 -1.1220 -1.2675
 6719SOL     OW21055   6.957   6.467   6.470 -0.0160  0.4555  0.0844
 6719SOL    HW121056   7.033   6.421   6.425 -1.1076 -0.4856 -0.8412
 6719SOL    HW221057   6.991   6.513   6.553  1.9781  1.9977 -1.4740
 6720SOL     OW21058   1.976   2.296   6.534 -0.0145 -0.6307  0.1664
 6720SOL    HW121059   1.990   2.299   6.633  0.4608  1.1420  0.0757
 6720SOL    HW221060   2.064   2.307   6.487 -0.3348 -0.6493 -0.4501
 6721SOL     OW21061   5.951   0.628   3.887 -0.3953 -0.1138 -0.5870
 6721SOL    HW121062   5.862   0.655   3.923 -0.1524  0.6713 -0.5411
 6721SOL    HW221063   5.997   0.567   3.952 -0.3048  0.6281  0.0579
 6722SOL     OW21064   5.916   3.839   1.547 -0.5517  0.4228 -0.4672
 6722SOL    HW121065   5.970   3.776   1.603 -1.3466 -1.2215 -1.4728
 6722SOL    HW221066   5.971   3.920   1.526  1.0657 -0.6095 -0.4022
 6723SOL     OW21067   1.833   3.788   4.024 -0.0582  0.5376  0.2006
 6723SOL    HW121068   1.924   3.765   3.989  0.5331  1.4052  1.0854
 6723SOL    HW221069   1.789   3.852   3.961  0.7704  1.6569  0.7148
 6724SOL     OW21070   1.977   3.697   5.316  0.7253 -0.5391 -0.4156
 6724SOL    HW121071   2.054   3.656   5.267  2.1539  1.1170  0.3267
 6724SOL    HW221072   1.985   3.797   5.315 -0.7447 -0.3601  0.7451
 6725SOL     OW21073   4.834   1.150   3.091  0.0805  0.3966  0.0483
 6725SOL    HW121074   4.831   1.104   3.180 -0.0433  0.7243  0.2108
 6725SOL    HW221075   4.748   1.198   3.075 -0.0884 -0.0688 -0.4653
 6726SOL     OW21076   1.571   2.032   6.882 -0.0762 -0.2605  0.3875
 6726SOL    HW121077   1.570   2.115   6.826 -0.1046  0.3803  1.3146
 6726SOL    HW221078   1.665   2.010   6.907 -0.1944  0.6610  1.7913
 6727SOL     OW21079   0.516   6.703   6.090  0.2840 -0.2091 -0.3433
 6727SOL    HW121080   0.600   6.732   6.137 -1.6849  0.8110  2.8598
 6727SOL    HW221081   0.468   6.784   6.055 -2.2861  0.1755  3.4052
 6728SOL     OW21082   3.885   0.464   6.176 -0.3411  0.1434  0.5174
 6728SOL    HW121083   3.913   0.525   6.101  0.5947 -0.8115  0.0630
 6728SOL    HW221084   3.938   0.379   6.172 -1.6647 -0.7536  1.0804
 6729SOL     OW21085   3.517   2.089   2.904 -0.2743 -0.0944  0.1898
 6729SOL    HW121086   3.517   1.990   2.895  1.3990 -0.1718  0.6036
 6729SOL    HW221087   3.543   2.131   2.817 -1.0449 -0.0080 -0.0031
 6730SOL     OW21088   6.828   6.503   1.428  0.1685  0.3225 -0.4247
 6730SOL    HW121089   6.843   6.439   1.353  1.0568  0.2454 -0.1899
 6730SOL    HW221090   6.833   6.597   1.394 -1.7602  0.2989 -0.8918
 6731SOL     OW21091   3.101   0.570   5.030 -0.0409  0.2693 -0.1602
 6731SOL    HW121092   3.009   0.536   5.047 -0.1680 -0.7732 -2.5430
 6731SOL    HW221093   3.098   0.647   4.966  0.6043  2.1534  1.8997
 6732SOL     OW21094   1.130   2.876   5.763 -0.7130 -0.7622  0.3155
 6732SOL    HW121095   1.123   2.871   5.664  0.8976 -3.2157  0.2412
 6732SOL    HW221096   1.182   2.958   5.789  0.5010 -1.0735 -1.0131
 6733SOL     OW21097   7.012   5.220   0.562 -0.6057 -0.3120  0.3638
 6733SOL    HW121098   7.089   5.215   0.498  0.1512  0.1062  1.2348
 6733SOL    HW221099   6.949   5.144   0.544  1.4540 -2.4119  1.4904
 6734SOL     OW21100   4.950   2.210   6.015  0.0519 -0.3472 -0.4214
 6734SOL    HW121101   4.974   2.235   6.109  0.0616 -0.3168 -0.4316
 6734SOL    HW221102   4.901   2.124   6.015 -1.5835  0.5473 -0.2050
 6735SOL     OW21103   6.482   2.062   6.165  0.8727 -0.4527  0.3631
 6735SOL    HW121104   6.469   2.007   6.247  1.9557 -0.5620  0.4815
 6735SOL    HW221105   6.411   2.132   6.159  0.5649 -0.6912  1.1876
 6736SOL     OW21106   3.903   2.961   0.977 -0.2711 -0.0008  0.7793
 6736SOL    HW121107   3.906   2.900   1.056 -1.3332 -0.0216  0.8149
 6736SOL    HW221108   3.919   3.055   1.007  4.0111 -0.4246  0.4169
 6737SOL     OW21109   6.186   1.019   2.775  0.3783 -0.4203  0.1683
 6737SOL    HW121110   6.211   1.091   2.710 -1.5769  0.4148  0.2826
 6737SOL    HW221111   6.096   0.984   2.753  1.1237 -2.6156  0.3640
 6738SOL     OW21112   1.450   6.215   2.720 -0.2188  0.3179  0.0358
 6738SOL    HW121113   1.425   6.196   2.625  0.4951  1.1255 -0.3215
 6738SOL    HW221114   1.442   6.313   2.738  0.3915  0.2735  0.5907
 6739SOL     OW21115   6.665   0.495   6.959  0.5122  0.0258  0.1667
 6739SOL    HW121116   6.598   0.522   6.890  1.4889  0.4067 -0.6606
 6739SOL    HW221117   6.661   0.396   6.972 -0.0717  0.0206 -0.0138
 6740SOL     OW21118   1.669   1.149   6.904 -0.2432 -0.2642 -0.6253
 6740SOL    HW121119   1.594   1.213   6.912  0.8158  1.1646 -1.5822
 6740SOL    HW221120   1.740   1.171   6.971  0.1957 -0.3389 -1.0588
 6741SOL     OW21121   2.476   3.578   5.414  0.0758 -0.2309  0.1342
 6741SOL    HW121122   2.517   3.576   5.505 -0.0910  0.7731  0.2477
 6741SOL    HW221123   2.544   3.547   5.347  0.2584 -0.7962  0.5706
 6742SOL     OW21124   6.265   3.913   1.869 -0.2357  0.7255  0.3203
 6742SOL    HW121125   6.181   3.870   1.903 -0.6957  1.1178 -0.2980
 6742SOL    HW221126   6.242   3.980   1.798  0.6117  0.7307  0.0382
 6743SOL     OW21127   2.123   6.808   6.098  0.0283 -0.6148 -0.0385
 6743SOL    HW121128   2.183   6.856   6.035  0.4229 -1.1154 -0.0568
 6743SOL    HW221129   2.028   6.836   6.083 -0.0274 -1.5413 -1.6141
 6744SOL     OW21130   6.675   6.075   0.091  0.3956  0.3396 -0.1125
 6744SOL    HW121131   6.751   6.027   0.135 -0.1724 -1.2737 -0.7895
 6744SOL    HW221132   6.710   6.155   0.042  1.6266 -0.2132 -0.1882
 6745SOL     OW21133   5.526   1.767   2.788  0.3693 -0.4835  0.5186
 6745SOL    HW121134   5.490   1.796   2.699  0.2945 -0.3476  0.5927
 6745SOL    HW221135   5.625   1.758   2.783  0.8166  2.8002  1.3022
 6746SOL     OW21136   0.890   1.823   4.445  0.2778 -0.2852 -0.3633
 6746SOL    HW121137   0.840   1.828   4.359  0.7778  0.4748 -0.6259
 6746SOL    HW221138   0.871   1.905   4.499  0.0800 -0.6901  0.1911
 6747SOL     OW21139   0.386   0.826   6.056  0.2741 -0.2459  0.3812
 6747SOL    HW121140   0.403   0.900   6.121 -0.5123 -1.1612  1.6663
 6747SOL    HW221141   0.299   0.842   6.010  0.9103  0.4904 -0.6129
 6748SOL     OW21142   0.915   4.875   3.937 -0.2813 -0.3093 -0.0122
 6748SOL    HW121143   0.959   4.928   3.865  2.1303 -1.2794  0.6512
 6748SOL    HW221144   0.965   4.888   4.023 -1.9868 -0.6244  1.0709
 6749SOL     OW21145   3.134   5.923   2.852 -0.6622 -0.2561 -0.2234
 6749SOL    HW121146   3.159   5.877   2.938 -2.3215  1.8220  1.4850
 6749SOL    HW221147   3.162   6.019   2.857  0.3043 -0.3570 -2.5760
 6750SOL     OW21148   1.716   0.786   5.392  0.2722 -0.3027 -0.1033
 6750SOL    HW121149   1.791   0.789   5.458 -0.4041 -2.5128  0.8703
 6750SOL    HW221150   1.629   0.783   5.441 -0.3630  0.0081 -1.1717
 6751SOL     OW21151   3.877   2.167   4.317 -0.1185 -0.4771  0.0193
 6751SOL    HW121152   3.850   2.258   4.349 -0.0812 -1.0695  1.8229
 6751SOL    HW221153   3.948   2.130   4.377 -0.7590 -2.0597 -0.1507
 6752SOL     OW21154   3.142   4.876   2.584 -0.1300  0.5453 -0.0948
 6752SOL    HW121155   3.218   4.882   2.648 -0.4745  1.2046  0.2746
 6752SOL    HW221156   3.176   4.860   2.491  0.4352  0.5368  0.1142
 6753SOL     OW21157   5.467   3.954   1.136 -0.2137 -0.0989 -0.9320
 6753SOL    HW121158   5.457   4.008   1.219 -1.3233 -1.3560 -0.1934
 6753SOL    HW221159   5.482   3.858   1.160  1.4144 -0.2150 -2.2013
 6754SOL     OW21160   6.386   7.001   5.669  0.3468 -0.0943  0.0419
 6754SOL    HW121161   6.446   6.950   5.607  0.8819  0.9688 -0.3547
 6754SOL    HW221162   6.291   6.974   5.655  0.5003 -0.1175 -0.9948
 6755SOL     OW21163   3.330   0.400   4.333 -0.4398 -0.1822  0.1678
 6755SOL    HW121164   3.300   0.305   4.345  0.4272 -0.3645  0.9848
 6755SOL    HW221165   3.358   0.414   4.239  1.7887 -1.4530  0.5730
 6756SOL     OW21166   4.364   2.468   0.128 -0.5025 -0.1872  0.1062
 6756SOL    HW121167   4.351   2.550   0.071  0.2013 -0.0982  0.0658
 6756SOL    HW221168   4.403   2.395   0.072  1.5686  0.3455  0.7614
 6757SOL     OW21169   3.934   6.482   2.101  0.4335 -0.2397  0.3091
 6757SOL    HW121170   3.964   6.576   2.084  0.3683 -0.0973  0.9631
 6757SOL    HW221171   3.973   6.450   2.187 -1.8431  0.2183  1.5941
 6758SOL     OW21172   5.260   2.571   2.309  0.3884  0.0694 -0.3852
 6758SOL    HW121173   5.265   2.670   2.296  0.4296  0.2228  0.7347
 6758SOL    HW221174   5.269   2.526   2.220 -1.2924  1.1200 -1.1503
 6759SOL     OW21175   6.595   1.399   2.594  0.4287 -0.8056  0.5624
 6759SOL    HW121176   6.597   1.414   2.495 -1.5495 -0.3788  0.5465
 6759SOL    HW221177   6.587   1.488   2.641  3.6478 -0.7858  1.2733
 6760SOL     OW21178   0.783   1.692   6.118 -0.6512  0.4945  1.1141
 6760SOL    HW121179   0.715   1.706   6.190  1.0873  2.4139  2.4858
 6760SOL    HW221180   0.867   1.657   6.157  0.5885  2.2751  0.2056
 6761SOL     OW21181   1.387   5.918   5.129  0.2073  0.9548 -0.4408
 6761SOL    HW121182   1.356   5.971   5.208 -0.0020  1.4766 -0.8671
 6761SOL    HW221183   1.310   5.901   5.068 -0.2956 -1.8824  0.8001
 6762SOL     OW21184   5.201   4.243   2.855  0.1320 -0.2251 -0.0778
 6762SOL    HW121185   5.156   4.225   2.768  0.3646  1.4437 -0.5727
 6762SOL    HW221186   5.166   4.180   2.924 -1.5738 -0.2137 -0.8787
 6763SOL     OW21187   5.789   6.920   2.845 -0.4065  0.3593  0.1958
 6763SOL    HW121188   5.841   6.902   2.762 -0.3069 -2.4311  0.7617
 6763SOL    HW221189   5.691   6.923   2.823 -0.5644 -2.3378  0.1039
 6764SOL     OW21190   1.670   5.634   2.835 -0.6963  0.9971  0.0483
 6764SOL    HW121191   1.581   5.607   2.800  0.0376 -1.3284 -0.1811
 6764SOL    HW221192   1.742   5.594   2.779  0.4938  0.6311  1.7436
 6765SOL     OW21193   0.792   4.485   2.996  0.4278  0.3807  0.0155
 6765SOL    HW121194   0.813   4.481   2.898 -0.1058 -0.5514 -0.0678
 6765SOL    HW221195   0.775   4.393   3.030  2.2904  0.4769  1.3773
 6766SOL     OW21196   6.601   6.693   1.963 -0.3547  0.3715  0.6041
 6766SOL    HW121197   6.551   6.779   1.955 -0.3438  0.2333 -1.5851
 6766SOL    HW221198   6.699   6.711   1.953 -0.4860 -0.0605 -2.2229
 6767SOL     OW21199   3.761   0.147   2.684  0.8361  0.0742  0.1284
 6767SOL    HW121200   3.840   0.200   2.653  0.4228  0.6258  0.0033
 6767SOL    HW221201   3.678   0.201   2.673  0.4558 -0.4381  0.4182
 6768SOL     OW21202   5.969   1.919   0.018 -0.2974 -0.2409  0.5829
 6768SOL    HW121203   6.020   1.836  -0.007 -0.8046 -0.2606 -0.3888
 6768SOL    HW221204   5.972   1.929   0.118  0.3004 -1.0818  0.6712
 6769SOL     OW21205   6.041   3.891   0.746  0.1614 -0.2765  0.1126
 6769SOL    HW121206   6.042   3.799   0.785 -1.8513 -0.1533  0.5744
 6769SOL    HW221207   5.998   3.954   0.810 -2.4209  0.1200 -1.8015
 6770SOL     OW21208   6.870   0.890   1.024 -0.1417 -0.0727  0.7007
 6770SOL    HW121209   6.967   0.905   1.004  0.0814 -1.1448  0.9101
 6770SOL    HW221210   6.815   0.950   0.966  0.6613  1.1481  1.1743
 6771SOL     OW21211   4.616   0.484   4.462 -0.1759 -0.4708 -0.8899
 6771SOL    HW121212   4.596   0.430   4.380 -0.1910 -1.2477 -0.3940
 6771SOL    HW221213   4.689   0.548   4.443 -3.1545  2.6716 -2.8523
 6772SOL     OW21214   6.838   1.408   6.595  0.1394  0.2099  0.3336
 6772SOL    HW121215   6.846   1.497   6.552  0.0709  0.5923  1.1011
 6772SOL    HW221216   6.741   1.384   6.603  0.1388  0.2754  0.5395
 6773SOL     OW21217   0.736   1.885   4.221 -0.5611  0.1458 -0.1753
 6773SOL    HW121218   0.705   1.980   4.216  0.3647  0.7814  3.3047
 6773SOL    HW221219   0.658   1.824   4.215 -1.5112  1.2792  0.1846
 6774SOL     OW21220   0.222   4.036   6.705 -0.3995  0.3869 -0.2104
 6774SOL    HW121221   0.285   3.981   6.650  0.6258  1.7738 -0.4980
 6774SOL    HW221222   0.190   3.983   6.783  0.6946 -0.5399 -0.3632
 6775SOL     OW21223   6.450   3.352   6.828  0.4095 -0.3410 -0.6832
 6775SOL    HW121224   6.520   3.401   6.879  1.1833 -0.4166 -1.6258
 6775SOL    HW221225   6.488   3.320   6.741 -0.4987 -1.3185 -0.7548
 6776SOL     OW21226   6.133   1.588   5.920 -0.9439  0.0515 -0.2081
 6776SOL    HW121227   6.128   1.667   5.859  0.6309 -0.2198 -0.7369
 6776SOL    HW221228   6.065   1.597   5.993 -1.5339  1.3343 -0.8976
 6777SOL     OW21229   4.667   4.719   0.418 -0.5649 -0.1163 -0.6518
 6777SOL    HW121230   4.641   4.677   0.331 -0.4218  0.6588 -1.0743
 6777SOL    HW221231   4.627   4.810   0.425 -2.0247 -0.8275  0.8756
 6778SOL     OW21232   0.841   0.180   3.552 -0.0337 -0.1134  0.1070
 6778SOL    HW121233   0.779   0.190   3.630  0.0117  0.1300  0.1136
 6778SOL    HW221234   0.898   0.262   3.545 -0.2576  0.0075 -0.3715
 6779SOL     OW21235   4.250   3.734   6.369 -0.5499 -0.0404  0.3425
 6779SOL    HW121236   4.250   3.643   6.410  2.4206 -0.3231 -0.0764
 6779SOL    HW221237   4.297   3.798   6.430 -0.7649  0.7579 -0.3029
 6780SOL     OW21238   2.295   2.035   2.186  0.2030  0.0702  0.1670
 6780SOL    HW121239   2.284   2.086   2.101 -0.5065 -0.2322  0.0698
 6780SOL    HW221240   2.359   1.960   2.172  0.9544  0.6991  0.2072
 6781SOL     OW21241   6.877   5.189   4.903  0.1899 -0.8092 -0.3668
 6781SOL    HW121242   6.966   5.218   4.939 -0.6240  0.0875  1.0230
 6781SOL    HW221243   6.821   5.153   4.978 -0.7720 -0.9692 -1.1484
 6782SOL     OW21244   1.903   1.324   5.279  0.6057  0.5546 -0.3383
 6782SOL    HW121245   1.858   1.402   5.323  0.6343  1.8354 -2.4227
 6782SOL    HW221246   1.844   1.244   5.284  0.7644  0.5170  2.2461
 6783SOL     OW21247   1.138   4.321   0.057  0.4176 -0.4430  0.4905
 6783SOL    HW121248   1.132   4.224   0.079  1.1372 -0.8930 -1.1335
 6783SOL    HW221249   1.051   4.366   0.077  0.7509 -0.9073  3.3849
 6784SOL     OW21250   4.053   4.511   5.744  0.1541 -0.0854  0.6713
 6784SOL    HW121251   4.115   4.510   5.823  0.1265 -0.7618  0.6905
 6784SOL    HW221252   4.025   4.418   5.723 -0.1438  0.1315  0.0961
 6785SOL     OW21253   5.953   5.018   1.720  0.0854  0.0327  0.2279
 6785SOL    HW121254   5.999   4.953   1.660  0.0231 -0.1776  0.4023
 6785SOL    HW221255   5.937   5.103   1.672 -0.0589 -0.1709 -0.0852
 6786SOL     OW21256   2.823   2.336   4.172  0.6634  0.5385 -0.4362
 6786SOL    HW121257   2.805   2.242   4.141 -0.7750  0.3934  0.7221
 6786SOL    HW221258   2.738   2.376   4.206  1.2633  2.2753 -0.8985
 6787SOL     OW21259   1.677   4.896   1.468 -0.0180  0.0693  0.4951
 6787SOL    HW121260   1.597   4.846   1.434  1.3089 -2.1902  0.5108
 6787SOL    HW221261   1.695   4.870   1.563  0.1525  1.3411  0.8242
 6788SOL     OW21262   2.458   3.736   0.710 -0.1792 -0.1302 -0.1529
 6788SOL    HW121263   2.416   3.648   0.685  3.1855 -2.0842  0.4045
 6788SOL    HW221264   2.514   3.768   0.634  1.3983 -0.3623  0.8706
 6789SOL     OW21265   2.645   5.364   3.161  0.3756 -0.4069 -0.0887
 6789SOL    HW121266   2.712   5.402   3.098  1.4891  0.0676  1.3183
 6789SOL    HW221267   2.567   5.426   3.170  0.8843  0.2229  0.0760
 6790SOL     OW21268   0.943   2.868   2.934 -0.4660  0.4994 -0.8547
 6790SOL    HW121269   0.925   2.958   2.974  2.5117  0.5232  0.6912
 6790SOL    HW221270   1.041   2.858   2.918 -0.7329 -2.4851 -1.0407
 6791SOL     OW21271   2.377   5.476   5.640 -0.2333  0.3442 -0.7486
 6791SOL    HW121272   2.300   5.504   5.697 -0.6447 -2.0910  0.0011
 6791SOL    HW221273   2.463   5.492   5.689 -0.4772 -0.0958 -0.1718
 6792SOL     OW21274   1.418   0.192   0.216 -0.1401 -0.3427  0.0065
 6792SOL    HW121275   1.389   0.117   0.157 -0.6960 -0.2652  0.1768
 6792SOL    HW221276   1.345   0.259   0.224 -0.3901 -0.7346  1.4035
 6793SOL     OW21277   5.636   1.745   1.594 -0.0846 -0.3589  0.0772
 6793SOL    HW121278   5.623   1.651   1.625 -0.1008 -0.4367 -0.1678
 6793SOL    HW221279   5.679   1.798   1.667 -1.5646 -0.1523  0.8287
 6794SOL     OW21280   3.950   0.905   6.300  0.5317 -0.3644  0.2885
 6794SOL    HW121281   4.014   0.937   6.371  0.6213  1.0693 -0.4157
 6794SOL    HW221282   3.862   0.884   6.342  0.3913  1.0756  0.7443
 6795SOL     OW21283   4.549   0.305   0.379  0.1754 -0.6499 -0.3027
 6795SOL    HW121284   4.524   0.237   0.447 -0.8790 -0.0656 -0.0841
 6795SOL    HW221285   4.483   0.302   0.304  1.2060 -1.1463 -1.2214
 6796SOL     OW21286   4.422   1.173   1.818  0.5939 -0.1784  0.5075
 6796SOL    HW121287   4.331   1.210   1.835  1.1279  1.3064  0.2755
 6796SOL    HW221288   4.429   1.144   1.723  0.6627  0.6283  0.2612
 6797SOL     OW21289   0.362   1.108   3.053  0.3817 -0.7312 -0.0831
 6797SOL    HW121290   0.314   1.184   3.096  0.3726  0.0450 -1.4098
 6797SOL    HW221291   0.395   1.045   3.123 -0.4042  0.0211  0.9820
 6798SOL     OW21292   6.112   6.425   1.228 -0.0854 -0.0018  0.1408
 6798SOL    HW121293   6.190   6.385   1.181  0.3750  1.4043 -0.3469
 6798SOL    HW221294   6.128   6.523   1.242 -1.2988  0.0984  0.9923
 6799SOL     OW21295   6.876   6.592   4.000 -0.0308  0.2692  0.2458
 6799SOL    HW121296   6.834   6.502   3.993 -0.2526  0.4761 -1.3147
 6799SOL    HW221297   6.807   6.662   3.981  0.0564  0.8148  1.7608
 6800SOL     OW21298   4.882   2.479   0.177 -0.7907  0.0405  0.2393
 6800SOL    HW121299   4.961   2.521   0.221 -1.6814  1.4345  0.5916
 6800SOL    HW221300   4.798   2.514   0.218 -1.6218 -0.5084 -0.9064
 6801SOL     OW21301   6.991   1.409   5.992 -0.0869  0.4480  0.3810
 6801SOL    HW121302   7.080   1.379   6.026 -1.5677 -2.2747  2.2416
 6801SOL    HW221303   6.982   1.386   5.895  1.0678  0.3612  0.2888
 6802SOL     OW21304   4.465   5.393   3.888  0.5339  0.0983  0.0454
 6802SOL    HW121305   4.546   5.402   3.945  0.8626 -0.9934 -0.2405
 6802SOL    HW221306   4.407   5.319   3.924  0.3626 -0.0733 -0.5834
 6803SOL     OW21307   4.069   2.347   0.856  0.1797 -0.4714  0.1665
 6803SOL    HW121308   4.150   2.397   0.827 -0.9114  1.6865  0.6847
 6803SOL    HW221309   4.097   2.257   0.891  2.1505 -0.4527 -1.1406
 6804SOL     OW21310   1.625   5.771   4.212  0.6784  0.5315  0.2762
 6804SOL    HW121311   1.667   5.694   4.260  0.4905  0.7062  0.7255
 6804SOL    HW221312   1.612   5.847   4.276  1.8298  1.3249 -0.4099
 6805SOL     OW21313   4.089   1.466   0.444 -0.0645  0.4240  0.1084
 6805SOL    HW121314   4.113   1.369   0.443 -0.3780  0.3455  0.2949
 6805SOL    HW221315   4.153   1.515   0.503 -0.1599  0.2661  0.3431
 6806SOL     OW21316   3.329   5.426   5.336  1.0560  0.0203  0.2830
 6806SOL    HW121317   3.324   5.523   5.361 -2.7595 -0.4562  2.1493
 6806SOL    HW221318   3.294   5.414   5.243  0.3835  0.3887  0.4752
 6807SOL     OW21319   5.054   4.615   4.836  0.3425 -0.3690  0.0897
 6807SOL    HW121320   5.112   4.570   4.769 -0.1485  0.1573 -0.7014
 6807SOL    HW221321   5.090   4.597   4.928  0.5760 -1.7317 -0.2444
 6808SOL     OW21322   2.761   6.168   3.919 -0.1608 -0.0967  0.4847
 6808SOL    HW121323   2.789   6.109   3.994 -1.2627 -0.8988  0.2894
 6808SOL    HW221324   2.825   6.160   3.843  0.0732 -0.4965  0.7242
 6809SOL     OW21325   0.256   3.088   6.407 -0.0275  0.4500  0.0302
 6809SOL    HW121326   0.267   3.187   6.416  0.8760  0.5441 -1.7492
 6809SOL    HW221327   0.186   3.069   6.338 -1.5153 -0.2009  1.6261
 6810SOL     OW21328   5.303   1.009   3.618 -0.0531 -0.1686  0.0331
 6810SOL    HW121329   5.210   1.024   3.653  0.1188 -0.0378  0.4462
 6810SOL    HW221330   5.299   0.954   3.535 -0.5111 -0.0441 -0.0295
 6811SOL     OW21331   3.581   6.772   1.852  0.6424 -0.3569 -0.5640
 6811SOL    HW121332   3.519   6.711   1.902  1.5892  0.2043  1.3950
 6811SOL    HW221333   3.653   6.717   1.809  1.7875 -0.7001  1.6170
 6812SOL     OW21334   4.054   3.621   2.941 -0.0223 -0.0084 -0.2080
 6812SOL    HW121335   4.021   3.574   3.023 -1.6502  0.9274 -0.2922
 6812SOL    HW221336   4.079   3.554   2.872 -0.0355 -0.7737  0.5172
 6813SOL     OW21337   5.493   4.431   1.320 -0.4174 -0.0650 -0.0137
 6813SOL    HW121338   5.455   4.503   1.378  0.7054  0.4323  0.1271
 6813SOL    HW221339   5.591   4.421   1.339  0.3027  1.0232 -2.7581
 6814SOL     OW21340   2.855   1.604   6.832 -0.1677  0.2900 -0.1117
 6814SOL    HW121341   2.942   1.559   6.811 -1.1080 -0.8366 -1.9058
 6814SOL    HW221342   2.793   1.538   6.876 -0.4913  0.7390  0.1126
 6815SOL     OW21343   0.769   6.132   5.391 -0.1980  0.3059  0.0064
 6815SOL    HW121344   0.868   6.139   5.396 -0.0908  0.0074 -1.2311
 6815SOL    HW221345   0.737   6.059   5.452  0.3575  0.2810  0.2704
 6816SOL     OW21346   5.232   3.626   1.168  0.8689 -0.1863  0.5254
 6816SOL    HW121347   5.177   3.701   1.206  0.0723 -0.5255  0.0616
 6816SOL    HW221348   5.203   3.539   1.208  0.5104 -0.4603 -0.3119
 6817SOL     OW21349   0.975   1.560   6.243 -0.2193 -0.0398 -0.4112
 6817SOL    HW121350   1.005   1.502   6.167  0.4846 -0.4667  0.1812
 6817SOL    HW221351   1.054   1.606   6.283 -0.2092 -1.5832  1.5101
 6818SOL     OW21352   4.891   5.672   1.278  0.1757 -0.4177 -0.3955
 6818SOL    HW121353   4.932   5.721   1.201  0.2770  0.2891  0.1017
 6818SOL    HW221354   4.962   5.620   1.326  0.2801 -0.0983 -0.2079
 6819SOL     OW21355   2.549   0.995   3.059  0.3623  0.1114  0.3481
 6819SOL    HW121356   2.574   0.901   3.040  1.0637 -0.2227  2.5762
 6819SOL    HW221357   2.450   1.001   3.072  0.2871 -0.2732 -0.0440
 6820SOL     OW21358   1.278   6.205   4.652 -0.5061 -0.2564 -0.0521
 6820SOL    HW121359   1.262   6.283   4.591 -1.0743 -0.0300  0.3673
 6820SOL    HW221360   1.375   6.182   4.653 -0.2579  0.7211  0.1358
 6821SOL     OW21361   0.421   3.280   4.310  0.2165  0.0273  0.0092
 6821SOL    HW121362   0.339   3.335   4.296  0.2862  0.0976 -0.1235
 6821SOL    HW221363   0.395   3.191   4.348  0.0869  0.0799  0.0442
 6822SOL     OW21364   3.060   2.231   4.240 -0.0963 -0.7355 -0.2199
 6822SOL    HW121365   2.988   2.299   4.224 -0.7044 -1.2210  0.3676
 6822SOL    HW221366   3.063   2.209   4.338  0.0417 -1.5957 -0.4136
 6823SOL     OW21367   3.677   4.080   1.942  0.1003 -0.3990 -0.3670
 6823SOL    HW121368   3.607   4.101   2.011 -1.9239 -0.9546 -2.1459
 6823SOL    HW221369   3.721   4.165   1.913  1.6169 -0.2409  2.1603
 6824SOL     OW21370   0.147   6.260   5.351  0.1540 -0.4123 -0.4430
 6824SOL    HW121371   0.226   6.270   5.411  0.1381 -0.5643 -0.3982
 6824SOL    HW221372   0.089   6.341   5.359 -1.3258 -1.6207  1.8576
 6825SOL     OW21373   5.838   6.670   3.918 -0.0640 -0.4469  0.3231
 6825SOL    HW121374   5.851   6.616   3.834  0.2630 -0.2585  0.2513
 6825SOL    HW221375   5.778   6.747   3.899  0.7203  0.1123  0.0308
 6826SOL     OW21376   1.555   1.793   4.425 -0.5680  0.6152  0.1093
 6826SOL    HW121377   1.526   1.758   4.514 -2.0712  1.5390  0.0272
 6826SOL    HW221378   1.537   1.724   4.355 -3.4996  1.4093 -0.0524
 6827SOL     OW21379   2.498   3.522   6.129  0.2645 -0.5109 -0.0340
 6827SOL    HW121380   2.522   3.435   6.172  0.3067 -0.1278  0.7422
 6827SOL    HW221381   2.473   3.588   6.200  0.5741  0.2128 -0.5852
 6828SOL     OW21382   1.478   2.852   1.705  0.5611  0.0675 -0.2670
 6828SOL    HW121383   1.439   2.766   1.738  0.3993  0.6564  1.1416
 6828SOL    HW221384   1.570   2.863   1.741  0.2954  0.8404  0.1963
 6829SOL     OW21385   0.261   2.507   2.978  0.0511 -0.1646  0.5767
 6829SOL    HW121386   0.305   2.529   2.890 -0.1749  0.9991  0.7440
 6829SOL    HW221387   0.168   2.475   2.961  0.2824 -0.7460  0.3507
 6830SOL     OW21388   3.997   1.627   2.416 -0.4737  0.3795 -0.1248
 6830SOL    HW121389   3.926   1.690   2.385 -2.2377 -2.4461 -2.4640
 6830SOL    HW221390   4.056   1.603   2.339  0.1431 -0.7454  0.6716
 6831SOL     OW21391   0.963   1.746   0.187 -0.0244 -0.0302 -0.2802
 6831SOL    HW121392   0.926   1.718   0.276 -1.8080  1.2048 -0.5735
 6831SOL    HW221393   0.964   1.846   0.182 -0.0844 -0.0867 -1.7017
 6832SOL     OW21394   2.088   5.185   0.602 -0.1491  0.3167 -0.6420
 6832SOL    HW121395   2.124   5.270   0.640 -1.4870  1.2392 -1.3441
 6832SOL    HW221396   2.163   5.129   0.567  0.7299  1.3088 -0.3738
 6833SOL     OW21397   5.467   6.435   0.219 -0.4240 -0.1366  0.1446
 6833SOL    HW121398   5.515   6.355   0.184 -0.4306 -0.2048  0.2909
 6833SOL    HW221399   5.527   6.484   0.283  1.0803  2.0914 -2.7341
 6834SOL     OW21400   2.721   4.782   1.844  0.0352 -0.0946 -0.6245
 6834SOL    HW121401   2.761   4.704   1.892  1.1537  0.9637  0.2095
 6834SOL    HW221402   2.784   4.859   1.847 -2.5730  2.1700  2.0442
 6835SOL     OW21403   4.345   6.335   4.182  0.1154 -0.3075 -0.0840
 6835SOL    HW121404   4.418   6.267   4.180  0.3635 -0.0969  1.0575
 6835SOL    HW221405   4.384   6.426   4.163  0.3271 -0.0751  1.3228
 6836SOL     OW21406   3.736   6.588   0.430  0.6900  0.2759 -0.1304
 6836SOL    HW121407   3.641   6.589   0.398  0.9608  0.4481 -0.9829
 6836SOL    HW221408   3.740   6.560   0.525 -0.2702  0.8216  0.0788
 6837SOL     OW21409   1.489   2.876   2.330 -0.5064  0.0910  0.1849
 6837SOL    HW121410   1.413   2.833   2.378 -1.1526 -0.4905 -1.3097
 6837SOL    HW221411   1.469   2.973   2.316 -0.5825  0.1288  0.5558
 6838SOL     OW21412   3.614   2.179   0.103  0.2387  0.1482 -0.4532
 6838SOL    HW121413   3.658   2.103   0.150 -0.2688 -0.4510 -0.9209
 6838SOL    HW221414   3.534   2.208   0.155 -0.7157 -0.9586 -1.2383
 6839SOL     OW21415   4.037   2.913   1.419  0.2800 -0.0408 -0.7045
 6839SOL    HW121416   3.959   2.864   1.381  0.4212  0.8309 -2.1650
 6839SOL    HW221417   4.082   2.855   1.487 -1.6492 -0.5322  0.2234
 6840SOL     OW21418   0.409   1.569   4.736 -0.0195  0.2911 -0.2148
 6840SOL    HW121419   0.473   1.645   4.725  0.9592 -0.2138  1.6333
 6840SOL    HW221420   0.459   1.485   4.753 -1.1499 -0.3458  0.0894
 6841SOL     OW21421   6.095   0.778   4.127 -0.0845 -0.2277 -0.0350
 6841SOL    HW121422   6.185   0.821   4.129  0.4825 -1.3932  0.8884
 6841SOL    HW221423   6.103   0.685   4.091 -0.8074 -0.5548  0.6162
 6842SOL     OW21424   6.030   3.641   0.883 -0.3209 -0.2579 -0.1021
 6842SOL    HW121425   5.980   3.636   0.969 -1.6576 -1.7784 -0.9192
 6842SOL    HW221426   6.031   3.551   0.839 -0.9565  0.7581 -2.3511
 6843SOL     OW21427   3.537   1.104   6.543 -0.1594  0.3098  0.1708
 6843SOL    HW121428   3.471   1.179   6.543 -1.6003 -0.8831 -0.2881
 6843SOL    HW221429   3.610   1.123   6.608 -1.9641  0.8600  2.1433
 6844SOL     OW21430   6.158   6.308   3.894 -0.1078 -0.1458  0.0546
 6844SOL    HW121431   6.252   6.312   3.926 -0.1365 -0.4919  0.1827
 6844SOL    HW221432   6.150   6.237   3.824 -0.6650 -1.4260  1.3690
 6845SOL     OW21433   4.237   0.993   3.979  0.1906  0.1501  0.4020
 6845SOL    HW121434   4.252   1.084   3.939  1.5249  0.0527  0.6101
 6845SOL    HW221435   4.179   1.001   4.059  0.2917  0.8300  0.4161
 6846SOL     OW21436   2.597   3.467   0.389  0.1831 -0.4016 -0.6567
 6846SOL    HW121437   2.536   3.408   0.442  0.7734  0.7483  1.4090
 6846SOL    HW221438   2.682   3.418   0.370  0.5042 -0.4127  0.6851
 6847SOL     OW21439   6.558   0.369   4.541 -0.1725  0.2025 -0.3848
 6847SOL    HW121440   6.462   0.387   4.520 -0.5589 -1.0745  0.1953
 6847SOL    HW221441   6.592   0.438   4.605 -1.3900 -0.6082  1.2219
 6848SOL     OW21442   5.830   5.176   5.825 -0.5178 -0.8731 -0.2829
 6848SOL    HW121443   5.873   5.217   5.906 -2.2436  1.0384 -0.2507
 6848SOL    HW221444   5.881   5.202   5.743 -1.1428  0.7904 -0.1786
 6849SOL     OW21445   2.451   4.479   6.156 -0.0417  0.3031 -0.3673
 6849SOL    HW121446   2.519   4.435   6.098 -0.0212  0.8675 -0.7760
 6849SOL    HW221447   2.387   4.530   6.099 -1.0956 -0.5980 -0.0283
 6850SOL     OW21448   5.553   6.384   3.725 -0.3206  0.8861 -0.3937
 6850SOL    HW121449   5.632   6.391   3.665  0.3042 -0.2539  0.2722
 6850SOL    HW221450   5.584   6.377   3.820 -1.1836 -0.3607 -0.1883
 6851SOL     OW21451   1.944   4.628   4.828 -0.8445  0.2643  0.2301
 6851SOL    HW121452   2.000   4.702   4.865  1.4618 -1.0497 -0.3993
 6851SOL    HW221453   1.979   4.602   4.738 -1.3426 -1.8157  0.5901
 6852SOL     OW21454   5.150   1.931   1.302  0.0745 -0.3231 -0.6521
 6852SOL    HW121455   5.186   1.961   1.390 -1.6420  0.2031 -0.0977
 6852SOL    HW221456   5.223   1.938   1.233  1.5007 -0.9374  0.7170
 6853SOL     OW21457   4.416   2.913   6.482  0.2856  0.2029  0.0165
 6853SOL    HW121458   4.480   2.843   6.513  0.0423  0.2057  0.5332
 6853SOL    HW221459   4.465   2.987   6.436  0.6553  0.2437  0.4796
 6854SOL     OW21460   6.279   0.578   4.837 -0.0683  0.0740  0.3248
 6854SOL    HW121461   6.231   0.656   4.798  0.4214  0.2590  0.0813
 6854SOL    HW221462   6.365   0.564   4.787 -0.7009 -1.3486 -0.4312
 6855SOL     OW21463   2.676   4.998   2.391  0.0551  0.5357  0.4132
 6855SOL    HW121464   2.707   5.086   2.356 -0.1569  0.2700 -0.4836
 6855SOL    HW221465   2.711   4.925   2.332  0.5932 -0.0213  1.3917
 6856SOL     OW21466   0.036   0.951   0.683 -0.1336 -0.6277  0.1640
 6856SOL    HW121467   0.022   1.044   0.649  1.5151 -0.4621 -0.1300
 6856SOL    HW221468  -0.049   0.917   0.724 -0.9340  0.7602 -0.2982
 6857SOL     OW21469   1.862   4.370   5.353  0.1145  0.1404 -0.0303
 6857SOL    HW121470   1.886   4.287   5.403 -0.3916 -0.2472 -0.4227
 6857SOL    HW221471   1.898   4.450   5.402 -0.7868 -0.1959  1.2144
 6858SOL     OW21472   1.479   5.605   2.423  0.1637 -0.3127  0.2447
 6858SOL    HW121473   1.514   5.651   2.504  0.6174  0.9698 -0.6448
 6858SOL    HW221474   1.465   5.673   2.350 -0.0381 -1.4643 -0.8111
 6859SOL     OW21475   2.572   2.342   6.604 -0.7131  0.4583 -0.1048
 6859SOL    HW121476   2.629   2.259   6.600  0.1495  0.8798  2.0945
 6859SOL    HW221477   2.622   2.414   6.652 -2.3007  1.5331 -0.0055
 6860SOL     OW21478   5.425   0.004   5.744  0.3487 -0.0711 -0.0586
 6860SOL    HW121479   5.508   0.059   5.737 -0.6737  1.4069 -1.4176
 6860SOL    HW221480   5.345   0.062   5.729 -0.9578 -1.4515  1.1661
 6861SOL     OW21481   4.245   4.092   6.117  0.3003  0.4740  0.3947
 6861SOL    HW121482   4.148   4.074   6.101  0.4220 -0.5518  0.7759
 6861SOL    HW221483   4.264   4.093   6.216  0.9676 -1.0302  0.3143
 6862SOL     OW21484   1.788   5.759   1.180 -0.3560  0.6425 -0.5156
 6862SOL    HW121485   1.801   5.797   1.271  0.2309 -0.1755 -0.2517
 6862SOL    HW221486   1.867   5.783   1.122 -1.4352  2.5258 -1.3144
 6863SOL     OW21487   4.553   1.655   5.544  0.1914 -0.0673  0.2153
 6863SOL    HW121488   4.606   1.668   5.628  2.3062  1.2768 -1.2192
 6863SOL    HW221489   4.593   1.710   5.471 -2.6462  0.2032 -1.2692
 6864SOL     OW21490   1.076   3.728   6.984  0.1415 -0.3237  0.4305
 6864SOL    HW121491   1.148   3.694   6.922 -1.0165 -1.0571 -0.5611
 6864SOL    HW221492   1.103   3.710   7.079  1.9562  0.8168  0.1909
 6865SOL     OW21493   1.958   1.624   3.798  0.0092 -0.2427 -0.7216
 6865SOL    HW121494   1.988   1.714   3.766 -0.4939  0.1400 -0.1457
 6865SOL    HW221495   2.032   1.558   3.787  1.2377  0.7418  1.0004
 6866SOL     OW21496   2.167   4.595   6.638 -0.0967  0.3840  0.1431
 6866SOL    HW121497   2.095   4.558   6.696 -0.0819  0.9009  0.4991
 6866SOL    HW221498   2.256   4.573   6.677 -0.0972  1.6415  0.9124
 6867SOL     OW21499   2.430   2.798   6.998  0.5128 -0.3023  0.5417
 6867SOL    HW121500   2.427   2.722   7.062  1.6545 -1.4915 -0.7479
 6867SOL    HW221501   2.337   2.819   6.967 -0.1164  0.5645  2.7989
 6868SOL     OW21502   2.761   4.705   3.658 -0.1142 -0.6995  0.1999
 6868SOL    HW121503   2.777   4.624   3.601  0.1981 -0.2889 -0.2975
 6868SOL    HW221504   2.754   4.786   3.601 -1.7595 -0.5454  0.5905
 6869SOL     OW21505   5.566   1.944   5.039 -0.3849 -0.1483  0.2348
 6869SOL    HW121506   5.529   1.858   5.004 -2.5648  1.3411 -1.4209
 6869SOL    HW221507   5.622   1.987   4.969  0.3204  0.0110  0.8900
 6870SOL     OW21508   6.321   2.050   6.869  0.3140  0.6748  0.4123
 6870SOL    HW121509   6.356   1.969   6.917  0.1239  0.5819  0.3974
 6870SOL    HW221510   6.257   2.099   6.928  0.6742  0.9930  0.5368
 6871SOL     OW21511   5.975   3.066   3.231  0.7317 -0.1626  0.1443
 6871SOL    HW121512   5.967   3.002   3.307  2.4827  1.7733  2.1029
 6871SOL    HW221513   5.884   3.095   3.202  0.0198 -1.0293  1.4205
 6872SOL     OW21514   1.181   4.686   1.210 -0.3947  0.3054 -0.3324
 6872SOL    HW121515   1.260   4.624   1.210  0.1397  0.8754 -2.7901
 6872SOL    HW221516   1.204   4.768   1.262 -1.0149 -1.3034  2.7354
 6873SOL     OW21517   0.900   1.805   2.111 -0.1888  0.0799  0.3596
 6873SOL    HW121518   0.996   1.776   2.107 -0.1318  0.3351 -0.3268
 6873SOL    HW221519   0.841   1.725   2.109 -0.0191 -0.0377 -0.8383
 6874SOL     OW21520   3.399   5.662   1.486  0.2745  0.6994  0.0446
 6874SOL    HW121521   3.485   5.710   1.504  0.8850  0.1653 -1.3576
 6874SOL    HW221522   3.373   5.675   1.391 -0.4477 -0.3326  0.0860
 6875SOL     OW21523   2.792   0.195   5.663 -0.1329 -0.6277  0.0140
 6875SOL    HW121524   2.699   0.228   5.679 -0.0420 -0.4431  0.1754
 6875SOL    HW221525   2.842   0.262   5.607  0.0354 -0.5120  0.2956
 6876SOL     OW21526   6.384   6.998   2.458  0.1454 -0.6035 -0.0319
 6876SOL    HW121527   6.435   7.081   2.480 -1.2842  0.3839 -0.3230
 6876SOL    HW221528   6.414   6.963   2.369  1.4928 -1.0227  0.5631
 6877SOL     OW21529   1.164   3.641   2.641  0.2923  0.2467 -0.3547
 6877SOL    HW121530   1.091   3.707   2.660  0.8907  0.7330  0.3073
 6877SOL    HW221531   1.231   3.644   2.715 -0.1966 -1.8593  0.2223
 6878SOL     OW21532   1.276   0.909   2.792  0.5192  0.4503 -0.0998
 6878SOL    HW121533   1.182   0.897   2.760 -0.0122  2.7549  0.3903
 6878SOL    HW221534   1.338   0.908   2.713  0.3043 -2.3172 -0.3186
 6879SOL     OW21535   0.502   0.073   1.045  0.0191 -0.2535 -0.6252
 6879SOL    HW121536   0.547  -0.011   1.075  0.4165 -0.3673 -1.5315
 6879SOL    HW221537   0.561   0.152   1.064 -1.0462  0.0766  1.8409
 6880SOL     OW21538   0.341   0.352   5.929  0.6781  0.2297 -0.5206
 6880SOL    HW121539   0.278   0.426   5.906 -0.0192 -0.5706 -1.2581
 6880SOL    HW221540   0.290   0.279   5.974  0.9282 -0.7084 -1.7037
 6881SOL     OW21541   6.294   3.676   0.901 -0.0070  0.1199 -0.0739
 6881SOL    HW121542   6.197   3.663   0.879 -0.0228 -1.2589  0.6725
 6881SOL    HW221543   6.312   3.639   0.992  1.3427 -0.1272 -0.4242
 6882SOL     OW21544   2.770   2.559   6.021 -0.8563 -0.8294  0.3363
 6882SOL    HW121545   2.728   2.485   6.073  1.3190 -3.0114 -0.7924
 6882SOL    HW221546   2.743   2.550   5.924  0.3753 -0.9095 -0.0106
 6883SOL     OW21547   4.391   6.291   7.007 -0.2193 -0.0645  0.5093
 6883SOL    HW121548   4.324   6.344   6.954 -0.5868 -3.0644 -2.3176
 6883SOL    HW221549   4.474   6.345   7.018 -1.1633  1.7501 -0.6739
 6884SOL     OW21550   6.813   5.964   4.513  0.2354 -0.6682 -0.4860
 6884SOL    HW121551   6.796   5.892   4.445 -1.5482 -2.0993  1.3416
 6884SOL    HW221552   6.755   6.043   4.493  0.9117 -0.4021 -1.4962
 6885SOL     OW21553   5.683   4.491   5.388 -0.2929  0.0959 -0.0733
 6885SOL    HW121554   5.690   4.567   5.324 -0.5823 -0.7042 -1.0852
 6885SOL    HW221555   5.622   4.421   5.350 -0.7120 -0.2616  1.2191
 6886SOL     OW21556   5.829   3.723   1.060 -0.3600 -0.2456 -0.1384
 6886SOL    HW121557   5.801   3.685   1.148  0.8336 -0.3395  0.2240
 6886SOL    HW221558   5.863   3.816   1.074 -1.9288  0.4725 -0.8063
 6887SOL     OW21559   5.493   5.574   6.106 -0.1174  0.7954  0.2067
 6887SOL    HW121560   5.528   5.653   6.056  0.4323  0.1771 -0.4065
 6887SOL    HW221561   5.398   5.591   6.135  0.0245  1.6951  0.1464
 6888SOL     OW21562   5.845   3.978   0.587 -0.0541 -0.0322 -0.4972
 6888SOL    HW121563   5.934   3.950   0.625  0.9212  0.6773 -2.1741
 6888SOL    HW221564   5.814   4.061   0.633  0.2481 -0.1584 -0.0552
 6889SOL     OW21565   6.337   3.754   5.200  0.1190  0.0293  0.7231
 6889SOL    HW121566   6.408   3.823   5.180  2.4552 -2.4836 -0.3665
 6889SOL    HW221567   6.349   3.720   5.293  1.5543 -1.5869  0.0014
 6890SOL     OW21568   4.114   4.735   4.032  0.2715 -0.1141  0.5151
 6890SOL    HW121569   4.064   4.666   3.980  1.0975 -0.0794 -0.3501
 6890SOL    HW221570   4.054   4.775   4.101 -1.4512  1.1677 -1.6150
 6891SOL     OW21571   1.895   0.462   1.551  0.4812  0.0810  0.7683
 6891SOL    HW121572   1.884   0.520   1.470  0.6981 -0.3116  0.4512
 6891SOL    HW221573   1.828   0.487   1.620 -2.0007 -1.7799 -0.7987
 6892SOL     OW21574   0.955   0.389   3.911  0.3708 -0.0276 -0.3317
 6892SOL    HW121575   0.894   0.468   3.923  1.5621  0.9746 -0.6319
 6892SOL    HW221576   0.985   0.356   4.001  0.7523  0.5941 -0.2231
 6893SOL     OW21577   1.346   1.104   1.882 -0.3985  0.2143  0.9385
 6893SOL    HW121578   1.366   1.138   1.790  0.3075 -1.6746  0.3401
 6893SOL    HW221579   1.265   1.150   1.917 -1.8798 -0.3379 -1.4538
 6894SOL     OW21580   0.007   4.646   0.281 -0.4886  0.2523  0.3665
 6894SOL    HW121581  -0.019   4.550   0.295 -0.1501  0.2171  0.7699
 6894SOL    HW221582   0.106   4.652   0.268 -0.7451  0.2823 -2.1180
 6895SOL     OW21583   0.989   5.872   3.711 -0.4185 -0.0594 -0.3920
 6895SOL    HW121584   0.961   5.910   3.623  1.5844  0.4671 -0.8412
 6895SOL    HW221585   0.974   5.940   3.783 -0.0616  0.3096 -0.6638
 6896SOL     OW21586   2.613   6.871   6.679 -0.0367 -0.3694 -0.0650
 6896SOL    HW121587   2.711   6.858   6.665  0.3445 -0.5939  2.4022
 6896SOL    HW221588   2.581   6.810   6.752 -1.6344  0.9283  0.3915
 6897SOL     OW21589   4.555   2.751   5.117  0.5898  0.2327  0.0794
 6897SOL    HW121590   4.607   2.807   5.181 -0.1814  1.2508 -0.1516
 6897SOL    HW221591   4.475   2.712   5.163  2.3726 -2.7487  0.9048
 6898SOL     OW21592   2.390   6.522   6.099 -0.1607  0.1719  0.1724
 6898SOL    HW121593   2.408   6.580   6.178 -1.5192  0.4840  0.2880
 6898SOL    HW221594   2.334   6.444   6.126  0.0682 -0.1691 -0.3245
 6899SOL     OW21595   6.920   5.672   2.562 -0.4521 -0.1107  0.1657
 6899SOL    HW121596   6.998   5.729   2.591 -0.9172 -0.0674  1.4249
 6899SOL    HW221597   6.891   5.615   2.639 -0.1716 -1.8767 -0.9965
 6900SOL     OW21598   2.228   4.841   3.391  0.0622 -0.0843 -0.0101
 6900SOL    HW121599   2.320   4.870   3.363  0.1470 -1.4283 -1.2454
 6900SOL    HW221600   2.191   4.907   3.457  2.0193  0.3327  0.7593
 6901SOL     OW21601   6.313   4.260   6.557  0.2392 -0.1757  0.2442
 6901SOL    HW121602   6.347   4.173   6.593  0.5307  0.3216  1.2185
 6901SOL    HW221603   6.274   4.313   6.632 -0.7493  0.1671 -0.4931
 6902SOL     OW21604   5.133   6.262   5.262  0.0512 -0.0308  0.1966
 6902SOL    HW121605   5.133   6.242   5.360 -0.3175 -0.6980  0.0624
 6902SOL    HW221606   5.063   6.330   5.242  1.9058  2.1980  0.7933
 6903SOL     OW21607   5.514   0.234   5.887 -0.0520  0.4641  0.7469
 6903SOL    HW121608   5.571   0.184   5.952 -1.3131  1.0047  2.3377
 6903SOL    HW221609   5.453   0.295   5.936 -0.7928  1.2030 -0.9940
 6904SOL     OW21610   0.341   6.987   4.797  0.0026 -0.0182  0.1747
 6904SOL    HW121611   0.268   6.934   4.755 -0.0313 -0.3046  0.5968
 6904SOL    HW221612   0.425   6.976   4.744 -0.1922  0.0987 -0.1581
 6905SOL     OW21613   4.603   5.551   4.838  0.2251  0.2934 -0.0317
 6905SOL    HW121614   4.566   5.644   4.839  0.4609  0.3954 -0.4681
 6905SOL    HW221615   4.541   5.491   4.787  0.5041  0.3987 -0.4986
 6906SOL     OW21616   2.027   2.682   4.303 -0.0017  0.2533  0.5202
 6906SOL    HW121617   1.956   2.613   4.315 -0.5419  0.7319  0.1648
 6906SOL    HW221618   2.051   2.722   4.391  1.2676 -1.2938  0.9175
 6907SOL     OW21619   5.910   3.394   0.361  0.1481  0.5432 -0.9283
 6907SOL    HW121620   5.864   3.328   0.301  1.7625  0.4950 -2.2128
 6907SOL    HW221621   5.867   3.483   0.351  0.7256  0.6710 -2.6618
 6908SOL     OW21622   3.109   3.960   0.539  0.3910 -0.2797 -0.1673
 6908SOL    HW121623   3.101   3.939   0.637  2.5408 -0.3464  0.0469
 6908SOL    HW221624   3.072   4.051   0.522 -0.6968 -0.5697  0.5596
 6909SOL     OW21625   0.585   5.066   2.577  0.4501 -0.2944  0.3788
 6909SOL    HW121626   0.540   5.154   2.595 -1.1704 -0.8531 -0.7136
 6909SOL    HW221627   0.634   5.072   2.490  0.6780 -0.3482  0.5035
 6910SOL     OW21628   1.437   0.852   1.904  0.0864  0.2881 -0.5354
 6910SOL    HW121629   1.387   0.938   1.891  0.4347  0.5819  0.0313
 6910SOL    HW221630   1.534   0.871   1.915  0.0247 -0.0537  0.8494
 6911SOL     OW21631   2.331   5.856   3.957 -0.3984  0.2863  0.5737
 6911SOL    HW121632   2.331   5.927   4.027  0.1880  0.7744  0.0919
 6911SOL    HW221633   2.266   5.880   3.885  0.9321  1.1559 -0.3793
 6912SOL     OW21634   2.158   3.419   6.859  0.0287  0.6298  0.4516
 6912SOL    HW121635   2.198   3.396   6.948 -0.4308  1.3468  0.8604
 6912SOL    HW221636   2.093   3.494   6.871 -1.3440 -0.4152 -0.2144
 6913SOL     OW21637   3.925   5.730   6.865  0.0750  0.2299 -0.1164
 6913SOL    HW121638   3.954   5.816   6.906  1.8477  0.3945 -1.5858
 6913SOL    HW221639   3.988   5.657   6.891  0.3669  0.0379 -1.3138
 6914SOL     OW21640   0.611   0.394   3.225  0.0791 -0.7637 -0.0393
 6914SOL    HW121641   0.605   0.445   3.311  1.7691 -1.0406  0.2709
 6914SOL    HW221642   0.631   0.298   3.245 -1.1571 -1.1806 -0.6963
 6915SOL     OW21643   1.966   4.607   4.014 -0.6665 -0.2982 -0.1403
 6915SOL    HW121644   1.929   4.700   4.009 -1.4912 -0.5788  0.5853
 6915SOL    HW221645   1.891   4.542   4.027 -0.2072 -1.1701 -1.6058
 6916SOL     OW21646   2.655   6.019   5.631 -0.1991 -0.3701 -0.6209
 6916SOL    HW121647   2.640   6.101   5.687 -2.0627 -0.5367 -0.8009
 6916SOL    HW221648   2.635   5.937   5.686 -1.8515 -0.5439 -1.4276
 6917SOL     OW21649   2.362   6.247   2.164 -0.0045 -0.6429  0.2590
 6917SOL    HW121650   2.347   6.251   2.065 -0.1835 -0.3453  0.2948
 6917SOL    HW221651   2.300   6.180   2.204 -0.4291 -0.2682  0.2521
 6918SOL     OW21652   2.916   2.106   6.870  0.4015  0.0836 -0.1617
 6918SOL    HW121653   3.010   2.125   6.841  1.8566 -2.4197  2.4628
 6918SOL    HW221654   2.903   2.136   6.964 -1.2314 -0.3107 -0.2276
 6919SOL     OW21655   5.639   0.746   3.704  0.2593  0.0841 -0.4785
 6919SOL    HW121656   5.703   0.679   3.667 -0.5873 -2.3469  2.1130
 6919SOL    HW221657   5.547   0.725   3.670  0.1434  0.6998 -0.5594
 6920SOL     OW21658   6.778   3.798   5.988 -0.2374  1.0587  0.1334
 6920SOL    HW121659   6.827   3.742   6.055 -3.3971 -1.1982  0.7951
 6920SOL    HW221660   6.838   3.819   5.912  2.9290  2.0743  2.6785
 6921SOL     OW21661   2.350   0.575   6.041 -0.2097  0.0047  0.6849
 6921SOL    HW121662   2.345   0.614   5.949  1.1408 -2.1922 -0.3940
 6921SOL    HW221663   2.431   0.611   6.088 -0.0042 -0.0967  0.4085
 6922SOL     OW21664   3.896   3.603   5.197  0.3595  0.0942 -0.0040
 6922SOL    HW121665   3.857   3.561   5.116  0.2495 -0.3591  0.2794
 6922SOL    HW221666   3.899   3.536   5.272 -0.6061  0.8125  0.7095
 6923SOL     OW21667   6.632   5.259   3.085  0.1440  0.0600 -0.2862
 6923SOL    HW121668   6.660   5.344   3.040  0.7387 -0.5665 -1.1379
 6923SOL    HW221669   6.537   5.266   3.115  0.5509  1.4857  0.8121
 6924SOL     OW21670   1.773   5.783   0.506  0.1441 -0.3284  0.7836
 6924SOL    HW121671   1.695   5.798   0.446  0.3387  0.2008  0.6581
 6924SOL    HW221672   1.857   5.779   0.452  0.3789  0.6477  1.0541
 6925SOL     OW21673   6.095   0.757   4.457 -0.4010 -0.2720  0.1526
 6925SOL    HW121674   6.067   0.662   4.448  0.0313 -0.2809 -1.2234
 6925SOL    HW221675   6.163   0.779   4.387 -1.7771  1.5270 -0.7038
 6926SOL     OW21676   3.060   3.589   0.006  0.6117 -0.5397  0.3205
 6926SOL    HW121677   3.051   3.530  -0.073 -0.0112  0.4982 -0.4044
 6926SOL    HW221678   3.087   3.534   0.086 -0.8513 -1.9323 -0.1063
 6927SOL     OW21679   3.301   5.424   5.654 -0.0162  0.7994 -0.0214
 6927SOL    HW121680   3.206   5.401   5.678  0.5989 -1.4471  0.5692
 6927SOL    HW221681   3.308   5.521   5.634 -2.4016  1.0616  0.1112
 6928SOL     OW21682   3.689   5.346   0.382 -0.5373  0.2457 -0.5911
 6928SOL    HW121683   3.610   5.362   0.324 -0.8948  0.6821 -0.0012
 6928SOL    HW221684   3.658   5.315   0.472 -0.0450  0.4459 -0.3466
 6929SOL     OW21685   2.782   5.488   2.958 -0.4199  0.0300  0.0958
 6929SOL    HW121686   2.818   5.572   2.917 -0.6720  0.8550  1.5156
 6929SOL    HW221687   2.844   5.412   2.937  0.0945  0.6612 -0.7560
 6930SOL     OW21688   1.496   5.534   2.151 -0.4321  0.0231  0.4821
 6930SOL    HW121689   1.449   5.502   2.232 -1.6653 -0.3612 -0.3656
 6930SOL    HW221690   1.440   5.518   2.070  0.2049  1.5524 -0.3239
 6931SOL     OW21691   5.268   4.227   6.587 -0.3321 -0.3319  0.1696
 6931SOL    HW121692   5.259   4.247   6.489 -0.0066  1.8582  0.5447
 6931SOL    HW221693   5.341   4.160   6.600  0.5179  0.3375 -0.9985
 6932SOL     OW21694   1.347   1.575   1.010  0.0400 -0.6305 -0.2362
 6932SOL    HW121695   1.379   1.481   1.016 -0.4616 -0.8022 -0.1314
 6932SOL    HW221696   1.425   1.638   1.008  0.3654 -0.9906  0.7036
 6933SOL     OW21697   4.118   6.688   5.810 -0.2431 -0.3387 -0.3446
 6933SOL    HW121698   4.209   6.673   5.848 -0.3968 -1.9210 -0.5087
 6933SOL    HW221699   4.059   6.731   5.878  0.6531  0.8110 -0.2825
 6934SOL     OW21700   3.065   6.217   1.483 -0.4672  0.5607  0.1670
 6934SOL    HW121701   3.145   6.189   1.535 -0.8313 -1.5365 -0.2967
 6934SOL    HW221702   3.005   6.272   1.541  0.5320  0.8024  1.0030
 6935SOL     OW21703   3.263   6.206   2.219 -0.4207  0.2630  0.6007
 6935SOL    HW121704   3.349   6.171   2.255 -0.6249  1.2476  2.1440
 6935SOL    HW221705   3.239   6.291   2.266 -2.5073 -0.2645  0.5895
 6936SOL     OW21706   1.268   2.885   0.450 -0.6687 -0.1208  0.2344
 6936SOL    HW121707   1.277   2.914   0.355  1.2329 -0.6207  0.2269
 6936SOL    HW221708   1.347   2.829   0.475 -0.9900  0.2518  2.2018
 6937SOL     OW21709   0.008   4.042   6.160  0.2103 -0.2651  0.0307
 6937SOL    HW121710   0.106   4.033   6.177  0.2927  1.7715  0.9856
 6937SOL    HW221711  -0.040   3.962   6.194  1.5015 -1.1628 -0.1922
 6938SOL     OW21712   1.650   0.824   5.128  0.0373  0.2793 -0.2149
 6938SOL    HW121713   1.673   0.802   5.223  0.2664  0.0969 -0.3111
 6938SOL    HW221714   1.566   0.877   5.126  0.3566  0.8097  0.1360
 6939SOL     OW21715   0.797   0.699   2.887 -0.1583  0.3817  0.2432
 6939SOL    HW121716   0.745   0.766   2.939 -2.4585 -1.1678  0.1127
 6939SOL    HW221717   0.833   0.629   2.948 -0.5410  0.0238  0.0691
 6940SOL     OW21718   6.705   6.313   1.607 -0.5539  0.0967 -0.0547
 6940SOL    HW121719   6.610   6.292   1.588 -0.3895  0.9312 -2.0416
 6940SOL    HW221720   6.734   6.390   1.551  1.7580 -1.2017 -0.7732
 6941SOL     OW21721   3.563   1.995   1.539 -0.9573 -0.0948  0.8104
 6941SOL    HW121722   3.557   1.936   1.620  1.4875 -0.8512  0.5266
 6941SOL    HW221723   3.583   2.089   1.567 -0.0425 -0.3684  1.1030
 6942SOL     OW21724   0.204   4.460   3.198  0.0891 -0.1258 -0.2919
 6942SOL    HW121725   0.289   4.511   3.190  0.2357 -0.1643  0.8219
 6942SOL    HW221726   0.153   4.466   3.112  1.0207  0.2312 -0.8348
 6943SOL     OW21727   4.017   4.872   6.216  0.2774  0.0380  0.5053
 6943SOL    HW121728   4.057   4.841   6.130 -1.0905 -0.7748  0.1272
 6943SOL    HW221729   3.989   4.968   6.207  0.2417 -0.0100  0.0790
 6944SOL     OW21730   1.419   5.970   4.364 -0.3346  0.2011  0.3186
 6944SOL    HW121731   1.508   5.954   4.407 -0.2411 -0.9893 -0.2542
 6944SOL    HW221732   1.351   5.909   4.405 -0.8817  1.0556  0.7077
 6945SOL     OW21733   4.044   2.890   6.012 -0.2394  0.2926 -0.4915
 6945SOL    HW121734   3.971   2.830   5.981 -0.8186  0.6346  0.1897
 6945SOL    HW221735   4.130   2.839   6.017 -0.1587  0.1637 -2.3947
 6946SOL     OW21736   6.023   3.339   2.637  0.0486  0.4553  0.3862
 6946SOL    HW121737   5.937   3.295   2.612  0.2420 -0.7334  1.6358
 6946SOL    HW221738   6.097   3.303   2.580 -0.1493  0.8183 -0.0954
 6947SOL     OW21739   6.165   4.580   4.249 -0.3638  0.6958 -0.0745
 6947SOL    HW121740   6.255   4.540   4.266 -0.9417 -0.8697 -0.5379
 6947SOL    HW221741   6.100   4.549   4.319 -0.8988  0.5795 -0.6129
 6948SOL     OW21742   1.211   5.683   5.549  0.1169 -0.1790  0.3086
 6948SOL    HW121743   1.172   5.600   5.508 -0.1816 -0.2786  0.7846
 6948SOL    HW221744   1.245   5.743   5.477  0.9751 -1.0303 -0.0186
 6949SOL     OW21745   2.558   0.824   5.637  0.1230  0.2527  0.4190
 6949SOL    HW121746   2.631   0.758   5.655  0.1357 -0.3158 -1.4684
 6949SOL    HW221747   2.579   0.911   5.681  0.6623 -0.6388  2.0135
 6950SOL     OW21748   3.429   6.297   4.270 -0.0869 -0.3215  0.3444
 6950SOL    HW121749   3.468   6.297   4.362 -1.1623 -2.2724  0.8512
 6950SOL    HW221750   3.492   6.252   4.207  0.2367  0.1656  0.3176
 6951SOL     OW21751   0.830   1.756   0.966  0.3364  0.1357 -0.5567
 6951SOL    HW121752   0.821   1.704   0.881  0.4146 -1.0496  0.1341
 6951SOL    HW221753   0.903   1.823   0.957  2.8266 -2.3385 -0.3475
 6952SOL     OW21754   3.637   5.413   4.582 -0.0290 -0.1697 -0.1666
 6952SOL    HW121755   3.698   5.493   4.588 -1.6078  0.9864  1.9428
 6952SOL    HW221756   3.542   5.443   4.593 -1.0192 -1.9788 -2.8243
 6953SOL     OW21757   0.943   5.745   1.617  0.3507 -0.2350  0.3609
 6953SOL    HW121758   0.845   5.729   1.607  0.2715 -0.2307  1.0939
 6953SOL    HW221759   0.992   5.658   1.609  0.2002 -0.3807  0.9996
 6954SOL     OW21760   6.456   4.986   6.760 -0.0670 -0.1155 -0.2182
 6954SOL    HW121761   6.462   4.886   6.766 -1.0380 -0.1517  0.4178
 6954SOL    HW221762   6.482   5.015   6.668  1.6604 -0.8067  0.0038
 6955SOL     OW21763   4.914   4.427   2.700  0.1223 -0.9633 -0.4502
 6955SOL    HW121764   4.834   4.485   2.717  0.5552 -0.0700 -1.3540
 6955SOL    HW221765   4.907   4.344   2.755 -0.2963  0.1386  1.2329
 6956SOL     OW21766   0.276   2.236   3.417 -0.1285 -0.4809  0.4059
 6956SOL    HW121767   0.322   2.270   3.498  1.1175 -0.2039 -0.3827
 6956SOL    HW221768   0.285   2.302   3.342 -0.3641 -1.1710 -0.2534
 6957SOL     OW21769   5.075   4.559   5.114  0.0257  0.0045  0.2377
 6957SOL    HW121770   5.034   4.486   5.169  0.5572  0.0734  0.7346
 6957SOL    HW221771   5.093   4.638   5.172  0.7294  0.0244 -0.0009
 6958SOL     OW21772   4.432   3.096   0.883  0.2809  0.2001 -0.5293
 6958SOL    HW121773   4.358   3.029   0.884  0.3427  0.1255  0.7930
 6958SOL    HW221774   4.481   3.091   0.796 -0.2829 -0.8490 -0.7936
 6959SOL     OW21775   0.151   3.024   3.059  0.4530  0.0426  0.4461
 6959SOL    HW121776   0.161   2.990   2.965  0.5777  0.0892  0.4421
 6959SOL    HW221777   0.135   2.947   3.121 -1.9001  0.1713  0.0911
 6960SOL     OW21778   3.971   5.424   6.758 -0.4422 -0.5867 -0.3176
 6960SOL    HW121779   4.032   5.412   6.836 -1.6785 -0.3215  0.7085
 6960SOL    HW221780   4.019   5.397   6.674  1.1274 -0.2339  0.4351
 6961SOL     OW21781   4.439   2.122   4.442 -0.0817 -0.0650  0.3408
 6961SOL    HW121782   4.342   2.144   4.426 -0.0588  0.1293  0.4686
 6961SOL    HW221783   4.473   2.065   4.367  0.3330  1.7542 -0.8997
 6962SOL     OW21784   2.213   0.920   4.739 -0.0911 -0.3322 -0.6076
 6962SOL    HW121785   2.305   0.893   4.766  0.0210  0.0465 -0.6052
 6962SOL    HW221786   2.146   0.868   4.792  0.1032 -1.3853 -1.3579
 6963SOL     OW21787   0.959   0.069   0.136 -0.1849  0.0949 -0.0057
 6963SOL    HW121788   0.860   0.055   0.134 -0.2154  0.0517  1.2367
 6963SOL    HW221789   0.980   0.167   0.134 -0.2269  0.0954 -0.7216
 6964SOL     OW21790   2.969   2.317   6.201  0.1447  0.8114  0.3112
 6964SOL    HW121791   2.908   2.255   6.249  0.3552  0.3058 -0.0518
 6964SOL    HW221792   2.960   2.410   6.237  1.1222  0.2447  2.1061
 6965SOL     OW21793   1.956   2.114   5.922  0.3923 -0.1455  0.0058
 6965SOL    HW121794   1.897   2.193   5.905  0.0613 -0.5632 -0.8333
 6965SOL    HW221795   1.999   2.123   6.012 -0.0859  0.7069  0.1566
 6966SOL     OW21796   1.069   6.863   1.597 -0.3708 -0.2065  0.0612
 6966SOL    HW121797   1.094   6.787   1.655  0.2434 -0.1500 -0.1261
 6966SOL    HW221798   1.141   6.879   1.529 -1.1772 -0.4433 -0.8908
 6967SOL     OW21799   2.453   0.105   5.956  0.0497  0.0814 -0.0887
 6967SOL    HW121800   2.455   0.187   6.014  0.3019 -0.7472  1.1323
 6967SOL    HW221801   2.515   0.036   5.995 -0.9756 -1.0847 -0.4617
 6968SOL     OW21802   5.658   5.961   0.912  0.0474  0.0319 -0.2139
 6968SOL    HW121803   5.685   5.928   1.002 -0.9136 -0.3042 -0.0426
 6968SOL    HW221804   5.581   5.908   0.878  0.6157 -0.0777 -1.3946
 6969SOL     OW21805   0.421   2.691   3.160  0.3823  0.0002  0.6111
 6969SOL    HW121806   0.444   2.779   3.118 -2.0166 -0.3681 -1.6986
 6969SOL    HW221807   0.410   2.622   3.089 -0.3527 -1.5630  2.1705
 6970SOL     OW21808   2.105   0.428   5.134 -0.4195  0.3142 -0.3075
 6970SOL    HW121809   2.068   0.392   5.219 -1.3019 -0.7234 -1.1043
 6970SOL    HW221810   2.069   0.520   5.118 -0.9545  0.1558 -0.0102
 6971SOL     OW21811   0.375   5.352   5.934 -0.1635 -0.3087 -0.3541
 6971SOL    HW121812   0.286   5.390   5.959  0.6289  0.7534  1.0458
 6971SOL    HW221813   0.381   5.258   5.966 -0.4389 -0.0651  0.4519
 6972SOL     OW21814   6.341   2.857   0.901 -0.8174  0.7188 -0.1416
 6972SOL    HW121815   6.316   2.814   0.814 -0.4260  2.2052 -1.0296
 6972SOL    HW221816   6.258   2.892   0.946 -0.9083  0.8927 -0.4435
 6973SOL     OW21817   1.286   0.993   1.561  0.1245 -0.2093 -0.3540
 6973SOL    HW121818   1.353   1.036   1.622  0.2045  1.9363 -1.8686
 6973SOL    HW221819   1.194   1.015   1.592  0.1519 -0.2719 -0.2278
 6974SOL     OW21820   3.102   3.279   2.013  0.8059  0.2664  0.1595
 6974SOL    HW121821   3.135   3.258   2.105  1.1377 -1.9115 -0.3888
 6974SOL    HW221822   3.178   3.312   1.957  1.4666 -1.7713 -0.2428
 6975SOL     OW21823   2.405   5.093   5.865  0.9775 -0.0574  0.6513
 6975SOL    HW121824   2.481   5.059   5.810  0.8388 -0.1734  0.5290
 6975SOL    HW221825   2.436   5.112   5.958  1.1695 -0.0436  0.5834
 6976SOL     OW21826   4.784   6.106   0.617  0.0162 -0.1040  0.1606
 6976SOL    HW121827   4.832   6.062   0.541  0.7656 -0.2769  0.7268
 6976SOL    HW221828   4.843   6.175   0.658  0.7628 -1.9217  2.3665
 6977SOL     OW21829   5.034   5.640   2.814 -0.1698  0.0613 -0.1023
 6977SOL    HW121830   5.019   5.737   2.835 -0.4806 -0.1102  0.5017
 6977SOL    HW221831   4.949   5.601   2.779  0.0356  0.0703 -0.6228
 6978SOL     OW21832   1.046   3.276   3.640 -0.3979  0.3661  0.2477
 6978SOL    HW121833   0.991   3.325   3.573  0.3073  1.1138  0.2013
 6978SOL    HW221834   0.987   3.220   3.698 -1.1741  1.0025  0.0791
 6979SOL     OW21835   1.122   5.252   2.791  0.2830  0.2702  0.1477
 6979SOL    HW121836   1.073   5.165   2.792  0.8358 -0.0498  1.4577
 6979SOL    HW221837   1.160   5.268   2.700 -1.6126  0.1974 -0.7134
 6980SOL     OW21838   3.649   4.644   1.424 -0.1285 -0.6829  0.0079
 6980SOL    HW121839   3.624   4.685   1.336  1.2565 -1.0791 -0.6041
 6980SOL    HW221840   3.567   4.608   1.468 -0.8222 -0.7311 -1.2616
 6981SOL     OW21841   4.872   1.931   5.809  0.2839  0.3482  0.4453
 6981SOL    HW121842   4.949   1.871   5.788 -1.3492 -1.4831 -0.7059
 6981SOL    HW221843   4.872   2.009   5.747  0.6912 -0.1264 -0.1544
 6982SOL     OW21844   6.944   5.215   1.799  0.1921 -0.3045  0.1298
 6982SOL    HW121845   7.028   5.215   1.745 -0.1946 -2.6114 -0.5952
 6982SOL    HW221846   6.872   5.264   1.749  1.2082  2.3178  1.0754
 6983SOL     OW21847   0.072   0.705   4.198  0.2289 -0.0490 -0.0414
 6983SOL    HW121848   0.074   0.800   4.168  0.1216  0.4082  1.3364
 6983SOL    HW221849  -0.012   0.661   4.166 -0.5275  0.8092  0.7340
 6984SOL     OW21850   1.281   2.236   4.024 -0.4879  0.0396  0.2950
 6984SOL    HW121851   1.191   2.248   4.065 -0.6002 -1.9295  0.7351
 6984SOL    HW221852   1.319   2.325   3.999 -2.9200  0.8757 -0.7431
 6985SOL     OW21853   4.555   2.402   6.919  0.1499  0.0998  0.2030
 6985SOL    HW121854   4.631   2.343   6.945 -0.7914 -1.3481 -0.2294
 6985SOL    HW221855   4.550   2.408   6.820  0.9118  1.8692  0.2261
 6986SOL     OW21856   3.221   6.841   5.864 -0.1609 -0.1036 -0.1562
 6986SOL    HW121857   3.210   6.830   5.765 -0.4828  1.4525 -0.3208
 6986SOL    HW221858   3.148   6.900   5.899  1.6581  1.9150  0.4796
 6987SOL     OW21859   0.621   1.401   0.857 -0.3134  0.2870  0.0926
 6987SOL    HW121860   0.634   1.392   0.956 -2.8950  0.3378  0.5055
 6987SOL    HW221861   0.574   1.486   0.837 -1.3081 -0.4862 -0.9982
 6988SOL     OW21862   6.173   1.864   6.238 -0.0979 -0.0426 -0.3848
 6988SOL    HW121863   6.124   1.920   6.172  0.0000 -0.2641 -0.6503
 6988SOL    HW221864   6.212   1.785   6.191  0.3372  0.0247 -0.1387
 6989SOL     OW21865   6.353   1.880   3.408  0.0730  0.2929 -0.0387
 6989SOL    HW121866   6.436   1.825   3.420 -0.9711 -0.8925  2.5194
 6989SOL    HW221867   6.366   1.969   3.451  0.0917  0.1618  0.2316
 6990SOL     OW21868   2.391   6.437   6.931  0.3127 -0.8317  0.2580
 6990SOL    HW121869   2.322   6.509   6.936  1.0282  0.0039 -1.3038
 6990SOL    HW221870   2.357   6.361   6.876  0.1381 -1.0208  0.6233
 6991SOL     OW21871   5.942   4.917   5.987 -0.9392 -0.1734 -0.3166
 6991SOL    HW121872   5.877   4.851   5.949  0.0015 -1.4017  0.1614
 6991SOL    HW221873   6.018   4.929   5.923 -1.2851  0.7461 -0.5680
 6992SOL     OW21874   2.164   4.746   5.775 -0.1353  0.2967  0.2664
 6992SOL    HW121875   2.134   4.834   5.740  2.1701  1.8514  1.8359
 6992SOL    HW221876   2.239   4.711   5.718  1.9055  1.5924  2.0063
 6993SOL     OW21877   6.476   3.652   1.508  0.0519  0.1325 -0.4417
 6993SOL    HW121878   6.411   3.671   1.581 -0.4196  0.0805 -0.8440
 6993SOL    HW221879   6.459   3.715   1.431  0.2736 -0.0879 -0.6726
 6994SOL     OW21880   2.631   0.556   3.744 -0.5738  0.2150 -0.1046
 6994SOL    HW121881   2.627   0.636   3.685  1.3495  1.5785  1.4617
 6994SOL    HW221882   2.560   0.564   3.815  0.6867  1.4688  1.0695
 6995SOL     OW21883   0.469   5.602   6.223  1.0496  0.0478  0.3576
 6995SOL    HW121884   0.448   5.697   6.199  1.3112  0.2035  0.7298
 6995SOL    HW221885   0.384   5.551   6.233  0.9324 -0.4063 -2.3313
 6996SOL     OW21886   1.543   0.315   1.442 -0.1845 -0.2017  0.0872
 6996SOL    HW121887   1.465   0.254   1.442 -0.7983  0.5641  0.8577
 6996SOL    HW221888   1.570   0.335   1.536 -0.1423  0.8802 -0.1448
 6997SOL     OW21889   5.029   6.440   6.398 -0.0123 -0.4475  0.1132
 6997SOL    HW121890   5.033   6.540   6.405  2.5099 -0.5638  1.3598
 6997SOL    HW221891   4.976   6.404   6.474  0.4613 -0.1268  0.5994
 6998SOL     OW21892   5.588   0.816   0.008  0.6668 -0.3560 -0.2718
 6998SOL    HW121893   5.503   0.765  -0.001  0.6257 -0.2364 -0.5500
 6998SOL    HW221894   5.571   0.913  -0.009  0.9979 -0.4307 -1.0422
 6999SOL     OW21895   6.975   2.510   5.983 -0.0500  0.3634 -0.0881
 6999SOL    HW121896   6.928   2.582   5.934 -0.1993  0.3255 -0.0002
 6999SOL    HW221897   6.967   2.424   5.933 -1.2948  0.0423  0.6363
 7000SOL     OW21898   1.174   3.226   2.975 -0.1167 -0.4771 -0.3658
 7000SOL    HW121899   1.119   3.218   2.892  1.2781 -1.3095 -1.2633
 7000SOL    HW221900   1.227   3.311   2.973 -0.8209 -0.0104  0.1714
 7001SOL     OW21901   1.934   1.097   2.261 -0.5725 -0.4587 -0.5590
 7001SOL    HW121902   1.898   1.176   2.310 -1.0096 -1.5282  0.9210
 7001SOL    HW221903   1.883   1.015   2.288 -1.0159 -1.0879 -3.0426
 7002SOL     OW21904   0.853   4.710   1.539 -0.1002 -0.1517 -0.3998
 7002SOL    HW121905   0.868   4.752   1.450 -1.7040 -0.1076 -0.6749
 7002SOL    HW221906   0.846   4.782   1.609  3.6977 -0.2387  0.2723
 7003SOL     OW21907   0.101   6.521   6.748  0.2133 -0.0641 -0.0334
 7003SOL    HW121908   0.152   6.528   6.662  0.3324 -0.1442  0.0303
 7003SOL    HW221909   0.161   6.487   6.820 -0.2562 -1.5026 -0.2710
 7004SOL     OW21910   6.912   0.524   6.786 -0.2421  0.5614 -0.5640
 7004SOL    HW121911   6.859   0.508   6.869  0.7023 -1.0504 -0.2167
 7004SOL    HW221912   6.872   0.473   6.710 -0.1812  0.7310 -0.7107
 7005SOL     OW21913   2.498   5.370   5.432 -0.1529  0.3743 -0.7277
 7005SOL    HW121914   2.575   5.307   5.444  0.4916  1.4221  1.0199
 7005SOL    HW221915   2.446   5.375   5.518  0.0807  2.5148 -0.6567
 7006SOL     OW21916   0.219   0.561   4.407 -0.0554  0.2913 -0.1568
 7006SOL    HW121917   0.175   0.558   4.318 -0.8552  0.0060  0.2377
 7006SOL    HW221918   0.161   0.612   4.471 -1.0635 -2.1853  1.0309
 7007SOL     OW21919   2.102   6.539   5.939  0.1389 -0.2540 -0.7914
 7007SOL    HW121920   2.095   6.442   5.918 -1.3511 -0.5602  0.8351
 7007SOL    HW221921   2.155   6.551   6.023  0.5983  0.3790 -1.1606
 7008SOL     OW21922   5.169   2.322   2.388 -0.0060 -0.4666  0.4194
 7008SOL    HW121923   5.200   2.416   2.373 -0.3200 -0.3992  0.1864
 7008SOL    HW221924   5.087   2.305   2.333  0.5428 -1.1454 -0.1882
 7009SOL     OW21925   5.926   4.965   2.298  0.3984  0.1030  0.5087
 7009SOL    HW121926   6.006   5.023   2.285  1.0079 -0.8192  0.0223
 7009SOL    HW221927   5.898   4.968   2.394  4.0872 -3.3246  1.9944
 7010SOL     OW21928   5.809   2.888   2.854 -0.2408 -0.4114  0.0467
 7010SOL    HW121929   5.787   2.982   2.880  0.4797  0.5319 -2.4592
 7010SOL    HW221930   5.727   2.845   2.815 -0.3866 -0.6115  0.5602
 7011SOL     OW21931   3.068   5.272   6.456 -1.1537  0.4455 -0.5410
 7011SOL    HW121932   2.976   5.232   6.458 -0.1193 -2.1393  0.2586
 7011SOL    HW221933   3.120   5.231   6.381  0.1540 -0.2353  0.6902
 7012SOL     OW21934   5.907   3.032   6.699 -0.3360 -0.1625  0.8126
 7012SOL    HW121935   5.958   3.086   6.767 -0.3447 -0.5378  1.1199
 7012SOL    HW221936   5.852   2.963   6.746  0.8702 -1.4791  0.3656
 7013SOL     OW21937   3.012   3.480   6.776  0.1362 -0.3076  0.2370
 7013SOL    HW121938   3.036   3.566   6.732 -0.4053 -0.3683 -0.1835
 7013SOL    HW221939   2.937   3.437   6.727 -1.1242  0.0758  1.7336
 7014SOL     OW21940   1.260   3.065   0.759  0.5931  0.2976 -0.2799
 7014SOL    HW121941   1.161   3.075   0.751  0.6442 -0.6246 -4.9370
 7014SOL    HW221942   1.304   3.151   0.733  0.9061 -0.3943 -2.2366
 7015SOL     OW21943   4.514   0.424   0.958  0.4470  0.1929 -0.2370
 7015SOL    HW121944   4.513   0.520   0.932 -1.4471  0.8958  2.0454
 7015SOL    HW221945   4.422   0.396   0.987  0.9794 -2.2831 -0.6428
 7016SOL     OW21946   2.713   6.008   0.398  0.3876  0.1816  0.0120
 7016SOL    HW121947   2.629   6.058   0.381  0.1562 -0.5909 -1.2271
 7016SOL    HW221948   2.731   5.945   0.322  1.6868 -0.2069  0.6068
 7017SOL     OW21949   5.941   4.421   0.760 -1.1444  0.1607  0.3588
 7017SOL    HW121950   5.911   4.495   0.700 -0.2827 -0.8077 -1.3365
 7017SOL    HW221951   5.974   4.459   0.846 -2.7597  1.5561  0.4091
 7018SOL     OW21952   6.656   2.071   3.695  0.4973  0.2816 -0.0120
 7018SOL    HW121953   6.645   2.001   3.765 -0.1597 -0.2012 -0.5766
 7018SOL    HW221954   6.741   2.057   3.645 -0.5285 -1.3349 -1.4156
 7019SOL     OW21955   1.588   5.319   1.442  0.3983  0.8452 -0.0126
 7019SOL    HW121956   1.533   5.337   1.361 -1.3744 -1.1485  0.6538
 7019SOL    HW221957   1.670   5.269   1.416 -0.0066  0.4829 -0.6191
 7020SOL     OW21958   6.789   1.653   6.480  0.2454  0.4318 -0.8863
 7020SOL    HW121959   6.752   1.701   6.560 -0.5463 -0.5177 -0.6629
 7020SOL    HW221960   6.881   1.688   6.460 -0.0281  1.5372 -0.3142
 7021SOL     OW21961   5.912   1.628   6.089 -0.2827  0.6674 -0.2769
 7021SOL    HW121962   5.885   1.606   6.182 -2.5414 -1.2065 -1.2707
 7021SOL    HW221963   5.884   1.721   6.067 -0.3694  0.8772  0.6960
 7022SOL     OW21964   1.316   4.419   1.440 -0.4580  0.2616 -0.5147
 7022SOL    HW121965   1.357   4.491   1.496 -0.6764  0.2130 -0.2900
 7022SOL    HW221966   1.224   4.399   1.474 -0.2347 -0.4235 -0.3043
 7023SOL     OW21967   5.981   6.757   0.425  0.2863 -0.0318 -0.4647
 7023SOL    HW121968   5.939   6.822   0.361  0.2494 -0.5277 -0.9489
 7023SOL    HW221969   6.080   6.771   0.426  0.0802  1.9074  1.5206
 7024SOL     OW21970   3.892   5.419   5.598 -0.2637  0.2895 -0.1265
 7024SOL    HW121971   3.940   5.373   5.673  0.6837  0.8704 -0.3537
 7024SOL    HW221972   3.945   5.499   5.569 -0.6468  0.1083 -1.3807
 7025SOL     OW21973   2.943   1.735   0.457 -0.4013  0.5364  0.3218
 7025SOL    HW121974   2.901   1.824   0.440 -1.0377  0.2308  0.2891
 7025SOL    HW221975   2.875   1.672   0.493 -0.1664 -0.1872 -0.4627
 7026SOL     OW21976   1.437   2.104   1.653  0.0707  0.6198 -0.2261
 7026SOL    HW121977   1.462   2.178   1.590  0.8130  1.1684  0.6682
 7026SOL    HW221978   1.339   2.108   1.672  0.2338  2.0039  0.5353
 7027SOL     OW21979   1.423   5.159   6.778 -0.0214 -0.3232 -0.3309
 7027SOL    HW121980   1.428   5.227   6.851  1.6675 -0.5375 -0.1926
 7027SOL    HW221981   1.388   5.073   6.814  1.0397 -0.5037  0.3253
 7028SOL     OW21982   3.203   1.969   1.318  0.4149  0.0654  0.0248
 7028SOL    HW121983   3.256   1.927   1.245  0.2165 -0.1340 -0.0036
 7028SOL    HW221984   3.243   2.059   1.340  0.1545  0.3693 -0.6989
 7029SOL     OW21985   3.570   3.622   2.985  0.5677  0.4065  0.0498
 7029SOL    HW121986   3.606   3.639   3.077  0.3623  1.8778 -0.1193
 7029SOL    HW221987   3.494   3.685   2.966  0.2663 -0.2236 -0.9441
 7030SOL     OW21988   1.314   6.791   6.098 -0.0613  0.1990  0.1353
 7030SOL    HW121989   1.267   6.703   6.110  0.1737 -0.0510 -0.7086
 7030SOL    HW221990   1.378   6.784   6.021 -0.5768  1.3384 -0.4150
 7031SOL     OW21991   6.820   0.022   1.631 -0.5228  0.2245 -0.5553
 7031SOL    HW121992   6.753  -0.031   1.579 -0.5645  0.5714 -0.8652
 7031SOL    HW221993   6.772   0.085   1.692 -0.4739  0.0038 -0.2869
 7032SOL     OW21994   4.312   4.693   3.705  0.5257 -0.1359  0.1925
 7032SOL    HW121995   4.226   4.745   3.705  0.5829 -0.0333  0.9268
 7032SOL    HW221996   4.296   4.604   3.749  0.6707 -0.3378 -0.1567
 7033SOL     OW21997   1.137   1.725   5.823  0.2824 -0.0866 -0.1370
 7033SOL    HW121998   1.130   1.814   5.780 -0.1907 -0.2565 -0.4125
 7033SOL    HW221999   1.136   1.736   5.923  3.3965  0.4997 -0.0424
 7034SOL     OW22000   6.902   2.270   1.623  0.0052 -0.2286  0.2811
 7034SOL    HW122001   6.906   2.171   1.614 -2.0832 -0.3664  0.3425
 7034SOL    HW222002   6.818   2.296   1.672  0.4595  1.5658  0.1887
 7035SOL     OW22003   4.762   3.095   0.423 -0.1737 -0.3103 -0.6051
 7035SOL    HW122004   4.694   3.033   0.384 -0.0656 -1.0808  0.3866
 7035SOL    HW222005   4.852   3.052   0.421  0.4651  0.9748 -2.5420
 7036SOL     OW22006   5.788   1.605   2.256 -0.1281 -0.6796  0.1307
 7036SOL    HW122007   5.838   1.522   2.232 -0.0885 -0.0906 -2.1480
 7036SOL    HW222008   5.766   1.655   2.172  1.8463  2.7877  1.4415
 7037SOL     OW22009   0.793   0.655   6.715 -0.0324 -0.6571 -0.3380
 7037SOL    HW122010   0.804   0.738   6.770 -1.2510 -0.6210 -0.1162
 7037SOL    HW222011   0.710   0.663   6.659  0.0750 -1.5416 -0.6435
 7038SOL     OW22012   6.724   3.395   6.293 -0.3486  0.2274  0.5062
 7038SOL    HW122013   6.820   3.412   6.273 -0.0477 -1.4633  0.3901
 7038SOL    HW222014   6.691   3.320   6.236 -1.4798  0.1614  1.2234
 7039SOL     OW22015   5.009   6.659   1.930 -0.1028  0.8284 -0.5787
 7039SOL    HW122016   5.061   6.624   1.852 -0.1503  0.2166 -0.3384
 7039SOL    HW222017   4.912   6.666   1.905  0.1291  2.3319 -1.1519
 7040SOL     OW22018   4.952   3.462   3.989 -0.2649 -0.5530 -0.8492
 7040SOL    HW122019   5.028   3.493   3.932  0.8803 -3.7338 -1.2328
 7040SOL    HW222020   4.916   3.376   3.954 -1.6034 -1.0301  1.4563
 7041SOL     OW22021   2.448   1.752   5.163 -0.1487  0.4065 -0.0336
 7041SOL    HW122022   2.470   1.754   5.065 -0.0702 -1.2007 -0.0762
 7041SOL    HW222023   2.397   1.835   5.187 -0.8249  0.4832 -1.5971
 7042SOL     OW22024   3.721   4.244   6.266 -0.1561 -0.6783 -0.5396
 7042SOL    HW122025   3.787   4.317   6.283 -0.0237 -0.0821 -3.1375
 7042SOL    HW222026   3.729   4.175   6.338  1.6432  0.5180  0.5038
 7043SOL     OW22027   1.870   6.473   5.251 -0.5516 -0.3257  0.3733
 7043SOL    HW122028   1.864   6.564   5.291 -2.1971 -1.4524  2.9786
 7043SOL    HW222029   1.778   6.438   5.234  0.0493 -1.4864 -0.6478
 7044SOL     OW22030   6.591   6.453   4.666  0.2843  0.5826  0.2722
 7044SOL    HW122031   6.500   6.481   4.636  0.2034  0.9262  0.8210
 7044SOL    HW222032   6.649   6.534   4.674  0.6371  0.3650 -0.0741
 7045SOL     OW22033   5.974   0.545   2.672  0.1498 -0.0180 -0.4527
 7045SOL    HW122034   5.990   0.537   2.770 -0.2608 -0.7834 -0.4435
 7045SOL    HW222035   6.058   0.574   2.626  0.3652  0.2533  0.1104
 7046SOL     OW22036   2.993   6.688   1.130  0.3868 -0.5240  0.2365
 7046SOL    HW122037   2.941   6.608   1.159 -0.2322 -1.1620 -2.3727
 7046SOL    HW222038   2.944   6.771   1.158 -0.8268 -1.0917 -0.1190
 7047SOL     OW22039   1.801   6.808   6.823  0.6585 -0.1482 -0.3723
 7047SOL    HW122040   1.827   6.881   6.886  0.6422 -2.4470  2.5257
 7047SOL    HW222041   1.710   6.826   6.786  0.4719  1.0796  0.6112
 7048SOL     OW22042   0.596   4.067   5.529  0.1688 -0.2064 -0.0727
 7048SOL    HW122043   0.574   3.987   5.475 -0.1766 -1.5881  2.0054
 7048SOL    HW222044   0.529   4.078   5.602  2.0149  0.0270  1.6857
 7049SOL     OW22045   6.707   1.370   4.456 -0.5267 -0.0482  0.1693
 7049SOL    HW122046   6.768   1.298   4.422 -0.3652  0.1797 -0.0300
 7049SOL    HW222047   6.612   1.345   4.436 -0.6462 -1.1852  1.9206
 7050SOL     OW22048   3.727   3.093   1.661  0.2697 -0.0640 -0.1783
 7050SOL    HW122049   3.640   3.113   1.615  0.6680 -0.5218 -1.1479
 7050SOL    HW222050   3.772   3.179   1.684  0.0712  0.1768 -0.6615
 7051SOL     OW22051   1.663   0.844   3.151 -0.4084 -0.0244  0.1222
 7051SOL    HW122052   1.713   0.787   3.087 -0.2051 -0.0393  0.2952
 7051SOL    HW222053   1.566   0.846   3.125 -0.6242 -1.3416  0.7486
 7052SOL     OW22054   5.298   1.970   1.095  0.2582  0.0399 -0.1101
 7052SOL    HW122055   5.396   1.957   1.110  0.6187  1.0607 -1.3975
 7052SOL    HW222056   5.284   2.021   1.010 -1.1811  3.5756  2.0310
 7053SOL     OW22057   1.179   1.491   3.443  0.0617 -0.0522 -0.6664
 7053SOL    HW122058   1.189   1.583   3.405 -0.7414  0.2750 -0.1015
 7053SOL    HW222059   1.230   1.485   3.528  0.7933 -0.3946 -1.1138
 7054SOL     OW22060   5.400   6.791   0.758 -0.0100 -0.3513  0.4271
 7054SOL    HW122061   5.378   6.878   0.802 -2.2646 -0.4322 -0.3853
 7054SOL    HW222062   5.450   6.733   0.821 -2.3836 -0.1579  2.6662
 7055SOL     OW22063   2.524   0.993   1.081  0.0753 -0.1982  0.2761
 7055SOL    HW122064   2.478   1.080   1.059 -1.2957 -0.9808 -0.0690
 7055SOL    HW222065   2.501   0.966   1.174 -1.3422 -1.2858 -0.3618
 7056SOL     OW22066   1.492   5.267   0.776  0.1089  0.4350  0.0510
 7056SOL    HW122067   1.447   5.192   0.825  1.5826  0.4099  1.4501
 7056SOL    HW222068   1.441   5.352   0.789 -1.2248 -0.1570 -1.0221
 7057SOL     OW22069   2.834   0.465   5.030  0.0763 -0.4633  0.8136
 7057SOL    HW122070   2.794   0.425   5.113  0.0731 -0.9725  0.5690
 7057SOL    HW222071   2.766   0.523   4.986 -0.5092 -1.5401  0.2549
 7058SOL     OW22072   4.742   2.870   4.969 -0.4594  0.0291  0.2891
 7058SOL    HW122073   4.801   2.804   5.016  0.0040  1.1384  1.3291
 7058SOL    HW222074   4.646   2.850   4.990 -0.3600 -0.6572  0.1136
 7059SOL     OW22075   3.867   0.233   4.061  0.2757  0.1999  0.2838
 7059SOL    HW122076   3.781   0.207   4.104  0.0952  0.7390  0.2614
 7059SOL    HW222077   3.896   0.322   4.096  0.4746  0.3316 -0.2018
 7060SOL     OW22078   2.333   3.282   0.736  0.0091 -0.9234 -0.1108
 7060SOL    HW122079   2.303   3.360   0.681 -2.3515 -0.1539  2.0356
 7060SOL    HW222080   2.401   3.313   0.802 -0.3978 -0.8200  0.2661
 7061SOL     OW22081   0.749   0.725   1.157 -0.1662  0.5597  0.0463
 7061SOL    HW122082   0.812   0.655   1.124 -1.4401  0.1173 -1.6236
 7061SOL    HW222083   0.791   0.775   1.232  1.2735 -1.1741  0.4826
 7062SOL     OW22084   2.951   0.552   5.491 -0.2076 -0.7986  0.3939
 7062SOL    HW122085   3.035   0.508   5.460 -0.3505 -1.8715  1.4620
 7062SOL    HW222086   2.882   0.547   5.419  0.1745 -1.2348  0.0521
 7063SOL     OW22087   6.928   1.042   6.464  0.6018  0.0658  0.1864
 7063SOL    HW122088   6.937   1.031   6.365 -0.7431 -0.8736  0.1355
 7063SOL    HW222089   6.853   0.984   6.497 -0.8261  2.4197  1.3400
 7064SOL     OW22090   1.520   2.375   6.996  0.0135 -0.6244  0.2954
 7064SOL    HW122091   1.593   2.339   6.938  0.9563 -0.3975  1.3101
 7064SOL    HW222092   1.470   2.300   7.038  1.2661 -0.8151  1.5344
 7065SOL     OW22093   4.424   5.575   5.423 -0.2863 -0.6966  0.2370
 7065SOL    HW122094   4.370   5.616   5.496  2.4621 -0.3506  2.2153
 7065SOL    HW222095   4.439   5.478   5.443  0.0338 -0.7294 -0.1471
 7066SOL     OW22096   5.431   6.554   1.987 -0.2269  0.0703  0.3313
 7066SOL    HW122097   5.409   6.462   2.019  2.8488 -0.8734  0.0838
 7066SOL    HW222098   5.383   6.622   2.043 -1.4232 -1.6404  1.4632
 7067SOL     OW22099   2.540   4.373   6.566 -0.0732  0.3514  0.2075
 7067SOL    HW122100   2.504   4.320   6.643  0.7307  0.5939  0.7572
 7067SOL    HW222101   2.625   4.417   6.592 -0.7292  1.9549 -0.2141
 7068SOL     OW22102   4.425   4.722   2.988  0.2253 -0.0656 -0.0560
 7068SOL    HW122103   4.507   4.758   3.032  0.8238 -0.0745 -1.1242
 7068SOL    HW222104   4.407   4.629   3.022  0.2211  0.2144  0.7262
 7069SOL     OW22105   4.972   1.942   3.383  0.3450 -0.0932 -0.3783
 7069SOL    HW122106   4.973   1.979   3.290  1.9973  0.9589  0.0100
 7069SOL    HW222107   4.912   1.862   3.386 -0.6124  0.4797 -2.0753
 7070SOL     OW22108   6.690   2.029   0.071 -0.4448  0.1249  0.1393
 7070SOL    HW122109   6.772   2.074   0.105 -0.9460  1.7272 -0.6834
 7070SOL    HW222110   6.676   2.052  -0.025 -1.1989 -1.1150 -0.0771
 7071SOL     OW22111   3.672   6.753   6.584  0.4663 -0.0489 -0.2463
 7071SOL    HW122112   3.735   6.753   6.663 -0.7787 -0.3751  0.7758
 7071SOL    HW222113   3.630   6.663   6.575 -0.4441  0.3904 -0.4363
 7072SOL     OW22114   2.129   4.990   5.681  0.3113  0.3352 -0.1335
 7072SOL    HW122115   2.220   4.983   5.640  0.0646  0.3968 -0.6875
 7072SOL    HW222116   2.101   5.086   5.684  0.7301  0.4384  1.0600
 7073SOL     OW22117   2.350   6.691   4.110  0.4291  0.4085 -0.0509
 7073SOL    HW122118   2.273   6.628   4.121 -2.0501  2.9687 -1.5317
 7073SOL    HW222119   2.351   6.756   4.186  1.4736  0.1334  0.1914
 7074SOL     OW22120   4.870   2.874   3.741 -0.4794 -0.4141 -0.5866
 7074SOL    HW122121   4.792   2.827   3.782 -0.7958  0.9154  0.3858
 7074SOL    HW222122   4.937   2.895   3.812  0.3381 -0.7225 -1.2631
 7075SOL     OW22123   1.952   5.187   2.382 -1.0562 -0.5338 -0.0174
 7075SOL    HW122124   1.878   5.253   2.380 -0.8802 -0.3485 -1.6279
 7075SOL    HW222125   2.039   5.233   2.364 -1.0758 -1.3104 -2.5359
 7076SOL     OW22126   0.116   2.502   1.833  0.3816  0.3046  0.2770
 7076SOL    HW122127   0.023   2.538   1.839  0.5316  0.6311  0.6621
 7076SOL    HW222128   0.134   2.471   1.740  0.0049  0.5550  0.1195
 7077SOL     OW22129   2.968   5.922   0.428 -0.5602 -0.6177 -0.0772
 7077SOL    HW122130   3.014   5.873   0.503 -1.3776 -0.8470  0.2796
 7077SOL    HW222131   2.869   5.919   0.442 -0.7151 -0.6053 -1.1468
 7078SOL     OW22132   6.566   0.196   6.105 -0.1641 -0.0373  0.3471
 7078SOL    HW122133   6.650   0.218   6.055  1.0312 -1.3356  1.6769
 7078SOL    HW222134   6.494   0.171   6.040  0.7647  0.1568 -0.7888
 7079SOL     OW22135   3.396   6.301   6.023  0.0287 -0.1826  0.5846
 7079SOL    HW122136   3.387   6.394   5.987 -1.9050  0.0866  1.5914
 7079SOL    HW222137   3.476   6.296   6.083  0.9034  0.4560 -0.4854
 7080SOL     OW22138   4.617   1.692   6.876  0.1474 -0.2976  0.0454
 7080SOL    HW122139   4.705   1.711   6.833  0.1111 -0.9299 -0.3253
 7080SOL    HW222140   4.557   1.645   6.811 -0.3791 -0.0805  0.3710
 7081SOL     OW22141   4.411   6.317   6.174  0.2309 -0.4605 -0.4450
 7081SOL    HW122142   4.321   6.337   6.213  1.1128 -0.5211  1.7728
 7081SOL    HW222143   4.413   6.345   6.078 -1.2894  2.0947  0.1837
 7082SOL     OW22144   0.956   4.803   1.037 -0.3707 -0.1059 -0.3689
 7082SOL    HW122145   0.901   4.822   1.118 -1.9449  1.1364 -1.6637
 7082SOL    HW222146   1.047   4.772   1.065 -1.4038 -1.3900  1.8416
 7083SOL     OW22147   5.056   2.557   3.394 -0.5152  0.1135  0.3738
 7083SOL    HW122148   4.976   2.559   3.334 -1.7865  0.8555  1.9768
 7083SOL    HW222149   5.047   2.629   3.463  0.5494 -1.0755  1.8316
 7084SOL     OW22150   2.454   4.116   0.033 -0.3176  0.0408 -0.8241
 7084SOL    HW122151   2.425   4.086   0.124 -2.0905  1.3979 -0.8794
 7084SOL    HW222152   2.376   4.156  -0.015  1.4032  2.9241 -1.4461
 7085SOL     OW22153   0.303   3.231   1.146 -0.1024 -0.1175  0.6831
 7085SOL    HW122154   0.209   3.258   1.128 -0.3732 -1.5541 -0.2210
 7085SOL    HW222155   0.315   3.134   1.123  1.1423 -0.4415  2.4848
 7086SOL     OW22156   3.720   1.607   2.959 -0.2025  0.1168  0.4480
 7086SOL    HW122157   3.773   1.525   2.980 -1.7418 -0.5150  2.1616
 7086SOL    HW222158   3.654   1.624   3.032 -0.3821  2.5385 -0.1672
 7087SOL     OW22159   5.036   2.475   3.022  0.0601 -0.0270  0.3203
 7087SOL    HW122160   5.078   2.386   3.004 -0.7156 -0.7590  1.9145
 7087SOL    HW222161   5.096   2.529   3.080  0.6686  0.6544 -0.8926
 7088SOL     OW22162   6.627   0.211   0.023  0.5836 -0.0971 -0.0267
 7088SOL    HW122163   6.532   0.236   0.040  0.4412 -1.2427  0.9796
 7088SOL    HW222164   6.671   0.186   0.109  0.9488 -2.3696 -0.8013
 7089SOL     OW22165   2.149   5.367   2.341  0.4093 -0.0116  0.1269
 7089SOL    HW122166   2.209   5.332   2.413  1.8571  1.6675 -0.1866
 7089SOL    HW222167   2.205   5.410   2.269 -1.1633  2.7572  0.4118
 7090SOL     OW22168   6.574   2.519   2.352 -0.1426  0.0775 -0.1130
 7090SOL    HW122169   6.537   2.601   2.394 -1.7939 -0.1537 -1.0435
 7090SOL    HW222170   6.534   2.506   2.261  1.1430 -1.0031 -0.5625
 7091SOL     OW22171   4.640   5.534   4.506  0.2817  0.1760  0.1612
 7091SOL    HW122172   4.665   5.440   4.531 -0.5207  0.0449  0.5254
 7091SOL    HW222173   4.722   5.589   4.495  0.7531 -0.5063  0.2115
 7092SOL     OW22174   0.692   1.769   6.710  0.6181 -0.5936 -0.1519
 7092SOL    HW122175   0.766   1.759   6.645  0.4274 -1.1113 -0.2937
 7092SOL    HW222176   0.611   1.804   6.663  0.2801 -1.5942 -0.3398
 7093SOL     OW22177   4.195   4.518   1.094  0.4514  0.1380  0.2414
 7093SOL    HW122178   4.120   4.461   1.062 -0.1011  0.4859  0.8792
 7093SOL    HW222179   4.202   4.511   1.193 -0.2359  1.8740  0.4458
 7094SOL     OW22180   4.175   1.789   5.730  0.1885  0.2240  0.4742
 7094SOL    HW122181   4.207   1.741   5.648  1.0897  2.2936 -0.4546
 7094SOL    HW222182   4.254   1.819   5.783 -0.3631  0.5176  1.1383
 7095SOL     OW22183   2.526   6.117   2.496 -0.0620  0.6042  0.0547
 7095SOL    HW122184   2.580   6.158   2.422 -0.4776 -0.4513 -0.8579
 7095SOL    HW222185   2.441   6.081   2.459 -0.6360  0.7515  1.2013
 7096SOL     OW22186   1.555   5.558   6.737  0.2998  0.1016 -0.1789
 7096SOL    HW122187   1.626   5.488   6.732 -1.1788 -1.7067  1.8224
 7096SOL    HW222188   1.557   5.614   6.655  1.9420 -1.9150 -1.6215
 7097SOL     OW22189   4.305   1.228   2.371 -0.2132  0.0356 -0.4044
 7097SOL    HW122190   4.355   1.290   2.311 -1.0950 -0.4574 -1.6834
 7097SOL    HW222191   4.208   1.230   2.348 -0.4777 -0.6776  0.5719
 7098SOL     OW22192   2.271   0.520   1.467 -0.0562  0.0211 -0.5792
 7098SOL    HW122193   2.365   0.548   1.485  0.2753 -0.2615 -1.8242
 7098SOL    HW222194   2.220   0.597   1.428 -0.5387  0.3699  0.6750
 7099SOL     OW22195   2.757   1.295   4.324  0.3032 -0.2779  0.1536
 7099SOL    HW122196   2.744   1.388   4.359 -3.6443  0.2113 -2.0219
 7099SOL    HW222197   2.706   1.230   4.381 -0.6779 -0.4014 -0.8278
 7100SOL     OW22198   0.951   2.971   2.598  0.1773  0.0264 -0.1775
 7100SOL    HW122199   0.855   2.958   2.622  0.6950 -0.5965  1.7854
 7100SOL    HW222200   1.001   2.886   2.614  1.0404  0.3031 -1.2998
 7101SOL     OW22201   1.848   6.183   5.107  0.4868 -0.0361  0.3462
 7101SOL    HW122202   1.884   6.090   5.094  0.1403  0.0852 -1.9054
 7101SOL    HW222203   1.917   6.239   5.153  0.3799 -1.5879  2.5374
 7102SOL     OW22204   4.264   0.183   2.853  0.3938  0.3138  0.0936
 7102SOL    HW122205   4.269   0.212   2.758 -1.3669  0.9356  0.1663
 7102SOL    HW222206   4.299   0.089   2.861  1.5749  0.6319 -0.9512
 7103SOL     OW22207   0.900   4.038   3.721  0.0020  0.2787 -0.1208
 7103SOL    HW122208   0.829   3.971   3.700  0.6752 -1.1561  1.8650
 7103SOL    HW222209   0.990   3.996   3.711  0.4826  1.2482  0.0110
 7104SOL     OW22210   4.724   2.226   4.860  0.2006 -0.2959  0.4982
 7104SOL    HW122211   4.804   2.237   4.919 -0.2253  0.8027  0.9085
 7104SOL    HW222212   4.720   2.132   4.826 -0.1080 -1.3278  3.0997
 7105SOL     OW22213   2.139   4.027   1.966 -0.0986 -0.0371  0.1941
 7105SOL    HW122214   2.129   4.018   2.065  0.3645 -0.0759  0.2424
 7105SOL    HW222215   2.150   3.937   1.925 -1.6430 -0.1330 -0.0614
 7106SOL     OW22216   2.753   1.656   3.484 -0.0666  0.2805  0.5505
 7106SOL    HW122217   2.804   1.571   3.502  0.3703  0.2486 -0.7070
 7106SOL    HW222218   2.805   1.713   3.421 -0.3012  1.5637  1.4804
 7107SOL     OW22219   5.045   6.857   2.263  0.4148  0.3075  0.2167
 7107SOL    HW122220   5.062   6.758   2.261  0.7959  0.3662  0.3973
 7107SOL    HW222221   5.052   6.890   2.357  2.2229  0.8245 -0.0646
 7108SOL     OW22222   2.372   1.203   0.965  0.4525  0.7869  0.4398
 7108SOL    HW122223   2.293   1.153   1.000  1.5130 -0.3928  1.2309
 7108SOL    HW222224   2.385   1.287   1.017  0.5983  0.2341  1.3184
 7109SOL     OW22225   1.838   2.368   5.331 -0.2044  0.2899  0.1897
 7109SOL    HW122226   1.917   2.378   5.391 -0.4470  1.6399  0.3061
 7109SOL    HW222227   1.855   2.414   5.244 -1.2613  1.5835  0.6317
 7110SOL     OW22228   2.433   6.640   6.334 -0.5645 -0.0190  0.3612
 7110SOL    HW122229   2.361   6.661   6.400 -1.0262  1.6844 -0.6275
 7110SOL    HW222230   2.521   6.673   6.370 -0.7300  0.4242  0.3710
 7111SOL     OW22231   6.760   2.577   5.400  0.4429  0.2576  0.3808
 7111SOL    HW122232   6.671   2.587   5.355  1.2830 -1.3400 -1.7733
 7111SOL    HW222233   6.753   2.508   5.472  0.1276 -0.5323 -0.3877
 7112SOL     OW22234   0.485   3.636   3.544  0.3410 -0.6757 -0.4786
 7112SOL    HW122235   0.414   3.702   3.522 -0.1187 -0.6060  1.0981
 7112SOL    HW222236   0.563   3.649   3.483 -0.1846  0.5723 -0.9155
 7113SOL     OW22237   4.506   0.657   5.426  0.2338  0.4714 -0.0478
 7113SOL    HW122238   4.592   0.700   5.401  0.1136  0.3420 -0.7100
 7113SOL    HW222239   4.445   0.724   5.467  0.3396  0.7512 -0.3484
 7114SOL     OW22240   6.578   4.215   0.285  0.0118 -0.8985  0.0036
 7114SOL    HW122241   6.561   4.124   0.322 -0.9773  0.7726  4.1917
 7114SOL    HW222242   6.512   4.235   0.212 -2.3127 -2.2125  1.6370
 7115SOL     OW22243   5.774   3.620   6.173 -1.0633  0.3084  0.1886
 7115SOL    HW122244   5.718   3.692   6.131 -2.5147 -1.4298 -1.0291
 7115SOL    HW222245   5.807   3.652   6.262 -2.4169  2.1265  0.1156
 7116SOL     OW22246   6.086   6.389   4.855  0.3057 -0.4336 -0.1875
 7116SOL    HW122247   6.091   6.338   4.941  1.2022  0.6740  0.4488
 7116SOL    HW222248   6.118   6.483   4.870 -1.8929  0.5548 -1.1736
 7117SOL     OW22249   4.153   0.959   1.822 -0.0759  0.6323 -0.2213
 7117SOL    HW122250   4.210   0.912   1.890 -0.2677  2.0169  0.9343
 7117SOL    HW222251   4.058   0.929   1.831  0.3243 -1.4212 -1.9229
 7118SOL     OW22252   6.152   4.338   6.101  0.3832 -0.6087 -0.3700
 7118SOL    HW122253   6.241   4.312   6.138  0.2826  0.5525  0.7673
 7118SOL    HW222254   6.081   4.279   6.141  0.1040  1.4387  2.5213
 7119SOL     OW22255   1.994   5.911   2.942  0.2732 -0.2824 -0.6339
 7119SOL    HW122256   1.917   5.933   3.002 -0.0622 -0.4955 -0.9756
 7119SOL    HW222257   1.969   5.932   2.847 -0.8141 -3.7944 -1.2919
 7120SOL     OW22258   2.930   2.153   3.378 -0.5481  0.7796  0.1824
 7120SOL    HW122259   2.888   2.081   3.322 -0.8702  0.7224  0.4931
 7120SOL    HW222260   2.878   2.237   3.368 -0.4611  0.8364  0.2094
 7121SOL     OW22261   2.789   5.701   1.646 -0.0353  0.3770 -0.5671
 7121SOL    HW122262   2.775   5.789   1.692  0.5681  0.6865 -0.9631
 7121SOL    HW222263   2.867   5.655   1.687  0.6417  0.7512 -1.4075
 7122SOL     OW22264   0.585   2.834   6.629  0.7136 -0.2547 -0.5841
 7122SOL    HW122265   0.620   2.741   6.641 -0.6201 -0.4888  2.2530
 7122SOL    HW222266   0.628   2.895   6.695  0.0983  0.7272 -1.0687
 7123SOL     OW22267   5.615   2.122   6.627 -1.0638  0.6415  0.1873
 7123SOL    HW122268   5.628   2.054   6.555 -0.9157  1.9806 -1.0819
 7123SOL    HW222269   5.632   2.079   6.716  1.2071 -0.4818 -0.6906
 7124SOL     OW22270   3.518   3.249   4.115  0.5786  0.2388 -0.2387
 7124SOL    HW122271   3.456   3.171   4.123 -1.0640  1.7012  2.6686
 7124SOL    HW222272   3.481   3.315   4.050  0.2958  0.0572 -0.2620
 7125SOL     OW22273   1.143   5.093   0.363 -0.6201 -0.3217 -0.3396
 7125SOL    HW122274   1.091   5.122   0.443 -1.4024  1.2089 -1.3580
 7125SOL    HW222275   1.235   5.133   0.366 -0.0726 -1.5940  0.5783
 7126SOL     OW22276   2.455   6.087   6.426  0.0560  0.0433 -0.6783
 7126SOL    HW122277   2.526   6.093   6.496 -0.3267 -1.5793 -0.1139
 7126SOL    HW222278   2.366   6.071   6.470 -0.2218 -0.7748 -1.5197
 7127SOL     OW22279   2.543   6.387   1.783  0.1434 -0.2598 -0.4227
 7127SOL    HW122280   2.548   6.288   1.773  0.0109 -0.3462  0.3191
 7127SOL    HW222281   2.456   6.412   1.826  1.0500  0.0013  1.3380
 7128SOL     OW22282   4.644   2.524   0.253 -0.4299 -0.7307 -0.3606
 7128SOL    HW122283   4.586   2.515   0.334 -1.5779 -1.2464 -1.2116
 7128SOL    HW222284   4.605   2.594   0.192  0.5710 -0.1477 -0.3653
 7129SOL     OW22285   4.291   0.500   0.292 -0.4620 -0.0806 -0.1657
 7129SOL    HW122286   4.220   0.434   0.269 -0.3771 -0.3088  0.2266
 7129SOL    HW222287   4.281   0.528   0.388  0.3653 -0.6012  0.0850
 7130SOL     OW22288   1.208   6.615   2.687 -0.2590  0.5026 -0.5555
 7130SOL    HW122289   1.115   6.580   2.693 -0.1384 -0.7484 -3.9345
 7130SOL    HW222290   1.227   6.644   2.594  2.3574  2.0273  0.3408
 7131SOL     OW22291   2.557   0.494   1.835 -0.5144  0.0862  0.0346
 7131SOL    HW122292   2.482   0.559   1.843  0.0429  0.8200 -0.5644
 7131SOL    HW222293   2.619   0.503   1.913 -1.7571 -1.4868  1.2695
 7132SOL     OW22294   0.476   5.517   3.245  0.2826 -0.1629  0.0303
 7132SOL    HW122295   0.418   5.436   3.232  1.5613 -0.9099 -1.2687
 7132SOL    HW222296   0.564   5.489   3.283 -0.5416  1.1008  3.1493
 7133SOL     OW22297   4.353   5.458   1.474 -0.0466 -0.2117  0.4857
 7133SOL    HW122298   4.449   5.480   1.490 -0.0701  0.9657 -0.8033
 7133SOL    HW222299   4.324   5.388   1.539  2.0114 -1.5082  0.1027
 7134SOL     OW22300   0.356   3.562   6.230  0.1926 -0.0894 -0.1882
 7134SOL    HW122301   0.320   3.525   6.144 -1.4354  1.7809 -0.3845
 7134SOL    HW222302   0.398   3.650   6.212 -0.9690  0.7508  1.0245
 7135SOL     OW22303   2.279   6.538   5.421 -0.3121  0.0266 -0.2948
 7135SOL    HW122304   2.225   6.498   5.496 -0.0858  0.8298  0.3148
 7135SOL    HW222305   2.358   6.480   5.402  0.9285  0.9467  1.6949
 7136SOL     OW22306   1.235   2.917   4.337  0.1977 -0.7057 -0.9530
 7136SOL    HW122307   1.282   2.988   4.389 -2.0301  0.8291 -0.9218
 7136SOL    HW222308   1.138   2.917   4.360 -0.2692 -2.2441 -2.6716
 7137SOL     OW22309   2.124   6.649   2.522 -0.0712  0.1382  0.4045
 7137SOL    HW122310   2.024   6.647   2.526 -0.1798  0.1052 -1.4803
 7137SOL    HW222311   2.155   6.744   2.515 -0.1395  0.0803 -1.2064
 7138SOL     OW22312   0.092   5.137   1.398  0.1097  0.2012  0.5467
 7138SOL    HW122313   0.062   5.047   1.430 -1.2528  1.0058  1.6210
 7138SOL    HW222314   0.146   5.182   1.469 -0.6092  0.8947  0.6649
 7139SOL     OW22315   6.218   5.224   2.612 -0.3221  0.2100  0.6196
 7139SOL    HW122316   6.260   5.211   2.522 -1.4176 -1.8355  0.3412
 7139SOL    HW222317   6.160   5.306   2.609  0.7337  0.9674 -0.0795
 7140SOL     OW22318   0.048   4.179   6.516  0.3261  0.3292 -0.5018
 7140SOL    HW122319   0.097   4.128   6.445 -1.4739 -1.6403 -0.4422
 7140SOL    HW222320   0.099   4.175   6.602  0.5086 -0.8953 -0.6536
 7141SOL     OW22321   2.885   2.049   1.887 -0.0778  0.0177  0.1525
 7141SOL    HW122322   2.867   2.135   1.934  0.6434  0.7935 -0.9465
 7141SOL    HW222323   2.984   2.030   1.891 -0.3543 -1.3654  1.3773
 7142SOL     OW22324   2.228   6.691   5.174  0.1649  0.2812  0.4613
 7142SOL    HW122325   2.197   6.785   5.187 -2.8256 -0.6758  1.0027
 7142SOL    HW222326   2.238   6.646   5.262 -0.9191 -0.6010  0.1573
 7143SOL     OW22327   2.828   1.411   5.031 -0.1010  0.2446  0.7965
 7143SOL    HW122328   2.837   1.331   4.972 -0.8297  0.7924 -0.0754
 7143SOL    HW222329   2.735   1.417   5.066 -0.6692  1.7904 -0.7883
 7144SOL     OW22330   4.511   1.910   6.205  0.1754 -0.4535  0.1769
 7144SOL    HW122331   4.523   1.996   6.156 -0.0044 -0.9503 -0.7741
 7144SOL    HW222332   4.553   1.836   6.153  1.5768 -0.7624  1.6549
 7145SOL     OW22333   1.009   4.498   3.307 -0.5162  0.3140 -0.0542
 7145SOL    HW122334   1.092   4.552   3.315 -0.6995  0.3893  2.0057
 7145SOL    HW222335   0.951   4.536   3.235  0.2616  1.6103 -0.0290
 7146SOL     OW22336   6.279   1.028   5.208 -0.3593 -0.0872 -0.6929
 7146SOL    HW122337   6.206   1.002   5.271 -1.3252 -0.6118 -1.9856
 7146SOL    HW222338   6.304   1.124   5.223 -0.3116 -0.2994  0.7059
 7147SOL     OW22339   5.734   6.345   0.401 -0.4061 -0.0681  0.3493
 7147SOL    HW122340   5.722   6.291   0.318 -0.5064  1.2132 -0.5063
 7147SOL    HW222341   5.645   6.357   0.446 -0.6888  0.7836 -0.3930
 7148SOL     OW22342   4.890   6.477   1.220  0.5298 -0.3467 -0.6505
 7148SOL    HW122343   4.883   6.577   1.211  2.8390 -0.0480  0.2163
 7148SOL    HW222344   4.984   6.452   1.241 -0.2060 -2.6584  0.2072
 7149SOL     OW22345   0.189   4.534   1.202  0.1428  0.6785 -0.3456
 7149SOL    HW122346   0.136   4.565   1.123  1.1693 -0.8918 -1.7493
 7149SOL    HW222347   0.287   4.535   1.178  0.3184 -2.5213 -0.2162
 7150SOL     OW22348   2.823   2.828   5.980  0.0321 -0.0228  0.1885
 7150SOL    HW122349   2.759   2.898   6.012 -0.5251  0.2906 -1.4726
 7150SOL    HW222350   2.803   2.741   6.024 -0.0441  0.5930  1.3961
 7151SOL     OW22351   5.014   2.008   0.868 -0.3399  0.1374  0.3122
 7151SOL    HW122352   4.956   2.048   0.939  0.3398  0.7834  0.5131
 7151SOL    HW222353   5.099   2.060   0.860 -0.0438 -0.4264 -0.4046
 7152SOL     OW22354   6.166   6.919   5.059  0.3593  0.1476  0.0819
 7152SOL    HW122355   6.198   6.829   5.028  1.0488  0.9842 -1.7589
 7152SOL    HW222356   6.209   6.991   5.004 -0.3528  1.6141  1.3583
 7153SOL     OW22357   2.760   5.802   6.942  0.1411  0.5983  0.1865
 7153SOL    HW122358   2.705   5.718   6.937  0.0448  0.6737 -0.0907
 7153SOL    HW222359   2.810   5.813   6.856  0.8373  0.3670  0.5565
 7154SOL     OW22360   0.697   0.003   4.198 -0.9333  0.1757  0.3249
 7154SOL    HW122361   0.721  -0.032   4.108 -0.5599  2.8128 -0.7024
 7154SOL    HW222362   0.634   0.081   4.188 -1.1222  0.3490  2.3724
 7155SOL     OW22363   1.591   0.060   1.588  0.0994 -0.1188 -0.6507
 7155SOL    HW122364   1.663   0.033   1.651  1.4775 -0.0214 -2.1378
 7155SOL    HW222365   1.502   0.044   1.631  0.9730 -0.5600  1.0882
 7156SOL     OW22366   0.067   3.661   4.909 -0.3114  0.3892  0.6035
 7156SOL    HW122367   0.108   3.575   4.880  3.2095  1.8358  0.8263
 7156SOL    HW222368   0.062   3.724   4.831 -0.1157  0.9533  1.0379
 7157SOL     OW22369   0.615   4.060   5.968  0.7907  0.5050  0.3054
 7157SOL    HW122370   0.659   3.974   5.942 -0.2267  0.5180 -1.6769
 7157SOL    HW222371   0.617   4.070   6.067  0.7125 -1.9211  0.6082
 7158SOL     OW22372   4.977   6.130   3.174 -0.2709  0.3271 -0.2914
 7158SOL    HW122373   4.947   6.218   3.136 -0.0088  0.1331 -0.9529
 7158SOL    HW222374   4.900   6.067   3.176 -0.2043  0.2237 -0.8405
 7159SOL     OW22375   1.741   0.274   2.588  0.0826 -0.0138 -0.3371
 7159SOL    HW122376   1.660   0.277   2.646  0.0194  0.2219 -0.4398
 7159SOL    HW222377   1.790   0.188   2.605 -0.4636 -0.3954 -0.6538
 7160SOL     OW22378   6.723   0.095   2.364  0.1569 -0.2581 -0.1101
 7160SOL    HW122379   6.649   0.138   2.416  0.7408  0.0929  0.4418
 7160SOL    HW222380   6.705  -0.003   2.355  0.0728 -0.3298  0.7929
 7161SOL     OW22381   4.187   2.945   0.947 -0.5070 -0.3782 -0.2843
 7161SOL    HW122382   4.217   2.935   1.042  0.4019 -2.7092 -0.7474
 7161SOL    HW222383   4.087   2.935   0.942 -0.8566  2.0628  0.6391
 7162SOL     OW22384   6.413   6.801   6.457  0.0510 -0.2641  0.5802
 7162SOL    HW122385   6.318   6.774   6.440 -0.0282 -0.0528  0.6839
 7162SOL    HW222386   6.439   6.874   6.394  0.0552 -0.1291  0.7363
 7163SOL     OW22387   0.032   4.716   0.762  0.0468 -0.7142 -0.1014
 7163SOL    HW122388   0.110   4.778   0.759 -0.5769  0.1214  0.4746
 7163SOL    HW222389   0.042   4.646   0.691  0.2410  0.6619 -1.4798
 7164SOL     OW22390   0.637   5.860   6.314 -0.0520  0.8476 -0.5472
 7164SOL    HW122391   0.553   5.807   6.309 -0.8117  1.7453  1.5607
 7164SOL    HW222392   0.614   5.957   6.327  1.3136  1.2123 -0.7059
 7165SOL     OW22393   4.051   2.504   5.447  0.0465 -0.0297  0.0854
 7165SOL    HW122394   4.058   2.496   5.348 -2.8600  2.2597 -0.4469
 7165SOL    HW222395   4.128   2.456   5.490  1.3478 -1.1795 -3.2080
 7166SOL     OW22396   0.553   0.023   5.616  0.7239  0.6384 -0.2554
 7166SOL    HW122397   0.538   0.112   5.658  1.6824  0.6598  0.0799
 7166SOL    HW222398   0.551   0.031   5.517 -0.4983  0.7821 -0.2374
 7167SOL     OW22399   0.078   5.013   0.156 -0.1088  0.4247  0.4553
 7167SOL    HW122400   0.035   4.953   0.089 -0.2394 -0.0007  0.9126
 7167SOL    HW222401   0.121   5.089   0.109 -1.0257  0.6551 -0.0437
 7168SOL     OW22402   0.155   0.416   1.670  0.5018  0.6090  0.0752
 7168SOL    HW122403   0.241   0.366   1.669 -0.1055 -0.4859 -0.7220
 7168SOL    HW222404   0.112   0.410   1.579 -0.5056  0.9271  0.5109
 7169SOL     OW22405   4.047   6.571   6.670 -0.1658  0.2130 -0.4210
 7169SOL    HW122406   4.053   6.588   6.572 -0.5274 -0.0892 -0.4968
 7169SOL    HW222407   4.003   6.483   6.686  1.7828 -0.7657 -0.0427
 7170SOL     OW22408   5.461   3.248   1.187 -0.0439 -0.5114  0.0818
 7170SOL    HW122409   5.366   3.279   1.187 -0.1055 -0.6767 -0.5252
 7170SOL    HW222410   5.495   3.247   1.093  0.6308 -0.2380  0.3152
 7171SOL     OW22411   1.772   4.316   1.407 -0.1147 -0.3987 -0.1932
 7171SOL    HW122412   1.750   4.303   1.504  1.6281  1.0409  0.4553
 7171SOL    HW222413   1.710   4.261   1.351 -1.9215 -0.3773  1.6691
 7172SOL     OW22414   1.409   1.934   6.087 -0.2415  0.1775  0.8155
 7172SOL    HW122415   1.391   1.989   6.006 -0.9995 -1.2337 -0.0073
 7172SOL    HW222416   1.500   1.892   6.079  1.5819  3.3470  2.6950
 7173SOL     OW22417   4.375   4.994   4.948  0.1524  0.0718 -0.4790
 7173SOL    HW122418   4.473   5.005   4.962  0.0796  1.0166 -0.6827
 7173SOL    HW222419   4.343   5.058   4.879 -0.1446 -2.0859 -2.4503
 7174SOL     OW22420   5.123   4.458   3.255 -0.5057  0.0730 -0.1952
 7174SOL    HW122421   5.078   4.419   3.336 -1.8995  1.8146 -0.0549
 7174SOL    HW222422   5.216   4.422   3.248 -0.9838 -1.5514  1.0965
 7175SOL     OW22423   7.011   1.153   3.826 -0.3731 -0.1725 -0.8611
 7175SOL    HW122424   7.002   1.203   3.740 -1.6436  2.4171  0.6548
 7175SOL    HW222425   6.927   1.163   3.879  1.6746  1.6480  2.3123
 7176SOL     OW22426   5.833   2.285   6.611  0.2058  0.3897 -0.0022
 7176SOL    HW122427   5.855   2.324   6.522  2.7250 -2.3332 -0.7622
 7176SOL    HW222428   5.762   2.216   6.601  1.3779 -0.8354 -0.2387
 7177SOL     OW22429   0.711   5.080   3.534  0.1205 -0.2121 -0.1519
 7177SOL    HW122430   0.681   5.136   3.611  0.8577 -1.2779  0.9472
 7177SOL    HW222431   0.661   4.993   3.534  0.7555 -0.5817 -0.3538
 7178SOL     OW22432   1.899   4.243   4.515 -0.1642 -0.5606  0.3034
 7178SOL    HW122433   1.966   4.286   4.575  0.8659 -0.9724 -0.5203
 7178SOL    HW222434   1.908   4.144   4.522 -0.0640 -0.6106 -0.4908
 7179SOL     OW22435   4.411   5.657   4.523  0.1309  0.5403 -0.4110
 7179SOL    HW122436   4.492   5.600   4.507  1.1969  2.1698 -1.1831
 7179SOL    HW222437   4.370   5.681   4.435  0.3826  1.8621 -0.1855
 7180SOL     OW22438   6.566   1.521   1.824 -0.0207 -0.0007  0.8133
 7180SOL    HW122439   6.536   1.596   1.764 -0.8013 -0.7837  0.2014
 7180SOL    HW222440   6.646   1.551   1.877  0.0750  1.0422  0.1151
 7181SOL     OW22441   4.623   6.884   0.583 -0.1978  0.7633  0.2982
 7181SOL    HW122442   4.563   6.807   0.562  0.5663  0.2503 -0.0934
 7181SOL    HW222443   4.702   6.850   0.635  0.6460  1.0976 -0.7290
 7182SOL     OW22444   2.021   1.801   1.868  0.1684  0.2995 -0.2553
 7182SOL    HW122445   1.978   1.745   1.939 -0.9145  1.0145 -0.3256
 7182SOL    HW222446   2.034   1.745   1.785 -1.8463  0.3814 -0.6741
 7183SOL     OW22447   1.839   6.730   1.278 -0.3957 -0.1452 -1.0038
 7183SOL    HW122448   1.874   6.666   1.347 -1.4401 -1.5260 -1.7014
 7183SOL    HW222449   1.784   6.800   1.323 -0.8700 -0.8923 -0.3899
 7184SOL     OW22450   5.008   2.163   3.565 -0.0920  0.1493 -0.1046
 7184SOL    HW122451   4.972   2.089   3.508 -1.8598  1.0444 -0.2321
 7184SOL    HW222452   5.086   2.206   3.520  0.8773 -1.5159 -0.0854
 7185SOL     OW22453   5.111   6.458   3.937  0.1367 -0.3709  0.5461
 7185SOL    HW122454   5.199   6.484   3.977 -0.4055  1.3712  0.6928
 7185SOL    HW222455   5.126   6.425   3.844  0.8611  1.3003  0.0224
 7186SOL     OW22456   5.433   2.884   1.731 -0.0450  0.4479  0.0074
 7186SOL    HW122457   5.337   2.888   1.758  0.3220 -1.9919  1.9707
 7186SOL    HW222458   5.492   2.902   1.810  1.1559  1.4292 -1.0548
 7187SOL     OW22459   3.592   4.171   3.799  0.1585  0.1481 -0.6633
 7187SOL    HW122460   3.683   4.132   3.805 -0.8258 -2.0274  1.4846
 7187SOL    HW222461   3.549   4.142   3.713  0.1065 -2.1312  0.0787
 7188SOL     OW22462   2.880   6.862   5.431 -0.3656 -0.6048 -0.2110
 7188SOL    HW122463   2.837   6.898   5.514  2.0820 -1.5539  1.5751
 7188SOL    HW222464   2.842   6.772   5.411 -2.2381  0.3554 -1.2321
 7189SOL     OW22465   5.809   0.583   0.920  0.1072  0.0811 -0.5870
 7189SOL    HW122466   5.737   0.649   0.899 -1.1878 -1.2776 -0.6268
 7189SOL    HW222467   5.855   0.556   0.836 -0.7530 -0.5642 -0.8726
 7190SOL     OW22468   0.382   5.612   0.271 -0.0691 -0.2552  0.7243
 7190SOL    HW122469   0.450   5.678   0.240  0.1978 -0.5315  0.7175
 7190SOL    HW222470   0.388   5.600   0.370 -0.8455  0.5407  0.8885
 7191SOL     OW22471   0.629   5.647   2.900  0.5471 -0.2797  0.2204
 7191SOL    HW122472   0.532   5.652   2.924  0.9431 -0.0342  1.9065
 7191SOL    HW222473   0.657   5.732   2.856  0.1452 -0.0974  0.3153
 7192SOL     OW22474   4.190   5.203   6.334 -1.0646 -0.4760 -0.1207
 7192SOL    HW122475   4.227   5.111   6.346 -0.4482 -0.2057  0.0542
 7192SOL    HW222476   4.133   5.227   6.413 -0.8992 -0.5506  0.0200
 7193SOL     OW22477   4.759   1.484   5.302  0.4462  0.0228  0.2458
 7193SOL    HW122478   4.670   1.513   5.268  0.0574 -0.3971  0.9046
 7193SOL    HW222479   4.825   1.559   5.290 -0.0736  0.4626  0.1065
 7194SOL     OW22480   3.680   3.693   3.243  0.2421 -0.2413 -0.0492
 7194SOL    HW122481   3.778   3.714   3.245  0.4357 -1.1461  0.7910
 7194SOL    HW222482   3.630   3.759   3.298  0.9089 -2.1147  3.0903
 7195SOL     OW22483   0.074   4.211   4.167 -0.5169  0.0798  0.2284
 7195SOL    HW122484   0.112   4.232   4.077  1.2952  0.9695  1.1403
 7195SOL    HW222485   0.011   4.284   4.194 -1.4529 -0.4375 -0.4919
 7196SOL     OW22486   1.562   4.287   0.647 -0.3236  0.1295  0.7495
 7196SOL    HW122487   1.650   4.334   0.657  1.0573 -2.4487  1.7656
 7196SOL    HW222488   1.510   4.294   0.733 -0.0888 -0.2317  0.9234
 7197SOL     OW22489   4.340   4.801   0.144  0.4537  0.8206  0.1552
 7197SOL    HW122490   4.327   4.900   0.142  1.2328  0.9345  0.0276
 7197SOL    HW222491   4.252   4.755   0.148 -0.0632  1.4701 -2.0487
 7198SOL     OW22492   1.570   6.631   0.580 -0.1434 -0.0946 -0.2896
 7198SOL    HW122493   1.603   6.540   0.555  1.0067 -0.1568  1.3168
 7198SOL    HW222494   1.540   6.630   0.675 -0.0105  1.2230 -0.2229
 7199SOL     OW22495   6.120   0.234   3.912  0.7612  0.3405 -0.8692
 7199SOL    HW122496   6.079   0.143   3.921  1.3942  0.0253 -1.1632
 7199SOL    HW222497   6.067   0.288   3.846  0.4393  0.1606 -0.7621
 7200SOL     OW22498   6.544   3.617   6.018 -0.1665 -0.2956  0.3299
 7200SOL    HW122499   6.449   3.638   5.994 -0.0331  0.8187  0.6968
 7200SOL    HW222500   6.588   3.700   6.054  1.7266 -0.0424 -2.2559
 7201SOL     OW22501   0.121   2.777   5.397 -0.3181  0.4939 -0.1914
 7201SOL    HW122502   0.219   2.758   5.389 -0.2902  0.9977 -1.2787
 7201SOL    HW222503   0.073   2.732   5.322 -0.6037  2.2716 -1.1034
 7202SOL     OW22504   3.269   0.091   0.454 -0.4889  0.1192 -0.1678
 7202SOL    HW122505   3.296   0.083   0.550 -0.1265  1.3932 -0.1447
 7202SOL    HW222506   3.184   0.142   0.447 -1.4601 -1.4795 -0.4340
 7203SOL     OW22507   1.515   1.978   1.357  0.0035  0.3361  0.2002
 7203SOL    HW122508   1.501   2.036   1.277  0.2572  0.5206  0.2887
 7203SOL    HW222509   1.441   1.995   1.423 -0.2599  0.1107 -0.0361
 7204SOL     OW22510   5.906   6.134   1.861 -0.0090  0.9153  0.2278
 7204SOL    HW122511   5.880   6.098   1.950 -0.0637  0.2473 -0.0504
 7204SOL    HW222512   5.827   6.179   1.818  0.0007  1.1793  0.4871
 7205SOL     OW22513   2.805   1.089   5.525 -0.3084 -0.0579  0.1437
 7205SOL    HW122514   2.752   1.037   5.458  0.9245 -0.3188 -0.6533
 7205SOL    HW222515   2.852   1.165   5.480  2.2754 -1.4942  0.2145
 7206SOL     OW22516   0.842   2.571   0.108 -0.3616  0.1146 -0.2705
 7206SOL    HW122517   0.883   2.548   0.196  0.4195  1.3393 -0.2961
 7206SOL    HW222518   0.799   2.661   0.113 -1.7380 -0.4983 -0.6864
 7207SOL     OW22519   1.071   3.156   5.070  0.4114  0.0009 -0.4127
 7207SOL    HW122520   1.165   3.140   5.039  0.6457 -0.7546  0.6111
 7207SOL    HW222521   1.008   3.102   5.015  0.7325 -0.6492 -0.1569
 7208SOL     OW22522   2.710   6.278   2.955 -0.1189  0.6083  0.4406
 7208SOL    HW122523   2.641   6.350   2.957 -0.3964  0.4369 -1.2053
 7208SOL    HW222524   2.799   6.318   2.933 -0.2759  0.4830 -0.4891
 7209SOL     OW22525   4.063   0.959   2.345  0.1081  0.0537 -0.0580
 7209SOL    HW122526   4.028   1.053   2.340  0.2998  0.0752 -1.4599
 7209SOL    HW222527   4.153   0.955   2.302 -0.0460 -0.8419 -0.3155
 7210SOL     OW22528   3.630   0.182   3.578  0.2985  0.1695  0.2453
 7210SOL    HW122529   3.594   0.275   3.588 -2.9484 -0.9009 -0.0200
 7210SOL    HW222530   3.707   0.182   3.514 -1.1427  2.3995 -1.6659
 7211SOL     OW22531   2.441   6.097   0.049  0.1115 -0.5718  1.1209
 7211SOL    HW122532   2.418   6.000   0.039  1.7021 -0.8204 -0.4660
 7211SOL    HW222533   2.540   6.109   0.043 -0.0890  1.2045  0.9291
 7212SOL     OW22534   1.431   6.571   3.802  0.1599  0.9247  0.2395
 7212SOL    HW122535   1.421   6.664   3.838  0.4976  0.6609  1.0292
 7212SOL    HW222536   1.362   6.555   3.731 -0.2779  1.5750  0.5129
 7213SOL     OW22537   3.714   1.409   1.018  0.0172 -0.6048 -0.0249
 7213SOL    HW122538   3.794   1.456   1.054 -0.0101 -0.9008  0.4379
 7213SOL    HW222539   3.636   1.423   1.080 -0.9912  1.7023 -1.6504
 7214SOL     OW22540   4.593   0.994   0.326  0.7151  0.0638  0.7413
 7214SOL    HW122541   4.645   0.957   0.403  0.2997 -1.8390  0.1604
 7214SOL    HW222542   4.630   0.958   0.240 -0.0379  0.6235  0.1609
 7215SOL     OW22543   6.556   1.673   3.506  0.1201  0.1413 -0.2898
 7215SOL    HW122544   6.607   1.672   3.420  0.6909  1.3418  0.0198
 7215SOL    HW222545   6.607   1.622   3.575 -0.4576 -1.0419 -0.6984
 7216SOL     OW22546   3.653   4.930   4.614 -0.4461  0.3205  0.0704
 7216SOL    HW122547   3.645   4.938   4.514  0.2561 -2.2018 -0.2628
 7216SOL    HW222548   3.729   4.869   4.636 -2.1045 -1.1710  2.0648
 7217SOL     OW22549   6.211   2.411   3.817 -0.5284 -0.5807  0.5195
 7217SOL    HW122550   6.148   2.452   3.750  0.8083 -0.1693 -0.5250
 7217SOL    HW222551   6.273   2.481   3.852  0.8755 -1.4157 -0.2327
 7218SOL     OW22552   5.151   3.642   5.616 -0.5940  0.4417 -0.2142
 7218SOL    HW122553   5.091   3.682   5.685 -1.6664 -1.1010 -0.2104
 7218SOL    HW222554   5.240   3.621   5.656 -1.3991 -0.9823  0.8822
 7219SOL     OW22555   2.382   6.964   0.631 -0.6683  0.2722  0.4617
 7219SOL    HW122556   2.464   6.926   0.674  0.0583  2.1817  0.8743
 7219SOL    HW222557   2.355   6.907   0.554 -1.1101 -2.3993  2.4721
 7220SOL     OW22558   0.997   3.393   4.769  0.5661 -0.0307 -0.4545
 7220SOL    HW122559   0.985   3.410   4.867  0.9749  2.3175 -0.7463
 7220SOL    HW222560   0.983   3.478   4.718 -1.8740 -1.6364 -2.7117
 7221SOL     OW22561   5.220   5.242   4.053  0.9236 -0.0101 -0.0171
 7221SOL    HW122562   5.121   5.253   4.046  0.9248 -0.4971 -0.8880
 7221SOL    HW222563   5.260   5.326   4.090 -0.1191 -0.8587  3.4160
 7222SOL     OW22564   4.913   4.171   3.795 -0.3164 -0.2475 -0.3123
 7222SOL    HW122565   4.821   4.148   3.828 -0.6368  0.4921 -0.6633
 7222SOL    HW222566   4.934   4.116   3.715 -1.1406  0.7384 -1.2421
 7223SOL     OW22567   6.568   4.861   2.433  0.0561  0.3828 -0.6279
 7223SOL    HW122568   6.501   4.900   2.496  0.5960 -1.2035  1.0135
 7223SOL    HW222569   6.644   4.925   2.420  0.6920  0.1756  1.6139
 7224SOL     OW22570   6.099   2.553   3.593 -0.7059 -0.0137  0.0535
 7224SOL    HW122571   6.142   2.468   3.562  0.3571  0.1394  1.0556
 7224SOL    HW222572   6.137   2.630   3.543 -1.8178 -0.1160 -1.0028
 7225SOL     OW22573   6.953   4.441   5.744 -0.2659  0.0470  0.3204
 7225SOL    HW122574   6.995   4.391   5.820  0.2833 -1.1316 -0.7146
 7225SOL    HW222575   7.018   4.446   5.668 -0.2423  2.5382  0.4484
 7226SOL     OW22576   0.315   4.416   1.867 -0.3220  0.0511 -0.2916
 7226SOL    HW122577   0.339   4.330   1.822 -0.3666 -2.0796  3.2992
 7226SOL    HW222578   0.216   4.430   1.860 -0.6875 -1.5136  0.9423
 7227SOL     OW22579   2.200   5.990   2.053  0.3577 -0.1108  0.0077
 7227SOL    HW122580   2.170   6.040   2.134  0.5688  0.2752 -0.1514
 7227SOL    HW222581   2.196   6.050   1.973 -1.4621 -0.9464 -0.5999
 7228SOL     OW22582   0.982   3.052   4.118  0.1979  0.7486  0.1396
 7228SOL    HW122583   0.926   3.000   4.181  0.0347 -0.2724 -0.8099
 7228SOL    HW222584   1.038   2.989   4.064  0.7616  1.6289 -0.3237
 7229SOL     OW22585   3.995   0.076   6.005 -0.1744 -0.3362 -0.1603
 7229SOL    HW122586   3.898   0.097   6.015 -0.2515 -0.5805 -0.4083
 7229SOL    HW222587   4.038   0.143   5.945 -0.3167 -0.5850 -0.5435
 7230SOL     OW22588   3.353   5.686   5.582 -0.0866 -0.4763 -0.2191
 7230SOL    HW122589   3.442   5.713   5.619 -0.0897  1.1307 -1.3208
 7230SOL    HW222590   3.354   5.694   5.483 -0.8266 -2.5043 -0.4510
 7231SOL     OW22591   4.013   3.337   4.392  0.2017  0.3445 -0.1400
 7231SOL    HW122592   3.961   3.266   4.440 -0.1018  0.3217 -0.4998
 7231SOL    HW222593   4.059   3.297   4.312  0.6770  0.3892  0.1047
 7232SOL     OW22594   5.002   3.872   1.614 -0.4199  0.2196  0.5929
 7232SOL    HW122595   4.953   3.925   1.545  0.4606  0.1412 -0.0995
 7232SOL    HW222596   5.091   3.914   1.632  0.1500 -0.8321  0.2741
 7233SOL     OW22597   1.011   3.339   0.375 -0.0888  0.0176 -0.5279
 7233SOL    HW122598   0.961   3.294   0.449  1.1971  2.1843  1.8422
 7233SOL    HW222599   1.082   3.277   0.341  1.0843 -0.1691  2.0167
 7234SOL     OW22600   5.599   3.704   3.511  0.9981  0.6430 -0.1773
 7234SOL    HW122601   5.675   3.663   3.462  2.2026  0.7596  1.5388
 7234SOL    HW222602   5.580   3.653   3.595 -1.4245  0.0816 -0.9658
 7235SOL     OW22603   6.146   0.798   1.456 -0.3778  0.0337 -0.2318
 7235SOL    HW122604   6.126   0.882   1.405  1.0967  0.4584 -0.1583
 7235SOL    HW222605   6.200   0.736   1.400  0.1789 -0.0387  0.3760
 7236SOL     OW22606   2.320   5.438   1.767 -0.2688  0.5680  0.1739
 7236SOL    HW122607   2.401   5.491   1.742 -0.3617  0.6841  0.1195
 7236SOL    HW222608   2.255   5.498   1.813  0.8267 -0.0696  2.7662
 7237SOL     OW22609   5.487   2.403   1.443 -0.4809  0.4585 -0.0412
 7237SOL    HW122610   5.552   2.327   1.443  0.7872  1.4843 -1.6212
 7237SOL    HW222611   5.474   2.436   1.350  0.1563  3.1297  0.7343
 7238SOL     OW22612   4.213   1.986   6.725 -0.4621  1.0916  0.0913
 7238SOL    HW122613   4.282   2.058   6.730 -0.0851  0.7029  0.5228
 7238SOL    HW222614   4.257   1.897   6.720 -0.9273  0.8110  0.8068
 7239SOL     OW22615   0.086   3.072   3.820  0.7126 -0.6065 -0.1501
 7239SOL    HW122616   0.077   2.973   3.819  1.8898 -0.7425 -1.9387
 7239SOL    HW222617   0.176   3.098   3.784  0.2496  1.1167 -0.1577
 7240SOL     OW22618   0.232   1.342   0.658  0.1779  0.1446  0.4115
 7240SOL    HW122619   0.146   1.369   0.702 -0.4066 -1.2728  0.1921
 7240SOL    HW222620   0.239   1.242   0.657  1.7208  0.2288  0.1962
 7241SOL     OW22621   1.538   6.604   3.000 -0.0041 -0.2281 -0.5008
 7241SOL    HW122622   1.617   6.665   2.995 -0.4617  0.3709 -0.4663
 7241SOL    HW222623   1.454   6.657   2.995 -0.4105 -0.8294 -0.1972
 7242SOL     OW22624   0.586   3.687   5.902 -0.1184  0.0286  0.0109
 7242SOL    HW122625   0.614   3.682   5.807  2.5371  2.1103  0.5666
 7242SOL    HW222626   0.536   3.772   5.917 -0.5705 -0.3133  0.4843
 7243SOL     OW22627   5.948   4.190   6.207  0.6458 -0.6614  0.5864
 7243SOL    HW122628   5.849   4.196   6.220  0.4090 -3.4875  0.7605
 7243SOL    HW222629   5.993   4.184   6.297  1.2199  2.3124  0.5929
 7244SOL     OW22630   0.304   6.883   6.580 -0.0195  0.4808  0.6792
 7244SOL    HW122631   0.263   6.972   6.598  1.2565  1.3254 -0.4154
 7244SOL    HW222632   0.257   6.838   6.504  0.1871  0.8291  0.3424
 7245SOL     OW22633   2.279   3.563   6.649 -0.1583  0.2274 -0.0333
 7245SOL    HW122634   2.201   3.620   6.625  0.1790  1.5527  1.8325
 7245SOL    HW222635   2.248   3.481   6.695 -0.6400 -1.1809 -2.6520
 7246SOL     OW22636   3.568   5.249   5.579 -0.1048 -0.2726  0.4401
 7246SOL    HW122637   3.657   5.269   5.538  0.7875 -0.4817  2.1688
 7246SOL    HW222638   3.563   5.293   5.669 -1.6369 -0.5178  0.4867
 7247SOL     OW22639   4.104   3.589   3.796  0.0346  0.7802 -0.3003
 7247SOL    HW122640   4.100   3.637   3.884 -2.3215 -3.3558  2.2437
 7247SOL    HW222641   4.017   3.600   3.748  1.1926  2.7393 -2.0873
 7248SOL     OW22642   2.454   1.207   4.729  0.1803 -0.3043  0.2810
 7248SOL    HW122643   2.358   1.222   4.752  0.2412 -1.0491  1.0620
 7248SOL    HW222644   2.496   1.294   4.703 -0.4747  0.1821  0.8240
 7249SOL     OW22645   3.555   5.215   2.743  0.3639 -0.1511  0.1009
 7249SOL    HW122646   3.624   5.152   2.779  0.1556  0.4209  1.5608
 7249SOL    HW222647   3.597   5.305   2.728 -0.0780  0.2555  1.1849
 7250SOL     OW22648   4.054   0.306   4.813  0.5316  0.1318 -0.0576
 7250SOL    HW122649   4.086   0.342   4.725 -0.0485 -0.0640 -0.3532
 7250SOL    HW222650   3.966   0.347   4.835  0.3816 -0.2938  0.1315
 7251SOL     OW22651   0.947   0.369   4.577 -0.0395  0.3079  0.2524
 7251SOL    HW122652   1.038   0.394   4.546 -0.2092  1.1211  0.3892
 7251SOL    HW222653   0.913   0.293   4.522  0.9403 -0.3831  0.5712
 7252SOL     OW22654   3.025   3.169   0.083 -0.4864 -0.4308 -0.7902
 7252SOL    HW122655   3.001   3.135   0.174 -1.2968  0.1005 -0.7860
 7252SOL    HW222656   2.961   3.242   0.057  1.8399  1.9161 -0.3255
 7253SOL     OW22657   0.415   4.459   6.669 -0.2184  0.3118 -0.0823
 7253SOL    HW122658   0.456   4.456   6.760  1.1531 -0.4210 -0.6998
 7253SOL    HW222659   0.332   4.516   6.672  1.2337  2.5223  1.0658
 7254SOL     OW22660   1.709   5.010   4.100  0.1429  0.3815 -0.3433
 7254SOL    HW122661   1.610   5.019   4.103  0.1466  0.0908  1.3181
 7254SOL    HW222662   1.749   5.096   4.066 -0.5217  1.8686  2.3265
 7255SOL     OW22663   5.405   4.288   1.752  0.3330  0.1362 -0.4465
 7255SOL    HW122664   5.476   4.326   1.810 -1.2341 -0.9020  2.3540
 7255SOL    HW222665   5.335   4.357   1.735  1.1416  0.6611 -1.8168
 7256SOL     OW22666   2.295   6.221   1.873  0.0015 -0.4260  0.0642
 7256SOL    HW122667   2.232   6.171   1.813 -0.1271 -2.7171  2.0027
 7256SOL    HW222668   2.246   6.299   1.913 -1.3538 -1.5787  0.7536
 7257SOL     OW22669   1.435   0.216   4.509  0.1171 -0.6842 -0.1962
 7257SOL    HW122670   1.521   0.218   4.460 -0.3284 -1.5538 -1.0563
 7257SOL    HW222671   1.388   0.130   4.490 -1.4066  0.1939 -0.5709
 7258SOL     OW22672   0.737   1.979   2.713  0.2040 -0.5259  0.2413
 7258SOL    HW122673   0.778   2.005   2.801  0.3563  1.1962 -0.3106
 7258SOL    HW222674   0.678   1.899   2.727 -0.0517 -0.0884  1.9904
 7259SOL     OW22675   1.862   4.237   3.497 -0.2470  0.2809 -0.1918
 7259SOL    HW122676   1.925   4.216   3.422 -0.7559 -0.3630 -0.4541
 7259SOL    HW222677   1.907   4.221   3.585 -0.0211 -0.1144 -0.3748
 7260SOL     OW22678   0.238   2.917   1.209  0.3421  0.1754 -0.2601
 7260SOL    HW122679   0.144   2.895   1.182  1.1879 -1.3259 -2.3015
 7260SOL    HW222680   0.294   2.927   1.126  1.6631  2.8509  0.8256
 7261SOL     OW22681   1.613   3.553   6.839  0.4417 -0.1806  0.4477
 7261SOL    HW122682   1.531   3.528   6.787  0.0729  0.4293  0.7179
 7261SOL    HW222683   1.624   3.653   6.836 -0.4681  0.0357  2.8331
 7262SOL     OW22684   2.740   1.015   4.217 -0.1674  0.2035 -0.1632
 7262SOL    HW122685   2.711   1.106   4.189  1.1106  1.0132  0.9889
 7262SOL    HW222686   2.839   1.016   4.236 -0.0934 -1.4802 -0.3396
 7263SOL     OW22687   0.460   5.337   4.863  0.5607  0.2148  0.6896
 7263SOL    HW122688   0.383   5.332   4.926  1.1548  0.4059  1.4564
 7263SOL    HW222689   0.543   5.306   4.910  1.2207  1.4022  0.3392
 7264SOL     OW22690   7.015   2.844   1.123 -0.1646 -0.1308  0.3074
 7264SOL    HW122691   6.935   2.854   1.183 -1.2171 -0.1259 -1.0543
 7264SOL    HW222692   6.987   2.854   1.028  1.2333 -1.5061 -0.2903
 7265SOL     OW22693   3.847   6.112   4.640  0.5362  0.6849 -0.5521
 7265SOL    HW122694   3.872   6.015   4.646 -2.3439 -0.0813  0.2010
 7265SOL    HW222695   3.909   6.165   4.698  0.2266 -1.1212  1.5586
 7266SOL     OW22696   6.599   0.772   0.879 -0.0427 -0.2910 -0.1341
 7266SOL    HW122697   6.664   0.763   0.803  0.8035  0.5988  0.4540
 7266SOL    HW222698   6.610   0.862   0.922 -1.0360 -0.4836  0.5593
 7267SOL     OW22699   6.541   4.727   4.489  0.4021  0.0036  0.7988
 7267SOL    HW122700   6.524   4.673   4.406 -3.1817  2.7603 -0.5040
 7267SOL    HW222701   6.501   4.680   4.568  3.5468 -2.4772  1.1144
 7268SOL     OW22702   3.311   0.315   4.040  0.1896  0.2666 -0.0272
 7268SOL    HW122703   3.252   0.235   4.057  0.6800 -0.6814 -2.4565
 7268SOL    HW222704   3.260   0.384   3.989  0.8960 -0.2065 -1.4129
 7269SOL     OW22705   3.742   5.704   4.227  0.5394 -0.1623  0.0819
 7269SOL    HW122706   3.651   5.746   4.235  0.9158  0.4620  1.4520
 7269SOL    HW222707   3.734   5.606   4.243 -0.1948 -0.5036 -2.0796
 7270SOL     OW22708   0.548   2.640   5.324 -0.3001  0.4360  0.1701
 7270SOL    HW122709   0.459   2.666   5.286 -0.4219 -0.2831 -0.0454
 7270SOL    HW222710   0.605   2.721   5.332 -0.2957  0.6456 -1.4836
 7271SOL     OW22711   0.778   5.502   3.039  0.5873  0.3813  0.4281
 7271SOL    HW122712   0.726   5.464   3.115  2.5262  2.1427  2.8274
 7271SOL    HW222713   0.721   5.565   2.988 -0.1759  0.9520  1.9083
 7272SOL     OW22714   6.351   4.304   0.519  0.5331 -0.4969 -0.1264
 7272SOL    HW122715   6.272   4.302   0.580  1.6257 -3.3692  1.4316
 7272SOL    HW222716   6.330   4.252   0.436  0.3507 -0.0809 -0.3415
 7273SOL     OW22717   6.677   0.601   5.128  0.1044  0.1788 -0.8302
 7273SOL    HW122718   6.636   0.638   5.045  1.3962  1.5251 -0.9173
 7273SOL    HW222719   6.777   0.598   5.118  0.6198  3.2046  1.6454
 7274SOL     OW22720   5.033   6.425   0.061  0.0312 -0.3896  0.9262
 7274SOL    HW122721   5.040   6.456  -0.034  0.6361 -2.1601  0.3558
 7274SOL    HW222722   5.025   6.505   0.122 -0.7463  0.7563 -0.6221
 7275SOL     OW22723   1.676   0.416   3.365 -0.2010  0.0420  0.6378
 7275SOL    HW122724   1.685   0.390   3.462  1.1184  0.2511  0.5930
 7275SOL    HW222725   1.736   0.358   3.310  0.4156  1.1036  0.1701
 7276SOL     OW22726   6.072   4.623   3.348 -0.4413 -0.1723 -0.0270
 7276SOL    HW122727   6.136   4.692   3.381 -2.2549  1.6294 -0.1112
 7276SOL    HW222728   6.025   4.656   3.266 -2.5945 -0.7219  0.9059
 7277SOL     OW22729   4.441   1.261   0.644  0.1795  0.3276 -0.0772
 7277SOL    HW122730   4.527   1.313   0.645 -0.1871  0.9424  0.6815
 7277SOL    HW222731   4.461   1.164   0.628  0.8030  0.7916 -2.6130
 7278SOL     OW22732   3.659   3.221   2.643  0.2173  0.5676 -0.1516
 7278SOL    HW122733   3.724   3.254   2.711 -0.2502  0.9187  0.1312
 7278SOL    HW222734   3.585   3.288   2.632  0.3698  0.6026 -1.1222
 7279SOL     OW22735   4.530   5.547   1.129  0.0237 -0.4455 -0.0461
 7279SOL    HW122736   4.585   5.577   1.051  1.6666 -0.0833  1.1683
 7279SOL    HW222737   4.487   5.460   1.109  0.5156 -0.4189 -1.3034
 7280SOL     OW22738   4.538   6.754   6.363 -0.1639  0.2266 -0.5872
 7280SOL    HW122739   4.551   6.662   6.399 -0.6228 -0.0095 -1.0181
 7280SOL    HW222740   4.442   6.779   6.370 -0.2889  0.1150 -1.8025
 7281SOL     OW22741   4.196   2.100   6.446  0.2628 -0.4160  0.2166
 7281SOL    HW122742   4.100   2.102   6.474  0.1752 -0.7550 -0.0546
 7281SOL    HW222743   4.211   2.165   6.372 -0.0621 -1.3273 -0.6776
 7282SOL     OW22744   6.406   6.279   3.966 -0.0260 -0.2714  0.4000
 7282SOL    HW122745   6.469   6.207   3.938 -0.6302 -0.0513 -1.7453
 7282SOL    HW222746   6.430   6.311   4.058  1.7864 -1.4722  0.3988
 7283SOL     OW22747   3.324   1.800   1.924  0.2223 -0.0079 -0.0749
 7283SOL    HW122748   3.356   1.895   1.922 -2.0254  0.7922 -1.6468
 7283SOL    HW222749   3.328   1.765   2.017  0.9209  1.6904  0.5606
 7284SOL     OW22750   1.240   1.811   3.591 -0.3088  0.1918 -0.4471
 7284SOL    HW122751   1.222   1.881   3.660  0.5340 -0.5216  0.5079
 7284SOL    HW222752   1.259   1.724   3.635  1.3802 -0.0349 -1.5215
 7285SOL     OW22753   6.600   4.098   2.374 -0.1357 -0.6648  0.1542
 7285SOL    HW122754   6.528   4.138   2.430 -0.6079 -1.5330  0.1776
 7285SOL    HW222755   6.646   4.025   2.425  1.0063  0.1054  0.2756
 7286SOL     OW22756   1.131   4.019   0.142 -0.8289 -0.9044 -0.4549
 7286SOL    HW122757   1.052   3.967   0.175  0.0609 -1.8651  0.2253
 7286SOL    HW222758   1.206   4.011   0.207  0.0389 -0.5010 -1.3758
 7287SOL     OW22759   5.322   2.557   6.511  0.1087 -0.1910  0.1004
 7287SOL    HW122760   5.347   2.597   6.599  1.3392 -1.2126  0.2360
 7287SOL    HW222761   5.306   2.459   6.522  0.8991 -0.4494 -0.9251
 7288SOL     OW22762   2.595   1.835   1.743 -0.5688  0.1694  0.2708
 7288SOL    HW122763   2.597   1.772   1.664 -2.5636 -0.4792  0.6882
 7288SOL    HW222764   2.507   1.882   1.746  0.3481  1.9322  0.8250
 7289SOL     OW22765   4.184   6.968   2.251  0.0733 -0.0679  0.0037
 7289SOL    HW122766   4.088   6.950   2.272  0.1052  0.8583  1.0118
 7289SOL    HW222767   4.191   7.046   2.189  0.2006  0.4232  0.6256
 7290SOL     OW22768   2.229   5.996   5.602 -0.0028 -0.2551  0.2507
 7290SOL    HW122769   2.227   6.087   5.643  0.3408 -0.1641  0.0736
 7290SOL    HW222770   2.212   6.004   5.503 -0.3960 -0.4271  0.3026
 7291SOL     OW22771   6.027   6.327   2.254 -0.6722  0.4749  0.5945
 7291SOL    HW122772   6.047   6.356   2.160 -0.8871  0.7537  0.6344
 7291SOL    HW222773   6.016   6.227   2.256  0.6276  0.3134  0.5625
 7292SOL     OW22774   3.674   0.649   4.035  0.6401  0.4044 -0.5336
 7292SOL    HW122775   3.774   0.648   4.037  0.7692  1.0210 -3.3580
 7292SOL    HW222776   3.642   0.583   3.967 -1.0865 -1.9082  2.2787
 7293SOL     OW22777   3.333   1.856   0.384 -0.1314  0.5907  0.0055
 7293SOL    HW122778   3.306   1.761   0.391 -1.0802  0.9585  1.8439
 7293SOL    HW222779   3.431   1.865   0.405 -0.4109  0.2031  1.6113
 7294SOL     OW22780   5.277   4.702   5.733  0.1587 -0.3672 -0.1465
 7294SOL    HW122781   5.340   4.667   5.663 -0.7007 -0.3337 -0.9576
 7294SOL    HW222782   5.277   4.640   5.811 -0.8619 -1.8856 -1.2877
 7295SOL     OW22783   5.367   6.729   1.246  0.1561  0.2652 -0.1621
 7295SOL    HW122784   5.449   6.728   1.188 -1.0732 -0.7025 -1.9686
 7295SOL    HW222785   5.337   6.636   1.263 -1.1784  0.6164 -0.4568
 7296SOL     OW22786   2.975   4.728   0.483  0.3240  0.3266  0.2008
 7296SOL    HW122787   3.014   4.794   0.419 -0.6222 -1.0639 -1.9090
 7296SOL    HW222788   2.876   4.743   0.490  0.0366 -1.0491 -0.5823
 7297SOL     OW22789   5.691   6.921   3.686  0.4881  0.2673  0.2640
 7297SOL    HW122790   5.606   6.911   3.737  1.6596 -2.0512  1.9503
 7297SOL    HW222791   5.679   6.883   3.594 -0.4637  0.6506  0.2120
 7298SOL     OW22792   5.075   0.912   4.816 -0.2463  0.0016  0.3703
 7298SOL    HW122793   5.073   0.970   4.734  1.4332  2.2428  1.8138
 7298SOL    HW222794   4.986   0.866   4.825 -0.7271  0.1958 -2.2887
 7299SOL     OW22795   4.283   3.246   6.866 -0.5259  0.4665  0.2000
 7299SOL    HW122796   4.203   3.207   6.819 -0.2908 -1.4914  1.3254
 7299SOL    HW222797   4.294   3.202   6.955  0.1626  2.7394  1.3017
 7300SOL     OW22798   5.410   5.234   1.258  0.4542 -0.0412 -0.2010
 7300SOL    HW122799   5.461   5.290   1.323  1.7472 -0.4345 -0.8517
 7300SOL    HW222800   5.471   5.201   1.186 -0.6580 -0.7809 -0.8452
 7301SOL     OW22801   5.829   0.319   1.003 -0.4028 -0.7690  0.4363
 7301SOL    HW122802   5.748   0.278   1.046 -1.7226  0.6413 -0.5690
 7301SOL    HW222803   5.803   0.406   0.961  1.5691 -0.5015 -0.3206
 7302SOL     OW22804   0.088   2.776   0.353 -0.1986 -0.3533 -0.2536
 7302SOL    HW122805   0.143   2.707   0.400 -1.5978 -0.9814  0.5062
 7302SOL    HW222806  -0.006   2.744   0.343 -2.0267  2.8492  3.6718
 7303SOL     OW22807   5.564   0.284   1.848 -0.2511  0.0745 -0.4302
 7303SOL    HW122808   5.537   0.300   1.753 -1.7977  0.4614  0.0436
 7303SOL    HW222809   5.520   0.200   1.881 -3.3180  2.1237  1.1854
 7304SOL     OW22810   3.928   3.058   3.834  0.6064  0.5936 -0.0702
 7304SOL    HW122811   3.881   3.083   3.919 -0.5865  0.1747 -0.5890
 7304SOL    HW222812   3.994   3.130   3.810 -0.2010  1.4982  0.3531
 7305SOL     OW22813   6.190   3.244   1.051 -0.3363 -0.3418  0.3079
 7305SOL    HW122814   6.204   3.260   1.149  0.3257  0.4458  0.0965
 7305SOL    HW222815   6.279   3.244   1.005 -0.5989 -1.3384 -0.2021
 7306SOL     OW22816   4.907   5.226   1.493  0.2743  0.6682 -0.1211
 7306SOL    HW122817   4.889   5.128   1.481 -0.8056  0.9783 -1.3484
 7306SOL    HW222818   4.885   5.274   1.408  0.7997  1.9815  0.4583
 7307SOL     OW22819   3.002   6.095   1.852  0.2517 -0.0638 -0.8004
 7307SOL    HW122820   3.079   6.099   1.916 -0.1328 -1.0589 -0.2479
 7307SOL    HW222821   2.937   6.168   1.873  0.1118 -0.3995 -0.0038
 7308SOL     OW22822   5.638   1.339   4.676 -0.1933  0.0195  0.3262
 7308SOL    HW122823   5.606   1.318   4.583  0.5392  0.1518  0.0366
 7308SOL    HW222824   5.734   1.314   4.684 -0.2642 -0.0422  1.0748
 7309SOL     OW22825   6.526   5.179   1.863  0.3454 -0.1930 -0.3802
 7309SOL    HW122826   6.445   5.123   1.882  0.1915  0.1428 -0.0433
 7309SOL    HW222827   6.509   5.273   1.891  1.1973 -0.3165  0.6183
 7310SOL     OW22828   1.363   6.513   1.596 -0.5525 -0.3709 -0.5083
 7310SOL    HW122829   1.439   6.451   1.575 -0.0539 -0.7667  2.1156
 7310SOL    HW222830   1.282   6.487   1.543 -0.3032 -3.2014  0.3629
 7311SOL     OW22831   2.031   0.151   1.789  0.0822  0.4530 -0.3670
 7311SOL    HW122832   2.111   0.101   1.821  0.3825  1.5930  0.7883
 7311SOL    HW222833   2.060   0.228   1.732 -0.3137 -0.1182 -1.3710
 7312SOL     OW22834   1.026   2.589   0.940 -0.1004 -0.5617 -0.3317
 7312SOL    HW122835   1.049   2.593   1.037  0.5425 -0.9375 -0.4577
 7312SOL    HW222836   1.078   2.658   0.890  0.1865 -0.9055 -0.5153
 7313SOL     OW22837   5.358   2.283   5.054 -0.6194  0.1921  1.0408
 7313SOL    HW122838   5.321   2.191   5.037 -0.5404  0.0308  1.7119
 7313SOL    HW222839   5.407   2.284   5.141  1.4980  0.2565 -0.0806
 7314SOL     OW22840   0.123   2.616   6.212  0.3913 -0.0029  0.3023
 7314SOL    HW122841   0.214   2.658   6.201 -0.0893  0.8365 -0.5866
 7314SOL    HW222842   0.101   2.562   6.131 -0.3699  0.7354 -0.0019
 7315SOL     OW22843   6.562   1.645   4.220 -0.0253  0.3744 -0.0275
 7315SOL    HW122844   6.626   1.722   4.228 -0.4973  0.5395  4.6676
 7315SOL    HW222845   6.475   1.669   4.264 -0.8040 -2.2430  0.0070
 7316SOL     OW22846   3.314   4.145   2.279 -0.7782  0.1060  0.1773
 7316SOL    HW122847   3.215   4.144   2.295 -0.8214  0.2496 -0.0795
 7316SOL    HW222848   3.333   4.177   2.186 -0.4588  0.7923  0.4722
 7317SOL     OW22849   3.694   0.714   4.318  0.1665 -0.1553 -0.0486
 7317SOL    HW122850   3.760   0.783   4.349 -0.8527  0.8899 -0.1374
 7317SOL    HW222851   3.690   0.715   4.218  1.5394 -1.7130 -0.1726
 7318SOL     OW22852   2.524   1.538   1.982  0.5670  0.0010 -0.1433
 7318SOL    HW122853   2.597   1.554   1.915 -0.8510 -0.8235 -1.9564
 7318SOL    HW222854   2.560   1.482   2.057  2.0496  0.4671 -0.4626
 7319SOL     OW22855   6.111   3.148   6.371 -0.5468 -0.1752  0.3233
 7319SOL    HW122856   6.112   3.097   6.457  2.5273 -1.5463 -0.3885
 7319SOL    HW222857   6.018   3.179   6.351 -1.9478 -2.6260  2.4987
 7320SOL     OW22858   6.669   0.455   2.564 -0.2882  0.0055  0.2027
 7320SOL    HW122859   6.725   0.475   2.643  0.5063  1.5806 -0.7074
 7320SOL    HW222860   6.589   0.516   2.564 -0.4093 -0.1527 -0.0686
 7321SOL     OW22861   5.169   0.201   2.872 -0.0183  0.0463 -0.4959
 7321SOL    HW122862   5.186   0.112   2.829  0.0612 -0.3752  0.3861
 7321SOL    HW222863   5.202   0.273   2.812  0.6630 -0.5551 -0.8618
 7322SOL     OW22864   1.035   2.338   4.100  0.4234  0.0243  0.0749
 7322SOL    HW122865   0.975   2.262   4.125  1.2943 -0.6840  0.0569
 7322SOL    HW222866   1.013   2.418   4.156 -0.5448 -0.2182  0.0511
 7323SOL     OW22867   2.875   5.319   2.521 -0.2399  0.2132  0.2017
 7323SOL    HW122868   2.951   5.385   2.518  0.1202 -0.1856 -2.3467
 7323SOL    HW222869   2.901   5.240   2.575  0.5379  0.7853  0.6837
 7324SOL     OW22870   6.769   4.103   2.833 -0.3049  0.3996 -0.3469
 7324SOL    HW122871   6.850   4.110   2.775  0.5282  2.7248  0.9833
 7324SOL    HW222872   6.761   4.010   2.868  2.5950  0.4268  0.5846
 7325SOL     OW22873   3.680   1.773   6.611 -0.3420 -0.0160  0.0832
 7325SOL    HW122874   3.611   1.772   6.538 -1.8177  1.1714  1.3872
 7325SOL    HW222875   3.724   1.862   6.614 -0.4801  0.0320  0.8074
 7326SOL     OW22876   2.803   1.633   4.848 -0.0809  0.2081  0.3605
 7326SOL    HW122877   2.732   1.703   4.858  0.1725  0.1561  3.2286
 7326SOL    HW222878   2.786   1.559   4.913  3.1877  0.7404  2.0020
 7327SOL     OW22879   1.495   3.798   1.161  0.3831  0.7286 -0.2154
 7327SOL    HW122880   1.476   3.775   1.256 -1.5890  0.2311 -0.6665
 7327SOL    HW222881   1.462   3.891   1.142  1.7732  1.2545 -0.1670
 7328SOL     OW22882   2.116   1.303   0.460 -0.4205 -0.3615  0.2394
 7328SOL    HW122883   2.075   1.391   0.485  0.6408 -0.4912  2.6958
 7328SOL    HW222884   2.160   1.311   0.371  0.1676  1.7878  0.6705
 7329SOL     OW22885   4.922   3.457   2.184 -0.0660  0.5514 -0.0296
 7329SOL    HW122886   4.898   3.483   2.278 -0.3970  1.3149 -0.3201
 7329SOL    HW222887   4.881   3.369   2.162  0.3523  0.1658  0.6781
 7330SOL     OW22888   3.727   3.181   6.566  0.1022 -0.0175 -0.2784
 7330SOL    HW122889   3.799   3.237   6.524 -0.4965  2.4397  1.7279
 7330SOL    HW222890   3.768   3.119   6.632  0.4329  3.1145  2.7560
 7331SOL     OW22891   6.278   6.651   1.286 -0.4916 -0.2630 -0.2549
 7331SOL    HW122892   6.368   6.607   1.289  0.3978  1.4185  3.0284
 7331SOL    HW222893   6.288   6.744   1.252 -0.8836  0.0888  0.5638
 7332SOL     OW22894   4.268   6.877   1.047  0.7726 -0.7727 -0.0055
 7332SOL    HW122895   4.301   6.914   0.960 -0.5056  0.0864 -0.1532
 7332SOL    HW222896   4.249   6.952   1.110  0.3876 -1.3166  0.5367
 7333SOL     OW22897   0.568   4.737   1.188  1.0305 -0.5676 -0.3428
 7333SOL    HW122898   0.557   4.763   1.284  0.3449 -2.2738  0.0820
 7333SOL    HW222899   0.653   4.685   1.177  1.1911 -0.2327 -0.7007
 7334SOL     OW22900   1.428   6.526   2.388 -0.0900  0.1067  0.0500
 7334SOL    HW122901   1.452   6.514   2.484 -0.7506 -0.1159  0.1926
 7334SOL    HW222902   1.392   6.440   2.352  1.3275 -0.1755 -0.7501
 7335SOL     OW22903   0.016   3.424   4.108  0.1368 -0.4649  0.5132
 7335SOL    HW122904  -0.012   3.511   4.150 -0.9653  0.3062 -1.6657
 7335SOL    HW222905   0.041   3.440   4.012  0.3598 -2.4978  0.1927
 7336SOL     OW22906   0.463   1.308   4.890 -0.2252  0.0233  0.3820
 7336SOL    HW122907   0.529   1.234   4.893 -0.7318 -0.4481 -0.0730
 7336SOL    HW222908   0.484   1.374   4.963  1.4777  0.5294 -0.5033
 7337SOL     OW22909   6.649   3.210   1.713  0.2358  0.0739 -1.0427
 7337SOL    HW122910   6.633   3.304   1.742  1.0195 -0.1190  0.0859
 7337SOL    HW222911   6.672   3.154   1.793 -2.4945 -1.6209 -1.2921
 7338SOL     OW22912   6.514   3.987   6.011 -0.6627 -0.1897 -0.0579
 7338SOL    HW122913   6.609   3.993   5.978  0.6765 -0.9568  3.2599
 7338SOL    HW222914   6.481   3.893   5.998  0.4667 -0.9465  2.0400
 7339SOL     OW22915   3.241   6.623   3.036 -0.1202  0.7973  0.3703
 7339SOL    HW122916   3.244   6.721   3.056 -0.0330  0.7109  0.8049
 7339SOL    HW222917   3.223   6.572   3.121  0.2276  0.4152  0.2207
 7340SOL     OW22918   4.196   0.818   5.230 -0.4010  0.5722 -0.2000
 7340SOL    HW122919   4.239   0.871   5.303 -0.0413 -0.2444  0.1893
 7340SOL    HW222920   4.100   0.802   5.253 -0.4402  0.8181 -0.1886
 7341SOL     OW22921   0.268   3.094   1.430  0.4731 -0.7597 -0.7240
 7341SOL    HW122922   0.267   3.052   1.340  0.3743  0.1669 -1.1714
 7341SOL    HW222923   0.318   3.180   1.426  0.8193 -0.9082  0.2030
 7342SOL     OW22924   0.307   5.048   1.046 -0.2501  0.3768 -0.3157
 7342SOL    HW122925   0.245   4.970   1.062 -1.4281  1.3045 -0.2134
 7342SOL    HW222926   0.397   5.013   1.020 -0.3216 -1.0425  1.1831
 7343SOL     OW22927   0.758   1.626   0.741  0.1222  0.4418 -0.3310
 7343SOL    HW122928   0.660   1.640   0.728 -0.0686 -0.1617  0.3356
 7343SOL    HW222929   0.796   1.574   0.664 -0.5570 -1.2846  0.4378
 7344SOL     OW22930   1.589   6.849   4.718 -0.2000 -0.1711 -0.7350
 7344SOL    HW122931   1.508   6.903   4.739 -0.7918 -1.5110  0.6436
 7344SOL    HW222932   1.651   6.850   4.797  2.2166  2.5531 -2.4773
 7345SOL     OW22933   1.369   1.036   6.691 -0.2599  0.0147  0.7999
 7345SOL    HW122934   1.450   1.000   6.737 -0.0026  0.2123  0.5044
 7345SOL    HW222935   1.302   1.066   6.759  0.7892  1.8471  1.0828
 7346SOL     OW22936   4.384   4.142   1.587  0.0522  0.5034 -0.5582
 7346SOL    HW122937   4.453   4.172   1.521  1.8293  0.2356  1.1100
 7346SOL    HW222938   4.403   4.183   1.676 -0.7118 -1.2357  0.4469
 7347SOL     OW22939   5.252   1.349   0.156  0.0060 -0.1538  0.3804
 7347SOL    HW122940   5.347   1.357   0.127 -0.5091 -0.5929 -1.6024
 7347SOL    HW222941   5.194   1.406   0.097 -1.2133 -1.7410 -0.0391
 7348SOL     OW22942   0.048   6.089   6.433  0.1871 -0.1515 -0.4328
 7348SOL    HW122943  -0.006   6.041   6.503 -0.0328  0.5407 -0.1150
 7348SOL    HW222944   0.014   6.064   6.342 -0.4535  0.0115 -0.2479
 7349SOL     OW22945   4.257   1.429   0.748 -0.2508  0.6124  0.1584
 7349SOL    HW122946   4.255   1.487   0.666 -0.8730 -0.7545 -0.8286
 7349SOL    HW222947   4.320   1.353   0.734 -0.4529  0.2973  0.9083
 7350SOL     OW22948   2.832   0.904   3.968 -0.2478 -0.3604  0.4437
 7350SOL    HW122949   2.783   0.929   4.051 -0.8516  0.7493 -0.2293
 7350SOL    HW222950   2.787   0.825   3.926 -0.9679  0.1181  0.2867
 7351SOL     OW22951   3.363   5.412   4.625  0.3859  0.4306  0.3987
 7351SOL    HW122952   3.310   5.424   4.709  2.2488 -0.7210  1.8345
 7351SOL    HW222953   3.362   5.316   4.597  0.2451  0.7083 -0.5841
 7352SOL     OW22954   6.692   2.141   4.634 -0.7413 -0.2945 -0.2281
 7352SOL    HW122955   6.702   2.090   4.720  1.5091  1.9140  0.9362
 7352SOL    HW222956   6.607   2.193   4.636 -0.1415  0.7113  1.2867
 7353SOL     OW22957   5.593   2.453   5.417 -0.1155  0.1527  0.1177
 7353SOL    HW122958   5.540   2.369   5.416  0.0518  0.0398  0.3818
 7353SOL    HW222959   5.561   2.512   5.492  0.1606  0.0616  0.3106
 7354SOL     OW22960   6.638   1.663   2.682  0.1026 -0.1232 -0.3325
 7354SOL    HW122961   6.709   1.710   2.630  1.4631  0.0424  1.5601
 7354SOL    HW222962   6.653   1.679   2.780 -1.9726 -0.9349  0.1596
 7355SOL     OW22963   3.884   2.709   0.561 -0.0210  0.0814 -0.5411
 7355SOL    HW122964   3.982   2.728   0.565 -0.3313  2.0487 -1.2485
 7355SOL    HW222965   3.860   2.644   0.633  1.6601  0.1857  0.1661
 7356SOL     OW22966   2.604   4.746   5.171 -0.3290  0.0783 -0.4226
 7356SOL    HW122967   2.524   4.687   5.180 -1.5149  1.3355 -2.0845
 7356SOL    HW222968   2.674   4.698   5.118  0.1784 -1.1310  1.2721
 7357SOL     OW22969   3.089   6.309   3.172  0.5161  0.3026 -0.5280
 7357SOL    HW122970   3.152   6.367   3.224 -0.1578 -0.2677  0.9799
 7357SOL    HW222971   3.135   6.277   3.089  1.5099  1.5078 -0.4771
 7358SOL     OW22972   5.302   0.035   3.063  0.7638 -0.6510  0.2148
 7358SOL    HW122973   5.279  -0.017   2.981  1.7882 -1.0100  0.1415
 7358SOL    HW222974   5.344   0.122   3.037 -0.3994 -0.0366  0.3461
 7359SOL     OW22975   2.053   5.131   2.089 -0.2621  0.2097 -0.2437
 7359SOL    HW122976   2.012   5.166   2.005  0.9802  0.6754 -0.6706
 7359SOL    HW222977   2.017   5.181   2.168 -0.2778  0.8223 -0.6417
 7360SOL     OW22978   2.889   5.416   6.159  0.1984  0.0357  0.3244
 7360SOL    HW122979   2.795   5.449   6.159  0.3394  0.4513  0.3911
 7360SOL    HW222980   2.897   5.337   6.099 -0.1345  0.1773  0.0903
 7361SOL     OW22981   5.583   0.028   4.914 -0.4671  0.0529  0.1943
 7361SOL    HW122982   5.571  -0.052   4.973 -3.1614 -0.5260 -0.9671
 7361SOL    HW222983   5.584  -0.001   4.818  0.2970  1.2847 -0.1940
 7362SOL     OW22984   1.663   6.711   0.178  0.1211  0.2815 -0.2364
 7362SOL    HW122985   1.614   6.685   0.095 -0.7623 -0.1907  0.4119
 7362SOL    HW222986   1.597   6.729   0.251  0.8965  0.3622  0.4542
 7363SOL     OW22987   2.809   6.950   6.276 -0.3442 -0.3927 -0.2416
 7363SOL    HW122988   2.872   6.982   6.346 -0.7707  0.1800 -0.1125
 7363SOL    HW222989   2.719   6.933   6.317 -0.9403  1.1051 -0.8419
 7364SOL     OW22990   0.882   5.953   2.406 -0.1546  0.2892  0.0650
 7364SOL    HW122991   0.843   6.045   2.404  0.5249  0.5757 -0.6051
 7364SOL    HW222992   0.977   5.957   2.435  0.3775  0.0192 -1.4964
 7365SOL     OW22993   5.908   3.989   3.802  0.6955 -0.0973  0.4805
 7365SOL    HW122994   5.815   3.953   3.812  0.0338  0.9502 -1.3500
 7365SOL    HW222995   5.904   4.078   3.756  2.5168  0.6814  1.7340
 7366SOL     OW22996   1.821   5.720   5.030 -0.3722  0.2675  0.1025
 7366SOL    HW122997   1.917   5.697   5.045 -0.4768  0.3944  1.0558
 7366SOL    HW222998   1.781   5.659   4.962 -0.6930 -2.5848  2.6019
 7367SOL     OW22999   5.175   5.992   0.180 -0.0749  0.1967  0.3944
 7367SOL    HW123000   5.080   5.992   0.149 -0.5415  1.0417  1.7280
 7367SOL    HW223001   5.234   6.027   0.108 -0.8310  0.0305 -0.3126
 7368SOL     OW23002   2.919   3.107   1.918 -0.0571  0.2873  1.0042
 7368SOL    HW123003   2.991   3.171   1.944 -0.5666  0.5742  1.6991
 7368SOL    HW223004   2.961   3.029   1.870  0.6055  0.9157  0.5438
 7369SOL     OW23005   4.634   3.447   6.480 -0.4674 -0.1006  0.8731
 7369SOL    HW123006   4.657   3.385   6.554 -1.9524 -1.6779  0.0818
 7369SOL    HW223007   4.671   3.411   6.394 -3.2112 -1.1733  0.0434
 7370SOL     OW23008   2.499   6.666   2.814 -0.2381  0.6076  0.0916
 7370SOL    HW123009   2.508   6.589   2.877  0.5252  0.9302  0.3925
 7370SOL    HW223010   2.525   6.637   2.722  0.8155  0.6880  0.3468
 7371SOL     OW23011   4.196   6.878   3.116  0.1425  0.4073 -0.6671
 7371SOL    HW123012   4.142   6.837   3.189 -0.0684  0.5179 -0.7595
 7371SOL    HW223013   4.234   6.966   3.147 -1.8081  1.5696 -1.4207
 7372SOL     OW23014   5.035   1.567   1.582 -0.2413  0.2648 -0.0617
 7372SOL    HW123015   5.071   1.501   1.515 -0.8438 -0.5285  0.3912
 7372SOL    HW223016   4.962   1.620   1.540  2.3346  3.0002 -1.5367
 7373SOL     OW23017   6.734   4.850   5.543 -0.2853 -0.3718 -0.3112
 7373SOL    HW123018   6.742   4.852   5.643  1.3249 -1.7507 -0.3781
 7373SOL    HW223019   6.638   4.860   5.518 -0.7691 -0.3722  1.3899
 7374SOL     OW23020   5.562   4.222   3.650  0.0603  0.3917  0.2226
 7374SOL    HW123021   5.606   4.274   3.724  1.6900 -2.0215  1.0784
 7374SOL    HW223022   5.485   4.170   3.687  1.0590 -1.0500  0.3392
 7375SOL     OW23023   0.325   0.235   1.357 -0.1400 -0.5814 -0.1829
 7375SOL    HW123024   0.329   0.140   1.386  0.9587 -0.5040 -0.0496
 7375SOL    HW223025   0.231   0.269   1.366 -0.6165 -1.7459 -0.5793
 7376SOL     OW23026   6.577   5.965   1.416 -0.2611  1.2414 -0.1826
 7376SOL    HW123027   6.609   5.873   1.441  0.7205  1.5694 -0.2122
 7376SOL    HW223028   6.655   6.027   1.411 -1.0828  2.4575  1.4266
 7377SOL     OW23029   2.492   6.375   0.892  0.0844  0.2717 -0.8883
 7377SOL    HW123030   2.434   6.392   0.812 -1.6646  1.3866  0.5304
 7377SOL    HW223031   2.477   6.282   0.925 -0.8440  0.4945 -0.6339
 7378SOL     OW23032   1.857   4.021   5.200 -0.7242 -0.0175 -0.1582
 7378SOL    HW123033   1.917   4.069   5.264  0.1098  2.1685 -2.4120
 7378SOL    HW223034   1.900   3.935   5.173  0.4218  0.5136 -0.1132
 7379SOL     OW23035   4.592   2.241   1.960  0.1304  0.0799 -0.0163
 7379SOL    HW123036   4.553   2.333   1.968  0.2535  0.1201  0.1224
 7379SOL    HW223037   4.640   2.218   2.045 -0.4497 -0.3653  0.2007
 7380SOL     OW23038   6.334   2.928   1.248  0.3026 -0.2547  0.7975
 7380SOL    HW123039   6.255   2.945   1.189 -0.1576  0.2629  1.5373
 7380SOL    HW223040   6.350   2.830   1.255 -0.5119 -0.3920  0.9187
 7381SOL     OW23041   3.936   5.412   1.462 -0.1401  0.2566 -0.0909
 7381SOL    HW123042   3.983   5.337   1.509  0.4844  0.1221 -0.9014
 7381SOL    HW223043   3.979   5.499   1.488 -0.3352  0.2637  0.2179
 7382SOL     OW23044   1.174   2.173   1.714 -0.3545 -0.2202 -0.0133
 7382SOL    HW123045   1.092   2.222   1.684  0.7424  1.8819  0.2526
 7382SOL    HW223046   1.149   2.107   1.785 -1.8433  0.1891 -0.1206
 7383SOL     OW23047   2.804   2.633   1.691  0.5548  0.0682  0.1970
 7383SOL    HW123048   2.883   2.657   1.634  0.4000 -0.6116 -0.3213
 7383SOL    HW223049   2.827   2.553   1.748  0.3474  0.0654  0.2761
 7384SOL     OW23050   5.923   0.477   0.686 -0.7939  0.3913 -0.0458
 7384SOL    HW123051   6.018   0.458   0.659 -0.8014 -0.4673  0.5241
 7384SOL    HW223052   5.880   0.535   0.616  0.2426  1.0686 -0.1554
 7385SOL     OW23053   1.229   6.035   4.181 -0.3917  0.8153 -0.4378
 7385SOL    HW123054   1.312   6.045   4.237 -1.3890  1.3877  1.0178
 7385SOL    HW223055   1.149   6.060   4.236 -1.2977  3.3834 -2.7366
 7386SOL     OW23056   6.257   4.650   1.987  0.1832 -0.0989 -0.2375
 7386SOL    HW123057   6.185   4.616   2.047 -1.1329  2.7485 -0.0346
 7386SOL    HW223058   6.342   4.657   2.038 -0.6873  1.3824  1.1320
 7387SOL     OW23059   2.176   5.761   5.433  0.4196 -0.3853 -0.0892
 7387SOL    HW123060   2.255   5.776   5.492  1.9274 -0.7522 -1.9204
 7387SOL    HW223061   2.160   5.843   5.378 -1.7470  0.4289  1.5794
 7388SOL     OW23062   2.521   5.032   2.658  0.1837 -0.4789  0.6050
 7388SOL    HW123063   2.563   4.999   2.574 -1.8473 -0.8741 -0.3168
 7388SOL    HW223064   2.502   4.955   2.719 -1.6821 -0.7165 -0.1999
 7389SOL     OW23065   6.783   2.135   0.356  0.2615 -0.1537 -0.5209
 7389SOL    HW123066   6.751   2.209   0.297 -1.0184 -0.4824 -0.2645
 7389SOL    HW223067   6.752   2.150   0.449  0.1712 -0.9103 -0.4238
 7390SOL     OW23068   4.535   2.512   3.366 -0.1744 -0.1258 -0.1459
 7390SOL    HW123069   4.581   2.458   3.296 -2.0127 -1.5231 -0.3274
 7390SOL    HW223070   4.461   2.459   3.407 -1.5917  1.9779  0.2037
 7391SOL     OW23071   4.114   3.713   2.587 -0.3168  0.0071  0.2928
 7391SOL    HW123072   4.150   3.724   2.679 -0.2662  0.4277  0.2230
 7391SOL    HW223073   4.015   3.698   2.592 -0.2420 -0.4471  0.4417
 7392SOL     OW23074   3.944   6.377   0.764 -0.2445  0.3261 -0.7176
 7392SOL    HW123075   3.973   6.333   0.849 -1.6528 -0.4824 -0.6200
 7392SOL    HW223076   3.987   6.331   0.686 -0.8350 -0.5297 -0.5522
 7393SOL     OW23077   4.080   5.638   2.749 -0.2388 -0.1842 -0.5460
 7393SOL    HW123078   4.009   5.695   2.708 -0.2472  0.9224  0.9271
 7393SOL    HW223079   4.130   5.691   2.818  0.1611 -1.7921  0.4498
 7394SOL     OW23080   1.981   2.389   6.957 -0.0012  0.2799  0.1408
 7394SOL    HW123081   1.918   2.371   7.032  0.3145 -0.4680  0.2322
 7394SOL    HW223082   2.004   2.303   6.911 -1.7072  0.8870 -2.0513
 7395SOL     OW23083   3.253   5.702   6.619  0.2236 -0.5451 -0.1523
 7395SOL    HW123084   3.165   5.677   6.659 -0.2428 -1.8922 -1.9028
 7395SOL    HW223085   3.267   5.801   6.627 -0.9479 -0.4498  1.0732
 7396SOL     OW23086   0.126   5.581   0.204  0.2081  0.4229 -0.3167
 7396SOL    HW123087   0.076   5.535   0.278 -0.7129 -1.0527 -1.7786
 7396SOL    HW223088   0.216   5.609   0.237 -1.1076  2.2331  2.1244
 7397SOL     OW23089   5.550   3.740   4.477  0.6146  0.0778 -0.1001
 7397SOL    HW123090   5.588   3.819   4.524  0.5403 -0.5008  0.9607
 7397SOL    HW223091   5.509   3.769   4.390  1.5317  1.0309 -0.2309
 7398SOL     OW23092   3.351   6.362   2.727  0.3163 -0.4183  0.5059
 7398SOL    HW123093   3.397   6.409   2.803  2.5318 -0.6301 -0.6321
 7398SOL    HW223094   3.350   6.422   2.647 -1.3734 -0.4563  0.4736
 7399SOL     OW23095   0.496   1.784   4.219 -0.2737 -0.0156  0.8697
 7399SOL    HW123096   0.492   1.684   4.215  0.9529 -0.0449 -0.1041
 7399SOL    HW223097   0.405   1.821   4.197 -0.2169 -0.8890 -1.0499
 7400SOL     OW23098   3.814   3.439   4.937 -0.1993  0.2216  0.9319
 7400SOL    HW123099   3.812   3.340   4.922 -1.4448  0.3262  0.2627
 7400SOL    HW223100   3.878   3.481   4.872  0.8590 -0.1931  1.6770
 7401SOL     OW23101   2.532   0.295   3.714  0.0714  0.3252  0.3922
 7401SOL    HW123102   2.573   0.387   3.715  1.6430 -0.3125  2.5600
 7401SOL    HW223103   2.505   0.271   3.621 -0.7079  3.0933 -0.1914
 7402SOL     OW23104   4.915   5.240   3.666  0.2639  0.3336  0.4766
 7402SOL    HW123105   4.868   5.152   3.675 -0.0995  0.6623  2.1007
 7402SOL    HW223106   5.013   5.228   3.681  0.2648  0.1586  0.3313
 7403SOL     OW23107   2.197   6.577   2.223  0.0869  0.0248 -0.2485
 7403SOL    HW123108   2.122   6.583   2.289  0.0095 -0.4006 -0.2964
 7403SOL    HW223109   2.280   6.549   2.270  0.2654  0.6793 -0.1621
 7404SOL     OW23110   1.618   4.445   2.939  0.4696  0.1506  0.1694
 7404SOL    HW123111   1.527   4.438   2.898  0.4685  1.0108  0.0001
 7404SOL    HW223112   1.653   4.354   2.958 -0.8062 -0.1766  1.0679
 7405SOL     OW23113   3.020   1.394   6.283 -0.0331  0.3444  0.2952
 7405SOL    HW123114   3.015   1.308   6.231 -1.5181 -0.3641  1.5131
 7405SOL    HW223115   3.049   1.468   6.222  2.6962 -1.2327 -0.4568
 7406SOL     OW23116   1.558   1.895   3.645 -0.1941 -0.0740 -0.0404
 7406SOL    HW123117   1.474   1.920   3.596 -0.7217  0.9788  1.3311
 7406SOL    HW223118   1.535   1.834   3.720  0.3093 -0.0116  0.1671
 7407SOL     OW23119   0.839   6.704   6.167 -0.2746  0.3013 -0.1206
 7407SOL    HW123120   0.927   6.658   6.159  0.0475  0.6509  1.1565
 7407SOL    HW223121   0.848   6.799   6.137 -0.0363  0.5244  0.6314
 7408SOL     OW23122   3.977   5.120   3.516  0.4108 -0.5167 -0.0056
 7408SOL    HW123123   3.932   5.169   3.590 -0.3649  0.4052 -1.0600
 7408SOL    HW223124   3.909   5.078   3.457  0.8267  1.2085 -1.8404
 7409SOL     OW23125   7.013   5.776   0.574  0.1310 -0.0119  0.4988
 7409SOL    HW123126   6.959   5.783   0.490  1.7109 -0.6463 -0.6226
 7409SOL    HW223127   6.957   5.739   0.647 -0.7490 -1.4334 -0.8395
 7410SOL     OW23128   6.618   1.663   0.708 -0.0699 -0.5418 -0.3287
 7410SOL    HW123129   6.691   1.728   0.729  0.0633 -1.1828  1.3753
 7410SOL    HW223130   6.657   1.583   0.663  0.2093 -0.6293  0.0581
 7411SOL     OW23131   3.902   0.623   5.700 -0.3268  0.0999 -0.1780
 7411SOL    HW123132   3.871   0.713   5.671 -0.1775  0.0657 -0.4461
 7411SOL    HW223133   3.850   0.553   5.651 -1.0575  0.0273  0.6634
 7412SOL     OW23134   3.908   6.444   6.317 -0.0004 -0.3079  0.0522
 7412SOL    HW123135   3.926   6.542   6.315 -1.0999 -0.0739  0.9673
 7412SOL    HW223136   3.884   6.416   6.410 -1.1814 -1.1700 -0.4906
 7413SOL     OW23137   3.556   6.511   2.933  0.0316  0.4277 -0.2384
 7413SOL    HW123138   3.498   6.451   2.989 -0.5046  2.3775  1.4102
 7413SOL    HW223139   3.652   6.497   2.958 -0.2254  1.5576  1.5657
 7414SOL     OW23140   5.207   1.224   4.071  0.3208  0.3049  0.4444
 7414SOL    HW123141   5.239   1.259   3.983 -2.2338  0.5046 -0.5127
 7414SOL    HW223142   5.135   1.283   4.106  0.3760 -0.5065  2.0304
 7415SOL     OW23143   4.206   6.591   4.990  0.5272  0.6415 -0.3846
 7415SOL    HW123144   4.140   6.666   4.992  0.0002  0.1664  1.2194
 7415SOL    HW223145   4.285   6.614   5.046 -1.1641 -1.2641  3.1187
 7416SOL     OW23146   6.339   0.063   0.829  0.6379 -0.0741  0.3778
 7416SOL    HW123147   6.372   0.137   0.888 -0.7761  0.4311  0.5622
 7416SOL    HW223148   6.300   0.102   0.745  1.6633 -0.7366 -0.4387
 7417SOL     OW23149   6.318   1.144   3.327 -0.2812  0.7984 -0.3408
 7417SOL    HW123150   6.257   1.093   3.265  1.3893  0.1334 -1.4950
 7417SOL    HW223151   6.331   1.237   3.293  0.2304  0.5915 -0.7168
 7418SOL     OW23152   3.314   3.860   5.281  0.2457 -0.4673 -0.3242
 7418SOL    HW123153   3.288   3.948   5.242  0.0223 -0.7615 -0.8506
 7418SOL    HW223154   3.292   3.787   5.217 -1.0374 -1.0642  0.7570
 7419SOL     OW23155   6.281   2.264   5.843 -0.0264  0.1666 -0.1114
 7419SOL    HW123156   6.370   2.300   5.869  1.2084 -1.6538 -1.5073
 7419SOL    HW223157   6.246   2.315   5.765  1.3289 -0.9900 -1.5612
 7420SOL     OW23158   6.097   6.418   0.444 -0.3935 -0.4132 -0.2595
 7420SOL    HW123159   6.038   6.493   0.471 -2.2896 -0.7317 -3.0858
 7420SOL    HW223160   6.137   6.437   0.354 -0.7432 -2.6116 -0.9484
 7421SOL     OW23161   0.398   3.006   2.087 -0.2382  0.7325  0.6822
 7421SOL    HW123162   0.446   2.919   2.076 -0.8633  0.4190  0.3815
 7421SOL    HW223163   0.425   3.068   2.013 -0.9708  0.2321 -0.0284
 7422SOL     OW23164   6.750   1.439   2.951 -0.1035 -0.4209 -0.4069
 7422SOL    HW123165   6.658   1.401   2.938 -0.0071 -0.8310  0.0692
 7422SOL    HW223166   6.797   1.386   3.021  0.5916 -0.3811 -0.8375
 7423SOL     OW23167   3.058   1.563   0.097 -0.2386  0.0213  0.7349
 7423SOL    HW123168   3.120   1.490   0.069  0.8450  0.5656  1.6249
 7423SOL    HW223169   3.102   1.619   0.167 -0.9383  1.7058 -0.1225
 7424SOL     OW23170   1.690   0.708   4.112  0.3431 -0.3925  0.0144
 7424SOL    HW123171   1.735   0.776   4.170  2.9397 -0.0185 -2.2704
 7424SOL    HW223172   1.630   0.755   4.047 -0.0324 -0.5380  0.2534
 7425SOL     OW23173   6.548   1.872   2.021  0.1862 -0.2512 -0.1625
 7425SOL    HW123174   6.577   1.921   2.104  0.1587  0.9371 -0.8331
 7425SOL    HW223175   6.620   1.878   1.952  0.0039 -0.8051 -0.3993
 7426SOL     OW23176   3.577   3.694   5.515  0.0164 -0.1389 -0.0283
 7426SOL    HW123177   3.527   3.765   5.464  0.6488  0.5381  0.2758
 7426SOL    HW223178   3.635   3.643   5.451  2.3440  2.0016  0.2077
 7427SOL     OW23179   4.063   0.193   2.173 -0.1269 -0.2954 -0.0650
 7427SOL    HW123180   3.993   0.158   2.111 -0.8494  1.5004 -0.3125
 7427SOL    HW223181   4.129   0.248   2.121 -0.5727  0.9783  0.6759
 7428SOL     OW23182   1.608   6.324   6.977  0.4096 -0.6140 -0.2635
 7428SOL    HW123183   1.694   6.276   6.995  2.2037  2.9401  1.7377
 7428SOL    HW223184   1.561   6.341   7.064  0.2842  1.7621 -0.7173
 7429SOL     OW23185   1.135   1.364   2.007 -0.1065 -0.4091 -0.2550
 7429SOL    HW123186   1.075   1.416   1.947  0.5060  2.6534  1.6060
 7429SOL    HW223187   1.230   1.393   1.994  0.0733  0.1403  1.9280
 7430SOL     OW23188   6.784   2.358   1.319 -0.0033 -0.1112 -0.1961
 7430SOL    HW123189   6.853   2.431   1.322  1.3807 -1.3869  1.0377
 7430SOL    HW223190   6.790   2.304   1.403 -1.2571 -1.4140 -0.9037
 7431SOL     OW23191   6.811   1.808   5.815  0.0690 -0.2066  0.0693
 7431SOL    HW123192   6.908   1.829   5.821  0.1203 -0.2571 -0.5614
 7431SOL    HW223193   6.761   1.862   5.883  0.4511  0.3311 -0.0725
 7432SOL     OW23194   0.420   0.475   2.497  0.0433 -0.1113  0.2460
 7432SOL    HW123195   0.475   0.497   2.578  0.7724 -0.7613 -0.0615
 7432SOL    HW223196   0.465   0.403   2.445  0.6441  1.6879 -1.8622
 7433SOL     OW23197   3.202   0.654   0.682  0.2299  0.3388 -0.1281
 7433SOL    HW123198   3.240   0.588   0.747 -1.2665 -0.1235  0.3232
 7433SOL    HW223199   3.241   0.640   0.592  2.5359  1.1463  0.6816
 7434SOL     OW23200   3.783   6.130   2.548 -0.3805  0.0038  0.1097
 7434SOL    HW123201   3.687   6.133   2.577 -1.0004  1.1108 -1.8764
 7434SOL    HW223202   3.787   6.130   2.448  1.6925 -0.9957  0.1535
 7435SOL     OW23203   6.260   4.368   5.010  0.0819 -0.0535 -0.2189
 7435SOL    HW123204   6.259   4.300   5.083  0.1928 -0.9987 -1.0817
 7435SOL    HW223205   6.209   4.334   4.932  0.1082  0.8783 -0.6526
 7436SOL     OW23206   5.362   3.152   5.623 -0.8059 -0.5929 -0.0943
 7436SOL    HW123207   5.345   3.074   5.563  0.3516 -1.3774  0.5659
 7436SOL    HW223208   5.279   3.174   5.674 -1.1047 -1.5056 -0.1714
 7437SOL     OW23209   3.657   6.230   2.016  0.5528 -0.0851  0.3433
 7437SOL    HW123210   3.742   6.272   1.985 -0.8413  1.4572 -1.6252
 7437SOL    HW223211   3.631   6.157   1.954  1.2137 -1.6813  1.8616
 7438SOL     OW23212   6.094   1.006   5.675 -0.1559 -0.5624  0.0149
 7438SOL    HW123213   6.077   1.089   5.727  1.3223  0.2578 -0.7507
 7438SOL    HW223214   6.190   0.979   5.685 -0.3481 -1.5408 -0.6381
 7439SOL     OW23215   1.782   4.367   5.938  0.2189 -0.0949 -0.1767
 7439SOL    HW123216   1.818   4.457   5.914 -0.8138 -0.4984 -3.9498
 7439SOL    HW223217   1.682   4.370   5.935  0.0659 -0.7926  2.4131
 7440SOL     OW23218   5.618   4.032   4.509  0.8571 -0.0164 -0.1477
 7440SOL    HW123219   5.652   4.078   4.427  0.0150 -1.4732 -1.3560
 7440SOL    HW223220   5.676   4.056   4.587  0.7691  2.6345 -0.8060
 7441SOL     OW23221   6.296   6.142   0.757  0.0251  0.0952  0.8254
 7441SOL    HW123222   6.329   6.216   0.698  1.5128 -0.1425  1.3293
 7441SOL    HW223223   6.241   6.181   0.831  2.9751  1.0821  2.6569
 7442SOL     OW23224   5.645   0.971   6.189 -0.0582  0.2811 -0.4368
 7442SOL    HW123225   5.647   0.944   6.093 -1.7978  2.1186 -1.0532
 7442SOL    HW223226   5.642   0.889   6.247  0.1558 -0.8354 -1.9500
 7443SOL     OW23227   3.699   0.155   0.064  0.5464  0.0061 -0.3460
 7443SOL    HW123228   3.693   0.057   0.081 -0.3912  0.1722  0.3552
 7443SOL    HW223229   3.612   0.188   0.027  0.8976  0.5511 -0.7117
 7444SOL     OW23230   5.560   6.489   5.754  0.1030  0.0223 -0.3047
 7444SOL    HW123231   5.545   6.587   5.738 -0.2767  0.0554  0.2173
 7444SOL    HW223232   5.610   6.477   5.840  0.0078 -0.2427 -0.2849
 7445SOL     OW23233   2.566   6.569   2.075 -0.0953  0.3167  0.0419
 7445SOL    HW123234   2.641   6.618   2.030  0.1515  0.5229  0.6691
 7445SOL    HW223235   2.487   6.567   2.014  0.4901 -0.1122 -0.7239
 7446SOL     OW23236   6.245   5.289   0.627  0.2858 -0.1328  0.1039
 7446SOL    HW123237   6.288   5.267   0.540  1.0658  0.0765  0.4247
 7446SOL    HW223238   6.161   5.340   0.611  0.6714  0.3193 -0.5085
 7447SOL     OW23239   6.396   6.573   2.267 -0.6630 -0.3332  0.1089
 7447SOL    HW123240   6.438   6.524   2.344 -0.4379  0.2579  0.3721
 7447SOL    HW223241   6.421   6.528   2.182 -0.2970 -0.5677  0.3350
 7448SOL     OW23242   5.349   4.432   6.754 -0.5504 -0.1932  0.1084
 7448SOL    HW123243   5.315   4.516   6.710 -0.3761  0.3790  1.0427
 7448SOL    HW223244   5.334   4.354   6.693 -2.9405  0.1269  0.1849
 7449SOL     OW23245   6.567   4.601   5.353  0.1930  0.0146 -0.4906
 7449SOL    HW123246   6.523   4.689   5.369 -1.3333 -0.0967 -3.4628
 7449SOL    HW223247   6.500   4.535   5.319  1.5812 -1.9310  0.3100
 7450SOL     OW23248   5.384   4.647   0.600 -0.4814 -0.1227 -0.2443
 7450SOL    HW123249   5.367   4.549   0.593  2.8697 -0.8557  0.2357
 7450SOL    HW223250   5.440   4.665   0.681 -1.6086  2.3258  0.0795
 7451SOL     OW23251   5.504   4.432   3.462 -0.6058  0.0270  0.1172
 7451SOL    HW123252   5.495   4.357   3.527  0.9868 -0.5625 -0.3048
 7451SOL    HW223253   5.600   4.444   3.437 -1.0661  0.8338 -1.4262
 7452SOL     OW23254   0.893   6.771   0.619 -1.0160  0.3967  0.3885
 7452SOL    HW123255   0.908   6.810   0.528 -1.3949 -0.4023 -0.0292
 7452SOL    HW223256   0.868   6.844   0.683  0.6112  1.1644  0.1847
 7453SOL     OW23257   5.129   5.048   5.821 -0.1387 -0.3199 -0.4601
 7453SOL    HW123258   5.058   5.115   5.842  1.2194  1.0833 -0.0814
 7453SOL    HW223259   5.119   4.968   5.880 -1.5885 -0.3069 -0.6684
 7454SOL     OW23260   4.171   3.507   0.240 -0.0776 -0.7429 -0.0676
 7454SOL    HW123261   4.264   3.475   0.255  0.1953  0.4161  0.8480
 7454SOL    HW223262   4.168   3.607   0.249 -0.9774 -0.4964 -2.4247
 7455SOL     OW23263   6.842   0.657   1.760 -0.5790 -0.3761 -0.3497
 7455SOL    HW123264   6.888   0.721   1.822 -0.4995 -0.8403  0.0801
 7455SOL    HW223265   6.746   0.684   1.749 -0.6169 -0.3438  0.0468
 7456SOL     OW23266   1.863   0.477   4.042 -0.0303  0.7420 -0.1960
 7456SOL    HW123267   1.836   0.563   4.085 -1.5572  0.5540 -0.7410
 7456SOL    HW223268   1.933   0.496   3.973  1.3607  1.2241  1.2694
 7457SOL     OW23269   2.276   2.398   4.497  0.2063  0.2906 -0.5025
 7457SOL    HW123270   2.307   2.493   4.495 -2.2361  1.2659  1.3201
 7457SOL    HW223271   2.279   2.364   4.591 -2.5901  0.0037 -0.4120
 7458SOL     OW23272   5.985   4.898   6.368  0.0205 -0.4034  0.4381
 7458SOL    HW123273   6.049   4.967   6.403  0.1903 -0.5750  0.4677
 7458SOL    HW223274   5.912   4.944   6.316 -2.0768  0.2199  3.6409
 7459SOL     OW23275   5.102   6.718   3.956 -0.1782  0.4437  0.6410
 7459SOL    HW123276   5.092   6.623   3.925 -1.0056  1.0738 -1.1638
 7459SOL    HW223277   5.012   6.756   3.978  0.0219  1.1220  0.3195
 7460SOL     OW23278   6.765   6.203   6.462 -0.0735  0.3707 -0.1488
 7460SOL    HW123279   6.772   6.293   6.504  0.7125 -0.5699  1.8598
 7460SOL    HW223280   6.817   6.202   6.376 -1.4652  2.2535 -1.0824
 7461SOL     OW23281   2.595   4.630   4.878 -0.3847  0.8343  0.6111
 7461SOL    HW123282   2.680   4.593   4.913 -2.4791 -1.2095  4.0810
 7461SOL    HW223283   2.579   4.721   4.918 -0.5228  0.5718  1.1567
 7462SOL     OW23284   6.876   6.166   0.693 -0.2294 -0.8086  0.1758
 7462SOL    HW123285   6.967   6.200   0.672 -0.8219  1.1550  0.5539
 7462SOL    HW223286   6.854   6.089   0.633  1.8236 -1.6369  0.4137
 7463SOL     OW23287   4.354   6.620   5.935 -0.0164  0.2146  0.1998
 7463SOL    HW123288   4.406   6.705   5.936 -1.9757  1.5068 -0.7957
 7463SOL    HW223289   4.415   6.543   5.916  1.6066  1.5435 -0.1591
 7464SOL     OW23290   4.454   4.880   4.291 -0.5876 -0.2909 -0.2126
 7464SOL    HW123291   4.554   4.883   4.286 -0.6236  0.0359 -0.8645
 7464SOL    HW223292   4.423   4.922   4.376 -0.1284 -1.4314  0.5484
 7465SOL     OW23293   2.197   4.049   6.963 -0.3829  0.3219 -0.6580
 7465SOL    HW123294   2.212   3.963   7.012  1.9385  0.9607 -0.0969
 7465SOL    HW223295   2.112   4.044   6.911 -0.8395 -1.9026  0.2010
 7466SOL     OW23296   6.151   6.752   6.398  0.0710  0.6634  0.3741
 7466SOL    HW123297   6.075   6.749   6.332  1.7050 -1.2870 -1.5448
 7466SOL    HW223298   6.126   6.700   6.480 -1.0907  1.0473  0.2798
 7467SOL     OW23299   1.201   3.727   4.214  0.2899 -0.6713  0.4412
 7467SOL    HW123300   1.239   3.714   4.123  0.7672  0.0489  0.5320
 7467SOL    HW223301   1.268   3.698   4.283  0.7326  0.6599  0.6016
 7468SOL     OW23302   6.115   4.040   5.886  0.1828  0.5173 -0.0040
 7468SOL    HW123303   6.053   3.998   5.952  1.2183 -0.6342  0.2792
 7468SOL    HW223304   6.085   4.134   5.867 -1.6233 -0.0022  0.1037
 7469SOL     OW23305   6.701   3.056   6.259  0.0384  0.2623  0.1816
 7469SOL    HW123306   6.672   2.965   6.290 -3.2099  1.0918 -0.0846
 7469SOL    HW223307   6.749   3.048   6.172 -0.6171 -1.1699 -0.0753
 7470SOL     OW23308   4.830   3.069   2.545 -0.0448  0.3005  0.3376
 7470SOL    HW123309   4.896   3.122   2.492  2.3855 -0.4455  2.3975
 7470SOL    HW223310   4.783   3.003   2.485  0.8618  1.0434 -1.2505
 7471SOL     OW23311   3.291   0.653   5.418 -0.0976  0.3144  0.2494
 7471SOL    HW123312   3.341   0.665   5.503 -2.4036  1.2562  1.5776
 7471SOL    HW223313   3.252   0.561   5.414  0.4600  0.0895 -0.0562
 7472SOL     OW23314   6.578   0.185   5.531  0.1152 -0.1413 -0.5678
 7472SOL    HW123315   6.498   0.140   5.569  1.1450 -0.1222  1.7975
 7472SOL    HW223316   6.625   0.123   5.468 -0.0799 -1.2930  0.3920
 7473SOL     OW23317   5.044   5.757   3.816  0.3735 -0.2273  0.2808
 7473SOL    HW123318   5.028   5.817   3.894 -1.3617  0.1428 -0.2940
 7473SOL    HW223319   4.963   5.759   3.757  1.4357 -0.9044 -1.2478
 7474SOL     OW23320   0.446   1.806   1.200  0.3406  0.2304  0.1267
 7474SOL    HW123321   0.468   1.860   1.118 -0.0990  0.7789  0.3627
 7474SOL    HW223322   0.529   1.794   1.255  0.2817  1.4169  0.5041
 7475SOL     OW23323   6.814   5.172   2.702 -0.4252  0.3708  0.8455
 7475SOL    HW123324   6.849   5.112   2.630  0.0390  1.1192  0.4366
 7475SOL    HW223325   6.845   5.138   2.791  0.3105  0.3196  0.5787
 7476SOL     OW23326   3.587   0.891   3.916  0.1968 -0.1139  0.3234
 7476SOL    HW123327   3.581   0.965   3.984 -0.4443 -1.3226  1.6404
 7476SOL    HW223328   3.614   0.806   3.962 -0.7131 -1.0715 -0.8495
 7477SOL     OW23329   1.978   2.800   6.104  0.0334 -0.3040 -0.2554
 7477SOL    HW123330   1.888   2.832   6.076 -0.0593  0.5409  0.9290
 7477SOL    HW223331   1.969   2.735   6.180  0.4544  1.1540  1.1027
 7478SOL     OW23332   1.694   4.910   0.915 -0.0740 -0.2003 -0.2308
 7478SOL    HW123333   1.765   4.955   0.860  0.6035 -0.2954  0.5413
 7478SOL    HW223334   1.718   4.814   0.929  0.1251 -0.0060  0.8155
 7479SOL     OW23335   6.186   2.595   2.536 -0.0316 -0.4556 -0.3771
 7479SOL    HW123336   6.214   2.687   2.562 -0.4195 -0.3755 -0.2363
 7479SOL    HW223337   6.089   2.595   2.511  0.4869 -0.3440 -2.6464
 7480SOL     OW23338   4.132   5.839   3.297  0.0573 -0.3501 -0.6961
 7480SOL    HW123339   4.143   5.891   3.213  3.0318 -1.9166 -1.4320
 7480SOL    HW223340   4.090   5.897   3.367  0.8973  2.1888 -2.1565
 7481SOL     OW23341   5.331   4.841   6.114 -0.3096 -0.3825  0.1539
 7481SOL    HW123342   5.311   4.938   6.124  0.8047 -0.0602 -0.6282
 7481SOL    HW223343   5.377   4.825   6.027  0.3774 -1.4751  0.7011
 7482SOL     OW23344   5.404   1.590   2.959  0.4507  0.0153  0.6693
 7482SOL    HW123345   5.324   1.647   2.978  0.7133  0.8958 -0.7147
 7482SOL    HW223346   5.477   1.647   2.921  0.7309 -1.2227 -0.7587
 7483SOL     OW23347   5.280   1.049   5.192 -0.4897  0.6032  0.0786
 7483SOL    HW123348   5.296   1.022   5.287 -2.6425  0.1720  0.3683
 7483SOL    HW223349   5.293   1.148   5.183  1.0673  0.4689  0.4770
 7484SOL     OW23350   1.904   5.971   4.941  0.0340 -0.6705 -0.6733
 7484SOL    HW123351   2.001   5.970   4.916  0.0944 -1.2504 -0.4340
 7484SOL    HW223352   1.876   5.879   4.969 -0.5374 -0.4633 -0.5513
 7485SOL     OW23353   4.035   5.725   6.281 -0.7152  0.2744  0.0456
 7485SOL    HW123354   4.045   5.695   6.186  0.3336 -1.1051  0.5682
 7485SOL    HW223355   3.972   5.803   6.284 -0.8512  0.2864 -1.7586
 7486SOL     OW23356   4.207   4.840   1.225  0.0837 -0.0067 -0.1916
 7486SOL    HW123357   4.210   4.834   1.126 -0.5803 -0.6627 -0.1727
 7486SOL    HW223358   4.169   4.756   1.264  0.6873  0.0818  0.6418
 7487SOL     OW23359   2.704   5.857   4.920 -0.0866 -0.6154 -0.6009
 7487SOL    HW123360   2.690   5.858   4.821  2.0813 -1.8892 -0.9846
 7487SOL    HW223361   2.665   5.773   4.958 -1.7222  0.2842 -0.1737
 7488SOL     OW23362   1.535   4.738   3.313 -0.3244  0.1162  0.4652
 7488SOL    HW123363   1.518   4.782   3.401 -1.3868  2.9401 -1.0409
 7488SOL    HW223364   1.596   4.795   3.258 -0.2466 -1.2318 -0.9172
 7489SOL     OW23365   5.065   5.414   6.033  0.3665 -0.4623 -0.1810
 7489SOL    HW123366   5.000   5.480   6.071  1.9845  1.5650 -0.7420
 7489SOL    HW223367   5.120   5.374   6.106 -0.1661 -0.6886  0.0993
 7490SOL     OW23368   2.229   3.262   1.696  0.2523  0.2424 -0.5131
 7490SOL    HW123369   2.239   3.320   1.776  1.2898  0.1504 -0.5570
 7490SOL    HW223370   2.303   3.282   1.631 -0.6202  0.3794 -1.4886
 7491SOL     OW23371   3.101   3.875   5.671  0.7740 -0.0591 -0.1518
 7491SOL    HW123372   3.200   3.878   5.658  0.9418  0.5781  1.1155
 7491SOL    HW223373   3.062   3.965   5.651 -0.0090 -0.9921 -3.5583
 7492SOL     OW23374   2.284   1.367   2.609 -0.5981  0.0989 -0.8049
 7492SOL    HW123375   2.370   1.413   2.584 -0.7340  0.3521 -0.8096
 7492SOL    HW223376   2.211   1.435   2.615 -0.0573  0.5586  2.9352
 7493SOL     OW23377   0.323   5.896   3.643 -0.4458 -0.6622 -0.3751
 7493SOL    HW123378   0.308   5.969   3.710 -1.6868 -2.7177  1.7179
 7493SOL    HW223379   0.406   5.916   3.591  1.1644  0.6075  2.4166
 7494SOL     OW23380   5.106   1.695   3.604  0.4909 -0.1626  0.7082
 7494SOL    HW123381   5.061   1.740   3.527  0.9555  0.7238  0.9387
 7494SOL    HW223382   5.045   1.626   3.643  1.5003 -3.3033 -2.6801
 7495SOL     OW23383   1.634   1.209   4.738 -0.5743 -0.2859 -0.3777
 7495SOL    HW123384   1.643   1.246   4.830 -0.6166  0.5952 -0.7168
 7495SOL    HW223385   1.593   1.278   4.678  0.8147 -0.2845 -1.3980
 7496SOL     OW23386   4.840   3.892   2.939  0.1942 -0.1170 -0.0963
 7496SOL    HW123387   4.833   3.797   2.970  1.1833  0.7620  3.2049
 7496SOL    HW223388   4.773   3.948   2.987 -1.2429  0.7725 -2.9221
 7497SOL     OW23389   0.050   6.940   1.237  0.0229  0.0584  0.4569
 7497SOL    HW123390   0.006   6.852   1.222  0.9477 -0.4792  0.8484
 7497SOL    HW223391   0.003   7.010   1.183 -1.3167 -0.4783  0.8697
 7498SOL     OW23392   2.320   5.325   3.479  0.2775  0.2824  0.4978
 7498SOL    HW123393   2.418   5.338   3.461  0.7112 -2.1278  0.7851
 7498SOL    HW223394   2.306   5.317   3.578  0.3779 -2.8215  0.3467
 7499SOL     OW23395   3.592   1.428   3.580  0.1122  0.1250 -0.3670
 7499SOL    HW123396   3.599   1.396   3.486 -0.9654  0.4020 -0.5541
 7499SOL    HW223397   3.496   1.445   3.603  0.2639 -0.7726  1.0643
 7500SOL     OW23398   2.830   0.996   0.039  0.2175  0.8133 -0.1054
 7500SOL    HW123399   2.781   0.988   0.126  1.9796  0.4529  0.9054
 7500SOL    HW223400   2.861   1.090   0.026  0.3135  0.7777 -0.1357
 7501SOL     OW23401   6.230   6.653   5.015  0.5083 -0.0750 -0.0480
 7501SOL    HW123402   6.285   6.661   5.098 -0.7459 -0.3484  0.8433
 7501SOL    HW223403   6.142   6.610   5.037 -0.5871  1.4641 -1.1607
 7502SOL     OW23404   3.788   6.153   4.367  0.5914 -0.4712 -0.3567
 7502SOL    HW123405   3.852   6.083   4.336  0.4586 -1.3353  1.2219
 7502SOL    HW223406   3.800   6.169   4.465  0.7168  1.8465 -0.6855
 7503SOL     OW23407   6.471   5.945   6.963  0.3435 -0.0269  0.2079
 7503SOL    HW123408   6.457   5.850   6.990  2.6386 -0.8238 -1.1130
 7503SOL    HW223409   6.539   5.988   7.023 -1.1534  1.0556  1.2173
 7504SOL     OW23410   4.902   5.848   5.670 -0.0017 -0.4672  0.3139
 7504SOL    HW123411   4.812   5.862   5.628  0.1412 -0.4881 -0.0032
 7504SOL    HW223412   4.940   5.936   5.697  0.0141 -0.4296  0.1707
 7505SOL     OW23413   1.107   0.073   6.701  0.1306 -0.1412  0.2250
 7505SOL    HW123414   1.180   0.006   6.685 -0.3695 -0.4993 -0.6178
 7505SOL    HW223415   1.018   0.026   6.700 -0.0460 -0.2034  3.8712
 7506SOL     OW23416   3.308   0.580   4.526  0.7188  0.2523  0.2515
 7506SOL    HW123417   3.375   0.654   4.525  0.2474  0.6809 -0.4587
 7506SOL    HW223418   3.328   0.516   4.452  0.1095  0.6121 -0.2365
 7507SOL     OW23419   6.640   4.294   5.151  0.2541 -0.2621 -0.3593
 7507SOL    HW123420   6.623   4.246   5.237  0.1074  1.8683  0.8444
 7507SOL    HW223421   6.676   4.229   5.084  0.6425 -1.9140  1.3628
 7508SOL     OW23422   3.160   6.830   0.379 -0.3882  0.0215 -0.5003
 7508SOL    HW123423   3.083   6.883   0.415 -0.6004 -0.8095  0.3020
 7508SOL    HW223424   3.241   6.889   0.372 -0.1836  0.1161  1.8604
 7509SOL     OW23425   4.745   4.448   2.075 -0.1480  0.1504  0.3008
 7509SOL    HW123426   4.660   4.427   2.027  0.1736  1.4084 -0.9052
 7509SOL    HW223427   4.822   4.440   2.011  0.4492  0.6459  0.9404
 7510SOL     OW23428   3.244   5.556   0.623  0.3846 -0.3404  0.0437
 7510SOL    HW123429   3.331   5.573   0.670 -0.3695  0.0993  1.3018
 7510SOL    HW223430   3.263   5.506   0.538  1.7763 -1.1429  0.7823
 7511SOL     OW23431   3.012   6.830   3.906 -0.1578  0.0691  0.3172
 7511SOL    HW123432   3.023   6.767   3.828 -2.4535 -1.1142  0.8410
 7511SOL    HW223433   3.013   6.924   3.873  1.3676 -0.2984 -0.7849
 7512SOL     OW23434   3.057   5.566   6.755 -0.3143  0.5764  0.0306
 7512SOL    HW123435   3.056   5.487   6.816  3.3049  0.3618  0.0417
 7512SOL    HW223436   3.030   5.648   6.805 -0.0828 -0.0231  1.1697
 7513SOL     OW23437   0.296   0.243   1.069 -0.4512  0.0686  0.3808
 7513SOL    HW123438   0.356   0.170   1.036  0.8570  1.4958 -0.5137
 7513SOL    HW223439   0.317   0.261   1.165 -1.4525 -1.3387  0.9007
 7514SOL     OW23440   5.189   6.207   6.849  0.0743 -0.1850  0.4315
 7514SOL    HW123441   5.196   6.108   6.840  1.7634  0.0071 -0.9233
 7514SOL    HW223442   5.230   6.236   6.935 -2.0174 -0.7742  1.6775
 7515SOL     OW23443   6.966   5.409   2.073 -0.0305  0.0314 -0.3769
 7515SOL    HW123444   6.906   5.337   2.110 -1.2634  0.6126 -1.1895
 7515SOL    HW223445   7.055   5.369   2.051 -0.8264 -1.3796 -1.2282
 7516SOL     OW23446   3.805   5.287   3.657 -0.3496  0.2266  0.2680
 7516SOL    HW123447   3.879   5.348   3.626 -1.8081  2.6162  1.2274
 7516SOL    HW223448   3.722   5.305   3.604 -1.0508 -0.3556  1.1377
 7517SOL     OW23449   5.646   2.178   2.406  0.0406  0.7634 -0.4994
 7517SOL    HW123450   5.630   2.102   2.469 -0.7084 -0.3843 -1.9955
 7517SOL    HW223451   5.573   2.246   2.416 -1.1821 -0.3716 -1.4625
 7518SOL     OW23452   4.440   2.489   0.626 -0.6639  0.2461 -0.0169
 7518SOL    HW123453   4.538   2.509   0.622 -0.2890 -1.2827  0.9508
 7518SOL    HW223454   4.413   2.471   0.720 -1.5456 -0.8967 -0.4648
 7519SOL     OW23455   3.761   6.423   5.393 -0.2594 -0.3596  0.5657
 7519SOL    HW123456   3.803   6.399   5.481  1.6589  0.4279 -0.0867
 7519SOL    HW223457   3.776   6.349   5.328 -0.1837 -0.2188  0.4227
 7520SOL     OW23458   2.765   2.322   2.366  0.2149 -0.5148  0.4089
 7520SOL    HW123459   2.844   2.282   2.319  1.3607 -1.1789  2.7587
 7520SOL    HW223460   2.695   2.252   2.381  0.7403 -0.8316  1.4694
 7521SOL     OW23461   3.499   1.756   5.710 -0.0036 -0.1594  0.0581
 7521SOL    HW123462   3.468   1.849   5.728  0.2072 -0.2330  0.8603
 7521SOL    HW223463   3.428   1.691   5.736 -0.5020 -0.2084 -1.3231
 7522SOL     OW23464   6.101   6.396   4.160 -0.6075  0.3389  0.1973
 7522SOL    HW123465   6.107   6.356   4.069 -1.9338  0.1874  0.1591
 7522SOL    HW223466   6.189   6.437   4.184 -0.5002  1.2321 -1.5497
 7523SOL     OW23467   4.818   1.652   0.502 -0.6898 -0.1052 -0.4825
 7523SOL    HW123468   4.917   1.642   0.515 -0.3742  0.0697 -2.4013
 7523SOL    HW223469   4.800   1.737   0.452 -1.6957 -0.7429 -1.2369
 7524SOL     OW23470   1.067   5.484   5.434  0.1638 -0.1016 -0.6551
 7524SOL    HW123471   0.982   5.532   5.416 -0.9023 -1.6290  0.0411
 7524SOL    HW223472   1.123   5.481   5.351 -1.0644 -0.2271 -1.4966
 7525SOL     OW23473   2.995   6.357   6.560  0.1968  0.3294  0.7394
 7525SOL    HW123474   3.091   6.346   6.584  0.5232 -1.7458 -1.1191
 7525SOL    HW223475   2.969   6.287   6.493 -2.7430  0.5410  1.5008
 7526SOL     OW23476   1.597   3.687   1.909  0.0866  0.2438 -1.0537
 7526SOL    HW123477   1.526   3.715   1.844  0.3851  0.4487 -1.2918
 7526SOL    HW223478   1.653   3.615   1.868  0.9125  1.0785 -1.4249
 7527SOL     OW23479   4.023   5.676   4.104  0.0029 -0.7181  0.2723
 7527SOL    HW123480   4.030   5.579   4.082 -0.4935 -0.4207 -1.4202
 7527SOL    HW223481   3.933   5.695   4.143  0.1542 -0.9617  0.7403
 7528SOL     OW23482   6.419   2.870   6.184  0.2236 -0.1388  0.6508
 7528SOL    HW123483   6.320   2.863   6.196  0.3208  0.5246  2.0141
 7528SOL    HW223484   6.439   2.938   6.113 -0.3031 -0.9834 -0.3316
 7529SOL     OW23485   5.617   2.972   4.947 -0.7559 -0.0555 -0.0263
 7529SOL    HW123486   5.631   3.071   4.939  0.6334 -0.1599  0.8610
 7529SOL    HW223487   5.530   2.955   4.992 -0.2297  0.8202  1.3815
 7530SOL     OW23488   2.061   1.635   5.331 -0.2775  0.2271 -0.2346
 7530SOL    HW123489   2.053   1.706   5.261 -2.5680  0.6221  0.3336
 7530SOL    HW223490   1.971   1.597   5.350  0.5596 -1.1617  1.2109
 7531SOL     OW23491   5.045   1.100   3.706 -0.4911  0.4220  0.4260
 7531SOL    HW123492   4.981   1.087   3.782  0.5657 -1.8483  1.0180
 7531SOL    HW223493   4.996   1.139   3.628 -2.4162 -0.4364  1.1278
 7532SOL     OW23494   2.452   3.729   5.960 -0.1625 -0.2777  0.3321
 7532SOL    HW123495   2.358   3.762   5.964  0.1738  0.6669  0.5315
 7532SOL    HW223496   2.458   3.641   6.007 -1.3662 -1.3886 -1.4622
 7533SOL     OW23497   3.556   3.652   1.300 -0.5671 -0.0891  0.5591
 7533SOL    HW123498   3.529   3.721   1.368  0.6841  1.1054 -0.0927
 7533SOL    HW223499   3.653   3.662   1.280 -1.1070  0.3289 -2.1996
 7534SOL     OW23500   4.104   6.873   5.606 -0.1601 -0.6204  0.4020
 7534SOL    HW123501   4.032   6.921   5.656  0.8006  0.0193  1.2211
 7534SOL    HW223502   4.127   6.788   5.654 -0.4159 -0.8515  0.1113
 7535SOL     OW23503   0.406   3.913   4.187 -0.5061 -0.7153  0.3612
 7535SOL    HW123504   0.481   3.967   4.227 -0.1834 -0.8977  0.0140
 7535SOL    HW223505   0.376   3.844   4.253 -1.2939  0.2289  1.0213
 7536SOL     OW23506   5.698   5.998   3.210 -0.1362  0.2739 -0.4765
 7536SOL    HW123507   5.665   5.961   3.296  1.5611 -1.0524 -0.3356
 7536SOL    HW223508   5.788   5.960   3.190 -0.2671  0.9403 -2.5917
 7537SOL     OW23509   1.538   6.081   3.697 -0.5056  0.8021  0.2659
 7537SOL    HW123510   1.522   6.016   3.771 -1.0164  0.7353  0.0992
 7537SOL    HW223511   1.510   6.173   3.726  0.6732  1.0537  0.6793
 7538SOL     OW23512   1.687   4.974   6.878  0.2243 -0.0108  0.5265
 7538SOL    HW123513   1.782   5.002   6.888  0.2428 -0.0824  0.5521
 7538SOL    HW223514   1.629   5.031   6.936  0.3112 -0.3123  0.9124
 7539SOL     OW23515   5.474   0.907   4.965 -0.1379  0.0101  0.2789
 7539SOL    HW123516   5.471   0.870   5.058  0.5062 -0.1736  0.2264
 7539SOL    HW223517   5.506   1.002   4.967  1.7092 -0.5801  0.0804
 7540SOL     OW23518   4.488   2.473   2.160 -0.1270  0.1719  0.3699
 7540SOL    HW123519   4.432   2.491   2.080  2.3425 -0.2926 -1.6026
 7540SOL    HW223520   4.500   2.375   2.172  1.5239  0.2520 -0.2754
 7541SOL     OW23521   1.286   3.274   6.197 -0.3884  0.1331  0.3120
 7541SOL    HW123522   1.281   3.175   6.189  0.2263  0.1164  0.0376
 7541SOL    HW223523   1.360   3.308   6.139 -0.5529  0.7444  0.4555
 7542SOL     OW23524   0.015   6.136   4.418  0.2016 -0.1132 -0.3700
 7542SOL    HW123525  -0.052   6.076   4.463 -0.0319  0.5262  0.1586
 7542SOL    HW223526   0.076   6.175   4.488  0.7198 -0.1862 -0.7759
 7543SOL     OW23527   2.053   2.070   0.113 -0.3760  0.2116 -0.5748
 7543SOL    HW123528   2.025   2.152   0.162 -0.2679  0.5791 -1.1162
 7543SOL    HW223529   2.070   1.996   0.178 -1.5937  0.2716 -0.1547
 7544SOL     OW23530   6.622   1.028   0.147 -0.3765 -0.1399  0.1226
 7544SOL    HW123531   6.710   0.981   0.140  0.5733  1.3751  1.1348
 7544SOL    HW223532   6.632   1.122   0.113 -1.4339  0.2382  0.7973
 7545SOL     OW23533   6.801   5.917   6.303  0.5086 -0.3117  0.0250
 7545SOL    HW123534   6.707   5.888   6.283  1.3240 -2.3872 -1.1041
 7545SOL    HW223535   6.812   5.928   6.402 -1.1143  0.8351  0.1335
 7546SOL     OW23536   2.143   4.794   4.940 -0.2268  0.2069 -0.1476
 7546SOL    HW123537   2.186   4.706   4.920 -1.7602 -0.4496 -0.6435
 7546SOL    HW223538   2.187   4.865   4.883  3.3391  0.5097  2.6023
 7547SOL     OW23539   5.114   6.192   2.610  0.8643 -0.3239 -0.0015
 7547SOL    HW123540   5.188   6.132   2.579  1.5467 -0.0363  1.0300
 7547SOL    HW223541   5.030   6.171   2.559  1.6770 -0.5652 -1.2882
 7548SOL     OW23542   2.096   2.083   6.162  0.1189 -0.1361 -0.2200
 7548SOL    HW123543   2.113   1.995   6.206  0.8092 -0.3703 -0.9318
 7548SOL    HW223544   2.180   2.137   6.161  0.5854 -0.7826 -2.6300
 7549SOL     OW23545   4.449   1.402   3.818 -0.3674  0.1619  0.1720
 7549SOL    HW123546   4.411   1.461   3.747  1.9597  1.4367 -0.1094
 7549SOL    HW223547   4.488   1.457   3.892  4.3162 -0.6195 -1.3427
 7550SOL     OW23548   2.984   5.945   5.454 -0.0015 -0.2889  0.2403
 7550SOL    HW123549   2.921   5.992   5.516  0.6787  0.3334  0.4705
 7550SOL    HW223550   3.008   5.856   5.493 -0.1727 -0.2198  0.5097
 7551SOL     OW23551   6.295   2.137   0.480  0.1429 -0.3502 -0.0020
 7551SOL    HW123552   6.305   2.224   0.529 -1.8511 -0.1343  0.0820
 7551SOL    HW223553   6.318   2.150   0.383 -1.5491  0.6716 -0.3043
 7552SOL     OW23554   1.982   1.019   5.674  0.1773  0.3059  0.3526
 7552SOL    HW123555   2.082   1.019   5.679  0.4398  1.3404 -2.8681
 7552SOL    HW223556   1.951   1.103   5.630 -1.8028 -1.6474 -2.3135
 7553SOL     OW23557   4.310   1.106   6.268  0.2846  0.0904  0.2247
 7553SOL    HW123558   4.407   1.085   6.256 -0.0797 -0.0794 -4.0502
 7553SOL    HW223559   4.299   1.202   6.295  1.6016 -0.1502  1.7151
 7554SOL     OW23560   4.905   6.001   2.477  0.3876 -0.5202 -0.0452
 7554SOL    HW123561   4.884   5.990   2.380 -2.8789  0.3744  0.4569
 7554SOL    HW223562   4.954   5.920   2.510  1.1842 -1.0195 -2.2840
 7555SOL     OW23563   5.273   5.622   3.863 -0.1784 -0.6142 -0.2605
 7555SOL    HW123564   5.283   5.645   3.960  0.4148 -0.5063 -0.3461
 7555SOL    HW223565   5.180   5.645   3.833  0.1089  0.8193 -0.1124
 7556SOL     OW23566   0.237   0.345   0.709  0.3863 -0.0288  0.1875
 7556SOL    HW123567   0.201   0.435   0.684 -1.6904 -1.2551 -1.5156
 7556SOL    HW223568   0.304   0.316   0.640 -0.2310 -0.5084 -0.2147
 7557SOL     OW23569   3.711   0.981   6.010  0.2986 -0.0402 -0.1691
 7557SOL    HW123570   3.682   1.076   6.001 -0.5227 -0.4454 -2.6090
 7557SOL    HW223571   3.681   0.945   6.099 -2.1016  1.1256 -0.4150
 7558SOL     OW23572   1.597   3.084   3.166  0.1842  0.9502  0.0678
 7558SOL    HW123573   1.552   3.097   3.078 -1.9490  1.8477  1.2081
 7558SOL    HW223574   1.636   3.171   3.197 -0.4494  1.0228  0.6941
 7559SOL     OW23575   1.140   6.853   4.790 -0.6355  0.6167 -0.8351
 7559SOL    HW123576   1.149   6.925   4.859 -0.3016  0.5219 -0.7824
 7559SOL    HW223577   1.135   6.895   4.699  0.3474  0.6684 -0.8689
 7560SOL     OW23578   6.517   2.549   6.059  0.1504 -0.1369  0.1063
 7560SOL    HW123579   6.588   2.565   6.128  0.2706 -0.2060 -0.0025
 7560SOL    HW223580   6.552   2.488   5.988 -0.2538 -0.7650  0.4357
 7561SOL     OW23581   3.780   0.671   6.539 -0.1110  0.2950 -0.2532
 7561SOL    HW123582   3.791   0.574   6.561 -1.1947  0.4518  1.1038
 7561SOL    HW223583   3.751   0.680   6.444 -2.2206 -0.8782  0.2213
 7562SOL     OW23584   0.583   4.501   3.759  0.6221  0.4786 -0.0959
 7562SOL    HW123585   0.576   4.479   3.856  0.2584 -0.5778 -0.3478
 7562SOL    HW223586   0.670   4.547   3.741  0.3300  1.4474  0.8566
 7563SOL     OW23587   1.215   5.804   4.491  0.0969  0.0091  0.4433
 7563SOL    HW123588   1.144   5.738   4.463 -0.5958  0.5266  0.9403
 7563SOL    HW223589   1.282   5.758   4.549  1.1330 -0.9008 -1.3651
 7564SOL     OW23590   4.746   3.413   5.367 -0.2262 -0.1369  0.1276
 7564SOL    HW123591   4.834   3.444   5.403  0.2419 -1.1904 -0.0522
 7564SOL    HW223592   4.718   3.470   5.290  0.6716 -0.2417 -0.2839
 7565SOL     OW23593   6.340   3.776   5.940 -0.0223 -0.1223  0.0128
 7565SOL    HW123594   6.279   3.705   5.904  0.4934 -0.3651 -0.3979
 7565SOL    HW223595   6.287   3.860   5.956 -0.4656 -0.3273 -0.3408
 7566SOL     OW23596   6.259   5.458   2.151  0.2138 -0.0442 -0.0363
 7566SOL    HW123597   6.183   5.511   2.113  0.5779  1.2070  0.9077
 7566SOL    HW223598   6.248   5.452   2.251  1.6333  0.6257  0.1780
 7567SOL     OW23599   1.979   1.887   5.537  0.3323 -0.2501 -0.2366
 7567SOL    HW123600   1.943   1.855   5.625  1.2701 -0.0390  0.2391
 7567SOL    HW223601   1.952   1.824   5.464 -0.0515 -0.6850  0.2809
 7568SOL     OW23602   6.613   3.978   2.117  0.3990  0.8765  0.0923
 7568SOL    HW123603   6.696   3.941   2.076 -0.2331  1.0697 -1.4234
 7568SOL    HW223604   6.633   4.013   2.208  2.3421  2.3919 -0.8532
 7569SOL     OW23605   3.959   3.521   1.552 -0.0203  0.5388 -0.6000
 7569SOL    HW123606   3.986   3.576   1.631  1.5459  0.6885 -1.2161
 7569SOL    HW223607   3.945   3.581   1.473 -0.1241  0.2356 -0.8127
 7570SOL     OW23608   0.814   3.174   0.552 -0.4983  0.3585 -0.4321
 7570SOL    HW123609   0.715   3.170   0.536 -0.2967 -0.2514 -1.6406
 7570SOL    HW223610   0.851   3.081   0.556 -0.1642  0.5358  1.4653
 7571SOL     OW23611   4.615   2.219   2.243  0.1457  0.2768 -0.0193
 7571SOL    HW123612   4.542   2.184   2.301  1.3928  0.9697  2.0524
 7571SOL    HW223613   4.689   2.254   2.300  0.5421  2.9608 -1.9962
 7572SOL     OW23614   4.891   0.063   2.768 -0.5102 -0.1627 -0.2699
 7572SOL    HW123615   4.804   0.111   2.761 -0.5822 -0.2436  0.0406
 7572SOL    HW223616   4.965   0.130   2.784 -0.7087 -0.1949  0.9378
 7573SOL     OW23617   1.354   0.007   5.259 -0.4501  0.3369  0.3509
 7573SOL    HW123618   1.431  -0.011   5.320 -1.3558  2.8199  2.4079
 7573SOL    HW223619   1.283   0.058   5.309 -2.6373 -0.2169 -1.9695
 7574SOL     OW23620   6.842   1.173   1.457 -0.0575  0.3465 -0.2000
 7574SOL    HW123621   6.931   1.151   1.417 -1.4436 -3.6583 -1.5692
 7574SOL    HW223622   6.847   1.164   1.556  1.1289  0.4828 -0.2388
 7575SOL     OW23623   4.326   6.151   0.779 -0.7466 -0.0449 -0.2939
 7575SOL    HW123624   4.354   6.236   0.824 -0.7001 -0.3204  0.2036
 7575SOL    HW223625   4.235   6.124   0.811 -0.1856 -0.9279  0.6372
 7576SOL     OW23626   4.755   3.647   6.207  0.4919 -0.0694 -0.2034
 7576SOL    HW123627   4.754   3.655   6.107  3.4453 -1.3306 -0.4461
 7576SOL    HW223628   4.675   3.693   6.245  0.6708  2.8755 -2.9618
 7577SOL     OW23629   6.662   6.760   5.584  0.8194 -0.3974 -0.0946
 7577SOL    HW123630   6.596   6.685   5.590 -2.2504  2.1571  0.8235
 7577SOL    HW223631   6.690   6.788   5.675 -1.2195  1.9911 -0.0895
 7578SOL     OW23632   6.803   5.797   1.847 -0.1369  0.1429 -0.3022
 7578SOL    HW123633   6.811   5.775   1.749  0.4033  0.7643 -0.4092
 7578SOL    HW223634   6.876   5.860   1.872  0.2910 -0.7420  0.7226
 7579SOL     OW23635   1.213   1.629   6.342  0.1872  0.4498 -0.0450
 7579SOL    HW123636   1.244   1.541   6.376 -0.5541 -0.2260 -1.0642
 7579SOL    HW223637   1.244   1.702   6.404  1.9605 -0.3782  0.0956
 7580SOL     OW23638   0.735   5.001   0.136 -0.1932 -0.4421 -0.5054
 7580SOL    HW123639   0.709   5.070   0.203  0.7712  0.4655 -1.0411
 7580SOL    HW223640   0.774   5.045   0.055  0.6196 -1.6076 -0.7854
 7581SOL     OW23641   6.349   6.920   1.203  0.2794  0.3231 -0.0181
 7581SOL    HW123642   6.434   6.972   1.196  1.1152 -0.3332  3.5284
 7581SOL    HW223643   6.280   6.976   1.250 -0.1769 -0.2804  0.0458
 7582SOL     OW23644   6.648   1.231   6.453  0.0205  0.0907 -0.6922
 7582SOL    HW123645   6.741   1.208   6.480 -0.2596 -1.8745 -1.2596
 7582SOL    HW223646   6.624   1.182   6.369 -1.0253  1.7547 -1.4334
 7583SOL     OW23647   6.632   2.116   2.567  0.1994  0.1816  0.1801
 7583SOL    HW123648   6.578   2.123   2.483  1.1385 -2.0449 -0.6670
 7583SOL    HW223649   6.573   2.085   2.642  0.3012 -3.0159 -0.9090
 7584SOL     OW23650   5.218   1.578   6.019  0.7868 -0.3188 -0.4402
 7584SOL    HW123651   5.182   1.525   6.096  0.5569  0.8952  0.3062
 7584SOL    HW223652   5.181   1.542   5.933  0.4389 -1.1931  0.0693
 7585SOL     OW23653   0.730   0.351   6.373 -0.3545 -0.2439  0.7080
 7585SOL    HW123654   0.780   0.425   6.327 -0.1640 -1.0994 -0.5177
 7585SOL    HW223655   0.634   0.378   6.383 -0.4062 -0.0209 -0.2180
 7586SOL     OW23656   1.630   5.261   2.227 -0.0678  0.4776 -0.5867
 7586SOL    HW123657   1.553   5.299   2.176 -1.1244  1.2434  1.4924
 7586SOL    HW223658   1.716   5.289   2.184 -0.9025  1.3349 -1.7485
 7587SOL     OW23659   5.894   1.284   4.633 -0.2705 -0.6878 -0.6995
 7587SOL    HW123660   5.940   1.230   4.703  1.2891  1.0611 -0.2721
 7587SOL    HW223661   5.948   1.367   4.615 -3.4395  1.7695  0.1470
 7588SOL     OW23662   1.306   4.854   2.819 -0.3972  0.6533 -0.2295
 7588SOL    HW123663   1.253   4.938   2.826 -0.3646  0.7529 -1.1623
 7588SOL    HW223664   1.246   4.775   2.834 -0.9670  0.7318 -1.9360
 7589SOL     OW23665   2.225   6.156   4.084 -0.3679 -0.0979  0.2690
 7589SOL    HW123666   2.195   6.125   4.174 -2.0289 -0.8727 -0.5083
 7589SOL    HW223667   2.151   6.207   4.040 -0.5043 -1.7854 -1.6021
 7590SOL     OW23668   3.949   1.497   1.113  0.2819  0.0837  0.2028
 7590SOL    HW123669   3.972   1.567   1.181 -0.3572  1.3376 -0.8247
 7590SOL    HW223670   4.033   1.467   1.067  0.5244  0.4742  0.3817
 7591SOL     OW23671   3.257   4.115   4.307 -0.6646 -0.2678  0.4286
 7591SOL    HW123672   3.321   4.038   4.305  0.6158  0.7624 -0.0149
 7591SOL    HW223673   3.279   4.178   4.233 -1.8308  0.4220  0.6445
 7592SOL     OW23674   1.136   5.707   1.292 -0.3863 -0.1414  0.5986
 7592SOL    HW123675   1.137   5.617   1.336 -0.2848 -0.4350  0.0134
 7592SOL    HW223676   1.042   5.732   1.271 -0.3909 -0.2691  0.4594
 7593SOL     OW23677   0.292   1.477   6.480 -0.0068 -0.0144 -0.1725
 7593SOL    HW123678   0.203   1.472   6.525  0.0644 -2.5681 -0.1393
 7593SOL    HW223679   0.364   1.481   6.550  0.0001 -1.2520 -0.0896
 7594SOL     OW23680   6.186   3.651   6.619 -0.0146 -0.0853  0.3826
 7594SOL    HW123681   6.226   3.725   6.564 -2.1210  0.7035 -0.1725
 7594SOL    HW223682   6.112   3.608   6.568  0.2615 -1.6691  1.2747
 7595SOL     OW23683   4.853   3.222   0.030 -0.2334  0.0558 -0.3248
 7595SOL    HW123684   4.938   3.243   0.078 -1.3653  1.0306  1.3517
 7595SOL    HW223685   4.866   3.232  -0.068  1.3439  1.0592 -0.0304
 7596SOL     OW23686   3.651   1.797   1.233  0.0719 -0.0738  0.0973
 7596SOL    HW123687   3.556   1.823   1.215 -0.0271  0.9527  1.8648
 7596SOL    HW223688   3.705   1.809   1.150 -0.6654  2.6891 -0.0603
 7597SOL     OW23689   2.149   5.920   0.198  0.1484  0.3602 -0.0798
 7597SOL    HW123690   2.175   5.915   0.294 -0.8980 -1.5131  0.1512
 7597SOL    HW223691   2.226   5.894   0.141 -0.0817 -1.6199  0.4368
 7598SOL     OW23692   4.409   0.329   2.299  0.9149  0.7551  0.3131
 7598SOL    HW123693   4.346   0.347   2.223  1.2647 -1.2074 -0.4761
 7598SOL    HW223694   4.477   0.262   2.272 -0.9071 -2.6688  3.2360
 7599SOL     OW23695   1.994   3.118   5.827 -0.6902  0.3332  0.1919
 7599SOL    HW123696   1.964   3.025   5.847  1.5964 -0.0439  2.1959
 7599SOL    HW223697   1.940   3.183   5.881 -0.1783 -0.0759  1.2009
 7600SOL     OW23698   5.848   0.459   2.931  0.5158  0.7942 -0.0744
 7600SOL    HW123699   5.763   0.446   2.982 -0.6334  1.6602 -1.7005
 7600SOL    HW223700   5.921   0.487   2.995 -0.2699 -0.3731  1.4004
 7601SOL     OW23701   1.030   0.908   6.685 -0.1531 -1.0309 -0.1695
 7601SOL    HW123702   0.979   0.956   6.613  0.6897 -0.7952 -0.6265
 7601SOL    HW223703   0.968   0.885   6.759 -0.7713 -0.0400 -0.3486
 7602SOL     OW23704   0.419   0.294   1.655 -0.1371  0.6063 -0.6310
 7602SOL    HW123705   0.407   0.249   1.567  1.8043  1.7360 -1.5441
 7602SOL    HW223706   0.517   0.309   1.672 -0.3517 -0.5573  2.2466
 7603SOL     OW23707   3.495   0.172   5.877 -0.6234 -0.3251 -0.3827
 7603SOL    HW123708   3.529   0.102   5.815 -3.9784  0.1926 -3.1207
 7603SOL    HW223709   3.396   0.161   5.889 -0.8455  2.4196  1.0950
 7604SOL     OW23710   0.596   1.799   6.298  0.1029  0.2468  0.1422
 7604SOL    HW123711   0.513   1.754   6.264  1.0663 -0.4495 -1.4175
 7604SOL    HW223712   0.576   1.843   6.385 -1.3882 -1.6162  0.8332
 7605SOL     OW23713   3.929   6.822   3.965 -0.0680  0.1061 -0.2574
 7605SOL    HW123714   3.904   6.739   4.015  1.3988 -0.5702 -0.6088
 7605SOL    HW223715   3.879   6.824   3.878  1.0211 -1.2184 -0.9483
 7606SOL     OW23716   5.122   1.072   3.070  0.3152 -0.3863 -0.3458
 7606SOL    HW123717   5.029   1.108   3.075  0.4016  0.2355 -2.3587
 7606SOL    HW223718   5.180   1.121   3.135 -0.3713  0.5157 -0.3853
 7607SOL     OW23719   1.650   5.159   6.539 -0.2554 -0.1931 -0.1050
 7607SOL    HW123720   1.587   5.214   6.593 -0.6340  0.8371 -1.5335
 7607SOL    HW223721   1.744   5.175   6.569 -0.5656 -0.9286  1.3305
 7608SOL     OW23722   6.979   1.197   5.285 -0.1502  0.1652 -0.4591
 7608SOL    HW123723   7.056   1.233   5.232 -0.6773 -0.1097 -1.4496
 7608SOL    HW223724   6.898   1.252   5.267 -0.0120  0.9914  1.2572
 7609SOL     OW23725   2.597   1.817   4.875 -0.4186  0.2799 -0.2112
 7609SOL    HW123726   2.535   1.816   4.796 -1.0108  1.5390  0.2171
 7609SOL    HW223727   2.653   1.899   4.873 -0.3350  0.2514  0.6094
 7610SOL     OW23728   1.703   0.143   6.758  0.2737  0.0448 -0.4383
 7610SOL    HW123729   1.634   0.142   6.686  1.1520  1.4810 -1.3603
 7610SOL    HW223730   1.660   0.158   6.847 -0.5560  1.7758 -1.0900
 7611SOL     OW23731   4.637   3.260   0.237  0.5783  0.1780 -0.8208
 7611SOL    HW123732   4.696   3.290   0.162  2.0247  2.1492  0.9984
 7611SOL    HW223733   4.692   3.222   0.311 -0.3671  1.9124  0.8620
 7612SOL     OW23734   5.632   2.907   1.915 -0.2605 -0.1981 -0.0379
 7612SOL    HW123735   5.628   2.835   1.984 -0.7746 -0.2548 -0.1205
 7612SOL    HW223736   5.725   2.913   1.878  0.0677 -0.0424  0.7861
 7613SOL     OW23737   6.936   2.639   6.448 -0.0294 -0.0719 -0.4953
 7613SOL    HW123738   6.862   2.574   6.429  1.3014 -1.6728 -0.4716
 7613SOL    HW223739   6.986   2.657   6.363 -1.1928  2.0365 -0.7881
 7614SOL     OW23740   0.496   6.416   5.757  0.1834 -0.1651  0.1010
 7614SOL    HW123741   0.578   6.455   5.799  0.3198 -0.9142  0.5550
 7614SOL    HW223742   0.467   6.336   5.809 -1.4378  0.6785  0.5218
 7615SOL     OW23743   5.269   4.350   5.716  0.2861  0.4628  0.2244
 7615SOL    HW123744   5.221   4.313   5.637  0.6011 -1.3663  0.8212
 7615SOL    HW223745   5.209   4.347   5.796  0.6089  0.4386  0.4680
 7616SOL     OW23746   0.225   6.020   2.480  0.3765  0.4281  0.1134
 7616SOL    HW123747   0.136   6.007   2.437  0.6380 -1.0582 -0.0422
 7616SOL    HW223748   0.249   5.938   2.532  1.1922  1.2193  1.0325
 7617SOL     OW23749   6.065   3.784   3.716 -0.1252  0.3345  0.3899
 7617SOL    HW123750   6.144   3.828   3.674  0.2048 -0.4701  0.1422
 7617SOL    HW223751   6.013   3.852   3.768  0.6338  0.9089  0.4282
 7618SOL     OW23752   0.574   4.824   6.946 -0.6307 -0.0964 -0.0694
 7618SOL    HW123753   0.657   4.783   6.907 -1.5413 -0.8161 -1.3272
 7618SOL    HW223754   0.599   4.886   7.020  1.0972  0.4482 -1.0540
 7619SOL     OW23755   5.521   5.792   5.894  0.0550  0.4631 -0.5586
 7619SOL    HW123756   5.454   5.834   5.954 -0.5823 -1.2103 -0.0486
 7619SOL    HW223757   5.611   5.794   5.937 -0.3318 -0.4029  0.3130
 7620SOL     OW23758   3.912   3.467   6.640  0.1438 -0.3494 -0.4392
 7620SOL    HW123759   3.941   3.372   6.649 -2.3942 -1.2926 -1.2489
 7620SOL    HW223760   3.816   3.470   6.613  0.0951  2.4774 -0.2699
 7621SOL     OW23761   6.831   4.122   0.201  0.3410 -0.6021  0.7374
 7621SOL    HW123762   6.851   4.099   0.106  0.1829  0.4997  0.4148
 7621SOL    HW223763   6.733   4.135   0.213  0.3102 -1.1995  1.1650
 7622SOL     OW23764   3.384   3.200   0.582 -0.4926  0.4012 -0.3426
 7622SOL    HW123765   3.481   3.218   0.593 -0.3345 -0.9281  0.6231
 7622SOL    HW223766   3.346   3.264   0.516  1.3858 -0.1689 -2.0641
 7623SOL     OW23767   6.561   5.418   2.435 -0.8630  0.2306  0.0611
 7623SOL    HW123768   6.636   5.461   2.384  0.1534 -2.4771 -0.9071
 7623SOL    HW223769   6.591   5.398   2.529 -1.6465  2.3095  0.8093
 7624SOL     OW23770   4.758   4.120   4.066  0.0389 -0.1667  0.4890
 7624SOL    HW123771   4.733   4.120   4.163 -0.6923  1.1626  0.3242
 7624SOL    HW223772   4.678   4.143   4.011  0.7451  0.3838 -0.3270
 7625SOL     OW23773   6.775   0.511   3.425  0.0468 -0.0538 -0.8565
 7625SOL    HW123774   6.784   0.609   3.411 -0.4910  0.0442 -0.5230
 7625SOL    HW223775   6.823   0.462   3.352  0.2259  0.4505 -1.0792
 7626SOL     OW23776   5.251   5.952   2.537 -0.0601  0.0903 -0.1403
 7626SOL    HW123777   5.304   5.945   2.621 -0.6159 -0.7166  0.1630
 7626SOL    HW223778   5.256   5.865   2.487 -1.4241 -0.1735  0.1202
 7627SOL     OW23779   4.640   2.255   4.579 -0.2549 -0.2304  0.3319
 7627SOL    HW123780   4.737   2.253   4.555 -0.3680  0.4392 -0.2256
 7627SOL    HW223781   4.589   2.201   4.513 -0.6030  1.8510 -1.2069
 7628SOL     OW23782   6.047   4.532   6.985  0.4297 -0.2744  0.0782
 7628SOL    HW123783   6.079   4.445   7.023 -2.6407 -1.7514 -0.4423
 7628SOL    HW223784   6.124   4.580   6.942  2.4526 -2.1059  1.4476
 7629SOL     OW23785   4.830   2.199   2.925  0.1629  0.6311 -0.3844
 7629SOL    HW123786   4.776   2.230   2.847 -0.5889 -0.5904 -0.3743
 7629SOL    HW223787   4.915   2.157   2.892 -0.7314 -1.0418 -0.6616
 7630SOL     OW23788   0.973   6.435   4.907 -0.1896 -0.1624 -0.3965
 7630SOL    HW123789   0.934   6.474   4.990  1.2911  3.9432 -1.3720
 7630SOL    HW223790   0.901   6.415   4.842 -1.1060  0.9933  0.2238
 7631SOL     OW23791   0.338   1.141   6.771  0.0027  0.7052 -0.8124
 7631SOL    HW123792   0.325   1.217   6.835  1.4002  0.3311 -0.0348
 7631SOL    HW223793   0.255   1.127   6.718 -1.1943  1.0522  0.9124
 7632SOL     OW23794   4.909   4.738   2.200 -1.0143 -0.5496  0.2013
 7632SOL    HW123795   4.907   4.799   2.279 -0.2081 -1.1522  0.7019
 7632SOL    HW223796   4.920   4.644   2.231  1.1478 -0.6317 -0.6668
 7633SOL     OW23797   6.219   1.312   2.841 -0.0878 -0.2595 -0.0221
 7633SOL    HW123798   6.253   1.375   2.911 -1.5011  1.1019 -0.5171
 7633SOL    HW223799   6.143   1.258   2.878  0.0566 -0.5212 -0.1000
 7634SOL     OW23800   0.256   2.646   0.547 -0.1889  0.5470 -0.0368
 7634SOL    HW123801   0.318   2.571   0.521 -1.1918 -0.0539 -0.7625
 7634SOL    HW223802   0.171   2.607   0.583 -0.1363  1.3631  1.0292
 7635SOL     OW23803   2.054   3.247   0.796 -0.3571  0.0926  0.1313
 7635SOL    HW123804   2.150   3.268   0.776 -0.3200 -1.4760 -1.6848
 7635SOL    HW223805   2.043   3.148   0.804 -1.7936  0.2660  0.6924
 7636SOL     OW23806   5.608   2.802   3.910  0.0073  0.1526  0.3971
 7636SOL    HW123807   5.578   2.733   3.976  1.3064 -1.5802 -0.7259
 7636SOL    HW223808   5.681   2.857   3.951 -2.0626  1.9783  1.8427
 7637SOL     OW23809   3.021   4.375   5.355  0.7920 -0.2293  0.8827
 7637SOL    HW123810   2.965   4.419   5.286  1.4624 -1.2638 -0.3769
 7637SOL    HW223811   3.015   4.275   5.345  3.9293 -0.4385 -0.3381
 7638SOL     OW23812   6.779   5.722   1.082 -0.5662  0.0189  0.0249
 7638SOL    HW123813   6.879   5.725   1.086 -0.4700  0.2898 -1.5901
 7638SOL    HW223814   6.744   5.665   1.156  0.6250  1.7777  2.0883
 7639SOL     OW23815   5.125   4.328   0.404  0.2703  0.1346  0.2300
 7639SOL    HW123816   5.098   4.389   0.330  0.2679  1.5655  1.3543
 7639SOL    HW223817   5.069   4.346   0.485  1.2743 -0.2905  1.0555
 7640SOL     OW23818   0.585   0.839   5.256  0.3878 -0.6986  0.0575
 7640SOL    HW123819   0.509   0.813   5.315  0.1393  0.2328  0.1641
 7640SOL    HW223820   0.657   0.770   5.263 -1.2228 -2.6699 -1.5790
 7641SOL     OW23821   0.023   4.477   0.005  0.0804 -0.1287 -0.7535
 7641SOL    HW123822  -0.050   4.490   0.071  0.6158 -1.5900  0.1637
 7641SOL    HW223823   0.083   4.557   0.004 -0.1975  0.0934  0.1939
 7642SOL     OW23824   5.523   0.718   3.059 -0.2939 -0.0632  0.0454
 7642SOL    HW123825   5.456   0.682   2.994 -0.1956  1.5342 -0.9902
 7642SOL    HW223826   5.526   0.818   3.052  1.7934 -0.0573  0.4648
 7643SOL     OW23827   4.210   1.272   3.889 -0.5111 -0.5803 -0.6975
 7643SOL    HW123828   4.157   1.291   3.806 -0.7474  0.6425 -0.2826
 7643SOL    HW223829   4.295   1.324   3.888 -0.1891 -1.0902 -0.4790
 7644SOL     OW23830   5.637   3.864   6.870 -0.0766  0.5533  0.0962
 7644SOL    HW123831   5.641   3.941   6.805 -0.4570  0.6916  0.2352
 7644SOL    HW223832   5.592   3.894   6.954 -0.7710  0.0098 -0.0792
 7645SOL     OW23833   6.332   5.090   5.517  0.3215 -0.0069  0.3898
 7645SOL    HW123834   6.399   5.142   5.465  1.2830 -0.4789  1.1288
 7645SOL    HW223835   6.357   5.090   5.614  0.9049 -2.5837  0.3326
 7646SOL     OW23836   5.679   2.735   0.712 -0.3816  0.0770  0.1127
 7646SOL    HW123837   5.657   2.830   0.690  2.0158  0.3055 -1.7520
 7646SOL    HW223838   5.697   2.726   0.810  0.2619  1.7553  0.1733
 7647SOL     OW23839   0.668   1.060   3.250 -0.2085  0.0991 -0.1502
 7647SOL    HW123840   0.574   1.035   3.272  0.0723 -2.6965 -1.7401
 7647SOL    HW223841   0.670   1.156   3.222 -2.4665  0.3912  0.4309
 7648SOL     OW23842   1.456   1.330   2.715  0.1051  0.5717 -0.0954
 7648SOL    HW123843   1.444   1.424   2.748  0.4643  0.4186  0.4838
 7648SOL    HW223844   1.389   1.311   2.643  0.9736  1.7424 -1.2405
 7649SOL     OW23845   4.149   5.877   0.911  0.0035  0.4528 -0.2907
 7649SOL    HW123846   4.181   5.858   0.818 -2.4193  1.1371 -1.3615
 7649SOL    HW223847   4.192   5.814   0.975  0.3417 -1.3312 -2.1518
 7650SOL     OW23848   4.063   2.412   6.578  0.1876  0.3031 -0.3765
 7650SOL    HW123849   3.978   2.382   6.622 -0.0665 -2.1032 -2.2920
 7650SOL    HW223850   4.053   2.406   6.479  3.2129 -2.1523 -0.6744
 7651SOL     OW23851   3.647   5.456   5.211 -0.0971  0.0577 -0.1314
 7651SOL    HW123852   3.552   5.426   5.212  0.1664 -0.7799  0.1520
 7651SOL    HW223853   3.685   5.444   5.120 -0.4081  0.9017 -0.3886
 7652SOL     OW23854   0.404   2.283   3.920 -0.2326 -0.0204 -0.2874
 7652SOL    HW123855   0.342   2.239   3.855 -1.2705 -1.9524  1.8751
 7652SOL    HW223856   0.391   2.382   3.917 -2.9039 -0.3126 -0.4448
 7653SOL     OW23857   1.306   0.008   5.994 -0.0953 -0.2979 -0.3408
 7653SOL    HW123858   1.404   0.022   5.977 -0.3023  0.6578 -0.8504
 7653SOL    HW223859   1.292  -0.079   6.041  1.1551  0.2619  1.1797
 7654SOL     OW23860   0.524   3.065   6.495  0.1702 -0.2768 -0.1857
 7654SOL    HW123861   0.536   2.981   6.548  0.6019  0.6038  1.1690
 7654SOL    HW223862   0.426   3.079   6.475  0.0752 -0.9623 -0.2014
 7655SOL     OW23863   0.125   2.058   4.989 -0.0883 -0.3217 -0.1757
 7655SOL    HW123864   0.187   1.996   4.941 -0.9794 -0.5963 -1.0048
 7655SOL    HW223865   0.171   2.145   5.005  1.3672 -1.3170  1.4678
 7656SOL     OW23866   5.644   4.133   6.689 -0.0075 -0.2547  0.4533
 7656SOL    HW123867   5.631   4.197   6.765  0.3622 -0.8762  1.0503
 7656SOL    HW223868   5.735   4.146   6.649  0.3369 -0.8644  1.0225
 7657SOL     OW23869   0.986   3.285   4.262  0.4097  0.1755  0.2097
 7657SOL    HW123870   0.965   3.204   4.207 -0.0506  0.0553  0.5651
 7657SOL    HW223871   0.978   3.366   4.205  0.6387 -0.0068 -0.0872
 7658SOL     OW23872   3.522   5.756   1.939 -0.3225 -0.1405  0.1307
 7658SOL    HW123873   3.606   5.756   1.884 -0.3840  0.2900  0.0302
 7658SOL    HW223874   3.494   5.662   1.957 -0.5863 -0.3062 -1.0277
 7659SOL     OW23875   6.476   5.402   5.893 -0.1129 -0.1559  0.2068
 7659SOL    HW123876   6.527   5.456   5.959 -0.8978 -0.3609  1.0015
 7659SOL    HW223877   6.440   5.319   5.937  0.8879 -1.2378 -0.9340
 7660SOL     OW23878   0.892   4.736   5.369  0.3937  0.1207 -0.7623
 7660SOL    HW123879   0.884   4.784   5.282 -4.0679  1.5750  0.2010
 7660SOL    HW223880   0.863   4.641   5.358 -0.6177  0.4257 -0.8400
 7661SOL     OW23881   3.470   1.272   5.690  0.1207  0.3292 -0.2778
 7661SOL    HW123882   3.406   1.197   5.703 -0.6323  1.2151  1.4455
 7661SOL    HW223883   3.420   1.359   5.692  1.3191  1.0260  0.9010
 7662SOL     OW23884   6.549   4.852   1.487 -0.3195  0.2344  0.0033
 7662SOL    HW123885   6.617   4.821   1.420  0.0182 -0.5666  0.6926
 7662SOL    HW223886   6.595   4.907   1.557  0.1840 -2.3834  1.8959
 7663SOL     OW23887   1.586   6.635   2.625  0.2935 -0.2950  0.1285
 7663SOL    HW123888   1.676   6.596   2.604  1.0084  0.5505  1.4497
 7663SOL    HW223889   1.548   6.588   2.705  0.6754  0.9224  1.0590
 7664SOL     OW23890   0.575   2.621   2.692  0.5770 -0.1401 -0.2396
 7664SOL    HW123891   0.498   2.666   2.737  1.2628  1.8004 -0.8762
 7664SOL    HW223892   0.659   2.642   2.742  0.6813 -2.7853  0.8339
 7665SOL     OW23893   3.994   0.111   5.137  0.5169 -0.0071  0.0378
 7665SOL    HW123894   3.914   0.094   5.080  0.1613  0.0104  0.5278
 7665SOL    HW223895   3.971   0.178   5.207  0.8636 -0.2587  0.3954
 7666SOL     OW23896   1.985   4.226   3.748  0.0448 -0.0811  0.7274
 7666SOL    HW123897   2.060   4.165   3.725 -0.8315 -0.7602 -0.4388
 7666SOL    HW223898   2.019   4.302   3.804  1.7280  0.0558 -0.4355
 7667SOL     OW23899   6.119   5.489   1.698  0.9159 -0.1620  0.0464
 7667SOL    HW123900   6.208   5.526   1.726  0.5893  0.4206  0.3481
 7667SOL    HW223901   6.079   5.439   1.775  1.0731 -0.6039 -0.1571
 7668SOL     OW23902   2.662   6.348   6.260 -0.4187  0.3023 -0.0356
 7668SOL    HW123903   2.710   6.415   6.317 -1.2899  0.9031  0.0193
 7668SOL    HW223904   2.572   6.329   6.300  0.5344 -2.3758  1.0022
 7669SOL     OW23905   3.991   3.034   1.962 -0.3570 -0.4979 -0.0747
 7669SOL    HW123906   4.077   3.054   1.915 -0.2395 -1.3455 -0.2439
 7669SOL    HW223907   3.991   3.078   2.052 -0.2044  0.3916 -0.5017
 7670SOL     OW23908   1.282   0.073   1.144 -0.3370 -0.2484  0.3515
 7670SOL    HW123909   1.381   0.090   1.139 -0.1841 -1.3016 -0.4951
 7670SOL    HW223910   1.246   0.062   1.052 -0.8931 -1.7533  0.7167
 7671SOL     OW23911   2.846   1.394   2.586 -0.1803  0.7528 -0.1719
 7671SOL    HW123912   2.856   1.424   2.680 -1.3630 -0.7375  0.4777
 7671SOL    HW223913   2.786   1.314   2.583  1.3861 -0.4324 -1.9844
 7672SOL     OW23914   5.299   1.258   3.244 -0.0657 -0.5828  0.4491
 7672SOL    HW123915   5.288   1.269   3.343  0.3649 -0.5858  0.5007
 7672SOL    HW223916   5.297   1.347   3.200 -2.2761 -0.6972  0.2254
 7673SOL     OW23917   1.870   6.429   4.936 -0.4380 -0.2151 -0.1606
 7673SOL    HW123918   1.866   6.506   5.000 -0.5779 -0.7485  0.4897
 7673SOL    HW223919   1.826   6.349   4.978  0.7312 -0.9799 -0.3528
 7674SOL     OW23920   4.980   4.239   3.162  0.0368 -0.3511 -0.4948
 7674SOL    HW123921   5.000   4.321   3.109 -0.8934  0.3790  0.2268
 7674SOL    HW223922   5.014   4.251   3.256  0.8068 -1.2243 -0.6454
 7675SOL     OW23923   4.730   6.086   3.382  0.0169  0.0436  0.3029
 7675SOL    HW123924   4.705   6.050   3.472 -0.3076  1.2034  0.7002
 7675SOL    HW223925   4.649   6.087   3.323  0.1998 -0.5930  0.0372
 7676SOL     OW23926   3.466   3.170   3.030  0.2710 -0.1121 -0.3689
 7676SOL    HW123927   3.414   3.206   3.108  0.8143  0.4009 -0.2379
 7676SOL    HW223928   3.408   3.108   2.977 -0.3388  0.1215  0.0178
 7677SOL     OW23929   6.618   6.946   0.153 -0.3938  0.1171 -0.3716
 7677SOL    HW123930   6.652   6.888   0.079  1.1600  0.0240  0.3830
 7677SOL    HW223931   6.598   6.889   0.233 -0.4390  0.4265 -0.1600
 7678SOL     OW23932   3.472   0.819   4.488 -0.5254 -0.1361 -0.0060
 7678SOL    HW123933   3.521   0.888   4.540  0.1585  0.2154 -1.0878
 7678SOL    HW223934   3.535   0.771   4.427 -1.6063  0.7777 -1.9338
 7679SOL     OW23935   4.623   6.562   4.923 -0.4246 -0.5721  0.0597
 7679SOL    HW123936   4.578   6.651   4.930  2.0654  0.7438  0.4793
 7679SOL    HW223937   4.611   6.513   5.009 -0.6641 -0.0500  0.3331
 7680SOL     OW23938   1.415   5.515   4.992 -0.2445 -0.1526 -0.6747
 7680SOL    HW123939   1.332   5.499   5.044  0.4877  0.9790  0.9220
 7680SOL    HW223940   1.475   5.435   4.998  1.1913  1.0132  2.9682
 7681SOL     OW23941   1.058   1.977   5.949 -0.2245 -0.2480 -0.3365
 7681SOL    HW123942   1.106   1.903   5.997  1.0523  0.3244 -0.6794
 7681SOL    HW223943   0.962   1.977   5.976 -0.3379 -2.2476 -0.5945
 7682SOL     OW23944   2.522   0.119   1.693  0.5367  0.8113  0.1541
 7682SOL    HW123945   2.592   0.051   1.716 -1.9181 -2.2401 -0.7669
 7682SOL    HW223946   2.487   0.161   1.777  1.0133 -0.2250  0.8924
 7683SOL     OW23947   1.371   5.671   5.290  0.7370 -0.1717  0.2024
 7683SOL    HW123948   1.326   5.597   5.240  1.3570 -0.7261  0.4434
 7683SOL    HW223949   1.381   5.751   5.231 -0.5840 -0.0086  0.1554
 7684SOL     OW23950   4.355   3.910   0.635 -0.0895 -0.1251  0.7443
 7684SOL    HW123951   4.438   3.910   0.578 -1.2902  1.3088 -1.1659
 7684SOL    HW223952   4.318   3.818   0.640  2.4557 -1.1544  3.0642
 7685SOL     OW23953   0.195   0.168   5.176 -0.3712  0.1173 -0.2199
 7685SOL    HW123954   0.096   0.174   5.167 -0.4040 -0.1542 -0.0533
 7685SOL    HW223955   0.221   0.188   5.271 -0.4212 -1.5058  0.1674
 7686SOL     OW23956   5.334   0.428   5.094  0.4169 -0.2462 -0.0143
 7686SOL    HW123957   5.267   0.484   5.045  0.4753  0.2349  0.4557
 7686SOL    HW223958   5.370   0.358   5.032  1.4806  1.1812 -1.0702
 7687SOL     OW23959   6.043   4.554   5.389 -0.9730 -0.2039  0.0833
 7687SOL    HW123960   6.051   4.640   5.339  0.2600 -0.4042 -0.0954
 7687SOL    HW223961   5.983   4.566   5.468  1.5741  1.7191  1.9201
 7688SOL     OW23962   0.991   3.401   1.446  0.3705  0.5946 -0.8590
 7688SOL    HW123963   0.933   3.366   1.372 -1.5554 -1.5047  1.4289
 7688SOL    HW223964   0.936   3.460   1.506  1.3134  0.6779 -0.0459
 7689SOL     OW23965   4.116   5.094   3.780  0.1781 -0.0355 -0.5153
 7689SOL    HW123966   4.140   5.191   3.786 -0.0303 -0.0615  1.5957
 7689SOL    HW223967   4.099   5.070   3.685  0.8212  1.8477 -1.1589
 7690SOL     OW23968   0.699   4.345   0.627  0.2710 -0.0929 -0.2611
 7690SOL    HW123969   0.636   4.269   0.618 -0.0210  0.3020 -1.8933
 7690SOL    HW223970   0.755   4.333   0.709  0.9013 -2.5651 -0.9604
 7691SOL     OW23971   6.251   3.410   3.709  0.3507  0.2894 -0.5341
 7691SOL    HW123972   6.298   3.409   3.621  1.7834  0.6527  0.1988
 7691SOL    HW223973   6.261   3.320   3.753 -0.1450  0.1886 -0.6194
 7692SOL     OW23974   0.865   4.701   0.402 -0.1458  0.1888 -0.1209
 7692SOL    HW123975   0.886   4.752   0.485  2.9528 -1.7383  0.4551
 7692SOL    HW223976   0.851   4.605   0.424 -2.3034  0.0909 -1.5691
 7693SOL     OW23977   2.715   2.445   0.502  0.5924 -0.1292 -0.0283
 7693SOL    HW123978   2.685   2.435   0.597 -2.0881 -1.3543 -0.9000
 7693SOL    HW223979   2.808   2.409   0.492 -0.0362 -2.4633  1.6753
 7694SOL     OW23980   3.806   1.757   0.049 -0.5489  0.4184  0.2238
 7694SOL    HW123981   3.711   1.752   0.018 -0.5177 -1.8664  0.3276
 7694SOL    HW223982   3.823   1.683   0.114  1.6480  0.0014 -0.7526
 7695SOL     OW23983   3.835   6.609   4.114  0.1662 -0.2669  0.4137
 7695SOL    HW123984   3.846   6.510   4.115 -1.5811 -0.5229  2.5098
 7695SOL    HW223985   3.768   6.636   4.183 -1.7916  2.1365 -2.1822
 7696SOL     OW23986   1.865   2.866   5.840 -0.4244 -0.4929  0.4576
 7696SOL    HW123987   1.842   2.771   5.860 -0.3151 -0.7612 -0.6413
 7696SOL    HW223988   1.816   2.895   5.757  0.4397  0.0373  0.1209
 7697SOL     OW23989   5.852   0.414   2.466 -0.1197  0.3344 -0.2571
 7697SOL    HW123990   5.908   0.430   2.547  0.7807 -2.2504 -0.2974
 7697SOL    HW223991   5.878   0.479   2.395 -0.7009  2.4422  1.3264
 7698SOL     OW23992   5.865   1.330   1.733 -0.0757  0.0798 -0.1175
 7698SOL    HW123993   5.930   1.353   1.805  0.9505 -0.4761 -0.8416
 7698SOL    HW223994   5.889   1.241   1.693 -0.0546  0.7873 -1.7751
 7699SOL     OW23995   2.782   5.271   6.870  0.4808  0.0854  0.0273
 7699SOL    HW123996   2.719   5.195   6.853  1.1873 -0.4501 -0.2502
 7699SOL    HW223997   2.817   5.305   6.783  1.2906 -0.2401  0.2210
 7700SOL     OW23998   6.826   6.117   1.444 -0.3848 -0.3150  0.0978
 7700SOL    HW123999   6.842   6.179   1.368  0.3267  1.4647  1.6267
 7700SOL    HW224000   6.798   6.169   1.525  1.2240 -1.8403  1.7347
 7701SOL     OW24001   3.903   2.682   0.293  0.0755 -0.5662  0.5139
 7701SOL    HW124002   3.817   2.675   0.242  1.0692 -1.2642 -1.1428
 7701SOL    HW224003   3.883   2.688   0.391 -1.8170 -2.1079  0.2883
 7702SOL     OW24004   3.468   0.176   4.676 -0.3295  0.8157  0.0564
 7702SOL    HW124005   3.470   0.192   4.577 -2.3514  1.8170  0.1254
 7702SOL    HW224006   3.420   0.091   4.695  1.6140 -0.3063  0.1382
 7703SOL     OW24007   6.962   0.436   1.873  0.0440 -0.0593 -0.2343
 7703SOL    HW124008   6.920   0.508   1.817  1.9448  0.4452 -1.0839
 7703SOL    HW224009   7.035   0.391   1.821  0.5986 -0.8837  1.1895
 7704SOL     OW24010   3.278   1.251   3.541 -0.0668 -0.1098 -0.0896
 7704SOL    HW124011   3.231   1.172   3.502 -1.5089 -0.4017  2.0775
 7704SOL    HW224012   3.365   1.223   3.580 -1.2032 -1.0279  1.9672
 7705SOL     OW24013   0.453   4.957   4.757 -0.0513  0.1658 -0.4603
 7705SOL    HW124014   0.397   5.009   4.821  0.0350 -0.2161 -0.0708
 7705SOL    HW224015   0.550   4.964   4.783 -0.0837 -0.5900 -0.1070
 7706SOL     OW24016   3.038   3.597   2.554 -0.8602  0.0549  0.0686
 7706SOL    HW124017   3.105   3.641   2.495 -0.2146 -0.4083  0.4455
 7706SOL    HW224018   2.950   3.591   2.506  0.4770 -3.5668 -2.3669
 7707SOL     OW24019   0.237   5.320   5.033  0.1705 -0.5804 -0.2462
 7707SOL    HW124020   0.270   5.404   5.076 -0.2874 -1.5230  2.1285
 7707SOL    HW224021   0.141   5.332   5.005  0.0334 -0.3728  0.3030
 7708SOL     OW24022   0.538   0.626   2.137  0.7701  0.0761 -0.2095
 7708SOL    HW124023   0.478   0.638   2.216  1.1724  1.8100 -0.1128
 7708SOL    HW224024   0.605   0.555   2.156  1.1933  0.8247  1.2508
 7709SOL     OW24025   0.146   5.983   1.685 -0.2043  0.0531  0.0361
 7709SOL    HW124026   0.242   6.001   1.664 -0.2490  0.4980  0.1906
 7709SOL    HW224027   0.137   5.958   1.781 -0.2699  0.2579  0.0846
 7710SOL     OW24028   6.212   3.249   2.470  0.3061 -0.4591 -0.5440
 7710SOL    HW124029   6.297   3.210   2.505  0.1475 -0.7375 -0.4687
 7710SOL    HW224030   6.183   3.199   2.389  0.0075 -0.6096 -0.3448
 7711SOL     OW24031   1.414   5.483   2.718 -0.5446 -0.0262 -0.9133
 7711SOL    HW124032   1.395   5.395   2.675 -1.9608 -0.5641  0.6853
 7711SOL    HW224033   1.357   5.553   2.675 -0.6630 -0.2240 -1.0829
 7712SOL     OW24034   1.383   5.833   6.209 -0.0639  0.7790  0.0967
 7712SOL    HW124035   1.379   5.799   6.303 -0.6221 -1.1442 -0.5766
 7712SOL    HW224036   1.291   5.851   6.176  0.1569  1.8772  0.0391
 7713SOL     OW24037   6.862   6.929   5.937 -0.0564  0.4420  0.1280
 7713SOL    HW124038   6.852   6.917   6.035  0.7148 -1.3696  0.0284
 7713SOL    HW224039   6.956   6.908   5.910 -0.4130  0.2799 -1.0662
 7714SOL     OW24040   0.731   0.654   4.236  0.6653  0.1407 -0.2850
 7714SOL    HW124041   0.743   0.635   4.334  4.6264  1.4250 -0.3354
 7714SOL    HW224042   0.654   0.717   4.224  0.0198 -0.1170  1.9819
 7715SOL     OW24043   4.279   2.814   5.850  0.3219 -0.2597  0.1836
 7715SOL    HW124044   4.200   2.806   5.789 -0.4949 -0.2875  1.2119
 7715SOL    HW224045   4.346   2.876   5.810  0.9404 -2.1325 -1.8992
 7716SOL     OW24046   1.158   1.692   2.117 -0.4061 -0.0095  0.1280
 7716SOL    HW124047   1.174   1.638   2.034  0.0056  0.5393 -0.1531
 7716SOL    HW224048   1.245   1.728   2.150 -0.7017  0.6537  0.1937
 7717SOL     OW24049   6.987   4.021   7.002  0.6295  0.0632 -0.1602
 7717SOL    HW124050   7.052   4.097   7.003  0.9371 -0.1497  2.4072
 7717SOL    HW224051   7.019   3.951   6.937  2.1567  0.6539 -0.0912
 7718SOL     OW24052   1.672   4.216   4.675  0.4095  0.2515  0.5164
 7718SOL    HW124053   1.758   4.227   4.624  0.5467 -0.4141  0.5949
 7718SOL    HW224054   1.689   4.163   4.757 -0.4192 -1.5922 -0.4424
 7719SOL     OW24055   1.672   6.255   2.394 -0.6519  0.2949 -0.2665
 7719SOL    HW124056   1.700   6.249   2.298 -1.8288  2.3145 -0.7948
 7719SOL    HW224057   1.748   6.288   2.449 -0.0894 -0.4951 -0.5453
 7720SOL     OW24058   2.969   0.132   4.519 -0.2523  0.0818 -0.6331
 7720SOL    HW124059   2.916   0.063   4.568  0.1899  0.4099  0.3384
 7720SOL    HW224060   2.994   0.205   4.583 -1.0702  1.3607 -1.7113
 7721SOL     OW24061   5.641   6.758   3.463 -0.5445  0.4073 -0.7443
 7721SOL    HW124062   5.547   6.772   3.495  0.1934 -1.2758  2.5596
 7721SOL    HW224063   5.664   6.661   3.468  1.4632  0.8107 -1.2290
 7722SOL     OW24064   5.292   5.960   2.899 -0.8486 -1.3227  0.5706
 7722SOL    HW124065   5.267   6.051   2.932 -1.1172 -1.0472 -0.3741
 7722SOL    HW224066   5.279   5.893   2.973 -3.4016 -1.0508  0.4580
 7723SOL     OW24067   3.628   4.127   5.490 -0.3978  0.0918  0.3613
 7723SOL    HW124068   3.647   4.053   5.426  0.2432  0.6955 -0.1560
 7723SOL    HW224069   3.535   4.161   5.477  0.0944  0.9791 -1.0553
 7724SOL     OW24070   1.100   3.331   6.522  0.6528 -0.2685 -0.3589
 7724SOL    HW124071   1.123   3.355   6.427 -0.1594 -2.0067 -1.0419
 7724SOL    HW224072   1.002   3.344   6.537  0.9451  1.0231  0.5983
 7725SOL     OW24073   5.531   1.402   2.317  0.1516  0.0353 -0.0018
 7725SOL    HW124074   5.609   1.463   2.328  0.3191 -0.1716 -0.0231
 7725SOL    HW224075   5.449   1.443   2.358  0.2554  0.2856 -0.0502
 7726SOL     OW24076   1.645   1.245   0.534 -0.3947 -0.2379 -0.3944
 7726SOL    HW124077   1.669   1.196   0.618 -3.9324 -1.0303  0.3146
 7726SOL    HW224078   1.673   1.191   0.454  3.2529  0.6474  0.0989
 7727SOL     OW24079   6.852   5.386   4.672 -0.3976  0.3915 -0.1580
 7727SOL    HW124080   6.793   5.457   4.710 -0.5525  0.6197 -0.8100
 7727SOL    HW224081   6.870   5.317   4.742 -2.2781 -0.2353 -0.2310
 7728SOL     OW24082   1.047   2.511   6.418  0.0104  0.2733 -0.0439
 7728SOL    HW124083   0.971   2.448   6.406 -0.3546  1.0157 -1.9294
 7728SOL    HW224084   1.082   2.503   6.511 -1.8846 -0.6076  0.6463
 7729SOL     OW24085   2.090   2.139   3.898  0.2312  0.2123  0.3994
 7729SOL    HW124086   2.122   2.163   3.807 -0.9210  0.1538 -0.0448
 7729SOL    HW224087   2.025   2.063   3.891 -0.5995  0.8249  1.1520
 7730SOL     OW24088   5.057   2.597   0.348  0.2293 -0.2000 -0.5377
 7730SOL    HW124089   4.999   2.655   0.406 -0.8709 -1.5677 -0.2277
 7730SOL    HW224090   5.123   2.549   0.406  1.4300  1.0060 -0.8417
 7731SOL     OW24091   5.383   0.529   5.776  0.3264 -0.8460  0.1043
 7731SOL    HW124092   5.351   0.481   5.858  0.3719 -0.7184  0.1967
 7731SOL    HW224093   5.481   0.515   5.766  0.1322 -1.8777 -0.6048
 7732SOL     OW24094   3.963   6.754   0.369  0.2411  0.1905 -0.8511
 7732SOL    HW124095   3.968   6.699   0.286  1.0832 -0.5849 -0.3125
 7732SOL    HW224096   3.880   6.729   0.420 -0.9703  1.5983 -2.0580
 7733SOL     OW24097   6.057   5.928   1.772  0.5409 -0.3431  0.2339
 7733SOL    HW124098   6.005   6.008   1.802 -0.4981 -0.8892 -0.0521
 7733SOL    HW224099   6.154   5.943   1.788  0.3981  1.1364 -0.1923
 7734SOL     OW24100   3.399   3.414   3.948 -0.0684  0.1107  0.1097
 7734SOL    HW124101   3.349   3.391   3.865 -0.9802 -0.2795  0.7433
 7734SOL    HW224102   3.343   3.476   4.004 -0.1062 -0.7895  1.1011
 7735SOL     OW24103   2.154   1.097   1.064 -0.3602  0.3473 -0.8905
 7735SOL    HW124104   2.137   0.998   1.064  0.8717  0.1295 -1.1521
 7735SOL    HW224105   2.110   1.137   1.145 -1.3135 -0.3232 -1.0529
 7736SOL     OW24106   3.577   0.969   1.257  0.7539  0.4913  0.1665
 7736SOL    HW124107   3.583   1.015   1.346  0.3492  0.3917  0.2483
 7736SOL    HW224108   3.548   1.035   1.187  0.7687  0.4979  0.1665
 7737SOL     OW24109   4.850   4.362   6.282 -0.3009 -0.1405  0.2898
 7737SOL    HW124110   4.792   4.328   6.209 -1.5796 -1.7362  1.9785
 7737SOL    HW224111   4.927   4.413   6.242 -0.0176 -2.3342 -2.2162
 7738SOL     OW24112   2.823   2.087   6.238 -0.1242 -0.2889  0.3028
 7738SOL    HW124113   2.789   2.060   6.148  2.4261 -1.3519 -0.4271
 7738SOL    HW224114   2.816   2.009   6.301  3.2468 -1.5100 -0.6198
 7739SOL     OW24115   5.484   3.704   5.300  0.1742  0.0071  0.1171
 7739SOL    HW124116   5.394   3.697   5.257  0.5615 -2.3233 -0.5020
 7739SOL    HW224117   5.554   3.675   5.234  1.3013  0.9866  0.8464
 7740SOL     OW24118   4.968   0.482   4.770 -0.3019 -0.1819  0.4463
 7740SOL    HW124119   4.997   0.513   4.680 -1.4684  0.0680  0.1430
 7740SOL    HW224120   4.895   0.415   4.761 -1.0063  0.4501  1.2075
 7741SOL     OW24121   1.183   4.349   5.477 -0.6923 -0.0457 -0.9898
 7741SOL    HW124122   1.177   4.255   5.444 -0.7334 -0.5074  0.2785
 7741SOL    HW224123   1.215   4.408   5.403  2.9881 -1.6400 -0.9158
 7742SOL     OW24124   4.840   2.537   3.197 -0.9962  0.3513 -0.2824
 7742SOL    HW124125   4.777   2.460   3.188 -1.1734  0.5953 -1.1928
 7742SOL    HW224126   4.901   2.540   3.119 -0.3386  0.5657  0.2275
 7743SOL     OW24127   2.426   1.095   0.712 -0.1577  0.1230  0.1319
 7743SOL    HW124128   2.335   1.102   0.671 -0.4012  0.5380  0.7377
 7743SOL    HW224129   2.421   1.115   0.810  0.4952 -0.4085  0.2812
 7744SOL     OW24130   6.217   5.592   4.637  0.4536 -0.2535  0.1074
 7744SOL    HW124131   6.196   5.521   4.705 -0.1163 -0.9490 -0.7644
 7744SOL    HW224132   6.194   5.558   4.546 -1.0469  1.5015 -0.2330
 7745SOL     OW24133   4.025   6.363   1.375 -0.1700  0.5529 -0.0658
 7745SOL    HW124134   3.959   6.297   1.411 -1.4669 -1.0763 -4.7990
 7745SOL    HW224135   4.114   6.345   1.417 -1.0631 -2.3982  0.8781
 7746SOL     OW24136   0.199   4.899   0.632 -0.0705 -0.1782  0.0938
 7746SOL    HW124137   0.294   4.900   0.599 -0.2091 -2.7603 -0.6026
 7746SOL    HW224138   0.137   4.911   0.554 -0.3367 -0.2912  0.2874
 7747SOL     OW24139   5.227   5.475   6.643  0.7141 -0.5765  0.5231
 7747SOL    HW124140   5.162   5.530   6.696  0.2749  1.5123 -1.9094
 7747SOL    HW224141   5.319   5.509   6.658  0.3255  2.0387 -1.9902
 7748SOL     OW24142   4.330   1.125   5.984 -0.2559  0.6606 -0.0783
 7748SOL    HW124143   4.328   1.127   6.084 -1.0371 -0.5476 -0.0511
 7748SOL    HW224144   4.258   1.183   5.948 -0.2305  0.7800  0.0610
 7749SOL     OW24145   3.817   4.265   1.716 -0.7312 -0.1071 -0.0317
 7749SOL    HW124146   3.841   4.356   1.681 -0.2463  0.1046  0.8149
 7749SOL    HW224147   3.721   4.246   1.696 -0.9073  0.6999  0.0081
 7750SOL     OW24148   3.879   2.998   6.363 -0.5793 -0.2828  0.0427
 7750SOL    HW124149   3.885   3.097   6.373  1.5955 -0.3005 -0.5570
 7750SOL    HW224150   3.825   2.975   6.282 -0.0108  0.4500 -0.5463
 7751SOL     OW24151   0.729   0.953   3.648  0.0754 -0.4127  0.4392
 7751SOL    HW124152   0.685   0.924   3.733  1.3018  0.6264  1.4686
 7751SOL    HW224153   0.693   1.042   3.621 -0.1353 -0.6319 -0.0037
 7752SOL     OW24154   4.021   5.333   5.042  0.3377 -0.0389 -0.3194
 7752SOL    HW124155   4.051   5.244   5.076  0.1156 -0.8097 -2.0425
 7752SOL    HW224156   3.922   5.338   5.045  0.2896 -0.2867 -1.2107
 7753SOL     OW24157   2.434   0.872   4.551  0.0002 -0.2105 -0.7369
 7753SOL    HW124158   2.365   0.945   4.552 -0.7962 -0.9267 -1.4654
 7753SOL    HW224159   2.443   0.836   4.458 -0.7498 -2.0730 -0.1282
 7754SOL     OW24160   0.364   0.846   0.387 -0.1724 -0.7615  0.2944
 7754SOL    HW124161   0.458   0.827   0.357 -0.6286 -1.0724 -1.0036
 7754SOL    HW224162   0.300   0.806   0.322 -1.2832 -2.7236  2.4296
 7755SOL     OW24163   6.089   6.402   5.439  0.2611 -0.0249  0.2185
 7755SOL    HW124164   6.034   6.486   5.439 -0.0941 -0.2552 -0.3629
 7755SOL    HW224165   6.030   6.324   5.460  0.1482 -0.4007 -1.3607
 7756SOL     OW24166   2.560   6.123   1.690  0.2195  0.1802  0.5033
 7756SOL    HW124167   2.639   6.064   1.673 -0.7762 -1.3930  1.0323
 7756SOL    HW224168   2.478   6.066   1.698 -1.2082  1.8472 -1.3450
 7757SOL     OW24169   4.848   1.721   3.392  0.1122 -0.2398  0.0402
 7757SOL    HW124170   4.764   1.703   3.340 -0.8018  1.5019  0.8150
 7757SOL    HW224171   4.920   1.658   3.362 -0.6935 -0.0585 -2.4911
 7758SOL     OW24172   4.519   1.615   5.203 -0.0833  0.7964 -0.1377
 7758SOL    HW124173   4.470   1.677   5.142  2.0426  0.2752 -2.5612
 7758SOL    HW224174   4.467   1.530   5.213 -1.6776  1.8471  0.9342
 7759SOL     OW24175   4.510   5.471   5.836  0.0919 -0.0017  0.1674
 7759SOL    HW124176   4.559   5.404   5.781  2.2693  0.5539  1.2896
 7759SOL    HW224177   4.515   5.561   5.791  0.8293  0.2105  0.6500
 7760SOL     OW24178   5.512   0.986   3.036 -0.4822  0.0180 -0.0451
 7760SOL    HW124179   5.465   1.040   2.967  2.6940  0.7243 -1.8381
 7760SOL    HW224180   5.524   1.040   3.119 -0.3953  0.8469 -0.5903
 7761SOL     OW24181   4.583   0.048   0.140 -0.7650  0.2869  0.4968
 7761SOL    HW124182   4.627   0.112   0.203  0.4762  0.2644 -0.3312
 7761SOL    HW224183   4.483   0.061   0.145 -0.7097  0.2461  2.4845
 7762SOL     OW24184   2.078   3.279   2.151  0.0594 -0.1067  0.2406
 7762SOL    HW124185   2.107   3.351   2.089 -0.1673  0.5073  0.8369
 7762SOL    HW224186   2.086   3.190   2.105  0.2072  0.3036 -0.5422
 7763SOL     OW24187   1.549   5.108   0.054  0.3177  0.1077  0.4568
 7763SOL    HW124188   1.490   5.189   0.056 -0.8865 -0.7397  0.4392
 7763SOL    HW224189   1.535   5.054   0.138  2.5128  0.8423  1.3867
 7764SOL     OW24190   2.483   4.660   1.383  0.0870  0.2690 -0.4574
 7764SOL    HW124191   2.452   4.719   1.308  0.0376 -0.4678 -1.0272
 7764SOL    HW224192   2.582   4.669   1.393 -0.1566  1.9669  0.7971
 7765SOL     OW24193   0.561   2.581   1.520 -0.1063 -0.0909  0.2925
 7765SOL    HW124194   0.474   2.608   1.560 -0.4067  0.5663 -0.7808
 7765SOL    HW224195   0.627   2.655   1.529  0.0156 -0.1787  0.1364
 7766SOL     OW24196   5.087   4.935   1.725  0.1207 -0.3564 -0.0268
 7766SOL    HW124197   5.048   4.877   1.796 -3.0174 -1.9436 -2.7686
 7766SOL    HW224198   5.014   4.988   1.681  2.0154  1.0393 -1.6832
 7767SOL     OW24199   5.526   3.536   2.488 -1.0672  0.3665 -0.2261
 7767SOL    HW124200   5.478   3.459   2.530 -1.2596  1.3719  1.5047
 7767SOL    HW224201   5.460   3.600   2.451 -1.0271  0.9706  0.7208
 7768SOL     OW24202   3.786   4.982   1.778  0.2816  0.3430 -0.7203
 7768SOL    HW124203   3.856   4.967   1.847 -1.3874  1.2281  1.2820
 7768SOL    HW224204   3.787   5.078   1.750 -0.7080  0.5921  0.0401
 7769SOL     OW24205   5.284   0.094   3.356  0.0570 -0.2176 -0.5765
 7769SOL    HW124206   5.240   0.026   3.414 -0.6882  0.7265 -0.0031
 7769SOL    HW224207   5.248   0.088   3.263 -1.3794  0.5826 -0.1022
 7770SOL     OW24208   3.258   0.500   2.515 -0.4632 -0.4158  0.3664
 7770SOL    HW124209   3.160   0.512   2.496 -0.4435  0.0895  0.5465
 7770SOL    HW224210   3.297   0.589   2.539  0.2951 -0.4013 -0.8483
 7771SOL     OW24211   3.796   0.234   4.481  0.0680  0.0315  0.0206
 7771SOL    HW124212   3.717   0.176   4.464 -0.6876  0.0127  3.0153
 7771SOL    HW224213   3.769   0.330   4.478 -0.2902  0.0176  1.5837
 7772SOL     OW24214   2.489   1.720   1.252 -0.2097  0.5630 -0.4660
 7772SOL    HW124215   2.563   1.741   1.316 -0.4851  0.2883 -0.0496
 7772SOL    HW224216   2.439   1.640   1.284 -2.0191  1.9735  0.4397
 7773SOL     OW24217   4.954   5.160   5.494 -0.3907 -0.3328  0.2500
 7773SOL    HW124218   4.891   5.138   5.569 -1.4296  0.0970 -0.4783
 7773SOL    HW224219   5.019   5.230   5.526 -0.9654  0.0149  0.6936
 7774SOL     OW24220   3.755   0.346   1.099  0.1473  0.0951 -0.2741
 7774SOL    HW124221   3.738   0.248   1.109  2.1781 -0.3553 -0.7527
 7774SOL    HW224222   3.833   0.372   1.156 -0.5368  1.5003  0.0517
 7775SOL     OW24223   6.871   5.622   0.771 -0.2735  0.5642 -0.0579
 7775SOL    HW124224   6.895   5.525   0.777 -0.2375  0.6270  0.9435
 7775SOL    HW224225   6.852   5.658   0.862 -2.6472  0.9166 -0.6129
 7776SOL     OW24226   3.102   4.899   6.404  0.4192 -0.2226  0.3196
 7776SOL    HW124227   3.055   4.945   6.479  1.1488  0.5052  0.3544
 7776SOL    HW224228   3.160   4.826   6.441 -0.6220 -1.1035  0.2777
 7777SOL     OW24229   1.390   0.067   6.791  0.2820  0.4803  0.9353
 7777SOL    HW124230   1.341   0.152   6.809 -1.1040 -0.6193  2.6525
 7777SOL    HW224231   1.354   0.025   6.708  0.3154  1.0775  0.6125
 7778SOL     OW24232   4.135   2.192   2.997 -0.0245  0.1556  0.2136
 7778SOL    HW124233   4.136   2.093   2.985  0.5552  0.0788  0.8630
 7778SOL    HW224234   4.077   2.216   3.074 -2.5623  0.5527 -1.6981
 7779SOL     OW24235   3.822   4.382   0.598  0.4235 -0.0213  0.0601
 7779SOL    HW124236   3.847   4.330   0.517  1.4441  0.7942 -0.1800
 7779SOL    HW224237   3.904   4.429   0.633 -0.4302  1.3246  0.3196
 7780SOL     OW24238   1.670   0.972   2.424  0.0111 -0.0341 -0.3267
 7780SOL    HW124239   1.728   0.898   2.389  0.1236 -0.3276  0.4613
 7780SOL    HW224240   1.633   1.024   2.347 -0.3553 -1.1197 -0.9022
 7781SOL     OW24241   4.146   2.842   5.411 -0.0729  0.2862  0.3878
 7781SOL    HW124242   4.096   2.885   5.486 -0.8483  3.0594 -1.5595
 7781SOL    HW224243   4.081   2.794   5.352  0.1435  0.4697  0.0019
 7782SOL     OW24244   4.497   4.954   0.968 -0.3279  0.0443  0.7235
 7782SOL    HW124245   4.456   4.864   0.951  0.3696 -0.2087  0.2920
 7782SOL    HW224246   4.574   4.944   1.031 -0.5749  0.4217  1.0845
 7783SOL     OW24247   2.396   6.812   5.981  0.5700 -0.5153 -0.0757
 7783SOL    HW124248   2.469   6.861   6.027 -0.8645  0.9052  0.8105
 7783SOL    HW224249   2.425   6.718   5.962  2.6997  0.0889 -0.0661
 7784SOL     OW24250   6.249   4.055   0.086 -0.5751  0.3049  0.1815
 7784SOL    HW124251   6.169   4.003   0.118 -0.6529  0.0968 -0.3390
 7784SOL    HW224252   6.244   4.065  -0.013  1.0725 -1.4711 -0.1509
 7785SOL     OW24253   2.265   2.125   6.543 -0.0072 -0.4101  0.2032
 7785SOL    HW124254   2.275   2.218   6.508  0.6429 -0.3828  0.4460
 7785SOL    HW224255   2.254   2.061   6.467  2.6147 -0.5096 -0.1961
 7786SOL     OW24256   2.958   3.852   5.103  0.2977  0.1246 -0.1741
 7786SOL    HW124257   2.898   3.917   5.150  0.8879  0.2571  0.3983
 7786SOL    HW224258   2.972   3.772   5.161  1.5258  0.5581  0.1484
 7787SOL     OW24259   2.881   0.814   6.240 -0.3355 -0.5657 -0.2152
 7787SOL    HW124260   2.840   0.754   6.171  0.9046 -1.0331 -0.5629
 7787SOL    HW224261   2.897   0.761   6.324 -0.3118 -0.4139 -0.1237
 7788SOL     OW24262   2.271   1.933   6.780 -0.3396 -0.1351 -0.1130
 7788SOL    HW124263   2.271   1.982   6.693  0.3640 -2.4581 -1.4960
 7788SOL    HW224264   2.365   1.912   6.806 -0.6395 -1.6622 -0.1484
 7789SOL     OW24265   0.424   6.890   0.246  0.6276 -0.7098  0.4331
 7789SOL    HW124266   0.391   6.873   0.154 -0.7736 -0.0737  0.7893
 7789SOL    HW224267   0.419   6.806   0.300 -2.0540 -0.3157  0.9338
 7790SOL     OW24268   6.755   2.708   3.944  0.1698  0.3704  0.5877
 7790SOL    HW124269   6.837   2.652   3.952  0.0458  0.0903 -0.0499
 7790SOL    HW224270   6.751   2.749   3.853 -0.3747  0.4198  0.6307
 7791SOL     OW24271   0.247   6.914   5.104  0.1121 -0.0885 -0.2270
 7791SOL    HW124272   0.184   6.898   5.028 -0.9509  0.0373  0.6119
 7791SOL    HW224273   0.236   7.007   5.138  1.1704  0.1283 -0.4238
 7792SOL     OW24274   0.493   6.536   6.710  0.4954 -0.3784 -0.3958
 7792SOL    HW124275   0.498   6.631   6.741  0.5523 -0.1151 -1.1848
 7792SOL    HW224276   0.583   6.506   6.679  0.4409 -0.6383 -0.3045
 7793SOL     OW24277   0.573   0.095   6.045 -0.4537  0.2807 -0.0201
 7793SOL    HW124278   0.641   0.070   6.113  1.8260  0.6638 -2.0424
 7793SOL    HW224279   0.585   0.191   6.020 -0.4254 -0.1695 -1.8394
 7794SOL     OW24280   5.607   3.527   3.095 -0.7721  0.1273  0.1698
 7794SOL    HW124281   5.688   3.541   3.151 -0.4470 -0.9347 -0.0249
 7794SOL    HW224282   5.631   3.531   2.998 -1.2680  1.5709  0.0757
 7795SOL     OW24283   2.254   4.642   6.384  0.0318 -0.7707 -0.2661
 7795SOL    HW124284   2.250   4.560   6.327  0.8387 -0.3469 -0.9520
 7795SOL    HW224285   2.243   4.617   6.480  1.7671 -1.8790 -0.3232
 7796SOL     OW24286   3.197   3.393   3.753  0.3181  0.2772  0.4827
 7796SOL    HW124287   3.113   3.373   3.802 -0.4324 -0.3747 -1.0075
 7796SOL    HW224288   3.211   3.325   3.681  0.8109  1.7835 -0.9169
 7797SOL     OW24289   1.945   6.375   4.233  0.2803  0.6095  0.6358
 7797SOL    HW124290   1.941   6.275   4.238  0.8208  0.4985 -0.8752
 7797SOL    HW224291   1.906   6.413   4.318 -1.2903 -0.8429  0.6389
 7798SOL     OW24292   5.372   4.263   6.046  0.3674  0.3082 -0.5538
 7798SOL    HW124293   5.273   4.258   6.053  0.4471 -0.6477  0.1275
 7798SOL    HW224294   5.413   4.194   6.106  1.4954  1.9378  0.6236
 7799SOL     OW24295   0.386   6.221   2.438 -0.7189  0.2871  0.1027
 7799SOL    HW124296   0.311   6.157   2.455 -2.7631  1.5165 -3.2173
 7799SOL    HW224297   0.373   6.304   2.492 -2.0570  0.6388 -0.7083
 7800SOL     OW24298   1.267   0.076   3.428 -0.4118  0.7381 -0.2361
 7800SOL    HW124299   1.332   0.140   3.387  0.4537 -1.4951 -2.6226
 7800SOL    HW224300   1.317   0.006   3.480 -1.1130  0.4767  0.1068
 7801SOL     OW24301   4.398   1.814   0.168  0.3844 -0.4504  0.3868
 7801SOL    HW124302   4.444   1.892   0.210  0.3924 -0.4390  0.3571
 7801SOL    HW224303   4.463   1.738   0.161  0.6753 -0.1290 -0.5225
 7802SOL     OW24304   4.251   2.227   6.195 -0.5546 -0.0807 -0.1055
 7802SOL    HW124305   4.209   2.218   6.104 -0.8891 -0.1359  0.0524
 7802SOL    HW224306   4.313   2.305   6.195 -1.2176  0.4554 -0.1307
 7803SOL     OW24307   4.905   4.036   0.087  0.4987 -0.1624  0.0459
 7803SOL    HW124308   4.984   4.096   0.101  0.2361  0.0528  0.6133
 7803SOL    HW224309   4.825   4.091   0.062  0.5248 -0.3796 -0.5257
 7804SOL     OW24310   4.613   1.776   0.692  0.3261 -0.3362  0.1971
 7804SOL    HW124311   4.690   1.732   0.646 -0.4859 -0.9698 -0.5834
 7804SOL    HW224312   4.557   1.707   0.737  0.3825  0.1539  1.0371
 7805SOL     OW24313   5.045   2.826   2.690  0.7242  0.1370  0.0131
 7805SOL    HW124314   5.038   2.788   2.597 -1.0195  0.1795  0.0925
 7805SOL    HW224315   4.960   2.873   2.712  0.7785 -0.6111  1.9682
 7806SOL     OW24316   4.348   3.452   5.708  0.3965  0.8636  0.5187
 7806SOL    HW124317   4.281   3.504   5.655  1.0136  1.9479  0.7668
 7806SOL    HW224318   4.437   3.457   5.662  0.4512 -0.0556  0.5080
 7807SOL     OW24319   6.681   3.290   0.347 -0.4380  0.7902 -0.1328
 7807SOL    HW124320   6.743   3.368   0.333  0.2103  0.4075  0.4918
 7807SOL    HW224321   6.658   3.283   0.444 -0.5019  0.2195 -0.1856
 7808SOL     OW24322   0.132   1.152   6.573 -0.6420  0.1187 -0.2054
 7808SOL    HW124323   0.046   1.106   6.552 -0.7879  0.4156 -0.2606
 7808SOL    HW224324   0.114   1.236   6.625 -0.4824  0.8273 -1.2556
 7809SOL     OW24325   6.826   0.277   6.022  0.3734  0.1802 -0.1271
 7809SOL    HW124326   6.867   0.224   5.947  0.0743  1.6646 -1.3794
 7809SOL    HW224327   6.880   0.263   6.105  1.4596 -0.5212 -0.9217
 7810SOL     OW24328   5.335   1.316   1.499  0.7515 -0.0598 -0.0952
 7810SOL    HW124329   5.419   1.366   1.481  1.6061 -0.4632  2.3782
 7810SOL    HW224330   5.259   1.361   1.451  2.2487  0.5849 -1.9983
 7811SOL     OW24331   5.730   5.447   5.756  0.4144  0.0055 -0.0749
 7811SOL    HW124332   5.658   5.514   5.738  2.0015  1.4826 -1.2333
 7811SOL    HW224333   5.700   5.357   5.724 -1.2135  0.4179  0.2104
 7812SOL     OW24334   0.979   2.063   4.903 -0.1939 -0.1013  0.3014
 7812SOL    HW124335   1.030   2.085   4.986 -0.0787  0.5514  0.0588
 7812SOL    HW224336   1.027   2.100   4.823 -1.0344  0.5044  0.0669
 7813SOL     OW24337   4.539   1.466   1.020 -0.9466  0.2480 -0.0074
 7813SOL    HW124338   4.475   1.390   1.033 -1.2748  0.4175 -0.5933
 7813SOL    HW224339   4.494   1.538   0.969 -0.5788  0.7721  0.3988
 7814SOL     OW24340   0.248   2.333   5.136 -0.4862  0.3800  0.7452
 7814SOL    HW124341   0.347   2.343   5.148 -0.3790 -1.4441  1.6858
 7814SOL    HW224342   0.207   2.423   5.120  1.0288  1.4684  2.5828
 7815SOL     OW24343   5.636   3.528   5.127 -0.5442 -0.4221 -0.1422
 7815SOL    HW124344   5.563   3.517   5.060 -1.0500 -0.0216  0.3279
 7815SOL    HW224345   5.723   3.502   5.087 -0.7186  0.5558 -1.2003
 7816SOL     OW24346   6.952   5.610   5.512 -0.0770 -0.3519 -0.6317
 7816SOL    HW124347   7.023   5.648   5.571  0.2093 -1.3015 -0.3486
 7816SOL    HW224348   6.894   5.684   5.477  0.1726  0.2899  0.2804
 7817SOL     OW24349   3.770   1.745   6.199  0.3960 -0.7736 -0.4430
 7817SOL    HW124350   3.713   1.823   6.226  0.7021 -1.1075  1.3169
 7817SOL    HW224351   3.749   1.719   6.105 -0.5403  0.6912 -0.6720
 7818SOL     OW24352   5.291   2.917   2.789 -0.4294  0.3453 -0.2834
 7818SOL    HW124353   5.290   3.014   2.814 -1.1275  0.2748 -0.0164
 7818SOL    HW224354   5.212   2.897   2.730 -0.1299 -0.0032 -0.5723
 7819SOL     OW24355   1.895   1.666   1.127 -0.4865 -0.1408  0.1729
 7819SOL    HW124356   1.820   1.672   1.192  0.4208 -0.7892  1.3186
 7819SOL    HW224357   1.940   1.755   1.120 -0.2649 -0.1983  0.8356
 7820SOL     OW24358   3.299   5.752   5.308 -0.2185  0.2831 -0.1700
 7820SOL    HW124359   3.364   5.821   5.340 -1.9872  1.7127  0.4958
 7820SOL    HW224360   3.286   5.762   5.209 -0.7591  1.1851 -0.0139
 7821SOL     OW24361   1.561   0.071   1.292  0.8238  0.1416 -0.4238
 7821SOL    HW124362   1.556   0.087   1.390  2.6837  0.2665 -0.3065
 7821SOL    HW224363   1.564   0.159   1.243  0.3882  0.0828 -0.5599
 7822SOL     OW24364   0.129   6.387   6.300 -0.1755  0.2363  0.1457
 7822SOL    HW124365   0.086   6.312   6.250 -0.2455  0.6984 -0.5001
 7822SOL    HW224366   0.213   6.415   6.251  0.5057 -0.2193  1.0301
 7823SOL     OW24367   1.875   3.626   5.583 -0.0457  0.2722  0.4181
 7823SOL    HW124368   1.889   3.670   5.494 -2.9980  0.5859  0.0120
 7823SOL    HW224369   1.824   3.688   5.643 -0.2022 -0.8643  1.5039
 7824SOL     OW24370   1.587   3.110   5.028 -0.0381  0.5081  0.4077
 7824SOL    HW124371   1.584   3.069   4.937  0.1664  1.4813 -0.0528
 7824SOL    HW224372   1.682   3.125   5.055 -0.0321 -1.0614  1.4001
 7825SOL     OW24373   1.002   0.006   1.055  0.1091  0.7929 -0.1143
 7825SOL    HW124374   0.971   0.093   1.092 -1.6285  0.2635 -0.2357
 7825SOL    HW224375   1.068  -0.036   1.117 -0.3153  1.4123  0.7651
 7826SOL     OW24376   0.801   4.941   5.594  0.6035 -0.1728 -0.3207
 7826SOL    HW124377   0.732   5.008   5.568 -0.6300 -1.1111  0.4065
 7826SOL    HW224378   0.856   4.917   5.515  0.8507  1.4413 -0.6599
 7827SOL     OW24379   5.017   4.767   1.935 -0.4991 -0.2941 -0.4644
 7827SOL    HW124380   5.092   4.700   1.943 -0.6290 -0.3968 -0.0767
 7827SOL    HW224381   4.966   4.769   2.021 -1.0058 -0.2969 -0.7675
 7828SOL     OW24382   0.156   4.849   5.321 -0.5168 -0.1225 -0.3829
 7828SOL    HW124383   0.176   4.766   5.269 -2.2285 -1.6412  1.2422
 7828SOL    HW224384   0.227   4.918   5.303  1.5397 -2.2695 -0.9895
 7829SOL     OW24385   3.974   3.938   2.030  0.1659 -0.0833 -0.0636
 7829SOL    HW124386   3.958   3.962   2.126 -0.1473 -1.1094  0.1573
 7829SOL    HW224387   3.886   3.929   1.983  0.3319  0.7682 -0.5387
 7830SOL     OW24388   1.918   5.483   4.580 -0.0169 -0.5762  0.1066
 7830SOL    HW124389   2.013   5.452   4.576 -0.3290 -1.8878  1.8458
 7830SOL    HW224390   1.857   5.408   4.555 -0.6454 -0.0933  0.1556
 7831SOL     OW24391   0.400   6.906   5.936 -0.3596 -0.3257  0.0773
 7831SOL    HW124392   0.373   6.931   5.843 -1.1318 -0.5445  0.2330
 7831SOL    HW224393   0.478   6.962   5.965 -1.0748  0.8228 -0.1406
 7832SOL     OW24394   6.418   1.351   5.700  0.0657 -0.1057  0.0259
 7832SOL    HW124395   6.511   1.368   5.666  0.1101  0.6155  0.4904
 7832SOL    HW224396   6.423   1.292   5.781  0.2091  0.7882  0.6810
 7833SOL     OW24397   1.674   1.012   3.362  0.1910 -0.5800  0.6209
 7833SOL    HW124398   1.765   1.039   3.396 -0.1525  1.0907  0.3052
 7833SOL    HW224399   1.685   0.944   3.290  1.1959 -0.3619  0.5457
 7834SOL     OW24400   7.012   0.995   6.194 -0.0851 -0.3024  0.1085
 7834SOL    HW124401   7.072   1.044   6.131  0.1606 -1.1520 -0.3474
 7834SOL    HW224402   6.920   0.989   6.154 -0.1011 -0.2434  0.1385
 7835SOL     OW24403   2.981   2.803   6.377  0.7711 -0.5335  0.3978
 7835SOL    HW124404   3.033   2.878   6.336 -0.2899  0.3408  0.6052
 7835SOL    HW224405   2.888   2.803   6.340  0.9025 -2.1150 -0.0332
 7836SOL     OW24406   2.640   4.462   5.290  0.1020 -0.6608  0.2220
 7836SOL    HW124407   2.726   4.473   5.240 -0.0980 -0.4713 -0.0832
 7836SOL    HW224408   2.643   4.515   5.375 -0.5677  1.2029 -0.8729
 7837SOL     OW24409   0.557   5.536   6.954  0.0364  0.4560 -0.3129
 7837SOL    HW124410   0.503   5.463   6.995  0.5698  0.4737  0.4354
 7837SOL    HW224411   0.615   5.578   7.023  0.1975  1.1792 -0.8679
 7838SOL     OW24412   4.497   4.841   1.304  0.4182 -0.4963 -0.5667
 7838SOL    HW124413   4.409   4.843   1.256 -0.0901 -0.8824  0.3290
 7838SOL    HW224414   4.485   4.798   1.394  1.4175 -0.0498 -0.2104
 7839SOL     OW24415   6.724   4.127   4.969 -0.2156  0.3123 -0.2216
 7839SOL    HW124416   6.667   4.081   4.902  1.3329 -0.9470 -0.7551
 7839SOL    HW224417   6.820   4.100   4.955  0.2674  0.7580  1.8820
 7840SOL     OW24418   0.926   2.598   4.219  0.2892 -0.0240 -0.4102
 7840SOL    HW124419   0.885   2.674   4.270  1.2639 -0.6206  1.3510
 7840SOL    HW224420   1.015   2.627   4.184 -0.3639  0.3739 -1.8262
 7841SOL     OW24421   3.185   1.114   6.319  0.3356 -0.3046 -0.2531
 7841SOL    HW124422   3.271   1.154   6.286  1.2584 -0.7815  1.4773
 7841SOL    HW224423   3.147   1.054   6.249  2.8051 -2.1568 -0.1170
 7842SOL     OW24424   0.131   1.330   0.175  0.4750 -0.2476  0.4832
 7842SOL    HW124425   0.172   1.256   0.227 -1.7879 -1.7509  0.2931
 7842SOL    HW224426   0.043   1.355   0.216  1.1115  2.3135  0.4717
 7843SOL     OW24427   0.022   4.645   2.338  0.4078  0.0351 -0.3798
 7843SOL    HW124428   0.112   4.613   2.367  0.5010  0.9873  0.4355
 7843SOL    HW224429   0.025   4.744   2.323 -0.0352 -0.1846 -2.1998
 7844SOL     OW24430   3.795   5.987   3.940  0.3516  0.2238 -0.2646
 7844SOL    HW124431   3.881   5.936   3.944  0.3923  0.3061 -0.1065
 7844SOL    HW224432   3.729   5.935   3.887  0.9680  0.8401 -1.6998
 7845SOL     OW24433   6.099   3.377   0.795  0.2817  0.0921 -0.1759
 7845SOL    HW124434   6.122   3.303   0.857  2.3038  0.6868 -0.1518
 7845SOL    HW224435   6.178   3.398   0.737  0.4853  3.4346  1.0848
 7846SOL     OW24436   6.222   2.737   0.676 -0.7123 -0.6165  0.1015
 7846SOL    HW124437   6.135   2.746   0.726 -0.7875  0.7926 -0.2521
 7846SOL    HW224438   6.222   2.797   0.597 -0.1446 -2.0099 -1.0129
 7847SOL     OW24439   5.052   2.992   6.529 -0.8299  0.2689 -0.3652
 7847SOL    HW124440   4.971   3.002   6.586 -0.9767 -1.0765 -0.2926
 7847SOL    HW224441   5.039   3.039   6.443 -0.5087  2.5550  0.7614
 7848SOL     OW24442   5.131   4.257   6.853 -0.7567 -0.1385  0.5017
 7848SOL    HW124443   5.091   4.347   6.836 -0.6757 -0.2150 -0.1071
 7848SOL    HW224444   5.229   4.260   6.834 -1.1717 -0.9982 -2.0625
 7849SOL     OW24445   5.545   4.522   6.348 -0.4685 -0.1601  0.3623
 7849SOL    HW124446   5.607   4.459   6.301  0.7887  2.1927 -1.3820
 7849SOL    HW224447   5.578   4.539   6.441  1.0411  0.3288 -0.2287
 7850SOL     OW24448   5.883   6.338   4.345 -0.5273 -0.0368  0.5258
 7850SOL    HW124449   5.968   6.368   4.301 -0.0651 -2.3569 -0.3223
 7850SOL    HW224450   5.905   6.291   4.430 -1.0613  0.2221  0.8110
 7851SOL     OW24451   1.125   3.415   0.848  0.5121  0.8090  0.9521
 7851SOL    HW124452   1.062   3.350   0.805  0.9790  0.9390  0.0456
 7851SOL    HW224453   1.165   3.374   0.930  0.4101  0.1501  0.6755
 7852SOL     OW24454   0.050   2.031   5.855 -0.1436  0.0660  0.0112
 7852SOL    HW124455   0.037   1.983   5.768 -1.7116  1.2464 -0.4620
 7852SOL    HW224456   0.098   2.117   5.839  3.4276 -1.5851  0.9715
 7853SOL     OW24457   4.520   2.456   1.163 -0.5722 -0.7672 -0.0813
 7853SOL    HW124458   4.443   2.394   1.177  1.3709 -3.4448 -0.5669
 7853SOL    HW224459   4.552   2.488   1.252 -1.3322 -0.7699  0.2076
 7854SOL     OW24460   3.907   6.799   1.195  0.0527  0.1452  0.1706
 7854SOL    HW124461   3.911   6.823   1.098 -1.7993  0.6648  0.1686
 7854SOL    HW224462   3.973   6.854   1.246  0.3882  0.5448 -0.6849
 7855SOL     OW24463   4.073   6.128   2.876  0.1936 -0.4565  0.0803
 7855SOL    HW124464   4.150   6.178   2.836  0.4895 -1.2058 -0.3046
 7855SOL    HW224465   4.026   6.076   2.804 -0.2115 -0.6099  0.4494
 7856SOL     OW24466   2.005   0.614   0.513  0.5985  0.0262  0.2801
 7856SOL    HW124467   2.020   0.700   0.464 -0.0808  0.3741  0.6822
 7856SOL    HW224468   2.044   0.539   0.459  2.0132  0.6684  0.3543
 7857SOL     OW24469   0.649   4.016   1.289  0.4958 -0.4689  0.6167
 7857SOL    HW124470   0.553   3.990   1.282 -0.4032  1.6439  3.0785
 7857SOL    HW224471   0.666   4.097   1.233  0.8065 -0.7001  0.3700
 7858SOL     OW24472   5.928   3.705   6.993 -0.6957 -0.1016 -0.0906
 7858SOL    HW124473   5.995   3.704   7.068 -1.5840  0.4692  0.7484
 7858SOL    HW224474   5.836   3.706   7.032 -1.2394 -1.9605 -1.2290
 7859SOL     OW24475   4.532   1.942   1.088 -0.3307 -0.3271  0.9393
 7859SOL    HW124476   4.625   1.964   1.117  0.6351 -2.0064 -0.6706
 7859SOL    HW224477   4.507   1.851   1.123 -1.1366 -0.1519  0.8380
 7860SOL     OW24478   1.476   1.258   1.230  0.5691 -0.5970  0.1228
 7860SOL    HW124479   1.467   1.256   1.131 -0.4803  0.0788  0.1909
 7860SOL    HW224480   1.555   1.204   1.257  2.4251  1.2713 -1.2463
 7861SOL     OW24481   1.370   6.719   0.008 -0.5690  0.5283 -0.3347
 7861SOL    HW124482   1.323   6.631   0.015  1.0183 -0.2501  0.9161
 7861SOL    HW224483   1.422   6.723  -0.078  0.8244 -0.5289  0.4309
 7862SOL     OW24484   0.243   6.185   6.574 -0.1777 -0.3939  0.2768
 7862SOL    HW124485   0.158   6.149   6.535  0.5468  0.2821 -2.0949
 7862SOL    HW224486   0.266   6.271   6.529  1.0950  0.1278  1.8258
 7863SOL     OW24487   0.573   3.191   3.045  0.0762 -0.1267  0.3625
 7863SOL    HW124488   0.510   3.260   3.010  0.4198  0.6601  1.2518
 7863SOL    HW224489   0.651   3.236   3.088  0.8197 -1.0831  0.0569
 7864SOL     OW24490   1.376   6.209   5.675 -0.0500 -0.7597 -0.4013
 7864SOL    HW124491   1.396   6.141   5.604 -0.1977 -0.3530 -0.8353
 7864SOL    HW224492   1.362   6.298   5.633  2.3888  0.0505  0.3168
 7865SOL     OW24493   0.092   3.900   1.725 -0.4993 -0.6765  0.1733
 7865SOL    HW124494   0.027   3.971   1.755  3.5450  2.2572  3.1797
 7865SOL    HW224495   0.102   3.832   1.797  0.0127 -0.9223 -0.1266
 7866SOL     OW24496   6.051   0.667   5.571 -0.3833  0.3991 -0.0256
 7866SOL    HW124497   5.982   0.596   5.576  0.8881 -0.7728  1.8424
 7866SOL    HW224498   6.035   0.723   5.489 -0.7977 -2.6576 -2.1797
 7867SOL     OW24499   2.741   6.989   2.084  0.0552  0.3706  0.4743
 7867SOL    HW124500   2.731   7.051   2.163  2.5684  2.5325 -0.7421
 7867SOL    HW224501   2.832   6.947   2.087 -0.7856 -1.5849  0.0297
 7868SOL     OW24502   5.261   5.930   1.119  0.2219 -0.2667 -0.2230
 7868SOL    HW124503   5.283   6.015   1.166  0.9394 -1.0522  0.9241
 7868SOL    HW224504   5.281   5.938   1.022  0.5525  0.7668 -0.0743
 7869SOL     OW24505   5.101   2.718   4.753 -0.0039 -0.3174  0.6172
 7869SOL    HW124506   5.127   2.790   4.689  0.6818 -0.6088  0.5551
 7869SOL    HW224507   5.107   2.752   4.847  0.4096 -0.3228  0.5917
 7870SOL     OW24508   1.704   0.516   3.791 -0.1702  0.1529  0.7970
 7870SOL    HW124509   1.772   0.575   3.747  0.9377 -1.9546 -0.4437
 7870SOL    HW224510   1.720   0.514   3.890  1.4669 -0.1473  0.5483
 7871SOL     OW24511   4.431   1.643   0.827 -0.0404  0.0062 -0.0071
 7871SOL    HW124512   4.389   1.594   0.751 -0.4250  0.0576  0.1714
 7871SOL    HW224513   4.389   1.733   0.837  0.7842  0.4514 -0.4459
 7872SOL     OW24514   6.868   2.596   2.574 -0.3399 -0.5268  0.0571
 7872SOL    HW124515   6.819   2.679   2.550  0.1387  0.1122  1.1859
 7872SOL    HW224516   6.810   2.538   2.632 -0.7666 -1.1140 -0.9416
 7873SOL     OW24517   5.725   3.144   0.462 -0.3485  0.5175 -0.7295
 7873SOL    HW124518   5.768   3.146   0.372 -0.6278  0.3417 -0.8690
 7873SOL    HW224519   5.785   3.189   0.529  0.2523 -0.1183 -0.8267
 7874SOL     OW24520   5.998   2.038   1.347  0.7235  0.1062 -0.3629
 7874SOL    HW124521   5.938   2.092   1.288 -2.9835 -2.7311  0.4381
 7874SOL    HW224522   6.051   1.974   1.292 -0.9062 -0.8817 -0.8289
 7875SOL     OW24523   6.169   0.160   0.317  0.1206  0.0368 -0.5884
 7875SOL    HW124524   6.166   0.168   0.218 -0.7780  0.7281 -0.5220
 7875SOL    HW224525   6.218   0.077   0.343 -1.2821 -1.1722 -1.6425
 7876SOL     OW24526   1.911   5.180   3.394  0.1429 -0.3610 -0.7232
 7876SOL    HW124527   1.868   5.111   3.335  2.2707 -1.0023 -1.6031
 7876SOL    HW224528   1.843   5.216   3.458 -2.3363  0.4999 -3.6398
 7877SOL     OW24529   0.891   1.356   3.062 -0.3650  0.3823  0.2076
 7877SOL    HW124530   0.984   1.326   3.082 -0.5999  0.1791  1.0383
 7877SOL    HW224531   0.879   1.365   2.963 -0.1650 -1.9586 -0.0945
 7878SOL     OW24532   3.622   6.614   3.759 -0.2063 -0.4661  0.5253
 7878SOL    HW124533   3.563   6.573   3.828 -0.1038 -1.3243  0.1230
 7878SOL    HW224534   3.717   6.608   3.789 -0.3335  1.3286  1.3814
 7879SOL     OW24535   1.867   6.984   7.015  0.3645  0.0159 -0.0590
 7879SOL    HW124536   1.859   7.083   7.006 -1.5676 -0.0776  0.3545
 7879SOL    HW224537   1.806   6.951   7.087 -0.7873 -1.7193 -1.7145
 7880SOL     OW24538   1.562   3.201   1.860  0.0286 -1.0080  0.1022
 7880SOL    HW124539   1.651   3.170   1.893  0.1501 -1.4776 -0.6476
 7880SOL    HW224540   1.556   3.300   1.867 -0.3536 -1.1484  2.5191
 7881SOL     OW24541   3.316   2.125   3.388 -0.6228 -0.2733 -0.6407
 7881SOL    HW124542   3.387   2.078   3.334  0.3636 -0.2255  0.5803
 7881SOL    HW224543   3.250   2.167   3.326  0.2003 -0.6455 -1.8078
 7882SOL     OW24544   5.490   2.597   1.868 -0.1892  0.1011  0.0438
 7882SOL    HW124545   5.540   2.637   1.791 -0.5277 -0.9383 -0.7196
 7882SOL    HW224546   5.488   2.663   1.943  0.8096  0.8338 -0.5469
 7883SOL     OW24547   6.580   1.619   4.547 -0.0740 -0.1557  0.4585
 7883SOL    HW124548   6.483   1.596   4.536 -0.3499  0.6745  1.0256
 7883SOL    HW224549   6.636   1.547   4.507 -0.9470  0.1406 -1.4049
 7884SOL     OW24550   1.992   3.180   4.989  0.1678 -0.8257 -0.1152
 7884SOL    HW124551   1.928   3.137   5.053 -2.5641  2.0929 -0.6492
 7884SOL    HW224552   2.075   3.207   5.038 -1.4844  0.5523  2.1097
 7885SOL     OW24553   6.253   6.741   6.157  0.0839 -0.2210 -0.0834
 7885SOL    HW124554   6.208   6.741   6.247 -0.4797  1.2482 -0.3377
 7885SOL    HW224555   6.275   6.647   6.131 -0.8806 -0.7807  1.0199
 7886SOL     OW24556   3.181   2.152   6.785  0.4477 -0.2377  0.1398
 7886SOL    HW124557   3.195   2.056   6.760 -2.3245 -0.4468 -1.0602
 7886SOL    HW224558   3.197   2.210   6.706  0.7565  0.1511  0.4845
 7887SOL     OW24559   3.303   3.579   6.524  0.6054  0.2069  0.8760
 7887SOL    HW124560   3.372   3.554   6.592 -1.0577 -0.4852  2.3776
 7887SOL    HW224561   3.230   3.630   6.568  0.5333  1.6889 -0.8550
 7888SOL     OW24562   4.766   5.643   4.253  0.5963 -0.0679 -0.4964
 7888SOL    HW124563   4.795   5.552   4.282  2.1008  0.1322 -1.2435
 7888SOL    HW224564   4.794   5.710   4.323 -0.6221 -0.1716  0.1133
 7889SOL     OW24565   6.560   3.296   3.196 -0.4476 -0.0224 -0.0829
 7889SOL    HW124566   6.587   3.209   3.238  0.1452  0.9468  1.6229
 7889SOL    HW224567   6.642   3.350   3.176 -0.8838  1.3150  1.5259
 7890SOL     OW24568   2.327   4.509   3.794 -0.1794 -0.3298 -0.3674
 7890SOL    HW124569   2.230   4.486   3.779  0.0256 -1.1882 -0.4301
 7890SOL    HW224570   2.369   4.439   3.852  0.5152 -0.2010 -0.7118
 7891SOL     OW24571   1.239   4.946   3.303  0.3888  0.7969  0.6064
 7891SOL    HW124572   1.219   4.983   3.393  0.3729  1.0180  0.5131
 7891SOL    HW224573   1.323   4.987   3.268  0.5996  0.4317  0.6795
 7892SOL     OW24574   1.036   2.960   4.546 -0.5142 -0.0595  0.4022
 7892SOL    HW124575   1.099   2.924   4.615  0.5647 -0.9696 -0.9862
 7892SOL    HW224576   1.047   3.059   4.539 -1.0237  0.1214  1.8702
 7893SOL     OW24577   5.243   6.145   0.684 -0.1210  0.5292 -0.0688
 7893SOL    HW124578   5.238   6.243   0.665 -0.1242  0.3949 -0.7700
 7893SOL    HW224579   5.215   6.093   0.603 -0.9444 -0.0437  0.5569
 7894SOL     OW24580   1.832   1.713   0.408  0.5860  0.1372 -0.6631
 7894SOL    HW124581   1.776   1.795   0.397  0.7414  0.2666 -0.4945
 7894SOL    HW224582   1.824   1.657   0.326  0.4542  0.3047 -0.7677
 7895SOL     OW24583   1.634   3.115   5.941 -0.5183  0.2221  0.1537
 7895SOL    HW124584   1.678   3.045   5.998  1.1885 -0.7100 -2.1537
 7895SOL    HW224585   1.585   3.070   5.866  0.9377  1.4263 -1.6087
 7896SOL     OW24586   3.723   2.042   6.695  0.0478  0.7749  0.0884
 7896SOL    HW124587   3.726   2.040   6.795  1.4668 -0.9908  0.0738
 7896SOL    HW224588   3.644   2.095   6.665 -3.4231 -2.6096  2.2462
 7897SOL     OW24589   2.592   5.466   0.203  0.4592  0.1986  0.4935
 7897SOL    HW124590   2.617   5.492   0.297 -3.0609  0.0498  1.6298
 7897SOL    HW224591   2.607   5.368   0.191  0.4853  0.1224  1.0906
 7898SOL     OW24592   3.813   0.458   4.888  0.1926  0.2849  0.1896
 7898SOL    HW124593   3.852   0.460   4.980 -1.1483 -2.9562  0.9781
 7898SOL    HW224594   3.718   0.488   4.891 -0.5138 -1.7533  0.3835
 7899SOL     OW24595   4.655   6.215   1.249 -0.4084 -0.5541 -0.7295
 7899SOL    HW124596   4.596   6.135   1.241 -1.4164  0.2191 -1.1525
 7899SOL    HW224597   4.660   6.262   1.161  2.0857 -1.4352 -1.1391
 7900SOL     OW24598   0.759   6.292   1.020 -0.3254  0.4921 -0.3294
 7900SOL    HW124599   0.807   6.286   0.932 -0.6476  1.5802 -0.5956
 7900SOL    HW224600   0.669   6.333   1.005 -0.4692  0.4849  0.4910
 7901SOL     OW24601   6.015   6.097   1.189 -0.1769 -0.6768 -0.1565
 7901SOL    HW124602   6.084   6.124   1.122  1.2346 -0.1326  1.4410
 7901SOL    HW224603   6.031   6.003   1.218 -0.9212 -0.9867 -0.7429
 7902SOL     OW24604   4.201   5.076   5.711 -0.8611  0.0827 -0.1936
 7902SOL    HW124605   4.281   5.056   5.767 -0.5058  1.7852 -0.0694
 7902SOL    HW224606   4.210   5.029   5.623 -0.3888 -0.8372  0.3321
 7903SOL     OW24607   1.089   0.636   1.564  0.2883  0.6433 -0.4011
 7903SOL    HW124608   1.135   0.548   1.575 -0.5642  0.0003 -1.7733
 7903SOL    HW224609   1.038   0.657   1.647 -0.7076 -0.8875 -0.5842
 7904SOL     OW24610   5.885   1.967   3.945 -0.3091 -0.4137 -0.2930
 7904SOL    HW124611   5.818   1.893   3.939 -0.9418  0.0652  0.5956
 7904SOL    HW224612   5.899   1.992   4.041  0.2985  0.2588 -0.5455
 7905SOL     OW24613   1.898   1.332   1.894  0.3108  0.0200 -0.0681
 7905SOL    HW124614   1.862   1.361   1.806 -0.7614  0.2445  0.4354
 7905SOL    HW224615   1.943   1.243   1.883 -2.4304 -1.4500 -0.3103
 7906SOL     OW24616   0.819   4.673   6.986  0.3120 -0.2161  0.7270
 7906SOL    HW124617   0.775   4.724   7.059 -2.2740 -2.0170  0.5602
 7906SOL    HW224618   0.883   4.607   7.026  0.5680  0.2938  1.1834
 7907SOL     OW24619   0.886   0.816   1.753  0.4285  0.0310 -0.9462
 7907SOL    HW124620   0.912   0.845   1.845  1.8051 -0.7237 -1.0609
 7907SOL    HW224621   0.912   0.886   1.687 -1.5692  1.0828 -0.7064
 7908SOL     OW24622   1.203   0.362   1.139 -0.1996  0.6182  0.0015
 7908SOL    HW124623   1.228   0.316   1.054 -1.1730  0.1061 -0.0242
 7908SOL    HW224624   1.280   0.416   1.172  0.1862  0.8480 -1.2258
 7909SOL     OW24625   5.337   4.143   3.837 -0.0934 -0.6228  0.0458
 7909SOL    HW124626   5.294   4.058   3.869 -1.1728 -0.1979 -0.2206
 7909SOL    HW224627   5.332   4.212   3.908 -0.3929 -0.3896 -0.1989
 7910SOL     OW24628   6.468   3.719   3.602  0.0511  0.2395 -0.2256
 7910SOL    HW124629   6.398   3.685   3.539 -0.1369 -0.1722  0.1997
 7910SOL    HW224630   6.425   3.760   3.682  0.2881  0.9678 -0.4609
 7911SOL     OW24631   5.632   5.720   5.212  0.2859  0.4918 -0.6698
 7911SOL    HW124632   5.655   5.685   5.121  1.0523 -0.3312 -0.1867
 7911SOL    HW224633   5.572   5.654   5.258  1.2585  0.0704  0.0300
 7912SOL     OW24634   0.429   5.667   4.914 -0.3254  0.0286  0.2490
 7912SOL    HW124635   0.383   5.638   4.999  2.2971 -1.0251  1.4156
 7912SOL    HW224636   0.464   5.759   4.925 -0.3240  0.0399  0.1514
 7913SOL     OW24637   7.010   6.237   6.123 -0.1523  0.3748  0.2105
 7913SOL    HW124638   6.973   6.278   6.040  1.7801  0.6329 -0.5880
 7913SOL    HW224639   7.012   6.138   6.114 -1.0600  0.3261  0.4638
 7914SOL     OW24640   5.688   5.157   1.386 -0.0137 -0.2618  0.4993
 7914SOL    HW124641   5.660   5.252   1.373  0.9439 -0.0029  0.2306
 7914SOL    HW224642   5.637   5.117   1.462  0.2993  0.7717  1.2749
 7915SOL     OW24643   3.250   2.036   2.980  0.3513  0.2229  0.0465
 7915SOL    HW124644   3.344   2.056   2.950  0.4124 -0.4731 -0.2356
 7915SOL    HW224645   3.227   2.096   3.056  1.4016 -0.3065  0.8149
 7916SOL     OW24646   3.947   3.997   5.073  0.0985 -0.4803 -0.1086
 7916SOL    HW124647   3.930   3.949   5.159 -1.6019 -1.4061 -0.9221
 7916SOL    HW224648   3.983   4.089   5.093  0.7779 -1.0616  1.5337
 7917SOL     OW24649   3.938   3.864   4.835 -0.3338 -0.6303 -0.1446
 7917SOL    HW124650   3.883   3.914   4.768  0.2562 -0.0188 -0.1800
 7917SOL    HW224651   3.931   3.908   4.924  1.7319  0.7388 -0.5820
 7918SOL     OW24652   5.483   1.834   3.662  0.4798 -0.4108  0.2482
 7918SOL    HW124653   5.558   1.897   3.680  1.6421 -1.8159  0.5808
 7918SOL    HW224654   5.403   1.859   3.717  1.3421  0.0265  1.3267
 7919SOL     OW24655   6.890   3.971   4.553 -0.3768  0.5798 -0.0676
 7919SOL    HW124656   6.850   3.974   4.461 -2.7682 -0.3763  0.8516
 7919SOL    HW224657   6.844   4.038   4.611  0.7824  0.8445  0.5714
 7920SOL     OW24658   6.211   0.444   0.595 -0.1956  0.4089 -0.4203
 7920SOL    HW124659   6.305   0.409   0.605  0.1366  0.5042 -2.6359
 7920SOL    HW224660   6.214   0.535   0.555 -1.2327  0.6874  0.1134
 7921SOL     OW24661   2.495   6.132   1.053 -0.1426 -0.2791 -0.0667
 7921SOL    HW124662   2.515   6.037   1.031 -1.8777 -0.5630 -0.5707
 7921SOL    HW224663   2.567   6.169   1.112  0.4547 -1.9414  0.2866
 7922SOL     OW24664   1.527   3.272   4.438 -0.3279  0.7487  0.0005
 7922SOL    HW124665   1.514   3.283   4.340 -0.2953  1.0172  0.0243
 7922SOL    HW224666   1.545   3.362   4.479 -2.0907  0.9084  0.5035
 7923SOL     OW24667   2.092   3.656   2.228  0.3351 -0.2122  0.0522
 7923SOL    HW124668   2.164   3.605   2.179 -0.4064 -0.8667 -0.3878
 7923SOL    HW224669   2.013   3.667   2.167  0.6795  1.9841 -0.0602
 7924SOL     OW24670   2.555   1.021   5.422 -0.6333 -0.2935 -0.5025
 7924SOL    HW124671   2.565   0.947   5.489  0.3301 -1.2155 -1.6345
 7924SOL    HW224672   2.461   1.056   5.425 -0.9404 -1.1523  0.4647
 7925SOL     OW24673   3.401   2.029   0.728  0.3051  0.0642 -0.0936
 7925SOL    HW124674   3.476   2.092   0.706  0.4927  0.0241  0.4158
 7925SOL    HW224675   3.323   2.048   0.669  0.7414  0.0589 -0.6864
 7926SOL     OW24676   4.527   0.757   2.731  0.1171  0.5362  0.2482
 7926SOL    HW124677   4.610   0.812   2.737 -0.0065  0.6072  1.4760
 7926SOL    HW224678   4.513   0.707   2.817 -0.2476 -0.7299 -0.5215
 7927SOL     OW24679   3.259   5.408   5.068  0.0558  0.7271  0.6399
 7927SOL    HW124680   3.326   5.466   5.024  0.0982 -0.8337 -1.5199
 7927SOL    HW224681   3.191   5.378   5.001 -0.9345 -0.3286  2.0487
 7928SOL     OW24682   6.189   3.650   0.437  0.2955  0.0646  0.1459
 7928SOL    HW124683   6.216   3.736   0.480  0.5865  0.1962 -0.2958
 7928SOL    HW224684   6.103   3.619   0.478  0.4615  0.2881  0.6791
 7929SOL     OW24685   3.958   3.806   3.246 -0.7772 -0.9879 -0.2451
 7929SOL    HW124686   4.019   3.746   3.297 -0.7562 -1.0520 -0.3456
 7929SOL    HW224687   4.003   3.834   3.161 -0.1378  0.4301  0.5076
 7930SOL     OW24688   4.673   6.046   1.968  0.3577 -0.5173 -0.2391
 7930SOL    HW124689   4.601   5.979   1.950  0.0967 -0.4159  0.4016
 7930SOL    HW224690   4.744   6.037   1.899  0.9684 -2.3445  0.5513
 7931SOL     OW24691   2.565   1.614   5.371  0.3490 -0.2795  0.4548
 7931SOL    HW124692   2.538   1.694   5.318 -0.0752  0.0412  1.1310
 7931SOL    HW224693   2.663   1.617   5.389  0.5236 -0.4776 -0.4381
 7932SOL     OW24694   4.967   2.273   1.865  0.4803 -1.0657  0.7024
 7932SOL    HW124695   4.898   2.343   1.846 -0.1218 -1.8624 -0.1204
 7932SOL    HW224696   4.925   2.198   1.915  1.1360 -0.8391  1.6191
 7933SOL     OW24697   2.651   2.657   0.343 -0.1698  0.8282 -0.3841
 7933SOL    HW124698   2.557   2.651   0.307 -0.3932 -0.5843  0.3929
 7933SOL    HW224699   2.674   2.573   0.391  0.8032  1.9293  1.1514
 7934SOL     OW24700   4.544   3.203   5.439 -0.3463 -0.3697 -0.0416
 7934SOL    HW124701   4.624   3.262   5.428 -1.3517  0.7651 -1.7896
 7934SOL    HW224702   4.463   3.250   5.405 -1.3206 -2.5257 -0.9154
 7935SOL     OW24703   6.304   4.338   1.786  1.0098 -0.4921 -0.1905
 7935SOL    HW124704   6.314   4.286   1.701 -0.8199  0.6869 -1.2073
 7935SOL    HW224705   6.363   4.419   1.783  0.9390 -0.4459 -0.3529
 7936SOL     OW24706   3.481   5.514   0.220 -0.3246  0.3018 -0.6062
 7936SOL    HW124707   3.433   5.524   0.132  0.6154 -0.4736 -1.2239
 7936SOL    HW224708   3.556   5.581   0.225  0.3083 -0.3743 -0.8762
 7937SOL     OW24709   4.852   2.450   6.693 -0.0308 -0.0553 -0.0418
 7937SOL    HW124710   4.885   2.507   6.768 -2.0922 -0.4650  1.2512
 7937SOL    HW224711   4.755   2.470   6.675  0.4052  0.0839 -2.6848
 7938SOL     OW24712   6.452   4.815   5.505 -0.1531 -0.3906 -0.3893
 7938SOL    HW124713   6.360   4.777   5.513  0.1034 -0.8082  0.6404
 7938SOL    HW224714   6.447   4.915   5.501 -0.7555 -0.4565 -2.0799
 7939SOL     OW24715   0.061   5.992   3.586 -0.4942 -0.2201  0.0135
 7939SOL    HW124716   0.008   5.966   3.667 -1.1473  0.6491 -0.1160
 7939SOL    HW224717   0.142   5.934   3.579 -1.5491 -1.7652  0.0720
 7940SOL     OW24718   1.147   0.392   6.397 -0.6235  0.2503 -0.2998
 7940SOL    HW124719   1.109   0.372   6.307 -1.4233  0.7939 -0.1030
 7940SOL    HW224720   1.088   0.459   6.443  0.6931  1.2740 -0.0505
 7941SOL     OW24721   0.239   0.121   1.793  0.3112  0.4243 -0.3029
 7941SOL    HW124722   0.313   0.186   1.773  0.2945  0.3044 -0.7496
 7941SOL    HW224723   0.244   0.045   1.729  0.1090  0.1624 -0.0052
 7942SOL     OW24724   1.621   0.287   0.033 -0.2172 -0.0352  0.1552
 7942SOL    HW124725   1.588   0.381   0.019  0.2428 -0.3001 -3.6114
 7942SOL    HW224726   1.552   0.235   0.084 -1.4788  1.7528  0.3633
 7943SOL     OW24727   6.158   4.198   4.220  0.6335  0.5059 -0.1755
 7943SOL    HW124728   6.188   4.165   4.310 -1.2197  0.5172  0.4894
 7943SOL    HW224729   6.115   4.123   4.170  2.0666  0.3847 -1.2718
 7944SOL     OW24730   1.015   3.254   3.229  0.0726 -0.6454 -0.3279
 7944SOL    HW124731   1.081   3.285   3.161 -0.6457  2.0076  0.0415
 7944SOL    HW224732   1.060   3.247   3.318  0.2895 -0.7594 -0.4478
 7945SOL     OW24733   6.501   6.107   6.418 -0.2774  0.4035  0.1340
 7945SOL    HW124734   6.506   6.116   6.319  1.6499 -0.4064  0.1166
 7945SOL    HW224735   6.577   6.156   6.460 -0.9183  0.5126  1.2135
 7946SOL     OW24736   2.054   0.339   5.785  0.0295  0.3747  0.9306
 7946SOL    HW124737   2.050   0.271   5.859 -0.3513 -0.2058  0.3954
 7946SOL    HW224738   2.068   0.291   5.698  0.5901  1.0599  0.6405
 7947SOL     OW24739   3.083   0.279   5.158  0.0593  0.1167  0.0170
 7947SOL    HW124740   3.059   0.182   5.164  0.1269  0.0332 -0.9436
 7947SOL    HW224741   3.083   0.308   5.062  0.2610  1.0142  0.2756
 7948SOL     OW24742   0.754   5.730   4.351 -0.3604  0.2464 -0.0615
 7948SOL    HW124743   0.733   5.760   4.444 -0.4318 -1.6007  0.5661
 7948SOL    HW224744   0.685   5.664   4.322 -0.7407  1.3237 -1.7380
 7949SOL     OW24745   0.592   2.353   4.506 -0.0640  0.5407 -0.1034
 7949SOL    HW124746   0.511   2.329   4.452  0.1034  2.0015 -1.0670
 7949SOL    HW224747   0.580   2.445   4.543 -0.7438 -0.8166  3.5193
 7950SOL     OW24748   3.071   0.278   3.656 -0.1037 -0.3738 -0.3791
 7950SOL    HW124749   2.973   0.281   3.634  0.0682 -0.2012 -1.1548
 7950SOL    HW224750   3.108   0.370   3.658 -0.0161 -0.4199  0.2084
 7951SOL     OW24751   3.298   3.427   1.887  0.4995  0.6785  0.1589
 7951SOL    HW124752   3.389   3.390   1.904  0.0747  0.1792  1.5126
 7951SOL    HW224753   3.284   3.439   1.789  1.3187 -1.0876 -0.2122
 7952SOL     OW24754   6.285   3.972   1.088 -0.4582  0.1876 -0.2995
 7952SOL    HW124755   6.262   4.053   1.034  0.1501  0.2365 -0.4964
 7952SOL    HW224756   6.239   3.892   1.050 -0.0968  0.2363 -0.8439
 7953SOL     OW24757   2.838   5.284   1.515 -0.0342 -0.2422  0.1482
 7953SOL    HW124758   2.788   5.245   1.592 -0.4886  2.2768  1.2138
 7953SOL    HW224759   2.831   5.223   1.436 -2.2148 -1.3985  1.1595
 7954SOL     OW24760   6.453   5.112   3.847 -0.2719  0.8848  0.2698
 7954SOL    HW124761   6.539   5.094   3.894  0.7312  0.1503 -1.7531
 7954SOL    HW224762   6.386   5.147   3.913  1.1419  0.2297  2.1385
 7955SOL     OW24763   1.539   6.477   5.674  0.0322 -0.0546 -0.0938
 7955SOL    HW124764   1.453   6.491   5.625 -0.3239  0.2908  0.6041
 7955SOL    HW224765   1.538   6.389   5.721 -0.4332  0.4375  0.8572
 7956SOL     OW24766   5.873   5.645   4.014  0.6675  0.5067  0.4097
 7956SOL    HW124767   5.779   5.628   3.984  0.6419  1.4134 -0.0713
 7956SOL    HW224768   5.880   5.632   4.113  0.0701  0.3157  0.4306
 7957SOL     OW24769   0.678   2.264   2.274 -0.6765 -0.4538 -0.0976
 7957SOL    HW124770   0.767   2.278   2.318 -1.6026  0.1628  1.6819
 7957SOL    HW224771   0.650   2.348   2.227  0.2842 -1.0930 -1.9189
 7958SOL     OW24772   2.261   4.427   5.358  0.1289 -0.5117  0.1013
 7958SOL    HW124773   2.288   4.344   5.407 -0.1441 -0.8254 -0.2680
 7958SOL    HW224774   2.161   4.430   5.351  0.0044  0.8996  1.9070
 7959SOL     OW24775   5.612   4.366   2.183  0.1944  0.2134  0.1456
 7959SOL    HW124776   5.594   4.301   2.257 -0.7196  1.1060  0.7328
 7959SOL    HW224777   5.653   4.449   2.221  0.2860  0.4406 -0.4452
 7960SOL     OW24778   2.126   0.330   1.622  0.6671  0.3871 -0.2715
 7960SOL    HW124779   2.035   0.370   1.621  1.2859  2.0712  1.6669
 7960SOL    HW224780   2.189   0.389   1.573  1.2024  0.7557  0.8101
 7961SOL     OW24781   1.810   1.973   0.000 -0.3173 -0.3094  0.0666
 7961SOL    HW124782   1.884   2.015   0.052 -0.0774  1.8953 -1.8897
 7961SOL    HW224783   1.786   1.885   0.042  2.9218 -0.8210  1.1482
 7962SOL     OW24784   1.116   0.401   3.226 -0.2377  0.0552  0.4292
 7962SOL    HW124785   1.115   0.423   3.323  1.5117  2.5776 -0.0460
 7962SOL    HW224786   1.204   0.360   3.202 -0.3306  0.2413 -0.2509
 7963SOL     OW24787   0.103   6.232   0.283 -0.6580 -0.5107 -0.0435
 7963SOL    HW124788   0.082   6.167   0.209  1.0313 -2.1973  0.8961
 7963SOL    HW224789   0.146   6.313   0.244 -0.3383 -1.1158 -0.9918
 7964SOL     OW24790   5.559   5.741   4.201 -0.3141 -0.0762  0.3935
 7964SOL    HW124791   5.587   5.799   4.125 -3.5421  0.5997 -0.4280
 7964SOL    HW224792   5.558   5.794   4.286  1.5370 -0.3543  0.6337
 7965SOL     OW24793   3.110   0.843   0.947  0.0451  0.1081  0.1620
 7965SOL    HW124794   3.027   0.789   0.958 -1.0506  1.1464 -2.1750
 7965SOL    HW224795   3.106   0.923   1.007 -1.4481  0.9747 -1.0289
 7966SOL     OW24796   7.011   2.257   3.420  0.4471 -0.8767 -0.1859
 7966SOL    HW124797   7.025   2.348   3.458  0.7059 -0.0685 -2.0989
 7966SOL    HW224798   7.100   2.217   3.397  0.2307 -0.6778 -1.3992
 7967SOL     OW24799   2.612   1.102   5.722 -0.4347 -0.0253 -0.2738
 7967SOL    HW124800   2.601   1.182   5.781  0.0565  0.6466 -1.0820
 7967SOL    HW224801   2.689   1.116   5.661  2.2013 -2.6749  2.1278
 7968SOL     OW24802   2.754   2.523   6.705 -0.1283 -0.1959  0.4952
 7968SOL    HW124803   2.746   2.608   6.652  0.1490 -0.5260 -0.0949
 7968SOL    HW224804   2.726   2.539   6.799 -1.7380  0.1491 -0.0056
 7969SOL     OW24805   5.002   1.388   3.092 -1.1319 -0.4562 -0.0764
 7969SOL    HW124806   5.061   1.387   3.011 -0.0503  1.2792  0.6280
 7969SOL    HW224807   4.921   1.332   3.075 -0.4278 -0.9848 -1.9530
 7970SOL     OW24808   1.868   3.783   2.759  0.4065 -0.1258  0.4625
 7970SOL    HW124809   1.870   3.882   2.741  0.2133  0.5461  3.5768
 7970SOL    HW224810   1.957   3.743   2.739  1.1260  1.1154  1.0847
 7971SOL     OW24811   2.887   1.588   2.048 -0.7335 -0.0986 -0.0458
 7971SOL    HW124812   2.902   1.511   1.987  0.7385  0.2544 -0.1584
 7971SOL    HW224813   2.877   1.672   1.994  0.5049  0.2053  0.1676
 7972SOL     OW24814   4.820   5.368   0.849 -0.3510  0.2368 -0.1583
 7972SOL    HW124815   4.762   5.288   0.861 -0.7025  0.4510 -0.4078
 7972SOL    HW224816   4.905   5.341   0.802 -0.1778 -0.1021  0.3417
 7973SOL     OW24817   4.540   2.415   2.475 -0.3742  0.0287 -0.3861
 7973SOL    HW124818   4.591   2.497   2.451  0.5440 -0.4258 -0.0688
 7973SOL    HW224819   4.466   2.401   2.409  0.9525 -0.2051 -1.9013
 7974SOL     OW24820   5.028   0.812   3.770  0.0910  0.8725 -0.0601
 7974SOL    HW124821   5.059   0.907   3.766 -0.4480  1.0679  0.2707
 7974SOL    HW224822   4.975   0.798   3.854 -0.4355  0.4639 -0.4565
 7975SOL     OW24823   2.679   1.810   2.395 -0.4292  0.0023 -0.3319
 7975SOL    HW124824   2.658   1.881   2.328  0.9876 -0.3186 -1.1662
 7975SOL    HW224825   2.624   1.728   2.376 -0.3751  0.0756 -0.8134
 7976SOL     OW24826   1.039   5.356   4.813  0.3555  0.4028  0.3971
 7976SOL    HW124827   0.968   5.337   4.746  1.5790  0.5403 -0.9759
 7976SOL    HW224828   1.127   5.323   4.780  0.6360 -1.8443  3.0563
 7977SOL     OW24829   5.983   6.740   1.509 -0.1925  0.2544  0.1688
 7977SOL    HW124830   5.907   6.804   1.498 -0.6867 -0.2130  0.8423
 7977SOL    HW224831   6.007   6.702   1.419 -1.6607 -0.6262  0.1154
 7978SOL     OW24832   2.946   1.425   5.566 -0.1086 -0.2197 -0.0002
 7978SOL    HW124833   3.026   1.415   5.624 -0.8240  0.0215  1.0593
 7978SOL    HW224834   2.949   1.358   5.492  1.9950  1.0062 -1.1146
 7979SOL     OW24835   5.194   5.255   5.618 -0.3594  0.1333  0.1161
 7979SOL    HW124836   5.189   5.162   5.654 -0.8635 -0.0485 -0.3945
 7979SOL    HW224837   5.188   5.320   5.693 -1.9503 -0.2279  0.3513
 7980SOL     OW24838   0.288   6.966   1.379 -0.5941 -0.5640 -0.1942
 7980SOL    HW124839   0.361   6.934   1.319 -0.3514 -0.8536  0.2510
 7980SOL    HW224840   0.200   6.954   1.334 -0.4757 -1.4939 -0.1978
 7981SOL     OW24841   2.507   0.233   3.457  0.1329 -0.8073 -0.3640
 7981SOL    HW124842   2.531   0.182   3.374  1.5274  0.0365 -0.5173
 7981SOL    HW224843   2.415   0.270   3.447 -0.7962 -2.9589 -0.3785
 7982SOL     OW24844   0.979   2.947   0.504  0.1164  0.1058 -0.1658
 7982SOL    HW124845   0.952   2.854   0.529  0.3144 -0.3718 -1.6379
 7982SOL    HW224846   1.079   2.955   0.507  0.0762  0.4507  0.5063
 7983SOL     OW24847   4.296   1.628   1.923 -0.2510  0.2613 -0.2429
 7983SOL    HW124848   4.213   1.648   1.871 -0.6154  1.2294  0.6657
 7983SOL    HW224849   4.374   1.624   1.861 -0.8569  0.1520 -1.0135
 7984SOL     OW24850   4.923   2.419   5.757 -0.1512  0.0188  0.8430
 7984SOL    HW124851   4.867   2.336   5.754 -1.4089  0.7908  1.9509
 7984SOL    HW224852   5.017   2.395   5.782 -0.1226 -1.2250 -0.3426
 7985SOL     OW24853   0.353   2.279   1.568 -0.1433  0.3875 -0.3134
 7985SOL    HW124854   0.261   2.320   1.571 -0.4272 -0.2637  0.0438
 7985SOL    HW224855   0.389   2.273   1.662  0.6066  1.3802 -0.5147
 7986SOL     OW24856   4.673   5.269   0.233 -0.0447  0.0054 -0.3182
 7986SOL    HW124857   4.719   5.348   0.193 -0.7724  1.0105  0.7843
 7986SOL    HW224858   4.612   5.228   0.166 -1.0579  1.5095 -0.3477
 7987SOL     OW24859   1.912   4.240   6.449  0.0738  0.1120 -0.0432
 7987SOL    HW124860   1.814   4.254   6.458 -0.1231 -1.6150  0.9974
 7987SOL    HW224861   1.948   4.297   6.375 -1.5780  1.2673 -0.0016
 7988SOL     OW24862   0.730   1.516   6.528 -0.3304 -0.3085  0.0458
 7988SOL    HW124863   0.647   1.545   6.575  0.0454  0.4923  0.2429
 7988SOL    HW224864   0.800   1.587   6.539  0.4236 -1.0392  0.0107
 7989SOL     OW24865   2.982   5.427   0.408 -0.4516 -0.0544 -0.1749
 7989SOL    HW124866   2.953   5.331   0.406  0.2373 -0.3765  1.9239
 7989SOL    HW224867   3.082   5.432   0.409 -0.4656  0.5675  1.1343
 7990SOL     OW24868   1.706   1.272   5.665 -0.1288  0.9142  0.0806
 7990SOL    HW124869   1.782   1.224   5.620  0.3466  0.9011  0.8869
 7990SOL    HW224870   1.742   1.332   5.736 -0.8619  1.0873  0.3148
 7991SOL     OW24871   3.116   3.977   4.930 -0.3067 -0.7237 -0.2746
 7991SOL    HW124872   3.031   3.932   4.958 -1.6031  0.3638 -2.2431
 7991SOL    HW224873   3.161   4.017   5.010 -2.5164  0.0985  0.6185
 7992SOL     OW24874   1.520   1.056   1.674  0.0923 -0.0313  0.0716
 7992SOL    HW124875   1.568   0.989   1.730  1.1215 -0.6438 -1.4722
 7992SOL    HW224876   1.584   1.125   1.642  0.0879 -1.0304 -2.2833
 7993SOL     OW24877   2.157   5.031   6.043  0.4397 -0.6214 -0.5638
 7993SOL    HW124878   2.195   5.008   5.954  0.1565 -1.4093 -0.4920
 7993SOL    HW224879   2.176   4.957   6.108  1.4816  0.3590  0.2980
 7994SOL     OW24880   6.010   6.852   5.283 -0.2399 -0.9680  0.3697
 7994SOL    HW124881   6.065   6.868   5.201  0.8987  2.1155  1.5409
 7994SOL    HW224882   5.916   6.881   5.267 -0.3206 -1.5469 -0.2042
 7995SOL     OW24883   4.018   4.746   2.184 -0.3900  0.1434 -0.1612
 7995SOL    HW124884   4.067   4.715   2.265  0.0980  2.3899  0.4763
 7995SOL    HW224885   4.068   4.717   2.102  0.4626 -0.0313  0.4093
 7996SOL     OW24886   4.000   1.501   4.183  0.3223 -0.2822  0.3426
 7996SOL    HW124887   4.092   1.501   4.221 -0.2971  1.5501  2.0469
 7996SOL    HW224888   3.961   1.409   4.191  2.2058 -1.2750 -1.1163
 7997SOL     OW24889   5.349   3.552   0.912  0.0393 -0.2405  0.2790
 7997SOL    HW124890   5.302   3.638   0.893 -0.7269 -0.6006  0.4966
 7997SOL    HW224891   5.342   3.531   1.010  2.5798  0.8001  0.7686
 7998SOL     OW24892   6.235   0.422   6.157 -0.1750  0.7601  0.1546
 7998SOL    HW124893   6.287   0.418   6.071  0.6793  0.1427  0.6835
 7998SOL    HW224894   6.298   0.439   6.233 -0.9985  1.8919  0.6024
 7999SOL     OW24895   2.638   2.350   6.097  0.5664  0.3524  0.4561
 7999SOL    HW124896   2.578   2.412   6.046  0.9514 -0.5776 -1.2195
 7999SOL    HW224897   2.614   2.255   6.074  0.8717 -0.0973  1.9195
 8000SOL     OW24898   4.876   0.960   6.563  0.2669  0.0362 -0.0323
 8000SOL    HW124899   4.925   0.883   6.523  1.3326  0.9404 -0.5072
 8000SOL    HW224900   4.777   0.946   6.551  0.4168 -1.4537  0.2979
 8001SOL     OW24901   4.709   5.032   2.838  0.0407  0.4559 -0.8243
 8001SOL    HW124902   4.738   5.032   2.934 -0.3539 -0.0606 -0.7020
 8001SOL    HW224903   4.611   5.015   2.833  0.2161 -0.5004 -1.3553
 8002SOL     OW24904   4.140   1.713   5.988 -0.0112  0.2019 -0.2644
 8002SOL    HW124905   4.108   1.631   6.036 -1.5144  0.3675 -0.9232
 8002SOL    HW224906   4.123   1.702   5.890 -0.5498  1.4287 -0.3189
 8003SOL     OW24907   6.869   5.278   4.064 -0.2608  0.4528  0.8792
 8003SOL    HW124908   6.940   5.280   3.993 -0.6924  0.2317  0.4300
 8003SOL    HW224909   6.910   5.255   4.152  0.8188  3.6838  1.3625
 8004SOL     OW24910   1.646   5.373   4.282 -0.0029  0.3434  0.5257
 8004SOL    HW124911   1.635   5.400   4.186  1.8831  0.5342  0.3293
 8004SOL    HW224912   1.737   5.336   4.296 -0.0859  0.7254  2.3533
 8005SOL     OW24913   3.023   1.855   5.943 -0.4105 -0.7862 -0.4890
 8005SOL    HW124914   3.114   1.836   5.906 -0.2770  0.1969 -0.6946
 8005SOL    HW224915   3.018   1.825   6.038  0.8663  1.1300  0.2281
 8006SOL     OW24916   4.935   6.602   3.610 -0.2879 -0.3695  0.3182
 8006SOL    HW124917   4.852   6.603   3.554 -0.8497 -0.3836  1.1199
 8006SOL    HW224918   4.942   6.688   3.660 -0.8914 -1.1075  1.7413
 8007SOL     OW24919   1.135   1.900   2.659  0.2187  0.1550 -0.1445
 8007SOL    HW124920   1.095   1.989   2.636 -2.5987 -0.6355  1.3071
 8007SOL    HW224921   1.163   1.854   2.575  0.4758  1.8276 -1.0249
 8008SOL     OW24922   0.948   3.267   2.268  0.1765 -0.4473  0.4023
 8008SOL    HW124923   0.991   3.344   2.316 -0.6392  1.5190 -1.8298
 8008SOL    HW224924   1.013   3.191   2.263  3.0139  1.8649 -1.5132
 8009SOL     OW24925   6.245   0.198   3.074  0.0026 -0.2544  0.0328
 8009SOL    HW124926   6.158   0.154   3.052  0.3602 -1.5112  1.0129
 8009SOL    HW224927   6.291   0.147   3.147  1.7474  0.1556 -0.7235
 8010SOL     OW24928   1.763   2.903   1.722 -0.1155  0.0892  0.3024
 8010SOL    HW124929   1.796   2.975   1.784 -0.7327  0.9885 -0.3936
 8010SOL    HW224930   1.756   2.940   1.629  0.2601 -1.0869 -0.2110
 8011SOL     OW24931   2.070   3.164   1.344 -0.0733 -0.3844  0.3738
 8011SOL    HW124932   1.994   3.099   1.337 -0.6814  0.2440  1.0705
 8011SOL    HW224933   2.055   3.226   1.420  1.5320 -0.7377  1.0244
 8012SOL     OW24934   6.940   6.660   4.240 -0.4709  0.8239 -0.3830
 8012SOL    HW124935   6.925   6.630   4.146 -0.9132 -0.3437  0.0454
 8012SOL    HW224936   6.853   6.674   4.286 -0.2880 -0.2446  0.3409
 8013SOL     OW24937   4.838   6.731   4.314 -0.1541 -0.0159  0.9613
 8013SOL    HW124938   4.811   6.646   4.359 -1.3679 -0.1413  0.0468
 8013SOL    HW224939   4.759   6.791   4.305  0.2449  0.3669 -0.1937
 8014SOL     OW24940   1.982   2.580   6.288 -0.8245 -0.1158  0.3936
 8014SOL    HW124941   1.907   2.522   6.253 -0.0463  0.0108 -1.6552
 8014SOL    HW224942   2.067   2.528   6.285 -0.1512  1.0134 -1.2852
 8015SOL     OW24943   1.890   6.816   0.375  0.2028  0.0974  0.2725
 8015SOL    HW124944   1.814   6.823   0.311 -0.0950  0.9955  0.7154
 8015SOL    HW224945   1.929   6.906   0.391  1.8809 -0.4433 -0.5493
 8016SOL     OW24946   4.569   4.705   1.797 -0.6803  0.0619 -0.7344
 8016SOL    HW124947   4.603   4.788   1.842  1.0884  0.1322 -2.1016
 8016SOL    HW224948   4.503   4.660   1.857  0.6587  0.7676  1.3971
 8017SOL     OW24949   5.914   2.715   5.559 -0.2385  0.2644 -0.2338
 8017SOL    HW124950   5.874   2.639   5.610 -0.5460  1.5068  1.4921
 8017SOL    HW224951   5.846   2.753   5.497 -0.5199 -0.0019 -0.0910
 8018SOL     OW24952   6.244   4.012   4.397 -0.3040 -0.3943  0.4318
 8018SOL    HW124953   6.344   4.015   4.387 -0.3044 -2.4324 -0.7606
 8018SOL    HW224954   6.214   3.916   4.401 -2.2568  0.1811  0.4046
 8019SOL     OW24955   3.100   6.401   1.148 -0.4461 -0.3014 -0.0750
 8019SOL    HW124956   3.043   6.387   1.228 -0.6199  0.4161 -0.0668
 8019SOL    HW224957   3.155   6.484   1.160 -1.0690  0.2660 -1.0270
 8020SOL     OW24958   5.613   6.844   6.909 -0.0325  0.4613  0.3645
 8020SOL    HW124959   5.639   6.752   6.937 -1.9560 -0.0529  0.6625
 8020SOL    HW224960   5.516   6.859   6.931  0.3941  2.7901  0.8935
 8021SOL     OW24961   6.465   0.302   1.974 -0.8030 -0.3980  0.1123
 8021SOL    HW124962   6.554   0.289   2.018  0.4017 -0.0161 -2.0566
 8021SOL    HW224963   6.465   0.388   1.924 -1.8772 -1.0488 -1.0688
 8022SOL     OW24964   5.680   5.307   2.949 -0.1529  0.3008  0.8995
 8022SOL    HW124965   5.655   5.386   2.893 -1.6627  0.5023  1.8145
 8022SOL    HW224966   5.632   5.226   2.916 -0.2255  0.2028  1.2410
 8023SOL     OW24967   6.894   6.047   4.890 -0.1400 -0.0006  0.9765
 8023SOL    HW124968   6.837   6.129   4.897  1.3649  1.0395  1.7045
 8023SOL    HW224969   6.838   5.965   4.904 -2.0229  0.7544 -1.5240
 8024SOL     OW24970   0.003   5.381   2.461 -0.0269  0.3865  0.5967
 8024SOL    HW124971  -0.007   5.383   2.560 -1.9098  1.8209  0.4375
 8024SOL    HW224972  -0.079   5.339   2.420 -1.2081  3.4111 -0.4419
 8025SOL     OW24973   1.946   0.381   6.357 -0.2018  0.5216  0.8199
 8025SOL    HW124974   2.015   0.431   6.307 -0.8624 -0.6895 -1.4307
 8025SOL    HW224975   1.985   0.348   6.444  1.7612  0.5952  0.0131
 8026SOL     OW24976   3.066   1.831   6.530 -0.3650 -0.5745 -0.0055
 8026SOL    HW124977   2.977   1.867   6.560  0.9176  2.0439  0.9628
 8026SOL    HW224978   3.132   1.836   6.605  1.1153 -0.5968 -1.2558
 8027SOL     OW24979   4.192   1.922   5.158  0.0795  0.7139 -0.9116
 8027SOL    HW124980   4.175   1.970   5.072  0.5867  1.2656 -0.7072
 8027SOL    HW224981   4.104   1.899   5.201 -0.1700  1.1059 -1.2070
 8028SOL     OW24982   6.549   4.245   1.046 -0.5240  0.1755 -0.3034
 8028SOL    HW124983   6.628   4.195   1.080 -0.9444  0.2661  0.8596
 8028SOL    HW224984   6.545   4.335   1.090 -1.4142  0.0596 -0.1199
 8029SOL     OW24985   3.284   4.102   5.665 -0.2934 -0.0242 -0.1704
 8029SOL    HW124986   3.347   4.174   5.635 -0.0176 -0.0334  0.3778
 8029SOL    HW224987   3.336   4.019   5.685 -0.0928  0.7246  2.8241
 8030SOL     OW24988   1.252   2.805   2.965  0.2936  0.0349  0.2328
 8030SOL    HW124989   1.338   2.755   2.951 -0.1054 -0.1962 -1.6136
 8030SOL    HW224990   1.270   2.904   2.959  0.4594 -0.0023  0.1020
 8031SOL     OW24991   4.347   0.201   6.981  0.5381  0.1278  0.0328
 8031SOL    HW124992   4.261   0.231   6.938  0.5474  0.8288  0.4863
 8031SOL    HW224993   4.336   0.109   7.017 -0.5007  0.7549  1.3831
 8032SOL     OW24994   3.974   2.291   5.251 -0.3578  0.2552 -0.2729
 8032SOL    HW124995   3.914   2.332   5.320  1.5055 -1.6936  2.7326
 8032SOL    HW224996   4.048   2.355   5.229  1.0591 -0.3017  2.4086
 8033SOL     OW24997   5.055   6.830   3.351 -0.3285 -0.0576 -0.4943
 8033SOL    HW124998   5.139   6.786   3.382 -1.0223 -2.3805 -1.6295
 8033SOL    HW224999   5.061   6.929   3.365  2.0568 -0.2950  0.5906
 8034SOL     OW25000   6.570   3.811   4.525  0.2117  0.1198 -0.5946
 8034SOL    HW125001   6.659   3.766   4.527  1.2039  2.0094  0.6058
 8034SOL    HW225002   6.498   3.742   4.513  1.7829 -1.4918 -1.1332
 8035SOL     OW25003   4.664   4.078   6.420  0.1191 -0.4487 -0.5338
 8035SOL    HW125004   4.665   4.161   6.364 -0.9914 -0.7088 -0.9564
 8035SOL    HW225005   4.656   3.998   6.361 -2.4310 -0.6718 -0.0093
 8036SOL     OW25006   1.485   3.441   2.132  0.2992  0.3226 -0.6854
 8036SOL    HW125007   1.486   3.372   2.205 -0.2795  0.4297 -0.5736
 8036SOL    HW225008   1.577   3.480   2.122  0.4710  0.0313 -0.2786
 8037SOL     OW25009   2.167   3.748   1.920 -0.0503  0.0528 -0.0209
 8037SOL    HW125010   2.192   3.755   1.823 -0.6355 -0.7852 -0.2430
 8037SOL    HW225011   2.199   3.661   1.956 -2.7002 -1.1679 -0.3694
 8038SOL     OW25012   5.920   3.510   3.708 -0.0637  0.4768  0.7208
 8038SOL    HW125013   5.932   3.412   3.693  3.2650  0.8707  0.2604
 8038SOL    HW225014   6.002   3.560   3.679 -1.0001  3.2626  2.4229
 8039SOL     OW25015   0.864   4.380   1.133  0.0260  0.4205  0.1330
 8039SOL    HW125016   0.874   4.417   1.225  0.0530 -0.4020  0.4628
 8039SOL    HW225017   0.935   4.420   1.074  0.5234  0.3307  0.6619
 8040SOL     OW25018   5.602   0.740   5.544  0.3283  0.4425  0.1999
 8040SOL    HW125019   5.659   0.690   5.479  0.4385  1.7098 -0.7036
 8040SOL    HW225020   5.644   0.829   5.563  0.0857  0.2721  1.7075
 8041SOL     OW25021   1.588   1.616   2.274 -0.2681  0.7820 -0.0232
 8041SOL    HW125022   1.606   1.561   2.356 -2.5425  0.0572  0.0668
 8041SOL    HW225023   1.593   1.557   2.193  0.9409  1.2770 -0.3306
 8042SOL     OW25024   2.277   4.586   5.574  0.0821 -0.1358 -0.0879
 8042SOL    HW125025   2.367   4.564   5.610 -0.0019  1.1684  1.0470
 8042SOL    HW225026   2.266   4.547   5.483  2.2438  0.6517 -0.7581
 8043SOL     OW25027   2.094   0.368   0.440  0.0822 -0.0942  0.7535
 8043SOL    HW125028   2.126   0.330   0.527  1.4986  0.3902  0.4657
 8043SOL    HW225029   2.153   0.336   0.366 -0.5869  0.2018  0.0825
 8044SOL     OW25030   1.328   4.118   0.864  0.1454 -0.0940 -1.1202
 8044SOL    HW125031   1.306   4.025   0.834  0.7045  0.2052 -2.5531
 8044SOL    HW225032   1.272   4.183   0.814 -0.1571  0.3619 -0.2092
 8045SOL     OW25033   4.617   2.075   3.325  0.6114  0.1942 -0.8443
 8045SOL    HW125034   4.676   2.005   3.284  1.2690 -0.8299  1.7050
 8045SOL    HW225035   4.521   2.049   3.314  0.8486 -1.1204  0.0411
 8046SOL     OW25036   6.599   5.552   6.132  0.2154 -0.4334  0.2399
 8046SOL    HW125037   6.585   5.552   6.231 -0.0867  2.4540  0.2892
 8046SOL    HW225038   6.696   5.570   6.112  0.5255 -2.2241 -0.0447
 8047SOL     OW25039   3.446   1.114   4.376 -0.5710  0.6231  0.3470
 8047SOL    HW125040   3.494   1.202   4.371  0.6753  0.0386  1.4184
 8047SOL    HW225041   3.458   1.075   4.467 -0.5570 -0.9664 -0.3080
 8048SOL     OW25042   6.272   0.420   4.552  0.2975  0.1227 -0.0847
 8048SOL    HW125043   6.266   0.348   4.620  1.8512 -0.5596 -0.6175
 8048SOL    HW225044   6.181   0.441   4.517 -0.2535 -1.1384  0.5286
 8049SOL     OW25045   3.412   6.714   4.714  0.0480  0.2359 -0.3703
 8049SOL    HW125046   3.352   6.640   4.686  1.0560 -0.9790  0.5822
 8049SOL    HW225047   3.507   6.682   4.715  0.4810  1.4678  0.2764
 8050SOL     OW25048   1.903   3.891   3.096 -0.5516  0.6840  0.0448
 8050SOL    HW125049   1.880   3.837   3.015  1.3150  0.4251 -0.3544
 8050SOL    HW225050   1.899   3.988   3.073  2.1278  0.6070 -1.0719
 8051SOL     OW25051   0.670   1.339   3.230 -0.0683 -0.4637  0.0181
 8051SOL    HW125052   0.747   1.337   3.166 -0.0423 -1.4448  0.0547
 8051SOL    HW225053   0.637   1.433   3.240 -0.1990 -0.2991 -1.5873
 8052SOL     OW25054   2.933   0.140   1.505 -0.0631 -0.4276  0.2775
 8052SOL    HW125055   2.845   0.145   1.457  0.1595 -3.4711 -0.6709
 8052SOL    HW225056   2.925   0.079   1.583  0.7001  1.0819  1.5995
 8053SOL     OW25057   4.694   4.019   0.758  0.0106  0.3280 -0.0478
 8053SOL    HW125058   4.607   4.029   0.805 -0.7701 -0.5325 -1.2621
 8053SOL    HW225059   4.719   3.922   0.754 -0.2332  0.3172 -1.8771
 8054SOL     OW25060   5.757   6.950   5.322  0.0871  0.1889  0.2605
 8054SOL    HW125061   5.731   7.022   5.258 -0.0908  0.9808  1.2079
 8054SOL    HW225062   5.677   6.919   5.373 -0.2045 -1.9669 -1.3625
 8055SOL     OW25063   1.296   0.680   4.960 -0.0600  0.1965  0.1280
 8055SOL    HW125064   1.345   0.766   4.976  0.0268  0.0260  0.8002
 8055SOL    HW225065   1.202   0.700   4.931 -0.6490  0.5555  2.0830
 8056SOL     OW25066   4.072   0.396   3.661  0.5317  0.1332  0.0416
 8056SOL    HW125067   4.001   0.375   3.728 -0.4780  0.4453 -0.9162
 8056SOL    HW225068   4.116   0.311   3.631  0.9481 -0.0126  1.0405
 8057SOL     OW25069   3.343   6.517   2.520  0.1763  0.1161 -0.1409
 8057SOL    HW125070   3.424   6.510   2.462 -0.8195 -0.0870 -1.5575
 8057SOL    HW225071   3.326   6.613   2.542  1.6980  0.0678  1.5659
 8058SOL     OW25072   1.757   1.065   4.534  0.2419  0.1711  0.2950
 8058SOL    HW125073   1.840   1.010   4.546 -0.8685 -1.3520  1.3174
 8058SOL    HW225074   1.751   1.132   4.609 -1.3986 -2.4142  2.6901
 8059SOL     OW25075   2.626   0.429   3.170  0.2702  0.1685  0.6202
 8059SOL    HW125076   2.667   0.507   3.216  0.2096 -0.4110  1.6713
 8059SOL    HW225077   2.538   0.456   3.130 -1.1032 -0.0054  3.3461
 8060SOL     OW25078   2.162   2.112   5.349 -0.6128  0.5904  0.2032
 8060SOL    HW125079   2.106   2.042   5.306 -1.7683  1.8171 -0.3587
 8060SOL    HW225080   2.162   2.099   5.448 -1.7441  0.4491  0.1948
 8061SOL     OW25081   3.939   5.947   2.657  0.1559 -1.0238  0.9139
 8061SOL    HW125082   4.012   5.912   2.597 -0.4458 -1.1760  0.2544
 8061SOL    HW225083   3.888   6.018   2.608 -0.9325 -1.8029  0.8899
 8062SOL     OW25084   2.317   2.188   1.929 -0.1021 -0.2612 -0.0705
 8062SOL    HW125085   2.239   2.239   1.965 -0.7534 -3.0470  3.0103
 8062SOL    HW225086   2.387   2.252   1.896 -2.5105  2.3844 -0.4099
 8063SOL     OW25087   3.449   0.580   6.578  0.6279 -0.1413  0.7750
 8063SOL    HW125088   3.513   0.656   6.590  1.1747 -0.3091 -0.8170
 8063SOL    HW225089   3.414   0.550   6.667  0.5579  1.8280  1.4514
 8064SOL     OW25090   6.584   2.115   6.509 -1.0832 -0.1329  0.2352
 8064SOL    HW125091   6.596   2.203   6.554  0.0871 -0.5568  0.7915
 8064SOL    HW225092   6.504   2.068   6.548 -1.3351  0.4037  0.3721
 8065SOL     OW25093   5.395   2.232   6.245  0.1615 -0.2008  0.0274
 8065SOL    HW125094   5.474   2.292   6.232  1.2016 -1.3285  0.9759
 8065SOL    HW225095   5.425   2.144   6.282 -1.5515 -0.6402  0.4637
 8066SOL     OW25096   6.298   6.026   1.487  0.2968 -0.3124  0.4250
 8066SOL    HW125097   6.244   6.094   1.437 -0.1360 -0.6938  0.3592
 8066SOL    HW225098   6.392   6.028   1.455  0.4961  0.8356  1.0099
 8067SOL     OW25099   6.058   1.420   5.085 -0.2153  0.3680  0.3081
 8067SOL    HW125100   5.994   1.489   5.118  1.0445  0.6886  2.2700
 8067SOL    HW225101   6.150   1.440   5.120  0.9747 -0.1673 -2.2437
 8068SOL     OW25102   1.790   5.455   2.453  0.2653 -0.2655 -0.1546
 8068SOL    HW125103   1.691   5.442   2.443 -0.7960  4.4552  1.5012
 8068SOL    HW225104   1.815   5.445   2.549  0.8190  1.1257 -0.1324
 8069SOL     OW25105   1.032   4.626   3.055  0.0921  0.1550  0.0326
 8069SOL    HW125106   1.109   4.617   2.992  0.7130 -1.4475  0.9705
 8069SOL    HW225107   0.954   4.575   3.020  0.3026 -0.3887  0.3513
 8070SOL     OW25108   4.859   6.956   3.016  0.2132  0.2993  0.1397
 8070SOL    HW125109   4.905   7.013   2.948  1.0324  1.2625  1.4602
 8070SOL    HW225110   4.873   6.995   3.107 -1.3534 -0.6309  0.8145
 8071SOL     OW25111   6.225   3.504   6.996  0.7983  0.1901  0.3936
 8071SOL    HW125112   6.136   3.491   6.952 -0.6770  1.0609  2.8947
 8071SOL    HW225113   6.297   3.469   6.936 -0.9433  1.6686 -2.8342
 8072SOL     OW25114   3.844   6.319   1.619  0.1429  0.4913 -0.1039
 8072SOL    HW125115   3.941   6.340   1.634  0.0528  1.3272 -0.6221
 8072SOL    HW225116   3.793   6.404   1.609 -0.1836  0.0598 -2.6969
 8073SOL     OW25117   4.659   0.377   0.024  0.6786 -0.1051  0.2469
 8073SOL    HW125118   4.571   0.425   0.030  0.3259 -0.7156  0.0501
 8073SOL    HW225119   4.663   0.327  -0.063  1.0388 -0.4415  0.4572
 8074SOL     OW25120   3.536   4.464   0.830  0.3191  0.3571  0.1445
 8074SOL    HW125121   3.551   4.509   0.742  0.7166  2.1831  1.0815
 8074SOL    HW225122   3.587   4.379   0.834  0.6858  0.4951 -1.2024
 8075SOL     OW25123   6.247   0.947   2.048 -0.3884  0.3191  0.1612
 8075SOL    HW125124   6.188   0.936   1.969 -0.5197  3.0967 -0.2391
 8075SOL    HW225125   6.231   1.037   2.089  3.2324  1.0873  0.2650
 8076SOL     OW25126   5.027   4.425   5.528  0.3894 -0.3293 -0.0095
 8076SOL    HW125127   4.950   4.370   5.496 -0.2552 -0.1519  1.1856
 8076SOL    HW225128   5.111   4.394   5.483 -0.4255 -0.2136 -1.6977
 8077SOL     OW25129   0.503   6.828   6.773  0.0236 -0.0121 -0.0970
 8077SOL    HW125130   0.571   6.900   6.759 -1.2103  1.0476 -0.8576
 8077SOL    HW225131   0.430   6.838   6.706 -0.3717 -1.7710  0.0289
 8078SOL     OW25132   0.297   4.446   0.912 -0.1437 -0.4040  0.3219
 8078SOL    HW125133   0.364   4.395   0.859 -1.0638 -1.6051  0.2721
 8078SOL    HW225134   0.209   4.399   0.908 -1.0538  1.2374  0.2248
 8079SOL     OW25135   0.802   3.184   1.845 -0.3944  0.8958  0.1957
 8079SOL    HW125136   0.842   3.241   1.916 -0.2714 -1.6259  2.3065
 8079SOL    HW225137   0.874   3.153   1.782  0.4202 -0.6289  1.8035
 8080SOL     OW25138   4.544   4.569   0.771 -0.1766 -0.2671  0.0994
 8080SOL    HW125139   4.629   4.562   0.720 -0.7012  1.2137 -1.0269
 8080SOL    HW225140   4.501   4.657   0.753 -1.0325 -0.2245  2.1061
 8081SOL     OW25141   4.571   1.188   2.559  0.1607  0.1083 -0.1743
 8081SOL    HW125142   4.492   1.245   2.536  0.6122  0.7932 -0.0457
 8081SOL    HW225143   4.633   1.182   2.481  0.5061  0.4521  0.0707
 8082SOL     OW25144   6.088   5.015   5.445  0.2834 -0.3260  0.2742
 8082SOL    HW125145   6.178   5.046   5.476  0.4888 -1.5194  0.9281
 8082SOL    HW225146   6.020   5.084   5.466  0.8033 -0.0921  1.2555
 8083SOL     OW25147   6.818   1.371   5.755 -0.0783 -0.2334  0.3539
 8083SOL    HW125148   6.751   1.298   5.761 -1.4021  0.9179 -0.0190
 8083SOL    HW225149   6.784   1.453   5.801  0.8339  0.5405 -0.2923
 8084SOL     OW25150   6.215   6.996   6.602  0.3392  0.5763 -0.5218
 8084SOL    HW125151   6.156   7.042   6.535 -0.1533 -0.7317 -1.0287
 8084SOL    HW225152   6.290   6.950   6.554 -0.0360 -0.3974 -0.2111
 8085SOL     OW25153   4.014   3.058   0.564 -0.4451  0.0578 -0.2038
 8085SOL    HW125154   4.008   3.108   0.651  1.1311 -0.2796  0.1354
 8085SOL    HW225155   3.946   2.986   0.562  0.0324 -0.4622  1.1377
 8086SOL     OW25156   3.152   4.903   5.530 -0.2679  0.0491 -0.2212
 8086SOL    HW125157   3.135   4.868   5.438  0.1621 -1.5122  0.2521
 8086SOL    HW225158   3.143   4.828   5.596  1.6087  0.6351  0.7791
 8087SOL     OW25159   1.795   3.295   3.281 -0.3824 -1.2885 -0.3891
 8087SOL    HW125160   1.765   3.230   3.350  0.6325 -0.2797  1.0419
 8087SOL    HW225161   1.839   3.246   3.206 -0.5066 -2.3192  0.1989
 8088SOL     OW25162   4.153   0.629   3.529  0.2188 -0.0399 -0.8694
 8088SOL    HW125163   4.149   0.541   3.577 -0.5242 -0.4014 -1.5739
 8088SOL    HW225164   4.235   0.679   3.557  0.8451 -1.1164 -0.7439
 8089SOL     OW25165   6.465   0.913   1.164  0.6358 -0.4112 -0.3247
 8089SOL    HW125166   6.550   0.963   1.182  1.0478 -0.0300 -2.9068
 8089SOL    HW225167   6.483   0.815   1.165  0.7707 -0.3849  0.5301
 8090SOL     OW25168   5.867   0.543   4.180 -0.4924 -0.9921 -0.1634
 8090SOL    HW125169   5.967   0.549   4.182 -0.5134  1.0333 -1.4810
 8090SOL    HW225170   5.838   0.486   4.103 -0.3507 -1.1938 -0.0662
 8091SOL     OW25171   0.872   2.360   4.796  0.0001  0.3033 -0.2077
 8091SOL    HW125172   0.837   2.446   4.832  0.6184  0.2255  0.6088
 8091SOL    HW225173   0.800   2.290   4.797 -0.5633  0.8515 -1.0668
 8092SOL     OW25174   5.872   0.624   3.630  0.0162 -0.1543 -0.0664
 8092SOL    HW125175   5.923   0.677   3.562  0.6787 -1.3538 -0.5373
 8092SOL    HW225176   5.922   0.625   3.717  1.8145 -2.6612 -0.9460
 8093SOL     OW25177   5.233   4.076   1.686  0.4945 -0.0505  0.2101
 8093SOL    HW125178   5.206   4.097   1.592 -0.9213 -0.5131  0.4842
 8093SOL    HW225179   5.295   4.147   1.720 -2.0931  2.3663  0.2476
 8094SOL     OW25180   2.054   4.542   3.760 -0.9039 -0.0549  0.0517
 8094SOL    HW125181   1.996   4.566   3.838  0.0455  1.1247  0.4345
 8094SOL    HW225182   2.000   4.548   3.676 -1.5237  0.3241  0.4624
 8095SOL     OW25183   0.961   3.822   3.345  0.0186 -0.0170 -0.3544
 8095SOL    HW125184   0.899   3.896   3.320  1.1450  0.8806 -0.5641
 8095SOL    HW225185   1.019   3.851   3.421  1.1422 -0.3167 -1.0704
 8096SOL     OW25186   4.663   6.859   5.416  0.3320  0.4851  0.5626
 8096SOL    HW125187   4.641   6.888   5.323 -0.5863  0.4177  0.7535
 8096SOL    HW225188   4.591   6.800   5.450  1.3927 -0.7396  0.7723
 8097SOL     OW25189   5.639   3.502   4.587  0.0406  0.4899  0.0749
 8097SOL    HW125190   5.591   3.576   4.539  0.3966  0.4887 -0.2830
 8097SOL    HW225191   5.609   3.414   4.551  0.4806  0.4955 -0.3116
 8098SOL     OW25192   0.658   1.101   4.872  0.2062  0.2380 -0.1462
 8098SOL    HW125193   0.711   1.039   4.814 -1.4210 -1.1549 -0.2328
 8098SOL    HW225194   0.663   1.069   4.967  0.1795  0.5686 -0.0346
 8099SOL     OW25195   3.674   5.857   6.549 -0.1842  0.0866  0.1157
 8099SOL    HW125196   3.649   5.807   6.632 -1.6276  0.1922 -0.2260
 8099SOL    HW225197   3.690   5.792   6.475  0.5575  0.0196  0.3292
 8100SOL     OW25198   6.233   6.241   2.451 -0.1961 -0.6527  0.3115
 8100SOL    HW125199   6.190   6.293   2.377  0.8966  1.4618  1.0807
 8100SOL    HW225200   6.163   6.204   2.511 -1.0199  0.4821  0.0899
 8101SOL     OW25201   1.455   5.035   1.958 -0.6285  0.1142 -0.3197
 8101SOL    HW125202   1.531   5.099   1.967 -1.0508  0.9224 -2.0181
 8101SOL    HW225203   1.426   5.004   2.049  0.8025  0.8688  0.4268
 8102SOL     OW25204   5.154   0.627   6.595 -0.2108 -0.0274  0.1315
 8102SOL    HW125205   5.241   0.582   6.575 -0.7876 -1.2527  0.2957
 8102SOL    HW225206   5.087   0.558   6.622 -1.2719  0.8925 -0.1158
 8103SOL     OW25207   1.289   1.606   3.091  0.0230  0.5712  0.4506
 8103SOL    HW125208   1.254   1.661   3.167 -1.1194 -0.2845  0.5738
 8103SOL    HW225209   1.228   1.528   3.076  1.0852 -0.1292 -0.3418
 8104SOL     OW25210   2.190   1.195   4.779 -0.2137  0.2942 -0.2556
 8104SOL    HW125211   2.203   1.101   4.746  1.0963  0.0905  0.7533
 8104SOL    HW225212   2.147   1.193   4.869 -1.3922  0.7433 -0.7852
 8105SOL     OW25213   1.941   3.537   3.257 -0.3311  0.4655  0.3358
 8105SOL    HW125214   1.894   3.463   3.306  0.3158  0.1418  0.4771
 8105SOL    HW225215   1.941   3.516   3.159 -0.9514  0.7340  0.2748
 8106SOL     OW25216   2.133   5.374   0.155 -0.2113  0.7024 -0.5577
 8106SOL    HW125217   2.206   5.381   0.086 -0.7848  0.4561 -1.2058
 8106SOL    HW225218   2.105   5.279   0.163 -0.8424  0.8703 -0.7262
 8107SOL     OW25219   0.667   4.318   1.487 -0.0321 -0.8003 -0.2586
 8107SOL    HW125220   0.746   4.264   1.458 -0.0474 -0.4917 -0.9067
 8107SOL    HW225221   0.583   4.265   1.473  0.1880 -2.0524  2.6577
 8108SOL     OW25222   1.134   1.698   1.122  0.4624  0.2242  0.1636
 8108SOL    HW125223   1.157   1.793   1.141 -0.4725 -0.0602  3.3600
 8108SOL    HW225224   1.216   1.649   1.091  0.8113  2.1180 -2.1734
 8109SOL     OW25225   6.972   4.567   3.941 -0.1784  0.0626  0.4801
 8109SOL    HW125226   7.024   4.629   3.883  1.8218 -1.2625  0.7602
 8109SOL    HW225227   6.880   4.604   3.955  0.8417  2.8336  0.5013
 8110SOL     OW25228   0.614   3.646   0.010  0.1970  0.0618  0.0192
 8110SOL    HW125229   0.536   3.709   0.011  0.0389 -0.1209  1.0297
 8110SOL    HW225230   0.699   3.698   0.006  0.1846  0.5700  3.2117
 8111SOL     OW25231   3.543   6.015   4.432  0.5869  0.4427  0.5917
 8111SOL    HW125232   3.623   6.072   4.414  0.1959  1.3956  1.7821
 8111SOL    HW225233   3.512   6.028   4.526 -1.5328  0.8080 -0.1076
 8112SOL     OW25234   4.749   1.362   4.594 -0.3866  0.5751 -0.3350
 8112SOL    HW125235   4.825   1.425   4.607 -0.0710 -0.1015  1.2574
 8112SOL    HW225236   4.666   1.401   4.635 -0.7014  0.8739 -1.2173
 8113SOL     OW25237   3.882   2.097   5.709  0.3358 -0.3299  0.1690
 8113SOL    HW125238   3.905   2.103   5.612 -0.2447  0.8772  0.0850
 8113SOL    HW225239   3.870   2.189   5.746 -0.3754 -0.8019  1.1666
 8114SOL     OW25240   1.976   3.528   1.313 -0.7867  0.0026  0.2127
 8114SOL    HW125241   1.968   3.589   1.235  1.3067 -2.4798 -2.1194
 8114SOL    HW225242   1.933   3.440   1.292  2.6275 -1.8764  0.4123
 8115SOL     OW25243   2.252   2.978   1.699 -0.1644 -0.0371  1.0403
 8115SOL    HW125244   2.320   2.942   1.634  1.3417  0.0115  2.5340
 8115SOL    HW225245   2.231   3.073   1.676 -2.1586 -0.9412 -1.3177
 8116SOL     OW25246   6.666   1.971   5.983 -0.2320 -0.1530 -0.3842
 8116SOL    HW125247   6.594   2.017   6.036  0.4283  0.9961 -0.4418
 8116SOL    HW225248   6.751   1.970   6.036 -0.0696 -0.7357 -0.6495
 8117SOL     OW25249   3.256   2.988   4.440  0.0737 -0.8805  0.1877
 8117SOL    HW125250   3.282   2.933   4.519 -1.6986  0.3464  1.7029
 8117SOL    HW225251   3.184   3.052   4.466  1.6532  1.8325 -1.6066
 8118SOL     OW25252   1.129   2.349   5.645 -0.3342 -0.5526 -0.0438
 8118SOL    HW125253   1.228   2.339   5.634 -0.0133  1.6374  0.4006
 8118SOL    HW225254   1.084   2.333   5.557  0.6153  0.4429 -0.7360
 8119SOL     OW25255   0.215   0.288   2.248  0.1161 -0.0943  0.1985
 8119SOL    HW125256   0.269   0.354   2.196  0.0643  0.5224  0.9075
 8119SOL    HW225257   0.152   0.337   2.309 -2.3117 -0.7614 -1.6358
 8120SOL     OW25258   5.272   4.572   2.431  0.1380  0.4900  0.1649
 8120SOL    HW125259   5.213   4.653   2.419 -1.1446 -0.0821  2.1222
 8120SOL    HW225260   5.347   4.595   2.492 -0.7710  0.0098  1.5145
 8121SOL     OW25261   0.629   6.350   3.481  0.6038 -0.5197  0.3676
 8121SOL    HW125262   0.625   6.264   3.431 -0.1944 -0.1094 -0.3072
 8121SOL    HW225263   0.639   6.331   3.579  1.8156 -1.3335  0.1059
 8122SOL     OW25264   0.932   4.112   1.699 -0.0075  0.0947  0.2900
 8122SOL    HW125265   0.867   4.140   1.769  0.0507  1.0229 -0.0099
 8122SOL    HW225266   0.961   4.192   1.647  2.4076 -0.0392  1.2812
 8123SOL     OW25267   1.692   5.923   4.739 -0.4790 -0.1358  0.2681
 8123SOL    HW125268   1.675   5.857   4.813 -0.7143 -0.6013 -0.1979
 8123SOL    HW225269   1.756   5.993   4.771 -1.1524  0.0909  1.1631
 8124SOL     OW25270   1.686   6.890   3.864  0.1883  0.1072  0.4319
 8124SOL    HW125271   1.696   6.835   3.947  2.7420 -0.5783 -0.2714
 8124SOL    HW225272   1.651   6.833   3.790  1.3559 -0.1913  0.1059
 8125SOL     OW25273   5.179   3.015   3.472 -0.4356  0.1247  0.3192
 8125SOL    HW125274   5.159   3.008   3.375 -0.8990 -0.2190  0.4349
 8125SOL    HW225275   5.162   3.109   3.503 -2.4966 -0.2824  0.5347
 8126SOL     OW25276   5.553   4.717   0.841 -0.3977  0.4438 -0.1464
 8126SOL    HW125277   5.562   4.657   0.921  2.4722 -0.2250 -0.8439
 8126SOL    HW225278   5.637   4.770   0.830 -0.7482  0.5749 -2.6605
 8127SOL     OW25279   3.412   4.949   5.883  0.0608 -0.0356  0.1078
 8127SOL    HW125280   3.426   4.993   5.971 -0.9959  0.7197 -0.0887
 8127SOL    HW225281   3.387   4.853   5.898 -0.9697  0.3043  0.6850
 8128SOL     OW25282   4.053   2.152   4.984 -0.1249 -0.1732 -0.2645
 8128SOL    HW125283   4.108   2.228   5.020  0.3573  0.1115 -1.5460
 8128SOL    HW225284   3.957   2.171   4.999 -0.1058  1.3662 -1.6890
 8129SOL     OW25285   4.325   4.358   6.092 -0.6176 -0.5607  0.1328
 8129SOL    HW125286   4.282   4.268   6.094 -0.5936 -0.5586  1.3339
 8129SOL    HW225287   4.258   4.426   6.062 -0.4544 -1.0471 -1.4422
 8130SOL     OW25288   1.212   0.648   0.089 -0.2178 -0.3186 -0.1114
 8130SOL    HW125289   1.205   0.697   0.175  1.7896 -3.0397  1.7783
 8130SOL    HW225290   1.260   0.704   0.021 -1.2801  1.6308  0.6827
 8131SOL     OW25291   3.236   2.027   1.659 -0.3068 -0.2248 -0.1950
 8131SOL    HW125292   3.167   2.096   1.681 -0.0893  0.1400 -0.6299
 8131SOL    HW225293   3.295   2.011   1.738 -1.1017 -0.8008  0.3025
 8132SOL     OW25294   5.570   3.826   4.191  0.1524 -0.1155 -0.4290
 8132SOL    HW125295   5.578   3.907   4.133  1.2743  0.4170  0.4399
 8132SOL    HW225296   5.511   3.759   4.145  1.1954  0.1722 -2.3064
 8133SOL     OW25297   6.046   4.109   3.106  0.2548  0.0177  0.1369
 8133SOL    HW125298   6.142   4.137   3.118 -0.3506  2.4811 -0.1794
 8133SOL    HW225299   6.002   4.104   3.195  0.3087  0.3519  0.1835
 8134SOL     OW25300   3.439   3.125   1.681 -1.1865  0.3105  0.5033
 8134SOL    HW125301   3.473   3.198   1.741 -2.5009  0.9738  0.4551
 8134SOL    HW225302   3.348   3.148   1.647 -0.7734 -0.4067 -1.1788
 8135SOL     OW25303   3.947   0.777   1.774 -0.1185 -0.3954 -0.2340
 8135SOL    HW125304   3.924   0.704   1.837  0.4560 -1.6140 -1.3902
 8135SOL    HW225305   3.999   0.740   1.697  2.4834  1.6188  0.4125
 8136SOL     OW25306   1.500   6.036   0.569 -0.1093 -0.1431  0.0836
 8136SOL    HW125307   1.538   5.955   0.614 -1.2653 -0.0500  1.2857
 8136SOL    HW225308   1.428   6.076   0.627  0.3673  1.6931 -0.5166
 8137SOL     OW25309   3.016   3.091   5.594  0.0161 -0.3661 -0.0663
 8137SOL    HW125310   2.959   3.035   5.535 -0.5597  0.0281  0.1089
 8137SOL    HW225311   2.960   3.162   5.638  0.7635  0.4808 -0.4437
 8138SOL     OW25312   3.801   1.542   2.598  0.5496  0.1035  0.6723
 8138SOL    HW125313   3.762   1.633   2.610 -0.3892 -0.3267  0.9746
 8138SOL    HW225314   3.852   1.539   2.512 -0.1685  0.6643  0.2137
 8139SOL     OW25315   3.431   2.984   5.841  0.0068 -0.4833 -0.0516
 8139SOL    HW125316   3.398   2.945   5.927 -0.8165  0.3552  0.0230
 8139SOL    HW225317   3.374   2.951   5.765  1.5202 -2.2933 -0.5160
 8140SOL     OW25318   6.133   4.531   0.966 -0.2433 -0.5424  0.3937
 8140SOL    HW125319   6.167   4.588   1.042  0.4964 -0.1613 -0.2089
 8140SOL    HW225320   6.149   4.579   0.880  2.2601 -2.4549 -0.3383
 8141SOL     OW25321   5.354   1.328   5.170 -0.3509 -0.1901 -0.5358
 8141SOL    HW125322   5.414   1.298   5.096  0.6656 -1.0732  0.6074
 8141SOL    HW225323   5.400   1.315   5.258 -2.5207 -1.6872  0.4648
 8142SOL     OW25324   5.324   4.081   0.179  0.6135  0.5601  0.2839
 8142SOL    HW125325   5.317   4.059   0.276  0.4391  4.0973  1.1862
 8142SOL    HW225326   5.241   4.126   0.148 -0.4300 -2.6723 -2.3201
 8143SOL     OW25327   3.338   4.718   0.173 -0.2239 -0.3067  0.5599
 8143SOL    HW125328   3.368   4.699   0.080 -1.8048  0.6226 -0.1727
 8143SOL    HW225329   3.255   4.666   0.192 -0.5137  0.3316  1.0714
 8144SOL     OW25330   1.910   6.916   5.881  0.4820 -0.2020 -0.0259
 8144SOL    HW125331   1.856   6.976   5.822  0.3538 -2.8616 -2.8901
 8144SOL    HW225332   1.860   6.898   5.965 -0.6809  1.4962 -0.3094
 8145SOL     OW25333   4.715   0.335   0.753  0.1547  0.0344  0.4179
 8145SOL    HW125334   4.642   0.338   0.821 -0.9931  4.4696 -0.6850
 8145SOL    HW225335   4.789   0.397   0.780  0.1087  1.1580 -1.8201
 8146SOL     OW25336   4.941   5.341   5.057 -0.0103  0.0382  0.9526
 8146SOL    HW125337   4.843   5.337   5.034  0.6115  1.8796 -2.6451
 8146SOL    HW225338   4.951   5.378   5.150 -2.7265  1.3435  0.8421
 8147SOL     OW25339   0.885   5.830   5.673  0.3232  0.7007 -0.5089
 8147SOL    HW125340   0.890   5.926   5.701  0.9779  0.6130 -0.3050
 8147SOL    HW225341   0.972   5.803   5.632  0.7348 -0.2591  0.9238
 8148SOL     OW25342   4.846   5.648   6.944  0.1056 -0.3059 -0.1150
 8148SOL    HW125343   4.800   5.680   6.862 -0.3205 -1.5327 -0.3858
 8148SOL    HW225344   4.813   5.699   7.023  1.1819  1.5052 -0.7909
 8149SOL     OW25345   0.905   1.195   3.418 -0.8496  0.0126 -0.5150
 8149SOL    HW125346   0.845   1.132   3.367 -0.7233  0.2047 -0.9012
 8149SOL    HW225347   0.988   1.211   3.366 -0.0913 -0.8841  0.3847
 8150SOL     OW25348   0.447   1.384   0.465  0.4157 -0.8999  0.2865
 8150SOL    HW125349   0.423   1.324   0.388 -1.4732  0.5022 -0.2927
 8150SOL    HW225350   0.364   1.407   0.516  1.0699  1.2274  0.4766
 8151SOL     OW25351   6.686   3.135   2.516  0.2328 -0.0522  0.1506
 8151SOL    HW125352   6.691   3.228   2.481 -0.9426 -0.1529 -0.3407
 8151SOL    HW225353   6.776   3.091   2.510  0.5535  0.6897 -0.6128
 8152SOL     OW25354   4.518   6.710   3.200  0.2033 -0.0355  0.2352
 8152SOL    HW125355   4.539   6.677   3.108 -0.8214 -1.2905  0.4134
 8152SOL    HW225356   4.561   6.798   3.215  0.4734  0.1387 -1.4102
 8153SOL     OW25357   0.831   2.342   6.421  0.4735 -0.0506 -0.4338
 8153SOL    HW125358   0.755   2.326   6.358  0.0235 -0.9967  0.3104
 8153SOL    HW225359   0.867   2.254   6.453  1.9356  0.3791 -0.8110
 8154SOL     OW25360   0.129   6.718   4.033 -0.2678 -0.0791  0.5553
 8154SOL    HW125361   0.116   6.802   3.980  2.2865 -0.2675 -0.5057
 8154SOL    HW225362   0.047   6.661   4.026 -1.0252  1.1330 -0.9210
 8155SOL     OW25363   2.620   5.020   5.226  0.0330 -0.8827  0.2125
 8155SOL    HW125364   2.522   5.032   5.211 -0.3212 -1.8610  1.5378
 8155SOL    HW225365   2.642   4.923   5.232  1.6973 -0.9086 -3.5028
 8156SOL     OW25366   3.175   4.675   6.533  0.2981 -0.3448  0.2665
 8156SOL    HW125367   3.236   4.596   6.526  0.3790 -0.1354 -3.0610
 8156SOL    HW225368   3.083   4.644   6.556  0.5386 -1.2804  0.0014
 8157SOL     OW25369   5.786   4.763   5.310 -0.0077  0.0190 -0.4234
 8157SOL    HW125370   5.873   4.737   5.352 -1.2505 -3.2083  0.4201
 8157SOL    HW225371   5.744   4.837   5.364  0.7606 -0.5707  1.0445
 8158SOL     OW25372   0.405   3.577   4.049  0.6500  0.1671 -0.4302
 8158SOL    HW125373   0.439   3.516   4.120  0.7062  0.3947 -0.2599
 8158SOL    HW225374   0.480   3.635   4.016  0.1142  1.8946  1.1710
 8159SOL     OW25375   1.622   6.153   5.306  0.0882 -0.4802  0.2432
 8159SOL    HW125376   1.624   6.243   5.263  1.5226 -0.7757 -0.3934
 8159SOL    HW225377   1.663   6.086   5.244  2.3787 -0.9014  2.0500
 8160SOL     OW25378   5.457   1.174   1.708 -0.4668 -0.3149  0.0197
 8160SOL    HW125379   5.502   1.260   1.731 -0.3464  0.0318 -1.3879
 8160SOL    HW225380   5.393   1.189   1.632 -0.4481 -1.4529 -0.2446
 8161SOL     OW25381   6.677   6.324   0.776  0.1810  0.2818 -0.1657
 8161SOL    HW125382   6.761   6.282   0.742 -1.1703 -0.6576 -2.6185
 8161SOL    HW225383   6.632   6.262   0.840  1.5558  1.0439  1.6484
 8162SOL     OW25384   5.793   5.778   5.600 -0.2901 -0.8556 -0.7774
 8162SOL    HW125385   5.871   5.727   5.636 -0.0620  0.3814  0.6032
 8162SOL    HW225386   5.740   5.816   5.676 -0.9403  0.2178 -1.7268
 8163SOL     OW25387   3.004   6.431   3.676  0.4273 -0.3284 -0.8283
 8163SOL    HW125388   2.957   6.509   3.717  2.7060 -0.3662  2.2482
 8163SOL    HW225389   2.995   6.435   3.577 -1.7074  2.3582 -0.6504
 8164SOL     OW25390   5.790   0.977   1.116  0.0536  0.0726  0.6067
 8164SOL    HW125391   5.748   0.886   1.110  0.4572 -0.0654 -0.2953
 8164SOL    HW225392   5.810   1.010   1.024 -0.8460  1.4361  0.8690
 8165SOL     OW25393   0.048   3.056   0.429 -0.1709  0.4273 -0.2617
 8165SOL    HW125394   0.070   2.959   0.438 -0.1421  0.2520 -1.9037
 8165SOL    HW225395   0.091   3.092   0.346 -0.2428  1.8358  0.2868
 8166SOL     OW25396   2.743   1.183   2.295 -0.1576  0.0059 -0.3998
 8166SOL    HW125397   2.836   1.148   2.303 -0.9532 -1.8937  1.1752
 8166SOL    HW225398   2.745   1.272   2.249  2.2931 -0.4997 -1.4119
 8167SOL     OW25399   1.092   2.060   3.058  0.0683 -0.0832  0.4923
 8167SOL    HW125400   1.094   2.042   3.157 -0.0242 -0.5702  0.4075
 8167SOL    HW225401   1.169   2.014   3.014  0.1972  0.2607  0.3564
 8168SOL     OW25402   2.546   6.411   4.591  0.4594  0.3559  0.1262
 8168SOL    HW125403   2.528   6.508   4.574  2.1247  0.8725  1.0441
 8168SOL    HW225404   2.491   6.355   4.529  0.3699  1.9123 -1.2752
 8169SOL     OW25405   6.397   5.453   0.069 -0.0832  0.6900  0.3487
 8169SOL    HW125406   6.467   5.400   0.116  0.7715  0.4646 -1.1240
 8169SOL    HW225407   6.306   5.418   0.092  0.3473  0.2226  1.3517
 8170SOL     OW25408   1.217   3.182   3.881 -0.2172  0.6808 -0.7058
 8170SOL    HW125409   1.134   3.218   3.840 -0.2983 -0.1101 -1.2663
 8170SOL    HW225410   1.231   3.087   3.851  0.7176  0.6968 -0.3708
 8171SOL     OW25411   0.940   1.859   1.342  0.1660 -0.0091  0.4342
 8171SOL    HW125412   1.032   1.872   1.306  0.1334 -0.7173  0.0834
 8171SOL    HW225413   0.932   1.902   1.432  0.7391  0.3306  0.3247
 8172SOL     OW25414   0.608   3.450   6.342  0.6279  0.2892 -0.7886
 8172SOL    HW125415   0.522   3.486   6.305  0.5258  0.5722 -0.2965
 8172SOL    HW225416   0.685   3.491   6.295  0.5036  0.8090 -0.5500
 8173SOL     OW25417   5.354   6.494   1.571  0.5277  0.2280 -1.0729
 8173SOL    HW125418   5.400   6.471   1.485 -0.6311 -3.6041 -0.8599
 8173SOL    HW225419   5.404   6.567   1.617  1.5302  2.0150 -4.6505
 8174SOL     OW25420   1.544   5.233   3.360  0.1950  0.2459 -0.9335
 8174SOL    HW125421   1.458   5.255   3.406  0.6486 -1.5231  0.8741
 8174SOL    HW225422   1.526   5.163   3.290  0.4701 -2.0311  1.1711
 8175SOL     OW25423   3.494   1.569   5.412 -0.0470 -0.0075  0.0857
 8175SOL    HW125424   3.451   1.563   5.322 -0.5595  0.0119  0.3211
 8175SOL    HW225425   3.471   1.657   5.454  0.0782 -0.0698  0.2864
 8176SOL     OW25426   2.975   3.819   5.424 -0.4128  0.0189  0.2216
 8176SOL    HW125427   2.877   3.802   5.438 -0.4341  1.0327  1.4129
 8176SOL    HW225428   3.018   3.840   5.511  0.8450 -0.2269 -0.3234
 8177SOL     OW25429   3.798   1.663   1.774  0.1874  0.2206 -0.4825
 8177SOL    HW125430   3.840   1.731   1.713 -1.1205 -0.0517 -1.7261
 8177SOL    HW225431   3.779   1.579   1.723 -0.2535 -0.2935  0.4959
 8178SOL     OW25432   0.378   6.339   0.499  0.0320 -0.1375 -0.1486
 8178SOL    HW125433   0.450   6.358   0.565 -0.8576  0.6656  0.6348
 8178SOL    HW225434   0.328   6.423   0.478 -0.2188 -0.5329 -1.2358
 8179SOL     OW25435   6.567   1.450   5.046 -0.1585 -0.1971  0.0061
 8179SOL    HW125436   6.478   1.489   5.022  0.4699  0.8611 -0.6562
 8179SOL    HW225437   6.613   1.420   4.963 -0.4661 -2.0647  0.4616
 8180SOL     OW25438   2.155   3.014   6.897  0.3304  0.5981 -0.4807
 8180SOL    HW125439   2.173   2.916   6.891  1.7846  0.7818  0.3856
 8180SOL    HW225440   2.099   3.033   6.978  1.6075  0.6452  0.4187
 8181SOL     OW25441   4.879   0.956   6.844 -0.4308  0.0928 -0.2193
 8181SOL    HW125442   4.881   0.954   6.745  2.9669 -2.3332 -0.2852
 8181SOL    HW225443   4.955   1.011   6.879 -1.0978  0.2677  1.0466
 8182SOL     OW25444   3.007   5.146   0.450 -0.0939 -0.2017  0.0818
 8182SOL    HW125445   3.104   5.128   0.463  0.3641 -0.4493 -3.0296
 8182SOL    HW225446   2.967   5.074   0.393 -1.2509  1.7662 -1.7115
 8183SOL     OW25447   5.961   0.070   5.896  0.2101 -0.1731 -0.2976
 8183SOL    HW125448   5.924   0.162   5.912 -2.0268 -0.9667 -0.5200
 8183SOL    HW225449   6.036   0.052   5.960 -0.0520  1.3864  0.4941
 8184SOL     OW25450   1.098   6.245   5.738  0.2162 -0.3682 -0.5186
 8184SOL    HW125451   1.195   6.242   5.717  0.4620  0.0346  0.4680
 8184SOL    HW225452   1.071   6.339   5.759 -0.4518 -0.4314 -1.0740
 8185SOL     OW25453   0.769   1.414   3.649  0.1087  0.2260 -0.0920
 8185SOL    HW125454   0.790   1.473   3.570  1.7928 -0.8307 -0.4866
 8185SOL    HW225455   0.814   1.326   3.638 -0.9468 -0.5379  1.3203
 8186SOL     OW25456   0.279   4.283   5.593  0.3401 -0.5522 -0.9905
 8186SOL    HW125457   0.210   4.339   5.546  1.1688  2.0119  0.6065
 8186SOL    HW225458   0.370   4.307   5.558  0.6997 -1.1383 -0.4691
 8187SOL     OW25459   0.339   5.838   6.189 -0.1610  0.1229  1.2327
 8187SOL    HW125460   0.256   5.788   6.165  0.0646  0.4751 -0.4674
 8187SOL    HW225461   0.319   5.936   6.193  0.2114  0.2382  0.5045
 8188SOL     OW25462   3.280   2.118   2.339  0.0744  0.0146  0.5378
 8188SOL    HW125463   3.218   2.181   2.293 -1.9360 -0.1306  2.8624
 8188SOL    HW225464   3.371   2.126   2.298 -0.5395  3.0114 -0.5217
 8189SOL     OW25465   0.665   4.673   3.377  0.2116  0.3713 -0.1223
 8189SOL    HW125466   0.681   4.620   3.295 -0.6923 -0.7254  0.3839
 8189SOL    HW225467   0.732   4.747   3.383  0.7433  0.0140 -1.4475
 8190SOL     OW25468   6.310   3.088   3.355  0.1250  0.6965  0.7580
 8190SOL    HW125469   6.368   3.165   3.379  1.3969  0.0968 -0.2789
 8190SOL    HW225470   6.328   3.012   3.418 -0.2368  0.8189  1.0154
 8191SOL     OW25471   4.296   4.266   0.074 -0.1080 -0.2399  0.3696
 8191SOL    HW125472   4.212   4.319   0.058 -0.8656 -1.5060  0.0316
 8191SOL    HW225473   4.332   4.288   0.164 -0.1485  1.1819  0.0642
 8192SOL     OW25474   5.646   3.875   2.040  0.1381 -0.0383 -0.0074
 8192SOL    HW125475   5.631   3.828   1.953  0.3389  0.1027 -0.1201
 8192SOL    HW225476   5.693   3.813   2.104 -0.6572 -0.3871  0.2544
 8193SOL     OW25477   1.676   5.639   5.810  0.1917  0.4591  0.1288
 8193SOL    HW125478   1.611   5.569   5.780  1.3237 -0.9813  0.8366
 8193SOL    HW225479   1.632   5.700   5.875 -0.8062  0.3431 -0.4153
 8194SOL     OW25480   5.187   6.468   3.309 -0.6516 -0.0135  0.2950
 8194SOL    HW125481   5.248   6.390   3.321 -1.1614 -0.4252  0.2483
 8194SOL    HW225482   5.122   6.472   3.385 -0.1072  0.8531  0.7282
 8195SOL     OW25483   1.227   0.459   4.471 -0.3465 -0.7302  0.4114
 8195SOL    HW125484   1.258   0.365   4.458 -0.9467 -1.1086  1.5437
 8195SOL    HW225485   1.231   0.508   4.384  0.3422 -1.6849 -0.1140
 8196SOL     OW25486   4.012   6.360   3.357 -0.1068  0.2817 -0.2196
 8196SOL    HW125487   4.037   6.325   3.448 -0.0469  2.3193  0.5888
 8196SOL    HW225488   4.059   6.306   3.287  0.9724 -0.4308  1.0119
 8197SOL     OW25489   3.280   0.592   3.154 -0.4369  0.2404 -0.0190
 8197SOL    HW125490   3.289   0.570   3.251 -0.2031  0.0778 -0.0764
 8197SOL    HW225491   3.227   0.520   3.109  0.7610 -0.4929 -0.3056
 8198SOL     OW25492   1.898   5.500   5.914  0.1786 -0.3859  0.5882
 8198SOL    HW125493   1.879   5.411   5.956 -0.3360 -1.4916 -1.8118
 8198SOL    HW225494   1.819   5.529   5.861  0.2075  1.7331  1.6257
 8199SOL     OW25495   6.346   1.821   1.070 -0.1503  0.1685  0.5341
 8199SOL    HW125496   6.416   1.851   1.136  1.1714  0.0035 -0.7418
 8199SOL    HW225497   6.259   1.863   1.093  0.6327  1.3669  1.4652
 8200SOL     OW25498   5.438   3.870   0.082  0.6236 -0.4514  0.3488
 8200SOL    HW125499   5.394   3.954   0.115  2.1826  0.0510  1.2193
 8200SOL    HW225500   5.367   3.803   0.060 -0.7413  1.4545 -1.5213
 8201SOL     OW25501   4.479   1.451   0.322 -0.0238 -0.4440  0.3521
 8201SOL    HW125502   4.504   1.529   0.264 -0.1921 -1.6624 -1.4043
 8201SOL    HW225503   4.548   1.380   0.314  0.3777 -0.3478  2.3237
 8202SOL     OW25504   1.506   4.823   3.880  0.5087  0.4365 -0.3015
 8202SOL    HW125505   1.510   4.922   3.870 -0.3470  0.3753 -1.4649
 8202SOL    HW225506   1.429   4.799   3.939  0.7823  0.4525  0.0706
 8203SOL     OW25507   1.656   3.060   0.717 -0.0310 -0.8518  0.1977
 8203SOL    HW125508   1.620   3.066   0.810 -1.7419  0.0452 -0.4737
 8203SOL    HW225509   1.685   3.151   0.687 -2.6936 -0.3902 -1.2892
 8204SOL     OW25510   1.283   3.265   0.267  0.2475 -0.5653  0.5394
 8204SOL    HW125511   1.326   3.306   0.187  0.2583 -0.0528  0.8042
 8204SOL    HW225512   1.297   3.324   0.346  1.6328 -1.8282  1.2816
 8205SOL     OW25513   5.194   2.805   5.747 -0.0681 -0.3160 -0.5434
 8205SOL    HW125514   5.233   2.817   5.838  0.8127 -2.2949 -0.6124
 8205SOL    HW225515   5.094   2.803   5.755 -0.0806  1.1270  0.1233
 8206SOL     OW25516   6.270   1.116   0.629  0.2196 -0.2520 -0.0369
 8206SOL    HW125517   6.202   1.190   0.636 -0.1466 -0.7158  1.7841
 8206SOL    HW225518   6.356   1.145   0.671  0.7791 -0.1188 -1.2296
 8207SOL     OW25519   3.068   2.900   0.866  0.2697 -0.3904 -0.2172
 8207SOL    HW125520   3.109   2.925   0.779  2.9371  2.5229  1.6791
 8207SOL    HW225521   3.100   2.809   0.894  1.1927 -0.3845 -1.2203
 8208SOL     OW25522   4.113   6.112   5.586 -0.1767 -0.1481 -0.6315
 8208SOL    HW125523   4.100   6.049   5.663 -1.9598 -0.8341 -1.4542
 8208SOL    HW225524   4.168   6.068   5.516  1.1374  0.3466  0.0455
 8209SOL     OW25525   6.693   2.851   2.787 -0.2427  0.2420 -0.1375
 8209SOL    HW125526   6.611   2.801   2.815 -1.5809  2.5832  0.4097
 8209SOL    HW225527   6.699   2.853   2.688 -0.5607 -0.3772 -0.1725
 8210SOL     OW25528   0.944   1.592   0.426 -0.3654 -0.1194  0.4687
 8210SOL    HW125529   0.845   1.592   0.412 -0.6161 -1.9170  1.8347
 8210SOL    HW225530   0.979   1.499   0.416  1.0934  0.4006  0.5708
 8211SOL     OW25531   5.175   5.239   1.476 -0.3177  0.0557 -0.1494
 8211SOL    HW125532   5.215   5.152   1.448 -1.1859 -0.4954  0.2550
 8211SOL    HW225533   5.077   5.227   1.492 -0.2726  0.8664  0.8912
 8212SOL     OW25534   2.613   5.297   2.666 -0.2327 -0.3122  0.2393
 8212SOL    HW125535   2.704   5.285   2.627 -0.1779 -0.4462  0.4053
 8212SOL    HW225536   2.565   5.209   2.665 -1.1262  0.1372 -1.7213
 8213SOL     OW25537   6.483   4.625   5.772  0.4756  0.2314 -0.3305
 8213SOL    HW125538   6.468   4.661   5.680  0.2135  1.0126  0.0092
 8213SOL    HW225539   6.542   4.687   5.823  1.6208 -0.8068 -0.3483
 8214SOL     OW25540   3.965   2.229   3.524  0.3032  0.7437  0.4169
 8214SOL    HW125541   4.020   2.272   3.595  0.6025 -0.7246  1.1089
 8214SOL    HW225542   3.883   2.189   3.565  1.4871 -1.9857  0.4001
 8215SOL     OW25543   3.561   3.707   2.528 -0.3657 -0.3941 -0.0472
 8215SOL    HW125544   3.476   3.756   2.548 -0.5641 -0.4819 -0.6507
 8215SOL    HW225545   3.545   3.609   2.534 -0.4832 -0.4302 -0.8005
 8216SOL     OW25546   3.921   0.298   0.147 -0.4175 -0.6862 -0.6186
 8216SOL    HW125547   3.856   0.232   0.109 -0.4594 -0.3972 -1.0592
 8216SOL    HW225548   3.960   0.352   0.073  0.3838 -0.9006 -0.3679
 8217SOL     OW25549   1.361   6.187   6.409 -0.4430  0.6862 -0.4355
 8217SOL    HW125550   1.317   6.126   6.343 -0.1022 -0.8905  0.7338
 8217SOL    HW225551   1.306   6.190   6.493 -0.2171  1.6690 -0.3047
 8218SOL     OW25552   3.724   0.515   0.246  0.8927 -0.8194  0.3103
 8218SOL    HW125553   3.661   0.446   0.283  0.9004 -0.8076  0.3459
 8218SOL    HW225554   3.817   0.477   0.245  0.8821 -0.8425  0.2427
 8219SOL     OW25555   3.075   2.017   1.059 -0.0400 -0.1063  0.5371
 8219SOL    HW125556   3.065   2.077   0.979  0.7103 -0.5093  0.1331
 8219SOL    HW225557   2.985   1.997   1.096 -0.6884 -2.0057 -1.7846
 8220SOL     OW25558   3.357   3.752   0.442  0.2914  0.1302  0.3757
 8220SOL    HW125559   3.394   3.797   0.523  1.4120  2.1725 -1.1572
 8220SOL    HW225560   3.356   3.816   0.366 -0.0999 -1.8677 -1.4162
 8221SOL     OW25561   6.821   4.573   5.206  0.3663 -0.0501  0.4806
 8221SOL    HW125562   6.887   4.569   5.281 -0.8942  3.6724  2.0462
 8221SOL    HW225563   6.729   4.556   5.241 -0.2377  1.6464 -0.1720
 8222SOL     OW25564   4.884   1.711   2.179 -0.8050 -0.3075 -0.8074
 8222SOL    HW125565   4.794   1.742   2.210 -0.6406  0.0495 -0.6803
 8222SOL    HW225566   4.936   1.676   2.257 -1.1009 -1.2096 -0.9931
 8223SOL     OW25567   0.779   4.459   6.564  0.1946  0.9401 -0.1188
 8223SOL    HW125568   0.805   4.412   6.480  0.1644 -0.5123  0.6468
 8223SOL    HW225569   0.720   4.536   6.542 -0.5074  0.0802 -1.3837
 8224SOL     OW25570   2.378   4.269   3.470 -0.0856 -0.4369 -0.0519
 8224SOL    HW125571   2.398   4.361   3.505  0.4417 -0.6761  0.2974
 8224SOL    HW225572   2.360   4.274   3.372 -1.5914  0.2505  0.2196
 8225SOL     OW25573   5.344   0.183   1.052  0.4825  1.3038 -0.5520
 8225SOL    HW125574   5.295   0.097   1.061  0.7022  1.2383  0.0638
 8225SOL    HW225575   5.304   0.237   0.978  0.7973  0.3704 -1.4310
 8226SOL     OW25576   2.826   5.449   6.647  0.1919 -0.3870  0.4022
 8226SOL    HW125577   2.772   5.529   6.622  0.2142 -0.8787 -1.3382
 8226SOL    HW225578   2.919   5.478   6.669 -0.4670  0.3406  2.4031
 8227SOL     OW25579   2.863   4.336   1.330 -0.2987 -0.0251  0.0081
 8227SOL    HW125580   2.946   4.387   1.309 -0.8412  0.4170 -1.1321
 8227SOL    HW225581   2.824   4.370   1.415  0.7711 -0.3729  0.6691
 8228SOL     OW25582   1.528   0.096   3.870  0.5504  0.2318  0.1778
 8228SOL    HW125583   1.597   0.024   3.863  0.9997  0.5779  0.8644
 8228SOL    HW225584   1.437   0.055   3.873  0.7139 -0.2212 -0.8895
 8229SOL     OW25585   5.276   4.967   2.280  0.0578  0.2277 -0.2954
 8229SOL    HW125586   5.335   4.921   2.213  1.2251 -0.8656  1.4280
 8229SOL    HW225587   5.326   4.983   2.364 -2.0844 -0.8295  1.2864
 8230SOL     OW25588   4.627   6.957   3.996 -0.1746  0.4607 -0.2884
 8230SOL    HW125589   4.557   6.934   3.928 -1.8091 -1.8111  1.9313
 8230SOL    HW225590   4.622   7.055   4.017 -2.7890  0.4037 -0.2381
 8231SOL     OW25591   3.303   0.200   6.347  0.1381 -0.3017 -0.3419
 8231SOL    HW125592   3.392   0.236   6.375 -0.0666 -1.9575  2.8565
 8231SOL    HW225593   3.317   0.123   6.284  1.0605 -1.0939  0.7847
 8232SOL     OW25594   1.754   1.907   1.466  0.0342 -0.3803  0.1518
 8232SOL    HW125595   1.662   1.931   1.435 -0.9579 -2.4765  1.2686
 8232SOL    HW225596   1.807   1.990   1.481 -2.0525  0.9488  0.5630
 8233SOL     OW25597   0.523   0.740   6.519  0.3716 -0.2272  0.4402
 8233SOL    HW125598   0.604   0.773   6.471 -0.7844  0.3078 -1.2166
 8233SOL    HW225599   0.454   0.813   6.522  0.0969 -0.4970  2.2721
 8234SOL     OW25600   0.972   4.261   1.475  0.2429  0.5523 -0.2764
 8234SOL    HW125601   1.057   4.234   1.431  0.6696  1.5076 -0.0493
 8234SOL    HW225602   0.948   4.354   1.448 -0.0663  0.7465  0.6438
 8235SOL     OW25603   5.722   1.451   0.493  0.2040  0.3122  0.1874
 8235SOL    HW125604   5.795   1.504   0.450  0.4525 -2.0229 -2.5995
 8235SOL    HW225605   5.639   1.459   0.438  0.0515 -1.4948  0.0979
 8236SOL     OW25606   0.761   1.604   2.005  0.2081 -0.0070  0.0761
 8236SOL    HW125607   0.680   1.548   2.025 -0.1878  0.6956  0.4661
 8236SOL    HW225608   0.773   1.610   1.906 -0.7746  0.6668 -0.0097
 8237SOL     OW25609   3.575   6.985   5.728 -0.4790  0.2547 -0.2045
 8237SOL    HW125610   3.520   6.930   5.665 -1.0793 -1.1261  1.4482
 8237SOL    HW225611   3.672   6.968   5.711 -0.6497 -1.0600  0.0314
 8238SOL     OW25612   0.235   0.455   5.595 -0.1565 -0.0911  0.2546
 8238SOL    HW125613   0.185   0.440   5.680 -0.1929  0.6873  0.3758
 8238SOL    HW225614   0.322   0.500   5.614  0.8121 -1.8005  0.0889
 8239SOL     OW25615   4.369   2.794   0.815  0.4256  0.6011  0.5731
 8239SOL    HW125616   4.290   2.827   0.868 -0.1797 -2.3106  1.6805
 8239SOL    HW225617   4.438   2.758   0.878  0.6123 -1.0354 -0.5258
 8240SOL     OW25618   2.837   3.389   2.013 -0.3866  0.5996  0.1992
 8240SOL    HW125619   2.920   3.342   1.985 -0.2598  0.9435  0.0024
 8240SOL    HW225620   2.779   3.326   2.065 -0.2516  0.2036 -0.1281
 8241SOL     OW25621   2.447   0.529   1.022  1.0526  0.5163 -0.8508
 8241SOL    HW125622   2.516   0.596   1.050  1.0838  0.3943 -0.6320
 8241SOL    HW225623   2.482   0.475   0.946  2.6579 -1.9446  1.4794
 8242SOL     OW25624   1.691   3.702   5.304 -0.5622  0.0417  0.6713
 8242SOL    HW125625   1.788   3.723   5.304 -0.2382 -1.3948  0.4883
 8242SOL    HW225626   1.671   3.631   5.237 -1.6008 -0.3143  1.3237
 8243SOL     OW25627   0.553   5.552   5.385 -0.6592  0.4976  0.0459
 8243SOL    HW125628   0.617   5.558   5.462 -0.5263  0.2209 -0.0415
 8243SOL    HW225629   0.592   5.600   5.306 -0.0776 -0.5576 -0.3270
 8244SOL     OW25630   4.372   5.303   5.115 -0.1464  0.1073  0.0914
 8244SOL    HW125631   4.370   5.233   5.186 -0.1867  0.4829  0.4672
 8244SOL    HW225632   4.323   5.270   5.034  0.7877 -0.7349 -0.1570
 8245SOL     OW25633   4.855   3.620   1.459  0.1079 -0.5303  0.0556
 8245SOL    HW125634   4.845   3.623   1.559  1.0024  0.2454  0.1348
 8245SOL    HW225635   4.771   3.653   1.416  0.3553  0.8365  0.5837
 8246SOL     OW25636   4.492   1.009   3.759 -0.0128  0.0250 -0.0519
 8246SOL    HW125637   4.532   1.073   3.825  0.2265 -0.0239 -0.1473
 8246SOL    HW225638   4.401   1.040   3.733  0.3607  0.6811 -0.6013
 8247SOL     OW25639   6.364   0.335   0.014  0.2576 -0.7701  0.0066
 8247SOL    HW125640   6.373   0.335  -0.086 -1.4022  3.8063 -0.3611
 8247SOL    HW225641   6.267   0.326   0.038  0.5850 -1.2128  1.2248
 8248SOL     OW25642   0.028   4.273   3.051  0.1461  0.1546  0.1464
 8248SOL    HW125643  -0.008   4.363   3.073 -2.2517 -0.9018  0.7820
 8248SOL    HW225644  -0.011   4.204   3.112  2.4678 -1.2695  0.1630
 8249SOL     OW25645   0.516   6.362   2.078 -0.3288  0.3940 -0.3507
 8249SOL    HW125646   0.502   6.445   2.132 -0.5258  0.5633 -0.6645
 8249SOL    HW225647   0.473   6.285   2.125 -2.1942  0.8612 -1.1962
 8250SOL     OW25648   2.476   4.450   1.579 -0.0545  0.1068  0.2428
 8250SOL    HW125649   2.471   4.527   1.516 -1.0458 -0.6231 -0.6024
 8250SOL    HW225650   2.384   4.422   1.606  0.2464 -1.1487  0.0551
 8251SOL     OW25651   5.236   1.041   6.921  0.2662 -0.2755  0.2736
 8251SOL    HW125652   5.202   1.125   6.879 -0.4519 -0.3972  0.5936
 8251SOL    HW225653   5.239   0.968   6.852  1.1758  0.0758 -0.0774
 8252SOL     OW25654   1.414   1.990   5.306  0.6102 -0.1493 -0.7410
 8252SOL    HW125655   1.317   1.994   5.326  0.6988  0.3825 -0.3888
 8252SOL    HW225656   1.428   1.955   5.213  0.1340 -1.3325 -0.3766
 8253SOL     OW25657   2.808   2.344   5.440 -0.1418 -0.0518 -0.0917
 8253SOL    HW125658   2.906   2.368   5.441  0.1879 -1.3265  1.0308
 8253SOL    HW225659   2.798   2.245   5.442 -1.4802 -0.0230 -2.1605
 8254SOL     OW25660   5.178   4.640   2.703  0.4668  0.2400  0.5062
 8254SOL    HW125661   5.143   4.546   2.709 -1.3702  0.8114 -0.5873
 8254SOL    HW225662   5.162   4.676   2.611  1.3930  1.5453  0.8289
 8255SOL     OW25663   3.442   6.208   5.368 -0.0427 -0.2289 -0.2250
 8255SOL    HW125664   3.528   6.191   5.417  0.3819  0.1612 -0.8225
 8255SOL    HW225665   3.455   6.283   5.303 -0.9491  0.0948 -0.0410
 8256SOL     OW25666   5.126   2.182   4.230  0.5823  0.2410  0.3620
 8256SOL    HW125667   5.070   2.264   4.240  1.0024  0.2925  3.3458
 8256SOL    HW225668   5.211   2.205   4.182  0.9215  1.7284  1.5887
 8257SOL     OW25669   0.578   3.901   2.978 -0.2224  0.3889 -0.4442
 8257SOL    HW125670   0.649   3.968   2.958  0.7231 -0.3645  0.3046
 8257SOL    HW225671   0.513   3.898   2.901  0.3352  1.3361 -0.9827
 8258SOL     OW25672   4.869   4.070   2.486 -0.3819  0.1632 -0.0930
 8258SOL    HW125673   4.864   4.024   2.397  0.1575  0.3501 -0.2270
 8258SOL    HW225674   4.858   4.169   2.473 -1.1532  0.1112  0.1478
 8259SOL     OW25675   4.589   1.098   0.960  0.2093 -0.0545 -0.1503
 8259SOL    HW125676   4.665   1.153   0.997 -1.9529  4.1333 -1.2537
 8259SOL    HW225677   4.529   1.070   1.035  1.4478 -1.1451  0.4668
 8260SOL     OW25678   3.942   5.077   0.816 -0.5262  0.3734  0.1933
 8260SOL    HW125679   3.877   5.047   0.747  0.6406  0.0802 -0.8174
 8260SOL    HW225680   3.994   5.155   0.781  0.0805  0.2169  0.7278
 8261SOL     OW25681   5.192   1.218   2.129 -0.0803 -0.2710  0.7702
 8261SOL    HW125682   5.269   1.213   2.065  1.1923 -0.2696  2.2260
 8261SOL    HW225683   5.224   1.194   2.221 -1.9494 -0.7514  1.3413
 8262SOL     OW25684   6.285   2.100   0.879 -0.4244 -0.0693  0.1578
 8262SOL    HW125685   6.308   2.179   0.937 -2.4360  0.5523  0.1762
 8262SOL    HW225686   6.189   2.077   0.892  0.1634 -2.7088  0.3161
 8263SOL     OW25687   5.794   2.252   0.110  0.7689  0.1728 -0.5469
 8263SOL    HW125688   5.823   2.244   0.015 -1.1528 -1.9364 -1.0498
 8263SOL    HW225689   5.697   2.227   0.118  0.3576  2.1155  1.7138
 8264SOL     OW25690   2.138   5.042   3.581  0.1285  0.1130  0.0336
 8264SOL    HW125691   2.104   5.113   3.519  1.8292  2.1040  1.2323
 8264SOL    HW225692   2.066   5.017   3.645 -0.1652  1.7472  0.4006
 8265SOL     OW25693   1.185   0.838   2.286 -0.5501  0.1016  0.0921
 8265SOL    HW125694   1.236   0.787   2.217  0.8741  0.8166  0.5890
 8265SOL    HW225695   1.093   0.857   2.252 -0.3628 -0.8365 -0.9930
 8266SOL     OW25696   2.740   0.580   3.385  1.3806 -0.0720 -0.5097
 8266SOL    HW125697   2.797   0.614   3.460 -0.0119 -0.0197  0.5528
 8266SOL    HW225698   2.722   0.482   3.400 -1.2267  0.5131  0.8472
 8267SOL     OW25699   6.292   1.609   2.511 -0.1246 -0.4825 -0.3639
 8267SOL    HW125700   6.315   1.647   2.421  0.6359  0.7260  0.3250
 8267SOL    HW225701   6.350   1.650   2.581 -2.4382  0.5878  1.0604
 8268SOL     OW25702   1.539   4.964   5.826 -0.4877  0.7695 -0.1920
 8268SOL    HW125703   1.518   4.904   5.903  1.7291 -1.1214 -0.9594
 8268SOL    HW225704   1.564   5.055   5.860 -0.1749  0.1620  1.2811
 8269SOL     OW25705   6.612   4.392   6.659  0.0859 -0.2515 -0.3024
 8269SOL    HW125706   6.688   4.335   6.629 -0.3871 -0.8781 -0.3251
 8269SOL    HW225707   6.525   4.349   6.635 -0.2844  0.4078 -0.1908
 8270SOL     OW25708   2.198   4.733   1.776  0.2581 -0.4991  0.2066
 8270SOL    HW125709   2.187   4.771   1.867  0.2332 -2.5435  1.1199
 8270SOL    HW225710   2.293   4.743   1.747  0.1584  0.5968  0.2372
 8271SOL     OW25711   6.125   0.498   4.067 -0.0244 -0.2266 -0.1702
 8271SOL    HW125712   6.206   0.532   4.115  0.5612  1.1281 -2.0137
 8271SOL    HW225713   6.138   0.402   4.045  0.1398 -0.5929  1.3944
 8272SOL     OW25714   1.301   2.043   4.863 -0.2864 -0.0779  0.0806
 8272SOL    HW125715   1.370   2.104   4.903  0.8980 -0.8134 -0.7791
 8272SOL    HW225716   1.245   2.095   4.798  0.2675  0.2561 -0.1394
 8273SOL     OW25717   3.162   0.944   2.491 -0.4250 -0.3234  0.3034
 8273SOL    HW125718   3.260   0.962   2.486 -0.0613 -2.3431 -0.8908
 8273SOL    HW225719   3.141   0.899   2.578 -0.3682  0.4104  0.7050
 8274SOL     OW25720   5.415   4.633   5.102  0.4238  0.1281  0.1542
 8274SOL    HW125721   5.472   4.552   5.090 -0.7690 -0.5201 -1.6151
 8274SOL    HW225722   5.453   4.708   5.047 -0.1383 -0.1714 -0.6650
 8275SOL     OW25723   0.278   6.903   1.654  0.1100  0.3228 -0.4779
 8275SOL    HW125724   0.280   6.925   1.556 -0.9680  2.1479 -0.1375
 8275SOL    HW225725   0.192   6.857   1.676 -0.1153  0.8513 -0.2290
 8276SOL     OW25726   2.566   2.536   3.566  0.0302 -0.0185  0.0260
 8276SOL    HW125727   2.484   2.571   3.611 -0.4032 -0.2957 -0.5351
 8276SOL    HW225728   2.631   2.504   3.635  0.5478  2.0688  0.5761
 8277SOL     OW25729   5.342   0.635   2.047 -0.0736 -0.5547  0.1601
 8277SOL    HW125730   5.275   0.560   2.042 -0.9839  0.1919  0.9780
 8277SOL    HW225731   5.296   0.719   2.073  1.1371  0.0649  0.3446
 8278SOL     OW25732   1.678   3.607   2.955  0.8012  0.0070  0.3580
 8278SOL    HW125733   1.683   3.507   2.958  0.8058 -0.0375 -0.8320
 8278SOL    HW225734   1.755   3.643   2.902  0.7870  0.6498  0.7542
 8279SOL     OW25735   6.279   5.842   4.536 -0.2759 -0.6383 -0.2476
 8279SOL    HW125736   6.326   5.867   4.451  0.7039  0.2769  0.5413
 8279SOL    HW225737   6.297   5.746   4.558  0.2065 -0.6307 -0.6057
 8280SOL     OW25738   3.401   2.085   5.134 -0.2063  0.3820 -0.2022
 8280SOL    HW125739   3.407   2.104   5.036  2.3467 -0.8286 -0.3585
 8280SOL    HW225740   3.457   2.151   5.184 -0.4400  0.1937  0.3100
 8281SOL     OW25741   4.929   4.527   3.077  0.3458 -0.2629 -0.1105
 8281SOL    HW125742   4.999   4.538   3.147  0.6810 -2.4695 -0.0212
 8281SOL    HW225743   4.946   4.591   3.002 -0.8729  3.2330  2.3525
 8282SOL     OW25744   1.757   2.891   6.868  0.0172  0.2133  0.8332
 8282SOL    HW125745   1.749   2.926   6.962  0.2794 -0.4826  1.1256
 8282SOL    HW225746   1.820   2.949   6.817 -2.3115  2.3501  0.1842
 8283SOL     OW25747   3.291   3.713   6.098  0.0144  0.1675 -0.4370
 8283SOL    HW125748   3.350   3.792   6.079  0.8639 -0.5414 -0.7954
 8283SOL    HW225749   3.214   3.713   6.035 -1.8042  2.4879  1.5981
 8284SOL     OW25750   0.313   4.639   1.666  0.1085  0.2357  0.3024
 8284SOL    HW125751   0.394   4.594   1.628 -0.5582  1.0296 -2.2453
 8284SOL    HW225752   0.231   4.597   1.627 -0.6100  1.4601  0.4550
 8285SOL     OW25753   3.753   3.267   3.138 -0.3568 -0.0935  0.5214
 8285SOL    HW125754   3.844   3.282   3.176  0.3995 -2.3103 -0.2749
 8285SOL    HW225755   3.686   3.320   3.191  1.0948 -0.1382  2.5366
 8286SOL     OW25756   2.254   3.554   0.602  0.3444 -0.2441 -0.1879
 8286SOL    HW125757   2.206   3.488   0.544  1.5289 -1.9038  0.6568
 8286SOL    HW225758   2.187   3.617   0.642 -0.9689 -1.5764 -0.1975
 8287SOL     OW25759   3.539   0.034   3.763 -0.4706 -0.3233  0.2415
 8287SOL    HW125760   3.533   0.086   3.848 -1.1882 -0.1618  0.1059
 8287SOL    HW225761   3.573   0.093   3.690  1.0371 -0.7118  0.6032
 8288SOL     OW25762   2.600   2.073   4.123 -0.0320 -0.1540  0.6101
 8288SOL    HW125763   2.549   2.153   4.092  1.0089  1.0172  1.7610
 8288SOL    HW225764   2.591   2.065   4.222  3.0885  0.9817  1.1032
 8289SOL     OW25765   1.114   6.558   6.095 -0.9912 -0.2174 -0.1530
 8289SOL    HW125766   1.094   6.539   5.999  0.5903 -0.4971 -0.4584
 8289SOL    HW225767   1.134   6.472   6.142 -1.0317 -0.0089  0.2508
 8290SOL     OW25768   7.010   0.638   2.909 -0.4233 -0.6203  0.2544
 8290SOL    HW125769   6.984   0.608   3.000 -1.8216 -0.3083 -0.0029
 8290SOL    HW225770   7.049   0.562   2.858  2.0778 -0.3613  1.6665
 8291SOL     OW25771   3.514   0.872   0.765 -0.1347  0.3718  0.0741
 8291SOL    HW125772   3.436   0.915   0.719 -0.2078  0.4394  0.2607
 8291SOL    HW225773   3.588   0.938   0.774  0.0042  0.2614 -0.2460
 8292SOL     OW25774   1.623   0.951   6.479 -0.2709  0.1563 -0.2608
 8292SOL    HW125775   1.565   0.979   6.556  0.9027  1.1446  0.3015
 8292SOL    HW225776   1.612   1.017   6.404 -0.3368 -0.0061 -0.3945
 8293SOL     OW25777   4.754   5.683   5.837  0.2356  0.1949 -0.5185
 8293SOL    HW125778   4.660   5.679   5.803  0.4918  0.7770 -1.3451
 8293SOL    HW225779   4.805   5.752   5.784  0.4914  1.6185  1.4628
 8294SOL     OW25780   5.774   2.123   1.189  0.2811  0.0829 -0.2249
 8294SOL    HW125781   5.770   2.204   1.248  0.3289 -0.2398  0.2228
 8294SOL    HW225782   5.702   2.059   1.216  1.8067 -1.1536  1.0869
 8295SOL     OW25783   5.354   3.054   6.092  0.0331  0.4964 -0.4995
 8295SOL    HW125784   5.297   2.977   6.064 -1.0085  1.5606 -1.3580
 8295SOL    HW225785   5.409   3.085   6.015  0.4197  0.6624 -0.1637
 8296SOL     OW25786   5.252   6.449   4.267  0.9403  0.1309 -0.3194
 8296SOL    HW125787   5.304   6.477   4.187 -2.0324  0.3484 -2.3096
 8296SOL    HW225788   5.174   6.510   4.279  0.4003 -0.8893  1.8129
 8297SOL     OW25789   2.264   1.965   4.801  0.7317  0.4467  0.6498
 8297SOL    HW125790   2.290   2.021   4.880 -0.1222  2.8586 -0.6818
 8297SOL    HW225791   2.344   1.954   4.741  0.9946 -0.0917  1.0929
 8298SOL     OW25792   3.534   2.056   2.644  0.4999  0.1816  0.2616
 8298SOL    HW125793   3.515   2.057   2.545 -3.2008 -0.7374  0.8259
 8298SOL    HW225794   3.506   1.969   2.683  1.9541  0.5029  2.1661
 8299SOL     OW25795   6.970   6.949   0.749  0.0930 -0.2277  0.2869
 8299SOL    HW125796   7.006   6.989   0.834  2.0277 -3.3563  1.1037
 8299SOL    HW225797   7.045   6.933   0.686 -1.0221 -0.0391 -1.1314
 8300SOL     OW25798   1.731   6.119   2.165  0.5873 -0.2058  0.4910
 8300SOL    HW125799   1.746   6.031   2.211  0.1507 -0.2027  0.6446
 8300SOL    HW225800   1.792   6.126   2.086 -0.4043 -1.3039 -0.4158
 8301SOL     OW25801   4.732   0.785   5.356 -0.1224  0.0704  0.8005
 8301SOL    HW125802   4.768   0.695   5.382 -0.4088  0.1478  1.4969
 8301SOL    HW225803   4.781   0.819   5.276 -1.6988 -1.8425 -1.0865
 8302SOL     OW25804   4.842   6.108   6.298 -0.5871 -0.0007 -0.1412
 8302SOL    HW125805   4.845   6.013   6.268 -1.2136  0.3399 -1.3255
 8302SOL    HW225806   4.935   6.144   6.305 -0.2887 -0.9433  1.1946
 8303SOL     OW25807   5.496   0.594   0.643  0.1026 -0.6459  0.0295
 8303SOL    HW125808   5.493   0.524   0.714  0.5372 -0.5935  0.1052
 8303SOL    HW225809   5.412   0.647   0.645  0.1076 -0.6473  0.5108
 8304SOL     OW25810   0.609   3.402   2.162 -0.4375 -0.0023 -0.0955
 8304SOL    HW125811   0.518   3.390   2.123  0.6638  0.9345 -3.2942
 8304SOL    HW225812   0.632   3.322   2.218 -3.9413  0.6742  2.6532
 8305SOL     OW25813   1.417   4.726   2.585 -0.0836 -0.3569  0.6666
 8305SOL    HW125814   1.386   4.784   2.660 -0.2635  0.0048  0.3155
 8305SOL    HW225815   1.516   4.716   2.589  0.2264  1.7465 -0.5028
 8306SOL     OW25816   6.959   2.441   5.249 -0.0466  0.1959 -0.0416
 8306SOL    HW125817   6.964   2.344   5.272 -1.3000 -0.3602 -1.9210
 8306SOL    HW225818   6.884   2.484   5.301 -1.8616 -0.6988 -1.8092
 8307SOL     OW25819   5.871   4.732   2.185 -0.0106  0.0077 -0.8246
 8307SOL    HW125820   5.791   4.686   2.223 -0.0950 -0.5655 -1.6647
 8307SOL    HW225821   5.894   4.811   2.242 -0.9870  0.0098 -0.4059
 8308SOL     OW25822   2.690   6.804   2.466  0.2455  0.3460  0.3397
 8308SOL    HW125823   2.650   6.787   2.376  1.3485  0.7160 -0.2521
 8308SOL    HW225824   2.790   6.792   2.461  0.5779  2.3932  0.9796
 8309SOL     OW25825   5.385   5.425   3.691 -0.2501  0.2669  0.2819
 8309SOL    HW125826   5.356   5.508   3.737 -0.1279 -0.0101  0.8669
 8309SOL    HW225827   5.471   5.441   3.644 -0.4904  0.6137 -0.0436
 8310SOL     OW25828   6.393   3.821   6.475  0.2114 -0.4368  0.2252
 8310SOL    HW125829   6.372   3.897   6.413  1.4633  0.7812  1.1998
 8310SOL    HW225830   6.451   3.754   6.428  0.9614  0.3602 -0.0200
 8311SOL     OW25831   4.838   1.231   6.565  0.6699 -0.2550  0.2704
 8311SOL    HW125832   4.847   1.132   6.567 -0.1700 -0.4394 -1.9328
 8311SOL    HW225833   4.766   1.259   6.628 -0.7731 -1.3482 -0.8064
 8312SOL     OW25834   5.748   5.919   6.722  0.4351 -0.2987  0.1413
 8312SOL    HW125835   5.821   5.860   6.687  1.2159 -0.2550  1.6142
 8312SOL    HW225836   5.718   5.886   6.811 -0.0501  0.7605  0.3896
 8313SOL     OW25837   4.694   2.139   3.566 -0.2459  0.2920 -0.1807
 8313SOL    HW125838   4.655   2.129   3.475 -1.1523 -1.5815  0.3644
 8313SOL    HW225839   4.722   2.235   3.580  1.1636  0.3838 -2.8700
 8314SOL     OW25840   4.509   0.167   3.071 -0.1992 -0.0298 -0.4299
 8314SOL    HW125841   4.583   0.221   3.111 -0.3516 -0.6462  0.7589
 8314SOL    HW225842   4.540   0.123   2.987  0.3464  0.7960 -0.6648
 8315SOL     OW25843   5.125   3.239   5.758 -0.4364 -0.1531 -0.3537
 8315SOL    HW125844   5.125   3.333   5.791  0.6758  0.3312 -1.6454
 8315SOL    HW225845   5.070   3.182   5.820  0.8459  0.8582  1.8453
 8316SOL     OW25846   3.670   0.754   6.948 -0.3380  0.2719  0.3323
 8316SOL    HW125847   3.701   0.845   6.978  0.1596  2.2605 -5.1533
 8316SOL    HW225848   3.747   0.691   6.946 -0.1353  0.4433  1.6914
 8317SOL     OW25849   3.334   4.808   1.764 -0.1114  0.0873  0.5570
 8317SOL    HW125850   3.316   4.802   1.666 -0.3335  0.5479  0.5690
 8317SOL    HW225851   3.247   4.805   1.814 -0.1351  1.5360  0.6511
 8318SOL     OW25852   1.458   0.435   4.952  1.0366 -0.0276  0.0222
 8318SOL    HW125853   1.500   0.465   4.866 -0.0578 -1.8848 -1.2564
 8318SOL    HW225854   1.392   0.504   4.982  0.8290  0.3006 -1.1104
 8319SOL     OW25855   2.278   5.726   4.372 -0.5453 -0.0581  0.7504
 8319SOL    HW125856   2.203   5.711   4.436 -3.0474 -0.2055 -2.0152
 8319SOL    HW225857   2.256   5.684   4.284  1.9727  1.4949 -0.7474
 8320SOL     OW25858   3.426   6.285   0.114  0.3959 -0.3138  0.5669
 8320SOL    HW125859   3.450   6.366   0.059 -1.9627  0.9765  1.2691
 8320SOL    HW225860   3.379   6.219   0.056 -1.5148  0.7656  0.7958
 8321SOL     OW25861   6.030   0.297   1.309 -0.2592 -0.4364  0.3332
 8321SOL    HW125862   5.984   0.384   1.328  0.9112 -0.0183  1.3717
 8321SOL    HW225863   6.080   0.304   1.223  0.6973  0.3087  0.9271
 8322SOL     OW25864   5.014   6.310   6.665 -0.2028 -0.3995 -0.3656
 8322SOL    HW125865   5.075   6.265   6.730  1.0104  0.7718 -0.6526
 8322SOL    HW225866   4.979   6.395   6.706 -0.3849 -0.2684 -0.7904
 8323SOL     OW25867   1.467   6.073   2.207  0.4203 -0.2651 -0.4250
 8323SOL    HW125868   1.398   6.091   2.136 -0.1075  0.6874  0.3147
 8323SOL    HW225869   1.557   6.093   2.171  0.1943 -0.1787 -0.9567
 8324SOL     OW25870   5.829   6.948   2.430 -0.5471 -0.3088 -0.2689
 8324SOL    HW125871   5.817   7.041   2.464 -0.8535 -0.8919  1.2834
 8324SOL    HW225872   5.872   6.951   2.340  3.4986  1.2603  1.4533
 8325SOL     OW25873   3.019   3.486   5.053 -0.0610  0.3486 -0.0726
 8325SOL    HW125874   3.053   3.544   4.980 -1.1244 -0.0122 -0.8650
 8325SOL    HW225875   3.055   3.518   5.141 -1.8921  3.2177 -0.2703
 8326SOL     OW25876   3.805   2.794   6.520 -0.3870  0.2228  0.0351
 8326SOL    HW125877   3.725   2.760   6.470 -2.5467  2.2930  1.8023
 8326SOL    HW225878   3.840   2.876   6.474 -0.7154  0.6005  0.4478
 8327SOL     OW25879   6.239   2.613   5.950  0.3296 -0.0244 -0.2671
 8327SOL    HW125880   6.193   2.689   5.997 -0.6279  0.9131 -2.5903
 8327SOL    HW225881   6.324   2.591   5.998 -0.8615  0.4204  2.2398
 8328SOL     OW25882   1.157   2.590   5.807  0.1207 -0.0737  0.0855
 8328SOL    HW125883   1.141   2.677   5.760 -0.6818  0.0032  0.4805
 8328SOL    HW225884   1.121   2.515   5.751  1.2187 -0.2141 -0.4677
 8329SOL     OW25885   3.375   4.872   5.050  0.1851  1.0499  0.4094
 8329SOL    HW125886   3.418   4.863   4.960  3.9453  2.7991  1.8301
 8329SOL    HW225887   3.343   4.966   5.062  1.1208  1.2698  1.3696
 8330SOL     OW25888   0.974   2.825   6.460 -0.1421 -0.1798  0.2933
 8330SOL    HW125889   0.970   2.857   6.365  0.1229  1.7596  0.8752
 8330SOL    HW225890   0.929   2.737   6.468 -1.0749  0.1000 -1.4467
 8331SOL     OW25891   2.454   0.122   1.233 -0.2791  0.4820 -0.0825
 8331SOL    HW125892   2.487   0.091   1.144  1.4233  2.0181 -0.0316
 8331SOL    HW225893   2.400   0.205   1.221 -0.0287  0.7028  0.3133
 8332SOL     OW25894   5.364   6.362   2.588  0.3115  0.4472  0.1084
 8332SOL    HW125895   5.366   6.393   2.683  1.8838  1.0310 -0.1028
 8332SOL    HW225896   5.278   6.313   2.571  0.5601 -0.8349  2.2014
 8333SOL     OW25897   1.633   5.453   4.009  0.0675 -0.0771 -0.0436
 8333SOL    HW125898   1.533   5.457   4.010  0.0709 -0.0339  0.5695
 8333SOL    HW225899   1.669   5.534   3.963 -0.1356  1.3518  2.1530
 8334SOL     OW25900   6.299   6.322   2.911  0.4656  0.4325  0.1269
 8334SOL    HW125901   6.368   6.289   2.976  1.4341 -0.6095 -1.3665
 8334SOL    HW225902   6.213   6.273   2.926  0.4198  0.7924  1.1356
 8335SOL     OW25903   4.855   6.120   5.371 -1.1517  1.3118 -0.4560
 8335SOL    HW125904   4.948   6.087   5.385 -0.1480  2.4281 -3.5495
 8335SOL    HW225905   4.790   6.049   5.395  0.6772 -0.9274 -1.7513
 8336SOL     OW25906   2.755   1.820   3.075  0.2096  0.2916 -0.3262
 8336SOL    HW125907   2.800   1.799   2.989 -0.0535 -0.7793 -0.2180
 8336SOL    HW225908   2.815   1.796   3.152 -0.8816 -2.2505 -0.1499
 8337SOL     OW25909   0.243   5.549   4.319 -0.0822 -0.1812 -0.6073
 8337SOL    HW125910   0.222   5.483   4.248  0.4755 -0.1436 -0.8149
 8337SOL    HW225911   0.326   5.599   4.295 -1.0433  1.3273 -0.9619
 8338SOL     OW25912   2.199   7.010   6.819  0.1869 -0.2480 -0.3228
 8338SOL    HW125913   2.193   7.101   6.861 -1.0815 -0.8771  0.9381
 8338SOL    HW225914   2.294   6.993   6.792  0.1833  2.0845 -2.1374
 8339SOL     OW25915   5.164   6.163   1.719  0.0103 -0.3077 -0.2335
 8339SOL    HW125916   5.119   6.227   1.657 -0.4655  0.3571  0.7717
 8339SOL    HW225917   5.136   6.183   1.813 -0.8613 -2.5573  0.0491
 8340SOL     OW25918   6.227   3.662   3.451  0.3738 -0.0432 -0.3474
 8340SOL    HW125919   6.132   3.694   3.454  0.1932 -0.5277  2.9801
 8340SOL    HW225920   6.242   3.613   3.365 -2.2261  0.4593 -1.1937
 8341SOL     OW25921   1.505   1.775   6.697 -0.3157  0.2597 -0.4170
 8341SOL    HW125922   1.433   1.803   6.633  0.1866  0.5319 -0.8780
 8341SOL    HW225923   1.568   1.852   6.710  0.2144 -0.1629 -0.4738
 8342SOL     OW25924   4.780   6.459   2.807 -0.1423 -0.1492  0.3442
 8342SOL    HW125925   4.718   6.536   2.792  1.4279  0.8040 -1.8556
 8342SOL    HW225926   4.760   6.387   2.742  0.6140 -0.0945  0.0367
 8343SOL     OW25927   5.482   3.372   6.053 -0.7942  0.1111  0.5107
 8343SOL    HW125928   5.458   3.461   6.091  0.5060 -0.2421  2.2945
 8343SOL    HW225929   5.573   3.375   6.012 -0.4114 -0.5635  1.2772
 8344SOL     OW25930   5.025   1.151   4.631  0.4498  0.8428  0.0423
 8344SOL    HW125931   4.992   1.234   4.586 -0.0283 -0.7551 -2.8580
 8344SOL    HW225932   5.121   1.137   4.607 -0.5176 -1.4845 -3.1831
 8345SOL     OW25933   6.463   1.873   4.925  0.5731  0.0802 -0.9762
 8345SOL    HW125934   6.400   1.927   4.870 -1.1215 -0.3803  0.4114
 8345SOL    HW225935   6.470   1.912   5.017  1.1526 -0.7277 -0.6629
 8346SOL     OW25936   3.849   4.831   1.493 -0.1795 -0.3199 -0.2302
 8346SOL    HW125937   3.852   4.864   1.587  0.2414 -1.6570  0.2435
 8346SOL    HW225938   3.764   4.781   1.478 -0.0240 -0.5339 -0.4085
 8347SOL     OW25939   4.684   6.217   4.447  0.0813 -0.7111  0.3342
 8347SOL    HW125940   4.779   6.201   4.474 -0.2004  0.0252  1.8313
 8347SOL    HW225941   4.662   6.313   4.459 -0.4907 -0.6070 -1.2825
 8348SOL     OW25942   1.295   0.852   0.271  0.3741  0.6198 -0.2116
 8348SOL    HW125943   1.330   0.808   0.354  0.4501 -2.7215 -1.8166
 8348SOL    HW225944   1.370   0.899   0.225  0.7088  1.0652  0.7669
 8349SOL     OW25945   0.609   4.042   1.549  0.2901  0.9112  0.7028
 8349SOL    HW125946   0.631   3.975   1.620  1.2187  1.3522  0.8464
 8349SOL    HW225947   0.644   4.010   1.461  0.7476  1.2021  0.7738
 8350SOL     OW25948   5.817   0.581   6.011  0.6885 -0.0915 -0.2820
 8350SOL    HW125949   5.889   0.637   5.971  1.2930 -0.2760  0.5328
 8350SOL    HW225950   5.793   0.616   6.101 -2.7451  2.1499 -1.8485
 8351SOL     OW25951   2.347   5.811   0.883 -0.1546 -0.2917  0.3652
 8351SOL    HW125952   2.255   5.773   0.892  0.2301 -1.2214  0.4299
 8351SOL    HW225953   2.397   5.761   0.813  0.3368  0.1419  0.4015
 8352SOL     OW25954   6.448   6.422   2.018 -0.1093 -0.3043  0.5555
 8352SOL    HW125955   6.453   6.328   1.985 -0.6884 -0.4978  1.0141
 8352SOL    HW225956   6.444   6.485   1.939  1.8548 -0.5395  0.2031
 8353SOL     OW25957   0.701   3.907   0.681  0.3827 -0.5816 -0.2264
 8353SOL    HW125958   0.748   3.973   0.740  1.0515 -0.8598 -0.4374
 8353SOL    HW225959   0.639   3.852   0.737  0.3521 -0.2527  0.0699
 8354SOL     OW25960   3.350   0.260   1.680 -0.2365  0.7332  0.0137
 8354SOL    HW125961   3.375   0.326   1.609 -0.7701  1.8847  0.8673
 8354SOL    HW225962   3.300   0.184   1.638  0.4028  0.8408 -0.9872
 8355SOL     OW25963   2.988   2.491   0.688 -0.1151 -0.3023  0.1742
 8355SOL    HW125964   2.938   2.468   0.772  0.0897 -0.0988  0.3555
 8355SOL    HW225965   3.045   2.571   0.705 -1.8974  1.2572 -0.8456
 8356SOL     OW25966   1.211   4.375   6.583  0.1834 -0.2703  0.4278
 8356SOL    HW125967   1.194   4.389   6.485  3.9186  0.6486 -0.2576
 8356SOL    HW225968   1.212   4.464   6.630  1.6431 -0.3640  0.6091
 8357SOL     OW25969   2.113   6.095   1.702  1.1637 -0.3696 -0.4299
 8357SOL    HW125970   2.033   6.047   1.739  2.2975 -1.9876  0.0141
 8357SOL    HW225971   2.085   6.147   1.620 -0.5682  0.1072  0.4021
 8358SOL     OW25972   3.592   1.076   5.333 -0.6702  0.1160 -0.3009
 8358SOL    HW125973   3.609   1.076   5.234  2.1841 -1.2944  0.0786
 8358SOL    HW225974   3.621   1.164   5.372 -0.1405  0.0358 -0.5069
 8359SOL     OW25975   4.065   4.785   3.681  0.0700 -0.7014 -0.1235
 8359SOL    HW125976   4.028   4.756   3.593  0.2651 -1.5504  0.0626
 8359SOL    HW225977   4.009   4.859   3.719 -1.6780 -2.2144  0.3377
 8360SOL     OW25978   5.765   0.205   3.775 -0.1159  0.1544  0.2531
 8360SOL    HW125979   5.789   0.217   3.679  0.7674 -0.3236  0.4069
 8360SOL    HW225980   5.835   0.150   3.821 -0.2113  0.8808  1.3092
 8361SOL     OW25981   2.075   0.341   5.409  0.2787  0.4213 -0.1184
 8361SOL    HW125982   2.062   0.260   5.466 -0.1232  0.5205 -0.0709
 8361SOL    HW225983   2.173   0.351   5.388  0.2023 -0.8715 -1.2681
 8362SOL     OW25984   2.256   2.937   1.327 -0.3218  0.3353 -0.2121
 8362SOL    HW125985   2.305   2.912   1.410  1.1913 -0.7360 -1.3641
 8362SOL    HW225986   2.227   3.033   1.332 -0.0382  0.3582  1.4112
 8363SOL     OW25987   6.488   1.506   0.222 -0.0420  0.0673  0.0848
 8363SOL    HW125988   6.546   1.587   0.221  0.1754 -0.0798  0.6974
 8363SOL    HW225989   6.471   1.477   0.316  0.4774 -1.0241 -0.1358
 8364SOL     OW25990   0.763   2.996   3.694 -0.3350 -0.7555  0.4582
 8364SOL    HW125991   0.670   3.022   3.669  0.1874  0.8618  0.0295
 8364SOL    HW225992   0.821   2.999   3.612  0.9365  2.4343  1.3115
 8365SOL     OW25993   1.492   2.369   5.187  0.1410 -0.3179 -0.5679
 8365SOL    HW125994   1.529   2.333   5.273 -1.9222  1.2963  1.1119
 8365SOL    HW225995   1.558   2.430   5.144  1.5501 -1.8335 -0.6481
 8366SOL     OW25996   1.613   6.728   2.001 -0.3352 -0.1454  0.0394
 8366SOL    HW125997   1.607   6.827   2.012 -1.2741 -0.2075  0.1734
 8366SOL    HW225998   1.526   6.693   1.967  0.9737 -0.5125 -3.4294
 8367SOL     OW25999   6.540   5.372   5.006 -0.0892 -0.0347 -0.1657
 8367SOL    HW126000   6.450   5.349   5.044 -0.1653  0.9588  0.2727
 8367SOL    HW226001   6.568   5.300   4.942 -0.7896 -0.7979  0.3632
 8368SOL     OW26002   1.604   6.344   6.107 -0.0862  0.5435  0.4935
 8368SOL    HW126003   1.669   6.342   6.031 -0.9054  1.6573 -0.2601
 8368SOL    HW226004   1.617   6.263   6.164  1.3847  0.3266 -0.1148
 8369SOL     OW26005   2.061   0.248   2.806 -0.0263  0.4572 -0.0151
 8369SOL    HW126006   1.991   0.277   2.872 -0.2268  0.8446 -0.3916
 8369SOL    HW226007   2.151   0.273   2.839 -0.0156 -0.4195  0.6785
 8370SOL     OW26008   3.145   1.112   1.099  0.6429  0.4670  0.1564
 8370SOL    HW126009   3.204   1.123   1.179  0.7293  1.2510 -0.0067
 8370SOL    HW226010   3.191   1.149   1.019  0.1579  0.5644 -0.0774
 8371SOL     OW26011   1.969   2.127   1.450 -0.5140  0.1305  0.5567
 8371SOL    HW126012   2.030   2.114   1.529 -1.9222  0.8662  1.7987
 8371SOL    HW226013   1.994   2.062   1.378  0.3626 -1.0377  1.8732
 8372SOL     OW26014   5.574   1.093   0.065 -0.4340 -1.0766  0.2408
 8372SOL    HW126015   5.493   1.058   0.112 -0.7717 -2.4912 -1.2793
 8372SOL    HW226016   5.655   1.044   0.097 -0.4220 -0.8446  0.5621
 8373SOL     OW26017   2.288   1.049   3.047 -0.4246 -0.4378 -0.1659
 8373SOL    HW126018   2.208   0.993   3.027 -0.3275 -0.4093 -0.6484
 8373SOL    HW226019   2.313   1.101   2.965  0.1147 -0.4863 -0.0317
 8374SOL     OW26020   6.685   2.034   4.903 -0.1081  0.0382 -0.2032
 8374SOL    HW126021   6.657   2.108   4.964 -1.0117  0.0934 -0.6743
 8374SOL    HW226022   6.610   1.969   4.892  0.2645 -0.3078 -0.7456
 8375SOL     OW26023   4.150   1.168   5.513 -0.1652 -0.3058  0.3297
 8375SOL    HW126024   4.173   1.146   5.608 -1.1996 -1.0784  0.4156
 8375SOL    HW226025   4.052   1.190   5.507 -0.2872 -1.0829 -0.6996
 8376SOL     OW26026   5.890   6.697   3.001  0.4487  0.1216 -0.6529
 8376SOL    HW126027   5.851   6.778   2.956  0.2203  0.3154 -0.1158
 8376SOL    HW226028   5.989   6.710   3.011  0.3057  0.6684  0.1041
 8377SOL     OW26029   3.737   1.147   6.743  0.1675  0.1708  0.0612
 8377SOL    HW126030   3.767   1.052   6.744  1.0490  0.4407  0.1824
 8377SOL    HW226031   3.807   1.204   6.786 -0.4567  0.8459  0.1959
 8378SOL     OW26032   5.210   5.230   3.782 -0.0625 -0.4289 -0.0516
 8378SOL    HW126033   5.222   5.234   3.881 -1.1790  1.0958  0.0515
 8378SOL    HW226034   5.268   5.298   3.739  0.6949 -1.3350 -0.4976
 8379SOL     OW26035   5.662   3.848   3.108 -0.3305 -0.1196 -0.4862
 8379SOL    HW126036   5.760   3.849   3.128  0.1238 -2.2058 -2.2107
 8379SOL    HW226037   5.624   3.939   3.120  1.9669  0.9029 -0.5065
 8380SOL     OW26038   5.302   1.475   2.484 -0.1486 -0.0720 -0.2331
 8380SOL    HW126039   5.257   1.386   2.492  0.8623 -0.7958 -2.0461
 8380SOL    HW226040   5.382   1.477   2.544 -1.0204  0.2087  0.9506
 8381SOL     OW26041   2.447   5.545   3.139 -0.6326 -0.8312  0.5721
 8381SOL    HW126042   2.350   5.563   3.157 -0.2718 -0.3800  2.1709
 8381SOL    HW226043   2.465   5.559   3.041 -1.9090  0.3232  0.4639
 8382SOL     OW26044   0.006   3.281   0.992 -0.6789 -0.8451  0.1075
 8382SOL    HW126045  -0.055   3.348   0.950 -0.9040  1.6496  3.8743
 8382SOL    HW226046  -0.049   3.208   1.033 -0.9498 -0.2715  0.7991
 8383SOL     OW26047   4.593   1.618   0.119  0.3910 -0.0580 -0.7339
 8383SOL    HW126048   4.592   1.647   0.024 -0.8136  0.8974 -0.4453
 8383SOL    HW226049   4.687   1.592   0.145  0.7315 -0.2921 -2.1481
 8384SOL     OW26050   1.256   1.208   0.120 -0.3660 -0.2751 -0.6744
 8384SOL    HW126051   1.164   1.177   0.144  0.9413 -4.5903 -0.3687
 8384SOL    HW226052   1.272   1.194   0.022  0.1376 -0.0795 -0.6231
 8385SOL     OW26053   5.922   0.648   1.992 -0.4340  0.1453  0.5987
 8385SOL    HW126054   5.868   0.567   2.017 -0.4832  0.4556  1.5624
 8385SOL    HW226055   5.999   0.621   1.934 -0.7049 -0.5264  0.5428
 8386SOL     OW26056   5.997   2.626   1.864  0.3983  0.1898  0.1027
 8386SOL    HW126057   5.994   2.541   1.918 -1.3977  0.0219 -0.2032
 8386SOL    HW226058   6.092   2.648   1.843  1.0092 -0.8911  1.5140
 8387SOL     OW26059   6.818   1.308   0.962  0.0311 -0.1275 -0.3517
 8387SOL    HW126060   6.737   1.316   1.021  0.8217 -0.3512  0.8000
 8387SOL    HW226061   6.901   1.315   1.018  0.8154 -1.2165 -1.3176
 8388SOL     OW26062   1.671   6.834   3.554  0.6057 -0.6670 -0.0777
 8388SOL    HW126063   1.766   6.865   3.561  0.3229  0.3901 -0.6639
 8388SOL    HW226064   1.660   6.782   3.469  0.0548  1.6853 -1.5543
 8389SOL     OW26065   5.073   2.934   4.564 -0.5248  0.4379 -0.5869
 8389SOL    HW126066   5.069   3.029   4.596 -1.9091  0.4802 -0.8080
 8389SOL    HW226067   5.160   2.919   4.517 -0.5632  1.8087 -1.1644
 8390SOL     OW26068   0.332   2.684   5.176 -0.1988 -0.4151  0.4367
 8390SOL    HW126069   0.235   2.667   5.162  0.0912 -1.8224 -0.1331
 8390SOL    HW226070   0.373   2.720   5.093 -0.2359  0.1916  0.6799
 8391SOL     OW26071   0.392   6.447   3.103 -0.7082  0.2458 -0.2202
 8391SOL    HW126072   0.346   6.535   3.106 -1.3140 -0.0326 -1.0448
 8391SOL    HW226073   0.372   6.396   3.187 -0.5501  0.7888  0.1515
 8392SOL     OW26074   3.912   3.987   4.143  0.2850  0.4297  0.0575
 8392SOL    HW126075   3.839   4.055   4.147 -0.8157 -0.6966  0.1803
 8392SOL    HW226076   3.902   3.931   4.061  0.7202 -0.0401  0.3115
 8393SOL     OW26077   5.523   1.940   1.461  0.4058 -0.0978 -0.0518
 8393SOL    HW126078   5.434   1.957   1.503 -0.3399 -0.3649 -1.4665
 8393SOL    HW226079   5.568   1.865   1.510  1.0908  1.7506  2.3808
 8394SOL     OW26080   4.191   2.283   1.898 -0.1305 -0.3420  0.2468
 8394SOL    HW126081   4.096   2.256   1.881 -0.9400  1.4042  1.6762
 8394SOL    HW226082   4.209   2.283   1.996  1.2357 -0.2034  0.0207
 8395SOL     OW26083   0.847   0.885   5.590  0.0183  0.2324  0.5327
 8395SOL    HW126084   0.862   0.833   5.674  0.4528  1.3704  1.1803
 8395SOL    HW226085   0.758   0.931   5.594  0.3496  0.8697  0.6933
 8396SOL     OW26086   3.729   5.179   4.138 -0.3816 -0.2506 -0.3611
 8396SOL    HW126087   3.808   5.214   4.188 -1.7454  0.8518  1.0746
 8396SOL    HW226088   3.756   5.163   4.042  1.3769  0.7415 -0.0816
 8397SOL     OW26089   4.097   5.315   0.654  0.0737 -0.5800  0.0552
 8397SOL    HW126090   4.041   5.379   0.601  0.8723  0.1349  0.0470
 8397SOL    HW226091   4.170   5.366   0.700  0.0266 -1.3377  0.9868
 8398SOL     OW26092   6.149   1.089   0.399 -0.2130 -0.1085 -0.1757
 8398SOL    HW126093   6.192   1.086   0.489 -1.3037  1.5202  0.4603
 8398SOL    HW226094   6.090   1.009   0.386 -0.8883  0.1726  1.0367
 8399SOL     OW26095   1.831   3.652   2.119 -0.1253  0.3106  0.0186
 8399SOL    HW126096   1.823   3.560   2.156 -0.2841 -0.3857 -1.6838
 8399SOL    HW226097   1.756   3.670   2.056  0.5371  1.1931 -0.5417
 8400SOL     OW26098   6.819   3.290   4.902 -0.1509 -0.2945  0.4262
 8400SOL    HW126099   6.833   3.262   4.997 -0.3209 -0.9899  0.2544
 8400SOL    HW226100   6.731   3.337   4.895 -0.7098 -1.3106  0.4056
 8401SOL     OW26101   2.612   0.637   6.155  0.1701 -1.0063 -0.3924
 8401SOL    HW126102   2.644   0.713   6.099  1.7064 -0.2839  1.3201
 8401SOL    HW226103   2.691   0.586   6.190 -0.4746 -0.0790  2.8159
 8402SOL     OW26104   3.064   0.616   5.725  0.6339  0.5548  0.1327
 8402SOL    HW126105   3.022   0.595   5.637  1.2614 -0.4982  0.0681
 8402SOL    HW226106   3.144   0.675   5.710  0.7275  0.3939 -0.0020
 8403SOL     OW26107   4.780   4.674   5.274  0.3924  0.0071  0.0143
 8403SOL    HW126108   4.816   4.631   5.357 -0.4630  1.2252  1.0635
 8403SOL    HW226109   4.720   4.610   5.227  1.2638 -0.8699  0.0476
 8404SOL     OW26110   1.707   2.551   0.539 -0.1400  0.2659 -0.0005
 8404SOL    HW126111   1.650   2.497   0.601 -0.1530  1.3317  0.9585
 8404SOL    HW226112   1.726   2.640   0.581 -1.5389  1.7138 -2.2313
 8405SOL     OW26113   1.726   0.093   5.807  0.1046  0.7220 -0.0058
 8405SOL    HW126114   1.689   0.173   5.759 -1.6181 -0.6562 -1.0875
 8405SOL    HW226115   1.662   0.065   5.879  0.1740 -0.2929 -0.3304
 8406SOL     OW26116   0.617   0.668   6.102 -0.0184 -0.1104 -0.4564
 8406SOL    HW126117   0.670   0.727   6.040  0.3692 -0.3465 -0.3567
 8406SOL    HW226118   0.522   0.700   6.105 -0.0512 -0.1166 -1.1953
 8407SOL     OW26119   4.686   0.819   4.218  0.2935  0.0529 -0.2225
 8407SOL    HW126120   4.742   0.853   4.142  0.4398  0.4076  0.0416
 8407SOL    HW226121   4.606   0.877   4.228  0.5736  0.3652  0.2682
 8408SOL     OW26122   5.311   2.374   0.938 -0.5942  0.5870 -0.1967
 8408SOL    HW126123   5.306   2.372   1.038  1.8913  1.4582  0.0043
 8408SOL    HW226124   5.239   2.434   0.903 -1.8092 -0.0947  0.9902
 8409SOL     OW26125   4.873   3.358   0.911 -0.5878  0.2125 -0.4968
 8409SOL    HW126126   4.792   3.361   0.852 -0.7726  3.7197 -0.2679
 8409SOL    HW226127   4.845   3.351   1.007 -0.3656 -2.4334 -0.5247
 8410SOL     OW26128   6.934   0.117   1.115 -0.0379 -0.1882 -0.0099
 8410SOL    HW126129   6.843   0.119   1.157  0.2354 -0.8860  0.6369
 8410SOL    HW226130   6.940   0.188   1.045 -1.6576 -1.2958 -1.3251
 8411SOL     OW26131   1.545   5.173   0.483  0.1825 -0.0408 -0.4421
 8411SOL    HW126132   1.643   5.194   0.479  0.1464 -0.0083 -3.1265
 8411SOL    HW226133   1.512   5.186   0.576  2.3756  1.5823  0.1964
 8412SOL     OW26134   3.586   2.513   6.928  0.0223 -0.7588 -0.2052
 8412SOL    HW126135   3.657   2.447   6.953  0.2713 -0.3800  0.1048
 8412SOL    HW226136   3.626   2.585   6.872 -0.1831 -0.7093 -0.2865
 8413SOL     OW26137   4.045   5.475   5.319 -0.6573 -0.5001  0.2660
 8413SOL    HW126138   4.054   5.380   5.290  0.4640 -0.7183  1.2582
 8413SOL    HW226139   4.112   5.531   5.271 -1.1951 -0.2447 -0.1849
 8414SOL     OW26140   1.510   0.247   0.973 -0.0980 -0.2095  0.0280
 8414SOL    HW126141   1.519   0.341   1.006 -2.3507  0.3086 -0.6781
 8414SOL    HW226142   1.562   0.236   0.889 -2.8746  1.6508 -2.1005
 8415SOL     OW26143   2.692   4.270   0.009 -0.0708  0.0634 -0.0155
 8415SOL    HW126144   2.697   4.361  -0.032 -1.3153  0.8796  1.5450
 8415SOL    HW226145   2.611   4.222  -0.025  0.8898 -0.7506 -1.2846
 8416SOL     OW26146   6.013   2.420   5.441  0.3119 -0.2112  0.2445
 8416SOL    HW126147   6.017   2.322   5.419 -0.6194 -0.4098  0.8928
 8416SOL    HW226148   6.028   2.474   5.358 -3.1750 -0.9029 -0.9781
 8417SOL     OW26149   2.322   2.502   6.613  0.2060 -0.2560  0.0164
 8417SOL    HW126150   2.340   2.594   6.649  0.5293 -1.0222  1.9482
 8417SOL    HW226151   2.403   2.444   6.629 -0.4218 -1.1815 -0.0750
 8418SOL     OW26152   0.213   5.863   3.007  0.1647 -0.6143  0.0611
 8418SOL    HW126153   0.180   5.956   3.022  1.0326 -0.4824  1.2940
 8418SOL    HW226154   0.136   5.799   3.014 -0.4170 -0.0144 -0.6804
 8419SOL     OW26155   3.823   0.626   4.666  0.4172  0.6566 -0.0124
 8419SOL    HW126156   3.900   0.642   4.605  1.2483 -1.7594  0.2734
 8419SOL    HW226157   3.851   0.565   4.740 -2.0289 -1.4022 -0.6152
 8420SOL     OW26158   4.139   0.679   1.591  0.0962 -0.0749 -0.1236
 8420SOL    HW126159   4.173   0.593   1.553  0.5113 -1.7743  3.6359
 8420SOL    HW226160   4.214   0.729   1.635 -0.6165  0.9133  0.0268
 8421SOL     OW26161   3.513   5.646   6.724 -0.2755 -0.0685  0.2683
 8421SOL    HW126162   3.595   5.601   6.689  0.2859  0.7429  0.5119
 8421SOL    HW226163   3.447   5.656   6.650 -0.1924 -0.7815  0.0832
 8422SOL     OW26164   4.342   0.556   3.759 -0.0172 -0.3945 -0.0444
 8422SOL    HW126165   4.341   0.469   3.809  0.3128 -0.2270  0.2584
 8422SOL    HW226166   4.410   0.617   3.799  0.0305 -0.1385 -0.5036
 8423SOL     OW26167   0.838   6.908   0.868 -0.3086  0.2857  0.2290
 8423SOL    HW126168   0.895   6.926   0.949 -2.4322 -0.7311  2.0701
 8423SOL    HW226169   0.811   6.994   0.826 -1.1655  0.9950  2.1303
 8424SOL     OW26170   0.704   0.624   4.512  0.0375 -0.4541  0.5594
 8424SOL    HW126171   0.673   0.550   4.571 -0.6913  0.5960  1.5624
 8424SOL    HW226172   0.645   0.704   4.527  0.2317  0.0434 -1.1475
 8425SOL     OW26173   3.450   2.909   2.419 -0.2320  0.1254  0.4018
 8425SOL    HW126174   3.499   2.916   2.505  0.8727 -1.1414 -0.0960
 8425SOL    HW226175   3.417   2.815   2.406  1.2202 -0.1964 -1.3706
 8426SOL     OW26176   2.521   5.009   0.751 -0.1013  0.1226  1.0507
 8426SOL    HW126177   2.425   5.022   0.776  0.4703  3.1946  1.9920
 8426SOL    HW226178   2.569   5.097   0.753  2.4069 -1.0550 -0.9508
 8427SOL     OW26179   3.577   3.385   1.280  0.2461 -0.3381  0.2059
 8427SOL    HW126180   3.549   3.481   1.278  1.7651  0.1324  0.6510
 8427SOL    HW226181   3.676   3.378   1.267  0.4560 -1.7038  2.0808
 8428SOL     OW26182   4.909   1.749   3.006  0.8121 -0.1484  0.7414
 8428SOL    HW126183   4.892   1.720   2.912  2.7707 -0.0647  0.3206
 8428SOL    HW226184   4.822   1.768   3.051 -0.1076  1.5924 -1.5887
 8429SOL     OW26185   3.923   6.322   5.592 -0.3063  0.0803 -0.3436
 8429SOL    HW126186   3.994   6.257   5.566  0.5670  1.3364 -1.2364
 8429SOL    HW226187   3.866   6.283   5.663  0.9556 -1.1731  0.0212
 8430SOL     OW26188   5.318   6.346   6.574  0.1555  0.8088  0.1980
 8430SOL    HW126189   5.297   6.332   6.670 -1.7288 -1.6446 -0.5022
 8430SOL    HW226190   5.236   6.377   6.525 -0.1164 -2.0057 -1.3061
 8431SOL     OW26191   4.096   3.177   4.137  0.6763  0.2637 -0.3652
 8431SOL    HW126192   4.058   3.264   4.104  3.8124  2.2501  0.7544
 8431SOL    HW226193   4.117   3.118   4.059  1.1391  1.7705 -1.4493
 8432SOL     OW26194   0.125   5.431   6.038 -0.3612  0.0354 -0.4440
 8432SOL    HW126195   0.140   5.495   6.113 -0.0551  0.4921 -0.8892
 8432SOL    HW226196   0.029   5.403   6.036 -0.6501  1.0160 -0.6721
 8433SOL     OW26197   4.625   0.573   0.374  0.1609 -0.4996  0.2881
 8433SOL    HW126198   4.595   0.578   0.469  2.8409 -0.2755  1.2092
 8433SOL    HW226199   4.632   0.477   0.346  0.0547 -0.5896  0.5684
 8434SOL     OW26200   3.183   6.822   5.039  0.2744  0.3235  0.0491
 8434SOL    HW126201   3.116   6.823   5.113 -1.1791  0.8273 -1.2206
 8434SOL    HW226202   3.191   6.729   5.003 -0.4563  0.4227 -0.3931
 8435SOL     OW26203   0.321   2.548   3.892 -0.6928  0.1759  0.8972
 8435SOL    HW126204   0.299   2.584   3.801 -1.9172 -0.0877  1.0817
 8435SOL    HW226205   0.322   2.624   3.958  0.0252  0.3412  0.7063
 8436SOL     OW26206   2.054   6.305   1.465 -0.3062  0.2952 -0.0822
 8436SOL    HW126207   2.123   6.329   1.534  0.5386 -2.3330  0.1045
 8436SOL    HW226208   1.963   6.320   1.503  0.0919 -2.3651  2.3043
 8437SOL     OW26209   3.739   6.095   6.455  0.2656 -0.0589  0.2204
 8437SOL    HW126210   3.765   6.102   6.359  0.8402  1.0912  0.4460
 8437SOL    HW226211   3.704   6.003   6.473 -1.3176  0.1588 -1.4416
 8438SOL     OW26212   6.867   3.958   1.404  0.0702  0.1071 -0.1175
 8438SOL    HW126213   6.867   3.868   1.448 -0.7571 -0.3358 -0.9979
 8438SOL    HW226214   6.940   4.014   1.443 -0.2281 -0.4885  1.3684
 8439SOL     OW26215   0.178   4.721   1.955 -0.1914  0.2907 -0.4040
 8439SOL    HW126216   0.247   4.667   1.907  1.3961 -0.4827  2.5063
 8439SOL    HW226217   0.113   4.659   1.999 -0.2755  0.8815  0.3107
 8440SOL     OW26218   2.625   1.640   2.717 -0.4021  0.2919  0.5882
 8440SOL    HW126219   2.528   1.629   2.738 -1.1353  1.4299 -1.9216
 8440SOL    HW226220   2.645   1.736   2.697  0.8299 -0.2030 -0.7643
 8441SOL     OW26221   6.288   3.369   6.424 -0.4593  0.1539 -0.0900
 8441SOL    HW126222   6.238   3.295   6.378 -0.6316 -0.0211  0.3702
 8441SOL    HW226223   6.227   3.447   6.436 -0.4463  0.1599 -0.0634
 8442SOL     OW26224   3.383   3.739   5.730  0.2569 -0.1025  0.2124
 8442SOL    HW126225   3.407   3.684   5.810  1.3129  0.9324  0.6280
 8442SOL    HW226226   3.456   3.732   5.662 -0.7462 -1.1807 -0.8026
 8443SOL     OW26227   3.911   5.463   2.865  0.2610  0.4474 -0.2003
 8443SOL    HW126228   3.968   5.525   2.811  0.4043 -2.2089 -3.3782
 8443SOL    HW226229   3.815   5.478   2.844  0.2945 -0.3360 -0.9596
 8444SOL     OW26230   4.500   5.730   5.776 -0.6189  0.0420 -0.0236
 8444SOL    HW126231   4.448   5.749   5.693 -0.9831  1.1296  0.4373
 8444SOL    HW226232   4.493   5.807   5.839  0.2504 -0.4561  0.7223
 8445SOL     OW26233   5.547   6.489   1.352 -0.6556  0.7139 -0.5527
 8445SOL    HW126234   5.635   6.446   1.369 -1.2072 -1.1197 -1.9610
 8445SOL    HW226235   5.559   6.568   1.291 -0.0844 -0.2890 -1.7808
 8446SOL     OW26236   6.095   1.597   4.116  0.4799 -0.2309  0.0523
 8446SOL    HW126237   6.074   1.557   4.027 -0.1119  2.0346 -0.8955
 8446SOL    HW226238   6.053   1.542   4.188 -1.0991 -0.7852 -1.2287
 8447SOL     OW26239   4.544   1.336   3.324  0.1907 -0.0111 -0.5871
 8447SOL    HW126240   4.552   1.334   3.225 -0.8160 -1.6523 -0.6765
 8447SOL    HW226241   4.459   1.289   3.351  1.0932 -0.7555  1.1016
 8448SOL     OW26242   3.198   0.026   2.107  0.5155 -0.6331  0.7096
 8448SOL    HW126243   3.285  -0.014   2.136  0.5829 -0.7122  0.3987
 8448SOL    HW226244   3.157   0.075   2.184  0.9687 -0.3551  0.7780
 8449SOL     OW26245   0.120   2.131   4.509  0.5101 -0.6368 -0.7170
 8449SOL    HW126246   0.077   2.137   4.419 -0.6883  2.4420 -0.0612
 8449SOL    HW226247   0.073   2.061   4.563 -1.0331 -0.1727 -1.3939
 8450SOL     OW26248   6.446   1.400   0.470 -0.2394  0.1632  0.2417
 8450SOL    HW126249   6.479   1.305   0.467  1.3691  0.6165  1.8706
 8450SOL    HW226250   6.347   1.400   0.484 -0.2937 -1.2694  0.0450
 8451SOL     OW26251   3.790   3.330   0.055  0.8954  0.2554 -0.0059
 8451SOL    HW126252   3.800   3.422   0.017  0.4987  0.3132  0.0275
 8451SOL    HW226253   3.872   3.306   0.106  1.8006 -0.1474 -1.5806
 8452SOL     OW26254   6.457   2.413   5.506  0.2222  0.4588 -0.6169
 8452SOL    HW126255   6.532   2.367   5.555 -0.4127  1.2176  1.1675
 8452SOL    HW226256   6.466   2.512   5.519  0.2597  0.7209 -2.4433
 8453SOL     OW26257   5.990   6.768   0.125  0.4800  0.4535 -0.2908
 8453SOL    HW126258   5.930   6.698   0.164  2.0661  0.5037  2.4690
 8453SOL    HW226259   6.050   6.725   0.056  0.0077 -0.4444 -0.1553
 8454SOL     OW26260   6.279   5.663   6.572  0.3402 -0.6446 -0.1665
 8454SOL    HW126261   6.317   5.754   6.557  2.3814 -1.7147 -1.9632
 8454SOL    HW226262   6.217   5.640   6.497 -1.2394 -0.2968  0.9606
 8455SOL     OW26263   6.567   1.418   2.320 -0.4052 -0.3855 -0.4126
 8455SOL    HW126264   6.487   1.448   2.269  0.1677 -0.9894 -1.7018
 8455SOL    HW226265   6.588   1.323   2.296 -0.6605 -1.0113  1.6445
 8456SOL     OW26266   5.220   0.409   2.082 -0.5084  0.0926  0.6671
 8456SOL    HW126267   5.152   0.401   2.008  1.3743 -0.1336 -1.1245
 8456SOL    HW226268   5.225   0.322   2.131 -0.6152 -0.3051 -0.0060
 8457SOL     OW26269   6.409   5.582   4.302 -0.2572  0.4986 -0.0598
 8457SOL    HW126270   6.412   5.681   4.286  0.4522  0.5217  0.2107
 8457SOL    HW226271   6.494   5.552   4.346 -1.0931  0.0174  1.2928
 8458SOL     OW26272   1.827   6.579   0.842 -0.4678 -0.1203  0.2395
 8458SOL    HW126273   1.843   6.668   0.883 -0.2541 -0.3987  0.7732
 8458SOL    HW226274   1.841   6.508   0.911  0.9010 -0.6620 -0.5479
 8459SOL     OW26275   1.100   6.483   4.242 -0.3611 -0.3487 -0.4699
 8459SOL    HW126276   1.043   6.545   4.187 -1.2392 -0.4975  0.2374
 8459SOL    HW226277   1.055   6.394   4.250 -1.2156  0.2129  2.0006
 8460SOL     OW26278   3.921   3.045   5.072 -0.3824 -0.8026 -0.0315
 8460SOL    HW126279   3.903   2.981   5.146 -2.9451  1.9439  1.9821
 8460SOL    HW226280   3.995   3.107   5.099 -2.0682  0.9238  0.9026
 8461SOL     OW26281   0.908   4.094   5.745  0.0954 -0.7099  0.7141
 8461SOL    HW126282   0.948   4.081   5.655 -0.3018 -1.7130  0.6673
 8461SOL    HW226283   0.846   4.018   5.766 -3.1343  1.5527  0.0912
 8462SOL     OW26284   2.033   2.557   2.432  0.1127  0.0451 -0.1712
 8462SOL    HW126285   1.990   2.508   2.357 -0.6220 -0.7494  0.7333
 8462SOL    HW226286   2.024   2.655   2.418 -0.8624 -0.1019 -0.6535
 8463SOL     OW26287   6.675   5.944   2.586 -0.4081  0.1588  0.4911
 8463SOL    HW126288   6.673   6.041   2.563 -1.3480  0.0520  0.0766
 8463SOL    HW226289   6.598   5.898   2.542 -0.8248 -0.5049  1.8873
 8464SOL     OW26290   5.088   0.568   6.943  0.1651  0.0449 -0.6519
 8464SOL    HW126291   5.057   0.559   6.848 -0.9529  1.3943 -0.4249
 8464SOL    HW226292   5.011   0.556   7.005  1.1194 -2.2385  0.2048
 8465SOL     OW26293   3.003   0.492   6.975 -0.0934  0.0089 -0.0962
 8465SOL    HW126294   2.968   0.413   6.926  0.0514  0.9141 -1.7379
 8465SOL    HW226295   3.017   0.568   6.911  3.2317  0.2603  0.7213
 8466SOL     OW26296   1.282   0.458   4.138 -0.2852 -0.0828  0.1106
 8466SOL    HW126297   1.379   0.456   4.163  0.0318 -0.9064 -1.0702
 8466SOL    HW226298   1.263   0.538   4.082  0.5071 -1.5870 -2.4553
 8467SOL     OW26299   2.406   4.837   0.540 -0.2807  0.2008 -0.4475
 8467SOL    HW126300   2.452   4.753   0.512 -1.4239  0.2892 -2.7862
 8467SOL    HW226301   2.420   4.851   0.638 -2.6345 -4.4555  0.8725
 8468SOL     OW26302   3.000   3.515   5.679  0.3294  0.0981  0.3701
 8468SOL    HW126303   3.085   3.520   5.627  1.0060  0.4823  1.4856
 8468SOL    HW226304   3.009   3.568   5.763 -1.1143  0.3692  0.3843
 8469SOL     OW26305   5.154   1.316   5.706  0.8250 -0.0694  0.4708
 8469SOL    HW126306   5.165   1.293   5.609  0.1577 -0.0155  0.3744
 8469SOL    HW226307   5.061   1.292   5.735  1.2744 -0.8358  1.3089
 8470SOL     OW26308   3.771   4.740   6.907 -0.6334  0.4927  0.5426
 8470SOL    HW126309   3.761   4.681   6.827 -1.0878  0.0362  0.9247
 8470SOL    HW226310   3.682   4.780   6.930  0.0799  3.2929 -1.1480
 8471SOL     OW26311   4.538   1.595   4.012 -0.1923 -0.2840 -0.0943
 8471SOL    HW126312   4.475   1.600   4.089 -1.8240 -0.5718 -1.3614
 8471SOL    HW226313   4.583   1.683   3.999  1.3496 -0.6515  2.1302
 8472SOL     OW26314   0.984   5.463   2.855  0.2032 -0.4279  0.3497
 8472SOL    HW126315   0.909   5.436   2.916 -0.4634  0.2371 -0.1593
 8472SOL    HW226316   1.026   5.381   2.816 -0.6123 -0.8042  0.2253
 8473SOL     OW26317   0.603   5.496   5.992 -0.1380 -0.1487  0.2240
 8473SOL    HW126318   0.568   5.512   6.085  1.5663  1.2251  0.6866
 8473SOL    HW226319   0.537   5.442   5.941 -1.4627 -0.3219  2.0030
 8474SOL     OW26320   2.753   0.778   5.973  0.2074  0.1703 -0.1162
 8474SOL    HW126321   2.730   0.702   5.912 -1.3051  1.0424 -0.7027
 8474SOL    HW226322   2.836   0.823   5.939 -0.0711  0.0527 -0.9958
 8475SOL     OW26323   4.707   6.610   1.903 -0.2558 -0.8726 -0.5736
 8475SOL    HW126324   4.702   6.691   1.961  1.3703 -1.7217  0.8364
 8475SOL    HW226325   4.661   6.628   1.816  0.4545  1.7106 -0.4896
 8476SOL     OW26326   4.393   6.555   1.349 -0.2521  0.0213  0.4459
 8476SOL    HW126327   4.469   6.615   1.325 -2.0315  3.1494  2.0403
 8476SOL    HW226328   4.323   6.560   1.279 -1.0604  1.1144  1.2929
 8477SOL     OW26329   2.648   6.023   2.862  0.3599  0.4712  0.0535
 8477SOL    HW126330   2.683   6.110   2.896 -1.6619  0.5711  2.1286
 8477SOL    HW226331   2.624   5.964   2.940  1.7454 -2.0301 -1.2745
 8478SOL     OW26332   0.074   2.402   6.399  0.4438  0.0328 -0.0708
 8478SOL    HW126333   0.088   2.355   6.312  0.5597 -0.3808  0.1713
 8478SOL    HW226334   0.065   2.500   6.382 -0.8475 -0.1695 -0.6953
 8479SOL     OW26335   0.202   5.776   1.884  0.4388 -0.5226 -0.1752
 8479SOL    HW126336   0.133   5.710   1.913  2.7142 -2.5002  1.0472
 8479SOL    HW226337   0.259   5.737   1.812  2.2032 -0.1937  0.9712
 8480SOL     OW26338   1.902   1.641   2.405 -0.2202 -0.3307 -0.4291
 8480SOL    HW126339   1.954   1.575   2.459  1.0332  0.7250 -0.3003
 8480SOL    HW226340   1.807   1.642   2.436 -0.9065 -3.7195 -1.9675
 8481SOL     OW26341   3.168   0.530   6.101  0.5521 -0.6373 -0.0077
 8481SOL    HW126342   3.245   0.473   6.071  1.6558  0.1302  1.2635
 8481SOL    HW226343   3.202   0.621   6.126 -0.9902  0.1589 -0.7055
 8482SOL     OW26344   4.183   1.258   1.909  0.6912  0.0387 -0.6034
 8482SOL    HW126345   4.108   1.323   1.920  1.2723  0.7569 -0.7467
 8482SOL    HW226346   4.147   1.167   1.891 -0.1461  0.2858 -0.2073
 8483SOL     OW26347   5.125   4.790   2.475  0.0210 -0.1279 -0.1968
 8483SOL    HW126348   5.151   4.856   2.404  0.8813  1.2097  1.3131
 8483SOL    HW226349   5.050   4.828   2.529  0.0649 -0.6846  0.2573
 8484SOL     OW26350   6.689   3.888   0.136  0.4980 -0.0291 -0.1088
 8484SOL    HW126351   6.632   3.910   0.215  1.9044  3.4738  0.1514
 8484SOL    HW226352   6.648   3.928   0.053  1.8898  1.6217 -0.0759
 8485SOL     OW26353   2.758   4.284   0.514  0.3628  0.2408  0.5881
 8485SOL    HW126354   2.741   4.287   0.415 -2.2816  1.9966  1.0090
 8485SOL    HW226355   2.837   4.341   0.536 -0.8643  2.3680 -0.2556
 8486SOL     OW26356   3.873   5.513   1.746  0.0393  0.1286 -0.0636
 8486SOL    HW126357   3.782   5.525   1.707  0.3842  0.6929 -0.7215
 8486SOL    HW226358   3.867   5.458   1.829 -0.8278 -0.3021 -0.4006
 8487SOL     OW26359   3.488   6.650   0.370  0.4746  0.3534 -0.3627
 8487SOL    HW126360   3.422   6.605   0.430  0.3867  0.2789 -0.5145
 8487SOL    HW226361   3.441   6.684   0.288  0.4154  1.3107  0.0513
 8488SOL     OW26362   0.942   4.497   0.151 -0.4813 -0.1390 -0.0068
 8488SOL    HW126363   0.989   4.557   0.215  0.8433  1.4446 -2.3356
 8488SOL    HW226364   0.862   4.457   0.196  1.2611 -0.4581  3.1208
 8489SOL     OW26365   4.010   5.079   2.119 -0.4929 -0.8960  0.4590
 8489SOL    HW126366   4.083   5.012   2.109  0.0668 -0.3535  0.8636
 8489SOL    HW226367   3.922   5.031   2.131 -0.0712 -1.5477  0.9966
 8490SOL     OW26368   4.134   5.603   0.417 -0.1787  0.2932  0.3658
 8490SOL    HW126369   4.082   5.530   0.460  0.2688 -0.5533 -0.4973
 8490SOL    HW226370   4.222   5.614   0.463  0.2173 -0.4776 -0.1921
 8491SOL     OW26371   4.522   1.002   0.709 -0.2035 -0.3363 -0.0197
 8491SOL    HW126372   4.594   0.960   0.653  0.0802 -0.1374  0.1985
 8491SOL    HW226373   4.559   1.028   0.798 -0.5380 -0.2014  0.0822
 8492SOL     OW26374   5.665   5.275   5.438  0.0399 -0.1276  0.2258
 8492SOL    HW126375   5.588   5.333   5.464  0.2448  0.0697  0.3943
 8492SOL    HW226376   5.701   5.305   5.350  1.4154  1.2984  1.2176
 8493SOL     OW26377   4.126   3.106   6.172 -0.2449 -0.2557  0.0747
 8493SOL    HW126378   4.118   3.057   6.085  2.1435 -1.8429  0.6330
 8493SOL    HW226379   4.047   3.085   6.230 -1.9193  0.9237 -1.6882
 8494SOL     OW26380   3.400   7.015   0.248  0.0290 -0.6212 -0.4431
 8494SOL    HW126381   3.339   7.040   0.172 -2.2548 -0.5980  1.2786
 8494SOL    HW226382   3.373   7.065   0.330  1.6092 -1.5963  0.7238
 8495SOL     OW26383   6.101   3.249   6.101 -0.0552  0.1201  0.2340
 8495SOL    HW126384   6.021   3.196   6.072  0.6940 -1.2666  0.6345
 8495SOL    HW226385   6.152   3.198   6.169  1.1907  0.9961 -0.0100
 8496SOL     OW26386   1.497   1.679   4.667 -0.1289 -0.0496  0.3534
 8496SOL    HW126387   1.430   1.701   4.738  0.1889 -0.4032  0.7673
 8496SOL    HW226388   1.583   1.649   4.710  0.9005  2.0314 -0.0995
 8497SOL     OW26389   6.402   4.654   3.167 -0.0680 -0.0452 -0.1082
 8497SOL    HW126390   6.418   4.636   3.070  0.2798 -0.2284 -0.0225
 8497SOL    HW226391   6.305   4.648   3.187 -0.0212 -1.4153 -0.1772
 8498SOL     OW26392   6.584   6.656   1.698 -0.0278  0.5434  0.0049
 8498SOL    HW126393   6.596   6.652   1.797 -0.5005  1.2138  0.0954
 8498SOL    HW226394   6.517   6.588   1.670  0.8656 -0.3623  0.0078
 8499SOL     OW26395   6.057   4.537   2.179 -0.0237  0.0942  0.3216
 8499SOL    HW126396   6.000   4.617   2.199 -0.1099 -0.0706  0.7501
 8499SOL    HW226397   6.029   4.461   2.237 -0.8729 -0.6878 -1.0771
 8500SOL     OW26398   1.219   0.608   6.040 -0.0124  0.1986  0.0764
 8500SOL    HW126399   1.208   0.698   6.083 -0.1100  0.9740 -1.4859
 8500SOL    HW226400   1.254   0.620   5.947 -1.1595 -1.3187 -0.5890
 8501SOL     OW26401   3.926   2.750   5.257  0.2691 -0.0863 -0.8296
 8501SOL    HW126402   3.965   2.668   5.214  0.8176 -0.2517 -0.0368
 8501SOL    HW226403   3.871   2.723   5.336 -0.3811  0.2458 -1.1631
 8502SOL     OW26404   0.971   0.963   1.289  0.6610  0.4038  0.1852
 8502SOL    HW126405   1.058   1.013   1.287  1.1799 -0.5001 -1.3144
 8502SOL    HW226406   0.918   0.985   1.207  0.1842 -0.2793  0.3032
 8503SOL     OW26407   2.648   5.323   1.964 -0.2820  0.6623  0.1060
 8503SOL    HW126408   2.553   5.303   1.987  0.2444 -0.4259  1.4474
 8503SOL    HW226409   2.685   5.249   1.907 -0.2569  1.1273 -0.4901
 8504SOL     OW26410   1.489   5.997   1.483  0.5259 -0.5001 -0.2527
 8504SOL    HW126411   1.415   5.969   1.544  1.0859 -3.5547 -0.8185
 8504SOL    HW226412   1.460   6.074   1.427 -2.2174 -1.5531 -0.3936
 8505SOL     OW26413   3.734   0.774   2.977  0.0353 -0.1383  0.9352
 8505SOL    HW126414   3.651   0.741   3.022 -2.5202  2.4498 -1.4539
 8505SOL    HW226415   3.765   0.858   3.022  0.3471 -0.1572  0.7605
 8506SOL     OW26416   0.918   4.886   0.625  0.9147 -0.1498  0.4899
 8506SOL    HW126417   0.989   4.935   0.675  0.1543  0.4676  0.9829
 8506SOL    HW226418   0.880   4.814   0.684  0.1649  0.4406  0.7430
 8507SOL     OW26419   2.031   0.715   4.776  0.1298 -0.4018 -0.0229
 8507SOL    HW126420   1.934   0.698   4.795  0.3731 -1.2014  0.5570
 8507SOL    HW226421   2.074   0.629   4.748  0.8710 -0.2409  0.6067
 8508SOL     OW26422   1.198   3.300   5.301 -0.1545  0.4810 -0.0245
 8508SOL    HW126423   1.161   3.283   5.209 -0.8992  0.2935  0.2962
 8508SOL    HW226424   1.228   3.213   5.341 -1.2830  0.3180  0.5028
 8509SOL     OW26425   6.767   3.774   5.474  0.1883 -0.2391 -0.5622
 8509SOL    HW126426   6.851   3.733   5.509 -0.7850 -1.8455 -0.0379
 8509SOL    HW226427   6.743   3.854   5.530  1.3479  0.2545 -0.7361
 8510SOL     OW26428   5.534   6.902   2.752 -0.2641  0.2997  0.6927
 8510SOL    HW126429   5.571   6.849   2.675 -1.0978  1.9184 -0.8914
 8510SOL    HW226430   5.465   6.848   2.799 -1.2944  0.0113 -1.0502
 8511SOL     OW26431   0.473   4.283   0.789  0.6606 -0.0073  0.0585
 8511SOL    HW126432   0.420   4.262   0.708 -0.0596  0.7948  0.3025
 8511SOL    HW226433   0.510   4.199   0.828 -0.9541 -0.6673  0.2338
 8512SOL     OW26434   4.051   3.585   5.887  0.2869 -0.0428  0.5253
 8512SOL    HW126435   3.967   3.531   5.884  0.7811 -0.9339  1.8309
 8512SOL    HW226436   4.091   3.580   5.979  1.0494  1.4894  0.3154
 8513SOL     OW26437   3.319   5.255   1.708  1.2777 -0.4166 -0.0163
 8513SOL    HW126438   3.366   5.335   1.747  1.3486 -0.3157 -0.3041
 8513SOL    HW226439   3.286   5.278   1.617 -0.6281 -0.0036  0.7454
 8514SOL     OW26440   3.241   3.566   4.393  0.8702  0.5389  0.4320
 8514SOL    HW126441   3.148   3.554   4.427  1.0565  0.1605  0.8083
 8514SOL    HW226442   3.306   3.517   4.452  1.1071 -0.9028 -0.9560
 8515SOL     OW26443   3.968   1.765   0.642 -0.0448 -0.6277 -0.5011
 8515SOL    HW126444   3.992   1.714   0.725 -0.8400 -0.9564 -0.4553
 8515SOL    HW226445   4.024   1.847   0.636 -0.9542  0.1907  1.1674
 8516SOL     OW26446   2.022   2.460   5.781  0.4697  0.0026  0.2311
 8516SOL    HW126447   1.992   2.409   5.700  1.2769  0.7243 -0.5541
 8516SOL    HW226448   1.988   2.416   5.863  0.2579 -1.1840 -0.4719
 8517SOL     OW26449   0.826   3.359   5.769 -0.1312 -0.5646 -0.7345
 8517SOL    HW126450   0.742   3.404   5.739 -0.0619  0.0503 -0.0112
 8517SOL    HW226451   0.803   3.270   5.809 -0.2542 -1.2523 -2.2654
 8518SOL     OW26452   5.609   5.608   0.758 -0.6311  0.1555 -0.3940
 8518SOL    HW126453   5.704   5.637   0.773 -0.2870  0.4234 -2.8248
 8518SOL    HW226454   5.568   5.585   0.847  0.6764  3.0328  1.0903
 8519SOL     OW26455   2.063   4.366   0.736  0.4332 -1.0228 -0.4632
 8519SOL    HW126456   2.161   4.384   0.730  0.1802  0.2257 -1.0352
 8519SOL    HW226457   2.046   4.268   0.724  1.7109 -1.4618  0.9947
 8520SOL     OW26458   3.677   2.948   6.178  0.5582 -0.2147  0.4417
 8520SOL    HW126459   3.629   3.026   6.138  0.3393  0.5330  2.0789
 8520SOL    HW226460   3.615   2.870   6.185  0.6547 -0.4160 -0.8068
 8521SOL     OW26461   3.806   6.905   4.330  0.1567  0.1194 -0.5333
 8521SOL    HW126462   3.848   6.961   4.259  0.1504  0.7915 -0.0185
 8521SOL    HW226463   3.739   6.843   4.289  0.9180 -0.2559 -1.2361
 8522SOL     OW26464   4.848   0.296   1.307  0.1393  0.0962  0.1293
 8522SOL    HW126465   4.894   0.337   1.228  0.1166 -0.2108 -0.0485
 8522SOL    HW226466   4.874   0.345   1.390  1.3215 -0.4621  0.1233
 8523SOL     OW26467   4.052   6.360   2.380 -0.4521 -0.2620  0.8484
 8523SOL    HW126468   4.050   6.269   2.338 -1.2580 -0.1422  0.5984
 8523SOL    HW226469   3.983   6.364   2.452  0.7839 -0.4000  2.0721
 8524SOL     OW26470   2.274   5.174   3.265  0.4830 -1.0724  0.3747
 8524SOL    HW126471   2.283   5.229   3.347  1.1673  0.0328 -0.4177
 8524SOL    HW226472   2.180   5.180   3.230  1.1263  1.7548 -1.1294
 8525SOL     OW26473   0.634   3.040   2.514 -0.2980 -0.3541 -0.0826
 8525SOL    HW126474   0.549   2.989   2.525 -0.4775 -0.5124 -1.8525
 8525SOL    HW226475   0.618   3.137   2.531 -0.9107 -0.3462 -0.6570
 8526SOL     OW26476   0.773   4.679   6.052  0.1935 -0.0924  0.0002
 8526SOL    HW126477   0.675   4.672   6.071  0.1682 -0.1356 -0.1472
 8526SOL    HW226478   0.789   4.673   5.953  0.4412 -1.2299  0.1024
 8527SOL     OW26479   0.422   1.031   0.142  0.1641 -0.6213  0.5993
 8527SOL    HW126480   0.475   0.971   0.202  1.0600  0.1400  0.6000
 8527SOL    HW226481   0.400   0.983   0.057 -0.6869 -1.5400  1.3245
 8528SOL     OW26482   3.922   6.938   0.146 -0.2797  0.3786  0.5245
 8528SOL    HW126483   3.840   6.882   0.136 -0.4340  0.1844  2.4699
 8528SOL    HW226484   3.944   6.948   0.243  1.3727  1.3566  0.0924
 8529SOL     OW26485   6.993   1.058   6.899  0.2525 -0.4854 -0.4530
 8529SOL    HW126486   7.087   1.059   6.933 -0.5105 -1.3311  1.8520
 8529SOL    HW226487   6.982   0.983   6.834  1.0962 -0.5593 -0.5215
 8530SOL     OW26488   3.333   3.313   3.217 -0.1354 -0.2411  0.6702
 8530SOL    HW126489   3.255   3.290   3.159 -0.6189  2.6402  0.0367
 8530SOL    HW226490   3.306   3.306   3.313 -1.6329  1.7973  0.4706
 8531SOL     OW26491   0.983   6.441   3.756  0.2805 -0.3477 -0.3432
 8531SOL    HW126492   0.968   6.539   3.771 -0.9597 -0.3447 -1.3687
 8531SOL    HW226493   1.040   6.404   3.829  4.3499  1.9337 -2.0786
 8532SOL     OW26494   2.043   6.168   0.405  0.0652  0.1905  0.1500
 8532SOL    HW126495   2.042   6.230   0.326  1.4281  2.4677  1.7798
 8532SOL    HW226496   2.098   6.088   0.384 -1.7207 -0.5896 -2.0232
 8533SOL     OW26497   3.634   4.994   4.321 -0.4701 -0.4281  0.2843
 8533SOL    HW126498   3.555   4.952   4.275 -0.9693  0.2107  0.5408
 8533SOL    HW226499   3.679   5.058   4.259 -0.4824 -0.3836  0.3214
 8534SOL     OW26500   1.792   2.680   1.289  0.0979 -0.8758 -0.4398
 8534SOL    HW126501   1.856   2.604   1.301 -0.5289 -2.0944 -3.7395
 8534SOL    HW226502   1.843   2.762   1.262  0.5702 -0.6693  0.9755
 8535SOL     OW26503   6.763   4.162   1.822 -0.4930 -0.2869 -0.5447
 8535SOL    HW126504   6.705   4.230   1.868  1.1388  0.2627  0.8329
 8535SOL    HW226505   6.813   4.206   1.748 -0.3377 -0.2646 -0.4279
 8536SOL     OW26506   2.527   0.273   4.027 -0.2549 -0.3740 -0.1776
 8536SOL    HW126507   2.611   0.220   4.019 -0.5287 -0.8525  0.0654
 8536SOL    HW226508   2.506   0.315   3.938  0.1615 -0.3623 -0.2745
 8537SOL     OW26509   5.968   0.950   2.577  0.0237 -0.1518  0.1658
 8537SOL    HW126510   5.891   0.937   2.639 -0.2647  2.1026  0.3421
 8537SOL    HW226511   5.934   0.968   2.485  0.3595 -0.0201  0.0644
 8538SOL     OW26512   0.958   3.106   1.647  0.6205  0.6558 -0.2307
 8538SOL    HW126513   1.048   3.119   1.606  0.2654 -2.1667 -2.2407
 8538SOL    HW226514   0.887   3.127   1.579 -0.1121 -0.1282  0.2701
 8539SOL     OW26515   5.226   4.588   2.076  0.0036 -0.4193  0.0639
 8539SOL    HW126516   5.167   4.587   2.156 -1.5441  1.4488 -0.9745
 8539SOL    HW226517   5.280   4.504   2.074 -1.1174 -1.2719  2.1481
 8540SOL     OW26518   3.548   6.168   6.830  0.7959 -0.0828 -0.3074
 8540SOL    HW126519   3.635   6.122   6.846 -0.9085 -2.3069  3.9903
 8540SOL    HW226520   3.550   6.259   6.871  1.2511  0.1130 -0.7530
 8541SOL     OW26521   0.237   2.448   4.468  0.0810 -0.1389  0.2080
 8541SOL    HW126522   0.155   2.471   4.416  0.1970 -1.1121 -0.4305
 8541SOL    HW226523   0.280   2.367   4.429  1.1718  0.1606  0.7343
 8542SOL     OW26524   3.059   6.791   4.407 -0.5109 -0.6172  0.5428
 8542SOL    HW126525   2.988   6.828   4.466 -2.0036  2.7244 -2.8885
 8542SOL    HW226526   3.017   6.734   4.336  0.3365  0.2968 -0.7379
 8543SOL     OW26527   1.933   2.791   6.455 -0.0878  0.5400  0.0559
 8543SOL    HW126528   1.834   2.788   6.446 -0.1941 -0.1555  1.2174
 8543SOL    HW226529   1.973   2.707   6.417 -0.2822 -0.8995  2.7853
 8544SOL     OW26530   5.182   3.645   4.498 -0.3575 -0.4251  0.2512
 8544SOL    HW126531   5.233   3.704   4.435  1.3151 -1.7172  0.3254
 8544SOL    HW226532   5.098   3.614   4.454  0.4966 -0.8282 -1.1463
 8545SOL     OW26533   3.705   0.639   6.270  0.0700 -0.0848  0.6546
 8545SOL    HW126534   3.635   0.641   6.198  0.7215  0.6371  0.0151
 8545SOL    HW226535   3.782   0.582   6.240  1.5527  2.3433 -0.4395
 8546SOL     OW26536   5.942   4.124   3.336  0.2310  0.1509 -0.4207
 8546SOL    HW126537   5.852   4.099   3.372 -0.1732 -0.7223 -1.9191
 8546SOL    HW226538   5.974   4.208   3.379 -0.0499 -0.9686  2.1572
 8547SOL     OW26539   1.615   5.869   3.017 -0.2217 -0.1284  0.1379
 8547SOL    HW126540   1.526   5.850   3.059  0.5219 -2.7669  0.7006
 8547SOL    HW226541   1.634   5.799   2.948  2.0063 -0.4318  1.0027
 8548SOL     OW26542   5.622   2.693   6.221  0.1021 -0.3320  0.1093
 8548SOL    HW126543   5.538   2.665   6.176 -1.3347  0.4757  2.0949
 8548SOL    HW226544   5.608   2.784   6.262  2.1657  0.0964 -0.0634
 8549SOL     OW26545   4.481   1.692   2.939 -0.1072  0.2269 -0.1352
 8549SOL    HW126546   4.447   1.661   2.850 -3.5358  2.7456  0.1214
 8549SOL    HW226547   4.491   1.791   2.938  1.3791  0.1466  1.8453
 8550SOL     OW26548   2.715   5.840   4.290 -0.0154 -0.0619 -0.1905
 8550SOL    HW126549   2.728   5.924   4.343  0.6192 -1.1479  1.4874
 8550SOL    HW226550   2.684   5.767   4.351 -0.5570 -1.0607 -1.6038
 8551SOL     OW26551   3.328   4.496   1.011  0.1161 -0.1447  0.3020
 8551SOL    HW126552   3.253   4.430   1.009 -0.3473  0.3367  1.0193
 8551SOL    HW226553   3.396   4.472   0.943 -0.1717 -1.2138  0.3791
 8552SOL     OW26554   3.730   0.498   1.728  0.8089 -0.2417  0.3489
 8552SOL    HW126555   3.762   0.540   1.813 -0.8047 -1.6184  1.7184
 8552SOL    HW226556   3.685   0.411   1.750 -1.4569  0.3329 -1.7065
 8553SOL     OW26557   6.014   5.865   5.939 -0.4922  0.0092  0.0377
 8553SOL    HW126558   6.079   5.910   6.001  1.4708  0.4089 -2.2065
 8553SOL    HW226559   6.052   5.779   5.907 -1.8374 -0.5800 -0.0609
 8554SOL     OW26560   5.505   3.007   6.725 -0.2552 -0.3349  0.5197
 8554SOL    HW126561   5.406   2.990   6.719 -0.1394 -0.7904 -0.1722
 8554SOL    HW226562   5.548   2.932   6.776  0.1123 -1.6992 -1.6490
 8555SOL     OW26563   6.931   0.744   5.054  0.6332 -0.2889 -0.0108
 8555SOL    HW126564   6.878   0.826   5.076 -1.8447 -1.7079 -0.1879
 8555SOL    HW226565   7.021   0.770   5.020 -0.9558  2.5058 -2.6197
 8556SOL     OW26566   4.877   0.912   0.881  0.0607 -0.2772 -0.1045
 8556SOL    HW126567   4.796   0.869   0.921  0.0810 -0.1567  0.0684
 8556SOL    HW226568   4.936   0.947   0.954  0.5729 -0.9029 -0.2086
 8557SOL     OW26569   0.836   0.662   0.556  0.1282 -0.3522  0.0034
 8557SOL    HW126570   0.870   0.593   0.492 -1.5698 -1.0444 -0.1980
 8557SOL    HW226571   0.883   0.749   0.540  0.2378 -0.6981 -1.7038
 8558SOL     OW26572   0.456   5.583   3.667  0.2659 -0.3487 -0.3376
 8558SOL    HW126573   0.395   5.506   3.683  0.7216 -0.2148  2.7481
 8558SOL    HW226574   0.412   5.668   3.697  0.1910  0.5054 -2.6608
 8559SOL     OW26575   1.101   1.045   5.624 -0.3194  0.9446  0.0403
 8559SOL    HW126576   1.099   1.080   5.717 -0.1038  0.0814  0.3826
 8559SOL    HW226577   1.014   1.000   5.603 -0.9825  2.5271 -0.7464
 8560SOL     OW26578   4.438   2.157   6.584 -0.1239  0.1669 -0.3652
 8560SOL    HW126579   4.454   2.253   6.562 -0.2916  0.2666 -0.0619
 8560SOL    HW226580   4.380   2.114   6.515 -0.4269  0.4045 -0.2589
 8561SOL     OW26581   5.935   6.787   4.783 -0.1849 -0.5862  0.1681
 8561SOL    HW126582   5.880   6.704   4.779  0.3028 -1.0370  1.8992
 8561SOL    HW226583   5.944   6.817   4.878  0.5872  0.8179 -0.3092
 8562SOL     OW26584   4.209   1.425   5.388 -0.3080 -0.1844 -0.6430
 8562SOL    HW126585   4.248   1.406   5.298 -1.6572 -0.0440 -1.2819
 8562SOL    HW226586   4.212   1.343   5.444 -1.8049 -1.0265 -1.7357
 8563SOL     OW26587   2.085   3.681   5.739 -0.4912  0.0369  0.0174
 8563SOL    HW126588   2.151   3.621   5.693 -0.2520  1.7216 -2.0083
 8563SOL    HW226589   1.997   3.677   5.691 -0.5484  1.0723  0.0147
 8564SOL     OW26590   6.443   2.076   5.694 -0.3863 -0.1861  0.0900
 8564SOL    HW126591   6.387   2.004   5.734 -2.0649 -0.0958 -1.9440
 8564SOL    HW226592   6.402   2.165   5.714 -0.7200 -0.0868 -0.9824
 8565SOL     OW26593   3.470   6.096   1.495  0.5520 -0.1530  0.1945
 8565SOL    HW126594   3.501   6.160   1.425  1.6435  0.0927  0.8725
 8565SOL    HW226595   3.426   6.146   1.569  2.0797 -0.0670  1.0852
 8566SOL     OW26596   1.667   4.464   3.540 -0.0225 -0.2901  0.0399
 8566SOL    HW126597   1.704   4.372   3.552 -0.3204 -0.5750 -1.1680
 8566SOL    HW226598   1.577   4.469   3.582  1.1327  0.3052  2.6799
 8567SOL     OW26599   2.862   6.688   6.125 -0.2731  0.2379 -0.1171
 8567SOL    HW126600   2.804   6.710   6.203 -3.7375 -0.3912 -2.2788
 8567SOL    HW226601   2.900   6.772   6.087  0.3243  0.6729  1.3729
 8568SOL     OW26602   4.549   6.738   0.285  0.6218 -0.0138 -0.0240
 8568SOL    HW126603   4.603   6.819   0.261 -1.0385  0.7195 -1.5737
 8568SOL    HW226604   4.498   6.707   0.204 -1.1983 -0.6792  1.3134
 8569SOL     OW26605   1.471   1.329   5.541 -0.5281  0.0684 -0.3345
 8569SOL    HW126606   1.451   1.418   5.582 -1.2931 -0.6585  0.9556
 8569SOL    HW226607   1.552   1.290   5.584 -1.0462 -0.4821  0.1763
 8570SOL     OW26608   0.250   4.185   4.728 -0.4733 -0.1007 -0.1230
 8570SOL    HW126609   0.162   4.232   4.718 -0.0485  0.4240 -1.8887
 8570SOL    HW226610   0.291   4.171   4.637  2.2406  1.5897  0.7091
 8571SOL     OW26611   0.678   5.668   5.177  0.6912  0.2142  0.5189
 8571SOL    HW126612   0.671   5.764   5.149  3.3591  0.4390  0.3416
 8571SOL    HW226613   0.699   5.612   5.097 -1.2379 -0.6267  0.5542
 8572SOL     OW26614   2.797   3.508   5.468 -0.0795 -0.0722 -0.5726
 8572SOL    HW126615   2.782   3.567   5.389  1.5175  0.1381 -0.7510
 8572SOL    HW226616   2.860   3.553   5.531 -0.5985 -0.6413  0.3783
 8573SOL     OW26617   2.422   6.217   4.449  0.0230 -0.5721  0.0437
 8573SOL    HW126618   2.418   6.119   4.429  1.1714 -0.3896 -1.2070
 8573SOL    HW226619   2.389   6.268   4.370 -1.0690  0.0539  0.8898
 8574SOL     OW26620   0.892   2.111   4.000  0.1061  0.0202 -0.2320
 8574SOL    HW126621   0.793   2.115   3.986 -0.1944 -1.1907  1.1986
 8574SOL    HW226622   0.927   2.025   3.962  0.1564 -0.7327  1.4268
 8575SOL     OW26623   3.637   3.963   5.237 -0.0144 -0.2037 -0.5360
 8575SOL    HW126624   3.545   3.928   5.223 -0.5483  1.0004 -0.1759
 8575SOL    HW226625   3.657   4.032   5.167 -0.1812  1.0232  0.5929
 8576SOL     OW26626   0.335   2.155   0.217  0.2558  0.0409 -0.3996
 8576SOL    HW126627   0.383   2.193   0.138  0.5263 -2.0781 -1.2993
 8576SOL    HW226628   0.381   2.072   0.248 -0.3645  0.3417  1.4586
 8577SOL     OW26629   0.073   3.872   4.721 -0.2287  0.1166  0.0237
 8577SOL    HW126630   0.151   3.892   4.662 -1.2658  2.9494 -0.5342
 8577SOL    HW226631  -0.011   3.873   4.667 -0.8883 -0.8038  0.9761
 8578SOL     OW26632   2.650   6.213   2.262  0.3228 -0.1084  0.2115
 8578SOL    HW126633   2.559   6.219   2.221  0.0225 -2.4932  0.3427
 8578SOL    HW226634   2.701   6.297   2.244 -1.6462  1.0085 -0.4575
 8579SOL     OW26635   6.387   3.783   3.936 -0.1742 -0.3494  0.1381
 8579SOL    HW126636   6.484   3.761   3.938  0.1917  0.8945 -1.5011
 8579SOL    HW226637   6.333   3.698   3.940  0.9766 -1.0825  0.4826
 8580SOL     OW26638   0.784   1.361   6.028  0.1635 -0.1774 -0.1873
 8580SOL    HW126639   0.737   1.381   5.942  2.0071 -0.1803 -1.2309
 8580SOL    HW226640   0.882   1.349   6.011  1.2827  3.5842  2.4024
 8581SOL     OW26641   5.617   4.474   0.458 -0.3571 -0.2046 -0.1723
 8581SOL    HW126642   5.681   4.420   0.404 -0.2706 -0.8139  0.5161
 8581SOL    HW226643   5.524   4.459   0.426 -0.3764 -1.1157  0.2905
 8582SOL     OW26644   0.552   5.590   1.405 -0.1529  0.4194  0.1812
 8582SOL    HW126645   0.639   5.550   1.434  0.9671  2.0863 -0.7732
 8582SOL    HW226646   0.548   5.686   1.434  0.5731  1.8991 -4.0375
 8583SOL     OW26647   5.486   5.949   2.193 -0.3677  0.7160 -0.5587
 8583SOL    HW126648   5.387   5.951   2.210 -0.0923  1.6690  1.1883
 8583SOL    HW226649   5.532   6.005   2.262  1.6881 -2.4984  0.8908
 8584SOL     OW26650   0.611   4.343   6.203  0.2096  0.5516 -0.4309
 8584SOL    HW126651   0.658   4.346   6.292  0.1618 -0.6525 -0.3532
 8584SOL    HW226652   0.519   4.382   6.213  0.1430  0.2735  0.0996
 8585SOL     OW26653   1.373   0.037   0.566 -0.0684 -0.4896  0.5374
 8585SOL    HW126654   1.466   0.065   0.539  0.2553  1.5312  3.3398
 8585SOL    HW226655   1.310   0.053   0.490  1.4742  0.3385 -0.6317
 8586SOL     OW26656   3.449   5.629   3.114  0.3177 -0.3924  0.4927
 8586SOL    HW126657   3.525   5.681   3.075  2.3549 -3.6152 -0.1713
 8586SOL    HW226658   3.428   5.552   3.054 -0.5909 -2.0298  2.7970
 8587SOL     OW26659   0.298   1.727   0.571 -0.3919  0.3453 -0.0633
 8587SOL    HW126660   0.243   1.657   0.525 -2.8508  0.5377  2.3478
 8587SOL    HW226661   0.304   1.706   0.668  1.0498  2.1446  0.2916
 8588SOL     OW26662   5.854   3.298   0.651 -0.1225 -0.5611  0.1069
 8588SOL    HW126663   5.942   3.331   0.683 -0.4115  0.4181 -0.0809
 8588SOL    HW226664   5.785   3.370   0.662 -0.7263 -1.0316 -0.4971
 8589SOL     OW26665   2.196   2.997   3.714 -0.5338  0.5786  0.0228
 8589SOL    HW126666   2.118   2.970   3.659  0.5932 -0.7352 -1.0055
 8589SOL    HW226667   2.270   3.028   3.654  0.8847 -1.3116  0.6846
 8590SOL     OW26668   5.013   2.412   6.241 -0.3792  0.0921  0.6676
 8590SOL    HW126669   5.078   2.481   6.272 -0.4697  0.5861 -0.2039
 8590SOL    HW226670   4.967   2.372   6.320 -0.7586  1.4679  1.1752
 8591SOL     OW26671   2.520   4.618   0.444 -0.2558  0.5283 -0.7698
 8591SOL    HW126672   2.484   4.545   0.386 -1.4227 -0.3734  0.9736
 8591SOL    HW226673   2.551   4.579   0.531 -0.5145  2.0456  0.0454
 8592SOL     OW26674   0.413   5.016   0.104 -0.1194 -0.0552  0.2361
 8592SOL    HW126675   0.389   4.958   0.026  2.0393 -1.6878  0.7042
 8592SOL    HW226676   0.486   5.079   0.078 -0.9829  1.0026  0.3279
 8593SOL     OW26677   2.269   4.813   2.994  0.1294  0.0536  0.3099
 8593SOL    HW126678   2.208   4.892   2.998  1.8057  1.4333  0.0997
 8593SOL    HW226679   2.360   4.840   3.025  0.9001 -1.6576 -0.3466
 8594SOL     OW26680   3.364   2.335   1.047  0.4234  0.1020 -0.0491
 8594SOL    HW126681   3.431   2.288   1.105  0.7023  0.5133 -0.0309
 8594SOL    HW226682   3.272   2.304   1.070  0.6349 -0.7220 -0.3101
 8595SOL     OW26683   0.848   0.548   2.653 -0.3832  0.0474 -0.1017
 8595SOL    HW126684   0.946   0.571   2.651 -0.1486 -0.9588 -0.9867
 8595SOL    HW226685   0.799   0.618   2.705  0.4988  1.6998 -1.3889
 8596SOL     OW26686   2.012   4.815   3.232 -0.1080 -0.4284 -0.5648
 8596SOL    HW126687   2.026   4.866   3.147  2.5595 -0.9289 -0.5158
 8596SOL    HW226688   2.095   4.819   3.287 -1.2533 -1.4224  1.3254
 8597SOL     OW26689   2.423   1.967   2.893  0.3278  0.0593  0.1137
 8597SOL    HW126690   2.402   1.869   2.885 -1.0030  0.4277 -1.2111
 8597SOL    HW226691   2.513   1.985   2.853  0.1614 -0.4853 -0.5221
 8598SOL     OW26692   0.570   1.049   2.836 -0.3696 -0.3028 -0.1530
 8598SOL    HW126693   0.610   0.980   2.896  0.6480 -0.3816 -0.8926
 8598SOL    HW226694   0.506   1.106   2.888  0.0812 -0.7042  0.8690
 8599SOL     OW26695   0.826   2.374   2.560  0.1122 -0.5617 -0.3265
 8599SOL    HW126696   0.842   2.395   2.656  1.1357 -1.0595 -0.3751
 8599SOL    HW226697   0.803   2.277   2.550 -3.1774  0.0923 -0.2576
 8600SOL     OW26698   6.383   1.764   6.910  0.6652 -0.2075  0.1102
 8600SOL    HW126699   6.470   1.773   6.958  2.0963  4.0491 -2.7717
 8600SOL    HW226700   6.400   1.746   6.813 -1.8204 -1.0852 -0.2299
 8601SOL     OW26701   6.985   1.355   4.120  0.6002  0.1219 -0.2752
 8601SOL    HW126702   6.929   1.327   4.041  2.2688  0.9541 -1.8250
 8601SOL    HW226703   6.935   1.424   4.173 -0.0147  0.5829 -1.4077
 8602SOL     OW26704   0.960   1.117   2.346  0.3255 -0.6595  0.5027
 8602SOL    HW126705   1.037   1.137   2.407  0.0896 -0.5514  0.7697
 8602SOL    HW226706   0.901   1.197   2.340  1.7193  0.2901 -1.9551
 8603SOL     OW26707   7.007   2.530   2.857 -0.4364 -0.0103 -0.5491
 8603SOL    HW126708   6.995   2.629   2.865  0.4278 -0.0548  2.6060
 8603SOL    HW226709   6.923   2.484   2.887  0.1080 -0.2088  0.7309
 8604SOL     OW26710   6.166   3.123   4.020 -0.3128 -0.0272 -0.1589
 8604SOL    HW126711   6.105   3.202   4.029  0.4128  0.5433 -0.0804
 8604SOL    HW226712   6.225   3.135   3.940 -0.7329 -0.8788 -0.6103
 8605SOL     OW26713   3.021   5.638   1.252 -0.2198  0.5080 -0.2276
 8605SOL    HW126714   2.991   5.728   1.282 -0.1029 -0.3518  2.8012
 8605SOL    HW226715   3.120   5.638   1.239 -0.1218  0.6590  0.4787
 8606SOL     OW26716   4.499   5.775   4.742  0.4171  0.0165  0.2786
 8606SOL    HW126717   4.570   5.845   4.730 -0.1213  0.7391  1.1897
 8606SOL    HW226718   4.460   5.751   4.653  0.1265  1.3958  0.0099
 8607SOL     OW26719   2.673   1.662   0.575 -0.1986 -0.2770  0.0058
 8607SOL    HW126720   2.684   1.641   0.673  0.6521 -2.0284 -0.4202
 8607SOL    HW226721   2.624   1.588   0.530 -1.2668  0.8717 -0.7936
 8608SOL     OW26722   4.475   0.196   4.906  0.0178  0.0358 -0.4161
 8608SOL    HW126723   4.462   0.178   4.809  0.1409 -0.8680 -0.2684
 8608SOL    HW226724   4.386   0.208   4.950 -0.0588 -0.0669 -0.5427
 8609SOL     OW26725   4.592   6.453   5.162  0.3304 -0.7293 -0.6370
 8609SOL    HW126726   4.529   6.383   5.131  1.0385 -0.7174 -2.2325
 8609SOL    HW226727   4.677   6.410   5.192 -0.2194 -0.7119  0.9962
 8610SOL     OW26728   0.028   6.888   3.846  0.0833  0.5264 -0.0790
 8610SOL    HW126729   0.061   6.819   3.782  0.4759 -0.0939  0.7683
 8610SOL    HW226730  -0.070   6.874   3.863  0.7826 -2.1618  2.7811
 8611SOL     OW26731   2.483   2.071   3.325  0.6489  0.9740  0.6862
 8611SOL    HW126732   2.582   2.078   3.308  0.8303 -0.7742  0.7516
 8611SOL    HW226733   2.433   2.094   3.242  1.1608  1.0315  0.3890
 8612SOL     OW26734   6.042   3.995   4.090 -0.1270 -0.1013  0.6092
 8612SOL    HW126735   6.014   4.017   3.997  2.2748  0.2494 -0.1010
 8612SOL    HW226736   6.072   3.900   4.095  1.0994  0.2688  0.6345
 8613SOL     OW26737   2.210   2.106   0.474  0.3291 -0.3054 -0.1383
 8613SOL    HW126738   2.121   2.148   0.489  0.0792 -0.5624 -0.8285
 8613SOL    HW226739   2.242   2.064   0.559  0.4409  0.9885  0.4764
 8614SOL     OW26740   2.153   3.490   4.916 -0.4747  0.1923  0.0368
 8614SOL    HW126741   2.131   3.397   4.886  0.1857  0.3265 -0.9203
 8614SOL    HW226742   2.138   3.554   4.841 -1.8430  1.0261  0.9635
 8615SOL     OW26743   4.621   1.366   6.381  0.1802 -0.3908 -0.2822
 8615SOL    HW126744   4.665   1.453   6.404  0.6715 -0.7553  0.1698
 8615SOL    HW226745   4.627   1.304   6.459  0.8026 -1.2228 -0.9790
 8616SOL     OW26746   0.610   3.622   2.883  0.0206 -0.4167  0.2663
 8616SOL    HW126747   0.709   3.608   2.881  0.0993 -0.4331  2.2951
 8616SOL    HW226748   0.590   3.719   2.901 -0.3500 -0.4623  0.1225
 8617SOL     OW26749   1.368   4.285   0.204 -0.8245  0.2579  0.4726
 8617SOL    HW126750   1.282   4.323   0.170  0.0154  1.8601  0.0268
 8617SOL    HW226751   1.427   4.260   0.127 -0.9208 -0.9621  0.7729
 8618SOL     OW26752   3.147   1.388   4.973 -0.1953  0.2180  0.4764
 8618SOL    HW126753   3.193   1.300   4.964 -0.3192  0.4103 -3.1325
 8618SOL    HW226754   3.048   1.373   4.984 -0.1574 -0.0822  0.4151
 8619SOL     OW26755   2.958   6.259   0.961 -0.4959 -0.4531  0.2190
 8619SOL    HW126756   2.869   6.235   0.999 -1.2384  0.6602 -0.7435
 8619SOL    HW226757   2.999   6.331   1.017  0.4558 -1.9005  1.4607
 8620SOL     OW26758   5.913   4.758   4.438  0.7188  0.2908  0.4422
 8620SOL    HW126759   5.987   4.732   4.499  1.1956 -1.7611 -0.9283
 8620SOL    HW226760   5.947   4.822   4.369  0.1834  2.5993  2.1900
 8621SOL     OW26761   5.382   6.583   4.649  0.1301  0.0955  0.2931
 8621SOL    HW126762   5.325   6.665   4.653 -0.0280  0.1526 -1.9077
 8621SOL    HW226763   5.464   6.602   4.594  2.2189 -0.0656  3.1460
 8622SOL     OW26764   5.207   4.367   5.011  0.5616  0.2851  0.2564
 8622SOL    HW126765   5.147   4.354   4.933  0.7783 -1.0978  0.2993
 8622SOL    HW226766   5.184   4.453   5.057 -0.4407  0.4559 -0.5371
 8623SOL     OW26767   5.758   0.973   3.836 -0.5757 -0.5318 -0.1590
 8623SOL    HW126768   5.714   0.898   3.788 -0.5844 -1.7092  1.5883
 8623SOL    HW226769   5.715   0.985   3.926  0.5994  0.3845  0.3138
 8624SOL     OW26770   6.794   2.098   1.972 -0.1710 -0.2295  0.0394
 8624SOL    HW126771   6.742   2.131   1.893 -0.3753  0.6778  0.5351
 8624SOL    HW226772   6.853   2.023   1.944  2.2686  2.1762 -1.8259
 8625SOL     OW26773   3.040   1.047   5.679  0.2196 -0.7239 -0.4026
 8625SOL    HW126774   2.958   1.027   5.625 -0.0649 -0.7859  0.0504
 8625SOL    HW226775   3.069   1.141   5.660 -0.6653 -0.2757  0.3305
 8626SOL     OW26776   2.054   2.404   1.147  0.2845  0.3366 -0.2942
 8626SOL    HW126777   2.071   2.362   1.057  0.5893 -0.4221  0.1117
 8626SOL    HW226778   2.082   2.500   1.144 -0.4045  0.5297 -1.2295
 8627SOL     OW26779   3.460   1.263   0.635  0.4897  0.2521  0.7587
 8627SOL    HW126780   3.523   1.196   0.596  0.2296 -0.2330  1.1571
 8627SOL    HW226781   3.508   1.350   0.651  2.3924 -1.3178  5.1907
 8628SOL     OW26782   6.142   0.875   1.771 -0.3496 -0.1467  0.2687
 8628SOL    HW126783   6.152   0.881   1.671 -2.7863 -1.1988 -0.1083
 8628SOL    HW226784   6.167   0.783   1.801  1.9957  0.6288  0.9417
 8629SOL     OW26785   0.861   0.024   4.773  0.0653  0.0057 -0.8711
 8629SOL    HW126786   0.763   0.023   4.790 -0.2841 -2.0181 -2.5693
 8629SOL    HW226787   0.904   0.094   4.830 -2.2434  0.4880  0.4123
 8630SOL     OW26788   4.703   4.312   4.508  0.3789 -0.0540 -0.1752
 8630SOL    HW126789   4.672   4.405   4.486 -1.8387 -1.1707 -2.3963
 8630SOL    HW226790   4.693   4.295   4.606 -0.2447  1.6893  0.0918
 8631SOL     OW26791   4.919   6.642   2.939 -0.1252 -0.3896 -0.5011
 8631SOL    HW126792   4.868   6.728   2.953  1.8270  0.8517 -0.7132
 8631SOL    HW226793   4.861   6.577   2.889 -1.5088  0.9368 -0.7040
 8632SOL     OW26794   3.703   0.702   2.539  0.0117 -0.2883 -0.2816
 8632SOL    HW126795   3.777   0.662   2.485 -0.4966  1.2134 -2.2103
 8632SOL    HW226796   3.742   0.767   2.605  0.4345  1.1461 -1.8689
 8633SOL     OW26797   6.125   5.117   3.358 -0.5811 -0.1129  0.6244
 8633SOL    HW126798   6.168   5.153   3.441  1.5124  0.4966 -0.6203
 8633SOL    HW226799   6.196   5.080   3.298 -1.7476  1.1815 -1.7073
 8634SOL     OW26800   5.788   0.039   2.104  0.2509  0.0403 -0.1572
 8634SOL    HW126801   5.871  -0.008   2.133 -0.3361 -0.7537  0.2493
 8634SOL    HW226802   5.797   0.066   2.008  1.3271  0.7543  0.1228
 8635SOL     OW26803   5.442   4.419   4.574  0.1334  0.5581 -0.0727
 8635SOL    HW126804   5.374   4.486   4.603 -0.7233 -0.5568  0.5699
 8635SOL    HW226805   5.531   4.442   4.614 -0.6011  0.1719  1.8408
 8636SOL     OW26806   5.566   4.799   2.642 -0.1064  0.0820 -0.1978
 8636SOL    HW126807   5.540   4.837   2.731  2.2159  0.2992  0.4654
 8636SOL    HW226808   5.541   4.703   2.638 -0.9787  0.2795  0.3568
 8637SOL     OW26809   6.567   0.741   2.281  0.0991  0.6100  0.0475
 8637SOL    HW126810   6.570   0.810   2.353  2.3715  1.2188 -0.5537
 8637SOL    HW226811   6.616   0.659   2.312  1.3949  1.0033 -0.8705
 8638SOL     OW26812   1.170   5.012   3.536 -1.1446  0.3085  0.1424
 8638SOL    HW126813   1.119   5.095   3.510 -0.1817  1.2927  1.2620
 8638SOL    HW226814   1.209   5.025   3.627  2.2792  0.1914 -1.1566
 8639SOL     OW26815   6.508   3.143   3.608  0.6533  0.0453  0.3863
 8639SOL    HW126816   6.586   3.169   3.665  2.6658 -1.8529 -1.3578
 8639SOL    HW226817   6.481   3.220   3.550  2.0135  0.3770  0.1704
 8640SOL     OW26818   4.474   5.178   0.020  0.2363  0.8902  0.1986
 8640SOL    HW126819   4.429   5.168  -0.069 -0.6087  0.5769  0.6523
 8640SOL    HW226820   4.415   5.232   0.081  0.1051 -0.1823  1.0547
 8641SOL     OW26821   4.291   5.545   5.189 -0.2809  0.5084  0.1859
 8641SOL    HW126822   4.313   5.461   5.140 -0.9155  0.4314  0.0336
 8641SOL    HW226823   4.361   5.561   5.259  1.6729  1.5768 -1.8752
 8642SOL     OW26824   4.338   6.219   1.072 -0.2405 -0.1854  0.0318
 8642SOL    HW126825   4.405   6.284   1.036 -0.4947  1.8309  2.8587
 8642SOL    HW226826   4.250   6.264   1.082 -0.3770 -0.8030  2.2853
 8643SOL     OW26827   2.783   5.817   0.200 -0.7648  0.0356  0.3493
 8643SOL    HW126828   2.841   5.741   0.230  1.4419  1.2229 -0.6231
 8643SOL    HW226829   2.766   5.810   0.102 -1.7656  0.0524  0.5101
 8644SOL     OW26830   4.880   3.787   3.699 -0.3994 -0.2593 -0.5314
 8644SOL    HW126831   4.855   3.837   3.781 -2.6888  0.2886 -1.4983
 8644SOL    HW226832   4.838   3.697   3.700  1.2225 -1.0508 -0.2122
 8645SOL     OW26833   0.100   3.709   1.284 -0.0277 -0.3133  0.3075
 8645SOL    HW126834   0.124   3.612   1.289  1.3029  0.0278  0.9191
 8645SOL    HW226835   0.129   3.755   1.368  0.2605  0.8053 -0.3834
 8646SOL     OW26836   4.161   0.233   0.880  0.0893 -0.5177 -0.8721
 8646SOL    HW126837   4.069   0.214   0.846 -0.0907 -0.0977 -0.6221
 8646SOL    HW226838   4.187   0.326   0.856  1.2776 -1.2722 -2.7920
 8647SOL     OW26839   5.325   5.441   1.572 -0.3195 -0.3166  0.0492
 8647SOL    HW126840   5.399   5.450   1.505 -0.4005 -0.6212 -0.0818
 8647SOL    HW226841   5.265   5.365   1.546 -0.7510  0.0095  0.0857
 8648SOL     OW26842   6.537   0.304   4.878 -0.5940 -0.1565  0.4164
 8648SOL    HW126843   6.631   0.274   4.862 -0.8137 -0.0991 -1.1588
 8648SOL    HW226844   6.526   0.331   4.973  0.6737 -1.2441  0.8940
 8649SOL     OW26845   5.919   5.228   5.496 -0.2622 -0.1528  0.0393
 8649SOL    HW126846   5.825   5.263   5.506 -0.4124 -0.8327  1.2147
 8649SOL    HW226847   5.977   5.300   5.458 -0.5811  1.3934  2.2602
 8650SOL     OW26848   0.458   5.968   1.151  0.6839 -0.3406  0.4059
 8650SOL    HW126849   0.410   5.899   1.204 -0.0811 -0.9149 -0.9851
 8650SOL    HW226850   0.392   6.023   1.100  1.4324 -0.6982 -1.0050
 8651SOL     OW26851   5.031   4.501   2.223 -0.2886  0.2432 -0.1078
 8651SOL    HW126852   4.991   4.457   2.143 -1.7396 -0.0134  0.7310
 8651SOL    HW226853   5.003   4.452   2.306 -1.7420  2.5317  0.8528
 8652SOL     OW26854   1.310   4.288   5.718 -0.3235  0.5521 -0.8027
 8652SOL    HW126855   1.391   4.236   5.690 -2.4227 -2.8608 -0.9224
 8652SOL    HW226856   1.262   4.321   5.637 -0.6475 -0.0068 -0.8386
 8653SOL     OW26857   6.192   5.034   0.988 -0.0095  0.4084 -0.1747
 8653SOL    HW126858   6.292   5.035   0.992 -0.0559  0.2785  1.1719
 8653SOL    HW226859   6.159   5.117   0.943  0.6272  1.6789  1.6159
 8654SOL     OW26860   0.732   3.538   0.824  0.1387 -0.2539 -0.4448
 8654SOL    HW126861   0.651   3.586   0.857 -0.1140 -0.2216 -1.0899
 8654SOL    HW226862   0.740   3.449   0.869 -0.1743 -0.1933 -0.2745
 8655SOL     OW26863   5.223   3.601   2.837  0.1371 -0.3228 -0.3839
 8655SOL    HW126864   5.323   3.591   2.844  0.0721 -1.6267 -0.9889
 8655SOL    HW226865   5.185   3.616   2.928  0.7994 -0.8575 -0.0074
 8656SOL     OW26866   0.135   2.861   2.061  0.7121  0.1970  0.0999
 8656SOL    HW126867   0.160   2.764   2.059  1.6424  0.4208 -2.3239
 8656SOL    HW226868   0.209   2.914   2.102  0.8012  0.0412  0.1435
 8657SOL     OW26869   2.931   6.465   6.820  0.1386  0.2880 -1.0408
 8657SOL    HW126870   2.923   6.402   6.742 -1.2176  0.4573 -1.0528
 8657SOL    HW226871   2.979   6.420   6.895 -1.4489 -1.0468 -0.7788
 8658SOL     OW26872   0.411   1.048   4.624  0.7775 -0.4656 -0.3865
 8658SOL    HW126873   0.381   1.048   4.719  0.5895 -2.9127 -0.3623
 8658SOL    HW226874   0.416   1.141   4.589  0.4056  0.4418  1.8714
 8659SOL     OW26875   3.606   5.539   3.344  0.1963  0.0882  0.2627
 8659SOL    HW126876   3.665   5.620   3.350 -0.3037  0.3833  1.6252
 8659SOL    HW226877   3.542   5.550   3.267  0.2560  0.9104  0.3168
 8660SOL     OW26878   4.339   5.154   0.894 -0.0104 -0.6737  0.3671
 8660SOL    HW126879   4.255   5.168   0.947  0.0374 -1.1463  0.5710
 8660SOL    HW226880   4.384   5.071   0.925 -1.1198 -2.2118 -1.8993
 8661SOL     OW26881   6.240   3.368   2.774 -0.2218 -0.1617 -0.3992
 8661SOL    HW126882   6.156   3.374   2.720 -0.8681 -0.6082  0.5209
 8661SOL    HW226883   6.309   3.428   2.735 -1.2354  0.8345 -0.7067
 8662SOL     OW26884   0.670   1.301   2.166 -0.3589 -0.3716 -0.0925
 8662SOL    HW126885   0.595   1.299   2.232 -0.6315 -3.2330 -0.3914
 8662SOL    HW226886   0.755   1.324   2.213 -0.6934 -1.5430  1.1209
 8663SOL     OW26887   1.841   6.330   0.991  0.2140 -0.5199  0.1140
 8663SOL    HW126888   1.763   6.376   1.033 -1.5124 -1.3963 -1.9377
 8663SOL    HW226889   1.891   6.279   1.061 -1.2705 -0.2299  1.4471
 8664SOL     OW26890   5.643   4.423   1.887  0.2382  0.1305 -0.1420
 8664SOL    HW126891   5.654   4.356   1.960  3.4107 -0.7355 -1.2401
 8664SOL    HW226892   5.694   4.505   1.908  0.4899  0.2068 -1.0066
 8665SOL     OW26893   6.098   5.995   4.129  0.4680 -0.0469 -0.0264
 8665SOL    HW126894   6.156   5.940   4.068  1.1858  1.5279 -0.8288
 8665SOL    HW226895   6.038   6.053   4.075 -0.3026 -0.0587  0.7965
 8666SOL     OW26896   4.643   4.387   4.105 -0.3736 -0.2918 -0.0431
 8666SOL    HW126897   4.653   4.386   4.204 -0.8582 -0.9643  0.0093
 8666SOL    HW226898   4.546   4.387   4.081 -0.2635  0.1664 -0.5210
 8667SOL     OW26899   4.337   1.383   2.598 -0.4003 -0.0095  0.3521
 8667SOL    HW126900   4.261   1.384   2.664  0.0987 -3.6794  1.1895
 8667SOL    HW226901   4.316   1.318   2.524  1.2031  0.2350 -0.3541
 8668SOL     OW26902   3.115   1.917   2.176 -0.1967  0.1054  0.2486
 8668SOL    HW126903   3.192   1.941   2.234 -0.9774 -1.2739  1.9730
 8668SOL    HW226904   3.095   1.819   2.187 -1.7230  0.2782 -0.7017
 8669SOL     OW26905   3.353   1.704   0.695  0.1118 -0.6513 -0.3904
 8669SOL    HW126906   3.331   1.787   0.746  2.6491  0.7105 -1.3055
 8669SOL    HW226907   3.274   1.675   0.641 -1.0861  0.6783  0.5946
 8670SOL     OW26908   4.467   5.455   2.864 -0.0381  0.4899  0.1382
 8670SOL    HW126909   4.390   5.413   2.912 -0.3976  1.3803  0.3716
 8670SOL    HW226910   4.518   5.513   2.928  1.4298 -0.8369  0.2410
 8671SOL     OW26911   5.107   5.515   1.829 -0.2212  0.1091 -0.4560
 8671SOL    HW126912   5.135   5.424   1.860 -0.9246  0.1309  0.2642
 8671SOL    HW226913   5.183   5.579   1.840  0.3948 -0.4500 -1.2914
 8672SOL     OW26914   4.803   6.304   5.199 -0.5312 -0.1586  0.0584
 8672SOL    HW126915   4.808   6.263   5.108  1.6795  1.6590 -0.7310
 8672SOL    HW226916   4.823   6.235   5.268  3.5261 -0.5174 -1.2504
 8673SOL     OW26917   3.101   2.862   5.962 -0.2084 -0.1195 -0.0767
 8673SOL    HW126918   3.002   2.866   5.950 -0.0763  0.2852 -1.1170
 8673SOL    HW226919   3.129   2.767   5.976 -0.5885 -0.4436 -1.3582
 8674SOL     OW26920   0.481   6.178   1.363 -0.3792 -0.7717 -0.1033
 8674SOL    HW126921   0.553   6.147   1.302  1.6443  0.4416  1.5441
 8674SOL    HW226922   0.400   6.203   1.309  1.1022 -0.2959 -2.2304
 8675SOL     OW26923   2.191   1.419   1.439  0.1448 -0.0682 -0.2039
 8675SOL    HW126924   2.270   1.360   1.433  0.6623  0.4849  0.8221
 8675SOL    HW226925   2.167   1.454   1.348 -0.1260 -1.7511 -0.8115
 8676SOL     OW26926   6.107   0.012   3.524 -0.0716 -0.2185 -0.2728
 8676SOL    HW126927   6.142  -0.035   3.444 -1.5221 -1.3236 -0.3109
 8676SOL    HW226928   6.091  -0.055   3.597  0.2485  0.6167  0.5794
 8677SOL     OW26929   3.021   4.118   5.300 -0.0485  0.3242 -0.3777
 8677SOL    HW126930   3.069   4.102   5.213  0.6080 -1.8326  0.3115
 8677SOL    HW226931   2.988   4.031   5.336 -1.3914  1.3341  0.9598
 8678SOL     OW26932   0.554   3.103   0.781  0.1943  0.2277 -0.4892
 8678SOL    HW126933   0.470   3.126   0.731 -0.2900  0.5733  0.4600
 8678SOL    HW226934   0.571   3.005   0.774 -0.4186  0.1180 -0.4999
 8679SOL     OW26935   6.146   1.753   5.680 -0.0588  0.0115  0.0719
 8679SOL    HW126936   6.132   1.750   5.581  2.4947  0.6451 -0.3908
 8679SOL    HW226937   6.156   1.848   5.709  2.1633 -0.2541  0.3785
 8680SOL     OW26938   1.113   3.554   5.408  0.8407 -0.1866  0.6450
 8680SOL    HW126939   1.137   3.618   5.335  0.0356 -0.4040  0.1856
 8680SOL    HW226940   1.123   3.460   5.376 -0.4362 -0.2876  0.4873
 8681SOL     OW26941   3.320   3.970   0.891  0.5341 -0.2922  0.6891
 8681SOL    HW126942   3.259   3.899   0.925 -0.4515 -0.2602 -0.9458
 8681SOL    HW226943   3.334   4.038   0.963 -1.5811 -0.1648  1.0444
 8682SOL     OW26944   2.723   4.770   0.145 -0.4633  0.3803  0.0302
 8682SOL    HW126945   2.771   4.795   0.229 -1.0083 -0.8938  0.7625
 8682SOL    HW226946   2.758   4.682   0.112 -0.1026  0.9680 -1.2195
 8683SOL     OW26947   4.075   5.477   0.011 -0.0151  0.3968  0.1647
 8683SOL    HW126948   4.113   5.563   0.044  0.8366  0.1137 -0.0435
 8683SOL    HW226949   4.121   5.401   0.056  1.1116  0.0016 -1.5254
 8684SOL     OW26950   0.335   1.536   3.023 -0.0772  0.0015  0.1537
 8684SOL    HW126951   0.282   1.544   2.939  2.0454  1.2661 -1.1687
 8684SOL    HW226952   0.409   1.471   3.010 -0.6820 -1.0450  1.6499
 8685SOL     OW26953   0.387   2.575   6.390  0.0199 -0.1972  0.0688
 8685SOL    HW126954   0.329   2.498   6.363  0.1006 -0.3859  0.4280
 8685SOL    HW226955   0.379   2.648   6.322 -1.4453  0.2126  0.6363
 8686SOL     OW26956   6.315   1.497   6.569  0.2085 -0.0289  0.1883
 8686SOL    HW126957   6.222   1.478   6.601  0.0652  0.7945  0.2991
 8686SOL    HW226958   6.322   1.472   6.472  0.0454 -0.6445  0.3352
 8687SOL     OW26959   1.186   2.937   3.772  0.5690  0.4615 -0.4481
 8687SOL    HW126960   1.123   2.881   3.825 -0.7137  1.4103 -0.9225
 8687SOL    HW226961   1.213   2.889   3.689  0.8732 -0.1422 -0.0101
 8688SOL     OW26962   6.792   5.562   6.942  0.3115  0.5439  0.4987
 8688SOL    HW126963   6.880   5.514   6.942  0.5233  0.9246  0.9834
 8688SOL    HW226964   6.756   5.566   7.035 -0.8538 -0.7324  0.1306
 8689SOL     OW26965   3.498   3.855   1.472 -0.2935  0.2411  0.3993
 8689SOL    HW126966   3.556   3.838   1.551 -0.7297 -0.0477  0.6658
 8689SOL    HW226967   3.494   3.954   1.454 -0.1078  0.3007  0.6767
 8690SOL     OW26968   2.350   0.682   1.846 -0.7244 -0.7385  0.0871
 8690SOL    HW126969   2.311   0.668   1.937 -1.3721 -2.0198 -0.3596
 8690SOL    HW226970   2.279   0.716   1.784 -0.3084  0.0422  0.0265
 8691SOL     OW26971   4.321   0.729   6.903  0.4352  0.3791 -0.1844
 8691SOL    HW126972   4.226   0.743   6.875  0.3017  0.8205  0.4592
 8691SOL    HW226973   4.323   0.689   6.995  0.8510  2.6381  0.8557
 8692SOL     OW26974   1.431   0.529   3.798 -0.0360  0.4169  0.2575
 8692SOL    HW126975   1.529   0.527   3.778 -0.3709 -2.1346 -1.5514
 8692SOL    HW226976   1.391   0.612   3.759  1.1048  0.5168 -0.7685
 8693SOL     OW26977   4.448   3.929   0.275 -0.1583  0.2182  0.0413
 8693SOL    HW126978   4.515   3.868   0.318 -0.1782 -0.3468 -0.7052
 8693SOL    HW226979   4.440   4.013   0.328 -0.0738 -0.3991  1.0540
 8694SOL     OW26980   1.714   1.561   6.726 -0.4238 -0.3453  0.1595
 8694SOL    HW126981   1.786   1.605   6.780 -1.1134  0.3965  0.4913
 8694SOL    HW226982   1.649   1.630   6.695 -0.6513 -0.9228 -0.6852
 8695SOL     OW26983   2.985   3.215   4.774  0.4101 -0.2566  0.4543
 8695SOL    HW126984   2.955   3.305   4.807 -0.3021 -1.6706  4.1313
 8695SOL    HW226985   2.911   3.148   4.788  1.3256 -1.6942 -1.1532
 8696SOL     OW26986   2.259   5.025   6.657 -0.5255 -0.0773  0.0804
 8696SOL    HW126987   2.196   4.948   6.670 -0.3732 -0.2178  0.0016
 8696SOL    HW226988   2.271   5.042   6.559  0.8926 -1.1760  0.0238
 8697SOL     OW26989   5.338   5.103   6.144  0.6216 -0.0382  0.0124
 8697SOL    HW126990   5.403   5.177   6.127 -0.8783  0.9346 -1.8300
 8697SOL    HW226991   5.249   5.141   6.168  0.2911 -1.3039  0.8975
 8698SOL     OW26992   0.986   6.750   4.155  0.2950  0.0239 -0.0920
 8698SOL    HW126993   1.054   6.763   4.227  0.0561  0.0587  0.1277
 8698SOL    HW226994   0.894   6.755   4.194  0.1504  0.6315 -0.4926
 8699SOL     OW26995   0.272   1.432   5.556  0.4386  0.1988  0.0322
 8699SOL    HW126996   0.178   1.455   5.582 -0.0013 -0.8929 -0.5152
 8699SOL    HW226997   0.330   1.514   5.563 -0.8457  1.2483 -0.9902
 8700SOL     OW26998   1.783   1.776   4.745  0.4556  0.3373 -0.0975
 8700SOL    HW126999   1.845   1.814   4.813  0.0501  1.6026 -0.4149
 8700SOL    HW227000   1.700   1.831   4.741 -0.2201 -0.6763 -0.4773
 8701SOL     OW27001   1.907   0.850   3.769 -0.3558  0.4870  0.5451
 8701SOL    HW127002   1.832   0.907   3.734 -0.4739 -0.2840 -0.4919
 8701SOL    HW227003   1.882   0.814   3.859 -0.9348  0.8133  0.5199
 8702SOL     OW27004   2.599   0.479   0.108  0.0421 -0.2236  0.2599
 8702SOL    HW127005   2.656   0.411   0.060  1.9998  0.0466  2.0452
 8702SOL    HW227006   2.652   0.563   0.121 -1.0763  0.3492  1.2589
 8703SOL     OW27007   1.086   4.441   2.090  0.0698 -0.3455  0.2685
 8703SOL    HW127008   1.079   4.345   2.117  1.4799 -0.3933  0.5445
 8703SOL    HW227009   1.121   4.495   2.167  0.3415  0.2005 -0.2291
 8704SOL     OW27010   1.092   4.138   2.750 -0.0239 -0.5339  0.5356
 8704SOL    HW127011   1.148   4.203   2.700 -2.0229 -0.2213 -1.4618
 8704SOL    HW227012   1.051   4.072   2.686 -0.0704 -2.2051  2.1895
 8705SOL     OW27013   4.088   6.669   2.387 -0.4306  0.5352 -0.1204
 8705SOL    HW127014   4.110   6.724   2.467 -1.0697 -1.1148  1.2709
 8705SOL    HW227015   4.173   6.637   2.344 -0.0364  3.1133 -1.4008
 8706SOL     OW27016   5.608   1.842   4.619 -0.5018  0.3607  0.3187
 8706SOL    HW127017   5.641   1.927   4.578  0.0813  0.1180  0.2672
 8706SOL    HW227018   5.523   1.859   4.668 -0.3592  0.9874  0.3543
 8707SOL     OW27019   4.249   1.409   6.096 -0.1398  0.4681 -0.3609
 8707SOL    HW127020   4.152   1.383   6.093 -0.2995  1.0331 -0.3866
 8707SOL    HW227021   4.276   1.423   6.191  0.2134 -0.7303 -0.2778
 8708SOL     OW27022   5.067   3.189   0.815  0.2719 -0.1934  0.3318
 8708SOL    HW127023   5.097   3.158   0.905 -0.9528 -0.7654  0.5589
 8708SOL    HW227024   4.994   3.256   0.825 -0.8214 -1.2604 -0.2398
 8709SOL     OW27025   5.258   2.112   0.873  0.0286  0.1511  0.5360
 8709SOL    HW127026   5.288   2.206   0.892  2.4482 -0.8715  2.2504
 8709SOL    HW227027   5.324   2.068   0.811  0.0699 -1.0323  1.3963
 8710SOL     OW27028   0.555   3.661   2.516 -0.2512  0.0388  0.4557
 8710SOL    HW127029   0.579   3.579   2.568 -1.5135 -0.0684  0.9091
 8710SOL    HW227030   0.458   3.683   2.531  0.0383  1.5665  0.2842
 8711SOL     OW27031   3.930   1.510   4.545 -0.1186  0.3871  0.1280
 8711SOL    HW127032   3.900   1.498   4.640 -0.1934 -1.5354 -0.0998
 8711SOL    HW227033   3.905   1.429   4.492  0.6761  1.0725 -1.3469
 8712SOL     OW27034   2.495   1.958   0.127  0.2576  0.4778  0.1585
 8712SOL    HW127035   2.442   1.876   0.147  1.0307  0.1625  0.9742
 8712SOL    HW227036   2.574   1.933   0.070  2.0910  0.1075  2.6986
 8713SOL     OW27037   1.987   5.327   0.964  0.5325  0.2260  0.3428
 8713SOL    HW127038   1.927   5.292   1.036  0.3071 -1.1334 -0.4780
 8713SOL    HW227039   2.053   5.390   1.004  0.3226 -0.3928  1.7222
 8714SOL     OW27040   0.373   1.149   5.147 -0.0486  0.2439 -0.4550
 8714SOL    HW127041   0.472   1.146   5.165  0.1089  2.5576 -0.5983
 8714SOL    HW227042   0.352   1.231   5.093 -2.0943 -0.0375 -0.1582
 8715SOL     OW27043   3.554   0.603   2.732  0.0012 -0.2922 -0.1034
 8715SOL    HW127044   3.612   0.647   2.663  0.2732  0.2798  0.4776
 8715SOL    HW227045   3.605   0.592   2.817 -1.3875  2.3527  1.1901
 8716SOL     OW27046   3.534   0.311   3.896 -0.8313  0.4087  0.0321
 8716SOL    HW127047   3.445   0.297   3.941  0.0518  0.5671  1.9194
 8716SOL    HW227048   3.537   0.402   3.856 -0.9085  1.0837  1.5087
 8717SOL     OW27049   4.537   5.249   0.712 -0.2402  0.5518  0.7908
 8717SOL    HW127050   4.587   5.170   0.678  0.4082  1.8298 -1.4425
 8717SOL    HW227051   4.456   5.219   0.762  0.1787 -1.5018  0.2944
 8718SOL     OW27052   6.966   4.018   4.949  0.5604 -0.5099 -0.3457
 8718SOL    HW127053   7.006   3.994   4.861  0.8838  1.2537 -0.7202
 8718SOL    HW227054   6.957   3.936   5.005  2.4734 -1.3209 -1.1473
 8719SOL     OW27055   4.390   1.013   6.964 -0.1735 -0.0586 -0.3062
 8719SOL    HW127056   4.350   0.923   6.949 -1.4897  0.3514  0.6334
 8719SOL    HW227057   4.468   1.005   7.026 -2.0558 -0.2324  2.1695
 8720SOL     OW27058   4.958   2.621   4.460  0.2727 -0.1384  0.1848
 8720SOL    HW127059   4.998   2.657   4.545  1.5620  1.0989 -0.8857
 8720SOL    HW227060   4.888   2.683   4.426 -2.1804 -1.9226  1.6406
 8721SOL     OW27061   5.522   0.474   3.922 -0.3658  0.1586 -0.2256
 8721SOL    HW127062   5.594   0.540   3.946  0.7301 -0.9461 -0.3739
 8721SOL    HW227063   5.456   0.469   3.996 -0.9114  1.9849 -0.5398
 8722SOL     OW27064   4.047   2.390   6.300  0.1676 -0.0582  0.0217
 8722SOL    HW127065   4.093   2.324   6.241 -0.6299 -0.4712 -0.1491
 8722SOL    HW227066   4.056   2.482   6.261 -1.0824 -0.4338 -1.2232
 8723SOL     OW27067   6.830   5.896   0.253 -0.5082  0.6430 -0.0105
 8723SOL    HW127068   6.776   5.813   0.238 -0.8822  0.7506  0.7008
 8723SOL    HW227069   6.909   5.897   0.191  0.5012 -1.1178  1.1680
 8724SOL     OW27070   5.314   4.538   0.024  0.0667 -0.2797  0.2152
 8724SOL    HW127071   5.292   4.490  -0.061  0.7840  0.1162 -0.2005
 8724SOL    HW227072   5.375   4.615   0.004 -2.1991  1.7421  0.6276
 8725SOL     OW27073   2.729   1.631   6.568 -0.0324  0.0199  0.0372
 8725SOL    HW127074   2.770   1.607   6.656 -0.1509 -1.9197 -0.3933
 8725SOL    HW227075   2.631   1.615   6.572  0.0749 -0.8542 -0.6883
 8726SOL     OW27076   2.815   6.996   0.889  0.1861  1.0366  0.1580
 8726SOL    HW127077   2.904   6.983   0.845 -0.1203 -1.2003  0.1006
 8726SOL    HW227078   2.742   6.968   0.826 -0.4604  1.0532  0.8821
 8727SOL     OW27079   5.653   6.618   2.836  0.0498  0.4062 -0.7024
 8727SOL    HW127080   5.745   6.641   2.866  1.3246 -1.1849 -3.0612
 8727SOL    HW227081   5.586   6.664   2.894  2.2600  0.1033  2.2746
 8728SOL     OW27082   0.767   4.703   3.748  0.3098 -0.2380  0.0926
 8728SOL    HW127083   0.826   4.654   3.684  0.0410 -0.1024 -0.2627
 8728SOL    HW227084   0.823   4.749   3.817  0.6746  0.6447 -0.7706
 8729SOL     OW27085   4.769   5.940   3.089 -0.0536 -0.9684 -0.1637
 8729SOL    HW127086   4.690   6.001   3.091  1.2308  0.7422  0.5067
 8729SOL    HW227087   4.771   5.886   3.174 -0.0620 -0.4196  0.1895
 8730SOL     OW27088   1.314   5.808   2.822  0.5450  0.5020 -0.1595
 8730SOL    HW127089   1.276   5.901   2.816  0.5610  0.4658 -0.8399
 8730SOL    HW227090   1.272   5.760   2.899 -0.9048  0.4223 -0.9576
 8731SOL     OW27091   5.652   2.670   2.552  0.2551 -0.1359  0.2426
 8731SOL    HW127092   5.593   2.590   2.541 -0.1017  0.3048 -1.2450
 8731SOL    HW227093   5.625   2.719   2.634 -1.4903  0.0524 -0.3994
 8732SOL     OW27094   6.596   5.617   1.679 -0.6212 -0.8539  0.1934
 8732SOL    HW127095   6.654   5.673   1.620 -0.4469  0.7021  1.7366
 8732SOL    HW227096   6.554   5.544   1.626  0.0987  0.0189 -1.6639
 8733SOL     OW27097   5.120   6.805   6.807 -0.1347  0.1477  0.1912
 8733SOL    HW127098   5.195   6.749   6.771 -0.8519 -0.6660 -0.0806
 8733SOL    HW227099   5.086   6.866   6.735  0.3990  0.6733  0.3779
 8734SOL     OW27100   0.665   6.037   2.078 -0.5677  0.3295 -0.5295
 8734SOL    HW127101   0.569   6.064   2.090 -0.4270 -0.0801  1.9826
 8734SOL    HW227102   0.679   5.946   2.117  0.9780  0.6147 -0.3796
 8735SOL     OW27103   0.691   5.540   4.940  0.1501 -0.3101 -0.4401
 8735SOL    HW127104   0.596   5.559   4.914  0.3799 -0.0306 -1.0755
 8735SOL    HW227105   0.753   5.594   4.884  0.7273 -1.1404 -0.6181
 8736SOL     OW27106   6.806   5.386   5.542 -0.0924 -0.0281  0.2952
 8736SOL    HW127107   6.806   5.338   5.454 -0.6792 -2.0055  1.3222
 8736SOL    HW227108   6.867   5.465   5.536  1.1525 -1.0381 -1.4164
 8737SOL     OW27109   1.770   4.622   0.072  0.3415  0.2081 -0.4843
 8737SOL    HW127110   1.802   4.552   0.135 -0.3096  1.6032  1.4940
 8737SOL    HW227111   1.670   4.626   0.074  0.3863  1.6640  0.0341
 8738SOL     OW27112   1.402   3.499   5.314  0.5151 -0.0159 -0.1549
 8738SOL    HW127113   1.334   3.426   5.304 -2.4594  2.2796  1.6351
 8738SOL    HW227114   1.461   3.478   5.393 -0.6653 -0.2571  0.6905
 8739SOL     OW27115   6.914   2.730   5.580  0.1142  0.2984  0.0062
 8739SOL    HW127116   6.984   2.763   5.517  1.7448 -1.3668  0.8858
 8739SOL    HW227117   6.837   2.694   5.528  0.6977  0.4580 -0.9959
 8740SOL     OW27118   1.153   6.428   0.031  0.4255  0.0565 -0.3899
 8740SOL    HW127119   1.170   6.369  -0.048  0.3792 -1.8557  0.9775
 8740SOL    HW227120   1.090   6.501   0.004  2.8217  1.3831 -2.9132
 8741SOL     OW27121   0.785   1.584   2.576  0.0955  0.1348  0.3091
 8741SOL    HW127122   0.772   1.655   2.506  1.6479  0.0377 -0.1174
 8741SOL    HW227123   0.834   1.623   2.654 -0.1740 -0.1707  0.6347
 8742SOL     OW27124   5.885   5.469   3.054 -0.7164 -0.1601  0.6248
 8742SOL    HW127125   5.929   5.421   3.131 -0.6290  0.1001  0.7363
 8742SOL    HW227126   5.808   5.414   3.020 -0.4016 -0.5437  0.5284
 8743SOL     OW27127   2.363   5.925   1.674 -0.3419 -0.3724 -0.3059
 8743SOL    HW127128   2.271   5.962   1.688  0.4851  1.6413  0.2772
 8743SOL    HW227129   2.359   5.846   1.613 -2.2900  0.4924 -1.3784
 8744SOL     OW27130   3.086   3.569   5.300 -0.2367  0.2389  0.6346
 8744SOL    HW127131   3.149   3.513   5.354  0.7395  1.0886  0.4029
 8744SOL    HW227132   3.032   3.627   5.361 -0.1916  0.1355  0.7745
 8745SOL     OW27133   5.846   2.496   4.346 -1.0561  0.3751 -0.1174
 8745SOL    HW127134   5.891   2.583   4.365  0.8546 -0.6055  0.0121
 8745SOL    HW227135   5.801   2.500   4.257  0.2705  1.0182 -0.7814
 8746SOL     OW27136   6.264   2.383   2.926 -0.6922  0.1198  0.0483
 8746SOL    HW127137   6.210   2.459   2.890 -0.7600 -0.5212 -1.2877
 8746SOL    HW227138   6.318   2.343   2.851  0.7614  0.0201  1.1130
 8747SOL     OW27139   1.996   2.280   3.329 -0.0204 -1.2061 -0.5312
 8747SOL    HW127140   1.996   2.199   3.389 -3.1461  1.1424  3.1295
 8747SOL    HW227141   1.903   2.298   3.297  0.3348  1.4809 -0.2749
 8748SOL     OW27142   3.841   1.500   5.646 -0.1111 -0.2554 -0.1134
 8748SOL    HW127143   3.769   1.506   5.577 -0.1743 -1.5153 -0.1835
 8748SOL    HW227144   3.808   1.540   5.732 -0.1983  0.8930 -0.6554
 8749SOL     OW27145   4.621   7.008   2.868 -0.6307 -0.2415  0.4072
 8749SOL    HW127146   4.664   6.927   2.907  0.8404  0.4933  0.3768
 8749SOL    HW227147   4.533   6.982   2.827 -0.7003 -1.6004  1.3357
 8750SOL     OW27148   2.416   6.115   2.758  0.5028  0.6527 -0.2433
 8750SOL    HW127149   2.418   6.137   2.661 -0.5052 -1.3238 -0.7607
 8750SOL    HW227150   2.506   6.081   2.786  0.5032  0.2189 -0.7590
 8751SOL     OW27151   0.813   6.438   1.429 -0.4044 -0.6938  0.5364
 8751SOL    HW127152   0.777   6.349   1.456 -1.4430 -0.1447  1.0202
 8751SOL    HW227153   0.870   6.474   1.502 -0.6790 -0.5860  0.6983
 8752SOL     OW27154   4.196   1.308   6.583  0.0930  0.0093  0.0745
 8752SOL    HW127155   4.150   1.255   6.511 -0.2746  0.9672 -0.4038
 8752SOL    HW227156   4.128   1.349   6.643  0.3239  0.9437 -0.2838
 8753SOL     OW27157   5.971   1.315   6.912  0.2012 -0.0220 -0.1847
 8753SOL    HW127158   6.067   1.286   6.920  1.1852  2.1866 -2.5231
 8753SOL    HW227159   5.919   1.245   6.864  0.0381 -2.1787  2.8676
 8754SOL     OW27160   0.812   0.684   0.043  0.5765  0.1508  0.4510
 8754SOL    HW127161   0.718   0.652   0.029  0.5119  0.2491  0.6550
 8754SOL    HW227162   0.876   0.616   0.007  0.4475 -0.3543  1.1428
 8755SOL     OW27163   1.923   4.025   1.255 -0.7244 -0.1250 -0.0110
 8755SOL    HW127164   1.895   3.933   1.229  3.9831 -1.2243 -2.3642
 8755SOL    HW227165   1.926   4.033   1.354  1.0502 -3.5274  0.3655
 8756SOL     OW27166   2.687   4.764   2.213  0.2559  0.8237  0.0782
 8756SOL    HW127167   2.736   4.703   2.150  0.6460  1.8830 -0.6781
 8756SOL    HW227168   2.651   4.711   2.290  0.0951 -0.4329 -0.8430
 8757SOL     OW27169   1.983   4.753   2.724  0.0893 -0.4065  0.2089
 8757SOL    HW127170   1.990   4.848   2.757 -1.4422  1.2427 -3.6036
 8757SOL    HW227171   1.889   4.736   2.692  0.6344 -2.8374 -0.2679
 8758SOL     OW27172   3.908   1.231   6.963 -0.2075 -0.5698  0.2009
 8758SOL    HW127173   3.995   1.208   7.007  0.1697  0.8542  0.2701
 8758SOL    HW227174   3.836   1.235   7.032 -0.6521 -3.0401 -0.0305
 8759SOL     OW27175   5.642   6.688   1.191  0.5148 -0.1987 -0.2399
 8759SOL    HW127176   5.727   6.636   1.190  1.0171  0.6082 -0.6598
 8759SOL    HW227177   5.660   6.781   1.160 -0.5752 -0.0982 -0.6037
 8760SOL     OW27178   2.625   2.399   5.015 -1.0406 -0.6126 -0.2971
 8760SOL    HW127179   2.663   2.403   4.923 -1.3479  0.6878 -0.3891
 8760SOL    HW227180   2.697   2.377   5.081 -0.4321  0.2827 -0.6464
 8761SOL     OW27181   3.978   5.816   2.295  0.5777  0.0109 -0.4116
 8761SOL    HW127182   3.962   5.911   2.267  3.2240  0.8231  0.6093
 8761SOL    HW227183   4.041   5.772   2.231  2.5116  0.2352  1.2736
 8762SOL     OW27184   1.171   5.849   6.714 -0.5749  0.8125  0.2309
 8762SOL    HW127185   1.238   5.922   6.706  0.5911 -0.3039 -0.5154
 8762SOL    HW227186   1.079   5.887   6.708 -0.0198  2.3129  0.8031
 8763SOL     OW27187   5.739   0.558   1.178  0.4160 -0.0814  0.4776
 8763SOL    HW127188   5.774   0.556   1.084 -1.3790  1.7751 -0.3106
 8763SOL    HW227189   5.816   0.552   1.241  1.9271  0.8971 -1.1355
 8764SOL     OW27190   3.142   2.445   0.269 -0.5556  0.4245  0.1092
 8764SOL    HW127191   3.145   2.386   0.189 -2.1199 -0.0775  0.3864
 8764SOL    HW227192   3.233   2.451   0.310  0.0054 -0.2933 -0.9901
 8765SOL     OW27193   4.924   6.464   3.172  0.2444 -0.1206  0.0055
 8765SOL    HW127194   4.915   6.530   3.097  1.3459 -0.3416 -0.3375
 8765SOL    HW227195   5.020   6.443   3.187  0.0022 -0.5231  1.1127
 8766SOL     OW27196   0.799   5.390   6.166 -0.0644  0.3586  0.7887
 8766SOL    HW127197   0.784   5.411   6.069 -1.3983 -0.7967  0.7117
 8766SOL    HW227198   0.859   5.459   6.206 -0.2058  1.3560 -0.6395
 8767SOL     OW27199   4.457   0.877   6.003  0.4167 -0.1505 -0.7155
 8767SOL    HW127200   4.453   0.976   5.989  0.9441 -0.1438 -0.8363
 8767SOL    HW227201   4.370   0.845   6.039  0.7918  0.6119  0.9623
 8768SOL     OW27202   1.928   4.362   1.001 -0.6075 -0.5535  0.4135
 8768SOL    HW127203   1.847   4.303   0.999 -0.1857 -1.1248 -1.3404
 8768SOL    HW227204   1.985   4.344   0.921 -0.0850  1.7090  0.2001
 8769SOL     OW27205   2.374   0.034   5.278 -0.2006  0.5428 -0.1644
 8769SOL    HW127206   2.283  -0.008   5.274  0.3501 -0.8237  0.6223
 8769SOL    HW227207   2.418   0.026   5.189  0.0444 -1.0011  0.0625
 8770SOL     OW27208   6.880   2.606   1.855 -0.3231  0.4250  0.2256
 8770SOL    HW127209   6.895   2.605   1.954 -0.9970  1.0598  0.3439
 8770SOL    HW227210   6.813   2.677   1.832 -0.8367 -0.2997 -0.5856
 8771SOL     OW27211   3.836   3.347   2.846 -0.4919 -0.1667 -0.1161
 8771SOL    HW127212   3.921   3.391   2.815 -0.4434  0.4651  0.8534
 8771SOL    HW227213   3.781   3.414   2.896 -0.0450 -1.3719  2.1282
 8772SOL     OW27214   6.472   5.442   0.699  0.2945  0.1263  0.9145
 8772SOL    HW127215   6.386   5.402   0.667 -0.2938  2.3936 -0.5471
 8772SOL    HW227216   6.536   5.369   0.721 -0.7874 -1.6304 -1.3304
 8773SOL     OW27217   3.401   0.024   3.376 -0.4793  0.0494  0.5618
 8773SOL    HW127218   3.457   0.099   3.412  0.7383 -0.4046 -0.3290
 8773SOL    HW227219   3.439  -0.008   3.290 -2.7067  0.3686 -0.6161
 8774SOL     OW27220   0.303   1.317   6.979  0.1422 -0.4295  0.1434
 8774SOL    HW127221   0.390   1.354   7.011 -0.1491 -0.5992  1.1607
 8774SOL    HW227222   0.237   1.317   7.054 -0.7719 -0.2170 -0.6329
 8775SOL     OW27223   0.659   6.000   3.775 -0.2370  0.5345  0.5517
 8775SOL    HW127224   0.619   5.968   3.690  0.0239  1.7968 -0.0705
 8775SOL    HW227225   0.598   5.979   3.851  0.1195 -1.7884  0.2648
 8776SOL     OW27226   3.405   5.135   0.044  0.0078 -0.6557  0.0307
 8776SOL    HW127227   3.479   5.203   0.038  0.3481 -0.9397  0.9024
 8776SOL    HW227228   3.322   5.174   0.004  0.7687 -0.5587 -1.5706
 8777SOL     OW27229   5.347   5.779   1.965 -0.5502  0.2063  0.3364
 8777SOL    HW127230   5.382   5.832   2.043 -0.6521  0.2485  0.3538
 8777SOL    HW227231   5.360   5.832   1.881  0.2116 -0.1323  0.2267
 8778SOL     OW27232   1.397   1.414   1.944 -0.1778 -0.7149  0.5736
 8778SOL    HW127233   1.384   1.395   1.847 -0.5256  0.9587  0.2632
 8778SOL    HW227234   1.493   1.436   1.962 -0.6123  2.0097 -0.0188
 8779SOL     OW27235   0.705   5.456   0.347 -0.3774 -0.0987  0.6696
 8779SOL    HW127236   0.698   5.522   0.273  0.3529 -0.7115  0.0381
 8779SOL    HW227237   0.645   5.483   0.422 -0.2253  1.1733  0.3491
 8780SOL     OW27238   3.241   6.289   6.640 -0.2514 -0.0789 -0.0284
 8780SOL    HW127239   3.241   6.297   6.740 -1.0257 -0.8234  0.0492
 8780SOL    HW227240   3.309   6.221   6.612  0.5069  0.6936 -0.0678
 8781SOL     OW27241   6.380   1.250   2.626 -0.3211  0.5191 -0.1507
 8781SOL    HW127242   6.472   1.289   2.622 -0.6689  1.2348 -3.1196
 8781SOL    HW227243   6.321   1.310   2.680  0.3937  1.2892 -0.1980
 8782SOL     OW27244   4.379   0.787   3.512 -0.2336 -0.1346 -0.5552
 8782SOL    HW127245   4.457   0.749   3.561 -0.8574 -3.4818 -1.8747
 8782SOL    HW227246   4.409   0.817   3.421  0.1384  2.1648  0.2678
 8783SOL     OW27247   6.478   1.309   0.029  0.1867  0.1125 -0.7091
 8783SOL    HW127248   6.384   1.315  -0.006 -0.6009 -1.0226  1.0661
 8783SOL    HW227249   6.504   1.396   0.070 -0.1646  0.3649 -1.0089
 8784SOL     OW27250   4.651   5.069   5.445  0.0758 -0.8679  0.0711
 8784SOL    HW127251   4.739   5.023   5.460  0.6882 -0.7730 -2.6842
 8784SOL    HW227252   4.581   5.001   5.423 -0.0886 -0.8000  0.3814
 8785SOL     OW27253   4.524   2.978   5.895 -0.7740 -0.0387  0.3098
 8785SOL    HW127254   4.500   2.975   5.993 -2.2136 -0.2690 -0.0243
 8785SOL    HW227255   4.509   3.070   5.860 -0.4275 -0.0003  0.2606
 8786SOL     OW27256   0.475   5.758   0.933 -0.6548 -0.7032 -0.7264
 8786SOL    HW127257   0.539   5.700   0.984  1.2884  0.4153 -1.7727
 8786SOL    HW227258   0.423   5.814   0.997  0.3184 -0.7425  0.1312
 8787SOL     OW27259   0.308   4.618   0.343 -0.1918 -0.5617 -0.3190
 8787SOL    HW127260   0.306   4.690   0.412 -1.3478 -0.1444 -0.7670
 8787SOL    HW227261   0.399   4.614   0.301  0.1489  0.0108  0.3528
 8788SOL     OW27262   2.720   1.917   0.479  0.0234 -0.0095  0.1865
 8788SOL    HW127263   2.703   1.823   0.508 -1.0726  0.2695  0.4681
 8788SOL    HW227264   2.634   1.962   0.457  0.2750  1.6322  2.2070
 8789SOL     OW27265   0.767   2.459   1.064  0.0881 -0.3848 -0.2373
 8789SOL    HW127266   0.761   2.360   1.051  0.1920 -0.3115 -0.8606
 8789SOL    HW227267   0.864   2.485   1.071  0.0486 -0.3869  0.4646
 8790SOL     OW27268   5.083   1.396   1.390 -0.1758 -0.0419 -0.0072
 8790SOL    HW127269   4.989   1.364   1.376 -1.0092  0.7019  3.2030
 8790SOL    HW227270   5.104   1.467   1.323 -1.9538 -0.0869 -0.6738
 8791SOL     OW27271   4.781   6.223   4.937 -0.2891  0.2093  0.0742
 8791SOL    HW127272   4.765   6.236   4.839 -0.2288 -2.0532 -0.3059
 8791SOL    HW227273   4.761   6.128   4.961  0.0303  0.6347  2.2102
 8792SOL     OW27274   5.349   6.811   3.498 -0.3092  0.3796  0.0296
 8792SOL    HW127275   5.334   6.877   3.571  0.4939  1.7448 -0.9876
 8792SOL    HW227276   5.323   6.719   3.530 -0.3736  0.9902  1.8589
 8793SOL     OW27277   0.481   5.043   6.530  0.3281 -0.3059  0.7112
 8793SOL    HW127278   0.521   5.080   6.446 -0.4842 -0.9224  0.0412
 8793SOL    HW227279   0.462   5.118   6.594  1.5014  0.1063  0.6003
 8794SOL     OW27280   2.499   0.235   0.384 -0.1744  0.1965  0.4269
 8794SOL    HW127281   2.475   0.310   0.323 -1.2316  0.2380  0.8754
 8794SOL    HW227282   2.577   0.186   0.347 -1.0216 -0.0163 -1.1701
 8795SOL     OW27283   3.615   0.138   4.109  0.0186  0.2497 -0.3171
 8795SOL    HW127284   3.605   0.192   4.026  1.2627 -0.0124 -0.6538
 8795SOL    HW227285   3.548   0.064   4.109  1.7060 -1.4046 -2.4236
 8796SOL     OW27286   3.827   1.469   4.791 -0.2235  0.4858 -0.3209
 8796SOL    HW127287   3.828   1.526   4.874  2.3684  1.4925 -0.9332
 8796SOL    HW227288   3.798   1.377   4.814 -0.9242  1.1052  1.4342
 8797SOL     OW27289   5.567   6.303   6.721 -0.0977  0.2539  0.7875
 8797SOL    HW127290   5.557   6.363   6.642  0.6155 -0.1161  0.4118
 8797SOL    HW227291   5.547   6.208   6.694  0.1799  0.1217  1.0445
 8798SOL     OW27292   3.405   3.825   2.897  0.5361  0.0461 -0.0452
 8798SOL    HW127293   3.318   3.789   2.861  0.6247 -0.6023  0.3718
 8798SOL    HW227294   3.439   3.896   2.835 -0.2713  0.2844 -0.2339
 8799SOL     OW27295   4.264   6.329   1.504 -0.1847 -0.7411  0.2960
 8799SOL    HW127296   4.343   6.390   1.497 -0.3695 -0.1233  2.8986
 8799SOL    HW227297   4.296   6.235   1.510  0.1962 -0.7488 -1.3186
 8800SOL     OW27298   4.330   3.465   0.920  0.2815  0.1553 -0.8539
 8800SOL    HW127299   4.363   3.445   0.828 -0.5068  0.8293 -1.2982
 8800SOL    HW227300   4.346   3.386   0.979  0.6542 -0.3418 -1.6024
 8801SOL     OW27301   1.516   1.144   5.304  0.2551 -0.4717  0.1994
 8801SOL    HW127302   1.479   1.134   5.211 -0.2541  0.0885  0.3378
 8801SOL    HW227303   1.440   1.147   5.370  0.6364 -1.5461  0.7032
 8802SOL     OW27304   2.335   6.304   1.334  0.4805  0.6861 -0.1162
 8802SOL    HW127305   2.274   6.311   1.413  0.9712 -0.9240  0.4410
 8802SOL    HW227306   2.430   6.299   1.366  0.7911  1.4178 -0.8897
 8803SOL     OW27307   6.233   5.731   2.682  0.5449 -0.5178 -0.6972
 8803SOL    HW127308   6.160   5.771   2.626 -0.1393 -2.6065 -1.3729
 8803SOL    HW227309   6.306   5.698   2.623  1.3045  0.0751 -0.1179
 8804SOL     OW27310   1.425   0.963   0.885  0.1316 -0.2858  0.0414
 8804SOL    HW127311   1.366   1.008   0.952 -0.7918 -0.2298 -0.7861
 8804SOL    HW227312   1.432   0.866   0.907 -0.9956 -0.4707 -0.3296
 8805SOL     OW27313   6.657   5.584   4.071  0.0373  0.2646  0.4085
 8805SOL    HW127314   6.751   5.556   4.093 -0.1910  0.4693  1.7189
 8805SOL    HW227315   6.601   5.502   4.055  0.6901  0.1587 -1.6307
 8806SOL     OW27316   2.744   5.197   5.426 -0.0656 -0.2313 -0.2105
 8806SOL    HW127317   2.702   5.155   5.346  0.9597 -1.0192 -0.3583
 8806SOL    HW227318   2.827   5.244   5.399  0.4787 -0.8027  0.4294
 8807SOL     OW27319   1.758   6.448   6.458  0.2895 -0.5907  0.3359
 8807SOL    HW127320   1.725   6.452   6.552 -2.0584 -0.4118 -0.4472
 8807SOL    HW227321   1.783   6.539   6.427 -1.6252 -0.1573 -0.0693
 8808SOL     OW27322   5.706   3.482   2.271  0.2794  0.3469 -0.2440
 8808SOL    HW127323   5.639   3.513   2.204  0.7159  0.0044 -0.8481
 8808SOL    HW227324   5.659   3.450   2.353 -0.2831  0.3272 -0.5696
 8809SOL     OW27325   0.074   4.461   5.483  0.0097 -0.1507  0.4848
 8809SOL    HW127326  -0.004   4.517   5.459  0.8615  1.0751  0.5022
 8809SOL    HW227327   0.142   4.465   5.410 -0.6784 -2.7010 -0.4081
 8810SOL     OW27328   4.252   2.258   4.077 -0.0806 -0.5347  0.5415
 8810SOL    HW127329   4.304   2.172   4.072 -2.0204 -1.6939 -1.1741
 8810SOL    HW227330   4.156   2.239   4.059 -0.6552  1.9618  0.7200
 8811SOL     OW27331   1.453   1.318   4.043 -0.1610  0.8281 -0.3796
 8811SOL    HW127332   1.518   1.261   4.094  1.1960  1.0533 -1.7991
 8811SOL    HW227333   1.379   1.347   4.105 -0.2120 -1.3763  0.7056
 8812SOL     OW27334   2.110   1.037   1.851 -0.0575 -0.1171  0.4876
 8812SOL    HW127335   2.189   0.976   1.847  0.5181  0.6629 -1.0266
 8812SOL    HW227336   2.105   1.079   1.941  1.6357  0.2742  0.4452
 8813SOL     OW27337   1.844   5.890   0.011  0.5019 -0.3281  1.3770
 8813SOL    HW127338   1.920   5.950  -0.010  0.4993 -0.8842 -0.3492
 8813SOL    HW227339   1.873   5.795   0.005  0.2756 -0.5646  3.1904
 8814SOL     OW27340   6.336   1.614   5.033 -0.3144  0.4246 -0.0028
 8814SOL    HW127341   6.381   1.701   5.013 -1.5527  0.7975 -1.4431
 8814SOL    HW227342   6.298   1.616   5.125  2.0821  0.2847  1.0457
 8815SOL     OW27343   6.696   4.572   3.958 -0.0921  0.2105  0.2276
 8815SOL    HW127344   6.678   4.480   3.992 -0.1358  0.6297  1.3869
 8815SOL    HW227345   6.618   4.605   3.905 -0.5271 -0.0215  0.7155
 8816SOL     OW27346   0.462   4.054   1.995  0.2747  1.0899 -0.0529
 8816SOL    HW127347   0.555   4.023   2.013 -0.3322 -3.4804 -3.0081
 8816SOL    HW227348   0.397   3.983   2.023 -1.8971  2.1487 -2.0322
 8817SOL     OW27349   1.763   5.229   6.299  0.0161 -0.4302 -0.1374
 8817SOL    HW127350   1.817   5.311   6.318 -0.5868 -0.1664  0.5027
 8817SOL    HW227351   1.714   5.201   6.382 -3.4150  1.2709 -1.3840
 8818SOL     OW27352   5.667   6.341   5.170  0.3706  0.2861  0.3556
 8818SOL    HW127353   5.749   6.284   5.163  0.2526  0.1386  0.1781
 8818SOL    HW227354   5.587   6.284   5.183  0.2887  0.4276  0.4686
 8819SOL     OW27355   6.691   2.078   3.077 -0.4052 -0.3737 -0.4418
 8819SOL    HW127356   6.657   2.055   3.168 -0.8876 -2.5749 -1.1231
 8819SOL    HW227357   6.679   2.000   3.016  0.4048  0.8630 -2.2752
 8820SOL     OW27358   1.319   2.120   5.724  0.1404  0.4493  0.1296
 8820SOL    HW127359   1.380   2.171   5.663 -0.0987  0.2554 -0.2779
 8820SOL    HW227360   1.326   2.156   5.817  0.0577  1.1516 -0.1295
 8821SOL     OW27361   1.369   1.035   5.765  0.1195  0.3522 -0.6827
 8821SOL    HW127362   1.304   1.068   5.696  0.4469  0.6477 -0.8560
 8821SOL    HW227363   1.457   1.082   5.753  0.1788  0.4137 -0.0574
 8822SOL     OW27364   2.542   0.995   3.786  0.4027  0.0473  0.1757
 8822SOL    HW127365   2.483   1.039   3.718 -0.5739 -0.5965  0.5861
 8822SOL    HW227366   2.624   0.959   3.741 -0.7108 -1.2879 -0.8665
 8823SOL     OW27367   2.040   6.112   5.952  0.4294  0.3519 -0.6918
 8823SOL    HW127368   1.991   6.029   5.923 -1.3123  1.2368 -0.4119
 8823SOL    HW227369   2.060   6.106   6.050  0.7892  0.0576 -0.7763
 8824SOL     OW27370   5.032   4.817   3.168 -0.1360  0.4545  0.0385
 8824SOL    HW127371   5.120   4.816   3.215 -0.8292 -0.4136  1.3646
 8824SOL    HW227372   5.041   4.769   3.081  1.0882  1.8342 -0.6624
 8825SOL     OW27373   3.437   3.730   6.714 -0.7952  0.3120 -0.1576
 8825SOL    HW127374   3.453   3.763   6.621  0.0823 -2.8330 -1.2651
 8825SOL    HW227375   3.347   3.687   6.719 -0.6301  0.0058  0.2717
 8826SOL     OW27376   4.950   6.305   0.681 -0.1606 -0.1835  0.6699
 8826SOL    HW127377   5.007   6.368   0.733 -0.8371  1.1214 -0.1101
 8826SOL    HW227378   5.002   6.272   0.602  0.9243 -2.2927  2.1610
 8827SOL     OW27379   5.182   1.810   4.548  1.2636 -0.4438 -0.0179
 8827SOL    HW127380   5.218   1.794   4.640 -0.6127  1.3631  1.1271
 8827SOL    HW227381   5.240   1.876   4.500  0.7793  0.7953  1.0066
 8828SOL     OW27382   1.011   5.549   3.262 -0.1118  0.0391  0.2981
 8828SOL    HW127383   0.947   5.508   3.197 -0.4858  1.6691 -0.4006
 8828SOL    HW227384   1.104   5.539   3.228 -0.4029  2.1889 -1.3032
 8829SOL     OW27385   7.006   1.383   0.766 -0.1244  0.2346  0.1981
 8829SOL    HW127386   6.945   1.352   0.838  1.1070  1.7072  1.9628
 8829SOL    HW227387   6.981   1.476   0.739  0.2814  0.2022 -0.3166
 8830SOL     OW27388   0.959   6.723   2.069 -0.1218 -0.0228 -0.4503
 8830SOL    HW127389   0.887   6.659   2.097 -1.0753  1.0417 -0.3553
 8830SOL    HW227390   0.919   6.815   2.062  1.3214  0.6573 -0.0530
 8831SOL     OW27391   6.777   1.005   1.683 -0.2031  0.2920 -0.0806
 8831SOL    HW127392   6.693   0.962   1.718  0.5069  0.1434  1.5315
 8831SOL    HW227393   6.768   1.020   1.585 -0.9090 -2.6145 -0.5763
 8832SOL     OW27394   5.938   0.265   1.660 -0.2266  0.3549 -0.2196
 8832SOL    HW127395   5.867   0.323   1.619  0.6900  1.8373  0.1828
 8832SOL    HW227396   5.981   0.314   1.736  1.0222 -0.6168 -0.2647
 8833SOL     OW27397   6.070   0.430   5.228 -0.1584 -0.5302 -0.1797
 8833SOL    HW127398   6.148   0.447   5.167  1.2748 -1.4458  1.3095
 8833SOL    HW227399   6.030   0.517   5.255  0.8643  0.0075 -0.3373
 8834SOL     OW27400   4.693   4.727   3.444 -0.7175  0.1162 -0.2148
 8834SOL    HW127401   4.757   4.789   3.399 -0.3708 -1.2864 -1.7606
 8834SOL    HW227402   4.744   4.657   3.494 -1.0976  0.8035  1.1687
 8835SOL     OW27403   0.944   3.050   0.237 -0.1526  0.4039  0.5366
 8835SOL    HW127404   1.034   3.015   0.211 -1.7946 -2.2877 -2.0923
 8835SOL    HW227405   0.918   3.010   0.325  0.3371 -0.5525  0.2636
 8836SOL     OW27406   4.138   3.000   6.541 -0.0325  0.0567 -0.2860
 8836SOL    HW127407   4.238   3.000   6.551 -0.0816 -0.1182  0.2365
 8836SOL    HW227408   4.106   2.906   6.533 -0.1898  0.0885 -0.0510
 8837SOL     OW27409   0.499   3.059   3.614 -0.1291 -0.1674  0.2310
 8837SOL    HW127410   0.482   3.031   3.519  0.6057  1.2426 -0.3459
 8837SOL    HW227411   0.414   3.094   3.654  0.0836  1.6961 -0.8148
 8838SOL     OW27412   2.284   0.989   3.929 -0.2950  0.0479  0.6344
 8838SOL    HW127413   2.338   1.030   4.002  1.9240  0.6957 -1.2600
 8838SOL    HW227414   2.314   1.025   3.841 -2.2474 -1.3875 -0.7050
 8839SOL     OW27415   5.315   5.927   5.099 -0.0503 -0.2673  0.5647
 8839SOL    HW127416   5.316   5.944   5.198 -0.8633  0.9615  0.3860
 8839SOL    HW227417   5.403   5.952   5.060 -0.5260  1.7054  0.6366
 8840SOL     OW27418   4.245   5.050   3.422  0.0818  0.1408  0.2326
 8840SOL    HW127419   4.171   5.044   3.489 -0.2136  0.1201 -0.0925
 8840SOL    HW227420   4.288   4.961   3.411 -0.2553  0.0108 -0.0383
 8841SOL     OW27421   2.424   1.877   3.735 -0.2570  0.5250 -0.6142
 8841SOL    HW127422   2.369   1.915   3.661 -1.9060 -2.5936 -1.1533
 8841SOL    HW227423   2.504   1.830   3.698 -0.3878  0.0559 -0.3141
 8842SOL     OW27424   0.604   0.148   1.508 -0.3175  0.6568 -0.1432
 8842SOL    HW127425   0.582   0.121   1.602 -0.9274  0.4857 -0.3321
 8842SOL    HW227426   0.698   0.121   1.486 -0.4940 -0.1742  0.0911
 8843SOL     OW27427   0.266   1.342   4.164  0.7182 -0.0763 -0.0836
 8843SOL    HW127428   0.336   1.358   4.094 -0.1351  1.3150 -0.6668
 8843SOL    HW227429   0.188   1.296   4.122  0.8009 -0.5456  0.2845
 8844SOL     OW27430   6.978   1.116   1.910  0.5411  0.4890  0.5188
 8844SOL    HW127431   6.948   1.129   2.005 -1.1128 -0.9994  0.2453
 8844SOL    HW227432   6.926   1.042   1.868  2.1236  0.2648 -1.1906
 8845SOL     OW27433   4.720   3.312   6.738  0.9183  0.2862  0.0108
 8845SOL    HW127434   4.697   3.405   6.765 -1.1641 -0.5457  1.3236
 8845SOL    HW227435   4.639   3.254   6.743  2.3309 -1.8094  0.0946
 8846SOL     OW27436   3.548   5.066   3.580 -0.5489  0.0991 -0.5148
 8846SOL    HW127437   3.562   5.165   3.574  0.6215 -0.0835 -1.3020
 8846SOL    HW227438   3.530   5.040   3.675 -0.0294  0.9737 -0.1663
 8847SOL     OW27439   2.395   1.133   5.097  0.1683 -0.2692  0.3680
 8847SOL    HW127440   2.307   1.173   5.069 -1.2077 -1.5419  2.5383
 8847SOL    HW227441   2.438   1.193   5.164  0.7378  0.0909 -0.3024
 8848SOL     OW27442   1.139   0.694   4.066  0.6405 -0.2332  0.3257
 8848SOL    HW127443   1.197   0.719   3.989 -0.8100 -0.6682 -0.9670
 8848SOL    HW227444   1.092   0.775   4.101  1.6700  0.0487  1.1085
 8849SOL     OW27445   2.843   5.699   2.803  0.1257 -0.7724 -0.0880
 8849SOL    HW127446   2.907   5.774   2.790 -1.7297  1.0491  0.8693
 8849SOL    HW227447   2.797   5.679   2.717 -1.9473  1.6827  0.3677
 8850SOL     OW27448   4.000   1.987   0.034 -0.2749  0.3054  0.3389
 8850SOL    HW127449   3.932   1.916   0.014 -0.4029  0.4566  0.2455
 8850SOL    HW227450   4.092   1.948   0.025 -0.3447  0.1629  0.2422
 8851SOL     OW27451   2.283   4.800   0.289  0.2892 -0.0762  0.1503
 8851SOL    HW127452   2.369   4.825   0.245  0.5766 -0.8338  0.2715
 8851SOL    HW227453   2.300   4.732   0.361 -0.6155 -1.6620 -1.0586
 8852SOL     OW27454   6.144   2.174   0.006  0.4814  0.5227 -0.0176
 8852SOL    HW127455   6.104   2.096   0.053 -1.4733  0.9238 -0.8710
 8852SOL    HW227456   6.073   2.243  -0.009  2.0619  2.2945  0.3553
 8853SOL     OW27457   6.009   6.526   3.369 -0.1507  0.1956  0.2285
 8853SOL    HW127458   5.957   6.549   3.451 -0.6548  0.8754 -0.2737
 8853SOL    HW227459   5.947   6.520   3.290  0.4885  0.7434 -0.3282
 8854SOL     OW27460   6.118   5.477   5.186 -0.4690 -0.1665  0.5411
 8854SOL    HW127461   6.074   5.476   5.275 -0.7702 -0.6222  0.3883
 8854SOL    HW227462   6.158   5.568   5.169 -1.2064  0.2010  0.7458
 8855SOL     OW27463   5.989   5.842   3.190  0.4769 -0.4859 -0.3988
 8855SOL    HW127464   6.082   5.827   3.225  0.4052 -1.2172 -0.5233
 8855SOL    HW227465   5.959   5.762   3.139  0.4215  0.3982 -1.8143
 8856SOL     OW27466   5.822   1.070   5.278  0.1829 -0.1057 -0.5796
 8856SOL    HW127467   5.744   1.019   5.315 -0.7475  0.7189 -1.3499
 8856SOL    HW227468   5.849   1.031   5.190 -0.1052  0.3040 -0.8541
 8857SOL     OW27469   0.167   1.935   0.474 -0.9116  0.4990  0.1225
 8857SOL    HW127470   0.203   2.019   0.515 -1.7710 -0.0708  2.1669
 8857SOL    HW227471   0.220   1.857   0.506 -1.3055  0.0655 -0.2685
 8858SOL     OW27472   1.251   3.923   5.680  0.5237  0.0335 -0.2911
 8858SOL    HW127473   1.273   3.981   5.602  0.5306  0.7997  0.2709
 8858SOL    HW227474   1.166   3.873   5.661  0.6237  0.0706 -0.8575
 8859SOL     OW27475   0.492   4.337   3.169 -0.3279 -0.7362  0.5594
 8859SOL    HW127476   0.417   4.288   3.214 -0.8235 -1.3069 -0.8245
 8859SOL    HW227477   0.578   4.319   3.218 -1.1038  0.1241  2.3071
 8860SOL     OW27478   0.802   1.904   2.989 -0.1385 -0.5102 -0.0119
 8860SOL    HW127479   0.852   1.979   3.032  0.1207 -1.3010  1.1136
 8860SOL    HW227480   0.744   1.860   3.057  1.2395 -2.6124 -0.1063
 8861SOL     OW27481   4.813   1.936   6.066  0.3016 -0.1425 -0.5302
 8861SOL    HW127482   4.749   1.861   6.082  0.4824 -0.1137  0.3817
 8861SOL    HW227483   4.865   1.919   5.982  1.5870 -1.9120  0.5594
 8862SOL     OW27484   4.809   4.585   3.658 -0.3214 -0.0932 -0.3024
 8862SOL    HW127485   4.753   4.618   3.734 -0.4805  1.3705 -1.0118
 8862SOL    HW227486   4.905   4.581   3.686 -0.5327 -0.8486  0.3600
 8863SOL     OW27487   2.167   3.848   2.465 -0.3369  0.4413  0.2296
 8863SOL    HW127488   2.173   3.784   2.389  0.2854  0.5682  0.1685
 8863SOL    HW227489   2.156   3.798   2.551 -2.6565  0.3183 -0.0582
 8864SOL     OW27490   0.944   0.873   2.696  0.3270  0.0130  0.4977
 8864SOL    HW127491   0.906   0.965   2.693 -0.0459  0.0403  3.2477
 8864SOL    HW227492   0.881   0.813   2.746  0.7834 -1.6621 -0.8264
 8865SOL     OW27493   2.644   1.770   1.471  0.1605 -0.1609 -0.1693
 8865SOL    HW127494   2.712   1.841   1.491  1.0415 -0.0572 -3.1297
 8865SOL    HW227495   2.690   1.686   1.445 -0.6631  0.2619 -3.4809
 8866SOL     OW27496   6.526   0.194   2.524  0.0357 -0.3102 -0.0129
 8866SOL    HW127497   6.609   0.223   2.572 -0.7708  0.7085  0.8224
 8866SOL    HW227498   6.447   0.243   2.562 -1.0104 -1.5781 -0.4856
 8867SOL     OW27499   4.700   2.297   2.654 -0.0364  0.3286 -0.0192
 8867SOL    HW127500   4.635   2.346   2.596 -0.8856 -1.4576 -0.6529
 8867SOL    HW227501   4.769   2.361   2.688 -1.9700  2.2650  0.5297
 8868SOL     OW27502   0.877   2.722   4.679  0.1743  0.2397  0.6080
 8868SOL    HW127503   0.877   2.719   4.579 -2.6148 -0.2284  0.5406
 8868SOL    HW227504   0.867   2.817   4.708  0.2097  0.3055  0.4117
 8869SOL     OW27505   2.819   5.672   3.226  0.9640  0.7057 -0.1497
 8869SOL    HW127506   2.888   5.730   3.182  0.0300 -1.3465 -5.0220
 8869SOL    HW227507   2.860   5.584   3.250  1.0781  1.2453  1.7850
 8870SOL     OW27508   1.329   0.577   2.627  0.3147  0.6341 -0.1998
 8870SOL    HW127509   1.405   0.641   2.615 -0.4459  1.0790 -3.5660
 8870SOL    HW227510   1.242   0.625   2.618 -0.3265 -0.4664 -0.1586
 8871SOL     OW27511   5.458   6.059   5.523 -0.0164  0.1276 -0.1984
 8871SOL    HW127512   5.431   6.054   5.619  0.9009 -0.3207  0.0533
 8871SOL    HW227513   5.533   6.125   5.512 -0.4722  0.5739 -0.6981
 8872SOL     OW27514   1.086   6.301   3.968  0.5487  0.0401  0.1857
 8872SOL    HW127515   1.162   6.237   3.954  0.7967  0.4286 -0.2909
 8872SOL    HW227516   1.001   6.250   3.980 -0.1744 -0.4781 -4.9590
 8873SOL     OW27517   1.804   1.188   3.723 -0.2794  0.1133 -0.8159
 8873SOL    HW127518   1.752   1.272   3.731 -1.2848 -0.5816  0.3716
 8873SOL    HW227519   1.890   1.197   3.774  1.0075  1.3754 -3.0486
 8874SOL     OW27520   3.559   1.800   6.861 -0.4788 -0.2408  0.2083
 8874SOL    HW127521   3.529   1.895   6.868 -0.9139 -0.3904  0.4342
 8874SOL    HW227522   3.608   1.787   6.775  1.1210  0.6013  0.9319
 8875SOL     OW27523   0.523   2.382   5.156  0.8151  0.1355  0.0081
 8875SOL    HW127524   0.620   2.373   5.177  1.0186  1.3097 -0.3626
 8875SOL    HW227525   0.499   2.478   5.147 -0.4815 -0.1230  0.4880
 8876SOL     OW27526   4.577   0.013   0.877 -0.8532  0.0755 -0.5389
 8876SOL    HW127527   4.649   0.031   0.811 -0.5089 -0.7322 -0.3881
 8876SOL    HW227528   4.617  -0.008   0.966 -1.1834 -2.2388 -0.8910
 8877SOL     OW27529   1.242   4.628   3.299 -0.5905 -0.5775  0.4775
 8877SOL    HW127530   1.329   4.579   3.289 -0.3264  0.1601 -1.1243
 8877SOL    HW227531   1.253   4.723   3.271 -1.8357 -0.3624  0.6359
 8878SOL     OW27532   5.211   3.662   3.403 -0.2171 -0.6022  0.1159
 8878SOL    HW127533   5.242   3.589   3.341  2.2180 -0.8515  1.4985
 8878SOL    HW227534   5.201   3.747   3.352 -0.8750 -1.3846 -1.1026
 8879SOL     OW27535   0.608   1.956   3.546 -0.3964 -0.2537  0.1593
 8879SOL    HW127536   0.703   1.986   3.547 -0.0057 -1.3591 -0.9542
 8879SOL    HW227537   0.559   2.001   3.471 -0.2161 -1.1955 -0.5313
 8880SOL     OW27538   3.997   1.824   4.790 -0.3046  0.0042 -0.2953
 8880SOL    HW127539   4.050   1.877   4.724 -1.6750  1.9116  0.0580
 8880SOL    HW227540   3.979   1.880   4.871  0.3474 -1.9021  1.2427
 8881SOL     OW27541   3.592   5.855   1.579  0.0783 -0.0122 -0.0431
 8881SOL    HW127542   3.675   5.885   1.626  1.3401 -2.2142 -0.7132
 8881SOL    HW227543   3.533   5.933   1.563  1.6574  1.5141  1.1440
 8882SOL     OW27544   3.211   2.230   0.047 -0.0360  0.2288 -0.1667
 8882SOL    HW127545   3.225   2.221  -0.051  1.5193 -1.3538  0.1543
 8882SOL    HW227546   3.233   2.143   0.092  0.4090  1.2531  1.7075
 8883SOL     OW27547   1.042   6.573   3.432 -0.3758  0.5542 -0.3945
 8883SOL    HW127548   1.023   6.608   3.340 -1.6799 -0.4616 -0.5385
 8883SOL    HW227549   1.033   6.474   3.432 -0.1405  0.5248  0.7810
 8884SOL     OW27550   3.469   2.164   6.625 -0.4245 -0.1683  0.3219
 8884SOL    HW127551   3.462   2.263   6.641 -2.6476 -0.3125  0.5887
 8884SOL    HW227552   3.466   2.146   6.527  1.7118  0.0798  0.1671
 8885SOL     OW27553   5.901   5.104   0.752  0.0092 -0.5150  0.6408
 8885SOL    HW127554   5.974   5.126   0.818  1.0560 -0.8740 -0.3643
 8885SOL    HW227555   5.896   5.176   0.683  2.1226 -2.2629 -1.5371
 8886SOL     OW27556   4.180   5.853   1.879 -0.5514 -0.1162  0.0617
 8886SOL    HW127557   4.219   5.933   1.833 -0.5457 -0.4632 -0.5515
 8886SOL    HW227558   4.136   5.794   1.812 -0.3813 -0.7312  0.4799
 8887SOL     OW27559   4.667   5.381   2.554 -0.0683 -0.0044  0.1209
 8887SOL    HW127560   4.581   5.337   2.579  0.1503  0.1387  1.2175
 8887SOL    HW227561   4.650   5.453   2.487 -1.1066  1.2184  1.6001
 8888SOL     OW27562   3.559   0.317   2.648 -0.0622  0.0808 -0.3926
 8888SOL    HW127563   3.460   0.303   2.638 -0.0781 -0.7388  0.7559
 8888SOL    HW227564   3.575   0.407   2.689 -0.3655 -0.0791  0.0826
 8889SOL     OW27565   1.705   5.676   6.322 -0.6495  0.1978  0.0149
 8889SOL    HW127566   1.705   5.687   6.421 -1.9446 -0.5819  0.1199
 8889SOL    HW227567   1.636   5.609   6.295 -0.0036  0.0500 -1.3857
 8890SOL     OW27568   3.001   5.887   6.715  0.0933 -0.6622 -0.2786
 8890SOL    HW127569   3.064   5.921   6.646 -0.1763 -0.7491 -0.5694
 8890SOL    HW227570   3.047   5.885   6.804 -0.0305  0.9324 -0.1454
 8891SOL     OW27571   4.845   4.195   6.629 -0.0225  0.1030  0.0646
 8891SOL    HW127572   4.831   4.275   6.687 -2.2596 -0.7501  0.8163
 8891SOL    HW227573   4.804   4.211   6.539  1.0004  0.3873 -0.3671
 8892SOL     OW27574   2.844   5.653   4.575  0.0755 -0.2078  0.5549
 8892SOL    HW127575   2.935   5.675   4.610  0.0303  0.4260  0.2740
 8892SOL    HW227576   2.792   5.737   4.561  0.2407 -0.3803 -1.4553
 8893SOL     OW27577   1.955   4.851   5.290 -0.1184 -0.5979 -0.2716
 8893SOL    HW127578   1.881   4.796   5.253 -0.2686 -0.0106 -0.8571
 8893SOL    HW227579   1.944   4.860   5.389 -0.9034 -0.3981 -0.3727
 8894SOL     OW27580   5.885   1.569   1.959 -0.3802  0.1505 -0.0088
 8894SOL    HW127581   5.949   1.494   1.974 -1.5701 -0.8444  0.1552
 8894SOL    HW227582   5.793   1.541   1.982 -0.9782  1.4114 -0.7158
 8895SOL     OW27583   0.701   4.052   2.624 -0.4641 -0.1384 -0.0529
 8895SOL    HW127584   0.602   4.053   2.611 -0.6618  0.7048  1.3375
 8895SOL    HW227585   0.746   4.097   2.546 -1.1924 -0.2714 -0.5504
 8896SOL     OW27586   1.236   2.302   5.176  0.5773  0.0850 -0.3293
 8896SOL    HW127587   1.212   2.280   5.081  1.4732  0.0349 -0.5577
 8896SOL    HW227588   1.335   2.318   5.182  0.3437  1.4130  0.3428
 8897SOL     OW27589   3.083   4.991   4.167  0.5361  0.0234 -0.1342
 8897SOL    HW127590   3.052   4.930   4.240  0.4615  0.7541  0.4704
 8897SOL    HW227591   3.099   5.082   4.206 -0.3332  0.6468 -1.1905
 8898SOL     OW27592   5.963   2.248   2.257 -0.3205 -0.1557  0.4100
 8898SOL    HW127593   5.884   2.205   2.214 -0.8825 -0.6416  1.8932
 8898SOL    HW227594   5.964   2.228   2.355  1.2568  0.4317  0.5485
 8899SOL     OW27595   1.564   6.336   1.494  0.4786  0.1033 -0.4636
 8899SOL    HW127596   1.483   6.295   1.453  0.0701 -0.6034  1.0032
 8899SOL    HW227597   1.595   6.412   1.437  0.3079 -1.2175 -2.3767
 8900SOL     OW27598   2.405   2.001   5.272  0.4092  0.1017 -0.1350
 8900SOL    HW127599   2.338   2.065   5.308  0.9195  0.2146  0.6624
 8900SOL    HW227600   2.477   1.987   5.341  0.6328 -0.8359 -0.5481
 8901SOL     OW27601   0.812   6.178   6.233  0.3631  0.3573 -0.4635
 8901SOL    HW127602   0.720   6.178   6.271  0.0323  1.0790 -1.2204
 8901SOL    HW227603   0.823   6.103   6.168  0.3817  0.1352 -0.2013
 8902SOL     OW27604   1.214   2.995   0.192  0.2560  0.8722  0.7679
 8902SOL    HW127605   1.262   3.083   0.192  1.6100  0.1761 -0.5147
 8902SOL    HW227606   1.241   2.942   0.112 -1.0499 -0.4560  1.1602
 8903SOL     OW27607   0.362   2.230   4.404  0.5465  0.2774  0.0297
 8903SOL    HW127608   0.271   2.195   4.424  0.6533 -0.0410 -0.0419
 8903SOL    HW227609   0.416   2.159   4.358 -0.1728  1.3963 -2.7697
 8904SOL     OW27610   5.830   3.051   2.318 -0.3583 -0.3908  0.2437
 8904SOL    HW127611   5.835   3.127   2.252 -1.4978  1.4551  2.1625
 8904SOL    HW227612   5.735   3.022   2.327 -0.5086  0.5629  2.2487
 8905SOL     OW27613   0.990   6.047   6.470  0.2844 -0.1408  0.6191
 8905SOL    HW127614   0.919   6.089   6.414  0.9295  0.0494 -0.0682
 8905SOL    HW227615   1.024   6.113   6.537  1.7086  0.6605 -0.8446
 8906SOL     OW27616   6.902   1.156   0.272  0.2200 -0.5751  0.3034
 8906SOL    HW127617   6.859   1.068   0.257 -1.6386  0.0355  1.6476
 8906SOL    HW227618   6.839   1.229   0.247  1.1477  0.3777  0.6579
 8907SOL     OW27619   1.327   2.460   0.424 -1.0506  0.2492 -0.0593
 8907SOL    HW127620   1.361   2.554   0.414 -0.1207 -0.0713 -0.0147
 8907SOL    HW227621   1.259   2.456   0.496 -0.7643  0.8141  0.2464
 8908SOL     OW27622   1.888   6.740   4.816 -0.5578  0.1824 -0.5917
 8908SOL    HW127623   1.899   6.756   4.718  1.1115 -0.7962 -0.6125
 8908SOL    HW227624   1.938   6.657   4.841 -1.2493  0.2284  1.0392
 8909SOL     OW27625   1.382   5.441   1.609 -0.7630 -1.1997  0.3339
 8909SOL    HW127626   1.428   5.513   1.661  0.4915 -3.2807  2.2918
 8909SOL    HW227627   1.446   5.403   1.542 -1.5410 -0.3242 -0.9576
 8910SOL     OW27628   1.841   2.615   4.882 -0.0512 -0.1297 -0.4652
 8910SOL    HW127629   1.932   2.648   4.859 -0.3626  0.9028 -0.2697
 8910SOL    HW227630   1.801   2.569   4.803  2.0060 -3.9223  0.4502
 8911SOL     OW27631   5.561   0.869   4.690 -0.5032  0.5513  0.4069
 8911SOL    HW127632   5.659   0.890   4.691  0.0770 -1.9016  1.0245
 8911SOL    HW227633   5.532   0.842   4.781 -0.6406 -3.1289 -0.5870
 8912SOL     OW27634   3.776   4.083   2.786  0.0743  0.2751 -0.3963
 8912SOL    HW127635   3.838   4.122   2.717 -0.7764  0.3274 -1.1639
 8912SOL    HW227636   3.784   3.984   2.787  0.6473  0.3249 -0.0202
 8913SOL     OW27637   3.290   6.662   0.150 -0.3094 -0.0801 -0.4199
 8913SOL    HW127638   3.237   6.577   0.154  1.1692 -0.9579  2.3097
 8913SOL    HW227639   3.237   6.736   0.191 -0.4795 -0.3329 -0.1789
 8914SOL     OW27640   5.319   4.567   4.198  0.3416 -0.2075  0.5567
 8914SOL    HW127641   5.382   4.494   4.225  3.0738  1.4164 -0.9254
 8914SOL    HW227642   5.306   4.565   4.099 -2.7275 -0.9758  0.8788
 8915SOL     OW27643   2.987   1.935   4.533 -0.4742 -0.7461  0.2591
 8915SOL    HW127644   2.995   2.031   4.507 -1.1259 -0.6828  0.2789
 8915SOL    HW227645   3.058   1.912   4.599 -0.9208 -0.0137  1.0158
 8916SOL     OW27646   1.438   6.471   2.776  0.3485  0.3547  0.3688
 8916SOL    HW127647   1.367   6.540   2.759  2.9088  2.8206 -1.2453
 8916SOL    HW227648   1.464   6.473   2.872 -1.1448 -0.0148  0.8079
 8917SOL     OW27649   4.598   3.577   0.672  0.1381 -1.1697  1.0079
 8917SOL    HW127650   4.549   3.502   0.715  2.1707 -3.2210 -0.0282
 8917SOL    HW227651   4.676   3.541   0.621  0.4976  1.5513 -0.5850
 8918SOL     OW27652   0.892   1.676   3.741 -0.1198  0.3110 -0.7481
 8918SOL    HW127653   0.903   1.691   3.643  0.4684 -0.3120 -0.7874
 8918SOL    HW227654   0.915   1.760   3.791 -1.3728  0.9329 -1.1823
 8919SOL     OW27655   5.935   6.888   1.072  0.3803  0.1843 -0.0205
 8919SOL    HW127656   6.030   6.920   1.076  0.2666  0.3576  2.5562
 8919SOL    HW227657   5.875   6.955   1.115 -0.9013 -0.1384 -1.2145
 8920SOL     OW27658   2.972   0.836   0.257  0.4388  0.7441  0.2867
 8920SOL    HW127659   2.957   0.808   0.351  2.3291 -0.9439  0.1404
 8920SOL    HW227660   3.027   0.919   0.254 -0.7446  1.5674  0.6480
 8921SOL     OW27661   3.211   0.447   2.192 -0.3373 -0.3493  0.3958
 8921SOL    HW127662   3.215   0.542   2.223 -4.0885  0.1535 -0.2890
 8921SOL    HW227663   3.294   0.399   2.223  1.8174  3.1115  0.5434
 8922SOL     OW27664   4.577   5.725   2.580 -0.2214 -0.5348 -0.6633
 8922SOL    HW127665   4.622   5.684   2.500  0.0719  1.2152 -1.4445
 8922SOL    HW227666   4.568   5.823   2.566 -0.8312 -0.2957  1.1715
 8923SOL     OW27667   2.968   1.665   4.379  0.5109 -0.2059  0.1981
 8923SOL    HW127668   2.961   1.761   4.405  0.2949  0.3909 -1.8807
 8923SOL    HW227669   3.042   1.622   4.431  0.1693  0.8777  1.6569
 8924SOL     OW27670   0.771   4.099   4.311  0.4597 -0.7539  0.2689
 8924SOL    HW127671   0.778   4.027   4.379 -1.4459 -1.6004 -0.3407
 8924SOL    HW227672   0.805   4.065   4.223 -1.0133 -1.1837 -0.1676
 8925SOL     OW27673   0.474   6.330   4.824  0.0442 -0.0203  0.2036
 8925SOL    HW127674   0.438   6.253   4.772 -2.7332  1.2417  0.1034
 8925SOL    HW227675   0.517   6.396   4.762  0.0360 -0.2263 -0.0201
 8926SOL     OW27676   5.830   2.285   5.184  0.6708 -0.5463 -0.0738
 8926SOL    HW127677   5.848   2.383   5.182 -0.0027 -0.4217 -0.2338
 8926SOL    HW227678   5.916   2.235   5.183  1.0254  0.0489  0.3075
 8927SOL     OW27679   0.503   0.587   5.603 -0.6206  0.1477 -0.3712
 8927SOL    HW127680   0.530   0.652   5.674 -1.3085 -0.1699  0.1842
 8927SOL    HW227681   0.562   0.506   5.608  0.0353  0.5859 -0.8664
 8928SOL     OW27682   5.921   5.631   4.607  0.3476  0.3313 -0.2151
 8928SOL    HW127683   5.974   5.547   4.617  0.7335  0.4170 -1.3044
 8928SOL    HW227684   5.983   5.706   4.581 -0.1255  0.7341 -0.2019
 8929SOL     OW27685   0.487   1.341   3.967 -0.2313  0.1642  0.6377
 8929SOL    HW127686   0.579   1.380   3.970 -0.6968  1.4007 -0.3448
 8929SOL    HW227687   0.486   1.261   3.907  0.1296  0.3321  0.4098
 8930SOL     OW27688   1.221   4.992   3.808 -0.2219 -0.0181 -0.6046
 8930SOL    HW127689   1.212   4.906   3.859 -0.8205 -0.0801 -0.8020
 8930SOL    HW227690   1.200   5.068   3.869 -0.8501 -0.0872 -0.7212
 8931SOL     OW27691   5.618   4.113   5.929  0.0069  0.2069  0.3448
 8931SOL    HW127692   5.601   4.206   5.896  0.2858  0.5260  1.0683
 8931SOL    HW227693   5.668   4.062   5.860  0.2620  0.7407  0.1252
 8932SOL     OW27694   1.411   2.126   2.839 -0.0816  0.6281 -0.2002
 8932SOL    HW127695   1.351   2.046   2.840  1.0390 -0.2343  0.1704
 8932SOL    HW227696   1.436   2.148   2.745  0.9049 -0.4975 -0.2304
 8933SOL     OW27697   3.205   2.721   5.292  0.5111  0.2593  0.1424
 8933SOL    HW127698   3.226   2.641   5.235 -3.0015  0.5348 -1.8034
 8933SOL    HW227699   3.194   2.801   5.233  0.0711  1.3225  1.6236
 8934SOL     OW27700   0.932   6.601   0.818  0.3923 -0.1065 -0.3128
 8934SOL    HW127701   0.919   6.653   0.902  0.0676 -0.7143  0.0214
 8934SOL    HW227702   0.891   6.650   0.741  1.9381  1.1536 -0.3870
 8935SOL     OW27703   6.927   6.288   2.372 -0.0543  0.4142  0.5455
 8935SOL    HW127704   6.919   6.191   2.396  0.6272  0.4283  0.8669
 8935SOL    HW227705   6.849   6.315   2.316 -0.9734  0.0146  1.5814
 8936SOL     OW27706   4.186   3.780   0.332  0.0178  0.1294  0.5347
 8936SOL    HW127707   4.122   3.833   0.276 -0.2533 -2.3631 -1.7766
 8936SOL    HW227708   4.280   3.798   0.302  0.2512  1.7342  2.0697
 8937SOL     OW27709   0.336   1.721   6.051 -0.3628 -0.4316  0.0133
 8937SOL    HW127710   0.377   1.730   5.960  1.9134  1.8238  1.1348
 8937SOL    HW227711   0.393   1.660   6.107 -0.2699  0.2643  0.6830
 8938SOL     OW27712   6.016   5.371   3.270 -0.8610  0.7070  0.3553
 8938SOL    HW127713   6.022   5.436   3.345  0.3914  1.5021 -0.3945
 8938SOL    HW227714   6.051   5.282   3.299  0.3997  1.2333  0.4889
 8939SOL     OW27715   6.091   1.877   5.106  0.0728  0.0659  0.2185
 8939SOL    HW127716   6.006   1.853   5.153 -0.0461 -0.0276 -0.0420
 8939SOL    HW227717   6.110   1.809   5.035 -0.6075  1.0850 -0.9592
 8940SOL     OW27718   5.750   5.030   2.097 -0.0351  0.3753  0.3283
 8940SOL    HW127719   5.785   4.997   2.010 -0.8760  1.1718 -0.3307
 8940SOL    HW227720   5.825   5.037   2.163  1.0900  2.0885 -1.0453
 8941SOL     OW27721   4.118   2.439   0.260  0.3699  0.3450  0.2894
 8941SOL    HW127722   4.042   2.486   0.213  2.2542  2.4816 -0.8555
 8941SOL    HW227723   4.190   2.419   0.194  1.0568 -1.1803  1.4436
 8942SOL     OW27724   0.363   3.147   5.976 -0.0691  0.2589 -0.2117
 8942SOL    HW127725   0.459   3.166   5.955  0.5033 -1.0524  1.0355
 8942SOL    HW227726   0.351   3.048   5.989 -1.6340  0.3895 -0.4971
 8943SOL     OW27727   6.414   2.316   0.976 -0.3031 -0.3838 -0.2027
 8943SOL    HW127728   6.370   2.405   0.991 -1.2960 -1.0676  1.1732
 8943SOL    HW227729   6.510   2.321   1.003 -0.1909  0.4400 -0.7414
 8944SOL     OW27730   5.195   6.668   0.541  0.1889  0.7742 -0.4915
 8944SOL    HW127731   5.115   6.712   0.500 -0.6681  2.7421  2.9113
 8944SOL    HW227732   5.252   6.737   0.586  1.5727 -1.0398  0.6901
 8945SOL     OW27733   1.458   6.453   3.206 -0.7308  0.1234  0.2788
 8945SOL    HW127734   1.486   6.499   3.122  0.7596 -0.5119  0.4007
 8945SOL    HW227735   1.521   6.378   3.226 -0.2186  1.0734  2.6649
 8946SOL     OW27736   3.071   0.008   5.250  0.0041 -0.3678 -0.1246
 8946SOL    HW127737   3.142   0.036   5.315 -1.8287  0.7980  1.4822
 8946SOL    HW227738   3.013  -0.062   5.292  0.0611 -1.1941 -1.3562
 8947SOL     OW27739   3.549   3.774   4.722 -0.1845 -0.3483  0.7077
 8947SOL    HW127740   3.539   3.793   4.819  0.7331  1.3772  0.4946
 8947SOL    HW227741   3.462   3.793   4.675 -0.3906 -0.3880  1.0707
 8948SOL     OW27742   6.462   6.967   4.672  0.0451  0.0310 -0.2275
 8948SOL    HW127743   6.395   7.018   4.725  1.2546 -0.2281  1.6274
 8948SOL    HW227744   6.519   7.032   4.621 -1.7177  0.2435 -2.0668
 8949SOL     OW27745   0.898   4.908   5.139  0.5956 -0.3539 -0.5904
 8949SOL    HW127746   0.958   4.988   5.148  1.7242 -0.9828 -2.0521
 8949SOL    HW227747   0.803   4.938   5.135  0.9393  0.8376 -0.2487
 8950SOL     OW27748   5.756   1.567   6.741 -0.6795  0.3140 -0.2504
 8950SOL    HW127749   5.824   1.501   6.774  1.0679  1.1887 -1.8647
 8950SOL    HW227750   5.679   1.518   6.700  0.2074 -0.7560 -0.7056
 8951SOL     OW27751   2.079   0.197   6.024 -0.3070 -0.3676  0.1665
 8951SOL    HW127752   2.092   0.119   5.962  2.3019  1.0393 -1.2050
 8951SOL    HW227753   2.132   0.182   6.108  1.6445  0.6243 -0.8392
 8952SOL     OW27754   5.010   0.246   3.110 -0.0392  0.1687 -0.3403
 8952SOL    HW127755   4.992   0.334   3.067 -2.2162 -0.7079 -1.3782
 8952SOL    HW227756   5.073   0.193   3.053 -0.3577  0.2530 -0.7718
 8953SOL     OW27757   2.436   6.145   5.916 -0.5615 -0.2446 -0.8677
 8953SOL    HW127758   2.416   6.106   6.006 -0.4346  0.8992 -0.3374
 8953SOL    HW227759   2.535   6.154   5.906 -0.5983  0.0744 -0.9347
 8954SOL     OW27760   1.020   0.441   5.027 -0.5621  0.4986 -0.0559
 8954SOL    HW127761   1.015   0.517   4.961 -2.3958  0.3174 -0.1777
 8954SOL    HW227762   1.084   0.465   5.100  0.1532  1.4573 -0.9543
 8955SOL     OW27763   6.598   2.276   5.124  0.1393  0.1273 -0.4759
 8955SOL    HW127764   6.646   2.359   5.093 -3.4096  2.5198 -0.1481
 8955SOL    HW227765   6.633   2.250   5.214  1.5728  1.0067 -0.7321
 8956SOL     OW27766   6.960   1.414   6.283  0.9516  0.7941  0.4893
 8956SOL    HW127767   6.882   1.367   6.324  1.0355  0.8504  0.7102
 8956SOL    HW227768   6.952   1.409   6.183  0.8951  0.4160  0.5081
 8957SOL     OW27769   3.188   5.661   1.652  0.6316 -0.6543 -0.0218
 8957SOL    HW127770   3.178   5.759   1.665 -0.8257 -0.8329  0.4182
 8957SOL    HW227771   3.256   5.643   1.581  0.1154  0.6881 -0.8932
 8958SOL     OW27772   3.429   1.666   3.220  0.0430  0.4166 -0.2026
 8958SOL    HW127773   3.375   1.656   3.303  1.8820  1.2166  1.1688
 8958SOL    HW227774   3.381   1.723   3.154 -1.0356  0.5771  0.7056
 8959SOL     OW27775   2.256   5.969   0.461  0.2139 -0.1832  0.3590
 8959SOL    HW127776   2.180   5.922   0.507 -0.2461  0.3892  0.1996
 8959SOL    HW227777   2.341   5.921   0.481 -0.1671 -0.7527  0.6647
 8960SOL     OW27778   5.155   5.833   0.473 -0.1196 -0.2402  0.2116
 8960SOL    HW127779   5.189   5.916   0.428 -4.8499 -0.2594 -4.3515
 8960SOL    HW227780   5.139   5.762   0.405 -1.1307 -3.1340  3.1923
 8961SOL     OW27781   5.936   1.778   4.669  0.4419 -0.1380  0.2561
 8961SOL    HW127782   5.863   1.831   4.626  0.4587  1.1471  1.7393
 8961SOL    HW227783   5.993   1.838   4.724  2.0460 -1.2896 -0.0703
 8962SOL     OW27784   4.196   0.476   5.206  0.6391 -0.1571 -0.1459
 8962SOL    HW127785   4.270   0.461   5.272 -0.9360 -1.3000  1.4657
 8962SOL    HW227786   4.191   0.398   5.144  0.8119 -0.0452 -0.3029
 8963SOL     OW27787   0.050   0.248   6.203 -0.3639 -0.1547 -0.3459
 8963SOL    HW127788   0.113   0.266   6.278 -0.0104 -1.7681 -0.2356
 8963SOL    HW227789   0.096   0.193   6.133 -2.2923 -3.7073  0.9246
 8964SOL     OW27790   0.674   3.653   3.951 -0.4121 -0.1157 -0.2880
 8964SOL    HW127791   0.761   3.704   3.950  0.1482 -0.8203  2.7299
 8964SOL    HW227792   0.680   3.575   3.889  0.6726  0.4826 -0.9676
 8965SOL     OW27793   1.246   3.368   2.008  0.2345 -0.3382 -0.0600
 8965SOL    HW127794   1.257   3.277   1.967 -1.6252 -1.0580  0.9487
 8965SOL    HW227795   1.335   3.400   2.041  1.1367 -1.2588 -1.4418
 8966SOL     OW27796   4.441   0.622   4.157  0.1277 -0.1264 -0.5123
 8966SOL    HW127797   4.415   0.628   4.061 -0.7533 -0.7310 -0.3245
 8966SOL    HW227798   4.489   0.706   4.183 -0.9922  0.7336 -1.0836
 8967SOL     OW27799   4.900   0.459   0.096  0.6623 -0.0734 -0.2650
 8967SOL    HW127800   4.918   0.446   0.194  0.4223 -0.2275 -0.2393
 8967SOL    HW227801   4.802   0.449   0.079  0.7804 -0.7105 -0.6222
 8968SOL     OW27802   6.046   3.200   2.917 -0.0759  0.3218  0.7538
 8968SOL    HW127803   6.137   3.217   2.878  0.0720  2.4929  1.9375
 8968SOL    HW227804   5.980   3.190   2.842  0.9331 -0.1843 -0.1032
 8969SOL     OW27805   3.895   1.753   4.430  0.5492  0.1838 -0.6194
 8969SOL    HW127806   3.878   1.671   4.485  0.5344  0.1630 -0.6554
 8969SOL    HW227807   3.874   1.734   4.334 -0.8442  0.6432 -0.4369
 8970SOL     OW27808   1.419   3.334   2.758 -0.1261 -0.4738 -0.3969
 8970SOL    HW127809   1.432   3.398   2.682  2.2326 -2.1299 -1.5315
 8970SOL    HW227810   1.509   3.302   2.790 -1.0837 -0.5534  2.5309
 8971SOL     OW27811   3.469   4.528   1.615  0.4488  0.6572 -0.5125
 8971SOL    HW127812   3.506   4.568   1.700 -1.8330 -1.3833  1.6037
 8971SOL    HW227813   3.370   4.533   1.616  0.2958 -0.9237 -2.3090
 8972SOL     OW27814   3.449   1.269   6.871  0.4570  0.1008  0.0974
 8972SOL    HW127815   3.477   1.298   6.779 -1.3398  1.9505  0.0878
 8972SOL    HW227816   3.407   1.345   6.920 -0.3778 -1.3505  1.7720
 8973SOL     OW27817   2.648   4.878   5.512 -0.2115  0.0618 -0.5393
 8973SOL    HW127818   2.738   4.901   5.475  0.3796  0.6487  1.1572
 8973SOL    HW227819   2.626   4.939   5.588 -2.6713  0.8351 -1.7525
 8974SOL     OW27820   6.763   2.813   4.892  0.1074  0.2984  0.5417
 8974SOL    HW127821   6.820   2.870   4.951  0.7144  0.0281  0.2219
 8974SOL    HW227822   6.726   2.868   4.817  0.1847  0.4081  0.5842
 8975SOL     OW27823   2.330   1.754   0.217  0.2727 -0.2282  0.0120
 8975SOL    HW127824   2.323   1.670   0.272 -2.5306 -0.9970 -1.3190
 8975SOL    HW227825   2.261   1.820   0.249  0.4909  0.4123 -0.8210
 8976SOL     OW27826   0.988   5.639   4.459 -0.0045 -0.1944 -0.1211
 8976SOL    HW127827   0.895   5.675   4.456 -0.7994 -2.1725 -0.6560
 8976SOL    HW227828   1.020   5.622   4.365  0.9670  0.6036  0.0492
 8977SOL     OW27829   5.193   2.607   2.833 -0.0021  0.1020 -0.2031
 8977SOL    HW127830   5.137   2.585   2.913 -0.1915 -0.7776 -0.5631
 8977SOL    HW227831   5.139   2.659   2.767  0.4524  1.7316  0.6648
 8978SOL     OW27832   0.689   3.270   3.941  0.1492  0.5973  0.5623
 8978SOL    HW127833   0.768   3.216   3.909  0.0890  0.2871  0.9274
 8978SOL    HW227834   0.657   3.328   3.867  0.3638  0.2997  0.2291
 8979SOL     OW27835   0.017   4.942   4.723  0.3577  0.5869  0.0855
 8979SOL    HW127836   0.084   4.896   4.665  0.6429 -0.5020  1.2512
 8979SOL    HW227837  -0.056   4.980   4.665 -0.8625 -2.8518 -0.8506
 8980SOL     OW27838   3.720   3.096   2.911  0.0125  0.2895 -0.0787
 8980SOL    HW127839   3.795   3.161   2.904  2.2934 -1.9865  1.1873
 8980SOL    HW227840   3.644   3.136   2.962  1.4410  1.8492  0.8989
 8981SOL     OW27841   3.505   0.879   5.770 -0.2610  0.2718 -0.1515
 8981SOL    HW127842   3.597   0.916   5.753 -0.2922 -0.8283 -3.4001
 8981SOL    HW227843   3.510   0.779   5.776 -0.8638  0.3064  3.4812
 8982SOL     OW27844   3.484   3.828   6.433  0.3012  0.0413  0.0854
 8982SOL    HW127845   3.453   3.744   6.388 -1.8656 -0.3929  2.1893
 8982SOL    HW227846   3.460   3.906   6.377 -0.2162 -0.5946 -0.6002
 8983SOL     OW27847   6.223   4.336   0.083 -0.8098 -0.2211 -0.5402
 8983SOL    HW127848   6.279   4.382   0.151 -0.8844  0.1364 -0.7167
 8983SOL    HW227849   6.184   4.252   0.122 -0.5250 -0.2317 -0.2762
 8984SOL     OW27850   2.237   6.795   2.064 -0.1648 -0.1365  0.2866
 8984SOL    HW127851   2.206   6.711   2.108  0.8684 -0.8725 -0.3259
 8984SOL    HW227852   2.257   6.864   2.134 -1.7235 -0.1188  0.7595
 8985SOL     OW27853   3.890   3.190   0.359  0.3364  0.3898  0.5326
 8985SOL    HW127854   3.955   3.233   0.296 -0.5010  0.5753 -0.2267
 8985SOL    HW227855   3.940   3.140   0.430  1.4001 -1.7940 -1.5891
 8986SOL     OW27856   2.455   6.477   1.160 -0.6960  0.0222 -0.1847
 8986SOL    HW127857   2.467   6.448   1.065  0.0115 -0.2677 -0.0061
 8986SOL    HW227858   2.395   6.412   1.207 -0.0749 -0.5057 -0.1098
 8987SOL     OW27859   5.523   0.057   2.321  0.5176 -0.1654  0.2324
 8987SOL    HW127860   5.480   0.042   2.410 -0.9661  0.5187 -0.3551
 8987SOL    HW227861   5.582   0.137   2.326 -1.5111  1.4133 -0.0242
 8988SOL     OW27862   1.063   5.136   6.479 -0.0801  0.0552  0.4107
 8988SOL    HW127863   1.075   5.081   6.561 -1.6024 -1.9109 -0.5947
 8988SOL    HW227864   1.135   5.206   6.474  1.2737 -1.1225  2.3141
 8989SOL     OW27865   0.082   4.535   1.565 -0.7499 -0.1310 -0.3541
 8989SOL    HW127866   0.073   4.442   1.601  0.6897  0.2519  1.1632
 8989SOL    HW227867  -0.008   4.574   1.550 -1.4336 -0.9866  1.2278
 8990SOL     OW27868   0.173   4.291   2.804 -0.1321 -0.0494  0.5630
 8990SOL    HW127869   0.234   4.367   2.827 -1.2908  1.1456 -0.2012
 8990SOL    HW227870   0.102   4.283   2.873  0.0069 -0.4703  0.6603
 8991SOL     OW27871   0.119   2.370   4.708  0.0281 -0.5845 -0.4053
 8991SOL    HW127872   0.067   2.286   4.694 -0.2637 -0.5639  0.4922
 8991SOL    HW227873   0.172   2.391   4.626 -1.3367 -0.6363 -1.3428
 8992SOL     OW27874   6.098   0.610   2.945  0.9640  0.3459  0.1190
 8992SOL    HW127875   6.143   0.693   2.912 -1.2430  1.3592 -0.5660
 8992SOL    HW227876   6.072   0.622   3.041 -0.3058  0.9668 -0.2630
 8993SOL     OW27877   5.020   5.328   0.681  0.1907 -0.2282 -0.2561
 8993SOL    HW127878   5.066   5.248   0.718  1.5618  0.2857 -0.8147
 8993SOL    HW227879   5.083   5.406   0.680 -1.1662  0.9355  0.4685
 8994SOL     OW27880   1.548   4.496   1.851  0.4070  0.2507 -0.6147
 8994SOL    HW127881   1.646   4.479   1.840  0.1540 -0.8602 -1.3395
 8994SOL    HW227882   1.533   4.560   1.926  1.5239 -1.6493  1.3040
 8995SOL     OW27883   0.957   1.387   6.447 -0.5155  0.8428  0.3216
 8995SOL    HW127884   0.976   1.439   6.364  0.6830  1.0848  0.7217
 8995SOL    HW227885   0.874   1.421   6.490 -1.0308  0.8529 -0.6568
 8996SOL     OW27886   4.006   6.962   6.293  0.4387 -0.1965 -0.0666
 8996SOL    HW127887   4.061   6.947   6.211 -0.2021  1.9876 -0.9689
 8996SOL    HW227888   4.047   7.034   6.348 -0.2724 -0.1591  0.4345
 8997SOL     OW27889   5.604   5.961   3.477 -0.1417  0.0323 -0.7460
 8997SOL    HW127890   5.516   5.977   3.522 -1.2527  0.2670 -2.8753
 8997SOL    HW227891   5.637   5.870   3.502 -1.1838 -0.2213 -0.2150
 8998SOL     OW27892   1.080   4.736   3.490  0.3092 -0.0383 -0.3074
 8998SOL    HW127893   1.116   4.822   3.524 -0.4642  0.3370 -0.4276
 8998SOL    HW227894   1.147   4.694   3.428  2.4058 -1.4304  2.6529
 8999SOL     OW27895   4.809   5.541   6.079 -0.5689  0.2438 -0.5148
 8999SOL    HW127896   4.818   5.593   5.994  1.0975  0.2202 -0.3930
 8999SOL    HW227897   4.754   5.459   6.063 -0.9357  0.6457 -1.3700
 9000SOL     OW27898   2.862   4.782   6.893 -0.1078  0.7661 -0.1248
 9000SOL    HW127899   2.777   4.779   6.841  0.8911 -0.2236 -1.8150
 9000SOL    HW227900   2.843   4.765   6.989 -1.6675 -1.4637 -0.7309
 9001SOL     OW27901   4.465   4.722   1.561 -0.1097  0.9042 -0.3551
 9001SOL    HW127902   4.508   4.710   1.651 -0.7314 -2.0509 -0.3790
 9001SOL    HW227903   4.366   4.729   1.572 -0.2127  0.2085 -0.8367
 9002SOL     OW27904   6.556   5.595   6.386 -0.0463  0.5262  0.7952
 9002SOL    HW127905   6.517   5.508   6.415  1.8716  0.1663  2.5319
 9002SOL    HW227906   6.493   5.669   6.410 -2.9970 -0.3632 -3.0959
 9003SOL     OW27907   5.519   5.133   2.160  0.4269 -0.6229  0.0455
 9003SOL    HW127908   5.491   5.041   2.188  1.7399 -0.8026  0.8135
 9003SOL    HW227909   5.618   5.135   2.144  0.1501  0.1698 -1.9560
 9004SOL     OW27910   0.298   4.963   2.901 -0.1729  0.4270  0.1863
 9004SOL    HW127911   0.217   4.982   2.958 -0.4762  0.6931 -0.3228
 9004SOL    HW227912   0.305   5.033   2.830  0.9211  0.8153  0.6618
 9005SOL     OW27913   5.651   6.490   4.206  0.1568  0.1132 -0.0193
 9005SOL    HW127914   5.629   6.459   4.298  1.0657  0.9862  0.5155
 9005SOL    HW227915   5.744   6.529   4.205  0.2239 -0.0230 -1.3338
 9006SOL     OW27916   4.041   5.334   5.789 -0.3220 -0.2937 -0.4629
 9006SOL    HW127917   4.099   5.389   5.849 -0.0063 -1.0788 -0.0343
 9006SOL    HW227918   4.097   5.263   5.745 -0.7176 -0.2604 -1.0339
 9007SOL     OW27919   0.550   0.815   4.696 -0.2861 -0.4019  0.2862
 9007SOL    HW127920   0.466   0.772   4.728  0.3582  0.1488  2.9032
 9007SOL    HW227921   0.532   0.911   4.674 -0.7937 -0.8547 -1.4731
 9008SOL     OW27922   6.167   4.245   0.727 -0.3742 -0.1192 -0.1161
 9008SOL    HW127923   6.087   4.304   0.738  0.2394  0.5301  1.0230
 9008SOL    HW227924   6.205   4.222   0.817 -1.1595 -3.0859 -0.4452
 9009SOL     OW27925   2.348   5.704   1.517 -0.7284 -0.4692 -0.0343
 9009SOL    HW127926   2.392   5.730   1.431 -0.5372 -2.4262 -0.5680
 9009SOL    HW227927   2.320   5.608   1.513 -0.8335 -0.5683  2.0454
 9010SOL     OW27928   3.691   6.529   4.962 -0.1589 -0.1964  0.3152
 9010SOL    HW127929   3.606   6.559   5.005  0.1785  0.2660  0.6787
 9010SOL    HW227930   3.765   6.529   5.030 -0.2954 -2.6728  0.5533
 9011SOL     OW27931   1.565   2.063   3.078 -0.1547  0.0308 -0.0353
 9011SOL    HW127932   1.535   2.130   3.009  0.4442 -0.5478 -0.8760
 9011SOL    HW227933   1.555   1.971   3.041  0.0470 -0.3033  0.7205
 9012SOL     OW27934   3.336   5.865   0.205 -0.0532  0.6414 -0.1499
 9012SOL    HW127935   3.255   5.822   0.166  1.4262 -3.3321  0.6883
 9012SOL    HW227936   3.400   5.889   0.131 -0.1039 -0.5356 -0.5984
 9013SOL     OW27937   3.705   6.813   4.880  0.0222  0.3585 -0.1888
 9013SOL    HW127938   3.634   6.836   4.814 -1.2746  2.5961  1.8231
 9013SOL    HW227939   3.698   6.716   4.904 -2.6349  0.5766  0.2142
 9014SOL     OW27940   5.072   2.063   2.826 -0.2455  0.9553 -0.3552
 9014SOL    HW127941   5.060   2.125   2.748  0.4879  0.6294 -0.7305
 9014SOL    HW227942   5.120   1.981   2.797  1.3939  1.4745  0.7385
 9015SOL     OW27943   3.934   0.909   0.548 -0.1843  0.1635 -0.1907
 9015SOL    HW127944   3.849   0.937   0.502 -0.2944 -1.4338 -0.9876
 9015SOL    HW227945   3.913   0.839   0.616  0.5240 -0.3938 -0.5394
 9016SOL     OW27946   3.049   5.682   4.751  0.6375  0.3902 -0.3998
 9016SOL    HW127947   3.114   5.609   4.769  0.8862  0.6378 -0.2900
 9016SOL    HW227948   3.093   5.754   4.698  0.6323  0.8317  0.1783
 9017SOL     OW27949   2.237   1.067   6.339 -0.1182 -0.1969  0.4200
 9017SOL    HW127950   2.215   1.010   6.260 -0.7955  0.8684 -0.1924
 9017SOL    HW227951   2.188   1.033   6.419 -2.0171  0.5647 -0.3504
 9018SOL     OW27952   2.371   5.602   0.180  0.1113  0.1620 -0.1516
 9018SOL    HW127953   2.457   5.558   0.207  0.4697  0.0568 -1.3839
 9018SOL    HW227954   2.294   5.541   0.200  0.6329 -1.2885 -2.2236
 9019SOL     OW27955   0.535   3.548   5.198  0.2729 -0.4611  0.0196
 9019SOL    HW127956   0.599   3.559   5.123  0.5517  1.1621  0.4644
 9019SOL    HW227957   0.442   3.538   5.161  0.4848 -0.3457 -0.5575
 9020SOL     OW27958   4.160   5.968   3.047 -0.1443  0.4066  0.8010
 9020SOL    HW127959   4.127   6.040   2.986 -1.3593  0.3631  1.3821
 9020SOL    HW227960   4.229   5.913   2.999  1.1507  2.1923  0.4867
 9021SOL     OW27961   5.791   1.331   5.976  0.4024 -0.7087 -0.2205
 9021SOL    HW127962   5.708   1.340   5.921 -0.6272 -1.1690  1.1867
 9021SOL    HW227963   5.808   1.416   6.025  1.0293 -0.4673 -0.8440
 9022SOL     OW27964   4.353   1.472   6.869  0.4469 -0.0909 -0.2543
 9022SOL    HW127965   4.304   1.447   6.785  0.4860  1.7949 -0.8790
 9022SOL    HW227966   4.288   1.503   6.938  0.5848  0.5560 -0.4075
 9023SOL     OW27967   0.335   3.757   0.709  0.1734 -0.2963 -0.2214
 9023SOL    HW127968   0.248   3.711   0.689 -0.1418  0.6040 -0.9900
 9023SOL    HW227969   0.390   3.760   0.626 -0.8579  2.8872 -0.9250
 9024SOL     OW27970   1.783   5.386   6.757  0.2410 -0.2585 -0.8935
 9024SOL    HW127971   1.785   5.342   6.846  0.5245  0.2436 -0.6493
 9024SOL    HW227972   1.839   5.334   6.692  0.5384 -0.2807 -0.6199
 9025SOL     OW27973   6.717   6.347   2.159 -0.2600 -0.3462  0.8112
 9025SOL    HW127974   6.639   6.385   2.109 -1.6594 -0.9386  2.4424
 9025SOL    HW227975   6.760   6.276   2.104 -0.8927 -0.0437 -0.0992
 9026SOL     OW27976   5.118   2.064   6.259 -0.0756 -0.6358  0.5853
 9026SOL    HW127977   5.182   2.141   6.253 -2.2106  1.3774  1.8454
 9026SOL    HW227978   5.155   1.986   6.209  2.9934  0.6142  0.6607
 9027SOL     OW27979   1.241   4.758   3.976  0.5893  0.6087  0.2939
 9027SOL    HW127980   1.177   4.696   3.930  2.6584 -0.9945 -0.5791
 9027SOL    HW227981   1.245   4.735   4.073 -1.7115  2.1657  0.8233
 9028SOL     OW27982   4.384   4.446   0.561 -0.2909 -0.2654 -0.0058
 9028SOL    HW127983   4.433   4.483   0.639 -2.3893  2.5195  0.1526
 9028SOL    HW227984   4.317   4.378   0.592  0.0973 -0.4779  0.3671
 9029SOL     OW27985   5.538   5.542   4.795 -0.3405 -0.4250 -0.0535
 9029SOL    HW127986   5.602   5.548   4.872 -0.6407 -0.8875  0.2381
 9029SOL    HW227987   5.449   5.577   4.824 -0.1168  0.6288 -0.5889
 9030SOL     OW27988   3.747   6.253   1.193 -0.9002 -0.0480 -0.3079
 9030SOL    HW127989   3.804   6.219   1.268  1.1523  3.6966  0.0853
 9030SOL    HW227990   3.664   6.295   1.231 -0.7053  0.3340 -0.3104
 9031SOL     OW27991   4.234   1.858   0.875 -0.6891  0.5543  0.3847
 9031SOL    HW127992   4.205   1.884   0.967 -0.7920  1.4362  0.1047
 9031SOL    HW227993   4.197   1.922   0.808 -0.8887 -0.2656 -0.3153
 9032SOL     OW27994   5.759   2.888   1.458  0.1233 -0.7022  0.5122
 9032SOL    HW127995   5.738   2.849   1.547  2.5061  1.6660  2.2997
 9032SOL    HW227996   5.714   2.977   1.449  1.7181  0.1544  0.4614
 9033SOL     OW27997   1.276   6.648   1.185 -0.1387 -0.2650  0.0960
 9033SOL    HW127998   1.177   6.659   1.190 -0.0226  0.5222  0.8890
 9033SOL    HW227999   1.306   6.653   1.089 -1.0828 -2.6739 -0.3807
 9034SOL     OW28000   4.434   2.505   4.372  0.6491  0.6036  0.1061
 9034SOL    HW128001   4.488   2.531   4.292  1.0565 -2.0036 -0.5461
 9034SOL    HW228002   4.487   2.444   4.430 -0.8884 -0.4156  0.5073
 9035SOL     OW28003   3.404   5.935   4.009 -0.1288  0.2440 -1.2721
 9035SOL    HW128004   3.313   5.947   3.969 -0.9343 -1.7345 -0.1875
 9035SOL    HW228005   3.471   5.923   3.935 -1.0320  0.0515 -2.0879
 9036SOL     OW28006   6.035   4.373   4.393 -0.5976  0.2473 -0.0053
 9036SOL    HW128007   6.045   4.327   4.305  0.0776 -1.0753  0.7401
 9036SOL    HW228008   6.013   4.306   4.464 -2.4471  1.4584  0.6265
 9037SOL     OW28009   0.110   6.078   0.042 -0.9518  0.2422 -0.1266
 9037SOL    HW128010   0.157   5.991   0.030 -0.4981  0.4148  0.3325
 9037SOL    HW228011   0.069   6.107  -0.044 -0.0217  0.1935 -0.5908
 9038SOL     OW28012   3.300   3.316   5.348  0.5609  0.3319 -0.0111
 9038SOL    HW128013   3.347   3.300   5.435  2.1889  0.2510 -0.8682
 9038SOL    HW228014   3.366   3.308   5.273 -0.7749  0.5841 -1.2447
 9039SOL     OW28015   3.243   6.744   6.159  0.1200  0.3279 -0.7833
 9039SOL    HW128016   3.201   6.747   6.068 -0.2771  0.4929 -0.5917
 9039SOL    HW228017   3.248   6.836   6.197  0.2811  0.2582 -0.6326
 9040SOL     OW28018   2.279   3.987   1.432  0.0277  0.4354  0.0398
 9040SOL    HW128019   2.370   4.026   1.418  1.3591 -1.4674  2.6251
 9040SOL    HW228020   2.270   3.904   1.378 -0.0583  0.4710  0.0002
 9041SOL     OW28021   5.301   2.122   2.550  0.2358 -0.6101  0.3266
 9041SOL    HW128022   5.286   2.152   2.644 -1.2893 -1.6413  0.4361
 9041SOL    HW228023   5.272   2.194   2.487  0.7931 -0.1187  0.6184
 9042SOL     OW28024   0.436   4.744   5.140 -0.2717 -0.0603 -0.2249
 9042SOL    HW128025   0.480   4.659   5.166 -1.1725 -1.1342 -1.9879
 9042SOL    HW228026   0.359   4.724   5.079 -2.3923  1.7936  1.6309
 9043SOL     OW28027   3.222   2.924   2.038 -0.0309 -0.1707  0.0642
 9043SOL    HW128028   3.317   2.932   2.009 -0.0857  0.8872  0.1457
 9043SOL    HW228029   3.162   2.920   1.958  0.2542 -5.0984 -0.2625
 9044SOL     OW28030   2.309   2.258   6.134 -0.1746 -0.8418  0.1398
 9044SOL    HW128031   2.385   2.217   6.184 -0.9602 -0.1550  1.9857
 9044SOL    HW228032   2.321   2.357   6.131 -0.5507 -0.8084 -0.3341
 9045SOL     OW28033   4.464   6.962   3.783  0.4148 -0.0097  0.1378
 9045SOL    HW128034   4.513   6.992   3.701 -1.7757 -1.0121 -1.6498
 9045SOL    HW228035   4.386   7.022   3.799 -0.0213 -0.6826  0.6016
 9046SOL     OW28036   2.430   2.842   1.507 -0.4217  0.2830 -0.9467
 9046SOL    HW128037   2.485   2.800   1.435 -0.9132 -2.7692  0.3069
 9046SOL    HW228038   2.480   2.840   1.593 -1.6323 -0.5749 -0.2296
 9047SOL     OW28039   0.796   2.348   5.178 -0.4402 -0.1049 -0.1201
 9047SOL    HW128040   0.879   2.379   5.224 -0.9091  0.9728  0.0324
 9047SOL    HW228041   0.777   2.408   5.100 -1.2380 -0.1505  0.0287
 9048SOL     OW28042   6.677   3.619   0.185 -0.1198  0.9051  0.1062
 9048SOL    HW128043   6.669   3.711   0.147 -0.9929  0.1228 -1.7505
 9048SOL    HW228044   6.672   3.552   0.110  1.0542 -0.6330  1.3474
 9049SOL     OW28045   6.015   0.698   5.274  0.4284 -0.4818  0.2458
 9049SOL    HW128046   6.102   0.735   5.307  1.0014 -1.2228 -0.3899
 9049SOL    HW228047   6.006   0.717   5.176 -0.2019 -0.2767  0.3386
 9050SOL     OW28048   1.491   4.290   6.676 -0.3162  0.0204  0.3468
 9050SOL    HW128049   1.414   4.337   6.632 -0.5121 -1.4690 -0.9944
 9050SOL    HW228050   1.536   4.353   6.740 -3.3052  0.5870  2.0653
 9051SOL     OW28051   6.926   0.833   1.948  0.0373  0.1576  0.0634
 9051SOL    HW128052   7.008   0.821   2.003  0.1669 -1.4364 -0.4387
 9051SOL    HW228053   6.848   0.851   2.008  0.1777 -1.5297  0.8076
 9052SOL     OW28054   2.061   3.471   6.400 -0.0678 -0.5134  0.8794
 9052SOL    HW128055   2.001   3.459   6.321  1.1422  0.4386 -0.2232
 9052SOL    HW228056   2.034   3.554   6.449 -0.1647 -0.5310  0.8564
 9053SOL     OW28057   1.939   1.226   6.994  0.4081 -0.5016 -0.4618
 9053SOL    HW128058   1.888   1.200   7.076  0.1891 -1.0275 -0.7656
 9053SOL    HW228059   2.034   1.196   7.003  0.3706 -0.6086 -0.4245
 9054SOL     OW28060   1.572   6.449   4.029  0.2346  0.1557  0.2311
 9054SOL    HW128061   1.581   6.471   3.932 -0.6405  0.4370  0.1991
 9054SOL    HW228062   1.492   6.497   4.066  0.7017  0.2501  1.1494
 9055SOL     OW28063   6.093   3.206   0.389  0.2913  0.3361 -0.0227
 9055SOL    HW128064   6.022   3.274   0.372  0.4926  0.2649 -1.1907
 9055SOL    HW228065   6.133   3.176   0.303  3.1375  1.8383  0.6053
 9056SOL     OW28066   5.093   1.750   5.777  0.7676 -0.2412 -0.3353
 9056SOL    HW128067   5.031   1.680   5.813  0.8655  0.3519  1.0072
 9056SOL    HW228068   5.127   1.720   5.687  0.2953 -1.6049 -0.0889
 9057SOL     OW28069   6.410   6.313   2.664 -0.2045  0.4875  0.1898
 9057SOL    HW128070   6.359   6.325   2.749  2.2623  4.5663  1.3471
 9057SOL    HW228071   6.346   6.289   2.591 -2.5836 -1.9097  2.8004
 9058SOL     OW28072   3.632   6.504   5.788  0.5870 -0.2563 -0.3745
 9058SOL    HW128073   3.542   6.536   5.819  0.2011 -2.2294  0.6685
 9058SOL    HW228074   3.675   6.576   5.734 -0.5833  1.6739  1.1213
 9059SOL     OW28075   3.145   0.523   3.941 -0.0604 -0.0464 -0.3901
 9059SOL    HW128076   3.177   0.613   3.972 -0.8119  0.4978 -1.1580
 9059SOL    HW228077   3.047   0.527   3.923 -0.4911 -1.5340  1.3409
 9060SOL     OW28078   6.006   0.723   5.873 -0.2995 -0.4497  0.1137
 9060SOL    HW128079   6.094   0.734   5.919 -1.0453  1.1102  1.2443
 9060SOL    HW228080   6.011   0.765   5.782  0.7962 -2.4430 -0.8149
 9061SOL     OW28081   3.003   4.839   2.956 -0.6216  0.1548  0.1142
 9061SOL    HW128082   2.976   4.752   2.916 -0.6561 -0.3279  1.1801
 9061SOL    HW228083   2.937   4.910   2.930 -2.3745 -0.7754  1.7983
 9062SOL     OW28084   0.829   0.930   0.434 -0.4586  0.0653 -0.6226
 9062SOL    HW128085   0.848   1.019   0.392 -0.9680  0.7553  0.5774
 9062SOL    HW228086   0.769   0.942   0.513  0.6361 -1.1877  0.4370
 9063SOL     OW28087   2.961   1.949   0.209  0.1580 -0.5080 -0.3082
 9063SOL    HW128088   3.000   2.002   0.284 -2.7487  0.3320  0.7398
 9063SOL    HW228089   2.876   1.991   0.179 -0.8040 -3.0096 -1.3820
 9064SOL     OW28090   4.940   3.860   0.305 -0.6430  0.2100  0.5432
 9064SOL    HW128091   4.941   3.951   0.346  0.1563  0.3790  0.1613
 9064SOL    HW228092   4.927   3.867   0.207 -2.6286 -0.2012  0.7267
 9065SOL     OW28093   2.969   3.338   1.614  0.2328 -0.3448  0.0444
 9065SOL    HW128094   3.033   3.354   1.539  0.4719 -0.2645  0.2616
 9065SOL    HW228095   2.935   3.244   1.610  1.1622 -0.7110  0.5282
 9066SOL     OW28096   4.198   4.923   5.487  0.3321 -0.0296  0.5854
 9066SOL    HW128097   4.099   4.920   5.474  0.2289  0.6953  1.1602
 9066SOL    HW228098   4.229   4.837   5.528 -0.1710  0.0429  1.1350
 9067SOL     OW28099   6.320   1.978   1.413  0.0739 -0.3194  0.2262
 9067SOL    HW128100   6.299   2.051   1.478 -3.6741 -1.0769  0.0526
 9067SOL    HW228101   6.313   2.013   1.320  0.8454 -0.3481  0.1466
 9068SOL     OW28102   0.386   6.521   6.227 -0.3836  0.0693  0.3684
 9068SOL    HW128103   0.403   6.437   6.175 -2.3314  0.3336 -0.8067
 9068SOL    HW228104   0.413   6.600   6.173  0.3735  0.2687  1.0147
 9069SOL     OW28105   5.425   2.931   5.275 -0.1756 -0.4228  0.4276
 9069SOL    HW128106   5.485   3.011   5.278  0.4968 -0.9439  1.3629
 9069SOL    HW228107   5.405   2.900   5.368 -1.0089 -0.9306  0.0983
 9070SOL     OW28108   1.728   3.324   6.414  0.1498 -0.0514 -0.1763
 9070SOL    HW128109   1.757   3.273   6.495  2.7315 -0.6519 -1.3915
 9070SOL    HW228110   1.628   3.335   6.416 -0.4378 -4.0239  0.7921
 9071SOL     OW28111   4.700   4.427   5.929 -0.0835 -0.2657  1.1256
 9071SOL    HW128112   4.611   4.448   5.889 -0.1649  0.0158  1.4481
 9071SOL    HW228113   4.712   4.481   6.013  0.4717 -0.1509  0.9766
 9072SOL     OW28114   4.095   5.969   0.183 -0.7599  0.0621 -0.1849
 9072SOL    HW128115   4.020   6.027   0.215 -1.5119  0.0766 -1.8889
 9072SOL    HW228116   4.181   6.020   0.192 -0.9308  0.1395  1.5344
 9073SOL     OW28117   1.174   6.247   1.053 -0.2485 -0.0177  0.3657
 9073SOL    HW128118   1.209   6.167   1.102  0.3013 -0.3895 -0.6130
 9073SOL    HW228119   1.076   6.256   1.070 -0.1897 -0.5006  1.0268
 9074SOL     OW28120   2.326   2.974   0.229  0.2925 -0.3211 -0.1512
 9074SOL    HW128121   2.354   2.891   0.180 -1.4655 -0.3134 -1.2738
 9074SOL    HW228122   2.258   2.950   0.299 -0.4915  0.1865 -0.7203
 9075SOL     OW28123   5.584   6.417   3.110  0.0464  0.1092  0.1562
 9075SOL    HW128124   5.519   6.493   3.115  0.4107  0.4456 -0.1148
 9075SOL    HW228125   5.556   6.344   3.173 -1.5257 -0.4786 -1.1782
 9076SOL     OW28126   2.416   3.295   0.467  0.3779  0.4520  0.2156
 9076SOL    HW128127   2.404   3.276   0.564  0.8882  1.0611  0.4122
 9076SOL    HW228128   2.460   3.218   0.422 -1.1938 -0.4427  0.1490
 9077SOL     OW28129   0.194   6.034   2.070 -0.4106 -0.3724  0.5000
 9077SOL    HW128130   0.157   6.106   2.129 -0.2987 -0.6034  0.8582
 9077SOL    HW228131   0.120   5.994   2.015 -0.1992  1.1751 -0.9849
 9078SOL     OW28132   3.758   2.112   3.657 -0.6776 -0.6724  0.2559
 9078SOL    HW128133   3.757   2.105   3.756 -0.5280 -1.1308  0.2268
 9078SOL    HW228134   3.664   2.121   3.623 -0.6595  0.5640  0.5063
 9079SOL     OW28135   6.782   1.129   6.026 -0.0114  0.0391 -0.8299
 9079SOL    HW128136   6.809   1.224   6.011 -1.5799  0.3862 -1.5993
 9079SOL    HW228137   6.699   1.126   6.081 -0.3667 -0.8475 -1.3906
 9080SOL     OW28138   5.898   1.810   1.425 -0.2713 -0.0998 -0.1383
 9080SOL    HW128139   5.857   1.808   1.517  0.5256 -1.0804  0.2108
 9080SOL    HW228140   5.945   1.897   1.412 -0.8491  0.2654  0.1815
 9081SOL     OW28141   6.514   6.105   3.367 -0.3685 -0.0886  0.5149
 9081SOL    HW128142   6.489   6.201   3.366 -0.9277 -0.1715 -2.0398
 9081SOL    HW228143   6.531   6.074   3.273 -0.3123 -2.5060  1.2379
 9082SOL     OW28144   1.702   0.245   3.663  0.1745 -0.0785 -0.2445
 9082SOL    HW128145   1.694   0.340   3.694  0.2684 -0.7816  2.0633
 9082SOL    HW228146   1.620   0.194   3.689  0.3620 -0.7899 -0.9808
 9083SOL     OW28147   4.850   4.908   2.427 -0.0354 -0.2155 -0.4888
 9083SOL    HW128148   4.898   4.993   2.448 -0.7163  0.3955 -1.3678
 9083SOL    HW228149   4.815   4.868   2.511  1.2866 -0.2500  0.0788
 9084SOL     OW28150   2.003   4.023   1.551  0.2714  0.1427 -0.1081
 9084SOL    HW128151   2.075   4.023   1.482  0.5529 -1.1525  0.1722
 9084SOL    HW228152   2.033   4.076   1.631  0.3627  0.7376 -0.5312
 9085SOL     OW28153   2.600   3.769   0.938 -0.1139  0.6609  0.0304
 9085SOL    HW128154   2.547   3.771   0.853 -1.1660  1.0271  0.6881
 9085SOL    HW228155   2.575   3.847   0.995 -0.2359 -0.1921  1.1730
 9086SOL     OW28156   5.276   3.816   0.841 -0.4801 -0.2421 -0.5419
 9086SOL    HW128157   5.349   3.838   0.776  1.2989 -0.0820  1.3770
 9086SOL    HW228158   5.272   3.887   0.912 -1.1063 -1.2815  0.5028
 9087SOL     OW28159   5.899   4.400   3.145  0.0913  0.4471 -0.4317
 9087SOL    HW128160   5.922   4.349   3.228  0.5105  0.6185 -0.4408
 9087SOL    HW228161   5.879   4.337   3.071  1.4135  0.2744 -0.6704
 9088SOL     OW28162   0.130   3.816   2.196  0.1378  0.1195  0.7457
 9088SOL    HW128163   0.116   3.907   2.157  0.4867 -1.3843 -3.4157
 9088SOL    HW228164   0.225   3.788   2.183 -0.1153 -1.1088  1.3444
 9089SOL     OW28165   4.581   0.980   6.577  0.2625  0.0540 -0.2390
 9089SOL    HW128166   4.574   1.027   6.489  2.0906  0.7316 -0.0714
 9089SOL    HW228167   4.530   1.030   6.646 -1.8443 -0.9103 -1.0301
 9090SOL     OW28168   6.932   1.187   3.580  0.4083 -0.2075  0.0674
 9090SOL    HW128169   6.928   1.087   3.580 -1.7195 -0.1811 -0.7863
 9090SOL    HW228170   6.873   1.223   3.508  2.1938  1.6781 -0.5362
 9091SOL     OW28171   2.594   4.326   5.857  0.1913  0.0501  0.3848
 9091SOL    HW128172   2.690   4.338   5.830  0.2090  0.0084  0.4284
 9091SOL    HW228173   2.548   4.269   5.788  0.4122 -0.6416  0.7915
 9092SOL     OW28174   5.150   3.951   6.716 -0.0453  0.0922 -0.1974
 9092SOL    HW128175   5.181   3.915   6.628 -0.0523  0.8931 -0.5377
 9092SOL    HW228176   5.110   4.042   6.702 -2.7003 -0.9332  0.1892
 9093SOL     OW28177   2.386   5.768   3.380 -0.1719  0.2979 -0.2460
 9093SOL    HW128178   2.362   5.863   3.396 -0.2113  0.0753  1.1648
 9093SOL    HW228179   2.317   5.709   3.423 -0.5161 -0.3855 -1.6766
 9094SOL     OW28180   3.114   5.033   1.546 -0.2858 -0.0514  0.5718
 9094SOL    HW128181   3.143   4.938   1.555  0.1997  0.1758  1.6115
 9094SOL    HW228182   3.083   5.067   1.635  0.6935  1.1113  0.4998
 9095SOL     OW28183   2.120   0.076   4.184 -0.3137  0.1779 -0.6504
 9095SOL    HW128184   2.196   0.011   4.181  0.2456  0.7992 -3.7135
 9095SOL    HW228185   2.051   0.051   4.116 -0.1687  2.5762 -1.8110
 9096SOL     OW28186   6.809   3.715   3.303 -0.1880 -0.1917  0.1730
 9096SOL    HW128187   6.781   3.797   3.353 -0.7567 -0.3514  0.1195
 9096SOL    HW228188   6.829   3.740   3.208 -3.1764 -0.5316 -0.6680
 9097SOL     OW28189   1.229   3.412   2.509  0.9164 -0.7057 -0.0933
 9097SOL    HW128190   1.210   3.495   2.562 -1.4353 -0.6851 -0.8696
 9097SOL    HW228191   1.195   3.423   2.416  0.3681 -2.6032 -0.1581
 9098SOL     OW28192   2.310   4.189   4.329 -0.1319  0.3485  0.1903
 9098SOL    HW128193   2.316   4.096   4.292  0.5496  0.2271  0.5981
 9098SOL    HW228194   2.220   4.227   4.307  0.5179  0.6060 -2.3841
 9099SOL     OW28195   2.299   1.345   6.900  0.0361 -0.3088 -0.8547
 9099SOL    HW128196   2.215   1.389   6.867  1.1641  1.8147 -1.0492
 9099SOL    HW228197   2.316   1.262   6.848 -2.5597 -1.4706  0.0021
 9100SOL     OW28198   1.790   3.717   4.530  0.2293 -0.6982  0.4136
 9100SOL    HW128199   1.821   3.808   4.557 -0.3554 -0.5993  0.7627
 9100SOL    HW228200   1.749   3.720   4.439  0.6530 -0.7094  0.2191
 9101SOL     OW28201   6.776   3.546   1.162  0.2479  0.0313 -0.6971
 9101SOL    HW128202   6.875   3.537   1.167  0.3288  0.8393 -0.7451
 9101SOL    HW228203   6.738   3.550   1.255  0.4808  1.8766 -0.6481
 9102SOL     OW28204   2.392   2.439   3.961  0.6759  0.3160  0.8739
 9102SOL    HW128205   2.462   2.408   3.896  0.4143 -1.3923  1.3572
 9102SOL    HW228206   2.425   2.426   4.054  0.8588  2.3230  1.1455
 9103SOL     OW28207   6.332   2.062   2.973  0.1046 -0.0464  0.0343
 9103SOL    HW128208   6.250   2.009   2.995  0.1315 -0.3087 -0.4732
 9103SOL    HW228209   6.310   2.160   2.978  0.0648 -0.1033  0.9991
 9104SOL     OW28210   4.121   2.522   5.953  0.0163 -0.5152  0.2185
 9104SOL    HW128211   4.081   2.577   6.026  1.9245 -1.1354  1.8111
 9104SOL    HW228212   4.220   2.516   5.966  0.0179 -3.4737 -0.4475
 9105SOL     OW28213   3.007   0.878   5.882 -0.6718  0.4767  0.1343
 9105SOL    HW128214   3.026   0.790   5.839  0.7329  0.0012  1.6132
 9105SOL    HW228215   3.016   0.951   5.814  5.4504  0.2059  0.0937
 9106SOL     OW28216   3.451   2.745   6.185 -0.0576 -0.0222 -0.3112
 9106SOL    HW128217   3.419   2.691   6.108  1.0706  1.1066 -1.6078
 9106SOL    HW228218   3.371   2.777   6.238 -0.9831  0.5939 -1.9913
 9107SOL     OW28219   3.861   6.015   3.113 -0.1855 -0.3737  0.6311
 9107SOL    HW128220   3.831   6.072   3.036 -0.0553 -0.7575  0.2929
 9107SOL    HW228221   3.947   5.971   3.089  0.5962  0.6242  1.5501
 9108SOL     OW28222   5.584   1.172   5.026 -0.0530  0.2576 -0.3279
 9108SOL    HW128223   5.666   1.120   5.052 -0.0162  0.7764  0.6581
 9108SOL    HW228224   5.611   1.260   4.987 -0.1353  0.3286 -0.2262
 9109SOL     OW28225   0.071   5.021   3.659  0.1179  0.1826  0.1429
 9109SOL    HW128226   0.166   5.051   3.656  0.3797 -0.0692  2.8055
 9109SOL    HW228227   0.066   4.933   3.706 -1.4536  0.4300  0.5010
 9110SOL     OW28228   2.120   6.592   1.037 -0.8613  0.2884  0.2601
 9110SOL    HW128229   2.113   6.691   1.049 -1.5980  0.4072 -1.0288
 9110SOL    HW228230   2.096   6.568   0.943  2.4548 -0.7919 -0.4384
 9111SOL     OW28231   3.824   2.334   6.664  0.3853  0.1442  0.4985
 9111SOL    HW128232   3.745   2.385   6.631  0.5311  1.1297  1.6193
 9111SOL    HW228233   3.803   2.294   6.753  0.8583 -0.3265  0.4043
 9112SOL     OW28234   1.383   3.372   0.024  0.3239  0.2062 -0.0677
 9112SOL    HW128235   1.469   3.373  -0.026  0.8368 -0.1451  0.7918
 9112SOL    HW228236   1.310   3.339  -0.036  1.2439 -1.8678 -0.1216
 9113SOL     OW28237   4.478   1.471   4.589 -0.2913 -0.2013  0.3912
 9113SOL    HW128238   4.474   1.541   4.661  1.0358  0.2149  0.0941
 9113SOL    HW228239   4.390   1.424   4.583 -1.7756  2.4299 -0.3673
 9114SOL     OW28240   0.283   2.924   6.911  0.2104  0.6491  0.2950
 9114SOL    HW128241   0.274   2.829   6.940 -4.8870 -0.6794 -4.0141
 9114SOL    HW228242   0.285   2.984   6.992  0.2498 -2.8851  3.1629
 9115SOL     OW28243   6.161   5.344   4.768  0.1525  0.9447  0.0978
 9115SOL    HW128244   6.073   5.304   4.741  0.2549  0.9408 -0.2396
 9115SOL    HW228245   6.221   5.273   4.804 -0.4877  1.1796  1.6855
 9116SOL     OW28246   1.989   5.490   3.886  0.1901  0.4531  0.6971
 9116SOL    HW128247   1.932   5.544   3.947  0.2986 -0.8559  2.0263
 9116SOL    HW228248   2.070   5.543   3.860  0.0424  1.1069  1.5451
 9117SOL     OW28249   2.450   1.818   2.102 -0.4916  0.0970 -0.2211
 9117SOL    HW128250   2.528   1.874   2.074 -0.6273 -0.4189 -1.7305
 9117SOL    HW228251   2.437   1.744   2.036 -0.1880 -1.8773  1.8059
 9118SOL     OW28252   6.155   0.144   0.605  0.0969 -0.3302 -0.3975
 9118SOL    HW128253   6.134   0.152   0.507 -0.1094  1.4614 -0.2294
 9118SOL    HW228254   6.204   0.226   0.636 -2.0095  0.3071  1.5260
 9119SOL     OW28255   1.815   2.225   0.797  0.3228 -0.1375 -0.2177
 9119SOL    HW128256   1.792   2.197   0.890 -0.7125  2.2812  0.3338
 9119SOL    HW228257   1.738   2.205   0.736 -0.4936  1.5448  0.2122
 9120SOL     OW28258   0.757   3.719   5.391  0.2292 -0.3596 -0.0634
 9120SOL    HW128259   0.792   3.788   5.328  0.5584  1.3756  1.9462
 9120SOL    HW228260   0.662   3.698   5.368  0.6282 -0.5425 -1.7212
 9121SOL     OW28261   5.414   0.076   4.404  0.0817 -0.0610  0.4234
 9121SOL    HW128262   5.366   0.150   4.451  0.3741  1.1226 -1.0902
 9121SOL    HW228263   5.350   0.027   4.345  0.2480  0.0556  0.1472
 9122SOL     OW28264   6.881   1.505   3.439  0.3918  0.5639 -0.2072
 9122SOL    HW128265   6.865   1.585   3.496 -1.4127 -0.8173  1.3539
 9122SOL    HW228266   6.971   1.467   3.459  0.2309  0.7408  0.8977
 9123SOL     OW28267   6.570   6.305   4.305  0.0528 -0.2552 -0.1721
 9123SOL    HW128268   6.654   6.289   4.356  0.7339  1.5746 -0.6486
 9123SOL    HW228269   6.514   6.222   4.307  1.1673 -1.0230  1.4180
 9124SOL     OW28270   3.731   4.661   0.151 -0.3862  0.2996  0.4422
 9124SOL    HW128271   3.722   4.667   0.051 -0.8334  0.2203  0.4768
 9124SOL    HW228272   3.783   4.579   0.175 -3.2910 -1.6898  0.4145
 9125SOL     OW28273   4.565   5.837   1.825 -0.3564 -0.3243  0.3444
 9125SOL    HW128274   4.558   5.737   1.823 -0.1799 -0.3677  1.3246
 9125SOL    HW228275   4.601   5.870   1.738  0.2268 -1.1759  0.2530
 9126SOL     OW28276   3.469   5.074   6.112  0.1033  0.4139  0.1239
 9126SOL    HW128277   3.465   5.172   6.133 -1.8585  0.1279  1.3682
 9126SOL    HW228278   3.437   5.022   6.192 -0.3296 -1.1548 -1.0346
 9127SOL     OW28279   5.297   3.078   6.355  0.0415  0.8918 -0.5805
 9127SOL    HW128280   5.293   2.982   6.381  0.2064  1.1116  0.2791
 9127SOL    HW228281   5.313   3.085   6.256 -1.9576  0.0295 -1.0245
 9128SOL     OW28282   6.850   3.511   0.363  0.4242 -0.0182 -0.2254
 9128SOL    HW128283   6.888   3.590   0.411  0.8741 -0.7194  0.6122
 9128SOL    HW228284   6.787   3.542   0.292  1.0010  1.1026 -0.2688
 9129SOL     OW28285   0.696   1.642   1.163  0.1641 -0.3438  0.2448
 9129SOL    HW128286   0.757   1.684   1.096 -1.9027 -1.2326 -2.3742
 9129SOL    HW228287   0.663   1.555   1.128 -3.2647  0.4824  1.0665
 9130SOL     OW28288   2.976   3.772   6.393 -0.1056 -0.0198  0.3810
 9130SOL    HW128289   2.994   3.690   6.339 -1.2714 -1.0393  1.4796
 9130SOL    HW228290   2.958   3.849   6.331 -2.0722 -1.2855 -0.7471
 9131SOL     OW28291   1.073   1.771   0.650 -0.2071  0.4790 -0.0298
 9131SOL    HW128292   1.013   1.714   0.594  0.6117 -0.2097 -0.2098
 9131SOL    HW228293   1.153   1.718   0.679 -0.8581  0.6191  2.2559
 9132SOL     OW28294   0.967   6.309   3.493 -0.3426 -0.4475  0.2363
 9132SOL    HW128295   0.931   6.349   3.578 -1.5578 -0.7585 -0.1118
 9132SOL    HW228296   1.043   6.247   3.515  2.5307  2.9249  0.6892
 9133SOL     OW28297   5.066   0.303   1.065  0.6070  0.2413  0.4805
 9133SOL    HW128298   5.136   0.318   1.134  0.7939 -1.6728  0.7615
 9133SOL    HW228299   5.097   0.338   0.977  2.1591 -1.0174  0.4916
 9134SOL     OW28300   4.540   3.949   5.727 -0.5441 -0.7855  0.6679
 9134SOL    HW128301   4.457   3.992   5.763 -1.0755  0.7204 -2.0659
 9134SOL    HW228302   4.517   3.894   5.647  0.8301 -2.3891  1.3091
 9135SOL     OW28303   0.824   4.027   6.853 -0.0687 -0.0035  0.2122
 9135SOL    HW128304   0.880   4.094   6.806 -0.5083 -0.1721 -0.5614
 9135SOL    HW228305   0.743   4.072   6.893 -1.5134 -0.3494 -2.1405
 9136SOL     OW28306   7.000   4.590   1.020 -0.3745 -0.3860  0.4612
 9136SOL    HW128307   6.999   4.509   0.963  3.2162  0.3611 -0.9196
 9136SOL    HW228308   7.017   4.671   0.963  0.1676  0.8119  2.2375
 9137SOL     OW28309   4.053   6.554   5.563 -0.0663 -0.3556 -0.3613
 9137SOL    HW128310   4.068   6.591   5.654  0.6855 -0.8290 -0.2797
 9137SOL    HW228311   3.995   6.472   5.569 -2.2143  1.0639 -0.6003
 9138SOL     OW28312   3.758   4.519   6.692 -0.4905 -0.1214  0.4094
 9138SOL    HW128313   3.775   4.422   6.709  0.3934 -0.2158 -0.8907
 9138SOL    HW228314   3.690   4.529   6.620 -0.4421  0.2165  0.4100
 9139SOL     OW28315   2.233   0.970   6.719  0.3087  0.0366  0.2681
 9139SOL    HW128316   2.278   1.056   6.695  1.9027 -0.6491  0.6768
 9139SOL    HW228317   2.297   0.894   6.705 -1.4651 -1.2517 -1.3389
 9140SOL     OW28318   6.642   1.377   3.413  0.5115 -0.2775  0.0911
 9140SOL    HW128319   6.720   1.438   3.424  0.5703 -0.3071 -0.1705
 9140SOL    HW228320   6.557   1.430   3.424  0.5647 -0.3206  0.7809
 9141SOL     OW28321   6.618   5.053   4.922  0.1607  0.0739 -0.3028
 9141SOL    HW128322   6.637   5.088   4.831 -1.8781 -0.3442 -0.9291
 9141SOL    HW228323   6.574   4.964   4.916  1.4136 -0.7080  1.1608
 9142SOL     OW28324   6.966   3.333   2.683  0.0514 -0.1628  0.2055
 9142SOL    HW128325   7.039   3.337   2.614 -0.2849  0.3362 -0.1288
 9142SOL    HW228326   7.002   3.363   2.771  0.0592  0.8468 -0.1279
 9143SOL     OW28327   5.654   4.597   2.324 -0.1230 -0.6606  0.1808
 9143SOL    HW128328   5.582   4.666   2.317  0.7425  0.2735  0.2542
 9143SOL    HW228329   5.652   4.555   2.415  1.2436  1.4571  1.2551
 9144SOL     OW28330   1.437   4.244   5.304  0.4084 -0.1877 -0.2589
 9144SOL    HW128331   1.515   4.267   5.363  0.6887  2.9642 -1.6733
 9144SOL    HW228332   1.410   4.324   5.252 -2.3860 -1.8128 -1.5276
 9145SOL     OW28333   1.816   1.513   5.798 -0.3435 -0.5716  0.1161
 9145SOL    HW128334   1.751   1.555   5.861 -0.9619 -1.5546  0.1616
 9145SOL    HW228335   1.907   1.548   5.815 -0.9681  1.4456 -0.4770
 9146SOL     OW28336   6.705   0.026   3.989  0.0070  0.0771  0.0834
 9146SOL    HW128337   6.705   0.048   4.087  1.8339 -1.6174  0.5286
 9146SOL    HW228338   6.774   0.082   3.942 -0.2189  0.2272 -0.0717
 9147SOL     OW28339   2.926   0.407   6.537  0.0180  0.3942 -0.1280
 9147SOL    HW128340   2.878   0.495   6.531  1.6505  1.2963 -0.7327
 9147SOL    HW228341   2.991   0.399   6.461  0.0173 -1.2848  0.0063
 9148SOL     OW28342   2.766   5.648   0.681  0.0094 -0.1051  0.2245
 9148SOL    HW128343   2.815   5.563   0.696  1.6001  0.4132 -1.6089
 9148SOL    HW228344   2.817   5.724   0.722  0.1506  0.3073 -0.7003
 9149SOL     OW28345   6.231   4.070   2.079  0.0294 -0.5967 -0.0369
 9149SOL    HW128346   6.252   4.004   2.007 -0.5918  0.0898 -0.8763
 9149SOL    HW228347   6.190   4.152   2.038 -1.0591 -0.4967  1.1839
 9150SOL     OW28348   4.261   3.474   1.383 -0.2919 -0.3054 -0.2686
 9150SOL    HW128349   4.178   3.424   1.358 -0.9027  0.4468  0.2055
 9150SOL    HW228350   4.242   3.531   1.463  1.4470 -2.2160  1.6208
 9151SOL     OW28351   1.202   4.072   2.966  0.4170  0.8095 -0.0555
 9151SOL    HW128352   1.142   4.093   2.888 -0.8289 -0.6543  0.4558
 9151SOL    HW228353   1.185   3.979   2.997  1.5313  1.0536  1.4147
 9152SOL     OW28354   3.548   6.105   3.394 -0.3357  0.0804 -0.8889
 9152SOL    HW128355   3.510   6.154   3.472 -1.3478 -2.8855  0.6056
 9152SOL    HW228356   3.632   6.059   3.420 -0.8452 -1.2037 -1.4037
 9153SOL     OW28357   0.797   2.136   3.269  0.4458  0.7069 -0.1450
 9153SOL    HW128358   0.854   2.211   3.234  1.2694  0.8558  1.3956
 9153SOL    HW228359   0.730   2.174   3.333 -0.1894  0.3078 -0.5757
 9154SOL     OW28360   5.379   4.694   1.721  0.4995  0.3714 -0.3696
 9154SOL    HW128361   5.468   4.737   1.705  0.4817  0.3225 -0.6043
 9154SOL    HW228362   5.350   4.711   1.815  0.5710  0.7313 -0.4120
 9155SOL     OW28363   5.499   5.395   0.320  0.2472  0.1984  0.1653
 9155SOL    HW128364   5.589   5.427   0.295  0.0832  1.7107  1.3808
 9155SOL    HW228365   5.495   5.295   0.311  1.2808  0.3099 -2.1046
 9156SOL     OW28366   6.800   4.003   4.297  0.3854 -0.0428  0.2363
 9156SOL    HW128367   6.748   3.929   4.253  3.1350 -1.6271 -0.6195
 9156SOL    HW228368   6.843   4.060   4.228  1.2721  0.0966  0.8810
 9157SOL     OW28369   4.645   5.413   4.104  0.2972  0.1167  0.3224
 9157SOL    HW128370   4.592   5.370   4.177  1.1270 -0.3353  0.6704
 9157SOL    HW228371   4.669   5.506   4.130 -2.7841  1.4094 -1.0561
 9158SOL     OW28372   6.970   2.814   2.888  0.0817 -0.6517 -0.6160
 9158SOL    HW128373   6.871   2.827   2.892  0.3693  1.7478 -0.3541
 9158SOL    HW228374   7.009   2.876   2.821  1.6007 -0.3296  0.5291
 9159SOL     OW28375   2.295   0.992   4.290  0.5603  0.8594 -0.2867
 9159SOL    HW128376   2.370   1.058   4.284  0.8367  1.2290  4.0378
 9159SOL    HW228377   2.211   1.039   4.317  0.5207 -0.2581  1.8340
 9160SOL     OW28378   0.251   1.969   0.876 -0.1861 -0.1767 -0.2408
 9160SOL    HW128379   0.255   1.992   0.974 -1.8463  0.5650 -0.3140
 9160SOL    HW228380   0.333   2.004   0.831  0.1555  0.3206  0.7285
 9161SOL     OW28381   0.686   2.208   2.928  0.4645  0.0573 -0.5756
 9161SOL    HW128382   0.689   2.213   2.829 -0.6999 -0.1715 -0.6367
 9161SOL    HW228383   0.599   2.168   2.957  0.9007 -0.1287  0.5270
 9162SOL     OW28384   3.806   1.610   2.038  0.3243  0.5883  0.7095
 9162SOL    HW128385   3.813   1.640   1.943  0.6904  0.7252  0.7753
 9162SOL    HW228386   3.788   1.689   2.096  0.3546  0.5433  0.7804
 9163SOL     OW28387   2.462   2.646   2.751  0.4712  0.3051  0.4600
 9163SOL    HW128388   2.549   2.604   2.724  1.1568  2.1640 -0.3741
 9163SOL    HW228389   2.387   2.597   2.708  1.1352 -0.8928  0.6166
 9164SOL     OW28390   4.228   6.544   1.882 -0.3717  0.2654  0.3720
 9164SOL    HW128391   4.236   6.512   1.977 -0.9709 -0.1431  0.2870
 9164SOL    HW228392   4.235   6.644   1.881  0.0545  0.2485  0.7957
 9165SOL     OW28393   5.293   1.865   0.196 -0.6400 -0.3458 -0.1595
 9165SOL    HW128394   5.257   1.860   0.289  0.5245  1.7773  0.4644
 9165SOL    HW228395   5.257   1.946   0.150  0.4591 -0.2028 -0.8079
 9166SOL     OW28396   2.533   1.050   2.734 -0.1316 -0.3448 -0.0961
 9166SOL    HW128397   2.613   1.042   2.793 -0.6783 -0.4643  0.6481
 9166SOL    HW228398   2.516   0.963   2.689 -0.8109 -0.8319  1.0474
 9167SOL     OW28399   0.856   3.365   6.598 -0.4038  0.2483  0.0213
 9167SOL    HW128400   0.757   3.354   6.595 -0.7967  1.2269  3.7268
 9167SOL    HW228401   0.879   3.441   6.659  2.6604  0.5577 -1.3270
 9168SOL     OW28402   4.973   0.126   3.357 -0.4970  0.0668  0.4944
 9168SOL    HW128403   4.876   0.145   3.374  0.2022  2.9904  1.8675
 9168SOL    HW228404   5.004   0.179   3.278  0.1741 -0.1651  0.5955
 9169SOL     OW28405   4.948   0.236   6.942 -0.2842 -0.8550  0.7055
 9169SOL    HW128406   4.881   0.162   6.947 -1.7963  0.3960 -0.3562
 9169SOL    HW228407   4.911   0.318   6.985  0.6896 -0.2213  0.3753
 9170SOL     OW28408   2.303   4.674   2.043  0.0641 -0.0132 -0.2725
 9170SOL    HW128409   2.325   4.759   2.090 -1.8568 -0.4293  1.5383
 9170SOL    HW228410   2.382   4.613   2.044  0.9969  1.1628 -0.2822
 9171SOL     OW28411   3.780   5.863   5.076  0.0253  0.3196  0.7944
 9171SOL    HW128412   3.810   5.842   5.169 -1.7751 -0.8814  1.1577
 9171SOL    HW228413   3.777   5.779   5.022 -1.0279  0.6483  0.3115
 9172SOL     OW28414   4.648   0.510   5.907 -0.1855 -0.3619  0.1501
 9172SOL    HW128415   4.685   0.578   5.844  1.0254 -0.6166  0.5703
 9172SOL    HW228416   4.660   0.541   6.001 -0.9196 -0.5185  0.3031
 9173SOL     OW28417   5.179   4.256   6.325  0.0059 -0.2885 -0.3304
 9173SOL    HW128418   5.097   4.200   6.334  0.0291 -0.3887 -0.7016
 9173SOL    HW228419   5.157   4.341   6.277 -0.0685  0.1141  0.4042
 9174SOL     OW28420   0.303   6.464   6.922  0.0082  0.2217 -0.9058
 9174SOL    HW128421   0.324   6.390   6.985  0.6622  0.9606 -0.2347
 9174SOL    HW228422   0.388   6.508   6.893 -0.4554  2.5761  1.0062
 9175SOL     OW28423   2.736   1.488   1.808  0.2198  0.6473 -0.2565
 9175SOL    HW128424   2.827   1.462   1.775  0.7604 -0.3590  1.8767
 9175SOL    HW228425   2.666   1.436   1.758  0.8327  0.8213 -1.3318
 9176SOL     OW28426   1.491   2.038   2.551 -0.5976  0.3174 -0.0467
 9176SOL    HW128427   1.407   1.988   2.530 -0.0787 -0.1636 -1.0252
 9176SOL    HW228428   1.565   1.973   2.569 -0.2858  0.7390  0.2330
 9177SOL     OW28429   0.120   5.097   4.005  0.1216  0.2360  0.1774
 9177SOL    HW128430   0.205   5.050   4.031  0.4607  0.4323 -0.5552
 9177SOL    HW228431   0.046   5.031   3.996  0.6451 -0.2041 -1.0521
 9178SOL     OW28432   6.974   1.366   2.324  0.2863  0.7496  0.3718
 9178SOL    HW128433   6.975   1.315   2.410 -1.1224  1.5229  0.8784
 9178SOL    HW228434   6.893   1.341   2.270  0.4200  1.2750 -0.0920
 9179SOL     OW28435   6.077   6.154   0.517 -0.3568 -0.3083 -0.1870
 9179SOL    HW128436   6.101   6.238   0.468  0.4789 -0.4675 -0.0621
 9179SOL    HW228437   6.100   6.164   0.614 -0.3986 -0.6279 -0.1430
 9180SOL     OW28438   1.562   1.968   4.747 -0.1274  0.0817  0.0958
 9180SOL    HW128439   1.546   1.985   4.650  0.8304  1.3819  0.1509
 9180SOL    HW228440   1.486   2.006   4.801 -0.6140 -0.5630 -0.1258
 9181SOL     OW28441   1.659   2.823   3.130 -0.0425  0.2912  0.6110
 9181SOL    HW128442   1.724   2.793   3.200  1.2367  0.8180 -0.3164
 9181SOL    HW228443   1.625   2.914   3.153 -1.1094 -0.3082  1.5159
 9182SOL     OW28444   5.908   5.666   1.665  0.1784 -0.2845 -0.2794
 9182SOL    HW128445   5.963   5.743   1.699 -0.6489 -0.1997  0.9060
 9182SOL    HW228446   5.964   5.583   1.666  0.2028 -0.2758  1.2614
 9183SOL     OW28447   2.596   0.457   5.851  0.1458  0.2676 -0.0797
 9183SOL    HW128448   2.589   0.421   5.944 -0.6771  1.1260  0.2042
 9183SOL    HW228449   2.554   0.393   5.787 -0.3393  0.2175  0.2869
 9184SOL     OW28450   2.351   5.453   6.581 -0.1026  0.2200 -0.0765
 9184SOL    HW128451   2.408   5.511   6.639  0.4749  0.3899 -0.7916
 9184SOL    HW228452   2.311   5.508   6.507 -0.2737 -0.1171 -0.2414
 9185SOL     OW28453   6.762   2.893   0.041 -0.0295  0.1658  0.9265
 9185SOL    HW128454   6.792   2.953   0.115 -0.3363  1.4102  0.0631
 9185SOL    HW228455   6.827   2.897  -0.034 -0.5433  0.1549  0.4770
 9186SOL     OW28456   5.088   0.172   0.488 -0.4302  0.0213 -0.7382
 9186SOL    HW128457   5.118   0.264   0.514 -1.5223 -0.5665  3.4430
 9186SOL    HW228458   4.990   0.173   0.469 -0.5782 -0.3256 -0.0433
 9187SOL     OW28459   5.135   4.001   1.021  0.3330  0.5265 -0.0318
 9187SOL    HW128460   5.093   3.953   1.098 -0.0262 -0.0766 -0.5861
 9187SOL    HW228461   5.142   4.098   1.042 -0.4798  0.4897  0.4546
 9188SOL     OW28462   3.072   0.561   4.691  0.3857 -0.4434  0.5373
 9188SOL    HW128463   3.057   0.651   4.731  1.6208 -0.3961  0.9201
 9188SOL    HW228464   3.142   0.567   4.620  0.2763 -1.0577  0.3685
 9189SOL     OW28465   4.843   1.283   1.381  0.1968  0.0979 -0.1313
 9189SOL    HW128466   4.861   1.249   1.473  0.8671  1.6837  0.3450
 9189SOL    HW228467   4.755   1.246   1.349 -0.4555  0.1894  1.4677
 9190SOL     OW28468   1.675   1.857   6.026 -0.7852  0.3999 -0.4175
 9190SOL    HW128469   1.650   1.768   5.989 -1.0602  1.5978 -3.3536
 9190SOL    HW228470   1.761   1.850   6.077  1.7530 -0.8476 -4.4641
 9191SOL     OW28471   5.808   6.621   2.268 -0.0145  0.9862 -1.1442
 9191SOL    HW128472   5.880   6.690   2.276  0.3938  0.8339 -3.1310
 9191SOL    HW228473   5.733   6.656   2.212 -1.4404  1.0487  0.6872
 9192SOL     OW28474   4.293   6.002   2.352 -0.1891 -0.4266  0.2973
 9192SOL    HW128475   4.281   5.988   2.450  1.5002  1.0549  0.7665
 9192SOL    HW228476   4.331   5.918   2.311 -1.7125 -1.3538  0.7109
 9193SOL     OW28477   2.906   4.591   0.874  0.7294 -0.1464 -0.0229
 9193SOL    HW128478   2.966   4.524   0.831  0.2659 -0.2669 -0.4910
 9193SOL    HW228479   2.834   4.544   0.925  1.9864 -0.0245  1.9572
 9194SOL     OW28480   2.880   6.862   2.974  0.0232  0.0509  0.3042
 9194SOL    HW128481   2.797   6.917   2.965  1.2076  1.8357 -0.5144
 9194SOL    HW228482   2.925   6.883   3.060 -0.9640 -1.8644  1.3465
 9195SOL     OW28483   1.851   2.350   3.671  0.2413 -0.0387  0.5931
 9195SOL    HW128484   1.890   2.379   3.758  1.3734 -0.6713  0.3252
 9195SOL    HW228485   1.804   2.262   3.683 -1.5388  0.9247  1.0057
 9196SOL     OW28486   0.423   5.090   3.315  0.3866 -0.0768 -0.0977
 9196SOL    HW128487   0.383   5.179   3.295  1.7742  1.0755  1.8470
 9196SOL    HW228488   0.465   5.052   3.233 -1.6039  0.2731 -1.3301
 9197SOL     OW28489   5.267   2.468   0.459 -0.6805  0.3971  0.3258
 9197SOL    HW128490   5.341   2.522   0.499  0.8257 -0.4193 -1.2331
 9197SOL    HW228491   5.302   2.377   0.434 -2.7708 -0.8062  1.5003
 9198SOL     OW28492   6.513   4.581   4.268 -0.2106 -0.3203  0.6085
 9198SOL    HW128493   6.606   4.545   4.276  0.3994  1.1871  0.5898
 9198SOL    HW228494   6.450   4.506   4.251  0.7788 -1.5767  2.1428
 9199SOL     OW28495   0.113   2.340   0.326  0.4551  0.5633 -0.1741
 9199SOL    HW128496   0.072   2.253   0.298 -0.1194  1.3697 -2.0144
 9199SOL    HW228497   0.045   2.395   0.374  1.1751 -0.4479  2.1302
 9200SOL     OW28498   4.069   5.111   3.207 -0.3311 -0.0494 -0.4970
 9200SOL    HW128499   4.026   5.030   3.167  1.2247 -1.7873  1.1766
 9200SOL    HW228500   4.134   5.083   3.277 -0.2037  2.7193  0.5968
 9201SOL     OW28501   4.882   2.486   2.783 -0.5203 -0.2089  0.2578
 9201SOL    HW128502   4.813   2.558   2.774 -1.0311 -0.8694 -1.3478
 9201SOL    HW228503   4.935   2.502   2.866 -1.1914  1.5176  0.3947
 9202SOL     OW28504   1.191   5.843   4.936  0.2374 -0.3828  0.7227
 9202SOL    HW128505   1.151   5.751   4.939 -0.4473 -0.1012  0.3168
 9202SOL    HW228506   1.172   5.885   4.848 -0.3747  0.5615  1.2850
 9203SOL     OW28507   6.488   2.465   0.407 -0.1012 -0.4404 -0.8355
 9203SOL    HW128508   6.474   2.564   0.410  0.7147 -0.3245  1.1365
 9203SOL    HW228509   6.412   2.421   0.360 -0.0682  1.1752 -2.4791
 9204SOL     OW28510   5.493   2.398   2.485 -0.3433  0.2421  0.1132
 9204SOL    HW128511   5.462   2.390   2.580 -1.6420 -0.5839 -0.3668
 9204SOL    HW228512   5.418   2.431   2.428  0.1493 -0.1670 -0.7849
 9205SOL     OW28513   6.123   2.947   0.507  0.8537  0.1913  0.0492
 9205SOL    HW128514   6.216   2.947   0.470  0.6759 -0.4639 -0.4050
 9205SOL    HW228515   6.076   3.032   0.481  0.7276 -0.2602 -1.2419
 9206SOL     OW28516   6.597   6.917   6.241  0.2613  0.2319  0.2720
 9206SOL    HW128517   6.686   6.928   6.284  0.3092  2.0019 -0.1851
 9206SOL    HW228518   6.575   7.000   6.189 -0.4745 -1.2153 -1.8375
 9207SOL     OW28519   5.829   6.176   0.851  0.6243 -0.2378  0.1718
 9207SOL    HW128520   5.790   6.085   0.866  0.8911 -0.0594  2.3126
 9207SOL    HW228521   5.756   6.240   0.826  0.1654 -0.6913  0.3379
 9208SOL     OW28522   0.701   2.172   1.796  0.2993  0.0730 -0.6180
 9208SOL    HW128523   0.624   2.215   1.842  0.3952  1.1218 -1.4133
 9208SOL    HW228524   0.779   2.166   1.859 -0.4122 -1.0554  0.2128
 9209SOL     OW28525   4.161   0.709   3.927  0.4236  0.1947 -0.2104
 9209SOL    HW128526   4.216   0.793   3.930  0.5227  0.2017 -1.5215
 9209SOL    HW228527   4.199   0.647   3.858  0.2495 -0.8700  0.6305
 9210SOL     OW28528   1.323   5.084   0.912 -0.0861 -0.5145  0.1125
 9210SOL    HW128529   1.233   5.106   0.950  0.2355  0.5305  0.2987
 9210SOL    HW228530   1.383   5.050   0.985 -0.8006 -2.8248 -0.3022
 9211SOL     OW28531   4.746   0.729   6.979 -0.5253 -0.1409  0.6551
 9211SOL    HW128532   4.813   0.783   6.929  0.2034 -0.4680  1.2656
 9211SOL    HW228533   4.681   0.688   6.915  1.1102 -1.5619 -0.1541
 9212SOL     OW28534   4.498   4.700   4.881  0.0155 -0.2537  0.1719
 9212SOL    HW128535   4.529   4.787   4.920 -0.4699  0.3047 -0.6511
 9212SOL    HW228536   4.429   4.660   4.941  1.3715 -0.8835  1.3730
 9213SOL     OW28537   0.648   6.208   4.449 -0.2633  0.1177 -0.0413
 9213SOL    HW128538   0.690   6.299   4.447 -0.3326  0.2067 -3.5426
 9213SOL    HW228539   0.717   6.139   4.430 -0.5596 -0.4176  0.7583
 9214SOL     OW28540   0.538   2.181   4.888  0.2651  0.7158 -0.8907
 9214SOL    HW128541   0.546   2.249   4.961  0.1295  1.6338 -1.7012
 9214SOL    HW228542   0.568   2.092   4.921 -2.3169  0.4616  1.1402
 9215SOL     OW28543   1.325   2.638   5.384 -0.0685 -0.4415 -0.0624
 9215SOL    HW128544   1.368   2.556   5.422 -0.2526 -0.2115  0.6455
 9215SOL    HW228545   1.387   2.716   5.396  0.8291 -0.7527 -2.2026
 9216SOL     OW28546   2.085   6.498   2.721  0.5620 -0.0315 -0.6308
 9216SOL    HW128547   2.161   6.465   2.777  0.1730  3.8196  2.6172
 9216SOL    HW228548   2.121   6.544   2.641  1.4320 -0.9781 -0.8115
 9217SOL     OW28549   6.210   1.538   1.804 -0.0366  0.2425 -0.1417
 9217SOL    HW128550   6.269   1.588   1.866  0.2759 -0.7174  0.3523
 9217SOL    HW228551   6.262   1.513   1.721 -0.6947  2.2930 -1.2302
 9218SOL     OW28552   5.306   4.639   6.292 -0.3388  0.3777  0.6295
 9218SOL    HW128553   5.387   4.582   6.282 -0.7314 -0.2887  1.1314
 9218SOL    HW228554   5.311   4.716   6.228  0.7600  0.4452  0.7769
 9219SOL     OW28555   3.772   3.972   4.608 -0.2633  0.2328 -0.0954
 9219SOL    HW128556   3.708   3.984   4.532  0.2258 -1.4965 -0.8420
 9219SOL    HW228557   3.863   3.950   4.571 -0.2315 -1.6553  0.9559
 9220SOL     OW28558   6.693   6.673   3.634 -0.0133  0.8139  0.0419
 9220SOL    HW128559   6.729   6.602   3.574 -0.8859  0.7400 -0.4057
 9220SOL    HW228560   6.659   6.749   3.579 -0.1208  1.0805  0.4708
 9221SOL     OW28561   1.797   2.656   3.290  0.5200 -0.1018  0.3477
 9221SOL    HW128562   1.731   2.600   3.339  0.5941  1.3974  2.2546
 9221SOL    HW228563   1.882   2.604   3.279 -0.2586 -1.2908 -0.3065
 9222SOL     OW28564   0.877   4.895   2.648 -0.0535  0.3390 -0.0318
 9222SOL    HW128565   0.860   4.986   2.611  0.1749  0.8665  1.1081
 9222SOL    HW228566   0.814   4.829   2.607 -2.0718  1.4953  1.0705
 9223SOL     OW28567   0.048   4.944   4.379 -0.4074 -0.1918 -0.2125
 9223SOL    HW128568   0.122   4.943   4.447  0.4355  2.3462 -0.9952
 9223SOL    HW228569   0.070   4.882   4.305 -0.5880 -1.8001  1.0191
 9224SOL     OW28570   2.811   6.348   0.083 -0.0331  0.2284 -0.3892
 9224SOL    HW128571   2.833   6.361   0.179  0.4462 -0.6387 -0.3755
 9224SOL    HW228572   2.772   6.257   0.069 -1.3742  0.8360 -0.8080
 9225SOL     OW28573   6.224   4.407   5.771  0.0727  0.2619 -0.2998
 9225SOL    HW128574   6.150   4.471   5.749  1.6020  2.3415  0.2589
 9225SOL    HW228575   6.232   4.399   5.871 -2.5594 -3.9418 -0.1953
 9226SOL     OW28576   6.005   6.959   4.139 -0.1922  0.0880  0.1447
 9226SOL    HW128577   5.908   6.951   4.115 -0.5587 -0.2670  1.6196
 9226SOL    HW228578   6.061   6.914   4.070 -1.0368  0.6562 -0.9452
 9227SOL     OW28579   4.033   1.639   6.560  0.4463 -0.1608  0.4749
 9227SOL    HW128580   4.038   1.618   6.462 -1.7991 -1.1278  0.4897
 9227SOL    HW228581   3.995   1.730   6.573  0.9706  0.0629  0.4525
 9228SOL     OW28582   3.143   3.234   4.550 -0.3721  0.1808 -0.2913
 9228SOL    HW128583   3.087   3.258   4.629 -0.0203 -0.3358  0.1299
 9228SOL    HW228584   3.105   3.275   4.467  0.1441  2.0786  0.3573
 9229SOL     OW28585   0.953   5.734   2.701  0.5617  0.2664  0.6117
 9229SOL    HW128586   0.887   5.744   2.627 -1.0190  1.3644  2.0671
 9229SOL    HW228587   0.941   5.645   2.745  1.4152 -0.3333 -0.3161
 9230SOL     OW28588   4.660   6.917   6.175  0.4474  0.3418 -0.4684
 9230SOL    HW128589   4.601   6.874   6.244 -1.7189  0.2602 -2.2533
 9230SOL    HW228590   4.676   7.013   6.200 -1.6700  0.7872 -0.5809
 9231SOL     OW28591   6.137   4.115   2.824  0.5054  0.0516  0.2062
 9231SOL    HW128592   6.114   4.064   2.907  0.5143 -0.1572  0.0822
 9231SOL    HW228593   6.218   4.076   2.782 -0.1289 -0.5508 -0.4976
 9232SOL     OW28594   6.486   4.529   0.071 -0.5735  0.2751  0.1076
 9232SOL    HW128595   6.455   4.518   0.165 -0.6476 -0.2716  0.0210
 9232SOL    HW228596   6.513   4.440   0.033  0.5054  0.6418 -0.0305
 9233SOL     OW28597   4.984   0.444   6.682 -0.4747 -0.2528 -0.2364
 9233SOL    HW128598   4.885   0.436   6.672 -0.3614 -0.4812 -1.1770
 9233SOL    HW228599   5.024   0.354   6.696 -0.1184 -0.5166 -2.5892
 9234SOL     OW28600   1.897   3.863   1.942 -0.4630 -0.3397  0.3671
 9234SOL    HW128601   1.994   3.845   1.928 -0.3884  0.0212  0.4141
 9234SOL    HW228602   1.868   3.825   2.030 -0.5340 -1.0879  0.0296
 9235SOL     OW28603   6.228   1.534   3.039  0.2560 -0.2382  0.3179
 9235SOL    HW128604   6.239   1.598   2.962  1.8654 -0.3779  0.4093
 9235SOL    HW228605   6.131   1.526   3.061 -0.0532  1.6391 -0.1571
 9236SOL     OW28606   2.395   4.428   4.441  0.0102  0.1104 -0.1290
 9236SOL    HW128607   2.361   4.335   4.434  0.8492 -0.2604  0.5024
 9236SOL    HW228608   2.487   4.433   4.403 -0.0640  0.7074 -0.2443
 9237SOL     OW28609   2.495   5.863   5.790 -0.0703  0.4624  0.6062
 9237SOL    HW128610   2.437   5.919   5.848 -0.4756  0.4716  0.2012
 9237SOL    HW228611   2.443   5.833   5.710  0.3287  0.0343  0.5021
 9238SOL     OW28612   3.903   1.170   6.455  0.6332  0.4314 -0.1390
 9238SOL    HW128613   3.827   1.201   6.513  0.0532 -0.8965 -0.1457
 9238SOL    HW228614   3.881   1.188   6.359  0.5053  0.4215 -0.1122
 9239SOL     OW28615   0.891   5.117   5.963 -0.2801  0.0559  0.2405
 9239SOL    HW128616   0.910   5.091   6.057  1.1287  2.6993  0.8037
 9239SOL    HW228617   0.870   5.036   5.909  0.2096 -1.6868  2.5139
 9240SOL     OW28618   6.914   1.495   4.772  0.0612  0.5139 -0.2092
 9240SOL    HW128619   6.983   1.553   4.816  1.0021  0.9144 -2.1178
 9240SOL    HW228620   6.940   1.478   4.677 -2.3293  0.4303 -0.9158
 9241SOL     OW28621   6.312   5.634   6.070  0.1101 -0.1236  0.1313
 9241SOL    HW128622   6.410   5.654   6.070  0.9472 -3.4908  1.0961
 9241SOL    HW228623   6.288   5.584   5.987 -0.9513  1.1503 -0.3571
 9242SOL     OW28624   3.581   3.537   6.886  0.8498 -0.7305  0.0870
 9242SOL    HW128625   3.517   3.469   6.921  1.4027 -1.5802 -0.5272
 9242SOL    HW228626   3.554   3.563   6.793  0.7637 -0.2607  0.2396
 9243SOL     OW28627   2.099   1.662   1.643  0.0673  0.1021 -0.1486
 9243SOL    HW128628   2.128   1.567   1.628  0.6118 -0.2029  2.3715
 9243SOL    HW228629   2.175   1.724   1.625  0.8843 -0.2955  1.6908
 9244SOL     OW28630   2.166   5.782   6.880 -0.0533 -0.0344  0.0932
 9244SOL    HW128631   2.145   5.745   6.789  0.4124  1.9756 -0.8982
 9244SOL    HW228632   2.131   5.876   6.886  0.7597  0.1895  1.6694
 9245SOL     OW28633   1.589   3.699   3.704  0.2175 -0.2945  0.3788
 9245SOL    HW128634   1.587   3.640   3.785 -0.2062 -0.7889  0.0195
 9245SOL    HW228635   1.682   3.730   3.686  0.4431 -0.8547  0.5791
 9246SOL     OW28636   4.675   2.171   6.460  0.0079 -0.3610  0.3896
 9246SOL    HW128637   4.667   2.223   6.374 -1.7014  0.7418  1.1667
 9246SOL    HW228638   4.586   2.133   6.484  1.0404 -3.1266  0.2557
 9247SOL     OW28639   1.807   4.451   1.812  0.0096  0.7774 -0.2589
 9247SOL    HW128640   1.858   4.521   1.762 -1.3139  1.7950 -0.2475
 9247SOL    HW228641   1.843   4.443   1.905  1.2533  0.2206 -0.7598
 9248SOL     OW28642   2.461   1.614   6.693 -0.2129 -0.2916  0.0501
 9248SOL    HW128643   2.517   1.558   6.754  0.0017 -0.1517 -0.0163
 9248SOL    HW228644   2.393   1.556   6.648  1.3203 -0.9134 -1.5838
 9249SOL     OW28645   2.473   2.082   0.849 -0.5898  0.2685 -0.4329
 9249SOL    HW128646   2.392   2.035   0.812 -1.0133  1.8467 -1.6352
 9249SOL    HW228647   2.552   2.021   0.843 -1.2946 -0.6152 -1.1097
 9250SOL     OW28648   0.192   3.254   3.233 -0.6771  0.0141 -0.1328
 9250SOL    HW128649   0.100   3.274   3.264 -0.8213 -0.0510 -0.5088
 9250SOL    HW228650   0.190   3.174   3.172 -0.3304 -0.1840  0.1110
 9251SOL     OW28651   4.783   2.607   0.859 -0.0093  0.2946 -0.2254
 9251SOL    HW128652   4.806   2.522   0.811 -0.0466 -0.4304  0.9926
 9251SOL    HW228653   4.863   2.640   0.907  0.2582  1.4840 -1.4360
 9252SOL     OW28654   4.504   0.503   4.744 -0.1406 -0.0970 -0.4949
 9252SOL    HW128655   4.548   0.500   4.654 -0.8988  1.1842 -0.9266
 9252SOL    HW228656   4.450   0.586   4.752  0.7503  0.3396  1.5604
 9253SOL     OW28657   3.684   5.464   4.300 -0.2226 -0.7010  0.0819
 9253SOL    HW128658   3.637   5.421   4.224 -1.4068  0.3444  0.1743
 9253SOL    HW228659   3.660   5.417   4.385 -1.2276 -0.1339  0.1392
 9254SOL     OW28660   0.009   7.010   3.464 -0.0511  0.4401 -0.2440
 9254SOL    HW128661   0.042   6.944   3.532  2.0778  0.6493 -0.9807
 9254SOL    HW228662  -0.015   6.961   3.380 -0.5029  0.4093 -0.0997
 9255SOL     OW28663   1.493   0.586   1.360  0.3414  0.3032 -0.0593
 9255SOL    HW128664   1.490   0.640   1.444  1.0312  1.0567 -0.5024
 9255SOL    HW228665   1.548   0.504   1.376 -0.2587 -0.0028  0.4668
 9256SOL     OW28666   0.381   6.604   0.696 -0.2254 -0.4397  0.7435
 9256SOL    HW128667   0.470   6.623   0.736 -0.0112  0.1233  0.0229
 9256SOL    HW228668   0.310   6.654   0.746  0.2571  1.9137 -0.7300
 9257SOL     OW28669   6.849   6.733   5.366  0.3001  0.7834 -0.2572
 9257SOL    HW128670   6.776   6.723   5.433 -0.4160  0.6883 -1.0324
 9257SOL    HW228671   6.934   6.759   5.412 -0.2721  1.1102  0.6322
 9258SOL     OW28672   0.017   3.041   2.773 -0.1341  0.0275 -0.1978
 9258SOL    HW128673  -0.032   3.092   2.843 -0.6904 -1.1738  0.3230
 9258SOL    HW228674   0.040   3.101   2.697 -2.1513  0.7180 -0.3272
 9259SOL     OW28675   6.519   3.031   6.985  0.1856  0.3677 -0.3986
 9259SOL    HW128676   6.474   3.083   7.058 -1.0774 -1.7751  0.4536
 9259SOL    HW228677   6.611   3.006   7.013 -0.4631 -0.8691  0.7477
 9260SOL     OW28678   5.786   3.625   4.266  0.7347  0.0738  0.3780
 9260SOL    HW128679   5.718   3.695   4.247 -0.9840 -1.6787 -0.2642
 9260SOL    HW228680   5.850   3.618   4.189  0.3832  0.3366  0.0614
 9261SOL     OW28681   0.609   3.564   1.243  0.1778 -0.1808  0.4161
 9261SOL    HW128682   0.694   3.604   1.276 -0.4463  1.1476  0.5169
 9261SOL    HW228683   0.554   3.636   1.198 -0.0401 -1.4178 -1.3824
 9262SOL     OW28684   6.545   5.693   5.798  0.2409 -0.0087  0.4068
 9262SOL    HW128685   6.524   5.595   5.798  0.3126 -0.0854  2.8956
 9262SOL    HW228686   6.509   5.735   5.715 -0.6172 -1.9796 -0.2693
 9263SOL     OW28687   0.262   5.253   1.197 -0.5548  0.1956  0.0801
 9263SOL    HW128688   0.188   5.231   1.260 -0.7483 -0.9687 -0.5180
 9263SOL    HW228689   0.279   5.175   1.137 -1.1676  1.6714 -2.1099
 9264SOL     OW28690   5.645   4.835   5.092  0.1989  0.0127  0.2024
 9264SOL    HW128691   5.710   4.809   5.164  0.3808 -0.9220 -0.2828
 9264SOL    HW228692   5.573   4.892   5.132  1.7826  1.8416  0.5768
 9265SOL     OW28693   6.151   6.110   3.030  0.3770 -0.1621 -0.0119
 9265SOL    HW128694   6.148   6.036   3.097 -0.4279 -0.3428 -0.2369
 9265SOL    HW228695   6.071   6.169   3.042 -0.2391 -0.6786 -1.3422
 9266SOL     OW28696   0.843   5.413   1.821 -0.5148 -0.1998  0.0675
 9266SOL    HW128697   0.852   5.481   1.894  0.7334 -0.3217  0.0368
 9266SOL    HW228698   0.923   5.353   1.821 -0.7404 -0.5187 -1.0951
 9267SOL     OW28699   6.092   1.092   3.491 -0.3108 -0.2187  0.5439
 9267SOL    HW128700   6.114   1.093   3.589 -1.5418  0.8352  0.8441
 9267SOL    HW228701   6.175   1.111   3.439 -0.0996  1.9393  1.5375
 9268SOL     OW28702   5.930   6.046   2.188 -0.1929  0.2003  0.4770
 9268SOL    HW128703   5.855   5.984   2.212 -1.1354  0.7855 -0.8691
 9268SOL    HW228704   6.016   5.994   2.188 -0.5468 -0.4700  2.0677
 9269SOL     OW28705   4.134   0.362   3.379 -0.4073 -0.5119  0.4056
 9269SOL    HW128706   4.077   0.388   3.457  0.8796  1.7686  0.6763
 9269SOL    HW228707   4.098   0.404   3.295 -0.3798 -0.8974  0.1986
 9270SOL     OW28708   1.840   6.227   3.330  0.1501 -0.5903  0.0852
 9270SOL    HW128709   1.833   6.218   3.429 -0.4430  0.7918  0.2005
 9270SOL    HW228710   1.896   6.307   3.308 -0.5213 -0.3043 -0.6634
 9271SOL     OW28711   2.717   5.830   5.934  0.0845 -0.6350  0.5663
 9271SOL    HW128712   2.632   5.836   5.883  0.2212  3.3651  0.4943
 9271SOL    HW228713   2.792   5.805   5.872 -0.4088 -0.0385 -0.2859
 9272SOL     OW28714   6.323   1.214   6.181 -0.4347  0.3665 -0.1013
 9272SOL    HW128715   6.260   1.148   6.139  0.8846 -0.5222 -0.7624
 9272SOL    HW228716   6.270   1.283   6.231 -2.0498  0.7860 -2.2212
 9273SOL     OW28717   5.616   2.498   3.153 -0.3189 -0.0695 -0.1400
 9273SOL    HW128718   5.582   2.532   3.240 -0.4323 -0.5784  0.0154
 9273SOL    HW228719   5.710   2.530   3.139 -0.4845  0.4533 -0.0830
 9274SOL     OW28720   6.528   6.956   1.899 -0.3086 -0.0974  0.5568
 9274SOL    HW128721   6.485   7.039   1.863  0.0397  0.3127  1.0646
 9274SOL    HW228722   6.617   6.980   1.940 -0.2630 -0.6986  0.8160
 9275SOL     OW28723   3.694   1.158   0.520 -0.5847 -0.8261  0.2347
 9275SOL    HW128724   3.746   1.236   0.485  1.2897 -2.0486  0.1555
 9275SOL    HW228725   3.731   1.130   0.608  1.6048 -4.1149 -1.5245
 9276SOL     OW28726   2.724   5.526   1.423 -0.0790  0.0333  0.5771
 9276SOL    HW128727   2.733   5.575   1.510 -0.3999  0.4282  0.3881
 9276SOL    HW228728   2.765   5.434   1.432  0.5161  0.3260  0.9328
 9277SOL     OW28729   2.924   5.013   1.850  0.4145  0.0953 -0.2464
 9277SOL    HW128730   2.997   4.945   1.863  1.5655  1.4740  0.8437
 9277SOL    HW228731   2.908   5.061   1.936  0.4525  2.0175 -1.2636
 9278SOL     OW28732   1.771   6.210   4.436  0.1832  0.4114  0.0762
 9278SOL    HW128733   1.700   6.271   4.402  1.0291  0.7384 -1.1767
 9278SOL    HW228734   1.820   6.254   4.512 -1.1612  0.0249  1.2127
 9279SOL     OW28735   5.878   6.589   3.665  0.0146  0.1721  0.3097
 9279SOL    HW128736   5.965   6.539   3.669  0.1675  0.4844  0.9804
 9279SOL    HW228737   5.821   6.550   3.592  0.0269 -1.1438  0.9692
 9280SOL     OW28738   1.454   3.876   1.768  0.1956  0.1578 -0.1813
 9280SOL    HW128739   1.536   3.920   1.730 -1.5115  1.5304 -2.5444
 9280SOL    HW228740   1.438   3.909   1.861  0.9768  1.7599 -0.5886
 9281SOL     OW28741   0.529   5.268   6.721 -1.1663  0.6156 -0.4522
 9281SOL    HW128742   0.612   5.273   6.665 -0.5444  0.9607  0.4678
 9281SOL    HW228743   0.554   5.261   6.817 -2.2142 -0.4277 -0.2324
 9282SOL     OW28744   2.620   6.460   5.589 -0.5981  0.0418 -0.6891
 9282SOL    HW128745   2.653   6.551   5.565 -2.2171  0.7027 -0.5737
 9282SOL    HW228746   2.551   6.431   5.522  2.0072 -2.4633 -2.5263
 9283SOL     OW28747   6.862   5.473   6.375  0.4205 -0.3189 -0.5527
 9283SOL    HW128748   6.896   5.546   6.434  1.4653 -1.3739  0.1739
 9283SOL    HW228749   6.763   5.483   6.363  0.4320  0.7600  0.1483
 9284SOL     OW28750   4.209   6.657   6.407 -0.4338 -0.3696  0.7839
 9284SOL    HW128751   4.202   6.626   6.312  0.5599 -1.0731  0.9349
 9284SOL    HW228752   4.123   6.701   6.433 -0.9368 -0.6955 -0.2519
 9285SOL     OW28753   1.297   5.510   1.937 -0.2267  0.2863  0.2334
 9285SOL    HW128754   1.236   5.532   2.014 -0.4162 -0.6359  0.3512
 9285SOL    HW228755   1.299   5.588   1.874 -1.2522  0.4788  0.4096
 9286SOL     OW28756   5.354   4.037   4.443  0.1482 -0.5092 -0.0431
 9286SOL    HW128757   5.311   4.088   4.517 -0.6956 -0.3364 -0.6345
 9286SOL    HW228758   5.444   4.005   4.472 -1.2938 -2.9919  2.1313
 9287SOL     OW28759   5.183   4.894   0.263  0.1965 -0.2118 -0.4107
 9287SOL    HW128760   5.111   4.826   0.272 -1.6883  1.8176  0.9207
 9287SOL    HW228761   5.271   4.855   0.290 -1.0107 -1.7830  1.4663
 9288SOL     OW28762   3.879   6.334   4.114  0.3840 -0.5887  0.0212
 9288SOL    HW128763   3.799   6.276   4.098 -0.5908  0.2243  1.6784
 9288SOL    HW228764   3.944   6.286   4.174 -0.6847  0.1571  1.8689
 9289SOL     OW28765   6.701   5.534   3.083  0.5314 -0.0538 -0.0199
 9289SOL    HW128766   6.781   5.583   3.118  1.3715 -0.3657 -1.4326
 9289SOL    HW228767   6.652   5.592   3.019 -0.7832  0.3742  1.3132
 9290SOL     OW28768   3.005   0.326   1.889 -0.5541  0.2967  0.0883
 9290SOL    HW128769   3.042   0.234   1.876  0.0572  0.5416  0.0445
 9290SOL    HW228770   2.965   0.358   1.802 -1.5763 -0.2639  0.3339
 9291SOL     OW28771   1.059   4.379   4.949  0.2771 -1.0227  0.1991
 9291SOL    HW128772   1.039   4.405   4.855  0.8150 -0.5987  0.1955
 9291SOL    HW228773   1.109   4.292   4.950 -1.0823 -1.8374  0.1861
 9292SOL     OW28774   2.702   1.417   1.028 -0.0084 -0.3409  0.3089
 9292SOL    HW128775   2.715   1.367   1.114  0.8024  0.1487  0.4733
 9292SOL    HW228776   2.763   1.379   0.958  0.0657 -0.0686  0.2276
 9293SOL     OW28777   2.798   1.932   1.100  0.0082  0.3298  0.4882
 9293SOL    HW128778   2.803   1.868   1.024 -2.9986 -0.3808  0.7509
 9293SOL    HW228779   2.808   1.883   1.186  0.4756  0.6722  0.6354
 9294SOL     OW28780   4.301   5.594   6.538 -0.5574  0.1846  0.1865
 9294SOL    HW128781   4.298   5.640   6.450 -0.7652  0.8300  0.5279
 9294SOL    HW228782   4.233   5.634   6.600  0.0105  0.1574  0.8436
 9295SOL     OW28783   5.462   0.443   2.844 -0.6658  0.0733  0.0658
 9295SOL    HW128784   5.488   0.372   2.778  1.7836  0.7896  0.1903
 9295SOL    HW228785   5.525   0.442   2.921 -1.6730  1.2500  0.9529
 9296SOL     OW28786   2.223   3.302   6.206  0.2188  0.6531 -0.1370
 9296SOL    HW128787   2.196   3.339   6.294  0.9576  0.7519  0.0543
 9296SOL    HW228788   2.180   3.212   6.193 -1.1201  1.2992 -0.3589
 9297SOL     OW28789   6.410   5.365   1.518 -0.3719  0.3051 -0.2534
 9297SOL    HW128790   6.411   5.299   1.594  0.5531 -0.0191 -0.5317
 9297SOL    HW228791   6.315   5.390   1.497 -0.7364 -0.8640 -0.0797
 9298SOL     OW28792   5.450   5.552   2.310 -0.3862 -0.1429 -0.3700
 9298SOL    HW128793   5.529   5.512   2.357  0.3280  1.5381 -0.0768
 9298SOL    HW228794   5.388   5.479   2.281  0.9619 -1.4564 -0.0539
 9299SOL     OW28795   3.136   2.176   3.188 -0.2997 -0.2655  0.3565
 9299SOL    HW128796   3.115   2.224   3.103  2.5449 -0.4992 -0.5869
 9299SOL    HW228797   3.050   2.152   3.235 -1.8864  2.0888 -1.1320
 9300SOL     OW28798   4.480   6.876   5.995  0.7725 -0.2135 -0.2980
 9300SOL    HW128799   4.551   6.872   6.065  0.2494 -1.5423  0.1901
 9300SOL    HW228800   4.515   6.923   5.914  1.9370 -0.1432  0.2270
 9301SOL     OW28801   1.124   2.814   5.497 -0.2379  0.2743  0.4107
 9301SOL    HW128802   1.180   2.738   5.462  0.2647  0.8211  0.0085
 9301SOL    HW228803   1.077   2.858   5.420 -0.2351  0.6024  0.5969
 9302SOL     OW28804   5.216   6.830   4.653  0.2173  0.0770 -0.1960
 9302SOL    HW128805   5.224   6.877   4.741 -0.0019  0.5119 -0.4062
 9302SOL    HW228806   5.141   6.870   4.600  1.1863  0.7171 -1.1277
 9303SOL     OW28807   2.041   4.377   6.239  0.3390  0.1667  0.2318
 9303SOL    HW128808   2.014   4.457   6.186  3.7881  0.6969 -0.9787
 9303SOL    HW228809   2.029   4.295   6.183  1.1056  0.3804 -0.2550
 9304SOL     OW28810   4.460   5.615   6.108  0.3477 -0.1865  0.4255
 9304SOL    HW128811   4.412   5.545   6.161  0.2210 -1.0143 -0.7242
 9304SOL    HW228812   4.489   5.576   6.021  2.6140  0.4515  0.8234
 9305SOL     OW28813   1.122   2.477   3.281  0.3828  0.1370  0.5343
 9305SOL    HW128814   1.193   2.460   3.350  1.1427 -1.0298 -0.5082
 9305SOL    HW228815   1.141   2.564   3.235  1.5513 -0.4916 -0.2082
 9306SOL     OW28816   0.659   5.472   3.920  0.3289  0.0748  0.6558
 9306SOL    HW128817   0.661   5.572   3.912  0.2956  0.2438  2.4310
 9306SOL    HW228818   0.661   5.432   3.828  0.3918  1.6919 -0.0941
 9307SOL     OW28819   1.467   4.287   1.665  0.0666  0.3509 -0.9135
 9307SOL    HW128820   1.367   4.284   1.663  0.1038 -0.5224 -2.4334
 9307SOL    HW228821   1.497   4.382   1.676 -0.9157  0.5818 -0.0517
 9308SOL     OW28822   1.753   3.291   0.379 -0.1437  0.1601  0.3611
 9308SOL    HW128823   1.798   3.287   0.469  2.1494  0.8201 -0.6787
 9308SOL    HW228824   1.722   3.199   0.353  1.5833 -0.5572  0.7013
 9309SOL     OW28825   3.739   0.499   0.549 -0.1196 -0.3675 -0.2473
 9309SOL    HW128826   3.696   0.538   0.468 -2.1069  1.0560  1.4082
 9309SOL    HW228827   3.669   0.455   0.606  1.4315 -2.5625  0.0964
 9310SOL     OW28828   5.721   6.941   4.004  0.1653 -0.2895  0.6024
 9310SOL    HW128829   5.777   6.975   3.929  0.4888 -1.6139  0.2291
 9310SOL    HW228830   5.643   7.003   4.018 -1.2737 -1.2357 -2.4225
 9311SOL     OW28831   3.917   3.808   6.231  0.2080 -0.2295  0.0384
 9311SOL    HW128832   3.939   3.906   6.228 -0.2080 -0.1531 -0.7048
 9311SOL    HW228833   3.881   3.786   6.322 -0.0209  0.3851  0.1072
 9312SOL     OW28834   0.865   2.824   4.378 -0.0958 -0.1831 -0.2100
 9312SOL    HW128835   0.780   2.876   4.383  1.4965  2.7035 -1.1659
 9312SOL    HW228836   0.933   2.864   4.440  1.1066 -1.4001 -0.6701
 9313SOL     OW28837   0.746   6.228   2.438 -0.0328  0.0869  0.2329
 9313SOL    HW128838   0.770   6.194   2.530  2.4252  1.1606  0.0759
 9313SOL    HW228839   0.711   6.321   2.445  0.5740  0.3309  0.0588
 9314SOL     OW28840   6.061   2.860   2.767 -0.1245 -0.0388 -0.2550
 9314SOL    HW128841   5.969   2.872   2.804 -0.4331  1.4405 -1.3951
 9314SOL    HW228842   6.065   2.898   2.675  2.3675  2.7056  0.8296
 9315SOL     OW28843   4.910   4.974   4.476  0.1804  0.1587  0.7179
 9315SOL    HW128844   4.938   4.896   4.533 -0.8823 -0.4346  0.4457
 9315SOL    HW228845   4.849   5.033   4.528  0.3218  0.3632  0.6518
 9316SOL     OW28846   1.086   6.326   6.269  0.0298  0.0235  0.1784
 9316SOL    HW128847   0.993   6.290   6.281 -0.1861  0.2516 -0.7128
 9316SOL    HW228848   1.143   6.257   6.225  0.2392 -0.0600  0.5835
 9317SOL     OW28849   2.920   5.080   3.777  0.0931 -0.1636  0.0996
 9317SOL    HW128850   2.859   5.098   3.699  0.8601 -1.8572 -0.9428
 9317SOL    HW228851   2.925   4.982   3.793 -0.0350  0.1458  2.3351
 9318SOL     OW28852   3.299   6.904   4.441 -0.0911 -0.2057  0.9293
 9318SOL    HW128853   3.209   6.864   4.422  0.3575 -1.2224  0.8667
 9318SOL    HW228854   3.318   6.898   4.539 -0.9273  1.8548  1.2574
 9319SOL     OW28855   3.853   1.812   0.386 -0.7147  0.3374  0.0356
 9319SOL    HW128856   3.927   1.784   0.325 -0.5680  0.6903  0.0474
 9319SOL    HW228857   3.876   1.787   0.480  0.1747  1.9213  0.2824
 9320SOL     OW28858   5.431   0.621   6.184 -0.9302 -0.1361 -0.4086
 9320SOL    HW128859   5.433   0.685   6.260 -1.3308  0.4419 -0.8743
 9320SOL    HW228860   5.472   0.663   6.103 -0.8393 -0.6103 -0.6164
 9321SOL     OW28861   2.712   0.817   4.950  0.3563 -0.2154 -0.2195
 9321SOL    HW128862   2.702   0.745   5.019  0.7348  0.0221  0.0876
 9321SOL    HW228863   2.635   0.880   4.957  0.0294 -0.5851 -0.4819
 9322SOL     OW28864   4.940   4.289   1.611 -0.2612  0.2586 -0.2901
 9322SOL    HW128865   5.001   4.240   1.548 -0.5768  0.7586 -1.0022
 9322SOL    HW228866   4.883   4.353   1.559 -2.2496 -1.0380  0.1519
 9323SOL     OW28867   6.593   2.755   5.872 -0.1855 -0.1896 -0.2000
 9323SOL    HW128868   6.577   2.849   5.902  0.5896 -0.2210  0.3710
 9323SOL    HW228869   6.556   2.692   5.940  1.6158 -0.2623  0.7856
 9324SOL     OW28870   7.001   2.960   1.883  0.1925 -0.0816  1.1270
 9324SOL    HW128871   7.058   2.912   1.950 -0.3201 -1.5077  0.5961
 9324SOL    HW228872   7.038   2.944   1.791 -0.5393 -0.2706  0.8551
 9325SOL     OW28873   0.399   3.829   2.790  0.3016 -0.1043 -0.5341
 9325SOL    HW128874   0.389   3.876   2.703  0.4164  0.9038 -0.0190
 9325SOL    HW228875   0.309   3.796   2.821  0.5161 -2.1612 -1.9201
 9326SOL     OW28876   3.832   4.664   1.151  0.9411  0.1525  0.6551
 9326SOL    HW128877   3.756   4.729   1.153 -0.3991 -1.3025 -0.1464
 9326SOL    HW228878   3.887   4.675   1.234  0.4421  1.9060  0.7908
 9327SOL     OW28879   3.638   1.077   5.055  0.0303 -0.1608  0.0572
 9327SOL    HW128880   3.568   1.008   5.071  1.1575 -1.3232  0.1435
 9327SOL    HW228881   3.701   1.046   4.984  0.6106  0.7445  0.1560
 9328SOL     OW28882   2.886   1.152   3.341  0.2823  0.0873 -0.2184
 9328SOL    HW128883   2.790   1.125   3.335  0.6391 -1.0173 -1.1540
 9328SOL    HW228884   2.940   1.099   3.276  2.1230 -1.9768  2.7260
 9329SOL     OW28885   1.488   5.525   6.231 -0.0201  0.3880  0.5662
 9329SOL    HW128886   1.418   5.504   6.300  0.8612 -0.7383  1.1381
 9329SOL    HW228887   1.450   5.512   6.140 -0.5437 -0.2578  0.8700
 9330SOL     OW28888   1.663   0.034   5.175 -0.1389 -0.2580  0.0828
 9330SOL    HW128889   1.664   0.015   5.273  1.1680 -0.0427  0.1308
 9330SOL    HW228890   1.704  -0.042   5.125 -0.0748 -0.0293 -0.2217
 9331SOL     OW28891   2.888   6.164   4.626 -1.1761  0.1291  0.0343
 9331SOL    HW128892   2.936   6.109   4.695 -0.0141  0.5787 -0.3986
 9331SOL    HW228893   2.862   6.251   4.667  0.2490  0.7339 -0.3064
 9332SOL     OW28894   6.084   5.631   1.096  0.7442 -0.0022 -0.2637
 9332SOL    HW128895   6.064   5.642   1.193 -0.7517 -0.2425 -0.5163
 9332SOL    HW228896   6.097   5.534   1.075 -1.4212 -0.2575 -0.6941
 9333SOL     OW28897   0.775   5.819   2.212 -0.0048  0.2557  0.2137
 9333SOL    HW128898   0.803   5.884   2.282 -0.7585 -0.9717  1.7292
 9333SOL    HW228899   0.727   5.742   2.255 -4.1526  1.3423 -1.9982
 9334SOL     OW28900   0.765   6.482   0.096 -0.6443  0.8109 -0.1585
 9334SOL    HW128901   0.822   6.531   0.162  2.3945  0.0116 -2.0100
 9334SOL    HW228902   0.681   6.535   0.079 -0.7368  1.8635  2.9240
 9335SOL     OW28903   5.911   3.243   1.065 -0.0417  0.4017  0.1975
 9335SOL    HW128904   5.851   3.319   1.041  1.2538  1.2063 -0.5985
 9335SOL    HW228905   6.005   3.265   1.040  0.1508 -2.1809 -1.7456
 9336SOL     OW28906   5.224   0.303   0.151  0.2434 -0.1469 -0.0515
 9336SOL    HW128907   5.157   0.305   0.077 -1.3849 -0.0892  1.3694
 9336SOL    HW228908   5.228   0.210   0.189  1.0320 -0.1642 -0.1634
 9337SOL     OW28909   3.073   2.367   5.442  0.3679  0.2159  0.4089
 9337SOL    HW128910   3.060   2.458   5.482  2.2499  0.5669  0.3316
 9337SOL    HW228911   3.085   2.375   5.343  0.9868 -0.0459  0.4548
 9338SOL     OW28912   4.835   6.615   0.791  0.0024 -0.1754 -0.2838
 9338SOL    HW128913   4.757   6.587   0.734  0.5200 -0.6731 -0.7545
 9338SOL    HW228914   4.892   6.679   0.740 -0.5575  0.8837  0.3776
 9339SOL     OW28915   0.227   3.380   4.881  0.7703 -0.0129 -0.2221
 9339SOL    HW128916   0.144   3.325   4.887  1.0488 -0.7174 -2.0386
 9339SOL    HW228917   0.291   3.336   4.818  0.3554  3.1141 -3.1433
 9340SOL     OW28918   1.944   5.038   0.814  1.0022 -0.1740  0.1079
 9340SOL    HW128919   1.945   5.080   0.904  1.2321 -0.6150  0.3147
 9340SOL    HW228920   1.984   5.101   0.747 -2.0502  1.5144 -0.3206
 9341SOL     OW28921   5.577   4.131   1.587  0.5095  0.0666 -0.3004
 9341SOL    HW128922   5.501   4.180   1.629  0.1233 -1.1447  0.4633
 9341SOL    HW228923   5.651   4.195   1.567 -0.0349  0.9811  0.5187
 9342SOL     OW28924   4.689   0.222   5.752 -0.0473  0.2149 -0.3635
 9342SOL    HW128925   4.676   0.256   5.658  0.7520 -0.2161 -0.6452
 9342SOL    HW228926   4.671   0.295   5.817 -0.1125  0.6639 -0.8791
 9343SOL     OW28927   4.620   5.150   1.718 -0.4069 -0.2207 -0.1594
 9343SOL    HW128928   4.702   5.166   1.774  1.7473 -0.4181 -3.0383
 9343SOL    HW228929   4.602   5.230   1.661  0.0074 -1.4764 -2.1541
 9344SOL     OW28930   4.284   6.346   3.770 -0.0821 -0.3845  0.1244
 9344SOL    HW128931   4.240   6.380   3.853 -1.1535  0.1933 -0.6613
 9344SOL    HW228932   4.376   6.312   3.792 -0.3693 -0.2815  1.5395
 9345SOL     OW28933   6.403   5.359   6.478 -0.4804  0.0088 -0.0881
 9345SOL    HW128934   6.314   5.392   6.508 -1.2989  0.5255 -2.7965
 9345SOL    HW228935   6.460   5.339   6.558 -2.7659  0.2663  1.7095
 9346SOL     OW28936   6.683   0.261   3.236  0.6725  0.2981  0.0884
 9346SOL    HW128937   6.657   0.245   3.141  0.6972  3.6077 -0.5880
 9346SOL    HW228938   6.778   0.290   3.240  0.4552  0.9140  1.0549
 9347SOL     OW28939   4.286   5.438   1.828  0.7510 -0.1097  0.2739
 9347SOL    HW128940   4.217   5.488   1.775 -1.9494 -3.7501 -0.0174
 9347SOL    HW228941   4.261   5.439   1.924  1.1108 -0.2668  0.3705
 9348SOL     OW28942   1.944   4.643   1.651  0.0982 -0.4980  0.0195
 9348SOL    HW128943   1.970   4.601   1.564  1.3976  1.0168 -0.3757
 9348SOL    HW228944   2.027   4.670   1.701 -0.6019  1.9925  0.0017
 9349SOL     OW28945   1.968   3.513   1.799 -0.3524 -0.3550  0.6916
 9349SOL    HW128946   2.004   3.571   1.726 -0.7452  1.3497  1.7854
 9349SOL    HW228947   2.038   3.498   1.868 -1.1833  1.7316  2.0878
 9350SOL     OW28948   6.459   1.477   1.428  0.1895 -0.0041  0.0612
 9350SOL    HW128949   6.502   1.430   1.505 -0.3031 -1.4326 -0.5039
 9350SOL    HW228950   6.526   1.490   1.355  0.7945  1.8110  0.8858
 9351SOL     OW28951   3.720   4.823   5.831  0.1390  0.0077 -0.3363
 9351SOL    HW128952   3.819   4.836   5.831  0.1714 -0.2375 -0.3213
 9351SOL    HW228953   3.682   4.850   5.743  0.2801 -0.3650 -0.5113
 9352SOL     OW28954   1.906   2.951   0.340 -0.0575 -0.1519  0.1446
 9352SOL    HW128955   1.809   2.967   0.358 -0.1468  1.9616 -1.7843
 9352SOL    HW228956   1.962   3.004   0.403 -0.0741 -1.7344  1.5705
 9353SOL     OW28957   0.587   6.628   1.370  0.4863  0.4506 -0.2188
 9353SOL    HW128958   0.574   6.533   1.396 -0.5397 -0.4594 -3.4883
 9353SOL    HW228959   0.678   6.659   1.399  0.2205 -0.9226  2.3213
 9354SOL     OW28960   6.190   2.151   2.586 -0.0067  0.2397  0.0813
 9354SOL    HW128961   6.279   2.197   2.581  0.3963 -0.6448 -2.4026
 9354SOL    HW228962   6.120   2.210   2.546 -0.0066 -0.1186 -0.4692
 9355SOL     OW28963   0.160   1.843   1.606 -0.0450 -0.2020 -0.5799
 9355SOL    HW128964   0.122   1.807   1.691 -1.1736  1.5210 -0.3032
 9355SOL    HW228965   0.178   1.767   1.542  0.3817 -1.4744  0.9775
 9356SOL     OW28966   3.995   1.397   3.171 -0.2538 -0.3138  0.2159
 9356SOL    HW128967   4.080   1.351   3.144 -0.2433  0.2576 -0.7775
 9356SOL    HW228968   3.950   1.344   3.243  1.1209 -0.4400  1.0202
 9357SOL     OW28969   2.089   4.253   0.319 -0.7089  0.7700 -0.3262
 9357SOL    HW128970   2.134   4.283   0.235  3.7126  0.2888  1.5991
 9357SOL    HW228971   2.050   4.162   0.305  0.9652  0.1865 -1.6187
 9358SOL     OW28972   0.124   5.058   3.172  0.2603 -0.5884  0.1377
 9358SOL    HW128973   0.134   4.999   3.252 -0.7588  0.3613  0.9904
 9358SOL    HW228974   0.037   5.107   3.177  1.7535  2.2621  0.3719
 9359SOL     OW28975   4.036   3.831   5.540  0.1048 -0.4099  0.8763
 9359SOL    HW128976   4.120   3.884   5.529  0.2510 -0.4555  1.7146
 9359SOL    HW228977   3.981   3.838   5.457  1.8309 -1.9892 -0.4732
 9360SOL     OW28978   0.934   5.575   6.683 -0.3107  0.0213 -0.3726
 9360SOL    HW128979   0.912   5.673   6.689 -1.5121 -0.2766  0.4996
 9360SOL    HW228980   1.033   5.563   6.686 -0.1579  1.1833 -0.0975
 9361SOL     OW28981   2.581   2.154   2.717 -0.3421 -0.7481 -0.1390
 9361SOL    HW128982   2.515   2.227   2.736  0.2122  0.0014 -1.0496
 9361SOL    HW228983   2.672   2.193   2.705 -0.2490 -1.4292 -1.9321
 9362SOL     OW28984   1.486   1.309   3.555  0.0600 -0.3623  0.0730
 9362SOL    HW128985   1.582   1.306   3.584 -0.6412  0.0535  2.6707
 9362SOL    HW228986   1.438   1.380   3.607 -1.8052 -0.9652 -0.7513
 9363SOL     OW28987   0.417   6.184   3.633  0.5448  0.9024  0.5466
 9363SOL    HW128988   0.494   6.141   3.679 -1.3242 -3.5865 -0.0783
 9363SOL    HW228989   0.345   6.205   3.700  1.1695  2.6241  0.7402
 9364SOL     OW28990   6.067   4.832   1.587  0.1872 -0.1680 -0.3529
 9364SOL    HW128991   6.063   4.745   1.636  3.1084 -0.3413 -0.2647
 9364SOL    HW228992   6.014   4.824   1.502 -3.3008 -0.4872  1.6612
 9365SOL     OW28993   6.466   0.393   6.539  0.8790 -0.4668  0.1476
 9365SOL    HW128994   6.524   0.474   6.538 -1.0189  1.0027 -1.5680
 9365SOL    HW228995   6.403   0.397   6.617  1.3343 -0.7278  0.5313
 9366SOL     OW28996   2.364   2.297   1.604  0.9435  0.3118 -0.4370
 9366SOL    HW128997   2.325   2.356   1.534  0.0829  0.3854  0.0956
 9366SOL    HW228998   2.426   2.349   1.662 -0.1726  0.8153  0.3229
 9367SOL     OW28999   3.164   5.104   5.871  0.3007 -0.0318  0.4236
 9367SOL    HW129000   3.258   5.075   5.887 -0.1241 -1.0421  1.2388
 9367SOL    HW229001   3.143   5.099   5.773  0.4375 -1.9917  0.4516
 9368SOL     OW29002   6.850   1.834   0.710  0.2969  0.1078 -0.0946
 9368SOL    HW129003   6.912   1.774   0.658  0.7594 -0.5222  1.1587
 9368SOL    HW229004   6.902   1.909   0.750  1.0220 -2.1474  3.6915
 9369SOL     OW29005   0.116   3.445   5.339 -0.6256 -0.2708  0.0090
 9369SOL    HW129006   0.176   3.520   5.314 -1.4796  0.3333 -0.2761
 9369SOL    HW229007   0.021   3.474   5.330 -1.0397 -2.0940 -2.4016
 9370SOL     OW29008   5.516   3.354   1.791  0.3165 -0.5602  0.5763
 9370SOL    HW129009   5.444   3.326   1.728  0.3246  2.0564 -0.7167
 9370SOL    HW229010   5.481   3.426   1.852  2.1480  2.0653 -1.2309
 9371SOL     OW29011   0.768   0.946   6.480 -0.4678 -0.1640  0.3358
 9371SOL    HW129012   0.827   1.016   6.519  0.7967  0.8804 -3.0734
 9371SOL    HW229013   0.675   0.981   6.471 -0.4622  0.0579  1.0937
 9372SOL     OW29014   5.184   4.628   6.552 -0.6696 -0.2746  0.3035
 9372SOL    HW129015   5.217   4.604   6.461 -0.7348 -1.6407  0.6187
 9372SOL    HW229016   5.143   4.719   6.549  0.7114  0.3535 -0.6783
 9373SOL     OW29017   4.370   2.353   2.714 -0.8710 -0.2168 -0.0825
 9373SOL    HW129018   4.412   2.349   2.623 -0.0579  0.3029  0.2490
 9373SOL    HW229019   4.271   2.349   2.706 -0.7811 -0.8964 -0.9411
 9374SOL     OW29020   5.283   2.796   0.306  0.2866 -0.4638  0.7163
 9374SOL    HW129021   5.218   2.722   0.292  0.8350 -0.8276  0.0314
 9374SOL    HW229022   5.321   2.825   0.218  0.3128  0.4210  1.0068
 9375SOL     OW29023   0.727   6.784   4.293 -0.2815 -0.3518  0.5179
 9375SOL    HW129024   0.715   6.881   4.269 -1.1191 -0.5939 -0.0698
 9375SOL    HW229025   0.675   6.764   4.376 -2.4245 -0.9024 -0.8602
 9376SOL     OW29026   2.226   4.927   2.057 -0.2900 -0.2159 -0.1224
 9376SOL    HW129027   2.163   5.005   2.057  1.1084  1.0440  2.2167
 9376SOL    HW229028   2.314   4.955   2.019  0.2707 -0.5669  0.8628
 9377SOL     OW29029   0.737   4.331   3.281  0.7446 -0.7222 -0.1182
 9377SOL    HW129030   0.806   4.377   3.338  1.5182 -1.2148 -0.6391
 9377SOL    HW229031   0.780   4.256   3.231 -0.1466 -0.9424 -0.5705
 9378SOL     OW29032   2.715   5.520   0.443 -0.1709  0.1413 -0.6137
 9378SOL    HW129033   2.812   5.508   0.419 -0.6098  0.7571 -2.8642
 9378SOL    HW229034   2.709   5.573   0.528  1.4554  0.4932 -0.6734
 9379SOL     OW29035   3.479   4.951   4.823 -0.2118  0.0848  0.0473
 9379SOL    HW129036   3.412   5.017   4.789 -1.5571 -1.3445 -0.1845
 9379SOL    HW229037   3.542   4.926   4.749  0.8326  1.6556  0.3448
 9380SOL     OW29038   1.317   4.975   5.099 -0.4406 -0.1803  0.0962
 9380SOL    HW129039   1.231   4.983   5.047  0.7152  0.0481 -1.8669
 9380SOL    HW229040   1.336   5.061   5.145 -1.8613 -0.6167  1.6257
 9381SOL     OW29041   0.609   2.154   6.549  0.6319  0.0524  0.2928
 9381SOL    HW129042   0.700   2.171   6.511 -0.5894  3.4765 -1.4933
 9381SOL    HW229043   0.561   2.241   6.564 -2.3171 -1.5860  1.3555
 9382SOL     OW29044   6.513   1.962   1.648  0.2877 -0.2779 -0.2882
 9382SOL    HW129045   6.466   1.947   1.561 -0.2313  1.9162 -0.4585
 9382SOL    HW229046   6.546   1.875   1.684  0.4872 -1.2460 -2.6428
 9383SOL     OW29047   6.982   5.606   1.608  0.0044  0.7329  0.0113
 9383SOL    HW129048   6.938   5.566   1.689  0.0788 -0.0511 -0.3282
 9383SOL    HW229049   6.962   5.550   1.528  1.2482  0.6017 -0.2319
 9384SOL     OW29050   4.976   5.896   2.884 -0.3061 -0.1863 -0.3103
 9384SOL    HW129051   4.910   5.908   2.958  2.5453  0.2353  2.3612
 9384SOL    HW229052   5.005   5.985   2.850  0.3385 -0.2962 -0.0602
 9385SOL     OW29053   4.164   6.210   3.196 -0.1722  0.3775 -0.1548
 9385SOL    HW129054   4.249   6.192   3.246  0.3825  2.4661 -0.2474
 9385SOL    HW229055   4.130   6.125   3.157  0.0562 -1.1463  2.6524
 9386SOL     OW29056   2.547   1.146   4.022  0.5156 -0.0771 -0.1785
 9386SOL    HW129057   2.596   1.233   4.012 -0.6807  0.4942 -1.4011
 9386SOL    HW229058   2.544   1.099   3.934  0.1587 -0.8085  0.2159
 9387SOL     OW29059   3.840   5.046   0.555 -0.1362  0.5124 -0.1323
 9387SOL    HW129060   3.879   5.132   0.519  0.3950  1.1624  1.8695
 9387SOL    HW229061   3.816   4.986   0.479  0.9516  1.7947 -1.5463
 9388SOL     OW29062   6.542   0.481   1.480  0.4394  0.1955  0.1738
 9388SOL    HW129063   6.559   0.535   1.397 -0.3940  0.3173  0.0743
 9388SOL    HW229064   6.629   0.444   1.513  0.7724  0.0194 -0.8408
 9389SOL     OW29065   3.315   6.420   1.890 -1.0193  0.0024  0.4874
 9389SOL    HW129066   3.295   6.322   1.879 -2.7172  0.3475  0.1712
 9389SOL    HW229067   3.240   6.474   1.852  1.2175  1.5453 -2.1028
 9390SOL     OW29068   4.931   4.845   6.817 -0.1054 -0.0256 -0.5645
 9390SOL    HW129069   4.856   4.792   6.856 -0.0922 -0.5085 -1.1834
 9390SOL    HW229070   4.960   4.914   6.883 -2.1590  1.2373 -0.8790
 9391SOL     OW29071   4.392   0.077   4.333 -0.0887  0.1310 -0.3432
 9391SOL    HW129072   4.402   0.175   4.316 -1.3656  0.7099  1.8315
 9391SOL    HW229073   4.451   0.050   4.409  0.7190 -0.9627 -1.3215
 9392SOL     OW29074   1.133   2.151   4.674 -0.2122 -0.0444 -0.1602
 9392SOL    HW129075   1.111   2.231   4.619  0.0772  0.9377  1.1146
 9392SOL    HW229076   1.140   2.071   4.614 -0.4624  0.8707 -1.4624
 9393SOL     OW29077   4.550   1.656   4.824 -0.3897 -0.9671  0.2716
 9393SOL    HW129078   4.480   1.704   4.876 -2.0754 -3.1269  0.1525
 9393SOL    HW229079   4.625   1.629   4.885 -0.7144 -0.5292  0.8686
 9394SOL     OW29080   5.342   0.433   4.114 -0.0664 -0.7990 -0.0582
 9394SOL    HW129081   5.350   0.456   4.211 -0.2543 -1.5866  0.1502
 9394SOL    HW229082   5.264   0.371   4.101 -1.5054  1.0946 -1.0305
 9395SOL     OW29083   2.506   2.140   6.919  0.1255 -0.3766 -0.4984
 9395SOL    HW129084   2.529   2.098   6.832  0.1676  0.9766 -1.1726
 9395SOL    HW229085   2.497   2.070   6.990  1.5222 -1.3692 -1.2672
 9396SOL     OW29086   0.086   1.393   6.701 -0.0389 -0.5937 -0.4535
 9396SOL    HW129087   0.004   1.414   6.647 -0.0918 -0.8457 -0.4757
 9396SOL    HW229088   0.079   1.436   6.791  0.1005 -0.0769 -0.6869
 9397SOL     OW29089   1.712   1.889   2.626 -0.0634 -0.2412  0.0609
 9397SOL    HW129090   1.763   1.892   2.540 -1.6765 -0.2217 -0.9262
 9397SOL    HW229091   1.773   1.916   2.701  1.6435 -1.1880 -0.9177
 9398SOL     OW29092   2.963   2.166   2.238 -0.1840 -0.1195  0.1030
 9398SOL    HW129093   2.973   2.067   2.224 -0.2085 -0.0935 -0.1008
 9398SOL    HW229094   2.940   2.210   2.151  3.5056  0.5451 -0.7469
 9399SOL     OW29095   0.166   0.793   4.979 -0.3625  0.0533 -0.8529
 9399SOL    HW129096   0.209   0.876   4.942 -0.2271 -0.1829 -1.2344
 9399SOL    HW229097   0.237   0.726   5.002 -0.5039 -0.2200 -1.1959
 9400SOL     OW29098   5.386   0.154   5.268 -0.4457  0.1553  0.5471
 9400SOL    HW129099   5.392   0.146   5.368 -2.7652  1.1840  0.8203
 9400SOL    HW229100   5.292   0.175   5.242 -0.0201 -0.7368 -1.9311
 9401SOL     OW29101   5.093   0.010   3.591 -0.1019 -0.0183  0.1787
 9401SOL    HW129102   5.032  -0.038   3.655  0.0914 -0.6835 -0.1262
 9401SOL    HW229103   5.041   0.080   3.542 -0.1085  0.9794  1.5399
 9402SOL     OW29104   2.172   2.084   5.609  0.4102  0.1255 -0.0595
 9402SOL    HW129105   2.109   2.009   5.628 -1.6010  1.4778 -1.0884
 9402SOL    HW229106   2.238   2.092   5.685  1.9686 -3.7920 -0.7461
 9403SOL     OW29107   6.379   1.415   2.098 -0.1205 -0.5881 -0.2949
 9403SOL    HW129108   6.359   1.510   2.074 -0.4439 -0.6916 -0.4383
 9403SOL    HW229109   6.350   1.355   2.024  0.9145 -0.7301 -0.6025
 9404SOL     OW29110   3.214   6.419   4.627  0.4000  0.0392  0.3059
 9404SOL    HW129111   3.169   6.356   4.689 -1.3243  0.6034 -0.3223
 9404SOL    HW229112   3.161   6.428   4.543  0.8164  1.9709  0.1948
 9405SOL     OW29113   4.950   0.698   1.149  0.2047  0.2884 -0.1846
 9405SOL    HW129114   4.977   0.734   1.238 -1.2098 -0.5469  0.6026
 9405SOL    HW229115   5.013   0.625   1.123  0.8730  0.8160 -0.0819
 9406SOL     OW29116   6.780   2.283   3.855 -0.0570 -0.5432 -0.0122
 9406SOL    HW129117   6.729   2.203   3.823  0.1247 -0.4025 -0.6660
 9406SOL    HW229118   6.736   2.319   3.937 -0.3214 -1.1240  0.1103
 9407SOL     OW29119   2.436   5.190   2.281  0.3209  0.4166 -0.4183
 9407SOL    HW129120   2.501   5.236   2.341  0.9173 -0.4130 -0.4222
 9407SOL    HW229121   2.399   5.256   2.215  0.4706  1.0918  0.1626
 9408SOL     OW29122   3.350   1.588   0.391  0.0990  0.0094  0.7323
 9408SOL    HW129123   3.345   1.502   0.342  0.1467 -0.0545  0.8378
 9408SOL    HW229124   3.425   1.584   0.457  2.3538  1.3212 -1.5717
 9409SOL     OW29125   6.590   4.560   2.671 -0.1352 -0.2661 -0.5114
 9409SOL    HW129126   6.604   4.501   2.750 -1.8747  1.6635  1.3451
 9409SOL    HW229127   6.642   4.524   2.593  1.4708 -2.3614  1.3966
 9410SOL     OW29128   1.820   0.861   1.074  0.1121 -0.2658 -0.1504
 9410SOL    HW129129   1.786   0.928   1.007 -1.0726 -0.1468  0.5371
 9410SOL    HW229130   1.776   0.772   1.057 -1.7251  0.2305  1.6145
 9411SOL     OW29131   5.552   2.800   2.791 -0.6931  0.5988 -0.1882
 9411SOL    HW129132   5.453   2.810   2.792 -0.8136 -0.4445  0.6811
 9411SOL    HW229133   5.579   2.735   2.862  0.7772  2.3846  0.9731
 9412SOL     OW29134   0.579   5.878   3.534 -0.3367 -0.4031  0.2099
 9412SOL    HW129135   0.623   5.788   3.529 -0.7950 -0.5535 -1.8412
 9412SOL    HW229136   0.642   5.948   3.500  0.1397  0.1621  2.0983
 9413SOL     OW29137   5.340   5.240   2.797  0.7445  0.4559  0.3055
 9413SOL    HW129138   5.327   5.267   2.701  0.8517  1.2356  0.5025
 9413SOL    HW229139   5.281   5.163   2.818 -0.3084  1.1528 -0.0191
 9414SOL     OW29140   3.914   5.475   0.537 -0.7235  0.0281  0.0346
 9414SOL    HW129141   3.898   5.544   0.608 -3.6078 -0.3379 -0.1120
 9414SOL    HW229142   3.832   5.467   0.480 -0.0468 -2.7008 -0.6981
 9415SOL     OW29143   0.603   5.887   2.768  0.1289 -0.0935  0.2460
 9415SOL    HW129144   0.505   5.902   2.780 -0.0335 -1.0547  0.2601
 9415SOL    HW229145   0.654   5.950   2.826 -0.4543  0.9186 -0.3115
 9416SOL     OW29146   2.188   0.586   1.104 -0.1101 -0.4752 -0.4993
 9416SOL    HW129147   2.287   0.596   1.092 -0.3014  2.5837 -0.4822
 9416SOL    HW229148   2.156   0.507   1.052  2.3306 -1.5792 -0.4492
 9417SOL     OW29149   5.967   0.220   4.227  0.0789 -0.4890 -0.1258
 9417SOL    HW129150   5.981   0.129   4.188  0.8024 -0.6495  0.4921
 9417SOL    HW229151   5.890   0.264   4.182 -0.5503 -1.5765 -0.1377
 9418SOL     OW29152   5.361   5.116   0.651 -0.1185  0.2091  0.2803
 9418SOL    HW129153   5.287   5.114   0.718  1.1951  0.7679  1.8229
 9418SOL    HW229154   5.448   5.099   0.697  0.7844  0.0289 -1.4001
 9419SOL     OW29155   2.053   5.335   5.270 -0.1213 -0.7690  0.4279
 9419SOL    HW129156   2.007   5.247   5.277  0.9126 -1.3142  0.6435
 9419SOL    HW229157   1.998   5.406   5.315 -0.5897 -1.4503  0.9399
 9420SOL     OW29158   6.665   6.560   2.859 -0.4767 -0.1934  0.5405
 9420SOL    HW129159   6.694   6.467   2.838  2.0762  0.7694 -0.5982
 9420SOL    HW229160   6.570   6.573   2.831 -0.9801 -2.4832  0.9768
 9421SOL     OW29161   2.203   3.856   5.922 -0.2276  0.4274 -0.1766
 9421SOL    HW129162   2.145   3.796   5.867 -4.2077  2.6424  1.2013
 9421SOL    HW229163   2.183   3.952   5.900  0.4973  1.3436  2.6741
 9422SOL     OW29164   2.930   6.965   1.695 -0.4459 -0.2971 -0.2748
 9422SOL    HW129165   2.942   6.865   1.693  0.4263 -0.2400  1.0602
 9422SOL    HW229166   2.959   7.000   1.784 -0.1515  1.2303 -0.9513
 9423SOL     OW29167   4.816   0.255   4.968 -0.0844 -0.1772  0.5168
 9423SOL    HW129168   4.783   0.162   4.955  1.0370 -0.5403  0.1026
 9423SOL    HW229169   4.796   0.286   5.061 -0.5304 -0.8038  0.6322
 9424SOL     OW29170   5.410   5.948   3.649  0.4436 -0.3297 -0.4609
 9424SOL    HW129171   5.384   6.017   3.716 -0.1646 -0.5442 -0.4628
 9424SOL    HW229172   5.477   5.885   3.689 -1.4613 -1.7300  0.7169
 9425SOL     OW29173   1.861   6.718   2.150 -0.1313  0.0496  0.6141
 9425SOL    HW129174   1.933   6.765   2.099  0.6628 -0.3766  1.3186
 9425SOL    HW229175   1.777   6.717   2.096  0.1958  1.1534  0.0630
 9426SOL     OW29176   2.960   6.053   1.311 -0.1033 -0.6637  0.1449
 9426SOL    HW129177   3.007   6.109   1.381  0.9960 -0.0669 -1.0284
 9426SOL    HW229178   2.883   6.006   1.353 -0.4791  0.9742  1.4126
 9427SOL     OW29179   5.376   5.808   4.683 -0.1052  0.2064  0.4555
 9427SOL    HW129180   5.341   5.900   4.699 -0.5875 -0.0523  0.9008
 9427SOL    HW229181   5.387   5.760   4.771  2.3544  0.6323  0.4524
 9428SOL     OW29182   4.178   6.463   3.993 -0.1085  0.3398 -0.0838
 9428SOL    HW129183   4.183   6.388   4.060  1.7776  0.6036  0.1405
 9428SOL    HW229184   4.224   6.543   4.031 -0.5073  1.0366 -1.0502
 9429SOL     OW29185   0.258   2.466   2.694  0.0493  0.2671 -0.3289
 9429SOL    HW129186   0.196   2.392   2.719 -0.2347  1.2099  1.9082
 9429SOL    HW229187   0.334   2.428   2.640 -0.1055 -1.6478  0.7089
 9430SOL     OW29188   6.535   5.814   4.058  0.4080  0.2256  0.1439
 9430SOL    HW129189   6.535   5.859   3.969  1.9171  1.2874  0.6266
 9430SOL    HW229190   6.572   5.721   4.049  1.0880  0.5252 -0.2712
 9431SOL     OW29191   5.403   5.465   2.948  0.3039  0.0066 -0.4279
 9431SOL    HW129192   5.376   5.372   2.925  2.7364 -1.7566  3.0102
 9431SOL    HW229193   5.444   5.509   2.868  0.1393 -2.2651 -1.8342
 9432SOL     OW29194   6.843   4.480   2.467  0.3558  0.2417  0.3850
 9432SOL    HW129195   6.909   4.532   2.412  0.7547 -1.3533 -0.7205
 9432SOL    HW229196   6.831   4.390   2.427 -1.2685 -0.0919  1.5372
 9433SOL     OW29197   4.286   6.334   2.781  0.2286  0.1549 -0.1160
 9433SOL    HW129198   4.284   6.383   2.868  1.0293 -0.0817  0.0414
 9433SOL    HW229199   4.339   6.387   2.715  0.5039 -0.1678 -0.1513
 9434SOL     OW29200   6.042   4.839   4.196 -0.6189 -0.4501  0.1503
 9434SOL    HW129201   6.103   4.759   4.203 -0.1193 -0.1288 -0.5162
 9434SOL    HW229202   6.027   4.861   4.100 -1.1603 -0.0378  0.3279
 9435SOL     OW29203   1.893   2.209   6.284 -0.4702 -0.0353  0.0830
 9435SOL    HW129204   1.932   2.237   6.372  0.4444  0.1635 -0.3724
 9435SOL    HW229205   1.962   2.160   6.231 -1.6534 -2.1029  0.3405
 9436SOL     OW29206   5.407   2.275   6.551 -0.6401 -0.8244 -0.0378
 9436SOL    HW129207   5.381   2.250   6.458  0.3294  1.1872 -0.8980
 9436SOL    HW229208   5.489   2.224   6.578 -0.7505 -1.1883 -0.3793
 9437SOL     OW29209   0.172   4.843   4.104 -0.3178 -0.3352 -0.3659
 9437SOL    HW129210   0.091   4.874   4.054 -0.0452 -0.6465 -1.0078
 9437SOL    HW229211   0.172   4.743   4.110 -0.8754 -0.2761  1.1675
 9438SOL     OW29212   6.268   6.052   6.831  0.6690 -0.2308  0.6730
 9438SOL    HW129213   6.344   6.032   6.893 -1.3501  0.1024  3.4482
 9438SOL    HW229214   6.218   5.967   6.813  0.7265 -0.1647  0.1874
 9439SOL     OW29215   2.491   2.540   3.232  0.4964  0.1607 -0.0085
 9439SOL    HW129216   2.405   2.493   3.251  0.7353 -0.1872  0.2313
 9439SOL    HW229217   2.528   2.576   3.318 -0.2005  1.7021 -0.3254
 9440SOL     OW29218   2.716   5.155   3.597 -0.2155  0.1879 -0.0283
 9440SOL    HW129219   2.637   5.100   3.621 -0.2280  0.6649  1.0715
 9440SOL    HW229220   2.686   5.244   3.562 -0.1686  0.1108 -0.2690
 9441SOL     OW29221   1.536   5.930   6.506 -0.2545  0.0605 -0.3505
 9441SOL    HW129222   1.595   5.895   6.579 -0.0948  0.5136 -0.2586
 9441SOL    HW229223   1.586   6.000   6.454 -1.1475  1.4220  0.5608
 9442SOL     OW29224   3.098   2.631   7.014 -0.0689 -0.8724 -0.0970
 9442SOL    HW129225   3.071   2.586   7.099  0.4255  1.4270  1.3817
 9442SOL    HW229226   3.083   2.730   7.023  1.1257 -0.4319 -2.2594
 9443SOL     OW29227   2.062   2.372   0.835  0.3162  0.2181 -0.0235
 9443SOL    HW129228   2.105   2.391   0.747  1.2218 -0.9783  0.1298
 9443SOL    HW229229   1.979   2.318   0.821  2.1614 -2.8756 -0.0751
 9444SOL     OW29230   6.679   2.127   5.335  0.1561 -0.1644  0.3138
 9444SOL    HW129231   6.692   2.121   5.434 -0.0782 -1.9057  0.2680
 9444SOL    HW229232   6.768   2.124   5.290  0.1820 -0.9874  0.4152
 9445SOL     OW29233   5.078   1.598   2.401  0.2310 -0.0792 -0.2069
 9445SOL    HW129234   5.152   1.532   2.414 -0.9768 -0.8729  4.4077
 9445SOL    HW229235   5.105   1.686   2.439 -0.2962  0.4019 -0.9110
 9446SOL     OW29236   5.883   4.447   5.061 -0.0952 -0.9032 -0.6910
 9446SOL    HW129237   5.951   4.520   5.070  0.2327 -1.3340  0.5304
 9446SOL    HW229238   5.900   4.378   5.131 -3.7993  0.5971  2.0008
 9447SOL     OW29239   4.346   0.834   1.661  0.1468 -0.4054  0.0477
 9447SOL    HW129240   4.297   0.903   1.715 -0.3426  0.7734 -1.7970
 9447SOL    HW229241   4.444   0.854   1.662  0.1858 -0.6338  0.8244
 9448SOL     OW29242   5.603   5.441   2.509  0.1085  0.3744 -0.3824
 9448SOL    HW129243   5.558   5.380   2.574  2.3576 -1.4969 -0.4431
 9448SOL    HW229244   5.697   5.410   2.493 -0.3828  0.4504 -4.8234
 9449SOL     OW29245   6.842   5.161   3.677 -0.0028 -0.4493  0.5146
 9449SOL    HW129246   6.798   5.183   3.590  1.1485  2.2559  0.5313
 9449SOL    HW229247   6.941   5.163   3.666  0.1495 -0.7768  1.7256
 9450SOL     OW29248   4.119   6.394   4.788 -0.0671 -0.3415  0.0956
 9450SOL    HW129249   4.023   6.381   4.766  0.3771 -1.4825 -1.2838
 9450SOL    HW229250   4.128   6.468   4.856 -1.8852 -0.2119  0.2394
 9451SOL     OW29251   3.956   3.699   6.506 -0.0285 -0.2144 -0.3370
 9451SOL    HW129252   4.054   3.689   6.494 -0.3928 -1.3829 -3.1653
 9451SOL    HW229253   3.919   3.617   6.549  0.1192 -0.1835 -0.1510
 9452SOL     OW29254   4.233   2.762   6.326 -0.5237 -0.0800  0.2957
 9452SOL    HW129255   4.185   2.733   6.409 -0.4562 -1.0865 -0.0098
 9452SOL    HW229256   4.298   2.835   6.349  0.4935 -1.2947  1.3732
 9453SOL     OW29257   3.136   4.304   0.981 -0.3647  0.1664  0.7065
 9453SOL    HW129258   3.093   4.291   0.892  1.0664 -0.8369  0.1239
 9453SOL    HW229259   3.080   4.261   1.052 -2.3631  2.3744  0.5866
 9454SOL     OW29260   2.705   2.760   6.563 -0.3975  0.1451  0.1298
 9454SOL    HW129261   2.740   2.838   6.614 -0.5653 -0.3013  0.9493
 9454SOL    HW229262   2.695   2.784   6.467 -0.8008  1.2483  0.4323
 9455SOL     OW29263   0.570   0.323   2.319  0.1763 -0.6089  0.1644
 9455SOL    HW129264   0.553   0.322   2.220  1.1914  1.3921 -0.0836
 9455SOL    HW229265   0.668   0.333   2.336 -0.1196  0.7905  1.3053
 9456SOL     OW29266   2.468   2.460   2.123 -0.1475  0.6939  0.4862
 9456SOL    HW129267   2.381   2.430   2.162 -1.7475  1.0606 -2.4934
 9456SOL    HW229268   2.464   2.557   2.103  0.6240  0.5599 -0.4093
 9457SOL     OW29269   0.255   4.553   5.777  0.1847  0.4475 -0.5552
 9457SOL    HW129270   0.241   4.460   5.810  0.6996  0.5532 -0.0139
 9457SOL    HW229271   0.283   4.551   5.681  0.7226  0.0114 -0.3928
 9458SOL     OW29272   6.816   6.408   5.058  0.2343  0.5706  0.0128
 9458SOL    HW129273   6.741   6.457   5.102 -0.5746 -0.4090 -0.2283
 9458SOL    HW229274   6.858   6.345   5.123  0.1514  0.3590 -0.1351
 9459SOL     OW29275   3.619   6.763   1.021  0.0701 -0.6281  0.4380
 9459SOL    HW129276   3.670   6.786   0.938  3.1295  1.2303  2.6364
 9459SOL    HW229277   3.564   6.842   1.050  0.2943 -0.6781  1.0160
 9460SOL     OW29278   0.560   3.453   6.014  0.2944 -0.5171 -0.0752
 9460SOL    HW129279   0.463   3.429   6.017 -0.3630  1.9127  2.5433
 9460SOL    HW229280   0.570   3.544   5.972  0.9609  0.6535  2.4184
 9461SOL     OW29281   3.884   0.230   3.789 -0.4319  0.0134 -0.0272
 9461SOL    HW129282   3.808   0.178   3.750  0.8904 -2.5664  0.5421
 9461SOL    HW229283   3.896   0.205   3.885 -0.6506  2.6259  0.7544
 9462SOL     OW29284   0.515   3.071   4.114 -0.2390  0.2591  0.2553
 9462SOL    HW129285   0.570   3.027   4.185  0.2259  0.5503  0.0831
 9462SOL    HW229286   0.572   3.137   4.064 -0.5864  0.1228 -0.3279
 9463SOL     OW29287   5.449   1.875   5.942 -0.4574  0.0039  0.3363
 9463SOL    HW129288   5.528   1.916   5.897  1.3583 -2.1326  1.4282
 9463SOL    HW229289   5.388   1.835   5.873  0.5866 -0.3639 -0.3861
 9464SOL     OW29290   3.604   5.914   0.344 -0.2505 -0.3017 -0.0177
 9464SOL    HW129291   3.618   6.011   0.320  0.5913 -0.8448 -1.9740
 9464SOL    HW229292   3.508   5.890   0.329 -0.4692  0.2336  0.4950
 9465SOL     OW29293   2.897   5.430   4.423  0.1450  0.3438  0.0001
 9465SOL    HW129294   2.938   5.480   4.347 -1.9709  0.6540 -1.0249
 9465SOL    HW229295   2.884   5.492   4.500  2.1820  0.0591  0.6333
 9466SOL     OW29296   3.773   2.273   6.927  0.6042 -0.1518 -0.3654
 9466SOL    HW129297   3.702   2.236   6.988 -1.4304  2.8714 -0.6790
 9466SOL    HW229298   3.861   2.269   6.974 -0.2534 -1.2955  1.2783
 9467SOL     OW29299   0.316   2.144   2.454  0.2482 -0.6287  0.0662
 9467SOL    HW129300   0.370   2.087   2.515  1.3190 -1.8311 -1.8774
 9467SOL    HW229301   0.374   2.218   2.418 -0.2869 -0.0923  0.2931
 9468SOL     OW29302   0.686   3.584   5.663  0.1805  0.4314  0.1875
 9468SOL    HW129303   0.611   3.586   5.596 -0.5458 -1.9224  0.8390
 9468SOL    HW229304   0.773   3.592   5.615 -0.2342 -2.5595 -1.3449
 9469SOL     OW29305   1.711   3.340   2.462  0.2170 -0.1116 -0.6786
 9469SOL    HW129306   1.800   3.338   2.416  0.5627  0.8278 -0.1057
 9469SOL    HW229307   1.713   3.278   2.540  0.4967  0.1336 -0.4831
 9470SOL     OW29308   4.856   2.207   2.436  0.3797 -0.0474  0.2565
 9470SOL    HW129309   4.799   2.216   2.517  1.7485  0.5711  1.1835
 9470SOL    HW229310   4.945   2.170   2.462  0.0622 -2.0940 -1.3230
 9471SOL     OW29311   5.812   4.161   5.412  0.0048  0.6011  0.4459
 9471SOL    HW129312   5.823   4.219   5.493  0.7600 -0.3638  1.0639
 9471SOL    HW229313   5.716   4.157   5.386 -0.1895  1.2544  1.0464
 9472SOL     OW29314   5.265   1.400   0.620  0.0857 -0.6740 -0.1107
 9472SOL    HW129315   5.225   1.318   0.579  0.0500 -0.3530 -0.7301
 9472SOL    HW229316   5.296   1.462   0.548 -0.9667  0.3943  0.3182
 9473SOL     OW29317   3.941   6.732   4.687 -0.1285  0.8002  0.4002
 9473SOL    HW129318   3.916   6.829   4.680 -1.1672  0.6022  1.1590
 9473SOL    HW229319   3.983   6.715   4.776  0.2129  0.5769  0.2010
 9474SOL     OW29320   4.677   5.302   4.656 -0.0241  0.1445  0.4159
 9474SOL    HW129321   4.692   5.235   4.583 -0.3309  1.4442 -0.8824
 9474SOL    HW229322   4.746   5.289   4.727  0.6658 -0.7764 -0.3847
 9475SOL     OW29323   2.935   5.128   1.294  0.2220  0.0990 -0.0773
 9475SOL    HW129324   2.946   5.110   1.196 -1.6656  0.1556 -0.3482
 9475SOL    HW229325   2.999   5.072   1.346  1.7684  0.5909 -1.3466
 9476SOL     OW29326   3.943   3.051   4.341 -0.1902  0.1150  0.0734
 9476SOL    HW129327   4.016   3.083   4.282 -2.3485  0.9062 -2.3438
 9476SOL    HW229328   3.953   3.092   4.432  1.7410  1.0078 -0.5021
 9477SOL     OW29329   2.290   1.933   1.818 -0.2080  0.1156 -0.0422
 9477SOL    HW129330   2.325   1.996   1.888 -2.4344  1.3362  0.0659
 9477SOL    HW229331   2.252   1.852   1.863  1.3694 -0.6897 -0.0955
 9478SOL     OW29332   4.577   2.123   6.009  0.3798 -0.1695  0.1264
 9478SOL    HW129333   4.661   2.073   5.987  0.5048  0.2891 -0.4388
 9478SOL    HW229334   4.500   2.085   5.958  0.6288  0.7454 -0.9701
 9479SOL     OW29335   3.707   5.735   4.605  0.0412  0.5415  0.3495
 9479SOL    HW129336   3.642   5.760   4.533  0.6643  1.6499  0.1406
 9479SOL    HW229337   3.793   5.783   4.590  1.6661 -2.3795 -0.5329
 9480SOL     OW29338   6.851   3.838   6.276 -0.0229 -0.1217 -0.3684
 9480SOL    HW129339   6.791   3.762   6.300  0.6964 -1.3249 -2.1245
 9480SOL    HW229340   6.942   3.822   6.314 -0.2122  0.5938  0.4269
 9481SOL     OW29341   2.342   2.317   4.220  0.0242  0.1569 -0.4215
 9481SOL    HW129342   2.280   2.369   4.280 -0.2500  0.2418 -0.7774
 9481SOL    HW229343   2.292   2.241   4.178  0.3775 -0.2960 -0.0453
 9482SOL     OW29344   5.218   2.372   1.206 -0.0920  0.0550 -0.5045
 9482SOL    HW129345   5.231   2.388   1.304  2.1355  1.5220 -0.9916
 9482SOL    HW229346   5.120   2.366   1.187 -0.7552  3.1657  1.3246
 9483SOL     OW29347   2.867   1.136   1.138 -0.1646 -0.2713 -0.0573
 9483SOL    HW129348   2.824   1.082   1.065 -0.6182  2.0625 -1.6406
 9483SOL    HW229349   2.963   1.152   1.115  0.0783 -0.7082  0.6173
 9484SOL     OW29350   5.838   1.246   3.640  0.2740  0.6484  0.2100
 9484SOL    HW129351   5.921   1.191   3.643 -0.1073  0.0539 -0.0712
 9484SOL    HW229352   5.759   1.190   3.664 -0.1692  0.9632 -0.4696
 9485SOL     OW29353   0.675   6.954   3.624  0.0750 -0.5928  0.2774
 9485SOL    HW129354   0.693   6.867   3.576 -2.3076 -0.4252 -1.0961
 9485SOL    HW229355   0.731   7.026   3.582 -0.6667 -0.7918 -1.1346
 9486SOL     OW29356   3.767   6.664   1.692  0.3171  0.3327 -0.0263
 9486SOL    HW129357   3.787   6.671   1.595  2.4132  0.6148  0.3850
 9486SOL    HW229358   3.847   6.693   1.745 -0.4971 -0.5643  1.7839
 9487SOL     OW29359   3.535   3.153   4.838  0.4939 -0.4696 -0.6950
 9487SOL    HW129360   3.462   3.196   4.891  0.7160  0.5120 -1.1457
 9487SOL    HW229361   3.507   3.147   4.742  0.6054 -1.0220 -0.6920
 9488SOL     OW29362   1.829   1.663   1.580 -0.5134  0.2997  0.1958
 9488SOL    HW129363   1.926   1.656   1.604 -0.9874 -0.6443  2.0748
 9488SOL    HW229364   1.810   1.753   1.541  1.5659 -0.3816 -2.6747
 9489SOL     OW29365   3.522   6.209   0.557 -0.1515  0.4363  0.3614
 9489SOL    HW129366   3.597   6.151   0.589 -0.1968  0.2069  0.0628
 9489SOL    HW229367   3.459   6.154   0.502 -0.6527  0.5741  0.7796
 9490SOL     OW29368   3.449   2.076   6.366  0.5283  0.0937  0.0777
 9490SOL    HW129369   3.422   2.130   6.287  0.2505  0.6245  0.5296
 9490SOL    HW229370   3.549   2.066   6.367  0.9418  3.2133  1.6008
 9491SOL     OW29371   5.414   0.273   4.857  0.3251  0.4742 -0.6902
 9491SOL    HW129372   5.457   0.361   4.838  0.9126  0.3780  0.1241
 9491SOL    HW229373   5.486   0.205   4.874 -0.1481  0.1421 -0.0017
 9492SOL     OW29374   2.483   4.843   1.171  0.6925 -0.4322 -0.5958
 9492SOL    HW129375   2.526   4.903   1.238  0.4297  0.9079 -1.5855
 9492SOL    HW229376   2.553   4.803   1.112  0.8311 -0.7610 -0.2110
 9493SOL     OW29377   4.989   4.171   2.146  0.2052 -0.0298  0.4556
 9493SOL    HW129378   4.998   4.164   2.047  1.5433  0.2945  0.5454
 9493SOL    HW229379   4.910   4.116   2.176 -1.5287  1.5117 -0.9895
 9494SOL     OW29380   4.556   2.786   0.097 -0.7602 -0.5469 -0.1374
 9494SOL    HW129381   4.512   2.721   0.035  0.6226 -1.1401 -0.5494
 9494SOL    HW229382   4.604   2.856   0.043 -0.3834 -0.4917  0.2627
 9495SOL     OW29383   5.172   3.278   3.519 -0.0251  0.2563 -0.5918
 9495SOL    HW129384   5.241   3.338   3.558 -1.5796  1.0118  1.2073
 9495SOL    HW229385   5.143   3.313   3.430  0.8630  0.7401 -0.7016
 9496SOL     OW29386   6.122   5.090   6.497 -0.3202  0.6381 -0.0712
 9496SOL    HW129387   6.051   5.156   6.473 -1.2971  0.1980  1.4775
 9496SOL    HW229388   6.161   5.114   6.586 -1.5468 -1.4814  1.1354
 9497SOL     OW29389   1.848   6.702   6.337  0.1714 -0.2721 -0.0510
 9497SOL    HW129390   1.794   6.723   6.255  0.2646 -1.3058 -0.3986
 9497SOL    HW229391   1.903   6.781   6.362 -1.8620  1.0164  0.6235
 9498SOL     OW29392   4.264   6.440   0.188 -0.1069 -0.0048  0.0298
 9498SOL    HW129393   4.324   6.404   0.117  2.9567  1.2640  1.7716
 9498SOL    HW229394   4.227   6.364   0.242  2.8273 -0.8382  1.0456
 9499SOL     OW29395   4.522   4.031   5.432  0.3804 -0.1157  0.2272
 9499SOL    HW129396   4.511   4.115   5.378 -0.2264  0.4625  1.2177
 9499SOL    HW229397   4.615   3.996   5.419  0.6825  0.7684 -0.1295
 9500SOL     OW29398   4.900   6.127   1.247  0.0513  0.2096  0.3351
 9500SOL    HW129399   4.811   6.172   1.252 -0.9978 -1.7870  0.5913
 9500SOL    HW229400   4.917   6.097   1.153  0.4701  0.5939  0.2848
 9501SOL     OW29401   2.266   2.771   5.185 -0.0825  0.0450  0.3160
 9501SOL    HW129402   2.313   2.844   5.135  0.8413 -0.7134  0.0511
 9501SOL    HW229403   2.312   2.684   5.168 -1.4444 -0.6890  0.2617
 9502SOL     OW29404   4.013   3.908   4.545  0.3401 -0.2003  0.0506
 9502SOL    HW129405   4.040   3.830   4.602  1.9842 -1.6219 -2.4531
 9502SOL    HW229406   4.078   3.983   4.558  0.4250 -0.3310  0.3953
 9503SOL     OW29407   0.615   0.857   0.245 -0.3351 -0.3675 -0.6855
 9503SOL    HW129408   0.625   0.770   0.196  0.5907 -1.2616  1.0114
 9503SOL    HW229409   0.690   0.867   0.310 -1.4441  0.8305  0.4640
 9504SOL     OW29410   0.048   4.452   1.979  0.0744 -0.3791 -0.0068
 9504SOL    HW129411   0.031   4.393   2.058  0.8470 -1.7225 -0.8113
 9504SOL    HW229412  -0.040   4.487   1.945 -0.5834 -2.2857 -0.4001
 9505SOL     OW29413   6.389   6.752   4.365 -0.0276  0.4936 -0.1307
 9505SOL    HW129414   6.474   6.801   4.389  0.1973 -0.4549  1.1049
 9505SOL    HW229415   6.313   6.816   4.367  0.4824  1.1152 -0.0390
 9506SOL     OW29416   5.282   1.113   2.354 -0.4995 -0.5167  0.1480
 9506SOL    HW129417   5.355   1.102   2.422 -0.2038 -2.5392 -0.4311
 9506SOL    HW229418   5.194   1.089   2.395 -1.1157  2.8637  1.1423
 9507SOL     OW29419   0.640   3.073   0.352 -0.0676  0.3440  0.0987
 9507SOL    HW129420   0.720   3.034   0.397  0.0071  2.1683  1.7050
 9507SOL    HW229421   0.669   3.131   0.276  0.2540  1.7388  1.2491
 9508SOL     OW29422   3.320   1.979   5.798 -0.1082  0.2443 -0.2506
 9508SOL    HW129423   3.226   2.009   5.819  0.3624 -0.0328  2.7365
 9508SOL    HW229424   3.382   2.056   5.809  0.0840  0.3865 -2.0699
 9509SOL     OW29425   3.613   1.341   5.470  0.7576  0.1850  0.4062
 9509SOL    HW129426   3.576   1.427   5.435 -1.4552 -0.4383  1.0645
 9509SOL    HW229427   3.559   1.310   5.548 -0.8625 -3.5284 -1.8873
 9510SOL     OW29428   6.403   4.933   1.986  0.4409  0.3312  0.1730
 9510SOL    HW129429   6.317   4.940   2.037  1.2862  2.4578  1.4265
 9510SOL    HW229430   6.447   4.846   2.007 -0.8384 -0.2878  0.3969
 9511SOL     OW29431   3.125   2.958   6.801  0.6332  0.0584 -0.6451
 9511SOL    HW129432   3.067   2.918   6.873  1.1133 -0.0245 -0.2964
 9511SOL    HW229433   3.197   3.013   6.844  0.8151  0.1528 -1.0723
 9512SOL     OW29434   1.837   3.138   5.525  0.3209 -0.0458 -0.0574
 9512SOL    HW129435   1.739   3.157   5.523  0.2432 -0.4780 -0.7127
 9512SOL    HW229436   1.886   3.216   5.564 -0.3846 -0.3128  1.4363
 9513SOL     OW29437   3.446   4.912   2.162  0.4580  0.1695  0.5555
 9513SOL    HW129438   3.508   4.856   2.107  1.3963  0.3164  1.4395
 9513SOL    HW229439   3.466   5.009   2.147 -0.3755  0.2602 -0.0666
 9514SOL     OW29440   3.336   3.547   4.866 -0.3423 -0.1016 -0.0090
 9514SOL    HW129441   3.377   3.509   4.783  0.4122 -1.4281  0.9296
 9514SOL    HW229442   3.241   3.573   4.848  0.2209  0.9498 -1.6393
 9515SOL     OW29443   1.605   4.860   5.571  0.1370  0.4168 -0.1178
 9515SOL    HW129444   1.570   4.913   5.494 -0.0716  0.4448 -0.0045
 9515SOL    HW229445   1.564   4.894   5.656 -0.0233  0.0476 -0.0484
 9516SOL     OW29446   1.015   5.135   5.304 -0.5298 -0.7257 -0.3377
 9516SOL    HW129447   0.924   5.167   5.330 -0.4819 -1.6187  1.0656
 9516SOL    HW229448   1.048   5.187   5.226 -1.2920  1.1985  0.5583
 9517SOL     OW29449   0.784   6.374   3.251 -0.2605  0.1478  0.0600
 9517SOL    HW129450   0.746   6.384   3.343 -3.4737 -0.6080 -1.0735
 9517SOL    HW229451   0.868   6.320   3.256 -1.1060 -1.1017  2.4128
 9518SOL     OW29452   6.333   2.682   5.688 -0.2116  0.3110  0.1063
 9518SOL    HW129453   6.294   2.674   5.780 -0.4414 -1.9409 -0.1364
 9518SOL    HW229454   6.431   2.696   5.695 -0.2708  0.4862  0.6834
 9519SOL     OW29455   4.128   3.391   3.263  0.3334  0.0196  0.0311
 9519SOL    HW129456   4.182   3.424   3.341 -0.0626 -0.9952  0.7611
 9519SOL    HW229457   4.083   3.305   3.288 -1.5682  0.7825 -0.5694
 9520SOL     OW29458   4.440   0.439   5.310 -0.4675  0.2371 -0.2590
 9520SOL    HW129459   4.448   0.538   5.320 -2.1210  0.6412 -2.2441
 9520SOL    HW229460   4.485   0.410   5.226 -0.7809 -0.5749 -0.1529
 9521SOL     OW29461   3.678   2.225   0.970 -0.4271 -0.5328  0.0551
 9521SOL    HW129462   3.637   2.203   1.059 -1.9619 -0.1786 -0.5275
 9521SOL    HW229463   3.676   2.324   0.956  0.4771 -0.5292 -0.0746
 9522SOL     OW29464   5.022   5.817   6.633  0.0746 -0.1061 -0.0135
 9522SOL    HW129465   4.974   5.904   6.645  0.2273 -0.2488  2.0088
 9522SOL    HW229466   4.979   5.747   6.691 -0.6149 -1.6491 -2.2647
 9523SOL     OW29467   2.887   4.755   2.573 -0.2876  0.4873 -0.2263
 9523SOL    HW129468   2.857   4.788   2.483  0.1954  0.0908 -0.5401
 9523SOL    HW229469   2.979   4.789   2.592 -0.3608  0.5118  0.0883
 9524SOL     OW29470   2.556   5.578   1.752  0.4373  0.0013 -0.2179
 9524SOL    HW129471   2.651   5.576   1.719  0.1288 -0.1134 -1.1223
 9524SOL    HW229472   2.556   5.600   1.850  1.3265  1.6424 -0.5384
 9525SOL     OW29473   2.540   4.573   6.386 -0.1337  0.0209  0.2185
 9525SOL    HW129474   2.523   4.514   6.465 -1.6897 -1.2122 -0.9646
 9525SOL    HW229475   2.495   4.534   6.305 -1.3781  2.9098 -0.6026
 9526SOL     OW29476   5.708   4.580   4.420 -0.1863  0.2115  0.2966
 9526SOL    HW129477   5.797   4.625   4.423  0.1096 -0.3550  0.3366
 9526SOL    HW229478   5.637   4.646   4.399  0.1904  0.7554  0.6989
 9527SOL     OW29479   6.292   5.070   4.795 -0.0491  0.1021  0.1257
 9527SOL    HW129480   6.204   5.059   4.750 -0.3150 -0.2806  0.7304
 9527SOL    HW229481   6.364   5.032   4.736  0.1422  3.0400 -1.7529
 9528SOL     OW29482   4.191   3.649   0.555 -0.1571  0.5862 -0.0191
 9528SOL    HW129483   4.182   3.691   0.465 -1.7552  0.9963  0.3130
 9528SOL    HW229484   4.250   3.568   0.548  0.3848  1.0651 -1.2630
 9529SOL     OW29485   5.696   1.274   0.944 -0.3779  0.9042 -0.4641
 9529SOL    HW129486   5.639   1.267   0.862 -0.5233 -0.9578 -0.2461
 9529SOL    HW229487   5.768   1.205   0.941  1.3294  2.5799 -0.2677
 9530SOL     OW29488   2.210   5.557   3.520  0.1327 -0.5803  0.1172
 9530SOL    HW129489   2.203   5.561   3.620  0.7937 -0.6609  0.1739
 9530SOL    HW229490   2.243   5.466   3.493 -1.3366 -1.0252 -0.2664
 9531SOL     OW29491   2.965   4.453   0.458  0.2055 -0.3789 -0.7145
 9531SOL    HW129492   3.010   4.406   0.382 -0.0498 -0.6488 -0.7021
 9531SOL    HW229493   2.984   4.551   0.452  2.8217 -0.7264  0.6707
 9532SOL     OW29494   0.531   4.044   4.461  0.9670 -0.0421 -0.6795
 9532SOL    HW129495   0.584   4.040   4.546  1.4852  1.5842 -0.8751
 9532SOL    HW229496   0.550   4.131   4.415 -0.7637 -0.0759 -1.5170
 9533SOL     OW29497   6.124   3.009   3.606 -0.1416  0.2524  0.0579
 9533SOL    HW129498   6.042   2.957   3.580  0.1838 -0.0079 -0.4584
 9533SOL    HW229499   6.167   3.046   3.524  1.9100 -2.0766 -0.0100
 9534SOL     OW29500   6.671   6.128   3.966  0.2497  0.0939  0.3982
 9534SOL    HW129501   6.654   6.048   3.908  1.3641  0.8768 -1.0723
 9534SOL    HW229502   6.750   6.111   4.024  0.3074  0.0190  0.2984
 9535SOL     OW29503   0.492   2.479   4.186  0.1270 -0.4037  0.0161
 9535SOL    HW129504   0.418   2.412   4.192 -1.2540  0.8893 -1.5313
 9535SOL    HW229505   0.476   2.552   4.252 -1.0845  0.8428 -1.5845
 9536SOL     OW29506   2.740   3.849   5.575 -0.2402 -0.4617 -0.1052
 9536SOL    HW129507   2.730   3.949   5.574 -1.0451 -0.5263  0.5398
 9536SOL    HW229508   2.655   3.807   5.606 -0.0896 -1.3877 -0.8961
 9537SOL     OW29509   0.397   0.371   4.010  0.2239  0.2384  0.8123
 9537SOL    HW129510   0.316   0.372   4.068  0.1438  0.0210  0.7048
 9537SOL    HW229511   0.412   0.462   3.971 -0.7682 -0.0346 -0.2729
 9538SOL     OW29512   5.788   1.063   0.321  0.2985 -0.0092  0.1027
 9538SOL    HW129513   5.824   1.052   0.228  1.7974 -0.3834  0.6870
 9538SOL    HW229514   5.758   1.157   0.334 -0.3388 -0.0661 -0.8916
 9539SOL     OW29515   3.157   3.712   1.642 -0.1221  0.4817  0.4017
 9539SOL    HW129516   3.102   3.730   1.724 -1.3347  0.1186 -0.3030
 9539SOL    HW229517   3.150   3.790   1.580 -0.5646  0.0742 -0.0704
 9540SOL     OW29518   4.221   5.911   2.591 -0.2337 -0.0976 -0.5073
 9540SOL    HW129519   4.237   5.813   2.603  1.5400 -0.0520 -2.1356
 9540SOL    HW229520   4.241   5.959   2.676  2.9147 -0.7512 -0.7646
 9541SOL     OW29521   2.969   4.127   5.615 -0.4305  0.1432  0.4494
 9541SOL    HW129522   3.044   4.179   5.575 -0.1752 -1.2752 -1.0695
 9541SOL    HW229523   2.884   4.151   5.568 -0.1066 -1.6371 -1.2222
 9542SOL     OW29524   6.904   4.786   2.921  0.3977 -0.1891 -0.1735
 9542SOL    HW129525   6.824   4.815   2.869  0.5350 -0.3470 -0.4784
 9542SOL    HW229526   6.881   4.780   3.018  0.2928  0.6612 -0.1375
 9543SOL     OW29527   1.852   0.568   5.863 -0.4023  0.2343 -0.4551
 9543SOL    HW129528   1.901   0.489   5.827 -1.1460 -0.3550 -0.2212
 9543SOL    HW229529   1.868   0.647   5.805  1.3346  0.2430 -0.0213
 9544SOL     OW29530   5.251   3.324   4.130 -0.6504  0.2852 -0.4896
 9544SOL    HW129531   5.273   3.250   4.194 -0.8193  1.1744  0.6156
 9544SOL    HW229532   5.288   3.410   4.164  0.5783  0.5463 -2.3530
 9545SOL     OW29533   6.705   3.828   2.832 -0.1534  0.2604  0.3173
 9545SOL    HW129534   6.768   3.769   2.782 -1.2808 -0.6308 -0.0980
 9545SOL    HW229535   6.637   3.772   2.880 -1.0095  1.2010  0.2496
 9546SOL     OW29536   2.516   3.212   6.458  0.2753 -0.4112 -0.2345
 9546SOL    HW129537   2.516   3.293   6.517 -1.7616  0.4777 -1.3568
 9546SOL    HW229538   2.448   3.147   6.490  1.2739 -1.3162  0.1231
 9547SOL     OW29539   3.567   1.498   2.393  0.4809 -0.4085  0.4055
 9547SOL    HW129540   3.522   1.410   2.377 -0.5429  0.1568  0.0226
 9547SOL    HW229541   3.582   1.511   2.491 -0.0399 -0.7006  0.5303
 9548SOL     OW29542   2.632   4.844   5.836 -0.1249 -0.1462  0.7558
 9548SOL    HW129543   2.727   4.840   5.805 -0.6552 -0.5611 -0.9247
 9548SOL    HW229544   2.586   4.759   5.812 -1.1725  0.4454  0.6131
 9549SOL     OW29545   5.591   2.054   0.482  0.2550 -0.4961 -0.3585
 9549SOL    HW129546   5.628   2.146   0.490  1.9981 -1.3044  2.2054
 9549SOL    HW229547   5.628   2.010   0.401 -1.4760  1.3418 -2.2562
 9550SOL     OW29548   5.715   0.035   0.518  0.1629  0.4609 -0.0286
 9550SOL    HW129549   5.759   0.115   0.557  2.5496  0.0276 -1.5747
 9550SOL    HW229550   5.722  -0.042   0.582 -0.1334  0.9235  0.5587
 9551SOL     OW29551   6.297   3.970   5.677 -0.1922  0.3988 -0.0632
 9551SOL    HW129552   6.347   4.057   5.683 -3.8675  2.7175 -0.1580
 9551SOL    HW229553   6.229   3.966   5.750  0.4804 -2.9704  0.5451
 9552SOL     OW29554   3.389   2.810   0.831 -0.0196  0.5398  0.0056
 9552SOL    HW129555   3.405   2.712   0.846 -0.2154  0.1208 -2.2283
 9552SOL    HW229556   3.476   2.858   0.826  0.1045  0.3370  0.1852
 9553SOL     OW29557   3.884   0.248   0.840  0.2889  0.1032 -0.4660
 9553SOL    HW129558   3.890   0.347   0.842  0.7567  0.0621  0.5387
 9553SOL    HW229559   3.788   0.220   0.838  0.1517  0.5634 -0.2597
 9554SOL     OW29560   2.004   0.963   4.559  0.0816 -0.1251 -0.1771
 9554SOL    HW129561   2.007   0.899   4.482  2.3123  0.9573 -1.1102
 9554SOL    HW229562   2.061   0.929   4.634 -0.5513 -0.2861  0.2333
 9555SOL     OW29563   1.563   5.487   3.278 -0.3323  0.2644 -0.3221
 9555SOL    HW129564   1.622   5.500   3.198 -1.2908  0.8960 -0.9518
 9555SOL    HW229565   1.549   5.390   3.293  1.2608  0.0842  0.1480
 9556SOL     OW29566   3.700   3.733   0.344  0.2009 -0.2563 -0.5552
 9556SOL    HW129567   3.706   3.781   0.431 -1.4524 -0.5411 -0.2453
 9556SOL    HW229568   3.748   3.646   0.350  0.6741  0.0264 -0.1644
 9557SOL     OW29569   6.149   1.368   0.478  0.2476  0.4173 -0.1733
 9557SOL    HW129570   6.089   1.425   0.533  0.1532 -0.3902  0.5797
 9557SOL    HW229571   6.109   1.277   0.467  0.3852  0.4757 -1.3664
 9558SOL     OW29572   4.349   6.609   4.606  0.1293 -0.0846 -0.2603
 9558SOL    HW129573   4.250   6.627   4.603  0.4147  2.6816  2.2314
 9558SOL    HW229574   4.365   6.518   4.644 -1.4008 -0.8398 -1.2977
 9559SOL     OW29575   2.469   4.130   0.835 -0.5868 -0.4892  0.1102
 9559SOL    HW129576   2.388   4.073   0.841  0.2243 -1.7358 -0.3445
 9559SOL    HW229577   2.500   4.134   0.740  0.0463 -0.2780  0.3194
 9560SOL     OW29578   2.850   0.639   2.927 -0.9109 -0.5155 -0.2223
 9560SOL    HW129579   2.940   0.607   2.954 -0.3635 -0.9464 -2.4326
 9560SOL    HW229580   2.856   0.733   2.895 -1.8435  0.5799  2.4896
 9561SOL     OW29581   0.918   0.717   0.831 -0.6964  0.6557  0.3098
 9561SOL    HW129582   0.881   0.624   0.823 -0.9820  0.8090 -0.2776
 9561SOL    HW229583   0.849   0.783   0.801  0.6339  0.8434 -2.7111
 9562SOL     OW29584   1.544   4.994   2.834 -0.0158 -0.2111  0.0373
 9562SOL    HW129585   1.467   4.931   2.820 -0.5546 -0.0202  1.9250
 9562SOL    HW229586   1.521   5.084   2.797  1.2906 -1.3023 -4.0009
 9563SOL     OW29587   0.385   4.786   6.466  0.0652 -0.3287  0.3262
 9563SOL    HW129588   0.294   4.745   6.459 -0.0427 -0.0580  0.1174
 9563SOL    HW229589   0.378   4.877   6.507  0.2806 -0.4351  0.6039
 9564SOL     OW29590   1.485   0.524   0.339 -0.1331  0.1799  0.3876
 9564SOL    HW129591   1.440   0.441   0.370  0.0154  1.0511  3.2639
 9564SOL    HW229592   1.585   0.514   0.348  0.0439 -0.0954 -1.4809
 9565SOL     OW29593   1.873   6.988   5.480 -0.3309 -0.5683 -0.1316
 9565SOL    HW129594   1.893   6.891   5.468 -0.1474 -0.5830  0.2606
 9565SOL    HW229595   1.775   7.004   5.476 -0.3194 -0.6487 -1.0408
 9566SOL     OW29596   1.677   0.646   0.985 -0.1139  0.7017 -0.6677
 9566SOL    HW129597   1.650   0.659   0.890  2.3706  0.1486 -1.5293
 9566SOL    HW229598   1.734   0.564   0.993 -0.5415  0.5407  1.3768
 9567SOL     OW29599   6.568   4.272   6.981 -0.2234 -0.0165  0.1559
 9567SOL    HW129600   6.662   4.273   6.945 -0.9244 -0.0557 -1.8377
 9567SOL    HW229601   6.539   4.177   6.995 -0.1946 -0.0325  0.1093
 9568SOL     OW29602   3.347   4.028   5.964 -0.1986 -0.9561 -0.1135
 9568SOL    HW129603   3.434   3.985   5.940  0.7643  1.0228 -0.3849
 9568SOL    HW229604   3.309   4.073   5.883  0.7136  1.7820  0.8681
 9569SOL     OW29605   6.866   0.271   2.924  0.3159 -0.0556 -0.5006
 9569SOL    HW129606   6.903   0.240   2.836 -2.5935  0.6284 -2.0960
 9569SOL    HW229607   6.790   0.333   2.908 -1.3920 -1.1688  2.4969
 9570SOL     OW29608   1.732   2.352   3.300  0.4721 -0.1471  0.1494
 9570SOL    HW129609   1.713   2.394   3.389  1.3578 -1.2053  0.8758
 9570SOL    HW229610   1.647   2.317   3.261  0.0480  0.4469  0.5186
 9571SOL     OW29611   2.330   3.256   6.717 -0.4031 -0.4867 -0.3478
 9571SOL    HW129612   2.268   3.211   6.652 -1.5446  0.2213  0.2197
 9571SOL    HW229613   2.277   3.315   6.778  1.0989  2.5052 -1.7242
 9572SOL     OW29614   2.436   5.667   5.244  0.4153  0.0854  0.5212
 9572SOL    HW129615   2.530   5.634   5.237  0.0934 -0.5866 -1.2743
 9572SOL    HW229616   2.373   5.590   5.245 -0.1343  0.4952  2.5359
 9573SOL     OW29617   5.220   6.997   2.746 -0.3654  0.0464  0.1899
 9573SOL    HW129618   5.156   7.031   2.677 -1.2995  1.5059  1.6953
 9573SOL    HW229619   5.195   6.903   2.772 -0.8540 -0.0025 -0.4488
 9574SOL     OW29620   4.709   2.950   1.034  0.7714 -0.4233 -0.7702
 9574SOL    HW129621   4.649   2.965   0.956  0.3701 -1.9286 -0.7795
 9574SOL    HW229622   4.670   2.994   1.115 -0.1750 -1.0859 -0.8534
 9575SOL     OW29623   5.390   0.660   0.997  0.4015  0.1360 -0.2053
 9575SOL    HW129624   5.335   0.665   0.914  1.7726 -1.2936 -1.2450
 9575SOL    HW229625   5.391   0.750   1.041 -2.1073  0.3930 -0.5293
 9576SOL     OW29626   0.936   0.834   6.298  0.0291  0.0133  1.0738
 9576SOL    HW129627   1.014   0.798   6.350 -1.8167 -0.4458  3.7894
 9576SOL    HW229628   0.873   0.880   6.361 -1.4805  1.1557 -1.1398
 9577SOL     OW29629   1.121   0.062   3.207 -0.9320  0.3713 -0.7237
 9577SOL    HW129630   1.187   0.063   3.282  1.3917  0.0724 -2.6432
 9577SOL    HW229631   1.106   0.155   3.174 -2.1690  0.5344  0.2495
 9578SOL     OW29632   1.287   2.289   2.503  0.2501  0.5940 -0.2039
 9578SOL    HW129633   1.297   2.191   2.487 -1.6557  0.3799 -0.3806
 9578SOL    HW229634   1.377   2.331   2.512  1.1216 -1.0476 -0.8111
 9579SOL     OW29635   1.373   5.874   2.363 -0.1740  0.3412  0.3759
 9579SOL    HW129636   1.414   5.864   2.454 -0.1934  0.4703  0.3992
 9579SOL    HW229637   1.430   5.933   2.307  0.3701 -0.5613 -0.0349
 9580SOL     OW29638   5.017   4.313   4.121  0.4201 -0.1143 -0.0569
 9580SOL    HW129639   5.068   4.239   4.165  0.5600 -0.0280 -0.0745
 9580SOL    HW229640   4.921   4.287   4.114  0.2373  0.2370  1.0812
 9581SOL     OW29641   4.884   1.140   0.649 -0.3801  0.0886  0.0389
 9581SOL    HW129642   4.882   1.085   0.733  1.3202  0.4542  0.3507
 9581SOL    HW229643   4.871   1.236   0.672 -0.1907  0.1603 -0.1547
 9582SOL     OW29644   3.949   5.573   3.215  0.6115  0.4226 -0.2451
 9582SOL    HW129645   3.980   5.484   3.249  1.3305 -0.1007 -2.1157
 9582SOL    HW229646   4.024   5.619   3.168 -0.7611  0.1485 -2.8996
 9583SOL     OW29647   4.548   5.533   1.830  0.0964  0.0838  0.3296
 9583SOL    HW129648   4.597   5.498   1.751 -0.7933 -2.0977  0.6824
 9583SOL    HW229649   4.463   5.483   1.842 -1.3099  2.4427  0.9046
 9584SOL     OW29650   3.073   5.807   2.585  0.7177 -0.2844 -0.1442
 9584SOL    HW129651   3.063   5.854   2.673 -0.3361 -1.0314  0.1446
 9584SOL    HW229652   3.064   5.873   2.511 -0.6436  0.0020  0.2568
 9585SOL     OW29653   5.525   5.004   1.556  0.1043  0.0509  0.1083
 9585SOL    HW129654   5.428   4.998   1.533 -0.4539 -2.6920  2.5775
 9585SOL    HW229655   5.535   5.010   1.656  2.4948 -1.0602 -0.0005
 9586SOL     OW29656   2.494   5.299   2.920  0.0056  0.4536  0.2302
 9586SOL    HW129657   2.537   5.285   3.009  0.7918 -0.1925 -0.2382
 9586SOL    HW229658   2.560   5.278   2.847 -1.1516 -0.7297 -0.5163
 9587SOL     OW29659   6.252   5.535   0.459 -0.5469  0.5086 -0.1326
 9587SOL    HW129660   6.239   5.565   0.553  1.0127 -3.0482  1.4292
 9587SOL    HW229661   6.181   5.470   0.434  0.5932 -0.7410 -0.2825
 9588SOL     OW29662   6.587   6.421   1.057  0.5183 -0.6525  0.2323
 9588SOL    HW129663   6.680   6.396   1.082  1.8914  2.1688 -1.5607
 9588SOL    HW229664   6.577   6.418   0.957 -0.8038  0.6365  0.2960
 9589SOL     OW29665   1.233   1.380   5.780 -0.1849  0.3207  0.0530
 9589SOL    HW129666   1.299   1.444   5.743 -0.7195  0.0774 -1.4117
 9589SOL    HW229667   1.167   1.355   5.709 -1.2786 -0.1857  1.1900
 9590SOL     OW29668   5.312   6.072   0.402  0.0361 -0.2053 -0.0758
 9590SOL    HW129669   5.272   6.057   0.311  0.1245  2.0872 -0.5371
 9590SOL    HW229670   5.403   6.030   0.405 -0.1094 -0.6118 -0.9226
 9591SOL     OW29671   5.165   1.242   0.398 -0.4719  0.2881 -0.6474
 9591SOL    HW129672   5.195   1.287   0.313  0.8055 -2.3141 -1.6953
 9591SOL    HW229673   5.066   1.244   0.403 -0.6051  0.1237 -2.4709
 9592SOL     OW29674   6.625   0.571   4.719 -0.9249  0.7646 -0.5619
 9592SOL    HW129675   6.718   0.607   4.718 -0.8289  0.5949  0.6022
 9592SOL    HW229676   6.591   0.570   4.813 -1.9273  0.3745 -0.9175
 9593SOL     OW29677   2.534   2.431   5.449  0.3077  0.0677  0.2755
 9593SOL    HW129678   2.630   2.405   5.439  0.5840  1.0285  0.3138
 9593SOL    HW229679   2.482   2.398   5.370  1.2461  2.1145 -1.2772
 9594SOL     OW29680   6.820   0.142   4.873  0.8335  0.3304 -0.3423
 9594SOL    HW129681   6.859   0.157   4.964  0.0024  1.6869 -0.1739
 9594SOL    HW229682   6.812   0.044   4.856 -0.3057  0.0238  1.6481
 9595SOL     OW29683   0.024   4.702   3.316 -0.2669 -0.0842 -0.2412
 9595SOL    HW129684  -0.023   4.655   3.241 -0.3413 -1.3588  0.5626
 9595SOL    HW229685   0.114   4.660   3.330  0.0830  0.6855 -0.1406
 9596SOL     OW29686   2.371   4.879   4.601 -0.4738 -0.1278  0.5926
 9596SOL    HW129687   2.302   4.834   4.543  0.3714 -0.0185 -0.5426
 9596SOL    HW229688   2.448   4.908   4.544  0.3263  0.1310  1.7695
 9597SOL     OW29689   1.822   3.840   3.704  0.1538 -0.6427 -0.3512
 9597SOL    HW129690   1.816   3.918   3.766 -0.5219 -3.7401  3.9238
 9597SOL    HW229691   1.918   3.816   3.692  0.4178 -3.2705  4.5541
 9598SOL     OW29692   1.942   4.986   3.749  0.2805  0.0675  0.4015
 9598SOL    HW129693   1.887   4.924   3.805  1.6963 -0.2585  1.4680
 9598SOL    HW229694   1.995   5.047   3.808  0.6115  0.7939 -0.6098
 9599SOL     OW29695   4.363   2.366   4.816 -0.4490  0.0780  0.1266
 9599SOL    HW129696   4.331   2.299   4.749 -0.6710  0.2077  0.1041
 9599SOL    HW229697   4.289   2.387   4.880  0.3680 -1.6827  1.7490
 9600SOL     OW29698   4.284   0.486   1.468 -0.2905  0.2001 -0.3977
 9600SOL    HW129699   4.376   0.517   1.490 -0.3769 -0.7765  1.5559
 9600SOL    HW229700   4.253   0.530   1.383  0.3219  3.8893  1.0900
 9601SOL     OW29701   1.470   2.865   0.805 -0.5718  0.4778 -0.2915
 9601SOL    HW129702   1.560   2.881   0.763  0.0193 -0.9253  0.3664
 9601SOL    HW229703   1.401   2.921   0.758  0.4953  0.9670 -1.3484
 9602SOL     OW29704   4.303   4.749   5.233  0.7138 -0.5856 -0.4541
 9602SOL    HW129705   4.210   4.749   5.268  0.4912  2.3774 -0.8270
 9602SOL    HW229706   4.310   4.686   5.156 -0.4442 -2.2247  0.7068
 9603SOL     OW29707   5.995   4.625   6.313 -0.0396  0.0608 -0.4025
 9603SOL    HW129708   6.001   4.722   6.336  1.1541  0.0352 -0.5364
 9603SOL    HW229709   6.009   4.571   6.396  1.2598  0.0011 -0.6354
 9604SOL     OW29710   3.620   0.035   1.931 -0.1470  0.0142  0.2570
 9604SOL    HW129711   3.604  -0.064   1.927  2.6301 -0.4931 -1.0058
 9604SOL    HW229712   3.713   0.052   1.964 -1.0132  2.3150  1.7141
 9605SOL     OW29713   5.379   4.436   0.342  0.0391 -0.6232  0.1615
 9605SOL    HW129714   5.381   4.436   0.242 -2.2466 -0.2400  0.0577
 9605SOL    HW229715   5.288   4.409   0.373  0.8510 -1.1761  2.1631
 9606SOL     OW29716   2.689   2.676   6.277  0.2680 -0.2262  0.4377
 9606SOL    HW129717   2.603   2.722   6.255  1.6159  1.9447 -0.6507
 9606SOL    HW229718   2.728   2.635   6.195  1.1351  0.3982  0.5198
 9607SOL     OW29719   3.288   3.461   0.193 -0.0226  0.5461  0.1000
 9607SOL    HW129720   3.272   3.487   0.288  1.3341 -0.3152  0.5836
 9607SOL    HW229721   3.309   3.364   0.188 -1.8241  0.1671 -1.3124
 9608SOL     OW29722   5.093   4.613   3.719 -0.0292 -0.0847  0.0682
 9608SOL    HW129723   5.076   4.550   3.795  1.6161  0.8186  1.2504
 9608SOL    HW229724   5.141   4.565   3.645 -1.2637 -0.8661 -0.2457
 9609SOL     OW29725   5.217   4.422   1.389  0.5569  0.1483  0.9671
 9609SOL    HW129726   5.232   4.443   1.485  0.8458  1.8294  0.5993
 9609SOL    HW229727   5.305   4.426   1.340  0.1658  1.1899  0.3255
 9610SOL     OW29728   0.620   4.854   1.695 -0.2180 -0.6103  0.3413
 9610SOL    HW129729   0.549   4.922   1.714 -0.9149 -1.3491  0.4730
 9610SOL    HW229730   0.580   4.778   1.643  0.4165 -1.1580  0.6342
 9611SOL     OW29731   2.551   0.778   0.691  0.1361 -0.5227  0.0438
 9611SOL    HW129732   2.618   0.768   0.765 -0.8140 -0.3335  0.9453
 9611SOL    HW229733   2.464   0.808   0.729 -0.1313  0.4064 -1.2717
 9612SOL     OW29734   4.823   2.940   2.790  0.1311  0.3793  0.1822
 9612SOL    HW129735   4.805   3.006   2.717  1.2464  2.1765  1.4695
 9612SOL    HW229736   4.837   2.988   2.876 -1.0924 -1.6816  1.6305
 9613SOL     OW29737   6.639   5.531   4.410  0.2257  0.0551  0.7047
 9613SOL    HW129738   6.688   5.445   4.394 -0.2325 -0.6660  2.7484
 9613SOL    HW229739   6.643   5.554   4.507  0.3675  2.4069  0.2047
 9614SOL     OW29740   3.817   1.218   2.466 -0.3704  0.6947  0.2790
 9614SOL    HW129741   3.757   1.252   2.538 -1.3615 -1.2384  0.4325
 9614SOL    HW229742   3.763   1.195   2.385 -0.1037 -2.1156  0.7971
 9615SOL     OW29743   2.167   3.949   2.922  0.0844  0.3409 -0.4388
 9615SOL    HW129744   2.164   3.961   2.823  0.1004 -0.0139 -0.4804
 9615SOL    HW229745   2.186   3.854   2.944 -0.5580  0.2934 -0.0870
 9616SOL     OW29746   2.325   4.561   5.930 -0.1101 -0.0051  0.5201
 9616SOL    HW129747   2.391   4.579   5.857 -0.6571  1.6480  0.3984
 9616SOL    HW229748   2.250   4.626   5.924 -0.2285  0.0857  2.4992
 9617SOL     OW29749   0.231   1.696   4.454  0.2379 -0.4053 -0.0256
 9617SOL    HW129750   0.238   1.779   4.509  2.5332 -0.6579  0.1892
 9617SOL    HW229751   0.156   1.639   4.488 -0.0668  0.6504  1.1340
 9618SOL     OW29752   1.649   3.579   1.465 -0.1118 -0.1637 -0.6225
 9618SOL    HW129753   1.639   3.525   1.381 -1.7720  0.1379 -0.6347
 9618SOL    HW229754   1.724   3.644   1.453  0.8050 -1.2908 -1.2218
 9619SOL     OW29755   1.068   1.133   4.792 -0.4201 -0.0217 -0.3643
 9619SOL    HW129756   1.118   1.197   4.734  1.8332  0.5050  1.9835
 9619SOL    HW229757   1.110   1.042   4.784 -1.2817 -0.3802 -0.9211
 9620SOL     OW29758   4.243   0.933   6.482  0.4380 -0.0384  0.5424
 9620SOL    HW129759   4.268   0.998   6.410 -0.2510 -0.4228 -0.0563
 9620SOL    HW229760   4.322   0.875   6.504  0.3813 -0.5565 -0.5850
 9621SOL     OW29761   2.103   3.878   3.651 -0.0549  0.5801  0.4848
 9621SOL    HW129762   2.114   3.828   3.565  0.3133  0.7520  0.4315
 9621SOL    HW229763   2.171   3.951   3.657 -0.2817  0.7727  0.7794
 9622SOL     OW29764   4.579   6.283   6.716  0.2627 -0.3519 -0.1790
 9622SOL    HW129765   4.586   6.240   6.806  1.6796 -1.5757 -0.8431
 9622SOL    HW229766   4.489   6.326   6.708  0.4046  0.5583  2.1353
 9623SOL     OW29767   6.681   3.417   6.977  0.4506  0.3079  0.3464
 9623SOL    HW129768   6.746   3.472   6.925 -0.1491 -0.1694 -0.9453
 9623SOL    HW229769   6.715   3.323   6.984 -0.4779 -0.1596 -1.0940
 9624SOL     OW29770   0.024   2.280   2.740  0.1477  0.0244  0.3741
 9624SOL    HW129771   0.021   2.367   2.789 -1.8337 -0.2156  0.7588
 9624SOL    HW229772   0.001   2.206   2.803 -1.5451 -0.3968 -0.6952
 9625SOL     OW29773   2.821   4.970   6.646  0.1365 -0.1865  0.2086
 9625SOL    HW129774   2.774   4.986   6.733 -0.8282  0.8094 -0.4721
 9625SOL    HW229775   2.786   4.885   6.605  1.4759 -1.3371  1.3351
 9626SOL     OW29776   2.833   0.857   1.276 -0.2758 -0.1483 -0.1125
 9626SOL    HW129777   2.849   0.952   1.250  0.1460  0.0378  0.7943
 9626SOL    HW229778   2.806   0.853   1.372  1.0262 -1.0442  0.2388
 9627SOL     OW29779   3.261   6.038   0.454  0.3675  0.5691  0.0793
 9627SOL    HW129780   3.253   5.945   0.417  0.9008  0.9399 -1.0179
 9627SOL    HW229781   3.214   6.043   0.542 -0.0733 -0.6171 -0.0694
 9628SOL     OW29782   4.502   5.931   1.296  0.0385  0.7726  0.3432
 9628SOL    HW129783   4.552   5.846   1.313 -1.5811 -0.3199 -0.1095
 9628SOL    HW229784   4.496   5.947   1.198 -2.3803 -0.3489  0.2494
 9629SOL     OW29785   2.761   1.018   0.898  0.7204 -0.0199 -0.1286
 9629SOL    HW129786   2.774   0.936   0.842  0.5064  0.7102 -1.2909
 9629SOL    HW229787   2.678   1.009   0.952  1.2071 -0.9576  0.4827
 9630SOL     OW29788   7.009   1.631   0.970 -0.1855  0.1255  0.0687
 9630SOL    HW129789   7.001   1.671   1.061  1.0632 -0.5727  0.5051
 9630SOL    HW229790   7.067   1.549   0.974 -0.2744 -0.0282 -1.3131
 9631SOL     OW29791   0.651   5.860   6.633  0.4436  0.4471  0.2447
 9631SOL    HW129792   0.564   5.869   6.681  0.7371  1.9084  0.5543
 9631SOL    HW229793   0.635   5.826   6.541 -0.7150  2.5963 -0.4178
 9632SOL     OW29794   1.594   6.481   3.534 -0.0441 -0.6477  0.4267
 9632SOL    HW129795   1.529   6.511   3.604 -0.0303  3.4669 -1.0015
 9632SOL    HW229796   1.545   6.450   3.453 -0.1852 -0.2666  0.3656
 9633SOL     OW29797   1.090   4.663   6.717  0.3232  0.2342  0.4423
 9633SOL    HW129798   1.040   4.633   6.798 -2.5743  1.5635 -0.7145
 9633SOL    HW229799   1.143   4.745   6.738 -0.3543  0.5311  1.0360
 9634SOL     OW29800   6.281   6.138   4.267  0.3590 -0.0544 -0.2580
 9634SOL    HW129801   6.226   6.182   4.338  0.2769 -1.7878  0.8216
 9634SOL    HW229802   6.221   6.095   4.200  0.4273  2.1750 -1.8505
 9635SOL     OW29803   5.398   4.971   5.761 -0.0214  1.1220  0.1722
 9635SOL    HW129804   5.322   5.031   5.784  0.1022  1.5008 -0.3741
 9635SOL    HW229805   5.366   4.898   5.700 -0.8521 -1.2350  3.2089
 9636SOL     OW29806   2.750   1.362   6.890  0.7449  0.4687  0.1007
 9636SOL    HW129807   2.814   1.315   6.951  0.7084  0.6096  0.2487
 9636SOL    HW229808   2.666   1.383   6.940  0.6669  0.4762 -0.0329
 9637SOL     OW29809   3.531   4.883   6.963  0.3361  0.6191 -0.0413
 9637SOL    HW129810   3.468   4.806   6.959  0.7505  0.1838  1.3687
 9637SOL    HW229811   3.485   4.962   7.004  0.0478  1.0000 -1.0732
 9638SOL     OW29812   6.932   2.321   6.966  0.4487  0.2954  0.0304
 9638SOL    HW129813   6.834   2.325   6.946  0.6881  0.7270 -1.1605
 9638SOL    HW229814   6.957   2.229   6.996 -0.3456  0.2268  0.4993
 9639SOL     OW29815   4.210   5.068   2.924  0.5849  0.4838 -0.2648
 9639SOL    HW129816   4.212   5.154   2.975  1.7823  0.3151  0.0139
 9639SOL    HW229817   4.121   5.024   2.936  0.2854  1.2383  0.3449
 9640SOL     OW29818   2.585   1.049   1.899  0.7173  0.2556  0.0241
 9640SOL    HW129819   2.506   1.108   1.915  0.2999 -0.5276  0.9070
 9640SOL    HW229820   2.637   1.038   1.984 -0.1356 -1.9497  0.3079
 9641SOL     OW29821   5.659   6.562   6.027 -0.2984  0.3113  0.0821
 9641SOL    HW129822   5.568   6.539   6.059  0.1053  0.3079  1.2684
 9641SOL    HW229823   5.708   6.479   6.000 -1.1846  0.4346 -2.1734
 9642SOL     OW29824   2.386   0.657   2.818 -0.3000 -0.3007  0.1106
 9642SOL    HW129825   2.447   0.684   2.744  2.0200 -0.6886  1.7697
 9642SOL    HW229826   2.295   0.640   2.781  1.2249 -2.7334 -3.1015
 9643SOL     OW29827   4.641   4.290   2.616 -0.4983  0.6794 -0.2081
 9643SOL    HW129828   4.697   4.253   2.690 -0.7750  0.4500 -0.1083
 9643SOL    HW229829   4.573   4.222   2.589 -1.8793  1.5755  0.8647
 9644SOL     OW29830   1.665   2.355   1.734  0.2200  0.4181  0.1792
 9644SOL    HW129831   1.639   2.302   1.814  1.8806 -0.5018  0.1432
 9644SOL    HW229832   1.764   2.354   1.723  0.0070 -0.8323 -2.7509
 9645SOL     OW29833   3.110   5.168   5.461 -0.1222 -0.3028  0.1468
 9645SOL    HW129834   3.127   5.070   5.452  0.5290 -0.2877  1.0127
 9645SOL    HW229835   3.036   5.195   5.400 -0.1670 -1.2931 -0.2578
 9646SOL     OW29836   2.367   5.906   5.137  0.1517 -0.2785  0.8544
 9646SOL    HW129837   2.447   5.965   5.126 -0.4538  0.1549 -1.7445
 9646SOL    HW229838   2.397   5.817   5.173  2.1046 -0.6616 -1.4375
 9647SOL     OW29839   5.228   3.324   5.096 -0.0786 -0.1976 -0.0638
 9647SOL    HW129840   5.308   3.340   5.154 -0.2216  1.2544 -0.2375
 9647SOL    HW229841   5.146   3.317   5.153 -0.2845  1.6945 -0.0944
 9648SOL     OW29842   2.328   2.719   0.921 -0.0947 -0.1851 -0.2683
 9648SOL    HW129843   2.320   2.681   0.829  0.0743  3.1545 -1.7904
 9648SOL    HW229844   2.424   2.716   0.950  0.1081  0.2151 -0.8884
 9649SOL     OW29845   2.081   4.701   0.782 -0.0893 -0.3439  0.1555
 9649SOL    HW129846   2.165   4.739   0.820 -0.3652 -1.2021  1.7173
 9649SOL    HW229847   2.078   4.603   0.798 -1.3921 -0.3321  0.1539
 9650SOL     OW29848   2.668   1.442   2.194 -0.0170  0.1529  0.1906
 9650SOL    HW129849   2.599   1.512   2.211 -0.6862 -0.4198 -0.1125
 9650SOL    HW229850   2.746   1.482   2.145  0.4725  1.0924  1.6853
 9651SOL     OW29851   1.772   3.784   1.149 -0.1241 -0.1915 -0.2131
 9651SOL    HW129852   1.672   3.782   1.155 -0.0194 -1.4778  2.7169
 9651SOL    HW229853   1.801   3.745   1.062 -2.1557 -1.5337 -0.3491
 9652SOL     OW29854   2.125   4.170   6.636 -0.4762  0.2504  0.1485
 9652SOL    HW129855   2.210   4.143   6.591 -0.0271 -0.6974  1.4965
 9652SOL    HW229856   2.051   4.175   6.569 -0.2754 -3.0240 -0.4599
 9653SOL     OW29857   6.510   6.981   4.960 -0.3894  0.0403  0.0745
 9653SOL    HW129858   6.446   7.021   4.895 -1.4083 -1.1576  0.2915
 9653SOL    HW229859   6.497   7.022   5.050  0.2363  0.8880 -0.2053
 9654SOL     OW29860   2.135   2.554   3.997  0.2313  0.3284  0.2807
 9654SOL    HW129861   2.219   2.501   3.987  0.2614  0.2770  0.7840
 9654SOL    HW229862   2.125   2.584   4.092 -0.7348 -0.3596  0.4112
 9655SOL     OW29863   0.326   2.146   1.125 -0.1109  0.3044  0.5107
 9655SOL    HW129864   0.405   2.100   1.086 -0.2177  0.8283 -0.3383
 9655SOL    HW229865   0.312   2.114   1.219 -0.9608 -2.3678 -0.4486
 9656SOL     OW29866   1.341   2.157   3.556 -0.2615 -0.1098  0.1651
 9656SOL    HW129867   1.362   2.254   3.544 -1.3561  0.5342  2.6987
 9656SOL    HW229868   1.346   2.111   3.467  0.8777  2.1091 -1.0230
 9657SOL     OW29869   5.735   6.442   3.491  0.5829 -0.0254  0.4274
 9657SOL    HW129870   5.687   6.397   3.415  1.1011  1.5453 -0.8860
 9657SOL    HW229871   5.831   6.416   3.489  0.3353 -1.1257  1.4786
 9658SOL     OW29872   6.539   0.621   1.192 -0.0477  0.2671  0.0128
 9658SOL    HW129873   6.629   0.655   1.163  0.2930 -1.1404 -0.6172
 9658SOL    HW229874   6.487   0.592   1.113 -0.2843 -0.7738  0.5332
 9659SOL     OW29875   1.548   6.799   6.265 -0.0326 -0.2367 -0.3101
 9659SOL    HW129876   1.468   6.816   6.207  0.4998 -0.3359 -1.0854
 9659SOL    HW229877   1.577   6.884   6.308  0.0222 -0.0113 -0.7842
 9660SOL     OW29878   1.634   6.177   6.359 -0.1554 -0.2769  1.0578
 9660SOL    HW129879   1.535   6.169   6.374 -1.1229  2.8355 -2.3042
 9660SOL    HW229880   1.667   6.263   6.397  0.7688 -0.1978  0.1245
 9661SOL     OW29881   4.878   0.402   1.559  0.8562 -0.2204  0.2942
 9661SOL    HW129882   4.925   0.486   1.587 -0.3421  0.6056 -0.0646
 9661SOL    HW229883   4.857   0.347   1.640  0.4733  0.4829  0.6851
 9662SOL     OW29884   5.685   3.246   3.656  0.4007 -0.4244  0.0992
 9662SOL    HW129885   5.666   3.279   3.748 -0.7098 -0.7999  0.0175
 9662SOL    HW229886   5.632   3.163   3.638 -1.2853  0.9321 -1.6857
 9663SOL     OW29887   3.259   5.982   1.320 -0.0916  0.0573  0.7178
 9663SOL    HW129888   3.162   6.007   1.320  0.2935  2.0045  3.6237
 9663SOL    HW229889   3.306   6.027   1.396  2.6635 -2.6597  0.8473
 9664SOL     OW29890   2.230   6.203   0.975 -0.0315 -0.6600 -0.9186
 9664SOL    HW129891   2.315   6.192   1.027 -0.2246 -0.6180 -0.5868
 9664SOL    HW229892   2.170   6.267   1.023  0.3112  0.3963 -1.8671
 9665SOL     OW29893   6.891   3.799   3.044  0.0359  0.1433 -0.2412
 9665SOL    HW129894   6.838   3.799   2.959  0.6996  1.2209 -0.6649
 9665SOL    HW229895   6.965   3.866   3.038  2.3380 -2.2562 -0.1802
 9666SOL     OW29896   3.505   5.330   4.120  0.1072  0.1689  0.2769
 9666SOL    HW129897   3.425   5.293   4.074  0.3123  0.9796 -0.7740
 9666SOL    HW229898   3.580   5.264   4.113  0.1003  0.2260 -0.4569
 9667SOL     OW29899   3.212   3.374   2.595 -0.2224  0.0613 -0.8297
 9667SOL    HW129900   3.158   3.315   2.536 -1.0600  0.6948 -0.7085
 9667SOL    HW229901   3.171   3.465   2.598  0.9599  0.6184 -0.8984
 9668SOL     OW29902   6.564   4.003   4.750  1.0760 -0.5275 -0.1816
 9668SOL    HW129903   6.505   3.985   4.828 -0.3693  0.8612 -0.8938
 9668SOL    HW229904   6.581   3.918   4.700 -0.0670 -1.0010  0.2198
 9669SOL     OW29905   5.820   6.966   0.273 -0.4730  0.2720 -0.2204
 9669SOL    HW129906   5.792   6.983   0.368 -1.2860 -0.3582 -0.3443
 9669SOL    HW229907   5.915   6.998   0.261 -0.1283 -0.2413  0.9700
 9670SOL     OW29908   5.779   4.208   0.684  0.1340  0.3514  0.0045
 9670SOL    HW129909   5.729   4.194   0.770 -1.8808  2.6704 -0.6817
 9670SOL    HW229910   5.855   4.271   0.700  0.0120  0.4580  0.1714
 9671SOL     OW29911   5.701   6.723   0.252 -0.0797 -0.2706  0.1894
 9671SOL    HW129912   5.768   6.796   0.243  1.6522 -1.7174  0.8228
 9671SOL    HW229913   5.609   6.762   0.251  0.7967  2.0040  1.3913
 9672SOL     OW29914   6.638   6.696   6.890 -0.4608 -0.7297  0.2780
 9672SOL    HW129915   6.718   6.710   6.948  0.7904 -1.6514 -1.1294
 9672SOL    HW229916   6.655   6.737   6.800 -1.5504 -1.0066 -0.0678
 9673SOL     OW29917   2.213   3.806   0.125 -0.5103  0.0371 -0.1083
 9673SOL    HW129918   2.285   3.784   0.060 -0.6555  1.6547 -0.8662
 9673SOL    HW229919   2.240   3.779   0.217  0.4264 -0.7109 -0.5989
 9674SOL     OW29920   3.128   6.411   0.128  0.6632  0.1452 -0.1814
 9674SOL    HW129921   3.038   6.440   0.162 -0.8747 -2.4937 -1.6697
 9674SOL    HW229922   3.174   6.355   0.197  1.3218  1.6232  0.6423
 9675SOL     OW29923   0.405   0.912   1.594  0.1754 -0.2144 -0.2042
 9675SOL    HW129924   0.350   0.879   1.671  0.2884  1.1308  0.4728
 9675SOL    HW229925   0.486   0.854   1.583  0.0444 -0.5459  0.5430
 9676SOL     OW29926   5.827   4.945   3.752  0.1319  0.0058 -0.2509
 9676SOL    HW129927   5.809   4.908   3.661  1.3853  2.2055 -1.4809
 9676SOL    HW229928   5.744   4.985   3.790 -0.4222 -1.0224 -0.3538
 9677SOL     OW29929   1.647   2.792   5.540  0.0951  0.4325 -0.3789
 9677SOL    HW129930   1.675   2.710   5.590  1.4534  1.8266  1.2853
 9677SOL    HW229931   1.676   2.785   5.445 -0.7811 -1.4484 -0.5582
 9678SOL     OW29932   4.094   3.304   3.766 -0.0897  0.7469  0.1901
 9678SOL    HW129933   4.087   3.288   3.668  0.6675 -1.6920  0.4795
 9678SOL    HW229934   4.118   3.400   3.782  2.8603  0.5580 -2.1854
 9679SOL     OW29935   0.238   3.866   1.488  0.0472  0.1425 -0.0476
 9679SOL    HW129936   0.310   3.798   1.500  0.0041  0.0062 -0.5212
 9679SOL    HW229937   0.185   3.873   1.572 -0.0061 -0.4801 -0.0179
 9680SOL     OW29938   5.852   4.221   2.953 -0.1650 -0.0895  0.1104
 9680SOL    HW129939   5.809   4.148   2.900  0.1944 -0.9083  0.9220
 9680SOL    HW229940   5.942   4.191   2.985  0.9055  1.4670 -1.2674
 9681SOL     OW29941   0.847   1.155   4.434 -0.1306  0.5255  0.5188
 9681SOL    HW129942   0.783   1.166   4.510 -1.5547  1.0178 -0.7136
 9681SOL    HW229943   0.823   1.218   4.361 -1.2421 -2.5391 -1.9698
 9682SOL     OW29944   0.620   2.662   0.958 -0.3186 -0.1573 -0.1798
 9682SOL    HW129945   0.668   2.578   0.983 -1.9061 -1.0024  0.1434
 9682SOL    HW229946   0.521   2.649   0.969 -0.6401  1.5577 -0.7166
 9683SOL     OW29947   5.272   0.199   4.612 -0.9837  0.4978  0.2796
 9683SOL    HW129948   5.331   0.212   4.691 -1.2757  1.3149  0.3732
 9683SOL    HW229949   5.206   0.126   4.631  0.5296 -1.0580 -0.1610
 9684SOL     OW29950   7.014   5.248   4.299 -0.4941 -0.0645  0.8188
 9684SOL    HW129951   7.041   5.155   4.323 -0.1484  0.1208  1.1509
 9684SOL    HW229952   7.093   5.299   4.265 -0.4619  0.4216  1.6124
 9685SOL     OW29953   1.922   1.039   6.291 -0.1685  0.3719  0.4106
 9685SOL    HW129954   1.895   0.995   6.376  0.6206 -0.7006  0.1332
 9685SOL    HW229955   1.968   0.972   6.232 -1.5869  0.7962 -1.2901
 9686SOL     OW29956   5.615   1.845   2.376  1.1705  0.3708  0.5895
 9686SOL    HW129957   5.690   1.781   2.393 -0.3091 -1.4545  0.5417
 9686SOL    HW229958   5.623   1.882   2.284  2.0304  0.2631  0.6116
 9687SOL     OW29959   2.100   1.173   5.026 -0.1636  0.0808 -0.1266
 9687SOL    HW129960   2.061   1.250   5.076  0.4937 -0.7489  1.7866
 9687SOL    HW229961   2.049   1.090   5.049  1.7496 -0.7751  1.3325
 9688SOL     OW29962   5.584   3.348   4.169 -0.2567 -0.5470 -0.3661
 9688SOL    HW129963   5.561   3.256   4.200  0.3986 -0.8833 -0.8527
 9688SOL    HW229964   5.510   3.411   4.193 -1.4958 -1.5086 -1.5492
 9689SOL     OW29965   2.174   0.131   6.291  0.1413 -0.0665 -0.5305
 9689SOL    HW129966   2.178   0.190   6.372  0.1901  0.3392 -0.8275
 9689SOL    HW229967   2.092   0.074   6.295 -0.0706  0.2491 -0.3988
 9690SOL     OW29968   5.449   3.746   0.425  0.4829 -0.3235  0.3088
 9690SOL    HW129969   5.468   3.681   0.351 -0.8863 -0.2587 -0.1203
 9690SOL    HW229970   5.509   3.825   0.415  1.6672 -1.1719  0.4196
 9691SOL     OW29971   1.415   4.050   6.785 -0.6091 -0.0668  0.0344
 9691SOL    HW129972   1.428   4.138   6.738 -0.0564 -0.0907  0.1417
 9691SOL    HW229973   1.319   4.041   6.812 -0.4863  0.9444  0.8809
 9692SOL     OW29974   2.740   0.648   5.697  0.0693 -0.4266  0.0770
 9692SOL    HW129975   2.689   0.586   5.755 -1.5052 -1.1940 -1.9861
 9692SOL    HW229976   2.801   0.595   5.637 -0.2028  0.1080 -0.6889
 9693SOL     OW29977   6.055   6.057   5.690 -0.4685 -0.4516  0.3480
 9693SOL    HW129978   6.146   6.044   5.650 -0.7330 -0.3364 -0.3131
 9693SOL    HW229979   6.038   5.988   5.760  0.2449 -0.2844  0.6927
 9694SOL     OW29980   0.410   6.705   1.012  0.5877 -0.1330  0.1144
 9694SOL    HW129981   0.387   6.703   1.109 -1.6318 -1.3422 -0.3622
 9694SOL    HW229982   0.327   6.719   0.958  1.5077 -1.2061 -1.6871
 9695SOL     OW29983   5.389   4.656   1.429  0.8739 -0.1486 -0.0829
 9695SOL    HW129984   5.364   4.680   1.523  0.7254 -0.4939 -0.0351
 9695SOL    HW229985   5.328   4.704   1.366  3.1827  2.9926 -0.1711
 9696SOL     OW29986   4.893   4.953   0.179 -0.4618  0.2815 -0.4494
 9696SOL    HW129987   4.889   4.995   0.269 -0.4544 -2.2417  0.8106
 9696SOL    HW229988   4.975   4.984   0.131  0.8328 -0.1469  1.3998
 9697SOL     OW29989   2.003   4.353   2.330  0.1892 -0.2565  0.7017
 9697SOL    HW129990   2.054   4.437   2.350  0.1599 -0.4539  1.6468
 9697SOL    HW229991   2.063   4.289   2.281  0.2641  0.2389  0.1331
 9698SOL     OW29992   4.692   1.969   4.785  0.5617 -0.8859 -0.2328
 9698SOL    HW129993   4.692   1.926   4.875  1.2392 -1.7280 -0.6252
 9698SOL    HW229994   4.777   1.948   4.738  0.2408 -0.3980 -1.0509
 9699SOL     OW29995   0.246   3.674   6.527  0.1896 -0.0081  0.0022
 9699SOL    HW129996   0.303   3.721   6.594 -0.4566  1.5636 -0.4957
 9699SOL    HW229997   0.232   3.579   6.555  0.8287  0.3180  1.5099
 9700SOL     OW29998   3.071   4.117   1.943 -0.1652  0.9210  0.3501
 9700SOL    HW129999   3.008   4.056   1.895 -1.7042  1.2526  1.8279
 9700SOL    HW230000   3.026   4.206   1.958  1.6654  2.1403 -0.9076
 9701SOL     OW30001   3.362   5.054   5.648 -0.4086  0.0902  0.1484
 9701SOL    HW130002   3.395   5.014   5.734 -3.0664  0.2783  1.3695
 9701SOL    HW230003   3.289   4.996   5.610 -0.8619  1.2016 -0.7279
 9702SOL     OW30004   4.307   0.595   0.549  0.0033  0.9314 -0.1926
 9702SOL    HW130005   4.405   0.582   0.561 -0.0047 -0.1925 -1.0981
 9702SOL    HW230006   4.286   0.693   0.549  1.0624  1.1744  0.3967
 9703SOL     OW30007   2.118   6.514   4.090  0.4334  0.2809  0.0717
 9703SOL    HW130008   2.146   6.465   4.008 -0.7302  2.6567 -1.8882
 9703SOL    HW230009   2.047   6.463   4.138  1.0633 -1.0982 -0.4092
 9704SOL     OW30010   2.668   1.113   4.497 -0.1960  0.1937 -0.4151
 9704SOL    HW130011   2.637   1.093   4.590 -0.1480  2.1559  0.0596
 9704SOL    HW230012   2.706   1.030   4.456  1.2626 -0.3584  1.8967
 9705SOL     OW30013   3.212   6.277   0.345 -0.1599 -0.1787  0.1210
 9705SOL    HW130014   3.254   6.340   0.411  0.0311  0.2523 -0.4051
 9705SOL    HW230015   3.250   6.186   0.357 -2.1513 -0.8064  2.5238
 9706SOL     OW30016   5.388   2.431   2.739 -0.1879 -0.0503  0.5055
 9706SOL    HW130017   5.372   2.342   2.782  0.0643  0.2573  1.2590
 9706SOL    HW230018   5.327   2.499   2.781  0.6892  0.4382  1.0024
 9707SOL     OW30019   3.078   6.532   0.673 -0.6693  0.2229 -0.5174
 9707SOL    HW130020   3.061   6.433   0.666  0.7647 -0.2062  1.4054
 9707SOL    HW230021   3.022   6.570   0.747  0.5152  0.3589  0.3429
 9708SOL     OW30022   1.925   2.542   1.967 -0.1800  0.0763 -0.3033
 9708SOL    HW130023   1.923   2.530   1.867 -0.1317 -1.2629 -0.1619
 9708SOL    HW230024   1.893   2.634   1.990  0.1510  0.5309 -1.5726
 9709SOL     OW30025   1.116   5.979   4.698  0.0674  0.4297  0.0266
 9709SOL    HW130026   1.177   6.058   4.710 -0.4386  1.4502 -3.3130
 9709SOL    HW230027   1.155   5.917   4.630 -1.2544 -0.4321  0.0297
 9710SOL     OW30028   2.228   1.167   3.326 -0.2349 -0.2184 -0.0425
 9710SOL    HW130029   2.206   1.114   3.245 -1.3739 -0.5493  0.4677
 9710SOL    HW230030   2.158   1.237   3.341 -1.6340 -1.9545  2.1940
 9711SOL     OW30031   2.944   2.511   5.709  0.4633 -0.1149  0.1584
 9711SOL    HW130032   3.032   2.542   5.673  1.4793 -2.7301  0.1268
 9711SOL    HW230033   2.873   2.577   5.686  1.9065  0.6718 -2.3747
 9712SOL     OW30034   4.764   3.752   5.661 -0.1597 -0.4456  0.1727
 9712SOL    HW130035   4.747   3.717   5.754 -0.4321  0.2744  0.3965
 9712SOL    HW230036   4.732   3.846   5.654 -2.3532 -1.2297 -1.3608
 9713SOL     OW30037   1.182   6.476   6.484 -0.6135 -0.2239  0.1949
 9713SOL    HW130038   1.258   6.525   6.441 -0.3752  0.0016  0.8549
 9713SOL    HW230039   1.118   6.444   6.413 -0.1689  0.0250 -0.3267
 9714SOL     OW30040   2.556   2.429   1.784  1.0432 -0.1330 -0.0818
 9714SOL    HW130041   2.501   2.507   1.816  1.4111 -0.4307  1.3245
 9714SOL    HW230042   2.636   2.419   1.842  1.4445 -1.0535 -0.7785
 9715SOL     OW30043   4.992   2.809   6.183 -0.3630 -0.5571  0.3408
 9715SOL    HW130044   4.993   2.908   6.195 -3.0972 -0.4209  0.0734
 9715SOL    HW230045   4.938   2.767   6.255 -1.6625 -1.5317 -1.1561
 9716SOL     OW30046   3.108   1.301   6.544  0.5961  0.1215 -0.8466
 9716SOL    HW130047   3.082   1.324   6.450  0.3259 -2.2346 -1.4049
 9716SOL    HW230048   3.189   1.244   6.542  1.5762  1.4016  0.4977
 9717SOL     OW30049   6.497   4.754   4.969  0.4802  0.0179  0.1439
 9717SOL    HW130050   6.485   4.673   5.027 -1.3238 -1.1919 -1.7919
 9717SOL    HW230051   6.414   4.810   4.973 -0.2219 -0.7410 -2.1258
 9718SOL     OW30052   5.380   3.839   1.688 -0.1517  0.2438 -0.3480
 9718SOL    HW130053   5.472   3.857   1.653 -0.8610  1.1542 -1.8250
 9718SOL    HW230054   5.333   3.926   1.704 -0.2666 -0.1553  1.8842
 9719SOL     OW30055   0.211   0.944   5.217 -0.2802 -0.2112 -0.3441
 9719SOL    HW130056   0.274   1.017   5.193  0.6597 -0.2363  1.7788
 9719SOL    HW230057   0.179   0.898   5.134 -0.3540  2.1087 -1.6775
 9720SOL     OW30058   1.629   0.322   1.693 -0.2054  0.1674 -0.3541
 9720SOL    HW130059   1.648   0.230   1.657 -0.9186 -0.1983  0.1759
 9720SOL    HW230060   1.691   0.341   1.769  0.0783  0.2097 -0.5932
 9721SOL     OW30061   0.470   1.118   2.085  0.7771 -0.5660 -0.3382
 9721SOL    HW130062   0.485   1.021   2.066  0.2011 -1.1620  1.9914
 9721SOL    HW230063   0.558   1.163   2.102  1.0126 -0.7273 -1.0753
 9722SOL     OW30064   1.662   6.113   2.890 -0.1809 -0.5168  0.4355
 9722SOL    HW130065   1.585   6.158   2.844  0.3703  0.2662  0.2618
 9722SOL    HW230066   1.632   6.024   2.924 -1.2961 -0.0269  0.7921
 9723SOL     OW30067   6.050   6.809   3.661 -0.3583  0.1917 -0.5358
 9723SOL    HW130068   6.095   6.731   3.705 -0.0342  0.2130 -0.8283
 9723SOL    HW230069   5.967   6.779   3.615  0.9036 -0.4035 -2.5508
 9724SOL     OW30070   2.603   2.845   1.727  0.4238 -0.8981 -0.3887
 9724SOL    HW130071   2.669   2.774   1.751 -0.3952 -0.9448  2.0010
 9724SOL    HW230072   2.647   2.935   1.731  0.6709 -1.0289 -0.1443
 9725SOL     OW30073   3.988   2.373   5.766  0.1715 -0.2462 -0.4606
 9725SOL    HW130074   4.020   2.421   5.848 -1.0232  1.8585 -1.1583
 9725SOL    HW230075   4.060   2.375   5.696  0.4397 -0.2259 -0.1871
 9726SOL     OW30076   6.980   6.201   5.149 -0.1661 -0.2574  0.0493
 9726SOL    HW130077   7.063   6.206   5.204 -0.9738 -0.6136  1.3598
 9726SOL    HW230078   6.989   6.127   5.082  0.3648 -0.6586  0.5548
 9727SOL     OW30079   0.303   2.196   0.478 -0.0804  0.2187 -0.0332
 9727SOL    HW130080   0.295   2.187   0.379  0.7550  0.9020 -0.1732
 9727SOL    HW230081   0.220   2.239   0.515 -0.1037  0.5936 -0.5208
 9728SOL     OW30082   2.172   5.929   4.959  0.4844  0.6250  0.3358
 9728SOL    HW130083   2.249   5.921   5.023  0.1040 -0.1554  0.7182
 9728SOL    HW230084   2.176   5.853   4.893 -0.3546  0.1471  0.8162
 9729SOL     OW30085   3.386   4.920   1.275  0.0445 -0.0818  0.2232
 9729SOL    HW130086   3.391   5.016   1.304 -0.4765 -0.0827  0.3196
 9729SOL    HW230087   3.353   4.916   1.180 -2.5318 -0.2727  1.0715
 9730SOL     OW30088   4.697   2.504   1.818  0.1757  0.1778  0.1057
 9730SOL    HW130089   4.600   2.516   1.797 -0.0990 -0.5998  0.8815
 9730SOL    HW230090   4.729   2.581   1.872  0.1787  0.7886 -0.7493
 9731SOL     OW30091   0.394   5.443   5.653  0.6000 -0.2297 -0.1576
 9731SOL    HW130092   0.404   5.419   5.750 -2.2612 -0.3722  0.1999
 9731SOL    HW230093   0.481   5.478   5.618  1.6387  0.1500  2.5403
 9732SOL     OW30094   4.679   6.010   4.692 -0.0685 -0.4029 -0.2090
 9732SOL    HW130095   4.685   6.071   4.613 -0.5429  2.5206  1.8597
 9732SOL    HW230096   4.769   5.972   4.713  0.1390 -0.8845 -1.8445
 9733SOL     OW30097   4.585   4.369   4.970  0.1707  0.6562 -0.2525
 9733SOL    HW130098   4.492   4.359   5.004  0.0693 -0.3075 -0.7564
 9733SOL    HW230099   4.590   4.447   4.907  0.1590  1.8766  1.2124
 9734SOL     OW30100   6.698   2.456   4.762 -0.0118  0.3378  0.0483
 9734SOL    HW130101   6.774   2.402   4.798 -0.4628 -0.5365 -0.2760
 9734SOL    HW230102   6.726   2.500   4.677  0.2265  0.2516  0.0813
 9735SOL     OW30103   5.743   4.816   6.969 -0.3092  0.2945  0.9657
 9735SOL    HW130104   5.751   4.819   7.068  0.9646 -0.4483  0.9094
 9735SOL    HW230105   5.748   4.908   6.931 -1.9903  0.6999  1.6424
 9736SOL     OW30106   3.286   1.571   1.196 -1.2063 -0.1228  0.3262
 9736SOL    HW130107   3.253   1.520   1.275 -2.2255 -0.8122 -0.5224
 9736SOL    HW230108   3.303   1.509   1.119  1.9573  0.2029  0.6186
 9737SOL     OW30109   4.328   2.328   3.427  0.0808 -0.1973 -0.6219
 9737SOL    HW130110   4.253   2.385   3.395  1.6837  1.8236 -1.0129
 9737SOL    HW230111   4.296   2.269   3.502 -1.8680  0.5429 -0.8194
 9738SOL     OW30112   1.224   1.037   2.463 -0.0423  0.3222 -0.1061
 9738SOL    HW130113   1.310   1.007   2.504  0.4065  0.7064 -0.7559
 9738SOL    HW230114   1.193   0.970   2.396  0.9420  1.2583 -1.5317
 9739SOL     OW30115   5.065   4.106   2.653 -0.1700  1.0105  0.0232
 9739SOL    HW130116   4.996   4.122   2.582 -1.0113  0.1681  0.6314
 9739SOL    HW230117   5.100   4.013   2.644 -1.5292  0.2776  1.7212
 9740SOL     OW30118   0.003   3.248   1.984  0.1348  0.2392 -0.8537
 9740SOL    HW130119  -0.052   3.306   1.923 -0.0868 -1.2528 -2.1535
 9740SOL    HW230120   0.023   3.162   1.937  0.5889 -0.6665  0.9487
 9741SOL     OW30121   4.240   6.916   4.166 -0.2313  0.3489 -0.0450
 9741SOL    HW130122   4.198   6.971   4.093  1.3291  0.6090 -0.7852
 9741SOL    HW230123   4.280   6.976   4.234 -0.4701  0.1086  0.3100
 9742SOL     OW30124   2.808   0.902   2.495  0.2746  0.1002 -0.3225
 9742SOL    HW130125   2.751   0.840   2.440  0.4488 -0.2605 -0.1009
 9742SOL    HW230126   2.845   0.974   2.437 -0.8702  0.6696 -0.3641
 9743SOL     OW30127   2.127   0.436   6.162  0.2166 -0.4851  0.0754
 9743SOL    HW130128   2.076   0.375   6.102  0.0826 -1.5835  1.2629
 9743SOL    HW230129   2.182   0.499   6.107  1.7492 -2.8190 -1.2388
 9744SOL     OW30130   3.546   0.018   2.500  0.0903  0.3509  0.1112
 9744SOL    HW130131   3.627   0.062   2.461  0.7308 -1.8816 -1.2573
 9744SOL    HW230132   3.474   0.086   2.513  1.0344  1.8076 -1.7980
 9745SOL     OW30133   1.794   2.009   4.954  1.0937 -0.3199  1.0834
 9745SOL    HW130134   1.874   2.050   4.910  1.1320 -1.0097  0.4867
 9745SOL    HW230135   1.711   2.047   4.913  1.1026  0.7042  1.9921
 9746SOL     OW30136   6.338   5.910   2.918 -0.1007  0.3230  0.2382
 9746SOL    HW130137   6.333   5.947   2.826 -0.4555 -0.4921 -0.0767
 9746SOL    HW230138   6.285   5.969   2.980 -0.1303  0.6911 -0.1314
 9747SOL     OW30139   6.067   6.508   5.701  0.8297  0.7855  0.0836
 9747SOL    HW130140   6.092   6.469   5.612 -0.8471 -0.5724  0.1550
 9747SOL    HW230141   6.006   6.586   5.687 -0.5231 -0.2487  0.0258
 9748SOL     OW30142   1.694   4.258   3.275  0.9639  0.1379 -0.3255
 9748SOL    HW130143   1.757   4.287   3.203  0.4850  1.7350 -0.1500
 9748SOL    HW230144   1.744   4.252   3.362  1.2435 -0.3740 -0.5207
 9749SOL     OW30145   6.152   4.734   4.580  0.2055 -0.2446 -0.0717
 9749SOL    HW130146   6.235   4.687   4.612 -0.1597 -0.5403  0.4563
 9749SOL    HW230147   6.175   4.795   4.504  0.8692 -0.4898 -0.0711
 9750SOL     OW30148   2.571   5.673   1.262 -0.2063  0.4799 -0.2172
 9750SOL    HW130149   2.626   5.612   1.319  1.4614  0.4820 -1.7046
 9750SOL    HW230150   2.551   5.628   1.175 -0.2211  1.5018 -0.7550
 9751SOL     OW30151   3.369   2.414   0.394  0.3694  0.0301  0.4994
 9751SOL    HW130152   3.334   2.337   0.447 -0.2373  0.1143  0.2359
 9751SOL    HW230153   3.437   2.464   0.447 -1.1314  0.8659  1.7181
 9752SOL     OW30154   1.715   1.293   6.650  0.1905  0.2401  0.5885
 9752SOL    HW130155   1.704   1.383   6.691  0.7715  0.3288  0.5583
 9752SOL    HW230156   1.698   1.222   6.719  1.3678  0.3890  1.0511
 9753SOL     OW30157   0.329   0.207   5.705 -0.0302 -0.1385 -0.0962
 9753SOL    HW130158   0.337   0.279   5.773 -0.1783  0.5587 -0.8009
 9753SOL    HW230159   0.277   0.130   5.743  0.2991  0.0345  0.7262
 9754SOL     OW30160   0.625   2.845   0.750 -0.3160 -0.5427 -0.4621
 9754SOL    HW130161   0.675   2.814   0.669 -1.8638 -1.6099 -1.0542
 9754SOL    HW230162   0.637   2.778   0.823 -0.3508 -0.4828 -0.4017
 9755SOL     OW30163   4.339   6.777   5.195  0.3565  0.0275  0.5792
 9755SOL    HW130164   4.244   6.800   5.216 -0.1403 -0.9214 -0.4736
 9755SOL    HW230165   4.381   6.733   5.275 -0.4362 -0.5082  0.7166
 9756SOL     OW30166   2.528   1.441   6.999  0.2977  0.2748 -0.3205
 9756SOL    HW130167   2.454   1.383   6.963  0.9989 -0.7492 -0.1620
 9756SOL    HW230168   2.496   1.535   7.006 -1.1314 -0.2135  0.1296
 9757SOL     OW30169   4.328   0.458   3.137 -0.0581  0.2714  0.1717
 9757SOL    HW130170   4.359   0.380   3.084 -0.6078 -1.6176  2.4643
 9757SOL    HW230171   4.404   0.493   3.193  0.3634  1.8717 -1.3136
 9758SOL     OW30172   4.423   6.316   0.559  0.1445  0.2513  0.3526
 9758SOL    HW130173   4.484   6.371   0.615 -0.4991  1.2813  0.0714
 9758SOL    HW230174   4.471   6.284   0.477  0.1441  1.6277 -0.2157
 9759SOL     OW30175   2.452   5.345   0.996  0.1971 -0.3770  0.2244
 9759SOL    HW130176   2.388   5.273   1.020  1.3112 -2.0599 -1.5636
 9759SOL    HW230177   2.517   5.311   0.928  0.6671  2.3697 -0.8460
 9760SOL     OW30178   4.827   4.827   6.089 -0.2397  0.2921  0.2083
 9760SOL    HW130179   4.863   4.919   6.106  0.5910  0.2653 -1.2986
 9760SOL    HW230180   4.887   4.779   6.026 -1.8574 -0.4962 -0.7919
 9761SOL     OW30181   4.240   5.629   3.640 -0.1247  0.4582 -0.3524
 9761SOL    HW130182   4.151   5.585   3.629  0.0164  0.4458 -1.5742
 9761SOL    HW230183   4.271   5.666   3.552  0.9485  0.7242  0.1105
 9762SOL     OW30184   3.927   2.210   1.618  0.9051 -0.2546  0.4436
 9762SOL    HW130185   3.832   2.223   1.589  0.5054  0.2885  1.8999
 9762SOL    HW230186   3.931   2.202   1.718  2.2164 -2.0305  0.2956
 9763SOL     OW30187   1.678   1.691   1.281  0.0083  0.0236  0.3042
 9763SOL    HW130188   1.599   1.719   1.226  1.5550  0.4385 -1.8690
 9763SOL    HW230189   1.698   1.762   1.349 -2.0521 -0.5637  1.5875
 9764SOL     OW30190   2.037   1.747   4.918 -0.1129 -0.6439 -0.8862
 9764SOL    HW130191   2.021   1.666   4.862  1.2627 -1.5806 -0.0030
 9764SOL    HW230192   2.134   1.772   4.913 -0.2118 -0.0097  0.0850
 9765SOL     OW30193   5.889   1.077   0.888  0.7148 -0.0651  0.1243
 9765SOL    HW130194   5.906   1.145   0.816  2.3248  0.4076  0.8979
 9765SOL    HW230195   5.973   1.024   0.903 -0.0932 -1.2378  0.5475
 9766SOL     OW30196   3.798   2.042   1.364  0.4002 -0.3791  0.0772
 9766SOL    HW130197   3.701   2.024   1.381 -0.0887  1.6424 -0.3271
 9766SOL    HW230198   3.823   2.006   1.274  0.6288 -2.8489  1.0665
 9767SOL     OW30199   4.292   0.186   3.560  0.4352  0.8616 -0.2844
 9767SOL    HW130200   4.258   0.236   3.481 -0.5827  0.6863  0.0260
 9767SOL    HW230201   4.325   0.096   3.531  0.4332  0.9516 -0.5670
 9768SOL     OW30202   5.336   1.954   2.878 -0.7876  0.6339 -0.1778
 9768SOL    HW130203   5.284   1.904   2.948  0.8072 -2.6403 -1.1381
 9768SOL    HW230204   5.381   1.889   2.817  2.0157  3.3006 -1.2094
 9769SOL     OW30205   5.737   2.797   6.750  0.5819 -0.4468  0.1854
 9769SOL    HW130206   5.714   2.789   6.847 -1.0791  1.3681  0.0046
 9769SOL    HW230207   5.779   2.712   6.718 -0.9909 -1.9508  1.9180
 9770SOL     OW30208   1.361   3.585   4.380  0.5588  0.0666 -0.0423
 9770SOL    HW130209   1.375   3.509   4.316 -0.2193 -0.0388 -0.0954
 9770SOL    HW230210   1.439   3.590   4.442  0.6454 -0.7528 -0.0657
 9771SOL     OW30211   1.015   0.159   4.954  0.2662 -0.6388  0.0508
 9771SOL    HW130212   1.034   0.257   4.956 -1.2328 -0.3237  0.1104
 9771SOL    HW230213   1.100   0.108   4.965  0.9052  0.6563  1.4337
 9772SOL     OW30214   6.805   5.534   2.323 -0.1213 -0.3670 -0.4167
 9772SOL    HW130215   6.879   5.521   2.257 -0.6537 -1.1519 -0.8827
 9772SOL    HW230216   6.841   5.575   2.406  0.9891 -1.3866 -0.3680
 9773SOL     OW30217   6.728   5.352   3.837  0.1387 -0.2061 -0.1541
 9773SOL    HW130218   6.744   5.356   3.935 -2.1760 -0.9268  0.2969
 9773SOL    HW230219   6.763   5.265   3.801  0.5417 -0.1560  0.1090
 9774SOL     OW30220   4.777   5.397   2.055 -0.3027  0.3865 -0.5142
 9774SOL    HW130221   4.683   5.364   2.064 -0.1739  0.2705  0.4909
 9774SOL    HW230222   4.776   5.486   2.009 -0.9240  0.4774 -0.3467
 9775SOL     OW30223   2.546   2.469   5.779 -0.1103 -0.4994 -0.3499
 9775SOL    HW130224   2.572   2.544   5.718  0.7822 -0.9040 -0.4733
 9775SOL    HW230225   2.446   2.466   5.786 -0.1637  0.6643 -0.3792
 9776SOL     OW30226   1.237   5.068   5.452 -0.6067 -0.7753 -0.1016
 9776SOL    HW130227   1.267   5.142   5.512 -0.0879 -2.1199  1.3420
 9776SOL    HW230228   1.172   5.105   5.384 -0.4164  0.9692  0.6077
 9777SOL     OW30229   4.304   5.778   6.348 -0.4328  0.4154  0.1611
 9777SOL    HW130230   4.314   5.870   6.310  0.4178  0.9411  1.5794
 9777SOL    HW230231   4.207   5.757   6.359 -0.6351  1.7622  1.2084
 9778SOL     OW30232   1.744   6.238   3.604 -0.2359  0.0506 -0.4596
 9778SOL    HW130233   1.692   6.310   3.558  0.0054  0.5379  0.0103
 9778SOL    HW230234   1.682   6.182   3.659 -0.4004  0.0361 -0.6620
 9779SOL     OW30235   2.768   2.939   0.356 -0.3363  0.1336 -0.1163
 9779SOL    HW130236   2.692   3.000   0.334  0.3745  0.4104 -1.9978
 9779SOL    HW230237   2.745   2.845   0.330 -0.5521 -0.0392  0.6536
 9780SOL     OW30238   1.316   1.997   0.943 -0.0529  0.0872  0.1426
 9780SOL    HW130239   1.333   2.018   0.847 -0.2124 -2.4294 -0.4981
 9780SOL    HW230240   1.217   1.989   0.958 -0.0292  0.5166  0.5295
 9781SOL     OW30241   6.060   6.128   2.631 -0.2490  0.8784  0.0090
 9781SOL    HW130242   6.044   6.041   2.678  0.4168  0.4564 -0.5280
 9781SOL    HW230243   6.049   6.203   2.695 -1.4800  0.4429  0.3328
 9782SOL     OW30244   6.807   6.768   1.294 -0.3430  0.1529  0.2473
 9782SOL    HW130245   6.761   6.779   1.206  0.1431  0.0973 -0.0198
 9782SOL    HW230246   6.753   6.811   1.366 -0.9040 -0.0792 -0.0276
 9783SOL     OW30247   4.991   1.112   4.316 -0.3805 -0.1998 -0.4731
 9783SOL    HW130248   4.900   1.150   4.332  0.0585  0.5013  0.4677
 9783SOL    HW230249   5.051   1.184   4.281  0.1806 -0.3044  0.2707
 9784SOL     OW30250   4.378   0.836   5.569  0.3916 -0.5016  0.0231
 9784SOL    HW130251   4.310   0.767   5.594 -0.3731 -0.0173 -0.6694
 9784SOL    HW230252   4.340   0.896   5.499  1.1393  0.4621  0.4196
 9785SOL     OW30253   1.041   2.913   3.326  0.3109 -0.3577 -0.4104
 9785SOL    HW130254   0.944   2.929   3.347  0.6335  0.2856  0.6104
 9785SOL    HW230255   1.093   2.995   3.345  1.0875 -0.7364 -0.8700
 9786SOL     OW30256   0.910   1.533   3.453 -0.4356  0.2662 -0.1908
 9786SOL    HW130257   1.005   1.564   3.456  0.5119 -2.4435  1.8750
 9786SOL    HW230258   0.903   1.454   3.392 -1.6424  1.0763 -1.1534
 9787SOL     OW30259   6.303   4.056   2.440  0.1553  0.4281  0.2450
 9787SOL    HW130260   6.277   4.153   2.444 -0.1733  0.3570 -0.1329
 9787SOL    HW230261   6.230   4.000   2.480 -0.2192  0.2381 -0.6873
 9788SOL     OW30262   6.302   0.651   6.812  0.2053 -0.0630  0.5395
 9788SOL    HW130263   6.276   0.674   6.906 -1.4464 -2.5386  0.7939
 9788SOL    HW230264   6.252   0.710   6.749  1.2946  1.5925  1.1548
 9789SOL     OW30265   1.748   2.604   5.858 -0.1509 -0.1926  0.4476
 9789SOL    HW130266   1.812   2.549   5.911 -0.9977 -0.8535  0.8279
 9789SOL    HW230267   1.716   2.551   5.779  0.7027  0.5911 -0.4489
 9790SOL     OW30268   1.007   5.859   3.141  0.2359  0.1146  0.8134
 9790SOL    HW130269   1.076   5.787   3.140 -0.7966 -0.8986  0.6939
 9790SOL    HW230270   0.997   5.897   3.050 -0.7988 -1.1764  0.3539
 9791SOL     OW30271   3.432   3.664   0.074  0.1684  0.0595 -0.4787
 9791SOL    HW130272   3.497   3.631   0.006 -0.7137  1.3175 -2.0148
 9791SOL    HW230273   3.384   3.587   0.114  2.4503 -0.8915  0.6081
 9792SOL     OW30274   3.220   3.942   1.472 -0.4210  0.2438 -0.0816
 9792SOL    HW130275   3.167   3.933   1.388  0.0692  1.3988 -0.5420
 9792SOL    HW230276   3.290   3.870   1.476 -0.8113 -0.1532 -0.3754
 9793SOL     OW30277   5.066   0.392   3.459 -0.4635  0.0582 -0.0985
 9793SOL    HW130278   5.043   0.300   3.426 -1.7810  0.5284 -0.5518
 9793SOL    HW230279   5.165   0.401   3.468 -0.2076 -0.8156 -1.7784
 9794SOL     OW30280   4.041   4.526   0.676  0.0600  0.2243 -0.1455
 9794SOL    HW130281   4.016   4.591   0.748 -0.5438  0.1667 -0.2974
 9794SOL    HW230282   4.093   4.573   0.606  2.1103 -0.0592  1.1139
 9795SOL     OW30283   1.496   4.781   2.248 -0.0556  0.4587 -0.6073
 9795SOL    HW130284   1.518   4.770   2.345 -1.8308 -0.5534 -0.2809
 9795SOL    HW230285   1.451   4.869   2.234 -0.3088  0.3609 -0.4117
 9796SOL     OW30286   3.168   5.339   6.162 -0.4527  0.1702 -0.3080
 9796SOL    HW130287   3.163   5.240   6.157 -0.6562  0.1240  0.7084
 9796SOL    HW230288   3.076   5.378   6.159 -0.3304  0.4043 -1.8353
 9797SOL     OW30289   1.168   4.493   6.349 -0.5509 -0.5022  0.7249
 9797SOL    HW130290   1.109   4.472   6.271  0.1186  0.6919 -0.1414
 9797SOL    HW230291   1.169   4.591   6.364  1.1789 -0.4820  0.7220
 9798SOL     OW30292   5.565   1.454   1.412 -0.5263 -0.0090  0.1341
 9798SOL    HW130293   5.615   1.411   1.337 -1.3679  0.4536 -0.7013
 9798SOL    HW230294   5.630   1.484   1.482  0.4621  1.2461 -1.2495
 9799SOL     OW30295   3.265   3.582   1.214 -0.0709 -0.3942  0.3011
 9799SOL    HW130296   3.361   3.556   1.204  0.0871 -0.5640  1.9579
 9799SOL    HW230297   3.252   3.675   1.179  1.2949  0.6483  2.3221
 9800SOL     OW30298   3.783   6.572   0.708  0.3025 -0.0940  0.5612
 9800SOL    HW130299   3.848   6.504   0.742 -0.3759 -1.6764 -1.1281
 9800SOL    HW230300   3.690   6.534   0.711 -0.1306  0.8512 -0.1663
 9801SOL     OW30301   5.003   6.480   2.469  0.1146  0.1190 -0.5854
 9801SOL    HW130302   5.032   6.448   2.379 -2.1337 -2.1301 -0.6129
 9801SOL    HW230303   4.983   6.401   2.527 -0.6383  1.5306  1.1658
 9802SOL     OW30304   0.234   6.523   2.243  0.4714 -0.1340 -0.8270
 9802SOL    HW130305   0.167   6.572   2.298 -1.9976 -0.4163 -3.3472
 9802SOL    HW230306   0.325   6.559   2.260 -0.1800  0.0792  2.9804
 9803SOL     OW30307   6.096   0.125   6.387  0.0665  0.1751  0.0153
 9803SOL    HW130308   6.047   0.199   6.341  1.8770  1.1766 -0.4169
 9803SOL    HW230309   6.168   0.091   6.327 -0.2787 -1.4870  0.4961
 9804SOL     OW30310   4.283   5.746   2.954 -0.3818 -0.2095  0.2219
 9804SOL    HW130311   4.380   5.756   2.928 -0.3768 -2.6024 -0.9101
 9804SOL    HW230312   4.277   5.689   3.036 -0.8376  0.3152  0.5577
 9805SOL     OW30313   0.507   4.526   0.155 -0.5097 -0.0542  0.0887
 9805SOL    HW130314   0.565   4.604   0.179 -1.5882  0.6132  0.5956
 9805SOL    HW230315   0.487   4.528   0.057  3.2980 -2.3712 -0.9678
 9806SOL     OW30316   0.935   6.514   2.385  0.4448 -0.6719 -0.2094
 9806SOL    HW130317   1.024   6.551   2.411  0.5001  0.3016 -1.6982
 9806SOL    HW230318   0.930   6.505   2.286 -1.8310  1.2110 -0.3616
 9807SOL     OW30319   1.320   3.450   0.497 -0.0579 -0.1073  0.3280
 9807SOL    HW130320   1.236   3.503   0.510  0.2789  0.1069  1.7871
 9807SOL    HW230321   1.325   3.378   0.567  0.8951 -0.2115  0.1652
 9808SOL     OW30322   1.358   2.401   2.793 -0.1410 -0.4254  0.3317
 9808SOL    HW130323   1.425   2.416   2.866  1.5549 -0.1553 -1.2130
 9808SOL    HW230324   1.342   2.303   2.782  0.5768 -0.5350  0.2284
 9809SOL     OW30325   1.575   6.355   4.292  0.2246  0.1412  0.1163
 9809SOL    HW130326   1.482   6.351   4.327 -0.2452 -1.5002 -1.1708
 9809SOL    HW230327   1.577   6.408   4.207  0.4323  0.0842  0.0846
 9810SOL     OW30328   5.048   1.544   3.296  0.2995  0.0710 -0.1093
 9810SOL    HW130329   5.019   1.488   3.219 -0.8195  0.7338 -0.2053
 9810SOL    HW230330   5.143   1.573   3.284  1.5106 -3.1869  0.7916
 9811SOL     OW30331   1.414   6.291   3.830  0.0106  0.4135  0.0691
 9811SOL    HW130332   1.463   6.258   3.910  0.3434  0.2880 -0.1836
 9811SOL    HW230333   1.404   6.390   3.837 -0.0482  0.3917  0.3140
 9812SOL     OW30334   5.815   3.264   5.157 -0.0058 -0.4820 -0.7118
 9812SOL    HW130335   5.883   3.256   5.230  0.5245  1.7468 -0.8747
 9812SOL    HW230336   5.841   3.338   5.095 -1.7457 -0.6546 -1.7270
 9813SOL     OW30337   6.157   3.991   6.834 -0.4153  0.1997 -0.3587
 9813SOL    HW130338   6.072   4.032   6.869 -0.5400 -0.4738  0.1532
 9813SOL    HW230339   6.145   3.893   6.825 -0.1356  0.2701 -1.6337
 9814SOL     OW30340   6.771   1.375   5.232  0.1205 -0.3125 -1.0177
 9814SOL    HW130341   6.711   1.420   5.166  0.0795 -1.2331 -1.6435
 9814SOL    HW230342   6.784   1.433   5.312  0.1424  0.8289 -1.8227
 9815SOL     OW30343   1.484   4.322   0.961 -0.5521 -0.1147  0.1841
 9815SOL    HW130344   1.413   4.255   0.941 -0.2658 -0.3370 -0.0989
 9815SOL    HW230345   1.457   4.377   1.040 -0.6500 -0.7649  0.6083
 9816SOL     OW30346   5.752   3.261   4.383  0.1944  0.7174  0.1839
 9816SOL    HW130347   5.699   3.245   4.466 -0.9667  3.0092 -0.0251
 9816SOL    HW230348   5.703   3.325   4.324  2.0414  0.9196 -1.2407
 9817SOL     OW30349   2.664   2.260   2.029  0.3411 -0.0322 -0.1047
 9817SOL    HW130350   2.761   2.287   2.033  0.5540 -0.8189  0.1836
 9817SOL    HW230351   2.607   2.337   2.055  0.9204  0.2656  0.3070
 9818SOL     OW30352   1.086   6.872   2.296 -0.2969 -0.2546  0.2955
 9818SOL    HW130353   1.019   6.876   2.369 -2.4435 -0.2318 -1.5617
 9818SOL    HW230354   1.039   6.862   2.208  2.1202  0.3493 -1.1613
 9819SOL     OW30355   6.499   6.346   5.029 -0.3175  0.1365 -0.3335
 9819SOL    HW130356   6.570   6.294   5.076 -1.3833  0.4532  1.7341
 9819SOL    HW230357   6.441   6.283   4.977  0.2663 -0.3579 -0.3975
 9820SOL     OW30358   5.482   1.989   6.351  0.4957  0.1928  0.0109
 9820SOL    HW130359   5.533   1.942   6.279  3.6936  1.2475  1.4044
 9820SOL    HW230360   5.480   1.932   6.433 -0.4685  0.2376  0.0242
 9821SOL     OW30361   5.672   4.564   5.995  0.3958 -0.3562  0.2809
 9821SOL    HW130362   5.669   4.663   5.985  1.1651 -0.5274 -2.5197
 9821SOL    HW230363   5.726   4.540   6.076  2.9859  1.5481 -0.7373
 9822SOL     OW30364   2.381   1.690   2.856 -0.0493  0.1905 -0.1271
 9822SOL    HW130365   2.306   1.654   2.800  0.6200 -1.1228 -0.2140
 9822SOL    HW230366   2.364   1.668   2.952  0.6515 -0.9103 -0.2447
 9823SOL     OW30367   6.959   6.043   1.876 -0.0029 -0.1978 -0.2272
 9823SOL    HW130368   7.032   6.090   1.826 -0.4993 -0.0371 -0.8235
 9823SOL    HW230369   6.875   6.098   1.871  0.3667  0.6881  2.3021
 9824SOL     OW30370   1.801   5.911   3.684  0.1846 -0.1847 -0.5484
 9824SOL    HW130371   1.738   5.834   3.692 -0.0594  0.1057  0.5848
 9824SOL    HW230372   1.764   5.977   3.618  0.3421 -0.9690 -1.4426
 9825SOL     OW30373   2.537   5.702   4.014  0.0697  0.6959 -0.2453
 9825SOL    HW130374   2.451   5.741   3.979 -0.2757 -0.2498 -0.4755
 9825SOL    HW230375   2.596   5.776   4.046 -0.8951  1.3546  0.0650
 9826SOL     OW30376   1.894   6.727   4.026  0.4614  0.6828  0.1129
 9826SOL    HW130377   1.970   6.663   4.038  0.5870  0.9610  0.8181
 9826SOL    HW230378   1.929   6.814   3.991  0.8613  1.6866  2.8151
 9827SOL     OW30379   1.397   6.338   0.162 -0.4799  0.3336 -0.2584
 9827SOL    HW130380   1.309   6.368   0.125 -0.5165  1.6233  0.7631
 9827SOL    HW230381   1.400   6.360   0.260  1.5012  1.6154 -0.5549
 9828SOL     OW30382   6.144   1.887   4.026 -0.1498  0.4169  0.7728
 9828SOL    HW130383   6.045   1.869   4.026 -0.1135  0.2131  0.7057
 9828SOL    HW230384   6.187   1.837   3.951 -0.1267  1.2658  0.2154
 9829SOL     OW30385   6.391   3.668   6.817 -0.3169 -0.0039 -0.2901
 9829SOL    HW130386   6.348   3.645   6.730  0.1992  0.2160 -0.6042
 9829SOL    HW230387   6.332   3.638   6.892 -0.3111 -1.0756 -0.7014
 9830SOL     OW30388   4.507   0.718   0.914  0.2634 -0.5952  0.3474
 9830SOL    HW130389   4.419   0.766   0.921  0.2302 -0.0436 -2.4450
 9830SOL    HW230390   4.570   0.752   0.984 -0.2905  2.4098 -0.4792
 9831SOL     OW30391   2.297   3.944   0.853 -0.1783 -0.1679 -0.1634
 9831SOL    HW130392   2.255   3.916   0.939 -1.6766  0.1649 -0.7509
 9831SOL    HW230393   2.345   3.866   0.812  1.1059 -0.1750  1.2390
 9832SOL     OW30394   5.254   6.331   4.513  0.0059  0.3765 -0.2365
 9832SOL    HW130395   5.288   6.411   4.563  1.1380  1.2929 -2.3586
 9832SOL    HW230396   5.247   6.353   4.416  0.6014 -2.2058 -0.9240
 9833SOL     OW30397   2.936   3.758   2.316 -0.5322 -0.1413  0.1496
 9833SOL    HW130398   3.011   3.822   2.330 -0.3023 -0.0106 -1.5085
 9833SOL    HW230399   2.855   3.808   2.285 -0.1420 -0.6661 -1.8867
 9834SOL     OW30400   2.674   6.655   5.916  0.3987  0.4525  0.0296
 9834SOL    HW130401   2.634   6.564   5.921  0.2167  0.3933 -1.8254
 9834SOL    HW230402   2.740   6.666   5.990  0.6002 -1.2634  0.1518
 9835SOL     OW30403   3.015   3.953   3.873  0.4442  0.1689  0.1841
 9835SOL    HW130404   2.989   3.872   3.820 -1.6956  0.0253  1.3165
 9835SOL    HW230405   3.069   4.015   3.817  0.1806 -1.0099 -1.4258
 9836SOL     OW30406   5.228   3.587   6.095  0.2227  0.0531 -0.2545
 9836SOL    HW130407   5.143   3.618   6.136  0.3440 -0.3561  0.3245
 9836SOL    HW230408   5.305   3.617   6.152  0.4484  0.1969 -0.6332
 9837SOL     OW30409   5.283   0.856   6.712  0.1180  0.1965  0.2759
 9837SOL    HW130410   5.267   0.929   6.645 -0.7356  1.9660  2.2895
 9837SOL    HW230411   5.226   0.777   6.690 -0.0465  0.6745 -1.1325
 9838SOL     OW30412   6.775   5.992   0.503 -0.9120  0.0799  0.0135
 9838SOL    HW130413   6.741   5.901   0.527 -0.8400  0.0467 -0.0099
 9838SOL    HW230414   6.798   5.994   0.405  0.5912 -0.3546  0.3343
 9839SOL     OW30415   3.875   5.252   3.052 -0.4436  0.0187  0.0507
 9839SOL    HW130416   3.942   5.220   3.119 -1.7666  1.6617  2.2978
 9839SOL    HW230417   3.912   5.330   3.003  0.3744 -0.9310 -0.8860
 9840SOL     OW30418   6.703   2.175   4.360 -0.0638  0.0531 -0.2678
 9840SOL    HW130419   6.711   2.149   4.457  0.5085 -0.2822 -0.4053
 9840SOL    HW230420   6.609   2.161   4.330  0.0481 -1.0789 -0.1137
 9841SOL     OW30421   1.253   2.712   2.185  0.5099 -0.2957 -0.1481
 9841SOL    HW130422   1.182   2.728   2.117  0.3323  2.4643  0.5546
 9841SOL    HW230423   1.228   2.634   2.243 -0.5815 -1.0479 -1.5933
 9842SOL     OW30424   4.266   5.123   0.577  0.0574 -0.0636  0.2116
 9842SOL    HW130425   4.277   5.073   0.663 -1.1204  0.1945  0.5216
 9842SOL    HW230426   4.202   5.198   0.589 -0.6821 -0.4542 -1.0598
 9843SOL     OW30427   4.043   1.485   1.533 -0.4913  0.1438 -0.2788
 9843SOL    HW130428   4.122   1.423   1.532  0.1928  0.9219  1.5773
 9843SOL    HW230429   3.970   1.443   1.587  0.0976  1.0234  1.2757
 9844SOL     OW30430   5.199   0.676   4.172  0.2949 -0.5432  0.0230
 9844SOL    HW130431   5.190   0.775   4.162  2.9758 -0.1047  1.0676
 9844SOL    HW230432   5.237   0.637   4.088  1.5228 -0.2754  0.4304
 9845SOL     OW30433   2.236   4.652   4.399  0.1977 -0.4779 -0.8514
 9845SOL    HW130434   2.142   4.637   4.431 -0.3039  0.4682 -1.8394
 9845SOL    HW230435   2.287   4.566   4.406 -0.0235 -0.4724  1.9449
 9846SOL     OW30436   6.492   5.252   4.440  0.3176 -0.0047  0.4037
 9846SOL    HW130437   6.588   5.270   4.417  0.0178 -0.1569 -1.0767
 9846SOL    HW230438   6.486   5.218   4.534  1.7429 -0.2255  0.4399
 9847SOL     OW30439   5.967   2.200   4.569 -0.6303 -0.2675  0.0771
 9847SOL    HW130440   5.967   2.298   4.547  1.7143 -0.1753  0.3274
 9847SOL    HW230441   5.942   2.188   4.665 -1.9651 -0.0343 -0.2141
 9848SOL     OW30442   2.462   2.184   5.700 -0.1426  0.1651 -0.1519
 9848SOL    HW130443   2.482   2.121   5.625 -1.3353 -0.3511 -0.0611
 9848SOL    HW230444   2.500   2.274   5.679 -0.1620 -0.0623 -1.2074
 9849SOL     OW30445   4.031   1.231   4.121 -0.2999 -0.1805 -0.5549
 9849SOL    HW130446   3.939   1.218   4.083 -1.0614  1.7652  0.4715
 9849SOL    HW230447   4.093   1.258   4.047 -1.3991  1.9970 -0.7685
 9850SOL     OW30448   2.764   0.595   4.409 -0.7473 -0.6419 -0.2662
 9850SOL    HW130449   2.815   0.670   4.451 -1.1398 -0.2927 -0.4120
 9850SOL    HW230450   2.758   0.519   4.474 -0.8124 -0.3468  0.0772
 9851SOL     OW30451   4.716   6.015   3.884  0.2482 -0.0055 -0.3077
 9851SOL    HW130452   4.766   5.952   3.944 -0.8667 -0.3227  0.3214
 9851SOL    HW230453   4.688   5.967   3.801  0.7854  0.1162 -0.5655
 9852SOL     OW30454   2.735   1.856   0.021 -0.3443  0.2726 -0.0806
 9852SOL    HW130455   2.808   1.789   0.009 -1.0875 -0.6614  0.4982
 9852SOL    HW230456   2.775   1.946   0.042  0.6492 -0.0430 -0.5644
 9853SOL     OW30457   0.144   2.879   2.413  0.1127 -0.2726 -0.2305
 9853SOL    HW130458   0.129   2.838   2.503 -1.4228  2.7402  1.0514
 9853SOL    HW230459   0.059   2.876   2.360  0.0035  1.0113 -0.1619
 9854SOL     OW30460   6.748   5.562   6.679  0.2890  0.4405  0.2798
 9854SOL    HW130461   6.691   5.480   6.681 -0.1041  0.7261  0.6797
 9854SOL    HW230462   6.786   5.579   6.770  1.8443 -0.3228 -0.1853
 9855SOL     OW30463   0.468   0.723   1.109 -0.0403 -0.0249 -0.3096
 9855SOL    HW130464   0.464   0.822   1.097 -1.7438 -0.2800 -2.4605
 9855SOL    HW230465   0.563   0.694   1.110  0.6066  1.7871  2.5642
 9856SOL     OW30466   5.399   4.366   3.185  0.2776  0.1372  0.4243
 9856SOL    HW130467   5.439   4.416   3.262  1.1888  1.4223 -0.8526
 9856SOL    HW230468   5.425   4.409   3.099 -1.5321 -0.6865 -0.5968
 9857SOL     OW30469   3.761   6.909   5.256  0.4550  0.0169  0.3638
 9857SOL    HW130470   3.796   6.958   5.337 -1.3791 -1.2346  2.0171
 9857SOL    HW230471   3.760   6.971   5.178  2.9210  1.0963  1.0877
 9858SOL     OW30472   0.030   6.935   4.185 -0.1136  0.1912  0.4284
 9858SOL    HW130473  -0.015   6.852   4.219  0.2374 -0.3877 -0.4909
 9858SOL    HW230474   0.068   6.986   4.262  0.8651 -1.2071  0.9132
 9859SOL     OW30475   6.715   6.840   2.320 -0.5829  0.1969  0.0417
 9859SOL    HW130476   6.626   6.874   2.290 -0.1329 -0.0253 -1.6873
 9859SOL    HW230477   6.713   6.740   2.325 -0.4422  0.1909 -0.0015
 9860SOL     OW30478   2.030   4.132   4.036 -0.3817  0.5396  0.5825
 9860SOL    HW130479   2.026   4.197   4.111 -1.8683  1.9399 -0.6317
 9860SOL    HW230480   1.937   4.110   4.006  0.1711 -0.1141 -0.7273
 9861SOL     OW30481   4.723   1.867   3.621 -0.6180 -0.1474 -0.0444
 9861SOL    HW130482   4.714   1.965   3.600  3.5813  0.2991 -0.7061
 9861SOL    HW230483   4.764   1.820   3.543 -1.3957 -2.2432  0.7387
 9862SOL     OW30484   1.850   3.160   1.870 -0.6597  0.0662  0.2833
 9862SOL    HW130485   1.940   3.120   1.889 -1.1157 -1.0298  0.2244
 9862SOL    HW230486   1.860   3.258   1.852  0.5113 -0.0297  0.3268
 9863SOL     OW30487   5.151   6.762   2.832  0.0462 -0.0021 -0.1144
 9863SOL    HW130488   5.145   6.724   2.740  0.7295 -0.1676 -0.0945
 9863SOL    HW230489   5.062   6.752   2.878  0.3867 -2.2821  0.1589
 9864SOL     OW30490   2.020   0.549   4.507 -0.3143 -0.4961 -0.2057
 9864SOL    HW130491   2.003   0.512   4.598 -2.2117 -0.3415 -0.4508
 9864SOL    HW230492   2.089   0.494   4.460  0.7229 -0.5414  1.3132
 9865SOL     OW30493   2.354   4.894   5.569 -0.0598 -0.0305 -0.3868
 9865SOL    HW130494   2.365   4.818   5.505  0.7363 -0.0827 -0.2055
 9865SOL    HW230495   2.432   4.956   5.560  1.4756 -1.3748  2.2991
 9866SOL     OW30496   0.502   6.949   5.073  0.0106  0.0732  0.1594
 9866SOL    HW130497   0.537   7.033   5.032 -1.6015  1.2462  1.0864
 9866SOL    HW230498   0.403   6.954   5.081 -0.1666 -2.0883 -0.0658
 9867SOL     OW30499   3.762   1.462   1.323 -0.2692 -0.0529 -0.4264
 9867SOL    HW130500   3.845   1.465   1.267 -0.4076 -1.5153 -0.7450
 9867SOL    HW230501   3.756   1.545   1.378  1.3731  0.1150 -0.4512
 9868SOL     OW30502   2.086   5.226   3.881 -0.6723  0.1369 -0.2737
 9868SOL    HW130503   2.065   5.322   3.898 -0.0777 -0.0981  2.0834
 9868SOL    HW230504   2.177   5.218   3.840  0.1083  0.5274  1.3162
 9869SOL     OW30505   5.716   1.105   2.076 -0.5741  0.1266  0.1634
 9869SOL    HW130506   5.736   1.011   2.046  0.1801  0.4244 -0.3156
 9869SOL    HW230507   5.695   1.105   2.173 -0.6732 -0.5570  0.1472
 9870SOL     OW30508   2.143   3.349   4.215  0.0199  0.7007  0.6354
 9870SOL    HW130509   2.162   3.320   4.309  0.7183  0.8465  0.5498
 9870SOL    HW230510   2.170   3.277   4.152  1.5570  1.4006  0.4354
 9871SOL     OW30511   0.501   5.370   0.995 -0.0760  0.2406 -0.5418
 9871SOL    HW130512   0.401   5.379   0.988 -0.2130 -0.0372  0.8870
 9871SOL    HW230513   0.536   5.435   1.062  0.6701  0.0549 -0.7389
 9872SOL     OW30514   0.313   0.374   4.979 -0.2856  0.1535 -0.1437
 9872SOL    HW130515   0.264   0.317   5.046  1.5999  0.2304  1.3838
 9872SOL    HW230516   0.328   0.465   5.018  2.2476 -0.2819  0.0468
 9873SOL     OW30517   5.882   0.993   0.080  0.0800  0.5006  0.6508
 9873SOL    HW130518   5.885   1.043  -0.007 -1.4858  0.6778  0.6832
 9873SOL    HW230519   5.950   0.919   0.077  1.7074  1.9234  0.2003
 9874SOL     OW30520   0.821   3.762   2.366 -0.1449  0.5565  0.6275
 9874SOL    HW130521   0.799   3.851   2.327  0.5645  0.9440  1.0839
 9874SOL    HW230522   0.921   3.749   2.365 -0.3078 -1.6927 -2.6214
 9875SOL     OW30523   5.096   5.269   6.281  0.1574  0.1642 -0.0627
 9875SOL    HW130524   5.070   5.176   6.258  3.4970 -0.8009 -0.4178
 9875SOL    HW230525   5.139   5.270   6.371 -0.7661  1.5937  0.3979
 9876SOL     OW30526   1.376   0.275   3.262 -0.2331 -0.1443  0.0078
 9876SOL    HW130527   1.419   0.218   3.192  0.9256 -2.5345  2.4821
 9876SOL    HW230528   1.438   0.348   3.289  1.1450 -1.7251  1.3675
 9877SOL     OW30529   1.509   3.743   6.528 -0.4052 -0.1306  0.3372
 9877SOL    HW130530   1.572   3.813   6.493 -0.3259  0.7356  2.1051
 9877SOL    HW230531   1.419   3.784   6.545 -0.3757 -0.4337  1.3280
 9878SOL     OW30532   5.597   4.034   0.882  0.1304 -0.4017  0.2310
 9878SOL    HW130533   5.557   3.985   0.805 -1.4819  1.7155 -0.3551
 9878SOL    HW230534   5.558   3.999   0.968 -1.9971  0.6202 -0.2479
 9879SOL     OW30535   5.056   4.756   5.345 -0.6466  0.0290 -0.2039
 9879SOL    HW130536   5.067   4.855   5.348  0.1351  0.0313 -2.2341
 9879SOL    HW230537   4.969   4.733   5.301  0.1539 -0.1825 -1.7221
 9880SOL     OW30538   2.458   2.528   1.102  0.3270 -0.5186 -0.0432
 9880SOL    HW130539   2.550   2.493   1.119 -0.7943 -3.3044  0.9545
 9880SOL    HW230540   2.409   2.465   1.041 -0.9603  0.8548 -0.4984
 9881SOL     OW30541   0.449   0.119   4.106 -0.2397  0.3730 -0.2609
 9881SOL    HW130542   0.453   0.214   4.076 -2.9042  1.2039  1.5969
 9881SOL    HW230543   0.360   0.080   4.082  0.8055 -1.7084 -0.9962
 9882SOL     OW30544   3.146   3.302   4.283 -0.4343 -0.5988 -0.1985
 9882SOL    HW130545   3.066   3.268   4.233 -1.0757  0.2356  0.2358
 9882SOL    HW230546   3.180   3.385   4.238 -2.8761  1.9799  2.3534
 9883SOL     OW30547   2.110   3.885   3.244  0.7065  0.1613  0.9094
 9883SOL    HW130548   2.105   3.973   3.292 -1.0781  1.3075 -1.1838
 9883SOL    HW230549   2.025   3.870   3.194  0.7751 -3.0225  1.5311
 9884SOL     OW30550   3.719   1.859   5.316 -0.2797 -0.7301  0.1682
 9884SOL    HW130551   3.635   1.821   5.279  0.9086 -2.2348 -1.1002
 9884SOL    HW230552   3.714   1.860   5.416 -0.9211 -2.9359  0.1969
 9885SOL     OW30553   4.457   0.749   6.531 -0.1440  0.0769  0.0919
 9885SOL    HW130554   4.493   0.670   6.580 -1.5742 -0.4107  0.4191
 9885SOL    HW230555   4.511   0.830   6.553 -0.9541 -0.0312  2.8190
 9886SOL     OW30556   2.472   5.644   2.043  0.2868  0.7538  0.3403
 9886SOL    HW130557   2.569   5.627   2.059  0.5328  0.4311 -1.2806
 9886SOL    HW230558   2.461   5.733   1.998 -0.0805  0.3849 -0.3055
 9887SOL     OW30559   1.227   3.318   1.102 -0.2084  0.0079  0.7039
 9887SOL    HW130560   1.197   3.349   1.192 -0.5817 -0.3762  0.7138
 9887SOL    HW230561   1.193   3.225   1.085  1.1272 -0.5202  0.7911
 9888SOL     OW30562   4.732   1.263   4.329  0.3431 -0.7082 -0.1163
 9888SOL    HW130563   4.742   1.346   4.275 -4.5000  0.5428  0.3980
 9888SOL    HW230564   4.729   1.287   4.426 -1.7644 -1.2655  0.0040
 9889SOL     OW30565   0.777   3.363   3.186 -0.6489 -0.3319  0.0002
 9889SOL    HW130566   0.772   3.462   3.204 -0.3791 -0.2363 -0.4414
 9889SOL    HW230567   0.869   3.330   3.210 -1.0291 -0.6700  1.0769
 9890SOL     OW30568   0.983   1.540   5.302 -0.2757  0.3120  0.0463
 9890SOL    HW130569   1.009   1.446   5.280  3.6655  1.3989 -0.8030
 9890SOL    HW230570   0.998   1.556   5.399  1.3121  0.5967 -0.2170
 9891SOL     OW30571   2.887   1.041   0.481 -0.0723 -0.0112  0.0839
 9891SOL    HW130572   2.943   1.102   0.537  0.1734  0.4934 -0.7020
 9891SOL    HW230573   2.917   0.947   0.495 -1.1546 -0.1144  2.1282
 9892SOL     OW30574   2.541   4.538   2.001  0.6494  0.1961  0.2570
 9892SOL    HW130575   2.513   4.466   1.938  0.6556 -0.4850  1.0187
 9892SOL    HW230576   2.620   4.586   1.962 -1.8005  2.5524 -2.2053
 9893SOL     OW30577   6.029   5.381   3.715  0.6215 -0.1080 -0.3764
 9893SOL    HW130578   6.069   5.290   3.728 -1.8551 -1.2131  0.0431
 9893SOL    HW230579   5.932   5.372   3.693 -0.2011  2.5012  1.7350
 9894SOL     OW30580   5.619   3.211   4.630  0.9195 -0.2545  0.2514
 9894SOL    HW130581   5.584   3.119   4.649  0.0238  0.3260  1.5715
 9894SOL    HW230582   5.647   3.254   4.716  2.5055  0.2610 -0.4913
 9895SOL     OW30583   5.043   2.663   6.576  0.1293 -0.5263 -0.4242
 9895SOL    HW130584   5.116   2.626   6.519  0.0846 -0.0187 -0.8166
 9895SOL    HW230585   5.024   2.757   6.549  0.6715  0.0020  0.9546
 9896SOL     OW30586   2.125   5.321   6.503  0.4377  0.0453 -0.0871
 9896SOL    HW130587   2.212   5.352   6.541  0.5604 -0.6524  0.2156
 9896SOL    HW230588   2.139   5.291   6.409  0.1948  1.4799 -0.6018
 9897SOL     OW30589   1.287   0.839   3.890  0.2096  0.1021  0.2779
 9897SOL    HW130590   1.302   0.811   3.795 -1.4913 -0.9579  0.2797
 9897SOL    HW230591   1.242   0.928   3.892 -3.0311 -1.4055 -0.1178
 9898SOL     OW30592   5.637   5.650   1.556 -0.2299  0.5581 -0.0599
 9898SOL    HW130593   5.581   5.619   1.632 -0.6419 -2.0360 -1.3017
 9898SOL    HW230594   5.734   5.639   1.579 -0.3402  0.3421  0.3120
 9899SOL     OW30595   3.892   4.498   6.384  0.0742 -0.0640  0.4760
 9899SOL    HW130596   3.877   4.583   6.435  0.7687  1.3053 -1.5052
 9899SOL    HW230597   3.876   4.420   6.445 -2.0976  1.4257  1.9445
 9900SOL     OW30598   2.938   5.486   3.568 -0.2232  0.4560 -0.4723
 9900SOL    HW130599   2.958   5.457   3.475  0.7299  1.4773 -0.6114
 9900SOL    HW230600   2.966   5.415   3.633  1.3937  0.7327 -0.8324
 9901SOL     OW30601   3.803   2.161   5.101 -0.4626 -0.3146  0.1951
 9901SOL    HW130602   3.714   2.168   5.147  0.1789 -2.1387  1.8832
 9901SOL    HW230603   3.875   2.183   5.167  0.4161 -0.7784 -0.5937
 9902SOL     OW30604   6.731   4.303   0.770 -0.5489  0.2384 -0.3894
 9902SOL    HW130605   6.669   4.226   0.784 -1.7208  1.1020 -0.6176
 9902SOL    HW230606   6.718   4.340   0.679 -0.9159  1.4758  0.1460
 9903SOL     OW30607   2.663   2.019   2.166  0.0708  0.5058  0.2938
 9903SOL    HW130608   2.729   1.968   2.110 -1.4061  0.4236 -1.4784
 9903SOL    HW230609   2.643   2.107   2.122 -1.6405  0.1513  0.2829
 9904SOL     OW30610   4.398   0.448   0.036 -0.5646  0.0360  0.2433
 9904SOL    HW130611   4.346   0.461   0.121 -0.4500 -1.5813  0.5971
 9904SOL    HW230612   4.388   0.353   0.005 -1.9238  0.9627 -2.4711
 9905SOL     OW30613   1.472   1.319   6.202  0.1009 -0.4419  0.1262
 9905SOL    HW130614   1.455   1.323   6.103  1.0400 -0.5359 -0.0498
 9905SOL    HW230615   1.524   1.235   6.223  0.7573  0.0619  0.5605
 9906SOL     OW30616   3.912   4.683   5.577 -0.0363 -0.2032 -0.4312
 9906SOL    HW130617   3.823   4.648   5.547  0.4128 -1.7836 -0.0454
 9906SOL    HW230618   3.950   4.621   5.645  1.0201  0.8747 -0.0052
 9907SOL     OW30619   0.640   1.099   5.176 -0.1082 -0.2912 -0.4205
 9907SOL    HW130620   0.682   1.161   5.243  0.2473  0.9946 -1.7851
 9907SOL    HW230621   0.656   1.004   5.204  0.8983  0.2067  0.7799
 9908SOL     OW30622   1.615   3.523   4.842  0.2414  0.8058  0.0096
 9908SOL    HW130623   1.536   3.521   4.903  0.5262 -2.0254  0.4273
 9908SOL    HW230624   1.693   3.478   4.887  0.6497 -0.8021 -2.1508
 9909SOL     OW30625   2.439   5.721   2.600 -0.1283 -0.4307  0.1978
 9909SOL    HW130626   2.421   5.716   2.502  0.2497 -0.0623  0.1041
 9909SOL    HW230627   2.526   5.767   2.615 -1.0128  1.1291  0.7669
 9910SOL     OW30628   1.914   5.188   6.616 -0.5041  0.1084 -0.0961
 9910SOL    HW130629   1.987   5.239   6.571 -0.9186  0.7304 -0.0680
 9910SOL    HW230630   1.919   5.092   6.589 -1.4212  0.6554 -2.3716
 9911SOL     OW30631   3.066   5.297   1.874  0.1572 -0.5808 -0.2446
 9911SOL    HW130632   3.148   5.241   1.861 -0.9215 -2.1088 -0.7826
 9911SOL    HW230633   3.014   5.262   1.952  1.9627  2.8676  2.8174
 9912SOL     OW30634   0.025   1.195   3.280  0.0147 -0.1035 -0.6196
 9912SOL    HW130635   0.062   1.113   3.236 -0.5508 -0.5657 -0.2373
 9912SOL    HW230636  -0.070   1.208   3.252  0.5136  1.2561 -1.8391
 9913SOL     OW30637   5.693   0.594   2.662  0.6671  0.5308 -0.1826
 9913SOL    HW130638   5.783   0.559   2.689  0.0591 -0.5166  0.5639
 9913SOL    HW230639   5.630   0.518   2.650 -0.4053  1.3090  0.3590
 9914SOL     OW30640   0.039   5.741   4.309 -0.0128  0.0962  0.0310
 9914SOL    HW130641   0.097   5.660   4.296  0.3732  0.1656  1.2478
 9914SOL    HW230642   0.096   5.823   4.304  0.1016  0.1426  1.7238
 9915SOL     OW30643   6.731   5.775   4.902  0.4736  0.2451  0.2174
 9915SOL    HW130644   6.669   5.836   4.853  1.1122  2.0846  1.5937
 9915SOL    HW230645   6.684   5.738   4.983  0.7096  0.4790  0.4616
 9916SOL     OW30646   1.373   4.222   1.946 -0.4929 -0.0345 -0.2420
 9916SOL    HW130647   1.381   4.251   2.041 -0.7149  0.4305 -0.3606
 9916SOL    HW230648   1.431   4.280   1.888 -1.9478  1.0793 -0.6496
 9917SOL     OW30649   4.005   5.601   4.983  0.0766  0.4418 -0.0783
 9917SOL    HW130650   4.017   5.505   5.010 -1.7062  0.7013  1.9716
 9917SOL    HW230651   4.057   5.660   5.046 -0.8399  0.9000  0.2695
 9918SOL     OW30652   1.680   2.758   4.526  0.4210 -0.4632 -0.0125
 9918SOL    HW130653   1.755   2.815   4.561  0.8067 -0.3471 -0.9919
 9918SOL    HW230654   1.709   2.662   4.524  0.4124 -0.4657 -0.0193
 9919SOL     OW30655   1.394   6.279   0.442  0.0387  0.1853  0.4349
 9919SOL    HW130656   1.442   6.206   0.491  1.7426  0.0102 -1.3686
 9919SOL    HW230657   1.405   6.366   0.491 -1.7278 -0.6147  2.4227
 9920SOL     OW30658   4.264   0.954   4.495  0.5375 -0.4218 -0.6747
 9920SOL    HW130659   4.349   0.987   4.534  1.5650 -1.0349 -2.2740
 9920SOL    HW230660   4.227   0.880   4.551  0.0322  1.0735  1.0373
 9921SOL     OW30661   4.284   6.429   3.045 -0.1930 -0.0215  0.0984
 9921SOL    HW130662   4.320   6.479   3.125  0.8162 -0.2742 -0.1861
 9921SOL    HW230663   4.237   6.346   3.077  1.7850 -1.0906  0.3670
 9922SOL     OW30664   6.811   1.239   3.124  0.2928  0.4800 -0.2446
 9922SOL    HW130665   6.730   1.269   3.174  0.8214 -1.3359  1.8685
 9922SOL    HW230666   6.803   1.141   3.103  1.9364  0.2378  0.0995
 9923SOL     OW30667   6.233   5.241   4.355  0.2704  0.2151 -0.1715
 9923SOL    HW130668   6.184   5.328   4.342  2.1241  1.4676  0.8120
 9923SOL    HW230669   6.324   5.259   4.393  1.0638 -2.1143 -0.7965
 9924SOL     OW30670   0.154   6.111   3.115 -0.2238 -0.6578 -0.1440
 9924SOL    HW130671   0.140   6.200   3.071  1.1855 -0.6991 -0.7170
 9924SOL    HW230672   0.237   6.113   3.170 -1.4663 -0.8981  1.8519
 9925SOL     OW30673   4.330   1.878   3.795  0.3187  0.1391  0.0794
 9925SOL    HW130674   4.247   1.900   3.847  1.2419  0.2829  1.5684
 9925SOL    HW230675   4.325   1.784   3.763 -0.3967  0.1261  0.2070
 9926SOL     OW30676   2.212   2.390   6.393  0.0600  0.2659 -0.0915
 9926SOL    HW130677   2.286   2.383   6.326  1.3803 -1.2208  1.4122
 9926SOL    HW230678   2.245   2.436   6.475 -0.5191 -0.7830  0.7680
 9927SOL     OW30679   1.459   3.981   4.914  0.4190 -0.0414 -0.3791
 9927SOL    HW130680   1.496   3.900   4.867 -1.1031 -1.6335  1.0225
 9927SOL    HW230681   1.526   4.014   4.980  0.6002 -0.9455 -0.0898
 9928SOL     OW30682   0.484   3.860   2.370  0.5607 -0.1492 -0.2944
 9928SOL    HW130683   0.537   3.784   2.406  2.0995  0.0364 -2.0212
 9928SOL    HW230684   0.424   3.828   2.297 -0.3360 -0.0328  0.3730
 9929SOL     OW30685   2.815   2.621   5.327 -0.5718  0.2252 -0.3241
 9929SOL    HW130686   2.808   2.567   5.411  0.5533 -0.0104 -0.3653
 9929SOL    HW230687   2.821   2.560   5.248  3.3575  0.1579 -0.2103
 9930SOL     OW30688   5.569   0.466   6.828  0.2893 -0.0393  0.0388
 9930SOL    HW130689   5.499   0.497   6.892 -1.3563  1.1115 -2.1716
 9930SOL    HW230690   5.531   0.393   6.771  0.4047  1.4070 -1.9843
 9931SOL     OW30691   0.697   3.637   4.238  0.0524  0.3959  0.3935
 9931SOL    HW130692   0.671   3.664   4.145  0.9733  0.7313  0.2232
 9931SOL    HW230693   0.682   3.538   4.250  3.2602 -0.4286 -1.3257
 9932SOL     OW30694   1.980   2.138   2.596  0.6775  0.5200 -0.0175
 9932SOL    HW130695   2.029   2.142   2.683  0.5079  0.8364  0.0680
 9932SOL    HW230696   2.038   2.095   2.526  0.4712 -0.5928  0.4732
 9933SOL     OW30697   1.658   3.360   3.635  0.2774  0.1087  0.2469
 9933SOL    HW130698   1.569   3.355   3.680  1.3026 -0.3768  2.3424
 9933SOL    HW230699   1.683   3.456   3.621 -0.1846  0.2643  0.4750
 9934SOL     OW30700   5.561   1.340   5.846 -0.1334 -0.3799 -0.6491
 9934SOL    HW130701   5.491   1.269   5.839  0.6536 -1.0438 -2.5517
 9934SOL    HW230702   5.570   1.387   5.758 -0.2759  1.7811  0.4090
 9935SOL     OW30703   3.846   3.358   5.350  0.3559 -0.0775 -0.2029
 9935SOL    HW130704   3.824   3.260   5.356 -0.7260  0.2042  1.2955
 9935SOL    HW230705   3.762   3.409   5.331  0.4673  0.7143  1.2988
 9936SOL     OW30706   4.974   6.769   0.422  0.9395  0.1020  0.3375
 9936SOL    HW130707   4.935   6.861   0.432  0.0742 -0.0926 -1.0172
 9936SOL    HW230708   4.901   6.701   0.420  1.5733 -0.6352  1.2820
 9937SOL     OW30709   1.039   0.291   5.765  0.4314  0.3480  0.2867
 9937SOL    HW130710   0.955   0.255   5.724  0.3611  1.6928 -0.8169
 9937SOL    HW230711   1.018   0.333   5.854  0.0082  0.2779  0.2196
 9938SOL     OW30712   0.648   2.192   3.869  0.0267  0.0242  0.2842
 9938SOL    HW130713   0.561   2.241   3.862  0.7557  1.5358  1.1794
 9938SOL    HW230714   0.714   2.231   3.804  0.3406 -0.4173  0.3300
 9939SOL     OW30715   2.502   3.891   5.691  0.1704 -0.1759  0.3139
 9939SOL    HW130716   2.467   3.882   5.598  0.0247  0.9760  0.2490
 9939SOL    HW230717   2.452   3.827   5.751 -0.1509 -0.4908 -0.2781
 9940SOL     OW30718   4.919   1.817   3.904 -0.0891 -0.1072 -0.1933
 9940SOL    HW130719   4.897   1.837   3.809  0.8750 -0.3899 -0.4839
 9940SOL    HW230720   4.998   1.871   3.932  1.3899 -2.0744 -0.4213
 9941SOL     OW30721   6.476   5.080   5.748 -0.0999  0.2774  0.1583
 9941SOL    HW130722   6.443   5.108   5.838  2.9055  0.3050  1.3793
 9941SOL    HW230723   6.575   5.095   5.743  0.5941 -3.6310 -1.5666
 9942SOL     OW30724   6.379   4.345   4.181 -0.6479 -0.3026 -0.2871
 9942SOL    HW130725   6.283   4.319   4.175 -1.0439  0.1908  2.6559
 9942SOL    HW230726   6.415   4.323   4.271  1.7380  0.5177 -0.9378
 9943SOL     OW30727   3.059   4.361   5.983 -0.2147 -0.2406  0.2376
 9943SOL    HW130728   3.144   4.408   6.007  0.4173 -0.2809 -1.7387
 9943SOL    HW230729   2.985   4.396   6.040  0.9762  0.3114  1.5119
 9944SOL     OW30730   3.295   4.118   6.638 -0.0060 -0.3497  0.0719
 9944SOL    HW130731   3.268   4.081   6.550 -5.1602 -0.0146  1.1768
 9944SOL    HW230732   3.242   4.073   6.711  2.4946  0.8116  2.8411
 9945SOL     OW30733   6.136   4.861   5.782  0.5024 -0.4874  0.2215
 9945SOL    HW130734   6.222   4.811   5.778  0.2229 -1.0062  0.5755
 9945SOL    HW230735   6.071   4.822   5.717  0.4670 -0.2172  0.0904
 9946SOL     OW30736   1.188   0.922   3.235  0.0796  0.2074 -0.4783
 9946SOL    HW130737   1.201   1.013   3.274  2.6245  0.4383 -1.6693
 9946SOL    HW230738   1.090   0.902   3.228 -0.5286  2.1404  1.3068
 9947SOL     OW30739   6.257   1.745   2.862 -0.4911  0.3008  0.3333
 9947SOL    HW130740   6.277   1.784   2.772 -0.1098 -0.2602  0.1650
 9947SOL    HW230741   6.212   1.813   2.919  0.5772  1.1256  0.2140
 9948SOL     OW30742   5.632   1.757   4.323  0.0554  0.0217  0.5604
 9948SOL    HW130743   5.669   1.670   4.291  0.3604  0.4568 -0.2996
 9948SOL    HW230744   5.589   1.744   4.412 -1.6410 -1.4224 -0.4046
 9949SOL     OW30745   0.855   0.401   2.195 -0.0206 -0.6119 -0.5824
 9949SOL    HW130746   0.824   0.469   2.261  0.1289 -3.0341  2.1886
 9949SOL    HW230747   0.943   0.429   2.156  1.0176 -0.0442  1.9783
 9950SOL     OW30748   4.939   3.996   5.443  0.1954 -0.2324  0.2063
 9950SOL    HW130749   4.870   3.929   5.417  1.3062 -0.0978 -3.6981
 9950SOL    HW230750   5.029   3.966   5.412  0.9966  2.2578 -0.1593
 9951SOL     OW30751   1.649   2.404   2.847  0.9481  0.1675 -0.3877
 9951SOL    HW130752   1.686   2.331   2.789  1.7615 -0.5779  1.0114
 9951SOL    HW230753   1.706   2.485   2.840  1.6615 -0.2756  0.1487
 9952SOL     OW30754   0.778   4.237   0.233  0.5678 -0.7579 -0.2628
 9952SOL    HW130755   0.817   4.148   0.253  2.8909 -0.0963 -1.5014
 9952SOL    HW230756   0.728   4.234   0.146 -0.6933 -1.1830  0.4550
 9953SOL     OW30757   6.985   2.159   4.286 -0.4262  0.2731 -0.1958
 9953SOL    HW130758   6.886   2.175   4.292 -0.2431  1.1844  0.8399
 9953SOL    HW230759   7.005   2.099   4.209 -1.9460 -1.4097  0.6416
 9954SOL     OW30760   4.792   2.039   1.132 -0.2389 -0.1619  0.2023
 9954SOL    HW130761   4.813   2.136   1.124  0.7550 -0.2950  1.1219
 9954SOL    HW230762   4.817   2.005   1.222  0.4432 -1.5189 -0.4588
 9955SOL     OW30763   5.278   3.701   2.308 -0.5242 -0.0586 -0.1446
 9955SOL    HW130764   5.232   3.738   2.388 -0.5977  0.0542 -0.2375
 9955SOL    HW230765   5.340   3.770   2.270  2.9503 -1.5120  2.3857
 9956SOL     OW30766   3.059   5.983   1.020  0.2402 -0.0889  0.2022
 9956SOL    HW130767   3.077   6.023   1.111  1.0785  0.8221 -0.3373
 9956SOL    HW230768   3.046   6.057   0.954 -1.3698 -0.7488 -0.2503
 9957SOL     OW30769   5.513   0.427   0.892  0.7262  0.1579  0.0408
 9957SOL    HW130770   5.431   0.383   0.856  1.7105 -1.2275 -0.6055
 9957SOL    HW230771   5.487   0.506   0.948 -0.9574  1.0330 -1.8302
 9958SOL     OW30772   0.065   4.588   4.224  0.2768 -0.0168  0.1392
 9958SOL    HW130773   0.003   4.559   4.151 -1.3312  0.7452  1.1353
 9958SOL    HW230774   0.105   4.507   4.268  2.5681 -0.5038 -2.5217
 9959SOL     OW30775   4.544   6.237   0.328 -0.5500 -0.1470 -0.2784
 9959SOL    HW130776   4.626   6.269   0.281 -0.0808  0.0519  0.6476
 9959SOL    HW230777   4.549   6.138   0.341 -0.5007 -0.1489 -0.3153
 9960SOL     OW30778   4.408   0.029   1.291 -0.0597  0.0421 -0.1806
 9960SOL    HW130779   4.369   0.112   1.251  0.5610 -0.7227 -2.4869
 9960SOL    HW230780   4.469  -0.015   1.226  1.4179 -1.0525  1.8113
 9961SOL     OW30781   2.327   2.707   2.103  0.4161 -0.1062 -0.2153
 9961SOL    HW130782   2.337   2.725   2.201  0.7181 -0.1825 -0.2308
 9961SOL    HW230783   2.242   2.749   2.070 -0.6132 -1.5597  0.4397
 9962SOL     OW30784   5.629   0.566   2.170  1.0977  0.2308 -0.3357
 9962SOL    HW130785   5.656   0.471   2.186 -1.1543 -0.4176 -0.0547
 9962SOL    HW230786   5.536   0.569   2.133  0.3741  2.3683  1.4148
 9963SOL     OW30787   6.923   6.457   1.898 -0.3129 -0.6548 -0.0735
 9963SOL    HW130788   7.010   6.445   1.945  0.8046  0.0841 -1.8241
 9963SOL    HW230789   6.869   6.528   1.943  0.7932  0.1612  0.0026
 9964SOL     OW30790   4.220   5.209   5.411 -0.0404  0.4768 -0.3450
 9964SOL    HW130791   4.241   5.126   5.359 -0.4274  0.6703 -0.8238
 9964SOL    HW230792   4.161   5.187   5.488 -0.3493  0.3364 -0.6182
 9965SOL     OW30793   1.970   6.064   4.203  0.0305  0.2547  0.1613
 9965SOL    HW130794   1.942   6.024   4.115  0.9658  0.9114 -0.4626
 9965SOL    HW230795   1.904   6.040   4.273 -1.2070  0.4184 -0.9053
 9966SOL     OW30796   1.617   5.174   2.487 -0.1987 -0.2317  0.1545
 9966SOL    HW130797   1.611   5.193   2.389  0.3731 -2.9864 -0.4971
 9966SOL    HW230798   1.713   5.170   2.514 -0.2858 -1.3757  0.3596
 9967SOL     OW30799   5.468   0.034   1.962 -0.4866  0.1689  0.2442
 9967SOL    HW130800   5.381  -0.007   1.991 -0.5796  0.3518  0.2283
 9967SOL    HW230801   5.540   0.005   2.025  0.1551 -2.7509 -1.6312
 9968SOL     OW30802   5.759   5.837   6.023  0.2842 -0.2619  0.1046
 9968SOL    HW130803   5.850   5.847   5.981 -0.9401 -1.0824 -2.9780
 9968SOL    HW230804   5.724   5.927   6.047  1.5349  0.1298  0.5917
 9969SOL     OW30805   0.170   1.356   5.125  0.3431  0.3088 -1.0460
 9969SOL    HW130806   0.136   1.423   5.190  1.0028 -1.0453  0.7839
 9969SOL    HW230807   0.095   1.325   5.066 -0.3071  1.4303 -0.8302
 9970SOL     OW30808   1.874   2.437   2.228 -0.4910  0.2637  0.3408
 9970SOL    HW130809   1.775   2.431   2.243 -0.5242  0.2940  0.1334
 9970SOL    HW230810   1.892   2.472   2.137 -0.3110 -2.8192 -0.9499
 9971SOL     OW30811   6.046   6.286   6.662  0.3627  0.0749 -0.8646
 9971SOL    HW130812   6.017   6.341   6.584  1.3809 -0.1487 -1.4206
 9971SOL    HW230813   6.144   6.268   6.655  0.0680 -1.7275 -0.6455
 9972SOL     OW30814   2.913   2.895   5.428 -0.3317  0.2859 -0.3671
 9972SOL    HW130815   2.938   2.799   5.422  0.4840  0.3776  1.1813
 9972SOL    HW230816   2.835   2.913   5.367  0.3903 -1.0205 -1.7382
 9973SOL     OW30817   1.945   2.362   3.952 -0.3694  0.0446  0.1794
 9973SOL    HW130818   2.004   2.282   3.938 -0.9364 -0.5004  0.8056
 9973SOL    HW230819   2.001   2.444   3.957  0.5240 -0.6301  2.4341
 9974SOL     OW30820   1.070   3.387   5.665  0.0822  0.4384  0.3851
 9974SOL    HW130821   0.977   3.370   5.699  0.1510 -1.5966 -0.3127
 9974SOL    HW230822   1.068   3.460   5.597 -0.8920  0.8519  0.8330
 9975SOL     OW30823   1.763   3.726   0.298 -0.3303 -0.4253  0.1785
 9975SOL    HW130824   1.707   3.644   0.313 -1.2918  0.2734  0.4839
 9975SOL    HW230825   1.817   3.745   0.380  0.5011 -1.1985 -0.1767
 9976SOL     OW30826   3.538   5.001   3.864  0.4196 -0.5532  0.9810
 9976SOL    HW130827   3.498   5.088   3.892  0.6457 -0.5604  1.3382
 9976SOL    HW230828   3.481   4.926   3.897 -0.5521 -0.5326 -0.5360
 9977SOL     OW30829   0.767   6.917   5.286  0.0712 -0.2334 -0.3335
 9977SOL    HW130830   0.812   6.962   5.209 -0.6606  0.9486 -0.1004
 9977SOL    HW230831   0.676   6.957   5.299 -0.4619 -1.5492  0.1292
 9978SOL     OW30832   4.760   3.658   0.303  0.0056  0.3986  0.0228
 9978SOL    HW130833   4.811   3.744   0.296 -0.8303  1.1320  2.1369
 9978SOL    HW230834   4.679   3.672   0.360 -0.4308 -1.6823 -0.0155
 9979SOL     OW30835   3.276   4.109   2.903 -0.6129  0.1941  0.4130
 9979SOL    HW130836   3.351   4.074   2.847 -0.5841  1.5060 -0.4156
 9979SOL    HW230837   3.295   4.203   2.930 -0.4317 -0.5135  3.0444
 9980SOL     OW30838   2.187   6.646   0.750  0.1554 -0.3640 -0.5064
 9980SOL    HW130839   2.264   6.707   0.734  1.4874 -0.9794  2.7274
 9980SOL    HW230840   2.214   6.551   0.732  0.4722 -0.6575  1.3164
 9981SOL     OW30841   5.200   1.756   3.054  0.5022  0.1589 -0.1639
 9981SOL    HW130842   5.103   1.749   3.030  0.4321  0.2443  0.0878
 9981SOL    HW230843   5.208   1.795   3.146  0.7455 -0.5823  0.1326
 9982SOL     OW30844   2.070   1.431   4.688 -0.5652 -0.4230  0.2049
 9982SOL    HW130845   2.105   1.338   4.698 -0.2479 -0.6980 -2.6630
 9982SOL    HW230846   1.972   1.432   4.708 -0.8222 -1.6420 -0.8678
 9983SOL     OW30847   6.738   1.693   1.059 -0.1592  0.0849 -0.0330
 9983SOL    HW130848   6.817   1.691   0.997  0.4566  0.8404  0.6916
 9983SOL    HW230849   6.671   1.759   1.025  0.1275  0.4188  0.0323
 9984SOL     OW30850   1.135   5.224   0.023 -0.2866 -0.5527  0.1834
 9984SOL    HW130851   1.069   5.243  -0.050 -1.4775 -1.0439  1.0977
 9984SOL    HW230852   1.125   5.129   0.053 -0.2887 -0.1757  1.4491
 9985SOL     OW30853   4.381   4.578   6.791  0.4406 -0.9584 -0.6180
 9985SOL    HW130854   4.335   4.659   6.753 -1.4041 -1.6542  0.0028
 9985SOL    HW230855   4.434   4.533   6.719  1.1223  0.5219 -1.0854
 9986SOL     OW30856   6.238   3.623   2.925  0.1099  0.6749 -0.6210
 9986SOL    HW130857   6.226   3.541   2.869  0.0305  1.3050 -1.5527
 9986SOL    HW230858   6.149   3.667   2.939  0.1018  0.4373  0.1627
 9987SOL     OW30859   4.311   3.144   0.121 -0.2760 -0.0584 -0.5941
 9987SOL    HW130860   4.283   3.052   0.146 -1.0689  0.2155 -0.4513
 9987SOL    HW230861   4.403   3.162   0.158  0.0640 -0.9344 -0.9968
 9988SOL     OW30862   4.665   6.956   2.391  0.2596  0.3489 -0.3624
 9988SOL    HW130863   4.750   6.967   2.442  0.8316  0.7403 -1.3863
 9988SOL    HW230864   4.684   6.924   2.299 -0.7956 -0.6821 -0.2558
 9989SOL     OW30865   6.239   6.710   0.487 -0.0186  0.0512  0.4443
 9989SOL    HW130866   6.154   6.673   0.525 -1.3271  0.5694 -1.7480
 9989SOL    HW230867   6.301   6.634   0.464 -0.3395 -0.4036  1.0434
 9990SOL     OW30868   2.276   5.336   2.780  0.1237  0.3452  0.1001
 9990SOL    HW130869   2.304   5.313   2.687 -1.6256  1.0732 -0.6533
 9990SOL    HW230870   2.354   5.326   2.842  2.7937  4.4395 -2.1382
 9991SOL     OW30871   1.408   1.816   2.219 -0.0740  0.2289  0.2371
 9991SOL    HW130872   1.450   1.899   2.185 -1.3992  0.6764 -0.3884
 9991SOL    HW230873   1.476   1.743   2.226  1.2690  1.5581  1.5378
 9992SOL     OW30874   1.097   3.683   0.880  0.1670  0.3474 -0.1427
 9992SOL    HW130875   1.028   3.690   0.952  0.3384  1.1900 -0.0556
 9992SOL    HW230876   1.108   3.587   0.854  1.2345 -0.1865  2.0515
 9993SOL     OW30877   4.283   0.608   2.842  0.0780 -0.1576  0.3249
 9993SOL    HW130878   4.219   0.559   2.902 -0.4846  0.1576 -0.0078
 9993SOL    HW230879   4.254   0.703   2.834  0.8497  0.0968  0.5226
 9994SOL     OW30880   4.161   4.762   4.539  0.0053  0.4968 -0.5493
 9994SOL    HW130881   4.107   4.813   4.605  0.5775 -1.3560  1.4804
 9994SOL    HW230882   4.100   4.707   4.481 -0.3963  0.0614  0.2758
 9995SOL     OW30883   5.608   2.403   5.772 -0.0112  0.0714  0.3811
 9995SOL    HW130884   5.532   2.348   5.805 -1.5915  2.5201  1.0526
 9995SOL    HW230885   5.646   2.457   5.848  1.0489  0.4368 -0.3777
 9996SOL     OW30886   2.148   4.566   2.304  0.0064 -0.1619 -0.6942
 9996SOL    HW130887   2.228   4.548   2.246  0.3786  1.2552 -0.6481
 9996SOL    HW230888   2.117   4.659   2.289 -0.2184  0.0655  1.0056
 9997SOL     OW30889   0.402   5.342   3.868  0.1740 -0.1481 -0.0713
 9997SOL    HW130890   0.395   5.276   3.794 -1.0116 -0.5795  0.4040
 9997SOL    HW230891   0.495   5.379   3.871  0.7462 -1.4978 -0.5844
 9998SOL     OW30892   4.743   4.116   3.045  0.8602  0.1736  0.3765
 9998SOL    HW130893   4.648   4.132   3.072  0.4732 -1.3573  0.0705
 9998SOL    HW230894   4.804   4.143   3.118 -0.1261 -3.7430  2.9729
 9999SOL     OW30895   0.029   1.057   4.669  0.2055 -0.0611  0.5778
 9999SOL    HW130896   0.099   1.118   4.705 -0.3647  0.3732  0.9661
 9999SOL    HW230897  -0.057   1.070   4.719 -0.4584  0.1702 -0.5811
10000SOL     OW30898   6.300   3.503   2.502 -0.3550  0.1510 -0.1075
10000SOL    HW130899   6.380   3.534   2.451  0.5378 -1.3104  0.3446
10000SOL    HW230900   6.283   3.407   2.482  0.1444 -0.5314  2.4048
10001SOL     OW30901   3.392   4.240   0.255 -0.2774 -0.0316  0.4035
10001SOL    HW130902   3.360   4.322   0.302 -0.3498  0.1418  0.0519
10001SOL    HW230903   3.492   4.238   0.255 -0.2542 -0.9288  2.1254
10002SOL     OW30904   4.136   4.302   1.663 -0.2785 -0.0460  0.0527
10002SOL    HW130905   4.075   4.223   1.666  1.6891 -1.6419  0.6102
10002SOL    HW230906   4.228   4.272   1.639  0.0140  2.5054 -2.5213
10003SOL     OW30907   0.002   1.179   2.550 -0.1377  0.1056  0.1213
10003SOL    HW130908   0.076   1.133   2.599 -0.8214 -0.9467  0.1895
10003SOL    HW230909  -0.064   1.216   2.615 -0.1514  0.2370  0.0341
10004SOL     OW30910   5.906   3.872   5.037  0.3444 -0.2763 -0.2407
10004SOL    HW130911   5.883   3.801   5.104 -0.1315 -1.1976 -1.3330
10004SOL    HW230912   5.827   3.888   4.978 -0.1196  2.3661  0.9810
10005SOL     OW30913   0.863   4.253   2.432  0.1528 -0.0621 -0.1575
10005SOL    HW130914   0.952   4.286   2.463  0.6477 -0.9104 -0.6523
10005SOL    HW230915   0.810   4.330   2.396  0.5162  0.5166  0.4976
10006SOL     OW30916   5.005   1.524   1.057  0.1151 -1.5937 -0.0436
10006SOL    HW130917   5.061   1.575   1.122 -0.6651  0.3643 -0.8053
10006SOL    HW230918   5.047   1.529   0.966 -1.2993  0.1353 -0.6862
10007SOL     OW30919   1.791   4.655   3.042 -0.7120  0.3156  0.4565
10007SOL    HW130920   1.727   4.600   2.988  2.3573 -2.8130 -0.3795
10007SOL    HW230921   1.789   4.623   3.137  0.7505 -1.0322  0.0651
10008SOL     OW30922   3.287   0.786   6.221  0.2729  0.0660  0.4829
10008SOL    HW130923   3.225   0.860   6.196 -0.3428 -0.7870 -0.6297
10008SOL    HW230924   3.337   0.810   6.304  0.0464  1.6843  0.1731
10009SOL     OW30925   0.180   5.476   6.741  0.0142 -0.1566 -0.2839
10009SOL    HW130926   0.279   5.484   6.732 -0.2242  1.1072 -2.1789
10009SOL    HW230927   0.147   5.405   6.678 -0.6406  2.0507 -2.5635
10010SOL     OW30928   2.974   6.463   0.379  0.8830  1.2470  0.1310
10010SOL    HW130929   2.923   6.465   0.465  1.0661  0.4314  0.2610
10010SOL    HW230930   3.054   6.404   0.389  1.3948  1.8616 -0.3296
10011SOL     OW30931   2.919   5.604   6.377  0.0381 -0.4583  0.2967
10011SOL    HW130932   2.914   5.538   6.302 -2.4568  0.9217 -0.8858
10011SOL    HW230933   3.001   5.661   6.366 -0.1966 -0.3854 -1.3196
10012SOL     OW30934   6.955   2.105   3.992  0.0931  0.3894  0.2520
10012SOL    HW130935   6.928   2.014   3.961 -2.0729  0.8749  0.5683
10012SOL    HW230936   6.901   2.174   3.943  2.2347  1.5767 -0.5431
10013SOL     OW30937   6.583   3.638   5.290 -0.3482 -0.3214  0.3174
10013SOL    HW130938   6.634   3.712   5.334 -1.6776  1.0176 -0.3279
10013SOL    HW230939   6.555   3.572   5.360  0.1381  0.1935  1.0224
10014SOL     OW30940   2.616   0.751   3.000 -0.4838 -0.6903  0.0630
10014SOL    HW130941   2.564   0.704   2.929 -1.4452 -0.6985  0.7502
10014SOL    HW230942   2.708   0.712   3.006  0.2510  0.4699 -2.3515
10015SOL     OW30943   3.655   0.099   0.348 -0.6037  0.2104 -0.2044
10015SOL    HW130944   3.618   0.150   0.270  0.9543  0.5508 -0.7564
10015SOL    HW230945   3.751   0.122   0.360 -1.3140  2.1280  3.4121
10016SOL     OW30946   1.588   2.766   6.001  0.2305 -0.6165 -0.6781
10016SOL    HW130947   1.647   2.709   5.944  0.1728 -2.3237  0.8747
10016SOL    HW230948   1.569   2.718   6.087 -0.3755  1.4957  0.4274
10017SOL     OW30949   2.263   2.745   4.181  0.3791  0.4926 -0.6142
10017SOL    HW130950   2.253   2.793   4.093  0.2883  0.9191 -0.3776
10017SOL    HW230951   2.175   2.704   4.206  0.0650  1.4282 -0.1300
10018SOL     OW30952   0.125   3.596   0.669 -0.5782 -0.1210  0.4405
10018SOL    HW130953   0.168   3.567   0.755  1.4589 -1.3488 -0.9337
10018SOL    HW230954   0.164   3.546   0.593 -0.8528  2.4059 -1.4937
10019SOL     OW30955   1.013   0.210   1.256  0.3118 -0.3637  0.6345
10019SOL    HW130956   1.097   0.255   1.227  0.9444 -1.2990  0.9882
10019SOL    HW230957   0.954   0.277   1.301 -0.3457  0.9400 -1.9705
10020SOL     OW30958   4.514   2.069   2.692  0.0096  0.0280  0.0049
10020SOL    HW130959   4.531   1.988   2.748  3.1492 -0.0915 -0.9103
10020SOL    HW230960   4.578   2.141   2.717 -1.0083  1.3275 -0.9459
10021SOL     OW30961   2.634   4.614   2.557 -0.3022  0.3042 -0.6809
10021SOL    HW130962   2.730   4.636   2.575 -0.9672  3.2312 -0.1528
10021SOL    HW230963   2.629   4.538   2.492  2.3473  0.2597 -0.9582
10022SOL     OW30964   0.148   0.173   7.011  0.2067 -0.5130 -0.1163
10022SOL    HW130965   0.118   0.078   7.018  1.8314 -1.0120  0.4561
10022SOL    HW230966   0.076   0.233   7.048 -0.6415 -1.5379 -0.0440
10023SOL     OW30967   0.335   2.869   5.795 -0.0581 -0.6348 -0.1213
10023SOL    HW130968   0.412   2.818   5.835 -0.3887 -1.1246 -0.0942
10023SOL    HW230969   0.250   2.836   5.835 -0.2156  0.6569  0.6541
10024SOL     OW30970   1.906   2.880   2.993  0.0407  0.1252  0.2566
10024SOL    HW130971   1.993   2.838   3.020  0.7051  1.6704  0.6495
10024SOL    HW230972   1.832   2.842   3.048  0.5234 -0.8916  0.2262
10025SOL     OW30973   1.698   1.924   1.902  0.2347  0.1418 -0.2556
10025SOL    HW130974   1.686   1.881   1.812  0.5118  2.5966 -1.5437
10025SOL    HW230975   1.776   1.985   1.900  0.3141  0.1710  1.7374
10026SOL     OW30976   4.822   2.431   5.221 -0.3055  0.4862 -0.1149
10026SOL    HW130977   4.743   2.412   5.278 -0.5485 -2.2567 -1.1827
10026SOL    HW230978   4.893   2.475   5.276 -0.4927 -2.0355  2.4231
10027SOL     OW30979   4.672   1.113   5.396  0.3922 -0.3092 -0.1609
10027SOL    HW130980   4.702   1.023   5.427  0.2654 -0.6189 -0.9203
10027SOL    HW230981   4.732   1.145   5.323  0.2323  0.0701 -0.1275
10028SOL     OW30982   4.469   6.196   2.245  0.5387  0.1782 -0.5285
10028SOL    HW130983   4.409   6.122   2.276  1.3865 -0.6414 -0.8108
10028SOL    HW230984   4.467   6.200   2.145 -1.1901  1.9778 -0.4889
10029SOL     OW30985   2.064   4.173   3.326 -0.0065  0.4732 -0.2076
10029SOL    HW130986   2.066   4.211   3.234 -0.5124 -0.5182 -0.6472
10029SOL    HW230987   2.149   4.196   3.374  1.0329 -0.4487 -1.5245
10030SOL     OW30988   2.369   5.256   3.731 -0.3335  0.2540 -0.0432
10030SOL    HW130989   2.392   5.161   3.710 -1.9526 -0.6519  1.8671
10030SOL    HW230990   2.440   5.294   3.791 -0.1498 -0.0911 -0.0343
10031SOL     OW30991   1.738   5.379   1.670  0.1760 -0.8655  0.1482
10031SOL    HW130992   1.670   5.346   1.605 -0.1032  0.1118 -0.0759
10031SOL    HW230993   1.823   5.402   1.623 -0.4026  0.9572 -0.1063
10032SOL     OW30994   2.966   5.103   3.408  0.1516  0.0977  0.0496
10032SOL    HW130995   2.887   5.136   3.460  1.3348  0.9382  1.3666
10032SOL    HW230996   2.989   5.010   3.438  1.4523  0.9493  1.8357
10033SOL     OW30997   6.950   3.102   6.545 -0.1112 -0.6880  0.5936
10033SOL    HW130998   6.981   3.098   6.450 -0.3041 -2.8569  0.5754
10033SOL    HW230999   7.018   3.153   6.599 -0.7839  2.0253 -0.9094
10034SOL     OW31000   3.174   0.735   2.283  0.2304  0.0464  0.0029
10034SOL    HW131001   3.202   0.812   2.340 -1.2482  0.7330 -0.1528
10034SOL    HW231002   3.079   0.711   2.304 -0.0545 -0.2799 -1.5220
10035SOL     OW31003   0.793   2.231   1.536 -0.0149  0.4558  0.2716
10035SOL    HW131004   0.714   2.264   1.485  0.6429  2.0476  0.2346
10035SOL    HW231005   0.763   2.190   1.622 -0.9373  0.0525 -0.2289
10036SOL     OW31006   0.475   1.912   0.144 -0.2580  0.3926 -0.2944
10036SOL    HW131007   0.535   1.984   0.109  1.6739 -0.0390  1.8672
10036SOL    HW231008   0.498   1.825   0.101  1.0129  0.1554  0.8058
10037SOL     OW31009   4.677   1.239   0.259 -0.1979  0.5771  0.4235
10037SOL    HW131010   4.638   1.153   0.291  1.9147 -0.7916 -0.4180
10037SOL    HW231011   4.643   1.259   0.167 -2.3615  1.8497  1.4338
10038SOL     OW31012   4.989   0.556   5.701  0.6389  0.2644 -0.0679
10038SOL    HW131013   5.065   0.542   5.638  0.4978  1.3820 -0.5033
10038SOL    HW231014   5.025   0.569   5.794  0.8280 -1.7065  0.1753
10039SOL     OW31015   0.601   4.587   1.571 -0.4137 -0.5303  0.1379
10039SOL    HW131016   0.693   4.624   1.573 -0.8808  0.8565 -1.6985
10039SOL    HW231017   0.602   4.495   1.531  0.0466 -0.0860 -0.8856
10040SOL     OW31018   3.713   6.042   0.986  0.7489 -0.6337  0.4407
10040SOL    HW131019   3.614   6.030   0.974  0.7824  0.6419 -1.6563
10040SOL    HW231020   3.729   6.125   1.039  0.6749 -0.0713 -0.3930
10041SOL     OW31021   5.356   4.540   5.963 -0.7807 -0.2445 -0.3815
10041SOL    HW131022   5.452   4.567   5.962 -1.0603  1.2155  2.2873
10041SOL    HW231023   5.350   4.442   5.984  0.1662  0.1367  1.9759
10042SOL     OW31024   5.135   6.433   3.624  0.0233  0.1482 -0.7437
10042SOL    HW131025   5.103   6.338   3.620 -0.9018  0.3998  0.1823
10042SOL    HW231026   5.056   6.494   3.628  0.6210  0.9360 -0.8784
10043SOL     OW31027   0.373   0.606   2.845 -0.2759  0.0760 -1.3571
10043SOL    HW131028   0.407   0.675   2.781 -0.1728 -1.1829 -2.7180
10043SOL    HW231029   0.291   0.563   2.808  0.1453 -1.1251 -0.9606
10044SOL     OW31030   2.197   4.137   5.848 -0.2200  0.1473 -0.2712
10044SOL    HW131031   2.295   4.153   5.860 -0.3392  0.5628  0.1953
10044SOL    HW231032   2.152   4.222   5.822 -0.3411 -0.2258 -1.3284
10045SOL     OW31033   4.845   6.672   5.178  0.1884  0.2732  0.3770
10045SOL    HW131034   4.899   6.688   5.095 -0.1732  1.7788  0.4031
10045SOL    HW231035   4.750   6.653   5.153 -0.5213  3.2457  0.4354
10046SOL     OW31036   6.460   1.093   1.561  0.2128 -0.4818 -0.5823
10046SOL    HW131037   6.369   1.131   1.576  0.5079 -0.3420  1.1170
10046SOL    HW231038   6.526   1.167   1.552  0.3874 -0.5768 -0.1138
10047SOL     OW31039   1.290   0.183   1.430 -0.3621  0.4238  0.4515
10047SOL    HW131040   1.253   0.184   1.337 -2.8121  1.1840  1.3526
10047SOL    HW231041   1.276   0.093   1.471  0.8820  0.0332  0.0564
10048SOL     OW31042   3.332   3.520   1.591  0.0827 -0.0070 -0.2329
10048SOL    HW131043   3.272   3.599   1.602  0.8648  1.1415 -3.3246
10048SOL    HW231044   3.425   3.545   1.618  0.2002 -0.0981 -0.5580
10049SOL     OW31045   0.245   5.324   4.164  0.2894 -0.0786  0.0051
10049SOL    HW131046   0.294   5.340   4.078  0.4338 -0.5422 -0.0039
10049SOL    HW231047   0.284   5.244   4.210  1.3870  1.2137  1.3955
10050SOL     OW31048   0.359   0.860   4.405 -0.2127 -0.2566 -0.4359
10050SOL    HW131049   0.398   0.908   4.483  0.0064 -0.1050 -0.6403
10050SOL    HW231050   0.317   0.774   4.436  1.4382 -1.0802 -0.3888
10051SOL     OW31051   4.656   3.584   6.798  0.0701  0.3806  0.7141
10051SOL    HW131052   4.749   3.569   6.833  0.6612  1.5249 -0.2696
10051SOL    HW231053   4.659   3.653   6.726 -1.3778 -0.5203 -0.2471
10052SOL     OW31054   2.271   0.815   0.122  0.1135 -0.4054 -0.4850
10052SOL    HW131055   2.220   0.760   0.055 -1.2190  0.6557 -0.3999
10052SOL    HW231056   2.358   0.843   0.083 -0.1037 -0.8514 -1.3146
10053SOL     OW31057   2.319   0.447   2.476  0.0820 -0.0854  0.1925
10053SOL    HW131058   2.273   0.377   2.532 -0.5325  0.2099  0.0617
10053SOL    HW231059   2.316   0.420   2.380  1.4195 -0.7491  0.3260
10054SOL     OW31060   5.786   5.276   4.909  0.1794  0.3072 -0.2188
10054SOL    HW131061   5.859   5.345   4.916  0.0068  0.5006 -0.2897
10054SOL    HW231062   5.819   5.189   4.944 -0.3700  0.9992  2.1967
10055SOL     OW31063   4.746   2.556   6.121  0.0807 -0.0195  0.5442
10055SOL    HW131064   4.731   2.649   6.090  0.2435  0.4381  1.7692
10055SOL    HW231065   4.841   2.529   6.102 -0.4701 -0.6582 -1.5432
10056SOL     OW31066   5.396   3.698   3.170 -0.0927 -0.2456 -0.5069
10056SOL    HW131067   5.378   3.602   3.191 -0.7494 -0.8591 -3.4160
10056SOL    HW231068   5.483   3.706   3.121 -0.9725  0.3156 -2.0562
10057SOL     OW31069   1.246   0.002   2.620  0.1608  0.0250 -0.2623
10057SOL    HW131070   1.204   0.064   2.554 -0.0291  0.2771  0.0895
10057SOL    HW231071   1.338  -0.024   2.589  0.8400  1.6539  0.2909
10058SOL     OW31072   0.771   4.467   2.319 -0.5148 -0.2845  0.5568
10058SOL    HW131073   0.721   4.468   2.233 -3.4676  1.0993  2.1342
10058SOL    HW231074   0.827   4.549   2.327 -1.9642  0.7071  0.8304
10059SOL     OW31075   4.523   5.957   0.332 -0.5025 -0.3037 -0.9089
10059SOL    HW131076   4.457   5.973   0.406 -0.2108 -2.4090 -0.1279
10059SOL    HW231077   4.601   5.906   0.368  0.4952  0.1729 -2.3164
10060SOL     OW31078   0.910   1.738   2.751  0.0762  0.6252 -0.5741
10060SOL    HW131079   0.983   1.793   2.711 -0.0047  1.1864  0.0311
10060SOL    HW231080   0.863   1.791   2.822  0.7001 -0.5889  0.7967
10061SOL     OW31081   1.555   1.614   4.207 -0.3195 -0.3512 -0.1599
10061SOL    HW131082   1.552   1.678   4.130  2.0867 -0.1760 -0.1701
10061SOL    HW231083   1.551   1.520   4.171 -1.8453 -0.2695 -0.2755
10062SOL     OW31084   6.925   6.043   4.045  0.3946 -0.3659  0.2249
10062SOL    HW131085   6.939   6.131   4.090  0.7749 -0.5525  0.4752
10062SOL    HW231086   6.991   5.977   4.080 -0.4071 -0.9631  0.6241
10063SOL     OW31087   0.492   2.788   3.723 -0.3942  0.3458 -0.5519
10063SOL    HW131088   0.503   2.882   3.691  3.5324  0.3283  0.2640
10063SOL    HW231089   0.477   2.788   3.822 -0.1161  0.1255 -0.5080
10064SOL     OW31090   5.020   4.472   5.931 -0.0182 -0.6717 -0.0326
10064SOL    HW131091   4.981   4.386   5.899 -0.4583  0.0250 -1.4726
10064SOL    HW231092   5.049   4.526   5.852 -0.1581  0.6830  0.8186
10065SOL     OW31093   2.045   6.334   0.195  0.3822 -0.3651  0.7741
10065SOL    HW131094   2.012   6.427   0.205 -1.1595 -0.8223  0.1982
10065SOL    HW231095   2.090   6.323   0.106  0.2664 -0.2561  0.7026
10066SOL     OW31096   0.926   0.063   4.329  0.5289  0.3314 -0.1710
10066SOL    HW131097   0.837   0.051   4.285  0.8306 -0.9590 -0.4733
10066SOL    HW231098   0.967   0.149   4.300 -0.1566  0.4380 -0.8463
10067SOL     OW31099   6.404   0.093   3.886  0.0729  0.6179 -0.5248
10067SOL    HW131100   6.499   0.088   3.917  0.0844  0.7158 -0.5444
10067SOL    HW231101   6.360   0.173   3.926 -0.9294 -1.0821  1.9897
10068SOL     OW31102   4.977   3.093   6.232  0.5696 -0.1760  0.0756
10068SOL    HW131103   4.878   3.102   6.220  0.4604  0.6522  1.4102
10068SOL    HW231104   5.024   3.154   6.168  0.1819  0.1482  0.0972
10069SOL     OW31105   4.665   1.258   3.794  0.0618  0.2875  0.3070
10069SOL    HW131106   4.718   1.343   3.794  0.6698 -0.0563  1.8121
10069SOL    HW231107   4.570   1.278   3.819 -0.0220  0.6294 -0.2602
10070SOL     OW31108   6.994   6.340   4.619 -0.3833  0.4385 -0.0707
10070SOL    HW131109   7.050   6.392   4.555 -1.0458  0.8676 -0.3129
10070SOL    HW231110   6.991   6.388   4.707  1.6946 -0.8610  0.7730
10071SOL     OW31111   5.318   5.032   4.344 -0.0698 -0.3654 -0.3403
10071SOL    HW131112   5.360   5.098   4.406  0.1334 -1.2531  0.5105
10071SOL    HW231113   5.368   5.029   4.258 -0.2343  0.7541 -0.4847
10072SOL     OW31114   0.654   0.280   4.297  0.0593  0.0884 -0.4406
10072SOL    HW131115   0.628   0.374   4.277 -0.4680  1.0391  3.7488
10072SOL    HW231116   0.578   0.234   4.344  1.6226 -1.1431  1.0228
10073SOL     OW31117   5.710   6.977   1.229 -0.1206  0.0462  0.3158
10073SOL    HW131118   5.629   7.034   1.239 -1.8985 -2.3264  0.1543
10073SOL    HW231119   5.766   6.983   1.313 -1.4466  0.2709  1.2125
10074SOL     OW31120   0.865   5.767   4.843 -0.2787  0.1400  0.4527
10074SOL    HW131121   0.837   5.779   4.748 -2.1346  0.0701  0.9382
10074SOL    HW231122   0.861   5.855   4.891  0.7487  0.1957  0.4547
10075SOL     OW31123   0.669   3.755   4.565 -0.4591  0.1239  0.0017
10075SOL    HW131124   0.699   3.786   4.475 -1.3399  0.2691 -0.2469
10075SOL    HW231125   0.583   3.705   4.556 -1.6962  1.9772  1.0023
10076SOL     OW31126   6.226   6.657   2.477 -0.2660  0.2699 -0.5822
10076SOL    HW131127   6.285   6.642   2.398 -0.7675  1.1170 -1.1272
10076SOL    HW231128   6.178   6.744   2.468 -1.1046 -0.0884  0.1664
10077SOL     OW31129   3.834   2.253   6.403 -0.0784  0.1418  0.0757
10077SOL    HW131130   3.899   2.315   6.359  0.1251  1.4656  2.1051
10077SOL    HW231131   3.844   2.260   6.502 -1.9490 -1.1382  0.3973
10078SOL     OW31132   5.954   6.277   4.634  0.4266 -0.1984 -0.4149
10078SOL    HW131133   5.901   6.199   4.670  0.4358  0.1999  0.4759
10078SOL    HW231134   5.982   6.336   4.709 -1.1224  1.6624 -1.2086
10079SOL     OW31135   1.444   3.322   6.425  0.0888 -0.1921  0.8321
10079SOL    HW131136   1.386   3.336   6.345  1.4651 -0.8491 -0.3431
10079SOL    HW231137   1.418   3.238   6.471 -0.9299  0.3622  1.2841
10080SOL     OW31138   2.096   1.475   5.101 -0.7650 -0.4498  0.1327
10080SOL    HW131139   2.191   1.462   5.072 -0.7064  0.4291 -0.0754
10080SOL    HW231140   2.094   1.508   5.195 -0.7773  1.4237 -0.4911
10081SOL     OW31141   1.910   1.757   6.206  0.1694  0.3377 -0.1321
10081SOL    HW131142   1.893   1.683   6.271 -0.1162  1.3131  0.9349
10081SOL    HW231143   1.975   1.822   6.245  0.7143  0.4630 -1.2133
10082SOL     OW31144   6.963   1.681   6.936  0.5685 -0.3504 -0.4998
10082SOL    HW131145   6.937   1.777   6.919 -0.7707 -0.5048  0.5625
10082SOL    HW231146   7.062   1.674   6.937  0.6926  0.9169 -1.1992
10083SOL     OW31147   5.300   0.712   3.854  0.0397  0.0918 -0.3646
10083SOL    HW131148   5.219   0.712   3.796 -0.8793 -0.1076  0.8666
10083SOL    HW231149   5.352   0.628   3.839 -1.0971 -0.7653  0.2790
10084SOL     OW31150   2.594   1.792   5.725  0.4276  0.0721  0.1171
10084SOL    HW131151   2.665   1.737   5.683  1.5712 -0.0616  2.0863
10084SOL    HW231152   2.635   1.857   5.789 -1.1503  0.7469  0.5123
10085SOL     OW31153   0.968   4.643   2.585 -0.9344 -0.3437  0.3011
10085SOL    HW131154   0.872   4.647   2.611 -1.2245 -0.9237 -0.6278
10085SOL    HW231155   1.009   4.734   2.591 -0.7950 -0.5166  3.3459
10086SOL     OW31156   0.611   0.558   3.446  0.3228  0.3796  0.2145
10086SOL    HW131157   0.683   0.623   3.470  0.8060  0.2559 -0.8153
10086SOL    HW231158   0.585   0.504   3.526 -2.6792  4.2346  2.1461
10087SOL     OW31159   0.439   1.242   5.457  0.0095  0.1154 -0.0958
10087SOL    HW131160   0.360   1.302   5.465 -1.3843 -1.7469  0.9739
10087SOL    HW231161   0.523   1.295   5.469 -1.1301  1.8644  0.4739
10088SOL     OW31162   4.428   0.072   0.575  0.4361 -0.2761  0.2331
10088SOL    HW131163   4.384   0.064   0.664  0.1949  0.3714  0.1771
10088SOL    HW231164   4.501   0.003   0.567 -0.2147 -1.0129  0.5261
10089SOL     OW31165   1.241   1.754   3.336 -0.4271 -0.7877 -0.3474
10089SOL    HW131166   1.335   1.756   3.302 -0.2002 -0.1061  0.2956
10089SOL    HW231167   1.238   1.787   3.430 -1.6035  1.5955 -1.1252
10090SOL     OW31168   0.257   5.823   0.521  0.2450  0.4873 -0.3081
10090SOL    HW131169   0.158   5.821   0.535 -0.0234  1.4735 -1.8049
10090SOL    HW231170   0.282   5.907   0.473  1.5228 -0.7538 -1.9262
10091SOL     OW31171   0.078   0.554   5.410  0.0537 -0.3326 -0.1222
10091SOL    HW131172   0.049   0.643   5.443 -0.2586 -0.4675 -0.0315
10091SOL    HW231173   0.151   0.519   5.469  1.5656  0.7077 -1.2655
10092SOL     OW31174   3.786   2.723   6.044  0.0371  0.1652  0.1928
10092SOL    HW131175   3.736   2.693   5.962 -0.5118  1.1053  0.1779
10092SOL    HW231176   3.746   2.807   6.079 -0.6536 -0.9740  2.2855
10093SOL     OW31177   0.126   0.062   4.380  0.3347 -0.2180 -0.8033
10093SOL    HW131178   0.085   0.153   4.386  1.0010  0.0007  1.1460
10093SOL    HW231179   0.222   0.067   4.406 -0.0075 -1.7088  0.9167
10094SOL     OW31180   0.134   0.718   3.250  0.5368  0.5697 -0.3572
10094SOL    HW131181   0.069   0.654   3.209 -1.5108  1.6265  1.0526
10094SOL    HW231182   0.197   0.669   3.309  1.0240 -0.4762 -1.7067
10095SOL     OW31183   0.812   1.295   0.010 -0.5645  0.1506 -0.0149
10095SOL    HW131184   0.840   1.390  -0.009  0.2922 -0.0078  0.4352
10095SOL    HW231185   0.833   1.238  -0.069 -1.8884  0.4836 -0.6390
10096SOL     OW31186   0.564   4.834   3.927  0.2753  0.2205 -0.7455
10096SOL    HW131187   0.565   4.934   3.929  0.2279  0.3045  2.9696
10096SOL    HW231188   0.627   4.801   3.858  3.0222  2.8948  0.2736
10097SOL     OW31189   1.073   3.595   0.494  0.0698 -0.8096 -0.0944
10097SOL    HW131190   1.036   3.513   0.448 -1.6910  0.4089 -0.9853
10097SOL    HW231191   1.001   3.638   0.548  0.9962  0.1144  0.4381
10098SOL     OW31192   2.487   2.991   5.828 -0.3417  0.4675  0.1868
10098SOL    HW131193   2.556   2.977   5.757 -0.3311 -0.7714  0.4162
10098SOL    HW231194   2.528   2.973   5.918 -1.0650 -0.7612  0.2935
10099SOL     OW31195   2.125   1.723   4.454 -0.2481  0.5674  0.0853
10099SOL    HW131196   2.138   1.640   4.509 -0.5499 -1.5009 -2.7379
10099SOL    HW231197   2.214   1.756   4.423 -0.1780  0.8258  0.5601
10100SOL     OW31198   5.356   1.443   6.882  0.6002 -0.1093  0.0622
10100SOL    HW131199   5.395   1.390   6.957  0.8842  1.7175  1.2583
10100SOL    HW231200   5.364   1.541   6.902 -0.2601  0.4104 -1.8843
10101SOL     OW31201   6.321   4.174   1.298  0.6221 -0.2054 -0.7033
10101SOL    HW131202   6.305   4.272   1.290  0.1616 -0.1036  1.0451
10101SOL    HW231203   6.327   4.133   1.207  2.2706  1.6517 -1.4968
10102SOL     OW31204   3.031   0.998   3.119 -0.1937  0.0263  0.6243
10102SOL    HW131205   3.112   1.001   3.178 -0.6304  2.8822  1.1751
10102SOL    HW231206   3.060   1.009   3.024  0.4691 -4.2068  0.1340
10103SOL     OW31207   1.166   3.062   2.209  0.1846 -0.1165  0.2490
10103SOL    HW131208   1.117   2.976   2.191 -1.5726  1.3640 -2.8743
10103SOL    HW231209   1.237   3.075   2.139 -0.3492  1.4746 -0.0365
10104SOL     OW31210   2.808   4.825   0.713  0.3246  0.1760 -0.6660
10104SOL    HW131211   2.760   4.833   0.626 -1.7497  0.4894  0.4505
10104SOL    HW231212   2.837   4.730   0.726 -0.3849 -0.1215 -1.1710
10105SOL     OW31213   2.795   1.269   0.806 -0.0145 -0.0586 -0.0408
10105SOL    HW131214   2.768   1.282   0.711 -0.7970  2.1019  0.4165
10105SOL    HW231215   2.756   1.184   0.841 -0.2802 -0.5372 -1.4308
10106SOL     OW31216   5.150   5.657   2.134  0.3904  0.6584 -0.0732
10106SOL    HW131217   5.244   5.666   2.101  0.5989 -0.7144  0.0990
10106SOL    HW231218   5.133   5.563   2.160  0.2173  1.5907  3.7284
10107SOL     OW31219   5.548   2.671   5.857 -0.5722 -0.4422  0.7497
10107SOL    HW131220   5.558   2.764   5.820  0.3669 -0.2031  1.5586
10107SOL    HW231221   5.518   2.609   5.785  2.8168 -0.3718 -0.9190
10108SOL     OW31222   6.245   5.204   6.706  0.1840 -0.6027  0.2294
10108SOL    HW131223   6.310   5.139   6.747  0.3364 -0.9993 -0.6148
10108SOL    HW231224   6.257   5.294   6.748  2.2700 -0.3150 -0.8458
10109SOL     OW31225   5.637   5.531   2.790 -0.5842  0.0060 -0.1886
10109SOL    HW131226   5.713   5.589   2.818 -0.3649 -0.2589 -0.2215
10109SOL    HW231227   5.578   5.581   2.727  1.0782 -0.6240 -2.4193
10110SOL     OW31228   2.868   2.688   0.185 -0.2967  0.2679 -0.0204
10110SOL    HW131229   2.938   2.716   0.251 -0.1325 -2.6509  1.1921
10110SOL    HW231230   2.781   2.677   0.232 -1.4362  2.8855 -1.3303
10111SOL     OW31231   0.409   2.316   0.753 -0.8699 -0.0904  0.4186
10111SOL    HW131232   0.430   2.219   0.744  0.3195 -0.0188  1.9397
10111SOL    HW231233   0.455   2.367   0.680  0.6895 -0.4223  1.1284
10112SOL     OW31234   4.818   5.860   0.818  0.0926  0.3375 -0.6745
10112SOL    HW131235   4.890   5.840   0.752  0.9705  0.3639  0.2442
10112SOL    HW231236   4.733   5.883   0.770  0.0042 -2.0554 -1.7948
10113SOL     OW31237   3.756   0.952   1.008  0.1619  0.4159  0.6763
10113SOL    HW131238   3.711   0.870   1.044  3.2196 -1.9491 -0.4191
10113SOL    HW231239   3.808   0.996   1.081  0.1644  0.1541  0.8351
10114SOL     OW31240   3.792   0.076   1.115 -0.0407 -0.1995 -0.3198
10114SOL    HW131241   3.839   0.020   1.048 -0.2817  0.6204 -1.2027
10114SOL    HW231242   3.806   0.039   1.207  1.6813 -0.3994 -0.6355
10115SOL     OW31243   0.317   2.901   0.619 -0.1375  0.2547 -0.1171
10115SOL    HW131244   0.293   2.806   0.597 -1.1132  0.2113  0.9903
10115SOL    HW231245   0.324   2.954   0.535 -3.5050  0.0891 -0.6529
10116SOL     OW31246   6.435   6.476   6.687 -0.1445  0.0702  0.2037
10116SOL    HW131247   6.445   6.469   6.786 -0.0032  0.6869  0.2427
10116SOL    HW231248   6.380   6.401   6.653  1.7767 -1.5400  0.4417
10117SOL     OW31249   3.363   1.067   5.473 -0.1417 -1.2423 -0.7386
10117SOL    HW131250   3.459   1.057   5.446  0.4267  1.0497  0.1935
10117SOL    HW231251   3.309   0.993   5.433  1.7583 -1.7643 -2.4922
10118SOL     OW31252   0.706   6.096   3.399  0.2628 -0.2115  0.3616
10118SOL    HW131253   0.798   6.120   3.430 -0.0808  0.1551  1.1261
10118SOL    HW231254   0.709   6.066   3.304  1.1232  0.1350  0.2776
10119SOL     OW31255   1.784   6.445   5.563 -0.1447 -0.4985  0.2490
10119SOL    HW131256   1.812   6.531   5.519  0.8436  0.1921  2.1119
10119SOL    HW231257   1.701   6.461   5.617  0.2125 -0.6192  0.8417
10120SOL     OW31258   6.499   2.560   3.935  0.0902  0.2208  0.2104
10120SOL    HW131259   6.500   2.473   3.984 -0.6193 -0.5587 -1.0897
10120SOL    HW231260   6.586   2.607   3.947  1.4814 -1.8649 -1.0942
10121SOL     OW31261   3.101   5.003   5.217 -0.1508  0.0580 -0.1332
10121SOL    HW131262   3.107   4.906   5.240  0.5955 -0.2783 -1.6589
10121SOL    HW231263   3.024   5.018   5.155 -0.7184  0.5783  0.6743
10122SOL     OW31264   5.122   4.234   0.102  0.6788  0.1317 -0.4318
10122SOL    HW131265   5.128   4.233   0.002 -2.8775  2.0454 -0.8194
10122SOL    HW231266   5.126   4.329   0.135 -0.2691 -0.2992  1.0359
10123SOL     OW31267   0.975   0.697   0.265 -0.1013  0.4493  0.0142
10123SOL    HW131268   0.991   0.795   0.254 -0.6040  0.4638 -0.6564
10123SOL    HW231269   0.906   0.667   0.199  1.3329 -0.6943 -1.0375
10124SOL     OW31270   4.081   3.334   5.519  0.3065  0.2362  0.7166
10124SOL    HW131271   3.999   3.336   5.462  1.8856  0.8209 -1.7070
10124SOL    HW231272   4.096   3.424   5.560 -0.9242 -0.2309  2.2934
10125SOL     OW31273   1.889   1.546   6.414  0.6559  0.4196  0.4090
10125SOL    HW131274   1.792   1.542   6.440  0.4476  3.1064  0.3022
10125SOL    HW231275   1.917   1.457   6.379 -2.0186 -0.2135 -0.4155
10126SOL     OW31276   6.047   6.196   5.058 -0.2372 -0.4416  0.9895
10126SOL    HW131277   6.059   6.104   5.021 -1.1417 -0.0195 -0.4368
10126SOL    HW231278   5.986   6.192   5.137  0.9788 -1.2417  1.9280
10127SOL     OW31279   2.643   5.102   5.682 -0.2304  0.0036  0.0224
10127SOL    HW131280   2.725   5.047   5.700  0.3552  1.3851  1.8918
10127SOL    HW231281   2.660   5.162   5.603  0.5419  0.2207  0.3438
10128SOL     OW31282   2.168   1.349   6.091  0.1432  0.0772  0.2854
10128SOL    HW131283   2.177   1.435   6.040  0.0979  0.2151  0.5072
10128SOL    HW231284   2.135   1.277   6.030 -0.6669  0.4287  0.2935
10129SOL     OW31285   4.720   2.639   2.210  0.4591  0.0313  0.0995
10129SOL    HW131286   4.716   2.624   2.308 -0.2570  1.6551  0.3492
10129SOL    HW231287   4.638   2.599   2.167  0.3532  0.0543  0.2793
10130SOL     OW31288   5.436   3.906   0.649 -0.3236 -0.3183 -0.4622
10130SOL    HW131289   5.449   3.823   0.594 -0.6213 -0.2863 -0.5850
10130SOL    HW231290   5.428   3.985   0.589 -1.6512 -0.4077 -0.4460
10131SOL     OW31291   1.837   2.961   1.259 -0.2176  0.0205 -0.0535
10131SOL    HW131292   1.855   2.985   1.163 -2.1499 -1.0860 -0.7424
10131SOL    HW231293   1.806   3.043   1.308  1.9798  0.8921  0.0188
10132SOL     OW31294   4.026   5.988   3.497  0.0605  0.2049  0.6993
10132SOL    HW131295   4.030   5.923   3.573  1.5854  0.4722  0.8836
10132SOL    HW231296   4.043   6.081   3.532 -0.6762  0.5241  0.2311
10133SOL     OW31297   0.289   4.556   2.361  0.2090 -0.2441  0.2807
10133SOL    HW131298   0.311   4.652   2.341 -2.0345  0.0790 -1.1125
10133SOL    HW231299   0.301   4.502   2.278  1.0864 -1.1224  0.9600
10134SOL     OW31300   1.238   0.692   2.062 -0.6463  0.6140  0.0762
10134SOL    HW131301   1.286   0.754   2.000 -0.7569  1.7456  1.0870
10134SOL    HW231302   1.155   0.657   2.016  0.7527 -0.8873 -1.4523
10135SOL     OW31303   3.140   5.944   2.251  0.4819 -0.0390  0.5139
10135SOL    HW131304   3.177   6.025   2.296  1.6037 -0.9253  1.2556
10135SOL    HW231305   3.192   5.926   2.167 -1.3016  1.3382 -0.9557
10136SOL     OW31306   6.598   5.311   1.317  0.1290 -0.0779 -0.4624
10136SOL    HW131307   6.505   5.340   1.335 -0.3907 -2.4337  1.0971
10136SOL    HW231308   6.601   5.258   1.232 -0.3676 -1.5069  0.3714
10137SOL     OW31309   0.423   3.833   5.080 -0.6231 -0.5550  0.2182
10137SOL    HW131310   0.395   3.865   4.989  2.1541  1.6198 -0.0103
10137SOL    HW231311   0.460   3.740   5.072 -2.0093 -1.0815 -0.4950
10138SOL     OW31312   6.381   1.229   1.848 -0.6001  0.1452 -0.1107
10138SOL    HW131313   6.426   1.279   1.774 -2.8493  0.9393 -1.0264
10138SOL    HW231314   6.300   1.183   1.813 -0.9117 -0.6803  1.5960
10139SOL     OW31315   3.823   3.692   2.563  0.2390 -0.5869 -0.7754
10139SOL    HW131316   3.844   3.609   2.511 -1.3728  0.3289 -3.0198
10139SOL    HW231317   3.730   3.722   2.543 -0.1750  0.3247  2.0692
10140SOL     OW31318   6.892   6.722   4.673 -0.2447  0.5086  0.5207
10140SOL    HW131319   6.978   6.672   4.671  0.4314  1.6310 -0.1294
10140SOL    HW231320   6.862   6.735   4.768 -0.2447 -0.7783  0.7025
10141SOL     OW31321   1.181   5.978   5.840 -0.1921 -0.3603 -0.4973
10141SOL    HW131322   1.260   5.944   5.789 -0.9965  0.2690 -2.2335
10141SOL    HW231323   1.140   6.054   5.791 -1.0109  0.2952  1.1353
10142SOL     OW31324   5.591   6.626   5.131 -0.1995 -0.2779 -0.1891
10142SOL    HW131325   5.631   6.542   5.168 -1.2911 -0.7228  0.0220
10142SOL    HW231326   5.502   6.642   5.175 -0.4197  0.4842 -0.8995
10143SOL     OW31327   5.262   5.768   1.329 -0.0858  0.1669  0.0959
10143SOL    HW131328   5.285   5.814   1.243 -1.3813 -0.4113 -0.5957
10143SOL    HW231329   5.217   5.834   1.390 -0.1689  0.3126 -0.1182
10144SOL     OW31330   3.158   5.449   2.811 -0.0541  0.4135 -0.2043
10144SOL    HW131331   3.084   5.402   2.859  0.2355  1.4204  1.2895
10144SOL    HW231332   3.129   5.472   2.719 -0.2627 -2.5100 -0.9771
10145SOL     OW31333   0.137   1.646   4.838 -0.0376 -0.5242 -0.2680
10145SOL    HW131334   0.205   1.592   4.788 -0.0496 -0.5267 -0.2818
10145SOL    HW231335   0.170   1.740   4.848 -1.6173  0.5399 -3.6072
10146SOL     OW31336   2.998   6.938   3.215 -0.0220 -0.8002  0.6995
10146SOL    HW131337   2.913   6.910   3.260 -0.7540  1.1006  0.5798
10146SOL    HW231338   3.038   7.016   3.265  1.1864 -1.1027  0.2413
10147SOL     OW31339   3.924   6.496   5.088  0.3710  0.3027 -0.1642
10147SOL    HW131340   4.013   6.453   5.076  0.3631  0.4814 -0.9018
10147SOL    HW231341   3.930   6.563   5.162  0.2403 -1.3137  1.3750
10148SOL     OW31342   6.275   5.400   1.117  0.2827  0.0922  0.4264
10148SOL    HW131343   6.360   5.440   1.083 -0.1009  0.4805 -0.1054
10148SOL    HW231344   6.292   5.307   1.150  1.0830  0.4849  1.1620
10149SOL     OW31345   5.231   3.226   2.091  0.1993  0.2418  0.5554
10149SOL    HW131346   5.131   3.217   2.091  0.1720  0.5180  0.9206
10149SOL    HW231347   5.256   3.322   2.096  0.4776  0.1228  1.7514
10150SOL     OW31348   0.070   5.820   2.222 -0.6431 -0.1638  0.6136
10150SOL    HW131349   0.123   5.895   2.182  2.3799 -3.0722 -1.3738
10150SOL    HW231350   0.039   5.759   2.150 -0.4556 -2.3248  2.2563
10151SOL     OW31351   1.235   3.816   6.524  0.1956  0.5495  0.1665
10151SOL    HW131352   1.189   3.783   6.442  0.3392 -0.9976  0.6624
10151SOL    HW231353   1.240   3.916   6.523 -0.4223  0.5817 -1.3510
10152SOL     OW31354   6.990   6.090   5.492 -0.0144  0.0541 -0.5766
10152SOL    HW131355   7.035   6.149   5.425  2.0603  0.9050  1.4182
10152SOL    HW231356   6.897   6.123   5.508 -0.3177  0.2194 -2.5141
10153SOL     OW31357   0.366   5.094   1.970  0.5120 -0.0846 -0.6219
10153SOL    HW131358   0.307   5.034   2.025  2.9534 -1.7175  0.3923
10153SOL    HW231359   0.455   5.103   2.015  0.7597  3.1962 -1.5074
10154SOL     OW31360   5.630   6.265   5.625 -0.0842 -0.1859 -0.0061
10154SOL    HW131361   5.604   6.216   5.708 -1.4644  0.2679 -0.1533
10154SOL    HW231362   5.609   6.362   5.635  0.3768 -0.0143 -0.6289
10155SOL     OW31363   3.261   1.875   0.916 -0.4526  0.5925 -0.0303
10155SOL    HW131364   3.197   1.928   0.972  0.8917  0.6035  1.5997
10155SOL    HW231365   3.320   1.938   0.865  1.0098  0.7771  1.7514
10156SOL     OW31366   6.176   0.306   1.531  0.1115 -0.5931  0.1428
10156SOL    HW131367   6.122   0.320   1.448  1.9516  0.9333 -0.8954
10156SOL    HW231368   6.118   0.271   1.604 -1.3986 -2.9332 -2.0263
10157SOL     OW31369   3.806   1.005   4.839 -0.6859 -0.4767 -0.2604
10157SOL    HW131370   3.767   0.917   4.813 -2.0332 -0.6281  1.9915
10157SOL    HW231371   3.893   0.991   4.886 -0.1390 -0.4763 -1.2598
10158SOL     OW31372   4.950   2.857   5.896  0.8134  0.5266  0.1836
10158SOL    HW131373   4.864   2.809   5.913  0.5590 -0.2621 -2.8703
10158SOL    HW231374   5.010   2.846   5.976 -1.4262  0.1340  1.9150
10159SOL     OW31375   1.387   6.638   4.636  0.6512  0.4298 -0.1736
10159SOL    HW131376   1.319   6.600   4.698 -0.0621 -0.5578 -1.5139
10159SOL    HW231377   1.454   6.691   4.688  0.4600 -0.9013  1.5119
10160SOL     OW31378   0.723   5.745   3.841 -0.1781  0.4658 -0.0925
10160SOL    HW131379   0.722   5.844   3.858  2.1627  0.7838 -1.2673
10160SOL    HW231380   0.748   5.729   3.745 -1.6893 -1.2939 -0.2480
10161SOL     OW31381   2.588   5.354   5.793 -0.2319 -0.3692  0.2293
10161SOL    HW131382   2.572   5.256   5.787 -1.7500 -0.1717  0.7577
10161SOL    HW231383   2.687   5.371   5.795  0.0611 -1.8346 -0.4147
10162SOL     OW31384   2.737   1.165   6.346  0.0175  0.1143 -0.5966
10162SOL    HW131385   2.747   1.106   6.426  1.1074  1.1171  0.0265
10162SOL    HW231386   2.639   1.181   6.329 -0.2351 -0.0785  0.5634
10163SOL     OW31387   0.797   3.616   3.294 -0.0514  0.6490 -0.1634
10163SOL    HW131388   0.875   3.678   3.299  0.7269 -0.3567  0.6119
10163SOL    HW231389   0.719   3.664   3.254  0.6099  2.0256  0.1305
10164SOL     OW31390   1.292   3.001   6.149  0.5616  0.0705 -0.0169
10164SOL    HW131391   1.239   2.936   6.095  3.5400 -1.5593 -1.1897
10164SOL    HW231392   1.253   3.007   6.241 -2.6601  0.4112 -1.2813
10165SOL     OW31393   1.495   1.721   3.878  0.2375 -0.5530  0.0339
10165SOL    HW131394   1.425   1.781   3.916  1.3732  2.1989 -1.8846
10165SOL    HW231395   1.583   1.740   3.923  1.2090  1.4477 -2.4670
10166SOL     OW31396   6.832   6.093   1.094  0.7674  0.0751 -0.1563
10166SOL    HW131397   6.914   6.051   1.055  0.5451  1.3717 -2.1826
10166SOL    HW231398   6.753   6.032   1.081  0.9768 -0.1469 -0.3858
10167SOL     OW31399   4.845   6.341   0.295  0.1750 -0.5201  0.3172
10167SOL    HW131400   4.881   6.347   0.202 -0.0787 -0.3340  0.2292
10167SOL    HW231401   4.920   6.319   0.358  0.1468 -1.8423 -0.0732
10168SOL     OW31402   5.304   3.561   5.839  0.1526 -0.0551  0.0573
10168SOL    HW131403   5.402   3.566   5.819  0.2126 -2.4227 -0.5490
10168SOL    HW231404   5.290   3.573   5.938  1.4832 -2.9301  0.7072
10169SOL     OW31405   6.964   5.781   3.817  0.1038  0.1496  0.2415
10169SOL    HW131406   6.884   5.820   3.771 -0.2087 -2.2661 -1.4329
10169SOL    HW231407   6.940   5.757   3.911 -0.7239  0.7237  0.1866
10170SOL     OW31408   2.174   5.255   5.800  0.2094 -0.1177  0.5649
10170SOL    HW131409   2.189   5.354   5.800  1.1868 -0.2536  0.1472
10170SOL    HW231410   2.258   5.209   5.830  0.5844 -0.9288 -1.5582
10171SOL     OW31411   6.121   1.888   6.665 -0.4961  0.3052 -0.3407
10171SOL    HW131412   6.220   1.899   6.671 -0.2127 -1.9817 -0.2257
10171SOL    HW231413   6.082   1.881   6.757 -1.1111  3.2824 -0.2647
10172SOL     OW31414   5.472   0.707   5.159 -0.1393  0.1108 -0.2665
10172SOL    HW131415   5.416   0.644   5.213 -0.2503 -0.8665 -1.4632
10172SOL    HW231416   5.562   0.666   5.143  0.2126  0.7862 -0.0704
10173SOL     OW31417   1.004   1.911   3.859  0.7854  0.4429  0.1070
10173SOL    HW131418   1.005   1.867   3.949 -0.7429  2.3061  1.1139
10173SOL    HW231419   1.096   1.944   3.836  1.1350  0.1957  1.1178
10174SOL     OW31420   6.343   4.471   0.290 -0.5101 -0.7822  0.2487
10174SOL    HW131421   6.276   4.537   0.322  0.5598  0.6047 -0.2826
10174SOL    HW231422   6.372   4.413   0.366  1.1894  1.7403  1.6421
10175SOL     OW31423   5.693   2.095   4.495 -0.3063  0.0301 -0.2006
10175SOL    HW131424   5.768   2.145   4.538  0.1009 -2.4767  2.3552
10175SOL    HW231425   5.658   2.147   4.418  1.0655  3.4072  1.2545
10176SOL     OW31426   3.774   5.056   6.955 -0.2108 -0.4971  0.6133
10176SOL    HW131427   3.781   5.111   7.038 -0.6060 -0.5860  0.7064
10176SOL    HW231428   3.684   5.012   6.951 -0.4681  0.0674 -0.2086
10177SOL     OW31429   1.789   6.064   0.573  0.3262 -0.3705 -0.0550
10177SOL    HW131430   1.691   6.053   0.592  0.0759 -0.6143 -1.3717
10177SOL    HW231431   1.821   5.988   0.518  1.2304 -0.1916  0.2022
10178SOL     OW31432   5.036   2.792   3.556 -0.0459  1.2192 -0.1415
10178SOL    HW131433   5.066   2.885   3.538  0.0798  1.2389  0.1512
10178SOL    HW231434   4.949   2.794   3.605  0.1459  1.1945  0.2065
10179SOL     OW31435   5.298   3.748   1.426 -0.3464 -0.1695 -0.0576
10179SOL    HW131436   5.316   3.793   1.514  0.1324  0.0002 -0.2418
10179SOL    HW231437   5.206   3.773   1.395  0.1952  1.3270 -0.5414
10180SOL     OW31438   1.551   0.242   6.493  0.3789  1.0944 -0.0383
10180SOL    HW131439   1.602   0.326   6.476  0.5682  1.1511  0.7894
10180SOL    HW231440   1.477   0.260   6.557 -0.5134  0.9444 -0.9846
10181SOL     OW31441   5.383   4.100   2.675 -0.7271 -0.0270 -0.4172
10181SOL    HW131442   5.312   4.169   2.659 -0.3914  0.4610  0.1758
10181SOL    HW231443   5.343   4.022   2.724 -2.1908 -2.2847 -4.6132
10182SOL     OW31444   3.706   5.686   0.244  0.2467  0.0273 -0.1256
10182SOL    HW131445   3.705   5.715   0.148 -2.2636 -0.9039 -0.4485
10182SOL    HW231446   3.657   5.753   0.299  2.7454  1.2248  0.8326
10183SOL     OW31447   6.581   2.848   6.627  0.0090 -0.1579  0.1342
10183SOL    HW131448   6.677   2.846   6.656 -0.2901 -1.2405  1.1653
10183SOL    HW231449   6.525   2.888   6.700 -0.5345 -1.2154  0.3189
10184SOL     OW31450   4.177   6.415   0.576 -0.6786  0.5402 -0.9454
10184SOL    HW131451   4.204   6.490   0.517 -0.8946  0.1490 -1.5494
10184SOL    HW231452   4.248   6.344   0.576 -1.0803  0.1247 -1.4715
10185SOL     OW31453   2.257   1.640   0.700  0.9231  0.5087 -0.3157
10185SOL    HW131454   2.217   1.662   0.611  0.3316  2.6902  0.4128
10185SOL    HW231455   2.300   1.550   0.696  0.1314  0.1555 -2.5252
10186SOL     OW31456   4.550   0.546   2.925  0.2211  0.0904  0.3672
10186SOL    HW131457   4.455   0.548   2.895  0.5906  1.1529 -0.8005
10186SOL    HW231458   4.554   0.565   3.023 -0.6638  2.1735  0.0565
10187SOL     OW31459   0.011   0.478   1.168  0.0257 -0.3483  0.0965
10187SOL    HW131460  -0.073   0.532   1.173  0.6509  0.5984  1.3131
10187SOL    HW231461   0.062   0.503   1.086 -1.3076 -1.6279 -1.1501
10188SOL     OW31462   1.938   0.905   6.523  0.0424 -0.0278  0.1033
10188SOL    HW131463   1.875   0.859   6.585  0.2680 -1.0779 -0.4186
10188SOL    HW231464   1.980   0.982   6.569  0.7804 -1.2341  1.5374
10189SOL     OW31465   0.368   0.640   5.066  0.0509 -0.1408 -0.3656
10189SOL    HW131466   0.390   0.652   5.163 -0.6277  0.4628 -0.2762
10189SOL    HW231467   0.441   0.679   5.010  0.0264  0.3113 -0.0874
10190SOL     OW31468   6.409   1.675   1.632  0.8772  0.7396 -0.1291
10190SOL    HW131469   6.317   1.707   1.654  0.2995 -0.8090 -0.2237
10190SOL    HW231470   6.409   1.630   1.543  1.6603  0.4436  0.0090
10191SOL     OW31471   0.206   3.473   0.915  0.3147  0.1412 -0.4890
10191SOL    HW131472   0.145   3.397   0.937  1.6992 -0.6277  0.8914
10191SOL    HW231473   0.283   3.472   0.978  1.1516  1.7900 -1.4448
10192SOL     OW31474   5.212   2.306   5.758 -0.0157 -0.6661  0.2633
10192SOL    HW131475   5.256   2.390   5.725  0.9054 -1.8862 -1.7969
10192SOL    HW231476   5.200   2.311   5.857  0.8721  1.4829  0.3084
10193SOL     OW31477   6.761   5.613   0.206 -0.3428 -0.4265  0.4526
10193SOL    HW131478   6.838   5.552   0.224 -0.9070 -1.2009  0.3091
10193SOL    HW231479   6.685   5.588   0.265 -1.0052 -0.6809 -0.4879
10194SOL     OW31480   4.652   2.309   3.179 -0.1527 -0.0407 -0.3361
10194SOL    HW131481   4.667   2.229   3.237  0.1175 -1.0388 -1.7348
10194SOL    HW231482   4.604   2.281   3.096  0.5652  1.1423 -1.1716
10195SOL     OW31483   0.953   5.284   1.183  1.0142 -0.3725  0.1227
10195SOL    HW131484   1.018   5.272   1.108  0.0387 -2.0324 -0.4939
10195SOL    HW231485   0.870   5.233   1.163 -0.9084  2.4324  0.4310
10196SOL     OW31486   5.988   6.636   6.682 -0.4055 -0.1345  0.6921
10196SOL    HW131487   5.941   6.591   6.758 -0.8534  0.4716  0.7785
10196SOL    HW231488   6.087   6.634   6.698 -0.4595 -0.5690  0.9790
10197SOL     OW31489   2.206   0.535   6.691  0.3070  0.3264 -0.7328
10197SOL    HW131490   2.112   0.542   6.723 -0.1839 -1.9685 -1.4674
10197SOL    HW231491   2.214   0.575   6.600  0.1785  0.9807 -0.4620
10198SOL     OW31492   2.298   1.856   1.127  0.2596  0.0504 -0.2804
10198SOL    HW131493   2.274   1.943   1.171 -0.4045 -0.2676 -0.0088
10198SOL    HW231494   2.368   1.809   1.182  0.9665  0.6198 -0.6718
10199SOL     OW31495   6.951   1.904   6.066  0.9393  0.2252 -0.2298
10199SOL    HW131496   7.007   1.966   6.012 -0.6167  0.3209 -1.8146
10199SOL    HW231497   7.007   1.827   6.097  1.8374 -0.0696 -2.3803
10200SOL     OW31498   0.353   3.400   2.011 -0.4986 -0.0725 -0.2130
10200SOL    HW131499   0.263   3.442   2.021 -0.2710  0.4674 -0.4065
10200SOL    HW231500   0.347   3.325   1.944 -0.7867  0.0089 -0.2811
10201SOL     OW31501   0.868   2.870   5.851 -0.6334  0.0490  0.1227
10201SOL    HW131502   0.956   2.870   5.803 -1.8021  0.1453 -2.1562
10201SOL    HW231503   0.873   2.808   5.929  1.5017  0.2238  0.1902
10202SOL     OW31504   4.095   0.725   3.268 -0.2773 -0.8171 -0.3459
10202SOL    HW131505   4.115   0.701   3.363 -0.0192 -1.1625 -0.4862
10202SOL    HW231506   4.089   0.642   3.213  1.0421 -0.5562 -0.9189
10203SOL     OW31507   6.162   3.123   5.173  0.9665  0.4614  0.1936
10203SOL    HW131508   6.212   3.137   5.087  0.5416  0.9491  0.0161
10203SOL    HW231509   6.141   3.212   5.213 -1.2079  0.3700 -0.5982
10204SOL     OW31510   3.748   6.112   5.364 -0.0201  0.1100  0.0385
10204SOL    HW131511   3.718   6.138   5.272  1.5055  1.5365 -0.0926
10204SOL    HW231512   3.836   6.065   5.359  0.0927  0.2291  0.7804
10205SOL     OW31513   6.045   1.988   0.289  0.1053  0.7563 -0.3464
10205SOL    HW131514   6.141   1.961   0.300  0.0096  1.1153  1.5810
10205SOL    HW231515   6.023   2.061   0.353 -2.4589 -1.8727  2.0511
10206SOL     OW31516   1.902   1.875   5.800  0.5388  0.2438 -0.1543
10206SOL    HW131517   1.916   1.953   5.860  1.8525  1.3412 -1.8153
10206SOL    HW231518   1.938   1.792   5.844 -1.0777  0.4647  1.7158
10207SOL     OW31519   1.221   3.255   6.747 -0.4122 -0.2701  0.8303
10207SOL    HW131520   1.161   3.204   6.809  0.1194 -2.4175 -0.3426
10207SOL    HW231521   1.169   3.283   6.666 -0.1106 -1.2241  0.2938
10208SOL     OW31522   6.371   6.207   5.832 -0.5759 -0.4944 -0.1958
10208SOL    HW131523   6.297   6.180   5.894 -1.2626 -3.2701 -2.0656
10208SOL    HW231524   6.459   6.190   5.875 -1.0092 -0.3472  0.7851
10209SOL     OW31525   5.690   4.878   5.666 -0.1772  0.5094 -0.2836
10209SOL    HW131526   5.663   4.884   5.762  2.2822 -0.1495  0.5155
10209SOL    HW231527   5.615   4.837   5.613 -1.1414 -0.2116  1.5524
10210SOL     OW31528   4.385   2.107   1.842  0.0080  0.0548  0.0065
10210SOL    HW131529   4.457   2.166   1.878 -0.3926  0.2132  0.5422
10210SOL    HW231530   4.296   2.148   1.858 -0.1630  0.5060 -1.8409
10211SOL     OW31531   5.867   6.043   4.722 -0.6016  0.3513 -0.2034
10211SOL    HW131532   5.770   6.040   4.697 -0.9223 -1.6764  1.0787
10211SOL    HW231533   5.920   5.989   4.657 -0.8188 -1.2048  0.8596
10212SOL     OW31534   0.471   0.020   0.764  0.4370 -0.2467  0.3742
10212SOL    HW131535   0.481   0.041   0.861  0.1321  0.0880  0.3362
10212SOL    HW231536   0.561   0.001   0.725  0.7215  0.9361  0.4312
10213SOL     OW31537   5.920   2.654   2.479  0.6950 -0.0105  0.1897
10213SOL    HW131538   5.934   2.753   2.475 -0.2009  0.1000 -0.6197
10213SOL    HW231539   5.842   2.634   2.538  0.0860 -0.1371 -0.6434
10214SOL     OW31540   0.959   2.171   1.949 -0.4811  0.3915  0.5121
10214SOL    HW131541   0.977   2.075   1.971 -0.4612  0.2123 -0.2355
10214SOL    HW231542   0.958   2.225   2.032  1.7978  0.1312  0.7800
10215SOL     OW31543   3.775   4.113   0.416  0.1032 -0.2257 -0.5811
10215SOL    HW131544   3.722   4.043   0.462 -0.1574 -0.2510 -0.9187
10215SOL    HW231545   3.722   4.152   0.341 -0.3091  1.3184  0.4618
10216SOL     OW31546   0.106   6.275   0.589  0.1677 -0.1710 -0.3339
10216SOL    HW131547   0.130   6.234   0.501  0.2476 -1.8495  0.4221
10216SOL    HW231548   0.157   6.230   0.662 -2.1395 -1.0053  0.8901
10217SOL     OW31549   3.623   1.410   6.009  0.5330  0.3251 -0.2224
10217SOL    HW131550   3.605   1.508   5.998 -1.5973 -0.0823 -0.6412
10217SOL    HW231551   3.543   1.365   6.048  1.0295 -1.4697 -1.1574
10218SOL     OW31552   0.225   2.291   1.982 -0.0100  0.1298  0.6625
10218SOL    HW131553   0.160   2.247   2.045  0.7082 -0.3308  1.0885
10218SOL    HW231554   0.176   2.359   1.927 -1.4724 -2.0938 -1.0078
10219SOL     OW31555   1.134   5.963   2.527 -0.0196 -0.4948 -0.7043
10219SOL    HW131556   1.155   5.988   2.622  0.2902 -2.5343 -0.1975
10219SOL    HW231557   1.219   5.940   2.480 -0.4315 -2.9117 -0.4012
10220SOL     OW31558   5.453   4.137   1.339 -0.0192 -0.1570 -0.2020
10220SOL    HW131559   5.495   4.093   1.419 -0.9655 -0.5271  0.1022
10220SOL    HW231560   5.480   4.233   1.336  1.5702 -0.5802 -0.5179
10221SOL     OW31561   0.917   0.069   1.743 -0.0901  0.3357 -0.1010
10221SOL    HW131562   0.945  -0.015   1.697 -1.0073  0.3983 -0.8091
10221SOL    HW231563   0.918   0.145   1.677  0.8677  0.9225  0.5629
10222SOL     OW31564   2.738   2.973   1.300 -0.5601 -0.0097  0.3738
10222SOL    HW131565   2.679   2.895   1.320  0.7063 -1.0304  0.2977
10222SOL    HW231566   2.786   2.958   1.213  1.1018 -0.0496  1.2474
10223SOL     OW31567   2.759   6.531   0.551 -0.1562  0.4697  0.9183
10223SOL    HW131568   2.678   6.472   0.554 -0.4018  0.7933  0.6678
10223SOL    HW231569   2.810   6.521   0.636  0.6668 -1.3298  0.2781
10224SOL     OW31570   0.503   2.849   4.652  0.1869  0.2571  0.5143
10224SOL    HW131571   0.408   2.877   4.665  0.0692 -0.5622  1.5939
10224SOL    HW231572   0.563   2.916   4.695  0.0470  0.3199  0.6136
10225SOL     OW31573   1.549   2.831   1.226  0.2783 -0.3807 -0.2488
10225SOL    HW131574   1.630   2.867   1.272  0.0630 -0.6945  0.3978
10225SOL    HW231575   1.503   2.766   1.287  0.2900 -1.2370 -1.1327
10226SOL     OW31576   4.323   0.092   0.313 -0.3316  0.2722  0.5050
10226SOL    HW131577   4.246   0.155   0.300 -0.2313  0.5386  1.1601
10226SOL    HW231578   4.344   0.085   0.410  0.9118  0.7427  0.2929
10227SOL     OW31579   6.878   4.338   1.342  0.2668  0.2319  0.2571
10227SOL    HW131580   6.847   4.420   1.294  0.2386  1.5542  2.3733
10227SOL    HW231581   6.977   4.328   1.331  0.0022 -0.6359 -1.6570
10228SOL     OW31582   3.869   6.774   6.792  0.2877  0.3378  0.2682
10228SOL    HW131583   3.933   6.711   6.748 -0.3052  0.5512 -0.9488
10228SOL    HW231584   3.910   6.865   6.797  0.4896  0.2359  0.4686
10229SOL     OW31585   0.364   0.980   2.390 -0.2409 -0.0967  0.0962
10229SOL    HW131586   0.416   1.051   2.438  2.0972 -0.7229 -1.3229
10229SOL    HW231587   0.323   0.917   2.456  0.6943  0.5147  1.2934
10230SOL     OW31588   6.413   4.644   2.891  0.1040 -0.6977 -0.2299
10230SOL    HW131589   6.463   4.648   2.804  0.5417 -0.1324  0.0425
10230SOL    HW231590   6.341   4.576   2.884  0.6762 -1.2695 -0.7577
10231SOL     OW31591   0.062   3.666   1.007 -0.1861 -0.0900  0.5665
10231SOL    HW131592   0.132   3.598   0.984 -1.5773 -1.3919  0.0127
10231SOL    HW231593   0.067   3.686   1.105  0.7542 -0.3832  0.5899
10232SOL     OW31594   4.152   4.695   2.416 -0.1252  0.0340  0.3158
10232SOL    HW131595   4.230   4.667   2.360  0.5579  1.7392  0.3374
10232SOL    HW231596   4.176   4.687   2.512  0.2596  1.0863  0.3223
10233SOL     OW31597   3.171   2.949   5.159 -0.3356 -0.2624 -0.5370
10233SOL    HW131598   3.138   3.007   5.234 -0.1138 -1.4879  0.5410
10233SOL    HW231599   3.108   2.957   5.081 -1.0418  0.3835  0.0773
10234SOL     OW31600   6.751   0.967   2.744 -0.2964  0.2317  0.6651
10234SOL    HW131601   6.829   0.962   2.807 -1.1714 -0.4787  1.7242
10234SOL    HW231602   6.743   1.061   2.709  1.7329  0.0468 -0.4083
10235SOL     OW31603   2.476   6.747   0.993  0.2378  0.0046 -0.7279
10235SOL    HW131604   2.426   6.685   1.052  0.1769  1.7015  1.1113
10235SOL    HW231605   2.434   6.838   0.996  2.2491  1.0058 -0.6182
10236SOL     OW31606   6.667   1.648   3.231 -0.0644 -0.1182 -0.2953
10236SOL    HW131607   6.618   1.631   3.145 -0.5875  1.5447 -0.3676
10236SOL    HW231608   6.765   1.635   3.216 -0.1232  0.3904 -1.2263
10237SOL     OW31609   1.536   4.144   5.647 -0.3019  0.2324 -0.0998
10237SOL    HW131610   1.568   4.221   5.591  1.6134 -1.2519 -1.1862
10237SOL    HW231611   1.564   4.059   5.604  0.3624 -1.0331  2.6321
10238SOL     OW31612   0.431   0.276   6.662  0.3118  0.6328 -0.5680
10238SOL    HW131613   0.504   0.318   6.716  0.0127 -0.6256  0.8624
10238SOL    HW231614   0.342   0.298   6.702  0.1546 -1.5480  0.4472
10239SOL     OW31615   6.511   1.926   5.196  0.3679  0.2661  0.3735
10239SOL    HW131616   6.519   1.838   5.243 -1.0115  0.1487  0.4162
10239SOL    HW231617   6.564   1.995   5.247  0.5463 -0.2943  0.9675
10240SOL     OW31618   1.035   2.158   1.445  0.4280 -0.1611 -0.3377
10240SOL    HW131619   1.077   2.082   1.496 -0.6031 -2.0695 -2.2010
10240SOL    HW231620   0.942   2.173   1.478  0.5354  0.1537 -0.1629
10241SOL     OW31621   5.449   3.016   2.118  0.3843  0.4785 -0.1847
10241SOL    HW131622   5.380   3.088   2.104 -0.2305 -0.1684 -0.5636
10241SOL    HW231623   5.497   2.999   2.032 -1.6669 -1.7450 -1.0293
10242SOL     OW31624   2.156   5.259   1.437 -0.6760  0.5576 -0.7551
10242SOL    HW131625   2.188   5.172   1.474  0.6422  1.2954 -0.0956
10242SOL    HW231626   2.129   5.246   1.342  1.9815 -0.0833 -1.5110
10243SOL     OW31627   1.945   5.088   0.256 -0.2514 -0.5340 -0.0116
10243SOL    HW131628   1.912   4.996   0.234 -1.1970  0.0788 -1.2518
10243SOL    HW231629   1.886   5.129   0.325 -1.3737  0.0661 -1.2834
10244SOL     OW31630   3.106   4.508   1.243  0.0004  0.3777  0.1571
10244SOL    HW131631   3.204   4.498   1.262  0.0530  0.7725  0.1028
10244SOL    HW231632   3.090   4.499   1.145  0.0051  0.5067  0.1452
10245SOL     OW31633   5.989   4.266   2.651  0.2956  0.1335 -0.0857
10245SOL    HW131634   6.068   4.327   2.640  0.7842 -0.7237 -1.6648
10245SOL    HW231635   6.018   4.183   2.699  0.1090  0.2434  0.2212
10246SOL     OW31636   3.769   3.086   4.065  0.3528  0.0238  0.1473
10246SOL    HW131637   3.810   3.054   4.150 -0.9712 -0.4495  0.6333
10246SOL    HW231638   3.689   3.142   4.085  0.1914  0.1554 -0.7848
10247SOL     OW31639   6.905   4.388   5.052 -0.4850  0.6858  0.8578
10247SOL    HW131640   6.874   4.464   5.110 -0.4780  0.8624  0.6345
10247SOL    HW231641   6.826   4.351   5.002 -0.1771  1.9361 -0.6488
10248SOL     OW31642   1.072   1.598   4.503  0.1339 -0.3466 -0.0850
10248SOL    HW131643   1.135   1.575   4.429 -0.5951  0.1102 -0.8654
10248SOL    HW231644   1.023   1.682   4.480  0.6224  0.3789  1.3762
10249SOL     OW31645   1.298   5.271   6.541  0.0254  0.2618 -0.1619
10249SOL    HW131646   1.323   5.199   6.477  1.3677  0.7062 -0.1785
10249SOL    HW231647   1.335   5.249   6.632  0.2168  0.7840 -0.1075
10250SOL     OW31648   4.057   4.840   6.992  0.7625  0.4003 -0.3703
10250SOL    HW131649   3.961   4.864   6.974  0.4923  1.3725  1.9803
10250SOL    HW231650   4.117   4.903   6.943  0.2352 -0.3199 -1.9948
10251SOL     OW31651   3.314   0.896   3.802 -0.6052  0.1109  0.0153
10251SOL    HW131652   3.237   0.918   3.861 -0.6908 -0.5466  0.1495
10251SOL    HW231653   3.397   0.884   3.857 -1.0586 -2.3841  0.2379
10252SOL     OW31654   5.110   4.778   4.008 -0.2382  0.0866 -0.5756
10252SOL    HW131655   5.082   4.773   3.913  0.9229  1.6192 -1.0485
10252SOL    HW231656   5.069   4.858   4.051 -0.3927 -0.3404  0.0927
10253SOL     OW31657   3.398   6.959   0.670  0.3485 -0.5873 -0.3231
10253SOL    HW131658   3.451   6.926   0.592 -1.1435 -2.0319 -0.7869
10253SOL    HW231659   3.365   6.880   0.723 -0.9066  0.2771  0.2202
10254SOL     OW31660   5.723   3.776   0.163 -0.4256  0.5142  0.8539
10254SOL    HW131661   5.689   3.682   0.168  0.6955  0.1311  1.5924
10254SOL    HW231662   5.645   3.840   0.164 -1.1551 -0.2895  3.3764
10255SOL     OW31663   4.202   4.744   1.615  0.5514  0.4277  0.1459
10255SOL    HW131664   4.148   4.772   1.535  1.3218  0.2191 -0.4657
10255SOL    HW231665   4.157   4.668   1.661  0.0071  0.6659  0.0214
10256SOL     OW31666   3.661   1.831   4.744 -0.3929 -0.6697  0.1374
10256SOL    HW131667   3.670   1.869   4.652 -1.1847  0.0464  0.3342
10256SOL    HW231668   3.747   1.788   4.772 -0.4024 -1.6289 -1.2438
10257SOL     OW31669   1.834   6.350   1.610  0.0578  0.3022  0.3602
10257SOL    HW131670   1.735   6.347   1.594 -0.1933  0.9827  1.6501
10257SOL    HW231671   1.855   6.422   1.675  1.2852 -0.5793  0.9792
10258SOL     OW31672   3.931   2.177   1.902  0.2145 -0.1878 -0.6184
10258SOL    HW131673   3.847   2.191   1.955  0.6122 -2.2583  0.6711
10258SOL    HW231674   3.958   2.081   1.907  2.6999  0.4236 -0.9373
10259SOL     OW31675   2.498   5.424   2.416 -0.5239  0.4467 -0.7320
10259SOL    HW131676   2.497   5.518   2.382  0.2101  1.3111  1.4973
10259SOL    HW231677   2.467   5.423   2.511  3.0575 -0.9789  0.5614
10260SOL     OW31678   1.670   0.946   3.681 -0.2479 -0.3352  0.4059
10260SOL    HW131679   1.592   0.929   3.621 -0.5352  0.8569  0.4104
10260SOL    HW231680   1.695   1.043   3.676  1.0788 -0.6497  0.5953
10261SOL     OW31681   5.877   4.058   6.566 -0.2069  0.2855 -0.3051
10261SOL    HW131682   5.957   4.112   6.543 -0.9087  1.5164  0.0743
10261SOL    HW231683   5.890   4.014   6.655  0.1840  0.2050 -0.4035
10262SOL     OW31684   4.280   0.925   0.892  0.0239  0.3590  0.7102
10262SOL    HW131685   4.225   0.962   0.967 -0.6472  2.1954 -0.6221
10262SOL    HW231686   4.341   0.996   0.857  0.1965 -0.4072 -0.5958
10263SOL     OW31687   6.183   6.336   3.255  0.3499 -0.0595  0.0839
10263SOL    HW131688   6.125   6.282   3.194  0.6854 -0.6479  0.2746
10263SOL    HW231689   6.126   6.394   3.313  0.0380  0.9208 -1.1417
10264SOL     OW31690   6.092   0.551   0.305 -0.7745 -0.0403  0.8207
10264SOL    HW131691   6.125   0.457   0.309 -0.0039  0.2178  0.7761
10264SOL    HW231692   6.138   0.605   0.376  1.0165  0.9621 -1.0039
10265SOL     OW31693   1.505   1.688   2.660  0.2896  0.0905 -0.4068
10265SOL    HW131694   1.515   1.660   2.756  2.3433  0.6339 -0.4210
10265SOL    HW231695   1.584   1.743   2.633  0.7885 -1.7235 -3.0084
10266SOL     OW31696   1.905   5.818   1.438 -0.4174  0.5091 -0.3207
10266SOL    HW131697   1.862   5.903   1.470  0.9227  1.3322 -0.6488
10266SOL    HW231698   1.947   5.771   1.515  0.6255  1.2108 -0.4442
10267SOL     OW31699   5.860   3.086   0.837 -0.5258  0.0423  0.5204
10267SOL    HW131700   5.889   3.144   0.913  0.7240  0.4166 -0.2184
10267SOL    HW231701   5.866   3.137   0.751  3.1988 -1.7902 -0.5380
10268SOL     OW31702   3.395   5.443   2.464 -0.8181  0.1284 -0.2119
10268SOL    HW131703   3.495   5.447   2.469 -0.7016 -1.3772 -0.8719
10268SOL    HW231704   3.356   5.515   2.522  0.6362 -0.1818  1.2402
10269SOL     OW31705   2.638   0.061   5.367  0.6350 -0.0011 -0.2685
10269SOL    HW131706   2.583   0.141   5.391  0.6219  0.1833 -0.8895
10269SOL    HW231707   2.578  -0.019   5.360  0.0043  0.6050 -3.1294
10270SOL     OW31708   3.194   1.873   3.334  0.2193 -0.5801  0.1948
10270SOL    HW131709   3.201   1.969   3.307 -1.4004 -0.4217  0.2338
10270SOL    HW231710   3.261   1.853   3.405  0.4857  0.5617  0.2802
10271SOL     OW31711   2.526   2.441   2.416  0.0384  0.2268  0.0629
10271SOL    HW131712   2.481   2.457   2.328  0.6039  1.4816 -0.0093
10271SOL    HW231713   2.623   2.421   2.401  0.3186  1.2440  0.4357
10272SOL     OW31714   6.036   5.907   5.161  0.1531 -0.1983 -0.5135
10272SOL    HW131715   5.975   5.893   5.239  3.4626  0.2387  2.3631
10272SOL    HW231716   6.113   5.844   5.166  1.7899  1.5466 -1.9662
10273SOL     OW31717   3.894   5.150   2.774  0.5798  0.5017  0.5437
10273SOL    HW131718   3.989   5.120   2.758  0.9191  0.9083  1.7304
10273SOL    HW231719   3.894   5.231   2.832 -0.4752  0.9978 -0.1274
10274SOL     OW31720   1.639   1.845   5.665  0.1915  0.7242 -0.2878
10274SOL    HW131721   1.688   1.825   5.580 -1.1971 -1.0766 -0.7113
10274SOL    HW231722   1.705   1.853   5.740  1.3522  1.3109 -1.3400
10275SOL     OW31723   2.485   0.087   2.807 -0.0379 -0.0466  0.6572
10275SOL    HW131724   2.432   0.172   2.808  2.1441  1.3835  0.6421
10275SOL    HW231725   2.504   0.062   2.712 -1.0099 -0.7962  0.6491
10276SOL     OW31726   4.083   5.019   4.412  0.5846  0.5702  0.3173
10276SOL    HW131727   4.182   5.005   4.416  0.3014 -1.9919  0.0768
10276SOL    HW231728   4.051   5.049   4.502  1.5469  1.3546  0.4210
10277SOL     OW31729   0.195   6.951   2.538  0.0300  0.2413 -0.3980
10277SOL    HW131730   0.100   6.947   2.507 -0.4241 -0.9484  0.9915
10277SOL    HW231731   0.199   6.928   2.635  1.6519  1.2179 -0.2031
10278SOL     OW31732   6.233   0.380   2.882 -0.0327  0.4052 -0.4252
10278SOL    HW131733   6.232   0.319   2.961  2.7460 -0.0899 -0.6781
10278SOL    HW231734   6.172   0.457   2.899  1.6733  1.1990  2.9417
10279SOL     OW31735   0.847   0.559   6.209  0.2067  0.4530  0.2721
10279SOL    HW131736   0.760   0.600   6.181 -0.2390  1.6570  3.0618
10279SOL    HW231737   0.898   0.625   6.265  0.5506 -1.9368  2.9969
10280SOL     OW31738   5.752   5.304   0.594 -0.0519  0.5839 -0.4080
10280SOL    HW131739   5.658   5.277   0.614  0.0305 -0.1330 -0.9646
10280SOL    HW231740   5.772   5.287   0.497  0.7870  0.2908 -0.1922
10281SOL     OW31741   6.335   0.915   3.926 -0.5964 -0.7123  0.0132
10281SOL    HW131742   6.412   0.900   3.865 -0.2035  0.7617  0.1084
10281SOL    HW231743   6.250   0.891   3.879 -0.1645 -1.4322 -0.4208
10282SOL     OW31744   0.077   0.830   4.503 -0.0969 -0.3248  0.3742
10282SOL    HW131745   0.061   0.862   4.410  1.2420 -0.5236  0.0586
10282SOL    HW231746   0.078   0.908   4.566  0.4528 -0.0353  0.0089
10283SOL     OW31747   0.933   3.372   1.180  0.5174 -0.1801  0.7343
10283SOL    HW131748   0.908   3.435   1.106  0.8170  0.0853  0.8565
10283SOL    HW231749   0.967   3.287   1.141 -1.0530 -0.7597  0.5567
10284SOL     OW31750   1.070   3.734   5.188  0.3383 -0.0386  0.2141
10284SOL    HW131751   0.996   3.747   5.254 -0.7076  0.3166 -0.9946
10284SOL    HW231752   1.033   3.729   5.096  1.8476  0.4761 -0.4669
10285SOL     OW31753   0.370   5.750   5.447 -0.0962  0.5566  0.5147
10285SOL    HW131754   0.435   5.675   5.433 -2.3784 -1.2488 -1.3640
10285SOL    HW231755   0.399   5.830   5.395  0.7158 -0.1593 -0.1542
10286SOL     OW31756   2.656   0.320   0.614  0.2095 -0.1680  0.1774
10286SOL    HW131757   2.594   0.282   0.546 -1.4444  0.5174  1.2540
10286SOL    HW231758   2.718   0.385   0.571  0.0505 -0.6931 -0.8753
10287SOL     OW31759   0.724   5.448   2.705  0.2436 -0.2234  0.3708
10287SOL    HW131760   0.712   5.353   2.731  1.7297 -0.6276 -0.3092
10287SOL    HW231761   0.716   5.506   2.787 -1.8019 -0.7726  0.6169
10288SOL     OW31762   4.051   6.817   4.959  0.4655 -0.2739  0.1328
10288SOL    HW131763   4.084   6.878   4.887 -0.9611 -0.5198 -0.7657
10288SOL    HW231764   3.978   6.861   5.010 -0.6573 -1.2249 -0.5962
10289SOL     OW31765   3.608   6.867   0.508 -0.3075  0.4588  0.0903
10289SOL    HW131766   3.641   6.938   0.446  0.8816 -1.0662 -1.1091
10289SOL    HW231767   3.579   6.788   0.455 -1.8423  0.1118  1.3848
10290SOL     OW31768   3.027   3.780   1.874  0.3058  0.0191 -0.6060
10290SOL    HW131769   2.994   3.686   1.872  2.5713 -0.8224 -1.1240
10290SOL    HW231770   3.079   3.796   1.957  1.3360  0.2641 -1.2705
10291SOL     OW31771   3.394   2.059   1.894  0.4024 -0.3233  0.8077
10291SOL    HW131772   3.302   2.084   1.925  0.0313 -2.6098  1.7753
10291SOL    HW231773   3.454   2.138   1.900 -1.1142  0.8185  1.7117
10292SOL     OW31774   0.343   0.892   6.901  0.2316  0.3216  0.5782
10292SOL    HW131775   0.351   0.984   6.864 -0.1282  0.7787  1.6010
10292SOL    HW231776   0.285   0.837   6.840  0.8634  0.6118 -0.2991
10293SOL     OW31777   1.260   3.910   0.344 -0.3012  0.1947  0.0626
10293SOL    HW131778   1.214   3.903   0.432 -0.6027  1.5799  0.0277
10293SOL    HW231779   1.238   3.830   0.288  1.0858 -1.4674  1.7673
10294SOL     OW31780   1.442   0.733   1.592  1.2478 -0.0294  0.7160
10294SOL    HW131781   1.437   0.678   1.676  1.6694  0.8921  1.3699
10294SOL    HW231782   1.368   0.800   1.592 -1.4883 -2.7811 -1.7657
10295SOL     OW31783   2.405   1.281   1.954 -0.7371  0.0942  0.6561
10295SOL    HW131784   2.365   1.370   1.934  0.9534  0.9059  0.6815
10295SOL    HW231785   2.401   1.264   2.053 -1.3151  0.0104  0.6198
10296SOL     OW31786   0.890   4.650   4.483 -0.2019 -0.2001  0.2619
10296SOL    HW131787   0.876   4.632   4.386 -2.2202 -3.1518  0.9447
10296SOL    HW231788   0.805   4.686   4.523  0.0999 -0.4903  1.1895
10297SOL     OW31789   5.111   6.355   1.251  0.1791  0.1195 -0.0101
10297SOL    HW131790   5.055   6.277   1.224 -0.4588  1.3499 -2.5550
10297SOL    HW231791   5.206   6.337   1.226  0.1633 -0.1531  0.1179
10298SOL     OW31792   2.720   1.228   1.569  0.1134 -0.1654  0.7460
10298SOL    HW131793   2.765   1.157   1.623 -0.8203 -1.6576 -0.3752
10298SOL    HW231794   2.645   1.267   1.623 -0.1964 -0.9562  0.9038
10299SOL     OW31795   6.442   6.078   3.619 -0.2344 -0.6370  0.2530
10299SOL    HW131796   6.438   6.078   3.520  2.0370 -0.5400  0.1063
10299SOL    HW231797   6.350   6.067   3.657 -1.2509  0.2666 -1.8267
10300SOL     OW31798   2.372   5.380   2.099 -0.0234 -0.5460  0.4729
10300SOL    HW131799   2.280   5.394   2.062  0.0324 -1.3443  0.0175
10300SOL    HW231800   2.427   5.461   2.081 -0.1868 -0.6711 -0.6390
10301SOL     OW31801   5.024   6.379   1.513  0.2934 -0.9756 -0.2334
10301SOL    HW131802   5.093   6.378   1.442 -0.0650 -1.7163 -0.5857
10301SOL    HW231803   4.959   6.453   1.496  1.5397  0.3692  0.6561
10302SOL     OW31804   4.206   4.841   6.397  0.2300  0.5135 -0.5775
10302SOL    HW131805   4.127   4.849   6.336  0.3235  2.8143 -0.4727
10302SOL    HW231806   4.273   4.779   6.356 -1.4093 -1.1752 -0.8503
10303SOL     OW31807   0.491   3.593   5.450 -0.0226 -0.4232  0.4192
10303SOL    HW131808   0.418   3.660   5.437  0.1341  0.1955  2.4069
10303SOL    HW231809   0.522   3.560   5.361  0.3797  2.6515 -0.7066
10304SOL     OW31810   4.667   4.415   1.193  0.3257 -0.1475  0.3394
10304SOL    HW131811   4.588   4.395   1.135  0.7752 -2.0010  0.2977
10304SOL    HW231812   4.749   4.420   1.136  0.5693 -0.5644  0.6519
10305SOL     OW31813   1.002   1.786   5.161 -0.7735 -0.1936  0.1880
10305SOL    HW131814   1.043   1.778   5.070 -0.2121  1.4450  0.2651
10305SOL    HW231815   1.026   1.706   5.216  1.1828  0.0459 -0.2398
10306SOL     OW31816   2.904   6.396   1.639  0.4511 -0.3060 -0.1145
10306SOL    HW131817   2.813   6.435   1.628 -0.5187 -2.2276  0.6788
10306SOL    HW231818   2.922   6.381   1.736  1.3445 -0.5597 -0.3084
10307SOL     OW31819   1.475   6.739   6.763 -0.2850 -0.0986  0.1910
10307SOL    HW131820   1.543   6.724   6.692 -0.3413 -0.8344  0.2905
10307SOL    HW231821   1.431   6.828   6.749  1.3615  0.8351  0.6684
10308SOL     OW31822   3.423   6.251   1.032  0.1333  0.0721 -0.1407
10308SOL    HW131823   3.497   6.316   1.051  0.4610 -0.6754  1.3104
10308SOL    HW231824   3.344   6.274   1.088 -0.1203 -0.1718 -0.3973
10309SOL     OW31825   6.266   1.587   5.288 -0.5440  0.0935  0.6623
10309SOL    HW131826   6.303   1.518   5.350  0.5837  0.6601  0.6260
10309SOL    HW231827   6.195   1.639   5.334 -0.1571  0.0883  1.2626
10310SOL     OW31828   1.265   6.106   0.188 -0.3578  0.6105 -0.5986
10310SOL    HW131829   1.247   6.037   0.117  0.1378  0.3093 -0.4369
10310SOL    HW231830   1.336   6.169   0.157  2.4145 -1.5489  0.8882
10311SOL     OW31831   3.550   5.500   6.411 -0.3685 -0.1795  0.2491
10311SOL    HW131832   3.454   5.524   6.418 -0.3133  0.5644 -1.2401
10311SOL    HW231833   3.559   5.412   6.363 -0.2618  0.3860 -0.7841
10312SOL     OW31834   2.278   6.376   1.632  0.7284 -0.0049 -0.0287
10312SOL    HW131835   2.335   6.320   1.692  1.6793  0.6383 -0.2927
10312SOL    HW231836   2.325   6.462   1.613  0.0272  0.1961 -0.9408
10313SOL     OW31837   4.086   6.240   3.592 -0.0816 -0.2752  1.0198
10313SOL    HW131838   4.169   6.276   3.635 -0.3606  1.3469  0.2904
10313SOL    HW231839   4.010   6.246   3.657 -0.5484  2.3649  0.3838
10314SOL     OW31840   4.978   6.527   6.813  0.3890 -0.0429  1.1775
10314SOL    HW131841   4.894   6.555   6.859 -0.6196 -0.4003 -0.3573
10314SOL    HW231842   5.011   6.603   6.756  1.1429  0.1064  1.7947
10315SOL     OW31843   5.100   5.933   4.225 -0.2210  0.7539  0.0775
10315SOL    HW131844   5.127   6.030   4.228 -1.6678  1.2307 -1.2097
10315SOL    HW231845   5.153   5.882   4.293  1.4587  2.2107 -0.0612
10316SOL     OW31846   2.022   0.919   2.961  0.2958  0.1983 -0.0214
10316SOL    HW131847   1.960   0.975   3.016  0.6978 -0.2615  0.9150
10316SOL    HW231848   2.023   0.825   2.997  1.3429  0.1379 -0.1854
10317SOL     OW31849   5.835   5.944   4.297 -0.0389 -0.2323  0.4819
10317SOL    HW131850   5.825   6.011   4.224  0.0622 -1.9153 -1.1390
10317SOL    HW231851   5.748   5.932   4.345 -0.3710  0.1660 -0.0197
10318SOL     OW31852   5.433   6.200   6.030 -0.2797  0.2776 -0.2627
10318SOL    HW131853   5.399   6.294   6.039 -0.2566  0.3391 -0.7816
10318SOL    HW231854   5.377   6.139   6.086 -1.1705  0.4034 -0.9946
10319SOL     OW31855   1.366   3.608   3.555  0.2668 -0.5133  0.4503
10319SOL    HW131856   1.429   3.577   3.484 -0.1977 -0.2669 -0.0745
10319SOL    HW231857   1.417   3.660   3.624  0.5418  0.2540 -0.3107
10320SOL     OW31858   2.024   6.945   4.501 -0.2126  0.4195 -0.1960
10320SOL    HW131859   1.965   6.892   4.441 -0.9159 -0.2437  1.0593
10320SOL    HW231860   2.060   7.024   4.450 -1.7305  0.5456 -1.1305
10321SOL     OW31861   5.743   2.842   3.220  0.0199  0.3605  0.3348
10321SOL    HW131862   5.786   2.800   3.140 -1.2597 -0.0448 -0.1617
10321SOL    HW231863   5.761   2.784   3.301  1.0930  0.6381  0.3109
10322SOL     OW31864   4.343   4.652   4.169  0.0117 -0.0220  0.2805
10322SOL    HW131865   4.255   4.692   4.144 -0.0401 -0.0586  0.4064
10322SOL    HW231866   4.400   4.720   4.214 -0.0804 -0.0916  0.5041
10323SOL     OW31867   2.514   6.042   4.087 -0.6943 -0.5596 -0.0193
10323SOL    HW131868   2.466   6.118   4.043  1.4517  0.6281 -0.4283
10323SOL    HW231869   2.602   6.028   4.042  0.4234 -1.0630  2.2263
10324SOL     OW31870   1.913   4.902   2.059 -0.0024 -0.0635 -0.2559
10324SOL    HW131871   1.932   4.939   2.150  1.4387  1.2648 -1.0369
10324SOL    HW231872   1.995   4.855   2.025 -0.0482  0.6234 -1.3821
10325SOL     OW31873   1.375   6.393   5.938 -0.5246 -0.2352  0.1071
10325SOL    HW131874   1.384   6.333   5.859  0.4368  0.0902 -0.0431
10325SOL    HW231875   1.454   6.381   5.998 -0.0310  1.2845 -0.2052
10326SOL     OW31876   6.990   4.406   0.823 -0.0573 -0.4708  0.4807
10326SOL    HW131877   6.907   4.366   0.786  1.5911 -2.3237 -1.4887
10326SOL    HW231878   7.062   4.405   0.754  1.3637  2.0950  1.7286
10327SOL     OW31879   6.680   5.157   6.016 -0.2375  0.1536  0.0926
10327SOL    HW131880   6.715   5.157   5.922 -1.7938  0.2291 -0.5147
10327SOL    HW231881   6.711   5.240   6.063  0.8177 -0.0407 -0.2254
10328SOL     OW31882   5.361   2.487   4.616 -0.7247  0.4137  0.2205
10328SOL    HW131883   5.286   2.426   4.640  0.7540 -1.4680  0.3461
10328SOL    HW231884   5.383   2.476   4.519 -0.4454  0.7440  0.2442
10329SOL     OW31885   4.464   1.955   2.925  0.5461  0.0705  0.5649
10329SOL    HW131886   4.366   1.936   2.930  0.6385 -0.0380  3.5420
10329SOL    HW231887   4.483   2.046   2.961  1.4458  0.6738 -1.3124
10330SOL     OW31888   3.454   5.957   0.860  0.1424  0.3861  0.4047
10330SOL    HW131889   3.426   6.046   0.894 -2.7025 -0.2891  0.0779
10330SOL    HW231890   3.517   5.968   0.784  2.1625  1.9990  2.1948
10331SOL     OW31891   4.522   3.849   6.326 -0.5249  0.6602 -0.1009
10331SOL    HW131892   4.485   3.909   6.397 -1.5066  0.3932 -0.3717
10331SOL    HW231893   4.448   3.823   6.263  0.0226 -0.3258 -0.3472
10332SOL     OW31894   2.173   2.494   0.606  0.1286 -0.3668  0.0833
10332SOL    HW131895   2.257   2.548   0.609 -1.0273  1.5422 -0.2208
10332SOL    HW231896   2.098   2.550   0.569 -1.4050 -1.8480  0.7801
10333SOL     OW31897   2.597   4.660   3.101  0.2374  0.3591 -0.1302
10333SOL    HW131898   2.621   4.631   3.194  1.5846  0.5188 -0.4151
10333SOL    HW231899   2.536   4.593   3.060  0.4468 -0.2281  0.4989
10334SOL     OW31900   5.255   2.686   3.706 -0.2589 -0.2371  0.2317
10334SOL    HW131901   5.205   2.722   3.627 -1.8700  0.3224  1.4471
10334SOL    HW231902   5.198   2.619   3.754  1.0286 -1.2138  0.4567
10335SOL     OW31903   2.086   3.512   3.664 -0.1262  0.3416  0.3882
10335SOL    HW131904   2.115   3.438   3.603 -1.9277 -0.3613  0.3139
10335SOL    HW231905   2.080   3.597   3.612 -2.4910 -0.4210 -0.7107
10336SOL     OW31906   6.769   5.855   3.602  0.8094  0.1935 -0.1846
10336SOL    HW131907   6.798   5.950   3.588 -1.6838  0.7343 -2.4961
10336SOL    HW231908   6.743   5.815   3.514 -0.2099 -1.9233  1.0134
10337SOL     OW31909   5.436   6.467   6.904 -0.4550 -0.4904  0.0125
10337SOL    HW131910   5.484   6.396   6.852 -0.5471  0.0227 -0.7934
10337SOL    HW231911   5.360   6.427   6.954 -0.7040 -0.9159 -0.6980
10338SOL     OW31912   1.101   5.519   2.152  0.8842 -0.6729  0.5436
10338SOL    HW131913   1.138   5.612   2.148  2.3153 -1.2636 -0.6598
10338SOL    HW231914   1.002   5.523   2.146  0.7514  0.8772  2.4520
10339SOL     OW31915   3.693   2.336   5.351 -0.2896  0.2238 -0.0342
10339SOL    HW131916   3.705   2.258   5.413 -0.9916  1.5854  1.9163
10339SOL    HW231917   3.595   2.358   5.344  0.0376  2.5180  1.6066
10340SOL     OW31918   3.622   3.200   6.084 -0.2621 -0.1481  0.2675
10340SOL    HW131919   3.704   3.251   6.111 -0.1483 -0.2288  0.0758
10340SOL    HW231920   3.541   3.247   6.119 -0.1756  0.3163 -0.1396
10341SOL     OW31921   5.031   3.446   2.746  0.1968 -0.4899 -0.0903
10341SOL    HW131922   5.060   3.355   2.776  1.1773 -0.2701 -0.3291
10341SOL    HW231923   5.101   3.513   2.771 -0.1894  0.0897 -0.5372
10342SOL     OW31924   5.843   0.850   4.229 -0.6623 -0.5473  0.6408
10342SOL    HW131925   5.933   0.812   4.209 -1.7258 -3.5497  0.9165
10342SOL    HW231926   5.841   0.884   4.323  1.2982  3.6708 -0.6305
10343SOL     OW31927   5.626   5.944   1.970  0.0133 -0.2361  0.2097
10343SOL    HW131928   5.617   6.031   1.921 -2.6288 -0.7751 -0.4465
10343SOL    HW231929   5.580   5.950   2.059  2.0343 -0.2383  1.3100
10344SOL     OW31930   4.555   0.469   6.357  0.0609  0.2452  0.5121
10344SOL    HW131931   4.469   0.447   6.404 -0.4128  2.3975  0.7430
10344SOL    HW231932   4.542   0.548   6.298  1.4970 -0.4002 -0.7377
10345SOL     OW31933   0.782   3.398   4.493 -0.3235 -0.1222  0.5265
10345SOL    HW131934   0.740   3.314   4.527 -1.7291  1.1344  2.0545
10345SOL    HW231935   0.758   3.412   4.397 -1.3748 -0.6774  0.6998
10346SOL     OW31936   1.046   6.275   6.602  0.4468  0.4995 -0.2616
10346SOL    HW131937   0.950   6.302   6.603  0.7086  1.5001 -0.8706
10346SOL    HW231938   1.100   6.344   6.552  1.3965 -0.3107 -0.3881
10347SOL     OW31939   5.715   4.174   4.732 -0.1157  0.2684 -0.1284
10347SOL    HW131940   5.753   4.231   4.659  1.5413 -0.2524  0.2927
10347SOL    HW231941   5.635   4.220   4.771 -0.4322  1.0255 -1.5717
10348SOL     OW31942   0.398   4.866   1.417 -0.2975 -0.0595  0.2070
10348SOL    HW131943   0.382   4.870   1.516 -2.1920 -0.6769 -0.0369
10348SOL    HW231944   0.460   4.939   1.391 -0.5796  0.7677  1.7082
10349SOL     OW31945   6.328   2.391   6.195 -0.1051 -0.0771  0.5645
10349SOL    HW131946   6.344   2.402   6.293  0.1331 -0.7750  0.6089
10349SOL    HW231947   6.395   2.445   6.144 -1.4970  1.9570  0.7739
10350SOL     OW31948   4.065   0.320   1.301  0.0817 -0.3397  0.0282
10350SOL    HW131949   4.026   0.362   1.383 -0.3589  0.3183 -0.5039
10350SOL    HW231950   4.041   0.376   1.221  0.9511 -0.6890 -0.4823
10351SOL     OW31951   2.744   0.171   6.463 -0.1626 -0.2746 -0.1919
10351SOL    HW131952   2.815   0.241   6.470 -0.3223 -0.0034 -1.0622
10351SOL    HW231953   2.783   0.081   6.485  0.3033 -0.0464 -0.0790
10352SOL     OW31954   4.287   6.185   6.496  0.0989 -0.0419  0.7639
10352SOL    HW131955   4.347   6.111   6.465 -0.5860 -0.2422 -0.1237
10352SOL    HW231956   4.230   6.217   6.420  0.0358  1.0726  1.2559
10353SOL     OW31957   1.990   2.175   4.849 -0.4262 -0.2345  0.1262
10353SOL    HW131958   2.068   2.212   4.899  1.5493 -2.1206 -1.3717
10353SOL    HW231959   2.000   2.196   4.752 -1.6957 -0.7220 -0.1311
10354SOL     OW31960   4.238   1.294   1.554  0.2968 -0.7891 -0.5457
10354SOL    HW131961   4.330   1.255   1.546  0.3899 -0.6148 -0.3130
10354SOL    HW231962   4.171   1.220   1.555  0.4602 -0.9359 -0.3263
10355SOL     OW31963   0.681   6.514   2.459  0.5778  0.1216 -0.0716
10355SOL    HW131964   0.777   6.529   2.435  0.4245  0.2957 -0.5817
10355SOL    HW231965   0.648   6.589   2.516  0.0129  1.4130 -2.0240
10356SOL     OW31966   6.357   2.395   2.548  0.3874  0.3135  0.2918
10356SOL    HW131967   6.413   2.391   2.631  0.5049  1.4865  0.2818
10356SOL    HW231968   6.291   2.469   2.556 -0.0207  0.0368 -0.4138
10357SOL     OW31969   2.787   4.131   6.401  0.2641 -0.1164 -0.4072
10357SOL    HW131970   2.736   4.078   6.333  1.8397 -0.6418 -1.2230
10357SOL    HW231971   2.734   4.212   6.427 -0.3603  0.1285 -2.3086
10358SOL     OW31972   0.813   6.508   2.135  0.0145  0.5259 -0.3038
10358SOL    HW131973   0.813   6.416   2.175 -0.0183  0.8985  0.5735
10358SOL    HW231974   0.760   6.507   2.050 -2.7771  0.3759  1.2997
10359SOL     OW31975   1.844   2.646   6.986 -0.2105  0.6269 -0.4839
10359SOL    HW131976   1.804   2.707   6.917 -1.9242 -0.4533 -0.5067
10359SOL    HW231977   1.923   2.599   6.947 -2.8115 -2.1793 -2.9090
10360SOL     OW31978   0.524   2.922   3.048  0.1047 -0.1121  0.2873
10360SOL    HW131979   0.601   2.873   3.006  0.4824  0.1431  0.6704
10360SOL    HW231980   0.546   3.020   3.052 -0.3139 -0.0149  0.2448
10361SOL     OW31981   1.336   4.171   6.178  0.0523  0.1070  0.3434
10361SOL    HW131982   1.406   4.242   6.175 -0.1377  0.2758 -1.8685
10361SOL    HW231983   1.271   4.185   6.103 -0.9133 -1.5039  0.8244
10362SOL     OW31984   5.855   4.239   3.687 -0.5920  0.1118 -0.4028
10362SOL    HW131985   5.768   4.244   3.637 -0.9579  0.6104  0.2716
10362SOL    HW231986   5.874   4.327   3.730  0.8327  0.3544 -1.4858
10363SOL     OW31987   4.638   6.585   3.724 -0.4510  0.1730  0.4653
10363SOL    HW131988   4.621   6.683   3.736 -0.6382  0.1308  0.5503
10363SOL    HW231989   4.686   6.550   3.805  1.4572  0.6071 -0.4211
10364SOL     OW31990   2.138   5.195   6.837  0.6144  0.6959 -0.3115
10364SOL    HW131991   2.181   5.135   6.769  0.3316 -1.0392  0.9588
10364SOL    HW231992   2.043   5.165   6.852  0.4207  1.5555  0.2700
10365SOL     OW31993   5.465   5.580   5.726 -1.1493  0.0297 -0.0024
10365SOL    HW131994   5.380   5.527   5.734 -1.4902  0.5139 -0.4149
10365SOL    HW231995   5.451   5.671   5.764 -1.1388  0.4776 -1.0517
10366SOL     OW31996   3.586   6.430   1.709  0.4385 -0.1468 -0.1402
10366SOL    HW131997   3.564   6.374   1.790 -0.1177  0.4458  0.1317
10366SOL    HW231998   3.661   6.492   1.731  0.7536 -0.4654 -0.3021
10367SOL     OW31999   0.496   0.804   4.187 -0.0262  0.0527  0.1369
10367SOL    HW132000   0.443   0.848   4.259  0.1268 -0.1980  0.4024
10367SOL    HW232001   0.435   0.748   4.131  0.2856 -2.1480  1.8707
10368SOL     OW32002   1.135   1.956   6.680 -0.0657 -0.0664  0.0621
10368SOL    HW132003   1.050   1.969   6.731 -0.5043 -0.0125 -0.6642
10368SOL    HW232004   1.192   2.037   6.689  0.2354 -0.3734  1.1282
10369SOL     OW32005   4.889   2.190   4.432 -0.3852  0.4892  0.2797
10369SOL    HW132006   4.903   2.264   4.366  1.4568 -0.3920 -0.3845
10369SOL    HW232007   4.903   2.102   4.387 -1.3439 -0.2331  1.3353
10370SOL     OW32008   2.114   6.749   5.449  0.1295  0.4482  0.4236
10370SOL    HW132009   2.178   6.675   5.427 -1.2203 -1.0681  1.3211
10370SOL    HW232010   2.115   6.766   5.548 -0.1980  1.0430  0.3301
10371SOL     OW32011   4.702   6.307   7.002  0.7706  0.3899 -0.5402
10371SOL    HW132012   4.749   6.394   6.984 -0.0817  0.8648 -0.5183
10371SOL    HW232013   4.749   6.234   6.952  2.5266  0.5499  0.7987
10372SOL     OW32014   5.598   0.531   4.264 -0.2758  0.2883  0.7820
10372SOL    HW132015   5.587   0.432   4.248 -1.5010  0.7870 -2.0811
10372SOL    HW232016   5.694   0.555   4.252  0.0566 -0.5384  1.6077
10373SOL     OW32017   2.148   5.700   4.655  0.3180  0.1712  0.5472
10373SOL    HW132018   2.115   5.611   4.688  0.0170  1.2160  3.2827
10373SOL    HW232019   2.227   5.729   4.708  2.2281  0.3517 -2.1674
10374SOL     OW32020   3.541   1.083   4.110 -0.3480 -0.1001  0.8490
10374SOL    HW132021   3.500   1.056   4.197 -0.7804  2.0339  1.3649
10374SOL    HW232022   3.565   1.180   4.113  1.2953 -0.3926 -0.7966
10375SOL     OW32023   6.382   1.875   6.402  0.3601  0.1453 -0.3249
10375SOL    HW132024   6.293   1.868   6.356  0.1313  0.2858  0.0862
10375SOL    HW232025   6.453   1.838   6.343  0.3406  1.8916 -1.5443
10376SOL     OW32026   6.743   0.926   3.208 -0.4400 -0.5569 -0.0734
10376SOL    HW132027   6.691   0.845   3.181 -1.9524 -0.0491  1.1569
10376SOL    HW232028   6.696   0.972   3.284  1.9239 -0.1476  1.2152
10377SOL     OW32029   5.710   5.561   4.315  0.4184 -0.5067  0.5129
10377SOL    HW132030   5.643   5.588   4.245  1.4180  1.7143  0.3218
10377SOL    HW232031   5.697   5.618   4.396  1.7638 -0.3655  0.6469
10378SOL     OW32032   5.070   5.541   6.871 -0.1995  0.1625  0.2660
10378SOL    HW132033   5.114   5.520   6.958 -2.0205  1.7346  1.6458
10378SOL    HW232034   4.986   5.592   6.887 -0.5393  0.6256 -2.4482
10379SOL     OW32035   4.618   0.570   4.996 -0.9034 -0.0667 -0.3758
10379SOL    HW132036   4.600   0.500   5.065 -2.5432 -0.1065 -0.8108
10379SOL    HW232037   4.574   0.545   4.910  0.9080  0.1012 -1.4061
10380SOL     OW32038   3.982   1.954   4.095 -0.0150  0.2011  0.3362
10380SOL    HW132039   4.024   1.865   4.113  1.4693  0.6578 -0.6960
10380SOL    HW232040   3.974   2.005   4.181  2.2744  0.3850  0.4999
10381SOL     OW32041   2.507   4.561   5.739  0.6112  0.3237  0.3710
10381SOL    HW132042   2.576   4.570   5.667  0.4044 -0.3162  0.0912
10381SOL    HW232043   2.525   4.479   5.794  0.0015  0.0813  0.2185
10382SOL     OW32044   0.869   3.525   0.174 -0.5490 -0.0601 -0.4305
10382SOL    HW132045   0.774   3.507   0.147 -0.3638 -0.5736 -0.7654
10382SOL    HW232046   0.901   3.451   0.233 -1.1717  1.3847  1.8659
10383SOL     OW32047   5.851   4.088   1.934 -0.8142 -0.1986  0.3269
10383SOL    HW132048   5.860   4.111   2.031 -1.5510  0.4923  0.2455
10383SOL    HW232049   5.785   4.013   1.923 -0.6552 -0.3440  0.3661
10384SOL     OW32050   4.948   2.350   0.828  0.4342  0.4217 -0.0454
10384SOL    HW132051   4.860   2.311   0.800  0.2238  0.2938  0.7724
10384SOL    HW232052   4.951   2.360   0.927  1.6661 -0.3471  0.0191
10385SOL     OW32053   6.543   2.348   5.887  0.3593 -0.3924  0.4140
10385SOL    HW132054   6.578   2.299   5.967  2.4998  1.2382  0.5456
10385SOL    HW232055   6.589   2.314   5.805  0.7476  0.3409  0.3229
10386SOL     OW32056   1.779   2.057   6.625  0.4316 -0.5364  0.1864
10386SOL    HW132057   1.862   2.009   6.594  0.2594 -1.6462  1.3399
10386SOL    HW232058   1.798   2.103   6.712  0.2286  0.4109 -0.2704
10387SOL     OW32059   2.014   4.032   2.619 -0.1918 -0.6416 -0.1330
10387SOL    HW132060   2.040   4.127   2.599  0.0499 -1.1336 -2.4963
10387SOL    HW232061   2.045   3.974   2.544 -1.1790 -2.4619  0.8260
10388SOL     OW32062   1.407   6.581   0.815 -0.4321 -0.3378  0.5110
10388SOL    HW132063   1.382   6.484   0.816  0.3788 -0.5557  0.4320
10388SOL    HW232064   1.327   6.636   0.792 -0.3805 -1.1674 -1.9412
10389SOL     OW32065   2.459   5.940   2.065 -0.5560  0.5577  0.5928
10389SOL    HW132066   2.496   5.968   1.976  1.0710 -1.7724  0.4416
10389SOL    HW232067   2.360   5.947   2.063 -0.5378  0.9531 -1.2641
10390SOL     OW32068   1.778   2.544   5.579  0.1014  0.1272  0.1365
10390SOL    HW132069   1.797   2.467   5.517  0.1763 -1.1497  1.6761
10390SOL    HW232070   1.856   2.606   5.581  0.7464 -0.6734  0.1440
10391SOL     OW32071   3.038   5.606   5.280  0.4143 -0.0435 -0.0257
10391SOL    HW132072   3.118   5.663   5.298 -0.6650  1.4876  0.1561
10391SOL    HW232073   3.011   5.617   5.184 -0.0525  0.0993  0.1195
10392SOL     OW32074   6.936   3.653   6.631  0.0133 -0.3887 -0.2965
10392SOL    HW132075   6.993   3.582   6.588  0.2487 -0.8977  0.8314
10392SOL    HW232076   6.873   3.690   6.562  0.2994 -1.2634 -1.0618
10393SOL     OW32077   6.665   2.275   6.135 -0.2027  0.3289  1.2544
10393SOL    HW132078   6.608   2.198   6.164 -0.1051 -0.8693 -1.4267
10393SOL    HW232079   6.756   2.265   6.173  0.1801 -1.6475 -0.0339
10394SOL     OW32080   4.313   6.013   6.706 -0.9731  0.2308  0.0365
10394SOL    HW132081   4.411   6.034   6.707 -1.3260  1.9239  1.3221
10394SOL    HW232082   4.266   6.078   6.647 -1.0790 -2.1570 -2.7675
10395SOL     OW32083   6.672   0.133   4.608 -0.6994 -0.0191 -0.0215
10395SOL    HW132084   6.733   0.169   4.678 -0.8878 -0.4321  0.3631
10395SOL    HW232085   6.608   0.205   4.579  0.1305  0.4906 -0.6206
10396SOL     OW32086   5.904   1.789   4.288 -0.7138 -0.1189  0.1541
10396SOL    HW132087   5.805   1.785   4.298 -0.5127 -2.1031  1.7737
10396SOL    HW232088   5.940   1.699   4.264  0.9198 -0.0156  1.9595
10397SOL     OW32089   4.755   2.494   3.572  0.5818 -0.0977  0.3733
10397SOL    HW132090   4.720   2.482   3.664  0.9660 -0.4225  0.4780
10397SOL    HW232091   4.683   2.530   3.513 -0.0556 -1.1897  0.4789
10398SOL     OW32092   6.905   0.806   3.368 -0.4176 -0.1271  0.3123
10398SOL    HW132093   6.990   0.800   3.316  0.5105 -0.7436  1.8379
10398SOL    HW232094   6.833   0.843   3.309  1.0902  1.2463 -0.7586
10399SOL     OW32095   0.019   4.540   4.864 -0.0513 -0.0487 -0.3542
10399SOL    HW132096  -0.037   4.478   4.920  1.5377 -2.5586 -1.3687
10399SOL    HW232097  -0.015   4.633   4.875 -2.4765 -1.0047  1.4146
10400SOL     OW32098   1.669   4.756   2.014  0.2000  0.6063  0.1559
10400SOL    HW132099   1.752   4.811   2.000  0.8852 -0.1467  1.0766
10400SOL    HW232100   1.627   4.780   2.101 -0.8616  1.3343 -0.5280
10401SOL     OW32101   1.405   6.989   0.023 -0.9052  0.8570  0.2434
10401SOL    HW132102   1.412   6.889   0.018  2.1601  0.9183  1.1766
10401SOL    HW232103   1.397   7.026  -0.070  0.4246 -0.1882 -0.3270
10402SOL     OW32104   6.034   2.084   6.089 -0.1026  0.1469 -0.3040
10402SOL    HW132105   6.077   2.087   5.999  1.2199 -1.4858  0.2458
10402SOL    HW232106   6.024   2.178   6.124 -2.3972  1.0096 -2.8976
10403SOL     OW32107   5.798   2.627   1.436  0.2339 -0.0693  0.3251
10403SOL    HW132108   5.723   2.610   1.499  1.2268 -0.0178  1.5583
10403SOL    HW232109   5.791   2.720   1.400 -0.6924 -0.3146 -0.1637
10404SOL     OW32110   5.699   1.540   5.663  0.1180 -0.3548  0.1478
10404SOL    HW132111   5.755   1.573   5.586 -0.1475 -1.3578 -0.4960
10404SOL    HW232112   5.744   1.564   5.749  0.1371  1.3094 -0.2858
10405SOL     OW32113   2.611   0.181   4.544 -0.4070  0.3960 -0.4038
10405SOL    HW132114   2.570   0.121   4.612 -0.0716 -0.6582 -1.1093
10405SOL    HW232115   2.567   0.167   4.456  0.7955 -0.0687 -0.9547
10406SOL     OW32116   1.996   1.399   3.376  0.1253 -0.3556 -0.7037
10406SOL    HW132117   1.938   1.435   3.303 -0.4139 -2.1745 -1.2125
10406SOL    HW232118   1.956   1.426   3.465 -3.0839 -3.5751 -0.9421
10407SOL     OW32119   4.586   6.528   2.128 -0.0748 -0.5109 -0.1665
10407SOL    HW132120   4.636   6.575   2.202 -0.1060 -0.1008 -0.3998
10407SOL    HW232121   4.632   6.547   2.041 -0.2014 -0.7614 -0.2861
10408SOL     OW32122   3.772   0.394   2.007 -0.0742 -0.2881 -0.1265
10408SOL    HW132123   3.765   0.480   2.058 -0.4035  0.0152 -0.6735
10408SOL    HW232124   3.681   0.352   2.000  0.2223 -1.1438  0.9105
10409SOL     OW32125   6.716   3.449   2.608 -0.5598 -0.0808 -0.0352
10409SOL    HW132126   6.729   3.506   2.526 -0.0639  3.5404  2.3404
10409SOL    HW232127   6.804   3.412   2.637 -0.3667  0.4175  0.0295
10410SOL     OW32128   0.910   5.839   0.196  0.4348 -0.1843  0.6036
10410SOL    HW132129   1.010   5.836   0.190  0.3934  1.0295 -1.0474
10410SOL    HW232130   0.884   5.890   0.278  1.1549 -0.7194  1.1841
10411SOL     OW32131   1.381   5.364   2.386  0.0979 -0.2758  0.2915
10411SOL    HW132132   1.428   5.449   2.410 -1.2538  0.5368  0.1221
10411SOL    HW232133   1.389   5.300   2.463 -0.5019  0.7194  1.2168
10412SOL     OW32134   7.006   3.398   0.163  0.1404  0.4395 -0.5010
10412SOL    HW132135   6.939   3.390   0.090 -0.1864 -2.9641  0.0338
10412SOL    HW232136   6.967   3.449   0.240 -0.0452  2.6688 -1.9711
10413SOL     OW32137   0.506   0.631   3.837 -0.2199 -0.4748  0.2215
10413SOL    HW132138   0.481   0.566   3.765 -1.7351 -0.1889  0.4569
10413SOL    HW232139   0.454   0.715   3.826  1.9832  0.8856 -0.2910
10414SOL     OW32140   4.774   5.695   6.371  0.3142 -0.0007 -0.5240
10414SOL    HW132141   4.798   5.688   6.274  1.0330  0.0323 -0.3556
10414SOL    HW232142   4.677   5.716   6.380 -0.2039 -1.8480 -1.2105
10415SOL     OW32143   0.700   4.742   3.078 -0.0678 -0.5223 -0.2475
10415SOL    HW132144   0.714   4.648   3.045  0.6276  0.3259 -2.5429
10415SOL    HW232145   0.788   4.785   3.093 -0.3897 -0.2514  0.9144
10416SOL     OW32146   3.283   0.640   0.421 -0.1031  0.1355 -0.1574
10416SOL    HW132147   3.375   0.656   0.455 -0.8373  1.5307  1.3320
10416SOL    HW232148   3.279   0.661   0.324  1.5188 -1.6486 -0.6645
10417SOL     OW32149   5.612   5.143   4.307  1.0140  0.6622  0.5906
10417SOL    HW132150   5.648   5.071   4.366  1.0697 -1.7189 -2.1671
10417SOL    HW232151   5.675   5.220   4.307  1.7719  0.1153  2.3713
10418SOL     OW32152   0.202   1.861   0.146 -0.2305 -0.0929 -0.2063
10418SOL    HW132153   0.144   1.861   0.227 -0.4671 -0.0384 -0.3760
10418SOL    HW232154   0.280   1.921   0.160 -1.9912  2.6138 -1.2577
10419SOL     OW32155   5.957   0.528   4.497  0.3288 -0.0164 -0.2650
10419SOL    HW132156   5.953   0.438   4.453 -1.4260  1.0954 -2.6335
10419SOL    HW232157   5.915   0.522   4.587 -0.3098 -1.4735 -0.6251
10420SOL     OW32158   0.264   5.395   3.525 -0.4948 -0.1106 -0.5146
10420SOL    HW132159   0.284   5.485   3.485 -2.6968  0.9705  0.6327
10420SOL    HW232160   0.169   5.372   3.509 -0.3134 -1.6359  0.3928
10421SOL     OW32161   1.563   2.592   4.108 -0.1250 -0.0177  0.3962
10421SOL    HW132162   1.495   2.634   4.167 -0.3721  0.4332 -0.1979
10421SOL    HW232163   1.644   2.651   4.105  0.1133 -0.3238  0.7345
10422SOL     OW32164   6.916   3.339   0.638  0.4428  0.2510 -0.2462
10422SOL    HW132165   6.918   3.387   0.726  1.5912 -1.0132  0.4350
10422SOL    HW232166   6.920   3.406   0.564  1.6772  1.2397  0.6776
10423SOL     OW32167   2.628   4.833   0.927  0.0057 -0.1020 -0.2142
10423SOL    HW132168   2.721   4.813   0.895  0.9723  0.9622  1.7282
10423SOL    HW232169   2.576   4.874   0.853  1.7044  1.0009 -0.8686
10424SOL     OW32170   5.995   1.986   2.745  0.0442  0.2754  0.6047
10424SOL    HW132171   5.966   1.914   2.681 -3.5259  0.3837  1.9141
10424SOL    HW232172   6.051   2.053   2.696 -0.2897 -1.0311 -1.7304
10425SOL     OW32173   4.390   6.674   0.093  0.4868 -0.2286  0.4979
10425SOL    HW132174   4.312   6.619   0.122 -0.8877  1.7984  0.8441
10425SOL    HW232175   4.413   6.652  -0.002 -0.1071 -1.2567  0.5762
10426SOL     OW32176   0.853   2.477   0.751  0.3633  0.0179  0.0777
10426SOL    HW132177   0.909   2.505   0.829  0.9890 -0.6123 -0.1364
10426SOL    HW232178   0.756   2.491   0.773  0.5300 -0.1891  0.9822
10427SOL     OW32179   6.321   0.489   1.638 -0.2204 -1.0798  0.3138
10427SOL    HW132180   6.402   0.500   1.581 -1.3623  0.5190 -1.1330
10427SOL    HW232181   6.263   0.416   1.602 -1.0229  0.0394 -0.7847
10428SOL     OW32182   6.675   1.611   5.690 -0.3558  0.3276 -0.1618
10428SOL    HW132183   6.586   1.650   5.714  0.0447  1.8586 -0.9910
10428SOL    HW232184   6.748   1.668   5.728  0.2552  0.3585 -1.3091
10429SOL     OW32185   1.384   3.992   2.422 -0.0219  0.4795 -0.0756
10429SOL    HW132186   1.349   3.903   2.393  0.2978 -0.0831  1.1950
10429SOL    HW232187   1.308   4.054   2.439 -0.5327 -0.7836  2.8559
10430SOL     OW32188   3.863   1.593   5.008  0.3406 -0.3056 -0.0400
10430SOL    HW132189   3.893   1.688   5.015 -0.4846  0.0955 -1.5593
10430SOL    HW232190   3.804   1.571   5.085 -1.4028  1.1781 -0.8745
10431SOL     OW32191   5.112   2.997   3.204  0.5558 -0.0723 -0.0163
10431SOL    HW132192   5.150   2.907   3.182 -0.3431 -0.3229 -0.6106
10431SOL    HW232193   5.013   2.989   3.219  0.3976  0.8735 -0.4523
10432SOL     OW32194   2.619   5.034   6.840  0.3321 -0.2324 -0.0054
10432SOL    HW132195   2.543   5.001   6.897  0.1907 -0.2850 -0.2229
10432SOL    HW232196   2.583   5.068   6.753  0.7829 -2.7028 -1.2418
10433SOL     OW32197   3.075   0.186   3.263  0.6279  0.7827  0.6452
10433SOL    HW132198   2.975   0.187   3.267  0.5221 -1.2923 -0.4082
10433SOL    HW232199   3.106   0.252   3.194 -0.0153  1.2208  0.7644
10434SOL     OW32200   5.559   4.145   5.271  0.9699 -0.0194 -0.0878
10434SOL    HW132201   5.591   4.054   5.245  0.6249 -0.5452  1.2436
10434SOL    HW232202   5.521   4.191   5.191  2.4406 -0.4709 -1.1048
10435SOL     OW32203   2.898   0.083   2.556 -0.2923  0.0563  0.1905
10435SOL    HW132204   2.938   0.149   2.491  0.2281 -0.2198  0.2203
10435SOL    HW232205   2.956   0.080   2.638  0.4287 -1.3891 -0.3435
10436SOL     OW32206   1.862   2.472   4.306  0.8202 -0.5126  0.3963
10436SOL    HW132207   1.843   2.417   4.387  1.1537  0.0071  0.8362
10436SOL    HW232208   1.855   2.415   4.224  0.1616 -0.9653  0.7632
10437SOL     OW32209   5.302   6.870   4.240 -0.5462 -0.2431 -0.6249
10437SOL    HW132210   5.225   6.813   4.270 -1.0566  0.7092 -0.0840
10437SOL    HW232211   5.372   6.812   4.198  0.2639 -1.6846  2.4478
10438SOL     OW32212   6.959   6.874   0.306  0.5847 -0.4475 -0.1786
10438SOL    HW132213   6.971   6.786   0.351  0.5917 -0.1622  0.3841
10438SOL    HW232214   6.925   6.941   0.372 -1.0967 -0.4482 -0.9955
10439SOL     OW32215   6.515   5.396   5.611  0.0342 -0.5269  0.1052
10439SOL    HW132216   6.614   5.397   5.598 -0.0678 -1.9195 -1.0626
10439SOL    HW232217   6.494   5.403   5.709  1.1986  1.2666  0.2804
10440SOL     OW32218   5.977   2.318   3.161 -0.1892 -0.2620 -0.0122
10440SOL    HW132219   5.978   2.301   3.062 -0.0663  1.5900 -0.3840
10440SOL    HW232220   6.046   2.261   3.206  0.0339 -0.8396 -1.0593
10441SOL     OW32221   3.356   1.517   4.901 -0.0340  0.0621 -0.3207
10441SOL    HW132222   3.422   1.470   4.960 -0.5374 -0.3651 -0.0904
10441SOL    HW232223   3.272   1.464   4.897 -0.3387  0.5666 -0.6776
10442SOL     OW32224   1.991   3.065   0.082 -0.1323  0.3739 -0.0866
10442SOL    HW132225   1.975   3.013   0.166  2.2242  2.3407  1.7249
10442SOL    HW232226   1.952   3.156   0.091 -0.2171  0.4778 -1.3342
10443SOL     OW32227   2.521   1.599   6.297  0.0758 -0.1966  0.1125
10443SOL    HW132228   2.542   1.629   6.203  0.7799  2.5267  1.0413
10443SOL    HW232229   2.602   1.555   6.336  0.5574  0.6730  0.1361
10444SOL     OW32230   4.449   4.605   3.446  0.3349  0.2057 -0.5860
10444SOL    HW132231   4.389   4.611   3.526  1.2398 -2.6672  0.4640
10444SOL    HW232232   4.531   4.661   3.461  0.4208 -0.1784  0.4543
10445SOL     OW32233   0.155   2.719   4.767 -0.1281 -0.3084  0.0811
10445SOL    HW132234   0.229   2.653   4.756  0.0101  0.2751 -4.1575
10445SOL    HW232235   0.069   2.671   4.785  0.6099 -1.2683  1.1895
10446SOL     OW32236   2.396   4.535   5.167  0.2475  0.4806  0.0414
10446SOL    HW132237   2.488   4.497   5.163  0.1046  0.0616  0.5706
10446SOL    HW232238   2.351   4.505   5.252 -0.7423 -0.1767 -0.6906
10447SOL     OW32239   2.165   1.683   3.384 -0.9214 -0.5300  0.0359
10447SOL    HW132240   2.193   1.681   3.288  1.7494 -0.6400  0.7493
10447SOL    HW232241   2.169   1.590   3.421  1.3399 -0.0812  1.0573
10448SOL     OW32242   6.782   4.841   1.322 -0.1976  0.2665 -0.5464
10448SOL    HW132243   6.799   4.750   1.283 -2.1637 -0.6877  0.6190
10448SOL    HW232244   6.847   4.858   1.396 -1.2700 -1.3010  0.8427
10449SOL     OW32245   4.045   5.395   4.070  0.4652  0.2384 -0.2778
10449SOL    HW132246   4.037   5.306   4.115  0.5828 -0.4601 -1.5954
10449SOL    HW232247   3.961   5.413   4.018  0.8840  0.3709 -0.9202
10450SOL     OW32248   5.200   3.882   5.049  0.1150 -0.5842 -0.0784
10450SOL    HW132249   5.226   3.978   5.059  1.5632 -0.8744 -0.9068
10450SOL    HW232250   5.208   3.854   4.953 -0.5266 -1.4847  0.1118
10451SOL     OW32251   0.525   3.074   5.008 -0.3205 -0.2643 -0.4646
10451SOL    HW132252   0.432   3.053   5.039 -0.3960 -0.3694 -0.7642
10451SOL    HW232253   0.570   3.131   5.077 -0.8526  0.4078 -0.6567
10452SOL     OW32254   1.078   1.627   4.898 -0.0574  0.0192 -0.0961
10452SOL    HW132255   1.020   1.554   4.935  1.4034 -1.2429 -0.2090
10452SOL    HW232256   1.023   1.686   4.839 -1.8597  0.5696  2.0262
10453SOL     OW32257   2.546   6.806   3.225  0.1881 -0.9496  0.2336
10453SOL    HW132258   2.588   6.728   3.270 -0.3488 -1.8064 -0.7221
10453SOL    HW232259   2.456   6.780   3.189 -0.2009  0.2313  0.2879
10454SOL     OW32260   5.416   1.839   0.743  0.4391  0.5045 -0.4860
10454SOL    HW132261   5.467   1.765   0.700  0.9935 -0.4338  1.6677
10454SOL    HW232262   5.353   1.802   0.811 -1.6075  1.8198 -1.5479
10455SOL     OW32263   0.888   0.112   2.606 -0.7454 -1.1217 -0.0777
10455SOL    HW132264   0.826   0.081   2.534  0.2634 -0.6701 -1.1833
10455SOL    HW232265   0.978   0.133   2.566 -0.2730 -0.4709  1.2515
10456SOL     OW32266   6.737   6.599   6.323 -0.0903  0.4195 -0.6396
10456SOL    HW132267   6.816   6.562   6.372  0.6881  2.6027 -0.1445
10456SOL    HW232268   6.659   6.606   6.386 -0.2563 -0.3838 -0.7490
10457SOL     OW32269   4.637   3.026   6.997  0.2637 -0.0784  0.0594
10457SOL    HW132270   4.658   3.102   7.060 -1.5271  0.9039 -0.4412
10457SOL    HW232271   4.611   3.063   6.908  1.5045 -1.4092 -0.8998
10458SOL     OW32272   2.298   5.520   0.532 -0.4893 -0.4496  0.2724
10458SOL    HW132273   2.203   5.501   0.555 -0.5161  0.1547  0.6720
10458SOL    HW232274   2.342   5.567   0.608 -0.0385 -0.1859 -0.1481
10459SOL     OW32275   5.399   0.069   0.692 -0.1254  0.2769 -0.2135
10459SOL    HW132276   5.489   0.086   0.734 -0.3286  1.2806 -0.1506
10459SOL    HW232277   5.411   0.047   0.595  0.2540 -0.6747  0.0412
10460SOL     OW32278   5.927   1.416   1.342  0.0349 -0.0111 -0.4182
10460SOL    HW132279   5.900   1.477   1.416 -0.7332 -0.8940  0.0498
10460SOL    HW232280   6.019   1.381   1.359  0.3901  0.8320 -0.5791
10461SOL     OW32281   5.287   2.908   5.512 -0.0651 -0.3235 -0.8120
10461SOL    HW132282   5.221   2.868   5.448 -0.4742 -0.8356 -0.0841
10461SOL    HW232283   5.271   2.871   5.604  1.4875 -0.7733 -0.6947
10462SOL     OW32284   3.947   4.362   1.059 -0.0380 -0.4359  0.1947
10462SOL    HW132285   3.943   4.274   1.107  2.5614 -0.1854  1.0286
10462SOL    HW232286   3.856   4.402   1.056 -0.8794 -2.0410  1.9590
10463SOL     OW32287   5.124   1.648   6.465 -0.1991  0.2912 -0.7218
10463SOL    HW132288   5.210   1.602   6.444  0.5114  1.5847 -0.7640
10463SOL    HW232289   5.115   1.658   6.564  0.1524  0.9423 -0.7462
10464SOL     OW32290   5.213   4.288   2.441 -0.0525 -0.2898 -0.3801
10464SOL    HW132291   5.115   4.280   2.425 -0.0249 -1.9425  0.1360
10464SOL    HW232292   5.237   4.384   2.457 -2.1260 -0.1490  2.7246
10465SOL     OW32293   0.409   6.188   0.019 -0.2146 -0.3245 -1.0057
10465SOL    HW132294   0.493   6.151  -0.019 -0.0511 -1.6379  0.5270
10465SOL    HW232295   0.337   6.119   0.014 -0.5349 -0.0697 -0.1573
10466SOL     OW32296   6.799   3.914   1.921  0.3258 -0.1355  0.4819
10466SOL    HW132297   6.753   3.847   1.863  0.9729 -0.7393  0.6630
10466SOL    HW232298   6.770   4.006   1.894  1.4345 -0.3265 -1.5317
10467SOL     OW32299   0.038   3.974   5.342 -0.2958  0.3986 -0.5369
10467SOL    HW132300  -0.051   4.019   5.353 -1.1828 -0.8602 -2.2182
10467SOL    HW232301   0.029   3.896   5.281  2.2275  0.9400 -1.7197
10468SOL     OW32302   1.280   4.575   5.350 -0.2161  0.1855  0.1568
10468SOL    HW132303   1.311   4.566   5.255 -0.3142 -0.6364  0.1956
10468SOL    HW232304   1.245   4.667   5.365  0.7042  0.6276 -0.3346
10469SOL     OW32305   1.394   2.400   5.558 -0.2464  0.4558  0.1591
10469SOL    HW132306   1.426   2.430   5.648  0.5534  1.2558 -0.3761
10469SOL    HW232307   1.466   2.347   5.513 -0.3725  0.6713 -0.2999
10470SOL     OW32308   2.658   5.605   6.495 -0.5089 -0.1060 -0.4562
10470SOL    HW132309   2.605   5.657   6.428  0.7883  0.9347 -0.7335
10470SOL    HW232310   2.739   5.567   6.451 -0.9799 -1.6598 -0.0445
10471SOL     OW32311   0.833   3.808   7.017 -0.0454 -0.0470 -0.2644
10471SOL    HW132312   0.925   3.773   7.034  0.0283  0.4425  0.3895
10471SOL    HW232313   0.838   3.888   6.956  0.2557  1.5915  1.7836
10472SOL     OW32314   3.392   5.193   6.524  0.1438  0.9621  0.3385
10472SOL    HW132315   3.475   5.209   6.578 -1.0636  0.4344  2.4531
10472SOL    HW232316   3.320   5.254   6.556 -0.9988 -0.2975  0.2338
10473SOL     OW32317   5.638   5.467   6.341  0.2496 -0.2815 -0.2346
10473SOL    HW132318   5.596   5.504   6.258 -0.0724  1.3557  0.5997
10473SOL    HW232319   5.575   5.403   6.385 -0.2195  0.0314 -0.4475
10474SOL     OW32320   5.908   5.644   6.183  1.0037 -0.2609  0.2409
10474SOL    HW132321   5.869   5.697   6.107 -2.9573 -1.5796  1.1283
10474SOL    HW232322   5.898   5.546   6.164 -0.1381 -0.6243  2.4240
10475SOL     OW32323   0.204   5.334   1.995  0.4255  0.0622 -0.3955
10475SOL    HW132324   0.214   5.239   1.966  1.1509 -0.5993  1.8085
10475SOL    HW232325   0.284   5.386   1.966  0.8004 -0.3935 -0.1889
10476SOL     OW32326   4.591   6.732   1.264 -0.0325  0.0193  0.3540
10476SOL    HW132327   4.559   6.713   1.171  0.2016 -0.0288  0.2827
10476SOL    HW232328   4.636   6.821   1.266 -3.8057  2.1344  1.3030
10477SOL     OW32329   1.875   5.469   2.733 -0.0490  0.0040  0.0183
10477SOL    HW132330   1.965   5.510   2.743 -0.1399 -0.3289  2.9280
10477SOL    HW232331   1.872   5.380   2.779 -2.1003  0.4772  0.9341
10478SOL     OW32332   5.862   6.983   6.959  0.5434  0.1082  0.2218
10478SOL    HW132333   5.918   6.934   7.027  0.7321 -0.6957 -0.5042
10478SOL    HW232334   5.774   6.937   6.950  0.2108  0.6893  0.5068
10479SOL     OW32335   1.667   2.857   3.553 -0.1413  0.2118 -0.5328
10479SOL    HW132336   1.672   2.822   3.647  0.8180  1.0062 -0.2705
10479SOL    HW232337   1.625   2.788   3.494  1.4481 -1.3020  0.0109
10480SOL     OW32338   3.448   1.863   4.286 -0.5608 -0.2872  0.4111
10480SOL    HW132339   3.408   1.953   4.270  0.5894  0.5156  1.8299
10480SOL    HW232340   3.445   1.809   4.202  0.3779  1.7321 -0.9797
10481SOL     OW32341   6.755   5.849   3.262 -0.6715  0.1750 -0.0582
10481SOL    HW132342   6.748   5.935   3.212 -2.4034 -0.9237 -1.7935
10481SOL    HW232343   6.674   5.837   3.320 -0.3525 -0.2241  0.3154
10482SOL     OW32344   5.214   4.089   5.630 -0.2555  0.5910  0.2126
10482SOL    HW132345   5.283   4.155   5.658 -1.0136  1.7075 -0.4500
10482SOL    HW232346   5.244   4.043   5.546 -0.6635  1.7020 -0.5698
10483SOL     OW32347   4.237   2.326   4.351  0.0225  0.2269 -0.1264
10483SOL    HW132348   4.294   2.406   4.367  0.7221  0.0510 -1.5770
10483SOL    HW232349   4.229   2.310   4.253 -1.6595 -0.3930  0.0840
10484SOL     OW32350   5.888   6.725   1.971  0.1263  0.2067 -0.5324
10484SOL    HW132351   5.926   6.731   1.878  0.1599  2.4773 -0.4262
10484SOL    HW232352   5.804   6.779   1.976  1.4389  2.1891  1.3511
10485SOL     OW32353   6.456   5.709   0.117  0.3598  0.5197  0.1765
10485SOL    HW132354   6.443   5.612   0.094  2.8771  0.2907 -0.5996
10485SOL    HW232355   6.472   5.717   0.215  0.5725  0.0948  0.1809
10486SOL     OW32356   5.791   2.319   1.389  0.2364 -0.0207 -0.4704
10486SOL    HW132357   5.834   2.409   1.385 -1.5579  1.0739  2.0253
10486SOL    HW232358   5.812   2.276   1.477 -0.3271 -1.2711 -0.9306
10487SOL     OW32359   4.363   6.897   1.858  0.8390  0.6181 -0.3264
10487SOL    HW132360   4.367   6.848   1.945 -0.0848  1.5005  0.2373
10487SOL    HW232361   4.391   6.836   1.784 -2.1074 -1.4438  0.0821
10488SOL     OW32362   5.164   3.822   2.020 -0.2305  0.3348  0.0064
10488SOL    HW132363   5.221   3.889   2.068  0.4837 -0.0695 -0.2656
10488SOL    HW232364   5.165   3.842   1.922  2.6083 -1.9119 -0.5346
10489SOL     OW32365   6.594   4.965   3.669 -0.2777  0.7421  0.0003
10489SOL    HW132366   6.531   4.993   3.741  0.2450 -0.4816  0.9870
10489SOL    HW232367   6.686   4.999   3.690 -0.3107  1.2049 -0.6069
10490SOL     OW32368   6.586   1.298   3.831  0.6208 -0.1825 -0.5968
10490SOL    HW132369   6.549   1.317   3.922  0.5619  0.0036 -0.6596
10490SOL    HW232370   6.520   1.243   3.779 -0.7889  2.3394 -1.6539
10491SOL     OW32371   0.230   6.417   4.943  0.1206 -0.1729 -0.6292
10491SOL    HW132372   0.234   6.408   5.042 -1.3516  1.3228 -0.3807
10491SOL    HW232373   0.322   6.418   4.905  0.7260 -4.7196  0.2249
10492SOL     OW32374   5.182   3.838   6.293  0.1951  0.4482  0.2731
10492SOL    HW132375   5.192   3.758   6.353 -0.3924  0.1573 -0.0077
10492SOL    HW232376   5.110   3.898   6.329  1.3716  1.4140  1.0809
10493SOL     OW32377   4.655   0.980   0.047 -0.3286  0.4703  0.1569
10493SOL    HW132378   4.715   1.032  -0.014 -0.0453  0.4199  0.3927
10493SOL    HW232379   4.661   0.883   0.026 -0.8674  0.5316 -0.2919
10494SOL     OW32380   6.071   0.993   6.839  0.3513 -0.3024 -0.2774
10494SOL    HW132381   6.065   1.070   6.775 -0.6497  0.0124  0.1831
10494SOL    HW232382   6.159   0.947   6.826  0.4523  0.1653 -1.4046
10495SOL     OW32383   6.996   1.178   0.519 -0.1397 -0.7845  0.3263
10495SOL    HW132384   7.043   1.261   0.552 -0.8047 -0.1657 -0.2504
10495SOL    HW232385   6.977   1.187   0.422 -3.4471  0.0034  0.9381
10496SOL     OW32386   5.668   0.875   5.944 -0.2805 -0.8512  0.1930
10496SOL    HW132387   5.712   0.785   5.932 -0.2285 -0.6777 -1.0423
10496SOL    HW232388   5.685   0.931   5.863 -2.0885 -0.4825  0.0354
10497SOL     OW32389   2.176   1.701   6.996  0.1349  0.2191  0.4416
10497SOL    HW132390   2.239   1.730   7.068  1.4639  1.2795 -1.0730
10497SOL    HW232391   2.200   1.746   6.910 -2.5701  0.4713 -0.2865
10498SOL     OW32392   2.388   4.363   4.136  0.3006 -0.2721 -0.0241
10498SOL    HW132393   2.373   4.302   4.214  1.8779 -1.0124 -0.2660
10498SOL    HW232394   2.306   4.419   4.122 -1.2897 -2.4273  0.0983
10499SOL     OW32395   3.248   4.785   1.500 -0.0760 -0.4189 -0.0854
10499SOL    HW132396   3.174   4.718   1.497  0.6779 -1.2404 -0.9008
10499SOL    HW232397   3.269   4.817   1.408  0.0960  0.3824  0.2154
10500SOL     OW32398   1.318   2.930   6.927 -0.0336 -0.5998 -0.4791
10500SOL    HW132399   1.369   3.012   6.901 -1.7108  0.9301  0.8345
10500SOL    HW232400   1.268   2.896   6.847 -1.2414  1.1364 -0.5137
10501SOL     OW32401   2.247   3.335   5.401  0.3988 -0.2700  0.2443
10501SOL    HW132402   2.347   3.335   5.393  0.5222 -2.3200  1.1470
10501SOL    HW232403   2.211   3.248   5.367 -0.9853  0.0199  0.9135
10502SOL     OW32404   4.872   6.940   5.160 -0.5618 -0.1179 -0.1767
10502SOL    HW132405   4.842   6.845   5.157 -0.3001 -0.3156  2.0036
10502SOL    HW232406   4.966   6.944   5.196 -1.1730  1.0325  1.3969
10503SOL     OW32407   1.940   3.941   6.228  0.4836 -0.3607 -0.2278
10503SOL    HW132408   1.885   3.920   6.309 -1.5270  2.0358 -0.8422
10503SOL    HW232409   2.022   3.991   6.256  1.4357 -2.2648  0.5381
10504SOL     OW32410   1.041   1.122   2.084 -0.2137 -0.1004  0.6541
10504SOL    HW132411   1.016   1.117   2.181  1.2005  0.6150  1.0939
10504SOL    HW232412   1.052   1.218   2.057 -1.9592 -0.2136 -0.6223
10505SOL     OW32413   2.120   4.498   0.429 -0.0621  0.0107 -0.4146
10505SOL    HW132414   2.189   4.493   0.502  1.2500  0.7972 -1.5565
10505SOL    HW232415   2.110   4.408   0.387  0.5688 -0.0197 -0.5066
10506SOL     OW32416   6.063   5.538   5.440 -0.0637 -0.6246  0.2640
10506SOL    HW132417   6.154   5.547   5.479 -0.4073 -0.7476  1.1132
10506SOL    HW232418   6.002   5.606   5.481  0.0443  0.6512 -1.5732
10507SOL     OW32419   2.233   0.320   3.075  0.0392 -0.3909 -0.3681
10507SOL    HW132420   2.183   0.237   3.099 -1.6294  0.1357 -1.8103
10507SOL    HW232421   2.208   0.394   3.137 -0.5276 -0.2854 -0.7191
10508SOL     OW32422   4.109   5.374   3.319  0.1274  0.3688  0.7088
10508SOL    HW132423   4.077   5.286   3.281  0.6315 -0.1717  1.5061
10508SOL    HW232424   4.199   5.361   3.360 -0.5052  0.8580  2.3281
10509SOL     OW32425   1.060   1.627   5.570 -0.1657 -0.1929 -0.3728
10509SOL    HW132426   1.124   1.686   5.620  1.9030  0.2876 -3.2951
10509SOL    HW232427   1.041   1.545   5.624  1.3972  0.5472  1.4353
10510SOL     OW32428   4.627   2.844   0.364 -0.3149  0.1746 -0.0019
10510SOL    HW132429   4.612   2.823   0.268  0.7002 -0.7703  0.0288
10510SOL    HW232430   4.541   2.834   0.414 -0.5657 -0.6859 -0.5774
10511SOL     OW32431   0.517   6.447   1.023 -0.2762 -0.1034  0.4332
10511SOL    HW132432   0.456   6.525   1.037  0.1898  0.5308 -0.9422
10511SOL    HW232433   0.469   6.363   1.048  0.0970  0.7137  4.6988
10512SOL     OW32434   2.086   6.781   5.745 -0.7714 -0.3768 -0.2824
10512SOL    HW132435   2.017   6.829   5.800 -1.5547 -0.7341 -0.9196
10512SOL    HW232436   2.133   6.715   5.803  0.8191  1.5849  0.7851
10513SOL     OW32437   6.928   1.971   1.570 -0.1567  0.2715 -0.0252
10513SOL    HW132438   6.883   1.925   1.493  0.5964  1.8380 -1.4695
10513SOL    HW232439   7.021   1.936   1.579  0.2216  1.0336 -0.7570
10514SOL     OW32440   0.813   2.174   1.046 -0.3213 -0.3287 -0.3775
10514SOL    HW132441   0.767   2.104   1.100 -1.0173 -0.5077 -1.1703
10514SOL    HW232442   0.909   2.179   1.071 -0.0630 -2.1582 -0.9014
10515SOL     OW32443   6.316   3.088   4.710 -0.1389 -0.2955  0.0769
10515SOL    HW132444   6.392   3.041   4.754  0.4553  0.7993  0.2500
10515SOL    HW232445   6.252   3.120   4.780 -0.0812 -0.0591  0.0207
10516SOL     OW32446   3.798   5.452   0.028 -0.6411 -0.6034  0.5385
10516SOL    HW132447   3.895   5.449   0.003 -0.8723 -1.7096 -0.3091
10516SOL    HW232448   3.782   5.527   0.092  0.9199 -0.9257  1.3390
10517SOL     OW32449   0.045   2.212   2.452 -0.2715  0.3899  0.6021
10517SOL    HW132450   0.056   2.253   2.542  0.1770 -1.2264  1.3135
10517SOL    HW232451   0.134   2.185   2.416 -0.3597  1.6013 -0.6586
10518SOL     OW32452   2.381   6.372   3.930  0.2627  0.2033 -0.3776
10518SOL    HW132453   2.297   6.413   3.896  0.0301  0.5501  0.5884
10518SOL    HW232454   2.369   6.272   3.936 -0.9401  0.4321  1.9853
10519SOL     OW32455   3.569   3.380   4.389  0.4540  0.4489  0.1577
10519SOL    HW132456   3.533   3.407   4.300 -0.5497 -0.9638  0.1105
10519SOL    HW232457   3.665   3.410   4.396  0.1000  1.8946 -0.7727
10520SOL     OW32458   2.946   5.329   5.282  0.2025 -0.4108 -0.3298
10520SOL    HW132459   2.950   5.265   5.205  0.0741 -0.8591  0.0365
10520SOL    HW232460   3.020   5.396   5.272  1.2357 -1.4641  0.0236
10521SOL     OW32461   6.740   5.011   1.093  0.1310 -0.2765 -0.2604
10521SOL    HW132462   6.703   4.952   1.165 -0.4707 -1.0646 -1.2001
10521SOL    HW232463   6.838   5.021   1.105 -0.3833  3.2801  3.3737
10522SOL     OW32464   6.497   1.345   3.022  1.0895  0.0963  0.0715
10522SOL    HW132465   6.516   1.249   3.005  2.4575  0.0769  1.5020
10522SOL    HW232466   6.439   1.354   3.103  3.9123  0.5088  2.2246
10523SOL     OW32467   4.172   3.350   6.300 -0.7988 -0.1610 -0.1127
10523SOL    HW132468   4.163   3.252   6.281  1.3129  0.0183 -2.5989
10523SOL    HW232469   4.170   3.400   6.214  2.4068  1.5459  0.6843
10524SOL     OW32470   5.089   0.363   6.094 -0.5141 -0.3273 -0.0885
10524SOL    HW132471   5.021   0.425   6.133  0.8025  1.7624 -0.9755
10524SOL    HW232472   5.073   0.352   5.996  1.7679  2.2337 -0.8686
10525SOL     OW32473   0.827   0.794   5.071  0.0097  0.1830 -0.0147
10525SOL    HW132474   0.834   0.778   5.170  0.5970  2.7321  0.4446
10525SOL    HW232475   0.916   0.778   5.028  0.0583  0.1794  0.0861
10526SOL     OW32476   3.808   5.720   3.413 -0.3243 -0.8944  1.0145
10526SOL    HW132477   3.801   5.819   3.397  0.9304 -0.8918  0.3827
10526SOL    HW232478   3.875   5.681   3.350  0.8919 -1.7734  2.7799
10527SOL     OW32479   2.246   2.586   5.858  0.2449 -0.4323 -0.1627
10527SOL    HW132480   2.170   2.525   5.836  1.1642 -1.5812 -0.2331
10527SOL    HW232481   2.269   2.641   5.779 -0.4120 -0.1866 -0.1877
10528SOL     OW32482   5.190   3.735   0.028 -0.2306 -0.3526 -0.3322
10528SOL    HW132483   5.139   3.695   0.104 -1.6939  0.4855 -0.8235
10528SOL    HW232484   5.125   3.773  -0.039  0.9915 -1.2855 -2.1355
10529SOL     OW32485   5.850   3.959   5.782  0.5677  0.1037 -0.4886
10529SOL    HW132486   5.906   4.035   5.748  1.2872 -0.7813 -1.3477
10529SOL    HW232487   5.855   3.883   5.717 -1.7331  0.0330 -0.6408
10530SOL     OW32488   2.238   0.724   4.002 -0.4202 -0.0778  0.4590
10530SOL    HW132489   2.263   0.722   4.099  2.0499  0.2174 -0.0821
10530SOL    HW232490   2.264   0.813   3.964 -0.9920 -0.3381 -0.5523
10531SOL     OW32491   4.934   0.376   3.725 -0.0697  0.2882  0.3242
10531SOL    HW132492   5.016   0.380   3.782 -0.5750  1.7177  0.9789
10531SOL    HW232493   4.961   0.381   3.628  0.6613 -0.2405  0.4925
10532SOL     OW32494   3.238   3.673   3.748 -0.1296  0.5123 -0.6649
10532SOL    HW132495   3.243   3.575   3.767 -2.0155  0.6126  0.6235
10532SOL    HW232496   3.144   3.699   3.728  0.3038  2.0978 -0.8349
10533SOL     OW32497   4.352   4.080   5.879 -0.4432  0.0021 -0.0630
10533SOL    HW132498   4.338   4.119   5.970 -1.7903  0.6113 -0.4982
10533SOL    HW232499   4.272   4.027   5.853 -0.0630 -0.1872 -0.8881
10534SOL     OW32500   4.903   2.751   1.668 -0.1221 -0.4075 -0.3485
10534SOL    HW132501   4.875   2.734   1.762 -1.3251 -0.8122 -0.7577
10534SOL    HW232502   4.944   2.842   1.661 -2.2559  0.6385  0.1344
10535SOL     OW32503   0.641   1.935   1.667 -0.0117  0.7518 -0.2560
10535SOL    HW132504   0.635   2.029   1.700  1.0003  0.1742  1.7850
10535SOL    HW232505   0.573   1.879   1.715  0.4053  0.1791 -0.3222
10536SOL     OW32506   6.311   5.190   3.550  0.1371 -0.1568 -0.1116
10536SOL    HW132507   6.248   5.248   3.603  1.1046  0.3328  0.5297
10536SOL    HW232508   6.389   5.165   3.607  0.0682 -1.5639 -0.5982
10537SOL     OW32509   1.218   6.128   3.321 -0.2330  0.2071  0.1040
10537SOL    HW132510   1.284   6.124   3.246  1.8826  2.0980  1.7468
10537SOL    HW232511   1.128   6.151   3.283 -0.0413 -2.2575 -2.1690
10538SOL     OW32512   4.137   3.144   5.686  0.0258 -0.2635 -0.3381
10538SOL    HW132513   4.090   3.058   5.667 -0.4541 -0.5080  1.7018
10538SOL    HW232514   4.110   3.213   5.619 -1.4916 -1.0383 -0.5521
10539SOL     OW32515   2.123   1.989   3.267  0.0692  0.8373 -0.4672
10539SOL    HW132516   2.107   1.927   3.191 -0.1249 -1.3566  1.2678
10539SOL    HW232517   2.204   2.045   3.249  2.0008 -1.9371 -0.9484
10540SOL     OW32518   3.741   0.684   2.007  0.3554  0.6687 -0.7567
10540SOL    HW132519   3.802   0.732   2.069  0.9406  0.7510 -1.3868
10540SOL    HW232520   3.655   0.664   2.054  1.3675 -0.6877  0.5927
10541SOL     OW32521   3.074   2.241   1.210 -0.5514  0.1028 -0.1297
10541SOL    HW132522   3.100   2.149   1.179  2.5127  0.9203 -0.3519
10541SOL    HW232523   3.051   2.238   1.307  1.0451 -0.7153  0.2656
10542SOL     OW32524   3.466   2.978   0.322 -0.3779 -0.3632  0.0812
10542SOL    HW132525   3.543   2.951   0.263 -1.2164 -2.1225 -0.2766
10542SOL    HW232526   3.490   2.962   0.417 -0.7809 -2.3639 -0.1092
10543SOL     OW32527   3.184   0.133   4.358  0.0484  0.3714  0.4320
10543SOL    HW132528   3.237   0.052   4.383 -0.4941  0.0801  0.6245
10543SOL    HW232529   3.091   0.126   4.393 -0.2300  0.7257 -0.2168
10544SOL     OW32530   0.675   6.334   0.569 -0.4557 -0.0652  0.3579
10544SOL    HW132531   0.751   6.390   0.603 -0.7553  2.2561 -2.4104
10544SOL    HW232532   0.691   6.311   0.473 -2.1509 -1.6523  0.3987
10545SOL     OW32533   3.936   1.238   3.412 -0.1716  0.0534  0.0978
10545SOL    HW132534   3.968   1.242   3.507  0.0130 -1.6796  0.1466
10545SOL    HW232535   3.948   1.145   3.378 -0.3446  0.6283 -1.5994
10546SOL     OW32536   3.325   6.584   6.647  0.1742 -0.2351  0.3147
10546SOL    HW132537   3.397   6.587   6.579  0.0145 -2.0274  0.0218
10546SOL    HW232538   3.280   6.495   6.645 -0.0958 -0.2214  2.4871
10547SOL     OW32539   4.589   5.583   3.116 -0.1757  0.0408  0.2135
10547SOL    HW132540   4.560   5.489   3.134 -0.8501  0.7116  2.9709
10547SOL    HW232541   4.678   5.598   3.159  0.2439  0.5019 -0.7951
10548SOL     OW32542   4.711   5.441   6.480  0.0030 -0.3140  0.0263
10548SOL    HW132543   4.727   5.539   6.469 -2.9402  0.6062  2.6171
10548SOL    HW232544   4.674   5.404   6.395  2.5657  0.3879 -1.4935
10549SOL     OW32545   5.441   0.416   2.462 -0.2311 -0.4419  0.1231
10549SOL    HW132546   5.500   0.369   2.529 -1.4339 -1.9534  0.1823
10549SOL    HW232547   5.464   0.385   2.370 -1.7065 -2.0005  0.2395
10550SOL     OW32548   4.693   0.442   3.849 -0.6965  0.0521 -0.0195
10550SOL    HW132549   4.775   0.426   3.794 -0.6778  1.3825 -0.4030
10550SOL    HW232550   4.714   0.504   3.924 -1.1749 -0.2317  0.3582
10551SOL     OW32551   1.423   3.943   6.028  0.2250 -0.8559  0.0821
10551SOL    HW132552   1.370   3.937   5.944 -0.4396 -2.5284  0.5756
10551SOL    HW232553   1.376   4.002   6.093  0.3307 -0.2148 -0.4103
10552SOL     OW32554   4.009   0.726   6.985 -0.4137 -0.4598  0.6038
10552SOL    HW132555   4.086   0.732   7.048 -1.3973  0.2559  1.7684
10552SOL    HW232556   3.999   0.812   6.935 -1.5952  0.1675  1.8569
10553SOL     OW32557   2.578   5.879   1.006  0.0405 -0.1357 -0.8326
10553SOL    HW132558   2.508   5.847   0.942  2.1836 -1.9175 -2.4815
10553SOL    HW232559   2.601   5.805   1.070 -0.8924  1.0791  0.9712
10554SOL     OW32560   5.430   2.765   4.632  0.0390 -0.1412 -0.3471
10554SOL    HW132561   5.382   2.677   4.635  0.8547 -0.5888  0.1507
10554SOL    HW232562   5.522   2.750   4.596  1.4779 -0.1558  2.9803
10555SOL     OW32563   3.198   2.724   0.578  0.0202  0.1059 -0.4705
10555SOL    HW132564   3.289   2.682   0.569 -0.1459 -0.2153 -0.6804
10555SOL    HW232565   3.208   2.819   0.609  0.4100 -0.0441 -0.1130
10556SOL     OW32566   2.857   5.126   4.045  0.2487  0.0145 -0.2147
10556SOL    HW132567   2.919   5.067   4.096  1.5146  0.8216 -0.7827
10556SOL    HW232568   2.869   5.111   3.947  0.6109  1.2275 -0.3730
10557SOL     OW32569   5.108   0.791   2.331  0.6163 -0.6151 -0.2355
10557SOL    HW132570   5.153   0.845   2.260 -0.2104 -0.5236 -0.6991
10557SOL    HW232571   5.163   0.710   2.351 -0.4710 -2.1514 -2.9975
10558SOL     OW32572   6.012   5.894   4.555  0.5137  0.6903  0.4441
10558SOL    HW132573   5.963   5.889   4.468  1.0722 -0.2342  0.1663
10558SOL    HW232574   6.110   5.883   4.539  0.7303  1.5556  1.0928
10559SOL     OW32575   2.862   2.369   0.914 -0.2744  0.7828  0.2473
10559SOL    HW132576   2.907   2.397   0.999  3.6146 -0.5300 -1.1442
10559SOL    HW232577   2.914   2.294   0.872 -2.1677  1.1632 -3.1373
10560SOL     OW32578   1.266   2.274   3.107  0.3622  0.3153  0.3091
10560SOL    HW132579   1.207   2.193   3.100  3.4572 -2.3118  1.9372
10560SOL    HW232580   1.221   2.344   3.163 -1.1619 -1.6315  1.6554
10561SOL     OW32581   0.559   3.317   6.556 -0.1963  0.1412  0.2197
10561SOL    HW132582   0.530   3.230   6.518  1.5542 -0.8177  1.0021
10561SOL    HW232583   0.588   3.378   6.483  1.3029 -0.9843 -0.1526
10562SOL     OW32584   4.387   3.215   1.396  0.1846  0.3544  0.1286
10562SOL    HW132585   4.339   3.303   1.393 -0.8392 -0.2135 -2.1954
10562SOL    HW232586   4.329   3.147   1.441 -0.2719  0.1966 -0.6838
10563SOL     OW32587   0.993   6.019   1.348 -0.0765  0.7059  0.0245
10563SOL    HW132588   0.931   6.044   1.273 -0.7903  0.0170  0.3736
10563SOL    HW232589   0.940   6.002   1.431  0.4506 -1.0452  0.0394
10564SOL     OW32590   6.966   6.887   2.428 -0.0121 -0.2490 -0.3479
10564SOL    HW132591   6.870   6.898   2.401  0.0018 -3.4087 -2.0734
10564SOL    HW232592   7.025   6.911   2.351  0.4386 -1.2496 -0.3224
10565SOL     OW32593   4.978   1.912   4.382 -0.5413 -0.4333 -0.5836
10565SOL    HW132594   5.058   1.892   4.438 -1.3308 -0.8084  0.4368
10565SOL    HW232595   4.949   1.829   4.334 -0.9175 -0.5516 -0.1567
10566SOL     OW32596   4.990   5.419   5.332 -0.4664 -0.0006 -0.0310
10566SOL    HW132597   5.005   5.471   5.416 -0.1646 -0.2187  0.0514
10566SOL    HW232598   4.972   5.323   5.355  0.8765 -0.3258 -0.2696
10567SOL     OW32599   1.618   1.119   4.158  0.2784 -0.1281  0.2951
10567SOL    HW132600   1.592   1.079   4.070  0.7326  0.2656 -0.0256
10567SOL    HW232601   1.579   1.065   4.232  0.8382 -1.1529 -0.1278
10568SOL     OW32602   4.372   6.055   2.801 -0.7903  0.2914 -0.3752
10568SOL    HW132603   4.348   6.153   2.804  0.7470  0.6874 -0.0459
10568SOL    HW232604   4.403   6.027   2.892 -0.4493 -0.3010 -0.6758
10569SOL     OW32605   0.645   4.234   4.659 -0.3263  0.5956 -0.6659
10569SOL    HW132606   0.567   4.293   4.681 -0.9777 -0.4870  0.0347
10569SOL    HW232607   0.728   4.290   4.650 -0.7654  1.5361  0.7367
10570SOL     OW32608   0.498   1.815   1.843 -0.0725  0.0421 -0.4976
10570SOL    HW132609   0.476   1.728   1.888  1.3583  0.3782  0.9759
10570SOL    HW232610   0.457   1.890   1.894 -0.8132  0.2957 -1.4346
10571SOL     OW32611   0.015   1.554   5.616 -0.5497  0.0825 -0.1276
10571SOL    HW132612   0.031   1.606   5.700  0.5855 -1.9472  0.9791
10571SOL    HW232613  -0.075   1.510   5.621 -0.6866  0.3463 -0.2125
10572SOL     OW32614   1.054   4.559   3.887 -0.4121 -0.4024  0.4329
10572SOL    HW132615   1.010   4.556   3.797  0.0966  0.2792  0.1546
10572SOL    HW232616   0.984   4.564   3.958 -0.7961  0.3314  0.0130
10573SOL     OW32617   5.161   4.126   4.267 -0.6297 -0.6999 -0.6754
10573SOL    HW132618   5.145   4.040   4.219 -1.4619 -1.7523  1.3824
10573SOL    HW232619   5.235   4.113   4.334 -1.3711 -0.0797  0.2758
10574SOL     OW32620   0.234   2.111   3.782 -0.5083 -0.1358  0.3410
10574SOL    HW132621   0.252   2.035   3.844  0.2537 -0.6646 -0.4980
10574SOL    HW232622   0.150   2.094   3.730 -0.3917 -0.3580  0.2255
10575SOL     OW32623   6.340   0.899   5.716  0.1597  0.2490  0.4848
10575SOL    HW132624   6.330   0.822   5.654  1.4460 -0.6572  1.3476
10575SOL    HW232625   6.437   0.912   5.739 -0.1817  1.1552  1.5466
10576SOL     OW32626   7.007   6.475   4.878  0.6455  0.1588 -0.2268
10576SOL    HW132627   6.941   6.438   4.944  1.4072  0.5294  0.7690
10576SOL    HW232628   7.100   6.453   4.907  1.0899  1.9697 -0.1082
10577SOL     OW32629   0.058   2.649   5.142  0.0054 -0.1566 -0.5348
10577SOL    HW132630   0.061   2.639   5.043 -0.6293 -2.3932 -0.3707
10577SOL    HW232631   0.021   2.566   5.183 -1.1527  1.2613  1.4959
10578SOL     OW32632   5.557   1.744   0.442 -0.6695 -0.7811  0.0199
10578SOL    HW132633   5.575   1.823   0.384  0.7937 -0.7041  0.5255
10578SOL    HW232634   5.636   1.728   0.502 -0.4496 -3.2290 -0.7920
10579SOL     OW32635   6.455   0.186   3.407 -0.3468 -0.2342 -0.4594
10579SOL    HW132636   6.513   0.119   3.361  1.5027 -0.1254  1.5739
10579SOL    HW232637   6.415   0.144   3.489  0.6067  1.0167  0.6800
10580SOL     OW32638   0.578   4.607   2.816  0.6763  0.4868  0.2649
10580SOL    HW132639   0.648   4.583   2.749  0.9549  0.1013  0.6817
10580SOL    HW232640   0.555   4.704   2.808  0.4908  0.3754 -0.5779
10581SOL     OW32641   3.309   1.149   2.674  0.6298 -0.1992  0.2027
10581SOL    HW132642   3.391   1.115   2.629  0.0926 -1.7316  0.3343
10581SOL    HW232643   3.259   1.210   2.612  1.6079  0.3677 -0.0415
10582SOL     OW32644   4.567   4.973   0.356 -0.7253  0.1624 -0.2527
10582SOL    HW132645   4.470   4.982   0.334 -0.6707  1.3029 -0.0994
10582SOL    HW232646   4.621   4.972   0.272 -0.8361 -0.0793 -0.3226
10583SOL     OW32647   3.950   0.962   3.365 -1.0580  0.1667 -0.7373
10583SOL    HW132648   3.867   0.915   3.397 -0.5883 -0.4543 -0.3949
10583SOL    HW232649   4.015   0.894   3.329 -0.0676  0.4494  0.4284
10584SOL     OW32650   5.775   5.492   2.068 -0.6808 -0.2588  0.9132
10584SOL    HW132651   5.771   5.592   2.058 -0.1671 -0.4320 -1.8570
10584SOL    HW232652   5.826   5.469   2.151 -1.0299  1.7657  1.7517
10585SOL     OW32653   2.493   3.396   5.870 -0.3274 -0.4277 -0.2764
10585SOL    HW132654   2.435   3.320   5.900 -0.3187 -0.4440 -0.3007
10585SOL    HW232655   2.525   3.446   5.950  0.2373 -0.8731 -0.2147
10586SOL     OW32656   3.909   6.852   2.808 -0.2792 -0.1214  0.0437
10586SOL    HW132657   3.984   6.842   2.874  2.4996 -0.4180 -2.9358
10586SOL    HW232658   3.844   6.920   2.842  1.1305 -0.0621  2.9105
10587SOL     OW32659   6.825   2.539   6.713  0.0329  0.6018  0.2695
10587SOL    HW132660   6.887   2.490   6.774  1.0932 -0.5592 -1.6438
10587SOL    HW232661   6.860   2.632   6.698  0.7514  0.2847 -0.0146
10588SOL     OW32662   1.577   4.958   4.425 -0.2679  0.1198  0.3242
10588SOL    HW132663   1.670   4.952   4.388 -0.2931  0.8529  0.1108
10588SOL    HW232664   1.563   4.886   4.493  0.7046  0.4508  0.9003
10589SOL     OW32665   5.490   0.519   4.802  0.1319 -0.1695  0.7596
10589SOL    HW132666   5.560   0.535   4.732  3.1704 -0.5328  3.4348
10589SOL    HW232667   5.415   0.584   4.790  1.6498  1.3214 -1.4213
10590SOL     OW32668   5.169   0.241   4.223 -0.1137  0.2390 -0.3243
10590SOL    HW132669   5.123   0.152   4.215  2.6835 -1.2927 -0.6288
10590SOL    HW232670   5.144   0.283   4.310 -0.4214 -1.5232  0.4853
10591SOL     OW32671   1.043   1.968   0.869  0.0051 -0.1749 -0.6411
10591SOL    HW132672   1.063   1.918   0.785  0.0716  1.3528 -1.5869
10591SOL    HW232673   1.075   2.062   0.860 -0.0478  0.0458  1.0890
10592SOL     OW32674   5.017   0.761   6.399  0.6541 -0.2401 -0.2595
10592SOL    HW132675   5.060   0.728   6.483 -1.7891  1.3472  1.7587
10592SOL    HW232676   5.037   0.697   6.325  2.9535 -1.7001  1.4587
10593SOL     OW32677   0.870   4.642   0.825 -0.2682  0.0660 -0.2450
10593SOL    HW132678   0.907   4.687   0.906  1.8852 -3.4114  0.9190
10593SOL    HW232679   0.781   4.602   0.848 -0.2337  0.1414  0.0320
10594SOL     OW32680   2.313   0.727   4.276  0.0520 -0.9739 -0.5144
10594SOL    HW132681   2.413   0.736   4.282 -0.0442 -0.0621 -0.2263
10594SOL    HW232682   2.270   0.815   4.294 -0.8126 -1.3501 -0.6901
10595SOL     OW32683   6.746   6.902   4.872  0.2115  0.1974 -0.3759
10595SOL    HW132684   6.652   6.937   4.877 -0.4045 -1.3667 -0.4583
10595SOL    HW232685   6.770   6.860   4.960  0.6081  0.0356 -0.5601
10596SOL     OW32686   3.693   2.125   0.709 -0.1927 -0.2202  0.1178
10596SOL    HW132687   3.685   2.153   0.805  0.7012 -1.1860  0.4820
10596SOL    HW232688   3.777   2.163   0.670 -0.6120  0.2724 -0.3439
10597SOL     OW32689   3.344   6.958   4.721  0.3195 -0.4028 -0.1686
10597SOL    HW132690   3.269   6.946   4.786 -0.0804 -0.8566 -0.6995
10597SOL    HW232691   3.392   6.871   4.708  3.1353  0.5215  2.7081
10598SOL     OW32692   2.644   1.189   0.583  0.4850  0.2184  0.0039
10598SOL    HW132693   2.552   1.156   0.606  0.6499  0.6139  1.3388
10598SOL    HW232694   2.679   1.139   0.504  0.4245 -2.2965  1.4445
10599SOL     OW32695   4.230   1.826   0.398  0.6057 -0.3175 -0.1192
10599SOL    HW132696   4.153   1.775   0.360  0.8868  0.3533 -1.6910
10599SOL    HW232697   4.301   1.837   0.328  0.9829  1.3263  0.4551
10600SOL     OW32698   2.545   4.184   5.317 -0.5496  0.5697  0.1721
10600SOL    HW132699   2.572   4.273   5.281  0.7608 -0.0855 -0.5434
10600SOL    HW232700   2.497   4.132   5.246  1.5719 -0.5198 -0.5463
10601SOL     OW32701   5.688   6.094   6.104 -0.3662  0.0899 -0.2523
10601SOL    HW132702   5.707   6.055   6.193  1.9558  0.4282 -0.5418
10601SOL    HW232703   5.595   6.132   6.103 -1.2259 -1.8028  1.2786
10602SOL     OW32704   6.406   3.136   2.600  0.0349  0.3768  0.3324
10602SOL    HW132705   6.502   3.123   2.576 -0.6895 -0.1735 -2.8341
10602SOL    HW232706   6.395   3.216   2.659  2.4304  0.1687  1.1349
10603SOL     OW32707   0.159   6.156   4.906  0.2615  0.1127  0.0961
10603SOL    HW132708   0.071   6.123   4.872  0.8981 -1.1787 -0.3883
10603SOL    HW232709   0.165   6.255   4.896  0.0492 -0.0879 -2.7735
10604SOL     OW32710   0.550   4.890   0.678 -0.2176  0.2953  0.3608
10604SOL    HW132711   0.557   4.901   0.777  0.4331 -0.3232  0.3932
10604SOL    HW232712   0.564   4.794   0.653 -0.5063  0.4205 -0.3220
10605SOL     OW32713   3.841   3.657   1.333 -0.1963 -0.6579 -0.2245
10605SOL    HW132714   3.808   3.715   1.408 -0.4580 -1.2898  0.1624
10605SOL    HW232715   3.931   3.688   1.304 -0.0949 -0.3967  0.3476
10606SOL     OW32716   2.594   0.438   2.436 -0.3900  0.0720  0.0829
10606SOL    HW132717   2.498   0.462   2.431 -0.2919  0.8010  1.2413
10606SOL    HW232718   2.610   0.380   2.517  0.0209 -0.7114 -0.5389
10607SOL     OW32719   0.844   4.416   0.418 -0.3863 -0.0626 -0.3497
10607SOL    HW132720   0.784   4.382   0.490  0.6400 -0.4190  0.3434
10607SOL    HW232721   0.823   4.368   0.332 -1.4702  0.2216 -0.2600
10608SOL     OW32722   4.548   5.756   2.888  0.2001  0.4189  0.4198
10608SOL    HW132723   4.579   5.728   2.797  1.2465  0.2172  0.8241
10608SOL    HW232724   4.580   5.690   2.955  0.2231  1.0614  1.0471
10609SOL     OW32725   3.618   6.319   3.237 -0.2739 -0.5174 -0.6227
10609SOL    HW132726   3.635   6.276   3.148 -2.3068 -0.6103 -1.0166
10609SOL    HW232727   3.571   6.254   3.297 -2.7578  0.8028 -0.9855
10610SOL     OW32728   2.104   4.334   5.693  1.0208 -0.5603  0.6540
10610SOL    HW132729   2.005   4.336   5.711  0.7257  1.2516 -0.8769
10610SOL    HW232730   2.142   4.426   5.706  2.3398 -1.0443  0.3346
10611SOL     OW32731   3.751   1.422   6.390  0.1245 -0.2975 -0.1804
10611SOL    HW132732   3.732   1.388   6.298  1.4781 -1.3060 -0.1023
10611SOL    HW232733   3.834   1.478   6.389  0.6710 -1.0695  0.5748
10612SOL     OW32734   2.694   6.949   1.801  0.8226  0.2223  0.0237
10612SOL    HW132735   2.706   6.954   1.900  1.2419  0.2224 -0.0222
10612SOL    HW232736   2.781   6.972   1.757  0.2153  1.8731 -0.3697
10613SOL     OW32737   1.794   2.049   2.365 -0.0495  0.1159 -0.2859
10613SOL    HW132738   1.861   2.101   2.419  0.4766  2.1410 -2.6952
10613SOL    HW232739   1.817   2.057   2.268 -1.9333 -1.9404 -0.9674
10614SOL     OW32740   0.340   0.661   2.326  0.1618  0.0510 -0.0150
10614SOL    HW132741   0.363   0.588   2.391 -1.0496 -0.4875 -0.1599
10614SOL    HW232742   0.247   0.693   2.344 -0.1257  0.0221 -1.3437
10615SOL     OW32743   1.199   0.068   5.718  0.5764 -0.1392 -0.7805
10615SOL    HW132744   1.238   0.041   5.806  0.1772 -0.3947 -0.6770
10615SOL    HW232745   1.154   0.157   5.727  1.7803  0.5237 -1.0886
10616SOL     OW32746   3.493   5.248   1.050  0.5234 -0.3452 -0.0086
10616SOL    HW132747   3.484   5.179   0.978 -1.2896 -0.6358  0.4575
10616SOL    HW232748   3.405   5.260   1.096  1.0834  1.5013  0.6480
10617SOL     OW32749   6.913   0.806   6.766  0.2112 -0.1371  0.2871
10617SOL    HW132750   6.823   0.835   6.735 -0.6298 -0.5229  2.2545
10617SOL    HW232751   6.915   0.707   6.777  1.6803 -0.4616 -2.0409
10618SOL     OW32752   5.711   3.390   6.782  0.2333  0.8132 -0.3156
10618SOL    HW132753   5.708   3.344   6.694  0.2964  2.0486 -0.9799
10618SOL    HW232754   5.645   3.347   6.844 -0.4901  0.5269 -1.2629
10619SOL     OW32755   6.133   3.141   5.607 -0.3969  0.1254  0.3305
10619SOL    HW132756   6.146   3.141   5.508  0.5941  0.1613  0.4538
10619SOL    HW232757   6.114   3.234   5.638  0.7959  0.3763  0.3510
10620SOL     OW32758   1.776   4.059   3.887  0.4576  0.5884  0.7153
10620SOL    HW132759   1.822   4.135   3.841 -1.2350  0.4038 -1.4704
10620SOL    HW232760   1.692   4.093   3.930  0.0170  0.0786  0.2649
10621SOL     OW32761   3.730   1.500   0.768  0.2002 -0.4128  0.2787
10621SOL    HW132762   3.780   1.586   0.758  0.5641 -0.7365 -0.8759
10621SOL    HW232763   3.715   1.481   0.865  1.0823  0.4002  0.5893
10622SOL     OW32764   6.041   2.003   0.872 -0.0018 -0.0368 -0.2047
10622SOL    HW132765   6.043   1.956   0.783 -0.7041 -0.4483 -0.0175
10622SOL    HW232766   5.958   2.058   0.878 -0.9556 -1.5140  0.9210
10623SOL     OW32767   6.702   1.882   4.157  0.8165  0.3467  0.4722
10623SOL    HW132768   6.707   1.971   4.203  2.4797  0.6756 -0.2684
10623SOL    HW232769   6.677   1.895   4.061 -0.5217 -0.1535  0.7291
10624SOL     OW32770   2.414   1.251   4.376 -0.4041  0.9380  0.3427
10624SOL    HW132771   2.322   1.241   4.414 -0.4856 -0.1210 -0.0978
10624SOL    HW232772   2.481   1.230   4.447 -0.5499 -0.5357  0.0767
10625SOL     OW32773   4.385   2.582   0.367  0.2929 -0.1453 -0.4222
10625SOL    HW132774   4.366   2.508   0.431 -1.8214 -0.9437 -1.8717
10625SOL    HW232775   4.373   2.549   0.273  1.3707  1.5093 -1.1864
10626SOL     OW32776   0.448   1.131   3.791  0.4591 -0.0018 -0.4355
10626SOL    HW132777   0.517   1.148   3.720  1.1201  1.4740  0.5048
10626SOL    HW232778   0.463   1.040   3.830  2.2474  0.4449  0.0668
10627SOL     OW32779   3.885   5.811   5.571 -0.0030 -0.4857 -0.0070
10627SOL    HW132780   3.809   5.764   5.616 -1.0717  1.3611  0.2424
10627SOL    HW232781   3.855   5.843   5.481  0.0601  1.2510  0.5523
10628SOL     OW32782   2.021   6.434   3.304 -0.4513  0.9269 -0.6618
10628SOL    HW132783   2.043   6.461   3.211  0.1470 -0.7703 -1.0457
10628SOL    HW232784   2.104   6.437   3.360  0.5122 -3.1303 -1.5286
10629SOL     OW32785   1.963   5.555   6.646  0.1422  0.0314  0.1639
10629SOL    HW132786   1.945   5.653   6.639 -1.0394 -0.2654 -1.4048
10629SOL    HW232787   1.893   5.512   6.703  0.2393 -0.0085  0.2531
10630SOL     OW32788   6.006   3.843   1.902 -0.1246  0.1936  0.2683
10630SOL    HW132789   5.962   3.781   1.968  0.9489  0.8818  1.6872
10630SOL    HW232790   5.958   3.931   1.902 -1.6044 -0.5544 -1.6926
10631SOL     OW32791   1.857   5.982   3.219  0.2049  0.5955 -0.1014
10631SOL    HW132792   1.873   6.077   3.243  1.1285  0.0569  1.5220
10631SOL    HW232793   1.759   5.961   3.230  0.0494  1.2497 -0.1655
10632SOL     OW32794   0.817   3.274   2.819 -0.0953 -0.4591 -0.1681
10632SOL    HW132795   0.913   3.275   2.790 -0.2482  0.9210 -0.6949
10632SOL    HW232796   0.802   3.198   2.882  1.3844 -0.5879  0.0625
10633SOL     OW32797   1.942   4.603   5.896  0.4056  0.4247 -0.5477
10633SOL    HW132798   2.035   4.635   5.876  0.6462  0.2141  0.1805
10633SOL    HW232799   1.876   4.675   5.873  0.8811  1.1820  0.3685
10634SOL     OW32800   3.312   0.648   2.833 -0.1466 -0.3128  0.3962
10634SOL    HW132801   3.296   0.586   2.910  1.0497 -0.1488  0.8043
10634SOL    HW232802   3.408   0.642   2.806 -0.4974 -0.1799 -0.9303
10635SOL     OW32803   5.868   6.093   6.558 -0.1087 -0.4174  0.0475
10635SOL    HW132804   5.849   6.008   6.607  1.3685 -1.3139 -0.8536
10635SOL    HW232805   5.927   6.151   6.614 -1.2253  0.0890  0.7177
10636SOL     OW32806   6.069   2.427   0.548  0.2875  0.2752 -0.1409
10636SOL    HW132807   6.006   2.399   0.621  0.8342  0.6587  0.4954
10636SOL    HW232808   6.162   2.429   0.584  0.6293  0.0173 -0.9890
10637SOL     OW32809   3.589   3.957   5.827  0.4605 -0.3927  0.2057
10637SOL    HW132810   3.637   4.033   5.871  0.6284  0.1888 -0.9549
10637SOL    HW232811   3.654   3.904   5.772  0.4579 -1.7136  1.4280
10638SOL     OW32812   6.080   1.148   6.606  0.1966  0.5398 -0.0762
10638SOL    HW132813   6.069   1.077   6.536  2.3747  0.8739 -0.8292
10638SOL    HW232814   6.095   1.236   6.562  2.5368  0.6127  0.7020
10639SOL     OW32815   3.219   1.831   4.003  0.4053 -0.0946  0.6825
10639SOL    HW132816   3.156   1.762   4.040  1.0447  0.2190  2.4364
10639SOL    HW232817   3.174   1.921   4.005 -0.0180 -0.2666 -0.5397
10640SOL     OW32818   6.309   6.228   6.611  0.2989 -0.3519  0.4216
10640SOL    HW132819   6.298   6.169   6.691  0.6773 -1.8462 -0.5915
10640SOL    HW232820   6.368   6.183   6.544 -0.2578  0.7329 -0.8454
10641SOL     OW32821   0.096   0.841   5.864  0.1788  0.7606 -0.0492
10641SOL    HW132822   0.161   0.820   5.791 -0.0092 -1.7270  0.3982
10641SOL    HW232823   0.082   0.759   5.921 -0.7763  2.2034  1.9172
10642SOL     OW32824   0.103   6.926   2.219  0.1872 -0.1551  0.1452
10642SOL    HW132825   0.135   6.867   2.145  0.8698  2.3467 -1.6937
10642SOL    HW232826   0.059   7.008   2.180 -1.3216  0.2953  2.5568
10643SOL     OW32827   5.141   2.827   5.003 -0.2128  0.4509 -0.0441
10643SOL    HW132828   5.125   2.925   5.001 -0.1048  0.5055  1.0318
10643SOL    HW232829   5.076   2.784   5.066  1.3312  0.1813  1.4336
10644SOL     OW32830   2.982   2.220   4.819  0.3127  1.0181 -0.2732
10644SOL    HW132831   3.049   2.259   4.883  1.8432  0.9959 -1.8058
10644SOL    HW232832   2.939   2.140   4.861  3.1374 -0.5593 -0.1748
10645SOL     OW32833   3.307   6.899   3.112 -0.1867 -0.1584 -0.3109
10645SOL    HW132834   3.213   6.894   3.145 -1.0812  2.6436 -2.0962
10645SOL    HW232835   3.370   6.880   3.188 -2.1687  0.1639  1.5039
10646SOL     OW32836   6.771   5.787   1.466 -0.6468 -0.1843  0.1203
10646SOL    HW132837   6.799   5.734   1.385  0.0703 -1.9383  1.4619
10646SOL    HW232838   6.847   5.843   1.498 -0.6943 -0.0714  0.0382
10647SOL     OW32839   4.768   4.833   2.653  0.2798 -0.3605 -0.1491
10647SOL    HW132840   4.753   4.751   2.708  0.1138 -0.0971  0.1960
10647SOL    HW232841   4.732   4.913   2.700  0.2218 -0.1185 -0.5954
10648SOL     OW32842   4.664   2.293   6.217 -0.1677 -0.5698  0.1412
10648SOL    HW132843   4.731   2.351   6.170 -1.5143  0.0302 -1.1050
10648SOL    HW232844   4.643   2.214   6.160  1.0311 -1.9151  1.4722
10649SOL     OW32845   0.146   4.356   0.615  0.1565  0.0511  0.0823
10649SOL    HW132846   0.240   4.322   0.611  0.4483  0.8460 -0.2428
10649SOL    HW232847   0.115   4.377   0.522 -0.9593 -1.7765  0.0101
10650SOL     OW32848   1.337   0.239   5.445  0.0437  0.2993  0.0829
10650SOL    HW132849   1.405   0.249   5.372 -1.1963 -0.9209 -1.3051
10650SOL    HW232850   1.381   0.255   5.534  1.6230  1.6970 -0.8942
10651SOL     OW32851   6.725   0.870   6.548 -0.3247 -0.2042  0.0580
10651SOL    HW132852   6.668   0.944   6.512  0.4468  0.5865  0.4315
10651SOL    HW232853   6.679   0.783   6.533 -1.3357  0.3606 -0.2292
10652SOL     OW32854   4.750   5.809   0.165  0.3363  0.6365 -0.3301
10652SOL    HW132855   4.652   5.802   0.144  0.7119 -1.6752 -1.6679
10652SOL    HW232856   4.763   5.802   0.264 -0.7498 -2.1345 -0.2777
10653SOL     OW32857   0.720   4.009   1.973  0.1449  0.1001 -0.6637
10653SOL    HW132858   0.703   3.914   1.944  1.1199  0.2150 -1.7128
10653SOL    HW232859   0.780   4.009   2.052 -2.2234 -0.2107  1.2495
10654SOL     OW32860   6.275   6.836   1.847  0.3534  0.0887  0.7647
10654SOL    HW132861   6.373   6.854   1.844  0.2730  0.6652  1.3990
10654SOL    HW232862   6.257   6.744   1.813  0.8058  1.0275 -2.3597
10655SOL     OW32863   2.631   0.608   0.478 -0.3856  0.2481 -0.7803
10655SOL    HW132864   2.551   0.615   0.417 -1.0959 -1.1592 -0.0565
10655SOL    HW232865   2.620   0.673   0.553 -1.1697 -0.3662 -0.3508
10656SOL     OW32866   5.161   3.376   6.363 -0.1693  0.6535  0.4124
10656SOL    HW132867   5.166   3.319   6.281 -2.4753  0.8806  0.0479
10656SOL    HW232868   5.216   3.335   6.436 -1.6341 -2.0072  0.1366
10657SOL     OW32869   4.633   0.132   1.885  0.0241  0.2555 -0.3903
10657SOL    HW132870   4.716   0.144   1.831 -0.4685  0.0445 -1.2137
10657SOL    HW232871   4.586   0.220   1.892  1.1212  0.7637  1.4811
10658SOL     OW32872   6.926   0.189   3.917 -0.0519 -0.2238 -0.7465
10658SOL    HW132873   7.019   0.155   3.928  0.5081  1.1886 -0.8393
10658SOL    HW232874   6.924   0.287   3.940 -1.6679 -0.3969  0.0004
10659SOL     OW32875   4.879   1.202   3.486  0.1589  0.4018 -0.1303
10659SOL    HW132876   4.826   1.284   3.507 -1.5455 -1.1573  2.0939
10659SOL    HW232877   4.831   1.148   3.416  0.9065  0.8868 -1.0486
10660SOL     OW32878   4.426   4.622   4.578  0.0487 -0.0872  0.1817
10660SOL    HW132879   4.477   4.645   4.661 -0.9000  1.6654  0.3427
10660SOL    HW232880   4.328   4.623   4.598 -0.2537  1.4095 -1.1432
10661SOL     OW32881   6.794   0.620   1.024  0.9753  0.2953  0.0130
10661SOL    HW132882   6.766   0.607   0.929  0.6501 -0.8034  0.2369
10661SOL    HW232883   6.822   0.714   1.038 -3.7638  1.9737  0.0400
10662SOL     OW32884   0.271   3.156   6.695 -0.0149  0.2766 -0.1742
10662SOL    HW132885   0.251   3.092   6.769  2.6228 -0.2065  0.2103
10662SOL    HW232886   0.266   3.109   6.607 -1.0313  0.3145 -0.1418
10663SOL     OW32887   1.713   3.971   1.736 -0.4604 -0.0390  0.3844
10663SOL    HW132888   1.797   3.932   1.774  0.7837  0.5897 -1.5728
10663SOL    HW232889   1.736   4.030   1.659 -2.6322  1.2472  0.6660
10664SOL     OW32890   2.349   6.207   4.760 -0.5975  0.5983  0.4934
10664SOL    HW132891   2.397   6.271   4.700  2.1946 -1.5632  0.2229
10664SOL    HW232892   2.315   6.130   4.707 -2.1276  0.8191  1.1044
10665SOL     OW32893   4.773   1.185   6.021  0.1668  0.1162 -0.2574
10665SOL    HW132894   4.846   1.130   6.062 -0.3217 -0.0552  0.3999
10665SOL    HW232895   4.709   1.125   5.972  0.3436  0.2428 -0.6474
10666SOL     OW32896   1.699   0.028   0.215  0.1318 -0.3179 -0.3578
10666SOL    HW132897   1.743   0.097   0.273 -0.0156  1.2505 -2.0083
10666SOL    HW232898   1.600   0.031   0.229 -0.0065  0.8147 -1.4021
10667SOL     OW32899   4.026   2.113   5.439  0.2069 -0.2938 -0.2129
10667SOL    HW132900   4.021   2.016   5.414  0.4401 -0.5791  0.7879
10667SOL    HW232901   4.007   2.169   5.359  1.2097 -1.1544 -1.0840
10668SOL     OW32902   7.003   5.344   0.824  0.0393  0.1444 -0.3892
10668SOL    HW132903   6.965   5.273   0.765  1.8314 -0.2509 -1.1315
10668SOL    HW232904   7.097   5.320   0.850 -0.3528  0.7695  1.8867
10669SOL     OW32905   0.807   5.127   0.595  1.0223  0.0544  0.2889
10669SOL    HW132906   0.855   5.039   0.603 -0.4220 -0.7406  0.4685
10669SOL    HW232907   0.712   5.116   0.622 -0.4415  0.5746 -3.9109
10670SOL     OW32908   0.142   5.424   4.567  0.2142 -0.1277  0.4614
10670SOL    HW132909   0.109   5.405   4.475  1.5375 -3.1823  0.4926
10670SOL    HW232910   0.066   5.422   4.631 -0.4343 -0.2718 -0.2984
10671SOL     OW32911   1.359   2.992   5.093 -0.2710  0.4224  0.0722
10671SOL    HW132912   1.299   2.961   5.019  0.1949  0.2169 -0.2255
10671SOL    HW232913   1.434   3.045   5.054  0.1162  0.0971  0.3739
10672SOL     OW32914   5.689   3.549   0.635  0.1305  0.6321 -0.3520
10672SOL    HW132915   5.737   3.592   0.558 -0.2382  1.2207 -0.2662
10672SOL    HW232916   5.699   3.606   0.716  0.4823  0.0312  0.0278
10673SOL     OW32917   3.362   3.219   1.322  0.2999  0.3367  0.0400
10673SOL    HW132918   3.297   3.281   1.366  0.4347  0.9791 -0.6617
10673SOL    HW232919   3.449   3.266   1.307  0.4880 -0.1007 -0.2725
10674SOL     OW32920   3.636   0.244   1.728  0.4870 -0.6601  0.1432
10674SOL    HW132921   3.544   0.284   1.725  1.0995  0.8777  0.5209
10674SOL    HW232922   3.644   0.186   1.809  0.2558  0.3526  0.9276
10675SOL     OW32923   6.943   1.310   5.013  0.7672  0.0515 -0.0409
10675SOL    HW132924   6.872   1.239   5.009  0.8366  0.0289 -1.1903
10675SOL    HW232925   6.909   1.393   4.969 -0.1459  1.5539  3.1570
10676SOL     OW32926   6.541   2.722   0.117  0.6554  1.0347  0.5773
10676SOL    HW132927   6.493   2.701   0.032  1.0235  1.6644  0.2084
10676SOL    HW232928   6.618   2.782   0.098  1.3247  0.3979  1.2339
10677SOL     OW32929   2.662   1.659   0.860  0.0340  0.2425 -0.2039
10677SOL    HW132930   2.570   1.693   0.878  0.2147  0.3063  0.6425
10677SOL    HW232931   2.691   1.600   0.936  0.3089 -0.5870 -0.9375
10678SOL     OW32932   4.467   5.275   4.280  0.0041 -0.2673  0.5032
10678SOL    HW132933   4.374   5.297   4.311  0.2384  1.0808  0.3190
10678SOL    HW232934   4.462   5.206   4.208 -0.6999 -1.6521  1.8339
10679SOL     OW32935   6.337   3.968   2.737  0.0895  0.0229 -0.2944
10679SOL    HW132936   6.354   4.005   2.646  0.0546  0.8635  0.0329
10679SOL    HW232937   6.366   3.872   2.740  1.0616  0.2891 -0.8868
10680SOL     OW32938   0.445   1.467   5.128  0.7286 -0.6395  0.3991
10680SOL    HW132939   0.528   1.464   5.183  0.8311 -4.7934  0.3343
10680SOL    HW232940   0.365   1.454   5.187  0.4502 -0.4563  0.0676
10681SOL     OW32941   1.209   2.464   1.555  0.2587  0.2101 -0.0383
10681SOL    HW132942   1.201   2.469   1.655 -1.2334 -0.5713 -0.0988
10681SOL    HW232943   1.288   2.407   1.531  1.4347  1.4740  0.6650
10682SOL     OW32944   4.631   1.084   2.157 -0.2067 -0.5474  0.1273
10682SOL    HW132945   4.619   1.160   2.094 -0.4529 -1.6428 -1.1800
10682SOL    HW232946   4.664   1.004   2.108 -1.1495 -1.6641  1.2435
10683SOL     OW32947   2.869   0.505   3.908 -0.3416 -0.4243  0.4770
10683SOL    HW132948   2.784   0.495   3.856 -0.5986 -1.4374  1.0729
10683SOL    HW232949   2.853   0.479   4.003  0.1468  1.3003  1.0759
10684SOL     OW32950   6.422   5.650   2.501 -0.0077  0.2406  0.5405
10684SOL    HW132951   6.399   5.684   2.410 -0.3476 -0.5579  0.3189
10684SOL    HW232952   6.473   5.564   2.493  1.7943  1.2060  1.0591
10685SOL     OW32953   0.712   1.615   2.951 -0.0834 -0.0658  0.0152
10685SOL    HW132954   0.717   1.611   3.051 -0.9724  0.1778  0.0806
10685SOL    HW232955   0.802   1.594   2.912  0.7342  1.5707  0.9082
10686SOL     OW32956   6.556   3.871   3.157 -0.0119 -0.2657  0.0018
10686SOL    HW132957   6.610   3.954   3.173  0.0301  0.0052 -1.3999
10686SOL    HW232958   6.465   3.882   3.197 -0.0630  0.5343 -0.3218
10687SOL     OW32959   1.513   6.742   1.015 -0.5418  0.4681 -0.6782
10687SOL    HW132960   1.468   6.703   0.934 -1.4252  0.2843 -0.1040
10687SOL    HW232961   1.558   6.827   0.989 -0.6286  0.3046 -1.4121
10688SOL     OW32962   6.898   3.940   0.410 -0.0727 -0.3788  0.0647
10688SOL    HW132963   6.808   3.910   0.442 -0.0906 -0.3889  0.0055
10688SOL    HW232964   6.886   4.000   0.330 -0.0800  0.4273  0.6597
10689SOL     OW32965   4.633   1.785   2.161 -0.4056 -0.6642  0.2402
10689SOL    HW132966   4.554   1.724   2.173 -1.8200  1.2246  1.1030
10689SOL    HW232967   4.632   1.822   2.069 -0.5709 -0.5800  0.2758
10690SOL     OW32968   3.902   0.788   2.191  0.0542 -0.3514  0.6508
10690SOL    HW132969   3.931   0.863   2.251  2.1793 -0.9668  0.4529
10690SOL    HW232970   3.889   0.705   2.246  2.2501 -0.9805  0.2935
10691SOL     OW32971   5.164   2.206   1.711  0.1142 -0.1137 -0.1710
10691SOL    HW132972   5.110   2.222   1.794  1.6629  0.1080  0.8459
10691SOL    HW232973   5.239   2.273   1.707  3.3409 -3.2817  1.1739
10692SOL     OW32974   6.943   5.659   4.072 -0.1718  0.2832 -0.2588
10692SOL    HW132975   6.996   5.697   4.148  0.1327  1.2317 -0.9244
10692SOL    HW232976   7.001   5.599   4.018 -0.6463 -1.1571  0.7786
10693SOL     OW32977   4.902   2.704   5.117  0.0753  0.7541  0.1290
10693SOL    HW132978   4.856   2.751   5.193 -1.0071 -0.2184  0.0985
10693SOL    HW232979   4.907   2.607   5.137  2.6084  0.8743  0.3420
10694SOL     OW32980   1.814   0.744   6.700  0.1300  0.5986  0.1724
10694SOL    HW132981   1.896   0.750   6.755 -1.2137 -0.4266  2.4281
10694SOL    HW232982   1.768   0.657   6.717 -1.5778  1.2438 -0.8087
10695SOL     OW32983   4.653   2.729   5.564 -0.4384  0.3071 -0.0196
10695SOL    HW132984   4.568   2.780   5.578  0.6683  1.8693  1.3929
10695SOL    HW232985   4.660   2.657   5.633 -0.4232  0.4559  0.1353
10696SOL     OW32986   5.588   1.672   1.096  0.0858  0.5691 -0.2981
10696SOL    HW132987   5.613   1.674   0.999  1.7571  0.3421  0.1142
10696SOL    HW232988   5.663   1.635   1.150 -0.8654  0.5824  1.0981
10697SOL     OW32989   1.938   5.115   1.621  0.2170  0.0347 -0.1156
10697SOL    HW132990   2.017   5.171   1.647  0.7538 -1.2778  1.1840
10697SOL    HW232991   1.883   5.096   1.702 -2.1318  1.8692 -1.1553
10698SOL     OW32992   3.625   6.099   3.742  0.0695  0.0222 -0.2443
10698SOL    HW132993   3.707   6.152   3.762 -0.8754  0.3925  3.3141
10698SOL    HW232994   3.545   6.146   3.779 -1.4100 -1.6703 -1.1287
10699SOL     OW32995   6.988   3.532   3.577  0.5802 -0.2237 -0.2710
10699SOL    HW132996   6.939   3.616   3.601  0.6615  0.0881 -1.1677
10699SOL    HW232997   7.039   3.546   3.492  0.4975 -1.2127 -0.4976
10700SOL     OW32998   7.010   1.868   3.831  0.3432 -0.1121  0.6602
10700SOL    HW132999   6.989   1.782   3.877 -1.4848 -0.3292 -0.4535
10700SOL    HW233000   7.109   1.878   3.822  0.6041 -2.2581  0.5216
10701SOL     OW33001   1.297   0.373   2.430  0.1156 -0.0926 -0.4086
10701SOL    HW133002   1.354   0.301   2.469  0.9300  0.7474 -0.0263
10701SOL    HW233003   1.312   0.458   2.480  0.0034  0.6208 -1.5614
10702SOL     OW33004   4.888   3.015   1.755  0.0963 -0.5581  0.6199
10702SOL    HW133005   4.814   3.039   1.818  0.5925 -0.0458  1.0211
10702SOL    HW233006   4.975   3.050   1.790  0.3220  0.1677 -0.5834
10703SOL     OW33007   3.751   3.274   3.474 -0.0028 -0.0146  0.2179
10703SOL    HW133008   3.666   3.300   3.427 -1.8344 -0.4890  3.0101
10703SOL    HW233009   3.766   3.176   3.463 -0.2112 -0.0549  0.2768
10704SOL     OW33010   6.759   4.785   1.743  0.0377  0.0947  1.0664
10704SOL    HW133011   6.714   4.870   1.717  1.3611  0.4853 -0.0873
10704SOL    HW233012   6.826   4.804   1.815 -1.3830 -0.4406  2.5992
10705SOL     OW33013   2.790   3.127   0.581  0.1643  0.6000 -0.2159
10705SOL    HW133014   2.779   3.136   0.482  0.6649 -1.0230 -0.4482
10705SOL    HW233015   2.874   3.173   0.609  0.1022  0.9375 -0.5637
10706SOL     OW33016   2.543   3.378   1.745  0.0478  0.4200 -0.4878
10706SOL    HW133017   2.606   3.409   1.817  0.3773 -0.7031 -0.2628
10706SOL    HW233018   2.449   3.387   1.777  0.2022 -0.5702  0.3378
10707SOL     OW33019   5.991   0.685   0.101 -0.4474  0.6234 -0.1708
10707SOL    HW133020   5.914   0.650   0.048  0.6026 -1.7121 -0.2746
10707SOL    HW233021   6.015   0.619   0.172  1.3901  1.3692 -0.0482
10708SOL     OW33022   4.067   3.826   1.259 -0.0793 -0.1530 -0.0459
10708SOL    HW133023   4.110   3.884   1.329  1.6938 -2.3884  0.8650
10708SOL    HW233024   4.105   3.848   1.169 -0.8373  1.3332 -0.0311
10709SOL     OW33025   0.274   1.351   6.054  0.0503  0.5954 -0.0133
10709SOL    HW133026   0.254   1.274   6.116 -1.4584  0.7607 -0.2454
10709SOL    HW233027   0.327   1.420   6.103  2.1072 -0.9106 -0.0247
10710SOL     OW33028   1.867   1.133   3.112 -0.1631 -0.5106  0.3085
10710SOL    HW133029   1.785   1.190   3.101 -0.9985 -1.8279 -0.5347
10710SOL    HW233030   1.873   1.100   3.206 -1.0352 -1.0162  0.1984
10711SOL     OW33031   0.918   4.324   5.906  0.2916  0.3557 -0.6519
10711SOL    HW133032   0.932   4.238   5.857  0.2633  0.9703 -1.7652
10711SOL    HW233033   0.834   4.368   5.874  0.0614  0.5852  0.2366
10712SOL     OW33034   4.778   1.376   5.580 -0.1100 -0.3356 -0.2546
10712SOL    HW133035   4.781   1.384   5.480 -2.3093 -1.5750 -0.4839
10712SOL    HW233036   4.689   1.341   5.608  0.7818 -0.9053  2.1056
10713SOL     OW33037   2.509   2.232   6.343  0.4474  0.5182  0.1084
10713SOL    HW133038   2.589   2.259   6.290 -0.1823  0.3886 -0.9528
10713SOL    HW233039   2.524   2.252   6.439  1.5107  1.0511 -0.1510
10714SOL     OW33040   3.254   5.090   4.765 -0.2698 -0.3724  0.0296
10714SOL    HW133041   3.217   5.038   4.842 -1.8798 -0.6087 -0.8551
10714SOL    HW233042   3.213   5.056   4.680  0.4904  0.7414 -0.8068
10715SOL     OW33043   6.707   6.377   3.914 -0.0204  0.0547  0.1680
10715SOL    HW133044   6.650   6.415   3.840 -1.5856 -0.1768  1.2086
10715SOL    HW233045   6.685   6.281   3.927  2.1993 -0.6561 -0.8281
10716SOL     OW33046   0.612   2.678   2.175 -0.3455 -0.6533 -0.2263
10716SOL    HW133047   0.545   2.691   2.248 -0.0468 -0.5907  0.0379
10716SOL    HW233048   0.689   2.740   2.188 -1.6181  1.4915 -2.2221
10717SOL     OW33049   0.699   0.151   3.291  0.3963  0.3965 -0.3017
10717SOL    HW133050   0.755   0.104   3.223  0.1201 -0.3469 -0.0226
10717SOL    HW233051   0.757   0.188   3.363  0.7740  1.8408 -1.3024
10718SOL     OW33052   2.169   4.220   4.900  0.0756  0.0808 -0.0525
10718SOL    HW133053   2.129   4.268   4.978 -1.4490  0.3687 -0.9868
10718SOL    HW233054   2.225   4.144   4.934 -1.0182 -0.1624  1.3049
10719SOL     OW33055   7.004   3.774   4.355 -0.3573  0.2956 -0.2325
10719SOL    HW133056   6.991   3.843   4.426 -2.1379  0.1126 -0.3353
10719SOL    HW233057   6.924   3.715   4.351  0.5429 -0.9229 -1.0936
10720SOL     OW33058   6.983   2.758   6.892 -0.2659  0.1186  0.4851
10720SOL    HW133059   7.028   2.671   6.874 -1.9974 -0.9617  1.0837
10720SOL    HW233060   6.953   2.799   6.806  3.0886  1.6513 -0.0903
10721SOL     OW33061   5.136   0.961   4.134  0.2406  0.3852 -0.6099
10721SOL    HW133062   5.173   1.046   4.096 -0.6987  0.4409 -1.4289
10721SOL    HW233063   5.061   0.983   4.196  1.2004  0.2419  0.6446
10722SOL     OW33064   0.335   3.451   0.455  0.4838  0.3935  0.5877
10722SOL    HW133065   0.367   3.476   0.364  1.5524 -0.6840  0.6490
10722SOL    HW233066   0.360   3.357   0.476 -0.9783  0.1567  1.4660
10723SOL     OW33067   0.559   5.228   6.230 -0.0993  0.1036 -0.0395
10723SOL    HW133068   0.564   5.138   6.188 -0.3714  1.5702 -3.5449
10723SOL    HW233069   0.631   5.287   6.192  0.1768  1.3698  2.2651
10724SOL     OW33070   4.198   6.283   5.777  0.0613 -0.2698  0.2868
10724SOL    HW133071   4.180   6.226   5.696 -0.4726 -0.0051  0.2125
10724SOL    HW233072   4.116   6.287   5.834  0.6484 -1.0252  1.2140
10725SOL     OW33073   0.688   1.438   5.789 -0.2463 -0.5977  0.2414
10725SOL    HW133074   0.727   1.479   5.707  2.0355 -1.0055  1.0387
10725SOL    HW233075   0.590   1.456   5.793 -0.3417 -0.2637 -2.3546
10726SOL     OW33076   5.129   6.689   2.576  0.1318 -0.1734  0.2632
10726SOL    HW133077   5.087   6.602   2.551  1.6054 -1.2344  1.2530
10726SOL    HW233078   5.185   6.723   2.500 -0.1497 -0.2822  0.0076
10727SOL     OW33079   6.098   4.576   3.986 -0.1450 -0.0120  0.2965
10727SOL    HW133080   6.086   4.563   4.085  1.3064  0.1412  0.5168
10727SOL    HW233081   6.113   4.673   3.967  1.1749 -0.2320  0.1339
10728SOL     OW33082   5.614   0.268   4.271  0.5173 -0.0052 -0.0868
10728SOL    HW133083   5.533   0.213   4.250 -0.3388  0.9958  0.5079
10728SOL    HW233084   5.626   0.275   4.370 -0.0684  1.7755 -0.0998
10729SOL     OW33085   0.004   4.326   4.683  0.0328  0.1494 -0.3605
10729SOL    HW133086  -0.083   4.279   4.697  0.2165  0.2954  1.6637
10729SOL    HW233087   0.015   4.397   4.753  1.5932  0.4045 -0.8222
10730SOL     OW33088   1.595   1.423   4.572 -0.2063  0.1959  0.6526
10730SOL    HW133089   1.644   1.383   4.495  0.5228  0.8895  0.7351
10730SOL    HW233090   1.521   1.481   4.539 -0.6273 -0.4294  0.5064
10731SOL     OW33091   2.818   5.140   6.438 -0.0312 -0.1296  0.4734
10731SOL    HW133092   2.730   5.186   6.428  0.0373  0.2770  1.5526
10731SOL    HW233093   2.814   5.077   6.515 -0.3329 -2.5210 -1.3992
10732SOL     OW33094   6.984   4.907   1.518 -0.1200  0.6608  0.2958
10732SOL    HW133095   6.997   4.892   1.615 -0.1654 -0.2107  0.1747
10732SOL    HW233096   7.030   4.835   1.466 -1.1824  0.3669 -0.2755
10733SOL     OW33097   6.702   3.162   6.686  0.2859 -0.7108 -0.6329
10733SOL    HW133098   6.656   3.230   6.629  2.3462 -0.5971 -2.3047
10733SOL    HW233099   6.782   3.127   6.638 -0.2625 -3.8194  0.4953
10734SOL     OW33100   1.885   2.138   4.475  0.8188  0.8802  0.4106
10734SOL    HW133101   1.808   2.099   4.423  1.9839  0.8123 -1.3360
10734SOL    HW233102   1.931   2.066   4.526 -0.5239  0.9973  1.8708
10735SOL     OW33103   6.660   0.195   1.218 -0.0238 -0.2527  0.1679
10735SOL    HW133104   6.577   0.238   1.253  1.0286  2.6428 -0.6022
10735SOL    HW233105   6.723   0.178   1.294 -0.1021  0.4352  0.3900
10736SOL     OW33106   6.044   1.478   3.869  0.2627 -0.0527 -0.1686
10736SOL    HW133107   5.971   1.541   3.843 -0.8021 -0.5455  1.4589
10736SOL    HW233108   6.077   1.430   3.787 -1.3471  0.0844 -0.9479
10737SOL     OW33109   4.402   2.780   0.537  0.5425  0.4629  0.4978
10737SOL    HW133110   4.395   2.690   0.493  1.8954  0.4425  0.2772
10737SOL    HW233111   4.386   2.770   0.635 -1.1743  0.3013  0.2338
10738SOL     OW33112   0.676   6.596   1.661 -0.0094  0.2181  0.0889
10738SOL    HW133113   0.638   6.535   1.591 -2.5095  1.1067  0.5815
10738SOL    HW233114   0.627   6.683   1.660  0.1411  0.4086  2.6605
10739SOL     OW33115   5.856   2.719   3.429 -0.5764 -0.1981  0.0482
10739SOL    HW133116   5.952   2.744   3.428 -0.7753  0.5991 -0.9246
10739SOL    HW233117   5.831   2.684   3.520  0.7533 -0.9896  0.1329
10740SOL     OW33118   2.639   2.143   1.740 -0.1701 -0.1106  0.1150
10740SOL    HW133119   2.592   2.221   1.783  1.1806  0.3830  0.7477
10740SOL    HW233120   2.703   2.103   1.805 -0.3418 -1.3302 -0.4457
10741SOL     OW33121   2.567   2.461   4.224  0.1688 -0.2680  0.0361
10741SOL    HW133122   2.489   2.403   4.247 -0.5956 -0.1327 -2.0601
10741SOL    HW233123   2.543   2.557   4.242  0.3696 -0.3309  0.6814
10742SOL     OW33124   0.447   6.861   3.764 -0.4520 -0.4521 -0.5781
10742SOL    HW133125   0.536   6.866   3.718 -0.4178  1.1014 -0.4153
10742SOL    HW233126   0.413   6.954   3.781 -2.1618 -1.0014 -0.7276
10743SOL     OW33127   3.468   3.822   4.104 -0.3647  0.0500 -0.6156
10743SOL    HW133128   3.539   3.767   4.149  0.8914  2.6033  0.6998
10743SOL    HW233129   3.396   3.843   4.171  0.3348  1.8872 -0.3838
10744SOL     OW33130   3.513   1.819   2.826 -0.3244 -0.2727  0.3558
10744SOL    HW133131   3.572   1.758   2.879 -1.9060 -0.3357  2.1598
10744SOL    HW233132   3.454   1.764   2.766  1.7185 -0.1834 -1.8424
10745SOL     OW33133   3.466   5.431   1.995 -0.1073 -0.2792 -0.2589
10745SOL    HW133134   3.452   5.454   1.899 -0.1131  0.7404 -0.0220
10745SOL    HW233135   3.413   5.492   2.053 -1.3441 -1.8723  0.3701
10746SOL     OW33136   3.448   5.803   4.262 -0.3271  0.1438  0.7690
10746SOL    HW133137   3.414   5.852   4.182 -0.0981  0.3667  0.8086
10746SOL    HW233138   3.459   5.867   4.338 -0.2489 -0.0113  0.8881
10747SOL     OW33139   5.795   1.058   4.497 -0.2670 -0.3430 -0.3847
10747SOL    HW133140   5.854   1.137   4.511  0.7790 -1.1580 -0.0032
10747SOL    HW233141   5.715   1.084   4.444  1.1109  0.5110 -2.1139
10748SOL     OW33142   3.475   5.758   2.394 -0.0440  0.9260 -0.0237
10748SOL    HW133143   3.575   5.767   2.388 -0.0805  1.8605  0.6173
10748SOL    HW233144   3.444   5.787   2.485 -0.7281 -1.1008  0.4248
10749SOL     OW33145   0.713   2.460   3.037 -0.7785 -0.0181 -0.1050
10749SOL    HW133146   0.697   2.365   3.010  0.1940 -0.5743  1.1404
10749SOL    HW233147   0.738   2.463   3.134 -0.8874  1.5321 -0.0976
10750SOL     OW33148   2.675   2.397   4.522  0.3682  0.5095  0.1352
10750SOL    HW133149   2.596   2.453   4.547 -0.5521 -0.3110 -0.8155
10750SOL    HW233150   2.751   2.456   4.494  0.6503  1.3773  2.4708
10751SOL     OW33151   4.849   6.284   3.701  0.4219  0.1919  0.0561
10751SOL    HW133152   4.899   6.337   3.631  1.1493  0.1958  0.5666
10751SOL    HW233153   4.844   6.188   3.673 -1.4836  0.6013 -1.2007
10752SOL     OW33154   6.625   6.473   6.074 -0.2951 -0.9328 -0.3919
10752SOL    HW133155   6.663   6.514   6.157 -2.3533  0.6899 -0.1449
10752SOL    HW233156   6.647   6.529   5.995  0.3575 -1.6397 -0.7249
10753SOL     OW33157   6.789   6.767   5.112  0.0214  0.3238 -0.1324
10753SOL    HW133158   6.810   6.751   5.209 -0.0061  1.1350  0.0186
10753SOL    HW233159   6.721   6.702   5.082 -0.6891  0.6715  0.6725
10754SOL     OW33160   0.285   5.652   1.660  0.4159  0.1429  0.1836
10754SOL    HW133161   0.371   5.663   1.611 -0.3171  2.4974 -0.7436
10754SOL    HW233162   0.209   5.674   1.599 -0.6495  1.0534  1.7631
10755SOL     OW33163   1.644   1.430   2.471 -0.2497 -0.4191 -0.4678
10755SOL    HW133164   1.741   1.449   2.481 -0.6953  1.3407  0.9321
10755SOL    HW233165   1.607   1.397   2.558 -0.9840 -0.7295 -0.8811
10756SOL     OW33166   1.319   2.020   6.948 -0.1808  1.2287  0.0200
10756SOL    HW133167   1.268   1.972   6.876  1.0152  0.4873 -0.3527
10756SOL    HW233168   1.417   2.001   6.938 -0.0117  0.7242  2.1108
10757SOL     OW33169   6.160   2.967   4.266  0.5613 -0.2791  0.8035
10757SOL    HW133170   6.079   3.026   4.276  1.2013  0.4854  1.6127
10757SOL    HW233171   6.191   2.970   4.171 -1.6336 -2.3290 -0.0886
10758SOL     OW33172   0.581   0.281   0.085  0.5551 -0.4424 -0.5644
10758SOL    HW133173   0.628   0.193   0.073  0.3590 -0.6984  0.4239
10758SOL    HW233174   0.483   0.267   0.078  0.5060 -0.3669 -0.0677
10759SOL     OW33175   4.184   4.174   5.482  0.2832  0.0090 -0.4252
10759SOL    HW133176   4.251   4.131   5.543  1.0999 -0.2898 -1.5086
10759SOL    HW233177   4.231   4.240   5.423  0.0749 -1.7847 -2.7312
10760SOL     OW33178   0.011   3.868   5.840  0.1689 -0.5021 -0.0477
10760SOL    HW133179   0.039   3.792   5.898  0.9844  1.1507  1.8263
10760SOL    HW233180   0.087   3.894   5.781  0.4718 -0.0492  0.5384
10761SOL     OW33181   0.155   0.805   6.727  0.2164  0.2057  0.5841
10761SOL    HW133182   0.057   0.824   6.729 -0.0025 -0.6472 -0.7673
10761SOL    HW233183   0.171   0.721   6.675  1.4964 -0.8139  2.5311
10762SOL     OW33184   3.248   0.164   0.074  0.0582 -0.2160  0.1257
10762SOL    HW133185   3.189   0.160  -0.007  1.4530  0.0508 -0.9360
10762SOL    HW233186   3.232   0.251   0.122 -0.2619 -0.0560 -0.2625
10763SOL     OW33187   4.290   3.420   1.781 -0.0132 -0.1296 -0.1748
10763SOL    HW133188   4.227   3.344   1.762 -0.4674 -0.5007  2.4142
10763SOL    HW233189   4.383   3.393   1.755 -0.1910 -1.5613  0.5625
10764SOL     OW33190   5.975   1.613   3.152  0.3235 -0.0804 -0.4082
10764SOL    HW133191   5.895   1.611   3.093  0.3317  1.1594 -0.4811
10764SOL    HW233192   5.952   1.574   3.241 -0.3647  0.2568 -0.4358
10765SOL     OW33193   1.138   3.503   2.259  0.2058 -0.4766  0.0907
10765SOL    HW133194   1.173   3.481   2.167  2.1011 -2.0898  1.1316
10765SOL    HW233195   1.127   3.602   2.266  0.8350 -0.2323 -1.6163
10766SOL     OW33196   2.906   6.914   0.447 -0.4470  0.3687 -0.3328
10766SOL    HW133197   2.932   6.895   0.542  0.2830 -1.4913 -0.8651
10766SOL    HW233198   2.821   6.866   0.426 -0.9309  1.2618 -0.4756
10767SOL     OW33199   0.815   5.208   6.970 -0.0546  0.4355 -0.4815
10767SOL    HW133200   0.866   5.291   6.991  2.9288 -1.1942 -0.7347
10767SOL    HW233201   0.843   5.173   6.880  2.9103 -3.4934  1.6009
10768SOL     OW33202   5.734   6.251   6.928  0.3138  0.0605 -0.0787
10768SOL    HW133203   5.691   6.244   6.838  2.2543  0.1964 -1.0871
10768SOL    HW233204   5.807   6.319   6.924 -0.9890  1.7289  2.2478
10769SOL     OW33205   3.692   2.899   4.337 -0.0265 -0.0736 -0.5956
10769SOL    HW133206   3.671   2.887   4.434 -0.1229  2.0297 -0.3176
10769SOL    HW233207   3.791   2.910   4.325  0.0213 -0.6597 -0.8007
10770SOL     OW33208   4.219   0.692   5.732 -0.4163  0.3732  0.7424
10770SOL    HW133209   4.267   0.626   5.790  0.3249 -0.3663 -0.6625
10770SOL    HW233210   4.123   0.665   5.725 -0.4150  0.2151  1.2633
10771SOL     OW33211   4.539   5.858   5.039 -0.3175 -0.3424 -0.8599
10771SOL    HW133212   4.614   5.920   5.016 -1.6823  1.3856 -0.7789
10771SOL    HW233213   4.483   5.842   4.958 -1.8580  1.2236 -0.1713
10772SOL     OW33214   5.027   2.069   3.822  0.7134  0.3992  0.3657
10772SOL    HW133215   4.991   2.085   3.730  0.3660  0.9289  0.5897
10772SOL    HW233216   5.093   2.140   3.845  0.0448  0.8585  0.9114
10773SOL     OW33217   1.824   4.678   0.905  0.0867  0.3644  0.6228
10773SOL    HW133218   1.778   4.595   0.873  0.2095  1.0845 -1.6105
10773SOL    HW233219   1.907   4.693   0.851 -0.4765  2.4574  0.2387
10774SOL     OW33220   0.392   1.568   1.965  0.0434  0.6386 -0.0924
10774SOL    HW133221   0.377   1.475   1.932 -0.3149  1.1090 -1.3146
10774SOL    HW233222   0.402   1.567   2.065  1.5884 -0.8918 -0.2113
10775SOL     OW33223   2.144   2.529   0.118 -0.0816  0.1276 -0.2411
10775SOL    HW133224   2.075   2.572   0.177 -0.3061  0.7128 -0.9174
10775SOL    HW233225   2.102   2.451   0.070 -0.2553  0.4304 -0.5867
10776SOL     OW33226   1.883   3.291   3.768  0.2970 -0.2247  0.2523
10776SOL    HW133227   1.790   3.257   3.756 -0.5502  2.3176 -1.2269
10776SOL    HW233228   1.898   3.370   3.707  2.9420  0.3712  1.5115
10777SOL     OW33229   0.011   6.626   3.724  0.4163 -0.1309 -0.3672
10777SOL    HW133230  -0.023   6.587   3.639 -2.2987  0.1386  0.4986
10777SOL    HW233231  -0.051   6.602   3.799  0.4215  3.0155  0.8019
10778SOL     OW33232   4.097   6.655   3.723  0.1000 -0.0426  0.8237
10778SOL    HW133233   4.007   6.610   3.725  0.1242 -0.0955  0.6887
10778SOL    HW233234   4.153   6.619   3.798  0.1924 -0.3855  0.5911
10779SOL     OW33235   6.961   1.818   4.270  0.3838  0.1418 -0.5841
10779SOL    HW133236   6.887   1.838   4.206  0.4438  0.2917 -0.6070
10779SOL    HW233237   6.926   1.821   4.364  0.4817  0.7861 -0.5606
10780SOL     OW33238   0.755   6.619   3.136  0.2722 -0.6381 -0.1856
10780SOL    HW133239   0.692   6.679   3.185 -0.8550 -1.0930 -1.0231
10780SOL    HW233240   0.755   6.529   3.180  0.1192 -0.7180 -0.3476
10781SOL     OW33241   6.089   4.628   5.028 -0.1028 -0.2267 -0.5309
10781SOL    HW133242   6.104   4.671   5.118  2.8854  0.4619 -1.2503
10781SOL    HW233243   6.156   4.556   5.015 -1.7579 -1.6674 -1.4966
10782SOL     OW33244   1.228   3.651   6.771  0.2093  0.2512 -0.2702
10782SOL    HW133245   1.278   3.573   6.732  0.5542  0.5254 -0.3800
10782SOL    HW233246   1.222   3.724   6.704  0.8181  0.7279  0.1802
10783SOL     OW33247   2.394   4.487   2.979 -0.8090  0.0642 -0.0298
10783SOL    HW133248   2.333   4.559   2.947 -0.0235  0.2561 -1.1283
10783SOL    HW233249   2.353   4.443   3.060 -2.2633  0.3654 -0.5624
10784SOL     OW33250   6.223   5.194   4.066  0.1186 -0.5832  0.6069
10784SOL    HW133251   6.226   5.238   4.155  0.6915 -2.1462  1.3913
10784SOL    HW233252   6.238   5.096   4.076  0.5716 -0.7464 -1.2452
10785SOL     OW33253   2.664   6.514   1.604  0.1916  0.6946 -0.0888
10785SOL    HW133254   2.648   6.612   1.615 -1.5597  0.5042 -0.5768
10785SOL    HW233255   2.595   6.463   1.657  0.2889 -0.2528 -0.8512
10786SOL     OW33256   5.148   1.788   1.710 -0.0592 -0.4008  0.0603
10786SOL    HW133257   5.101   1.706   1.677 -0.3646 -0.1364 -0.1577
10786SOL    HW233258   5.112   1.813   1.800 -1.8723  1.0279 -0.9854
10787SOL     OW33259   3.871   1.896   1.632  0.2351 -0.3551  1.0443
10787SOL    HW133260   3.825   1.942   1.708 -0.8633  1.4017 -0.6015
10787SOL    HW233261   3.864   1.952   1.550  0.8343 -2.4615 -0.5266
10788SOL     OW33262   2.292   2.987   0.648  0.3604 -0.3733 -0.0715
10788SOL    HW133263   2.377   2.936   0.638  0.7181  0.1532  0.2334
10788SOL    HW233264   2.311   3.077   0.687 -0.4323 -0.5962  0.8795
10789SOL     OW33265   1.566   2.211   1.933 -0.4360 -0.4029 -0.2004
10789SOL    HW133266   1.598   2.160   2.013 -0.5111 -1.1615 -0.6395
10789SOL    HW233267   1.525   2.147   1.868 -2.6110  0.4932  0.2125
10790SOL     OW33268   6.974   2.461   3.233 -0.0653  0.4719  0.2592
10790SOL    HW133269   6.882   2.447   3.198 -0.6315  0.4746  1.6765
10790SOL    HW233270   7.000   2.383   3.291  1.3615 -0.1781 -1.1588
10791SOL     OW33271   2.377   1.417   3.636 -0.0291 -0.1008  0.0017
10791SOL    HW133272   2.452   1.480   3.656 -0.4376 -0.1642  1.9347
10791SOL    HW233273   2.413   1.336   3.591  1.1469 -0.2610  1.1580
10792SOL     OW33274   2.359   0.966   1.768  0.8100  0.1687 -0.3568
10792SOL    HW133275   2.368   0.872   1.734  2.5167  0.3681 -0.5688
10792SOL    HW233276   2.440   0.990   1.820  0.4206  1.5522 -0.3540
10793SOL     OW33277   3.948   1.963   2.898 -0.7986 -0.4317 -0.3857
10793SOL    HW133278   3.913   2.019   2.974 -1.4660  0.0954 -1.0638
10793SOL    HW233279   3.907   1.872   2.902 -1.7645 -0.0296 -0.7862
10794SOL     OW33280   5.430   3.448   5.570  0.2002  0.3635  0.5113
10794SOL    HW133281   5.336   3.423   5.595  0.1830 -2.0682 -1.6409
10794SOL    HW233282   5.493   3.376   5.599  1.1987  1.1686  0.3943
10795SOL     OW33283   5.281   1.344   4.770 -0.3670  0.4433  0.1052
10795SOL    HW133284   5.295   1.281   4.847  0.0946  0.4411  0.0187
10795SOL    HW233285   5.296   1.295   4.684 -0.8982  0.4417  0.0098
10796SOL     OW33286   0.509   1.007   1.168 -0.0158  0.6213  0.5679
10796SOL    HW133287   0.436   1.025   1.234 -0.4325 -0.2151  0.3508
10796SOL    HW233288   0.594   0.989   1.217 -0.2631  0.2602  0.8766
10797SOL     OW33289   5.950   4.081   6.978  0.0620 -0.4752  0.2580
10797SOL    HW133290   5.856   4.109   6.958 -0.2566 -0.1941  2.0188
10797SOL    HW233291   5.954   4.036   7.067  1.4694 -1.2749 -0.1670
10798SOL     OW33292   1.309   1.373   6.411 -0.2300 -0.0298 -0.1345
10798SOL    HW133293   1.374   1.338   6.343 -0.5219 -0.2681 -0.2890
10798SOL    HW233294   1.251   1.299   6.443 -0.9469  0.3382 -0.5689
10799SOL     OW33295   3.047   0.020   2.770  0.2076 -0.1581 -0.3770
10799SOL    HW133296   3.012  -0.048   2.834  0.7669  0.6818  0.8591
10799SOL    HW233297   3.147   0.013   2.765  0.3932  1.2529  0.6331
10800SOL     OW33298   6.676   1.335   4.809 -0.0665 -0.0242  0.0717
10800SOL    HW133299   6.753   1.384   4.768 -1.0485  2.1545  0.6860
10800SOL    HW233300   6.627   1.286   4.737 -0.6143  2.1267 -1.1213
10801SOL     OW33301   2.899   6.202   5.714 -0.3932  0.0380  0.0635
10801SOL    HW133302   2.946   6.280   5.673 -0.0870 -0.6653 -0.9573
10801SOL    HW233303   2.801   6.218   5.715 -0.3336  0.4270 -0.1489
10802SOL     OW33304   1.579   4.883   5.019 -0.2454  0.0492 -0.8996
10802SOL    HW133305   1.501   4.923   5.067  0.1933  0.0372 -0.1749
10802SOL    HW233306   1.633   4.828   5.082  0.8967  0.8387 -1.1516
10803SOL     OW33307   1.753   5.428   5.196 -0.0922 -0.1308  0.2114
10803SOL    HW133308   1.847   5.431   5.161  0.4759  1.1973  1.7190
10803SOL    HW233309   1.724   5.520   5.221 -0.9603 -0.8236  1.9026
10804SOL     OW33310   4.572   5.788   5.318 -0.0130 -0.0630  0.1284
10804SOL    HW133311   4.553   5.831   5.230 -1.6170 -1.3993 -0.2223
10804SOL    HW233312   4.532   5.697   5.321  0.5653 -0.3185  2.0187
10805SOL     OW33313   3.661   4.993   5.604 -0.6810 -0.0369 -0.2163
10805SOL    HW133314   3.629   4.962   5.514  3.5702  3.0601 -3.1890
10805SOL    HW233315   3.617   5.080   5.627  1.0339  1.1972 -1.3897
10806SOL     OW33316   6.680   2.178   6.849  0.0493  0.1416  0.6707
10806SOL    HW133317   6.630   2.258   6.817 -2.6032 -1.5305  0.3381
10806SOL    HW233318   6.705   2.121   6.772  1.3414  0.2827  0.9590
10807SOL     OW33319   5.102   2.772   5.356  0.6444 -0.8594  0.6533
10807SOL    HW133320   5.078   2.858   5.310  2.1852 -0.8296 -0.1598
10807SOL    HW233321   5.028   2.747   5.419 -0.0592  0.7986  0.5632
10808SOL     OW33322   1.370   3.623   1.715 -0.4765 -0.9268 -0.1886
10808SOL    HW133323   1.271   3.630   1.725 -0.9049 -1.2140 -3.2750
10808SOL    HW233324   1.409   3.715   1.710 -0.7712 -0.8111 -0.3802
10809SOL     OW33325   2.350   0.193   2.230  0.1199  0.2235 -0.6010
10809SOL    HW133326   2.284   0.246   2.176 -0.4339 -0.6348 -0.7929
10809SOL    HW233327   2.311   0.103   2.251  0.4281  0.4334  1.0200
10810SOL     OW33328   0.450   2.129   5.827  0.2595 -0.2058  0.3326
10810SOL    HW133329   0.440   2.157   5.731 -1.0424 -1.2313  0.1315
10810SOL    HW233330   0.532   2.170   5.865  0.9750 -0.0045 -1.3157
10811SOL     OW33331   4.259   5.079   5.980  0.7372  0.3242  0.5642
10811SOL    HW133332   4.349   5.098   6.018  0.4349 -1.2341  2.2380
10811SOL    HW233333   4.194   5.150   6.009  0.9361  0.1806  1.3810
10812SOL     OW33334   0.629   2.234   3.458 -0.0117  0.3128 -0.6211
10812SOL    HW133335   0.690   2.259   3.533  1.4125 -0.2481 -1.5320
10812SOL    HW233336   0.564   2.308   3.441  0.9809  1.3227 -0.1575
10813SOL     OW33337   3.614   5.200   1.321  0.1103 -1.0971 -0.0811
10813SOL    HW133338   3.680   5.173   1.390 -0.4223 -2.8884 -0.2244
10813SOL    HW233339   3.525   5.213   1.364  0.0064 -1.1956 -0.2656
10814SOL     OW33340   2.364   6.044   3.434  0.2027  0.0738  0.1155
10814SOL    HW133341   2.370   6.084   3.342 -1.8181  0.8453  0.2689
10814SOL    HW233342   2.449   6.063   3.484  0.6985  1.0408 -1.0340
10815SOL     OW33343   5.655   4.542   3.754  0.1122 -0.1441 -0.2448
10815SOL    HW133344   5.725   4.566   3.686  0.4035 -2.6706 -0.9389
10815SOL    HW233345   5.587   4.616   3.759  0.5700  0.5275 -2.6278
10816SOL     OW33346   1.803   1.279   0.896 -0.2834 -0.5744 -0.3571
10816SOL    HW133347   1.896   1.310   0.916 -0.1835 -0.2442 -1.2616
10816SOL    HW233348   1.754   1.352   0.848 -1.3191 -0.3953  0.9204
10817SOL     OW33349   3.529   0.873   1.803 -0.6836 -0.2230  0.3073
10817SOL    HW133350   3.438   0.841   1.830 -0.6803 -0.9084 -0.4915
10817SOL    HW233351   3.550   0.844   1.710  0.4350 -0.2268  0.5410
10818SOL     OW33352   5.334   4.193   4.681 -0.3073  0.3665 -0.5624
10818SOL    HW133353   5.379   4.271   4.637 -0.3119  0.8422  0.2764
10818SOL    HW233354   5.397   4.151   4.747  0.9650 -2.3502 -3.2039
10819SOL     OW33355   1.875   3.011   4.332  0.6298  0.7923  0.1873
10819SOL    HW133356   1.904   3.045   4.421 -1.9912  0.8091  1.1253
10819SOL    HW233357   1.775   3.001   4.331  0.8699 -2.8729 -1.4822
10820SOL     OW33358   5.415   6.756   2.930  0.3039  0.1999 -0.2710
10820SOL    HW133359   5.417   6.792   3.023  1.0036  0.6930 -0.4702
10820SOL    HW233360   5.320   6.744   2.901  0.0535  1.5009 -0.0447
10821SOL     OW33361   5.710   0.906   6.614  0.8730  0.2593 -0.3451
10821SOL    HW133362   5.798   0.869   6.644  1.2613 -0.5868 -2.3732
10821SOL    HW233363   5.638   0.838   6.630  0.7793  0.4792  0.1973
10822SOL     OW33364   1.597   4.072   5.113 -0.0406 -0.8396  0.4256
10822SOL    HW133365   1.685   4.054   5.156 -0.6185 -3.7986  0.5973
10822SOL    HW233366   1.531   4.098   5.184  0.3859  0.1509  0.4675
10823SOL     OW33367   2.389   4.617   0.035  0.9060  0.7381 -0.1424
10823SOL    HW133368   2.304   4.662   0.009  0.6115  0.9757  1.1697
10823SOL    HW233369   2.438   4.673   0.102  0.9313 -0.4688  0.9036
10824SOL     OW33370   5.338   0.698   6.932 -0.4258 -0.1222  0.8618
10824SOL    HW133371   5.251   0.648   6.932 -1.4474  1.5693  1.5669
10824SOL    HW233372   5.343   0.754   6.849 -0.9525  1.2965  1.7606
10825SOL     OW33373   5.588   1.855   2.055 -0.2266  0.0410 -0.0708
10825SOL    HW133374   5.670   1.875   2.000  0.0992  0.4727  0.5597
10825SOL    HW233375   5.507   1.877   2.002  0.0739 -0.0110 -0.5616
10826SOL     OW33376   6.172   2.980   6.625  0.3111  0.0930  0.2290
10826SOL    HW133377   6.235   2.939   6.691 -0.3754  2.0068  2.1940
10826SOL    HW233378   6.078   2.965   6.654  0.0197  2.7214  0.9526
10827SOL     OW33379   1.563   3.245   4.736 -0.2635 -0.4582 -0.0781
10827SOL    HW133380   1.553   3.214   4.642  0.6226  1.4634 -0.8660
10827SOL    HW233381   1.656   3.281   4.750 -0.6850  0.1963  1.2416
10828SOL     OW33382   3.341   5.531   6.974 -0.0256 -0.6231  0.2813
10828SOL    HW133383   3.356   5.443   6.930  0.5480 -0.4176  0.0639
10828SOL    HW233384   3.349   5.604   6.907 -1.5056 -0.4566  0.2421
10829SOL     OW33385   1.158   4.955   1.340 -0.2197  0.3994  0.4133
10829SOL    HW133386   1.193   5.028   1.281 -0.3590  1.4213  1.5413
10829SOL    HW233387   1.203   4.961   1.429 -0.8348 -0.3933  0.7837
10830SOL     OW33388   6.962   1.609   3.180 -0.6083  0.2729 -0.3439
10830SOL    HW133389   6.946   1.523   3.230 -1.0667 -0.8103 -2.2597
10830SOL    HW233390   7.028   1.664   3.230  0.5676 -1.7054  0.4087
10831SOL     OW33391   6.739   3.359   4.293 -0.3785 -0.1427  0.1420
10831SOL    HW133392   6.820   3.307   4.265 -0.3698 -0.4129  0.6566
10831SOL    HW233393   6.657   3.316   4.255 -0.3990 -0.7333  0.8414
10832SOL     OW33394   2.185   2.998   4.304 -0.2039 -0.2969 -0.0411
10832SOL    HW133395   2.262   2.954   4.257  0.7270  0.3683  0.7971
10832SOL    HW233396   2.099   2.967   4.265  0.3794 -2.9477  0.5568
10833SOL     OW33397   5.049   0.547   4.511  0.2193  0.1587 -0.6811
10833SOL    HW133398   5.136   0.596   4.515  0.9458 -1.0417 -1.1686
10833SOL    HW233399   5.052   0.480   4.437 -0.7507 -0.5984 -0.0615
10834SOL     OW33400   6.638   0.853   6.854  0.0950 -0.4212 -0.0384
10834SOL    HW133401   6.611   0.949   6.859 -0.3285 -0.4661 -1.0868
10834SOL    HW233402   6.602   0.813   6.770 -0.5683 -1.7677  0.8532
10835SOL     OW33403   2.201   0.584   6.427 -0.6630  0.7740 -0.4629
10835SOL    HW133404   2.183   0.503   6.371 -1.1014 -0.0987  0.8737
10835SOL    HW233405   2.294   0.616   6.410 -0.7313  0.4422 -1.5584
10836SOL     OW33406   5.072   1.018   1.096  0.0788  0.3470 -0.2974
10836SOL    HW133407   5.081   1.086   1.024 -1.1401  0.5313 -0.2919
10836SOL    HW233408   5.092   1.060   1.184  0.0988  0.5004 -0.3742
10837SOL     OW33409   2.421   4.183   0.531  0.4551  0.3677  0.0700
10837SOL    HW133410   2.491   4.189   0.459 -1.4767  0.5482 -1.9078
10837SOL    HW233411   2.355   4.111   0.507 -0.9462  1.2958  1.0018
10838SOL     OW33412   5.165   5.474   0.114  0.7282  0.6591  0.2365
10838SOL    HW133413   5.243   5.536   0.122  0.4191  0.8021  2.9490
10838SOL    HW233414   5.189   5.386   0.156  0.4232 -0.3805 -1.6506
10839SOL     OW33415   6.531   1.721   5.996  0.0898 -0.2963 -0.4270
10839SOL    HW133416   6.495   1.732   5.904  0.2814 -0.9928 -0.5931
10839SOL    HW233417   6.588   1.800   6.020 -0.7032  0.3165 -0.5520
10840SOL     OW33418   6.662   2.964   4.679 -0.2991 -0.9756  0.6090
10840SOL    HW133419   6.604   2.891   4.643 -0.0778 -1.3627  1.0357
10840SOL    HW233420   6.702   3.015   4.603 -1.5269 -0.4322  0.3031
10841SOL     OW33421   5.778   5.224   0.328  0.0244  0.0512 -0.8105
10841SOL    HW133422   5.734   5.137   0.309  0.7710 -0.5844  0.3273
10841SOL    HW233423   5.874   5.209   0.351 -0.4171  0.8995  1.8807
10842SOL     OW33424   0.125   2.416   1.567  0.2898  0.4999 -0.3387
10842SOL    HW133425   0.115   2.453   1.475  0.6235  0.2650 -0.4723
10842SOL    HW233426   0.043   2.364   1.591  0.4695  0.0004 -0.7675
10843SOL     OW33427   0.674   0.971   0.638  0.0502 -0.3639 -0.2281
10843SOL    HW133428   0.620   1.051   0.663  2.3528  1.1642  0.2003
10843SOL    HW233429   0.682   0.910   0.717 -1.0168 -0.6115 -0.3028
10844SOL     OW33430   4.449   5.697   3.936  0.0330  0.1138 -0.4675
10844SOL    HW133431   4.529   5.718   3.880 -1.1788  0.6254 -2.0816
10844SOL    HW233432   4.421   5.603   3.918  0.3793 -0.1424  0.2755
10845SOL     OW33433   2.069   3.092   0.517 -0.0622  0.2390 -0.4761
10845SOL    HW133434   2.127   3.042   0.581  1.5062 -0.3957 -2.3136
10845SOL    HW233435   2.051   3.184   0.552 -0.5638 -0.5804  1.5677
10846SOL     OW33436   4.745   1.574   1.972 -0.0278 -0.4478 -0.4474
10846SOL    HW133437   4.775   1.637   2.043 -1.4048  0.3732 -0.5547
10846SOL    HW233438   4.823   1.521   1.939  0.7643 -0.3358  1.1546
10847SOL     OW33439   5.968   1.498   5.487 -0.4038  0.3036 -0.6394
10847SOL    HW133440   5.913   1.428   5.442  0.6349  0.0519 -1.5442
10847SOL    HW233441   6.009   1.460   5.570 -2.5181  0.8386  0.7678
10848SOL     OW33442   2.300   1.527   5.435 -0.2776  0.1956  0.3247
10848SOL    HW133443   2.375   1.588   5.405  0.2515 -0.9814 -0.8547
10848SOL    HW233444   2.215   1.579   5.438 -0.0196  0.8394 -1.5914
10849SOL     OW33445   1.805   5.315   5.596 -0.3802 -0.0297 -0.0947
10849SOL    HW133446   1.793   5.262   5.511 -0.3024  0.0582 -0.1616
10849SOL    HW233447   1.831   5.409   5.573 -1.0157  0.1759  0.0098
10850SOL     OW33448   6.422   0.717   4.511 -0.5813 -0.4483  0.7385
10850SOL    HW133449   6.478   0.646   4.554  0.5391  0.9132  1.6117
10850SOL    HW233450   6.353   0.674   4.453  1.1091 -2.2069 -0.0875
10851SOL     OW33451   4.336   5.189   1.542  0.2099  0.0508 -0.4954
10851SOL    HW133452   4.377   5.157   1.457 -0.2124 -2.4778  0.1641
10851SOL    HW233453   4.392   5.161   1.620 -1.0753 -0.6349  0.2291
10852SOL     OW33454   0.217   1.274   4.762 -0.1154 -0.7861 -0.8912
10852SOL    HW133455   0.201   1.355   4.706 -0.0834 -0.7930 -0.9106
10852SOL    HW233456   0.293   1.291   4.825 -2.1168  0.3428  1.3813
10853SOL     OW33457   1.005   6.949   4.569 -0.0498 -0.1635  0.5371
10853SOL    HW133458   0.964   6.925   4.481  1.2959 -1.3166  0.1724
10853SOL    HW233459   0.941   7.002   4.624 -0.5250  1.5767 -1.5906
10854SOL     OW33460   6.823   6.364   0.370 -0.5788 -0.3593 -0.1041
10854SOL    HW133461   6.888   6.308   0.317  0.0791  1.1734 -0.9790
10854SOL    HW233462   6.743   6.309   0.394  0.7099 -2.1111  0.4041
10855SOL     OW33463   6.221   6.063   0.144 -0.3506 -0.0077  0.7915
10855SOL    HW133464   6.243   6.000   0.070 -0.6165  0.2165  0.5238
10855SOL    HW233465   6.306   6.102   0.181 -0.2579  0.3397  0.2126
10856SOL     OW33466   1.400   0.707   6.342  0.0742 -0.3111  0.5191
10856SOL    HW133467   1.489   0.718   6.386  0.1435 -0.9265  0.5499
10856SOL    HW233468   1.408   0.641   6.267  0.0887  1.1473 -0.8214
10857SOL     OW33469   6.381   4.192   3.701  0.2583  0.2283 -0.3182
10857SOL    HW133470   6.294   4.212   3.747 -0.0552  0.8007 -1.1284
10857SOL    HW233471   6.455   4.196   3.767 -0.2005  0.8731  0.1757
10858SOL     OW33472   1.212   4.313   1.724  0.1611  0.4484 -0.1209
10858SOL    HW133473   1.242   4.298   1.818  0.9244  0.0765 -0.4198
10858SOL    HW233474   1.120   4.353   1.724  1.7119  4.4795  0.9225
10859SOL     OW33475   2.146   4.533   1.081 -0.4144 -0.5142 -0.2000
10859SOL    HW133476   2.198   4.447   1.082 -3.6263 -2.5970 -0.4959
10859SOL    HW233477   2.062   4.522   1.134 -0.6811  2.6917  0.2316
10860SOL     OW33478   5.001   6.299   2.848  0.2677  0.1736  0.0817
10860SOL    HW133479   5.031   6.256   2.763  1.3510  1.0657 -0.0098
10860SOL    HW233480   4.920   6.355   2.831 -2.3353 -3.1327  0.5396
10861SOL     OW33481   3.090   4.893   0.312  0.9275 -0.3911  0.3704
10861SOL    HW133482   3.186   4.892   0.341  1.0703  0.4114 -0.0480
10861SOL    HW233483   3.085   4.891   0.212  0.4862 -1.2258  0.4044
10862SOL     OW33484   2.871   4.422   6.170  0.0156 -0.0189 -0.0848
10862SOL    HW133485   2.928   4.405   6.250 -0.0405  0.9668  0.1766
10862SOL    HW233486   2.798   4.353   6.166  1.3307 -1.4402 -0.5610
10863SOL     OW33487   1.577   1.388   3.297  0.3636  0.4278 -0.0387
10863SOL    HW133488   1.513   1.421   3.368 -0.6949 -0.3277 -0.6159
10863SOL    HW233489   1.543   1.303   3.259  2.2454 -0.5208  0.2974
10864SOL     OW33490   2.957   2.048   0.500 -0.2372 -0.1201 -0.4532
10864SOL    HW133491   2.859   2.027   0.505 -0.6008  1.5048 -0.1654
10864SOL    HW233492   2.970   2.147   0.500  1.5218 -0.2521  1.8611
10865SOL     OW33493   5.249   5.719   2.395 -0.0725 -0.1649 -0.3208
10865SOL    HW133494   5.190   5.704   2.315  2.0167  1.0864 -2.2245
10865SOL    HW233495   5.340   5.681   2.377  0.4163  0.0183  1.5581
10866SOL     OW33496   0.968   2.268   5.852 -0.7926  0.5686 -0.1427
10866SOL    HW133497   0.978   2.170   5.869  2.6420  0.7859 -0.3654
10866SOL    HW233498   1.006   2.291   5.763 -1.5606  2.1321 -0.0975
10867SOL     OW33499   6.285   2.556   1.012 -0.5224 -0.5959 -0.0622
10867SOL    HW133500   6.190   2.578   1.033 -0.0942  0.5928  0.7663
10867SOL    HW233501   6.324   2.628   0.954 -0.6836 -2.0990 -2.1450
10868SOL     OW33502   6.082   0.425   5.772 -0.3825 -0.0845  0.1153
10868SOL    HW133503   6.007   0.372   5.812 -1.6590  0.4080 -1.5499
10868SOL    HW233504   6.053   0.520   5.758 -0.6228 -0.5675 -3.4348
10869NA      NA33505   6.311   1.975   0.650 -0.3433  0.0109  0.0470
10870NA      NA33506   5.563   5.315   4.741  0.1556  0.5023 -0.1322
10871NA      NA33507   1.993   5.618   3.419  0.0665 -0.8593  0.2444
10872NA      NA33508   6.153   3.175   3.140 -0.2880 -0.6186  0.1375
10873NA      NA33509   4.594   2.398   4.782  0.5915  0.0389 -0.1920
10874NA      NA33510   2.157   3.309   5.725 -0.3755 -0.7142 -0.2764
10875NA      NA33511   1.899   6.279   0.552  0.1029  0.1400  0.0065
10876NA      NA33512   3.565   4.864   1.767  0.0720 -0.2751  0.4545
10877NA      NA33513   5.020   3.816   0.817  0.0083  0.3621  0.1167
10878NA      NA33514   3.151   2.591   6.780  0.1565  0.2235  0.1901
10879NA      NA33515   5.836   6.431   2.406 -0.2850  0.3427 -0.2921
10880NA      NA33516   2.594   5.722   3.284  0.3909 -0.5017  0.2244
10881NA      NA33517   3.705   5.312   1.144 -0.2588 -0.1583 -0.4276
10882NA      NA33518   3.355   5.238   5.499  0.0035 -0.0574  0.2788
   7.01670   7.01670   7.01670
