CNT in water
33518
    1C        C    1   2.845   2.770   4.744 -0.1673 -0.3637 -0.1960
    1C        C    2   2.902   2.719   4.863  0.1406  0.4090 -0.0203
    1C        C    3   2.847   2.770   4.981  0.1988  0.5705 -0.0670
    1C        C    4   2.845   2.770   4.260 -0.6108 -0.2826  0.0494
    1C        C    5   2.901   2.725   4.381 -0.0697  0.0034 -0.1005
    1C        C    6   2.844   2.772   4.501 -0.2044 -0.0149 -0.1675
    1C        C    7   3.012   2.639   4.621 -0.1862 -0.1737 -0.0177
    1C        C    8   2.898   2.722   4.622 -0.2552 -0.2759 -0.2598
    1C        C    9   3.076   2.605   4.742 -0.5241 -0.4663  0.0729
    1C        C   10   3.008   2.626   4.864 -0.4170 -0.2161  0.0837
    1C        C   11   3.182   2.499   4.973 -0.2259  0.0982 -0.2952
    1C        C   12   3.061   2.569   4.980 -0.2986 -0.0749  0.0940
    1C        C   13   2.844   2.770   3.771 -0.3118 -0.0142 -0.3245
    1C        C   14   2.899   2.723   3.892 -0.4228  0.0593 -0.2515
    1C        C   15   2.848   2.774   4.014 -0.2998 -0.8721  0.1895
    1C        C   16   3.018   2.649   4.137  0.0080 -0.1265  0.2173
    1C        C   17   2.903   2.731   4.137 -0.1199 -0.3181  0.2982
    1C        C   18   3.077   2.609   4.258 -0.1461 -0.2568  0.2406
    1C        C   19   3.018   2.645   4.381 -0.2202 -0.2039  0.1790
    1C        C   20   3.210   2.549   4.500  0.0042 -0.0806  0.0181
    1C        C   21   3.082   2.609   4.502 -0.3208 -0.7737  0.0575
    1C        C   22   3.276   2.527   4.623  0.1598  0.1265 -0.0389
    1C        C   23   3.208   2.554   4.743 -0.4673 -0.3125 -0.2964
    1C        C   24   3.413   2.485   4.863 -0.3691 -0.6419  0.0670
    1C        C   25   3.272   2.508   4.862 -0.3095 -0.3108 -0.3878
    1C        C   26   3.490   2.478   4.980  0.1367 -0.0940 -0.2274
    1C        C   27   2.839   2.762   3.281 -0.3270  0.2576 -0.1468
    1C        C   28   2.893   2.716   3.404 -0.2485 -0.3191 -0.3959
    1C        C   29   2.846   2.766   3.527 -0.3979 -0.7375 -0.2836
    1C        C   30   3.017   2.644   3.648  0.3066  0.4991  0.3315
    1C        C   31   2.900   2.722   3.650 -0.1297 -0.1369 -0.1891
    1C        C   32   3.075   2.607   3.772  0.0082  0.4352  0.4477
    1C        C   33   3.017   2.647   3.894 -0.3327  0.2158  0.3529
    1C        C   34   3.211   2.559   4.013  0.0490  0.2864 -0.0632
    1C        C   35   3.083   2.619   4.016  0.0382  0.2351  0.1506
    1C        C   36   3.277   2.534   4.135  0.0801  0.4600 -0.0512
    1C        C   37   3.208   2.554   4.256 -0.0387  0.0342 -0.0549
    1C        C   38   3.414   2.506   4.379 -0.0579  0.2617 -0.2376
    1C        C   39   3.275   2.528   4.377 -0.0870  0.0314 -0.0394
    1C        C   40   3.486   2.500   4.500 -0.2389  0.6961 -0.1164
    1C        C   41   3.417   2.509   4.623  0.2672  0.9996  0.1422
    1C        C   42   3.630   2.482   4.744 -0.0840  0.5521 -0.0879
    1C        C   43   3.488   2.482   4.742 -0.0832  0.4077  0.2155
    1C        C   44   3.704   2.494   4.863  0.2379 -0.0723 -0.2292
    1C        C   45   3.629   2.479   4.980  0.1413 -0.5774 -0.3575
    1C        C   46   2.836   2.758   2.794  0.0983 -0.1143  0.4430
    1C        C   47   2.891   2.714   2.916  0.3179 -0.4766  0.2157
    1C        C   48   2.836   2.761   3.038 -0.1001  0.0282 -0.1653
    1C        C   49   3.016   2.646   3.161 -0.4890 -0.1393  0.2909
    1C        C   50   2.894   2.718   3.159 -0.6418 -0.4025 -0.0541
    1C        C   51   3.078   2.612   3.283  0.0788  0.2881  0.1247
    1C        C   52   3.014   2.644   3.404 -0.0109  0.0804  0.1303
    1C        C   53   3.208   2.555   3.525 -0.0044  0.4061 -0.4234
    1C        C   54   3.080   2.613   3.525 -0.0587  0.2802  0.2042
    1C        C   55   3.274   2.531   3.648 -0.2496  0.8015 -0.2168
    1C        C   56   3.204   2.549   3.769 -0.0748  0.2823 -0.0403
    1C        C   57   3.415   2.511   3.892  0.1104  0.5382 -0.0742
    1C        C   58   3.276   2.534   3.890  0.1715  0.8693 -0.1156
    1C        C   59   3.487   2.505   4.013 -0.0746  0.4963  0.0255
    1C        C   60   3.416   2.509   4.136  0.0047  0.0732  0.0783
    1C        C   61   3.628   2.501   4.258  0.1973 -0.3898 -0.3550
    1C        C   62   3.487   2.508   4.258  0.2275  0.1440 -0.0592
    1C        C   63   3.699   2.506   4.380 -0.2166  0.1074 -0.1381
    1C        C   64   3.627   2.502   4.501 -0.2360  0.1248 -0.1570
    1C        C   65   3.835   2.541   4.619 -0.0744  0.0148  0.1533
    1C        C   66   3.699   2.502   4.622 -0.2349  0.5656 -0.1640
    1C        C   67   3.902   2.571   4.740  0.1525  0.0604  0.0088
    1C        C   68   3.839   2.538   4.861  0.2915 -0.2367 -0.0031
    1C        C   69   4.048   2.585   4.972 -0.3388 -0.1340 -0.3507
    1C        C   70   3.918   2.533   4.976 -0.2167 -0.3875  0.3435
    1C        C   71   2.822   2.733   2.309  0.1115  0.3087  0.0028
    1C        C   72   2.887   2.698   2.429 -0.0224 -0.3002 -0.1026
    1C        C   73   2.827   2.743   2.548 -0.0867 -0.3198 -0.1282
    1C        C   74   3.005   2.632   2.674 -0.5512 -0.1497 -0.4386
    1C        C   75   2.888   2.711   2.671 -0.2311  0.3548  0.1223
    1C        C   76   3.069   2.602   2.796 -0.4511  0.0454 -0.4412
    1C        C   77   3.013   2.642   2.919  0.4135 -0.3182  0.0872
    1C        C   78   3.205   2.550   3.038 -0.0280  0.1606 -0.2843
    1C        C   79   3.075   2.605   3.039 -0.1116 -0.0502  0.4465
    1C        C   80   3.274   2.528   3.160 -0.0115  0.2762 -0.2752
    1C        C   81   3.205   2.550   3.281  0.1652  0.4790 -0.2148
    1C        C   82   3.413   2.506   3.403  0.2641  0.6164  0.2540
    1C        C   83   3.273   2.529   3.403  0.2128  0.2871 -0.2793
    1C        C   84   3.481   2.499   3.526 -0.0662  0.2418  0.4144
    1C        C   85   3.414   2.513   3.649 -0.2671  0.7356  0.2449
    1C        C   86   3.626   2.501   3.768  0.2845 -0.0446 -0.2150
    1C        C   87   3.485   2.495   3.770  0.2477  0.8866 -0.0362
    1C        C   88   3.696   2.516   3.889  0.1955 -0.0114 -0.1743
    1C        C   89   3.628   2.507   4.013 -0.0788  0.2726 -0.3102
    1C        C   90   3.834   2.545   4.134 -0.0640  0.0395 -0.0729
    1C        C   91   3.698   2.510   4.135  0.1455 -0.7870 -0.4070
    1C        C   92   3.901   2.568   4.256 -0.2911 -0.1376  0.0794
    1C        C   93   3.836   2.543   4.379 -0.3058  0.4281  0.1854
    1C        C   94   4.028   2.635   4.497  0.4253 -0.9065 -0.2429
    1C        C   95   3.905   2.567   4.500 -0.1307  0.0991  0.1450
    1C        C   96   4.089   2.678   4.617  0.3770 -0.4587 -0.3802
    1C        C   97   4.031   2.631   4.736  0.2799 -0.2395 -0.3449
    1C        C   98   4.191   2.766   4.861 -0.1220 -0.0790  0.2761
    1C        C   99   4.098   2.657   4.859  0.0712 -0.2347 -0.2347
    1C        C  100   4.204   2.847   4.975  0.0763 -0.1634  0.3134
    1C        C  101   2.827   2.739   2.075  0.2515  0.5116  0.0027
    1C        C  102   2.993   2.594   2.188  0.2293  0.4199 -0.1085
    1C        C  103   2.876   2.676   2.191  0.3031  0.5234 -0.0128
    1C        C  104   3.061   2.574   2.311  0.3354  0.1883 -0.2028
    1C        C  105   3.007   2.623   2.432  0.2580  0.1412 -0.2165
    1C        C  106   3.200   2.538   2.555  0.0771 -0.0363  0.5572
    1C        C  107   3.072   2.597   2.555  0.3382  0.5616 -0.1649
    1C        C  108   3.272   2.524   2.676  0.2763 -0.6998  0.3666
    1C        C  109   3.198   2.545   2.794 -0.3321  0.3065 -0.1738
    1C        C  110   3.407   2.498   2.917 -0.2019 -0.2617  0.4105
    1C        C  111   3.267   2.519   2.915 -0.1388  0.1072 -0.3262
    1C        C  112   3.485   2.493   3.035  0.0818  0.0496  0.2354
    1C        C  113   3.414   2.510   3.155  0.0105  0.3577  0.1482
    1C        C  114   3.622   2.506   3.282  0.0505  0.5069 -0.0756
    1C        C  115   3.481   2.504   3.279  0.0481  0.6348  0.1394
    1C        C  116   3.692   2.518   3.404 -0.0332  0.5979 -0.0416
    1C        C  117   3.623   2.502   3.526 -0.0759  0.5089 -0.0822
    1C        C  118   3.833   2.546   3.644  0.3417 -0.4454 -0.4485
    1C        C  119   3.697   2.510   3.646  0.2221  0.0212 -0.2404
    1C        C  120   3.897   2.577   3.766 -0.2617 -0.0971 -0.2252
    1C        C  121   3.831   2.558   3.890  0.2391 -0.1681  0.0295
    1C        C  122   4.019   2.651   4.012  0.1316  0.0651 -0.3353
    1C        C  123   3.896   2.583   4.013  0.0506  0.2215  0.0461
    1C        C  124   4.084   2.678   4.135  0.0069 -0.2622 -0.2014
    1C        C  125   4.025   2.636   4.256 -0.3314 -0.0726 -0.3009
    1C        C  126   4.193   2.771   4.372  0.0969 -0.6816 -0.2239
    1C        C  127   4.088   2.676   4.376  0.1214 -0.7090 -0.3237
    1C        C  128   4.241   2.823   4.494  0.1652 -0.3730 -0.3825
    1C        C  129   4.193   2.774   4.617  0.2561 -0.3314 -0.3308
    1C        C  130   4.322   2.941   4.739 -0.5750 -0.3779  0.0926
    1C        C  131   4.237   2.826   4.741  0.1761 -0.9403 -0.0421
    1C        C  132   4.352   3.009   4.859  0.0579  0.0058 -0.2807
    1C        C  133   4.284   2.960   4.971 -0.3447  0.1198 -0.4698
    1C        C  134   3.177   2.475   2.079  0.2842  0.2733 -0.1037
    1C        C  135   3.042   2.514   2.080  0.2838  0.2687  0.0272
    1C        C  136   3.258   2.478   2.193 -0.2128 -0.1006  0.2658
    1C        C  137   3.190   2.515   2.312  0.3127  0.1329  0.4977
    1C        C  138   3.401   2.481   2.430 -0.0443 -0.1066 -0.0318
    1C        C  139   3.261   2.501   2.433 -0.1323 -0.7649  0.6671
    1C        C  140   3.476   2.484   2.549 -0.1400 -0.2889  0.0389
    1C        C  141   3.409   2.492   2.673  0.2995 -0.6096  0.3046
    1C        C  142   3.620   2.499   2.791 -0.0960 -0.4283 -0.5461
    1C        C  143   3.479   2.490   2.796 -0.0609 -0.5806  0.5139
    1C        C  144   3.692   2.506   2.912 -0.1076  0.3950 -0.5781
    1C        C  145   3.626   2.497   3.037  0.0917  0.2585 -0.4821
    1C        C  146   3.831   2.539   3.157 -0.2387  0.0371 -0.1590
    1C        C  147   3.694   2.504   3.161 -0.2876  0.2217 -0.2714
    1C        C  148   3.897   2.566   3.279  0.1816 -0.4552 -0.2767
    1C        C  149   3.830   2.547   3.401  0.1435 -0.2698 -0.2718
    1C        C  150   4.022   2.640   3.522  0.5462 -0.6835 -0.0336
    1C        C  151   3.899   2.571   3.522  0.4358 -0.4834 -0.4002
    1C        C  152   4.078   2.680   3.645 -0.0903  0.1516 -0.0112
    1C        C  153   4.021   2.644   3.769 -0.2543 -0.1214 -0.1700
    1C        C  154   4.194   2.770   3.885 -0.2220  0.3777 -0.2399
    1C        C  155   4.082   2.685   3.890  0.1501 -0.1260 -0.3749
    1C        C  156   4.247   2.812   4.008  0.2046 -0.6404 -0.0625
    1C        C  157   4.198   2.762   4.130  0.3909 -0.7762 -0.0434
    1C        C  158   4.336   2.928   4.252  0.1914 -0.4577  0.2658
    1C        C  159   4.246   2.819   4.250 -0.0045 -0.2917 -0.1153
    1C        C  160   4.379   2.985   4.373 -0.4091  0.1733  0.1890
    1C        C  161   4.328   2.935   4.495 -0.3126  0.0011  0.1600
    1C        C  162   4.434   3.119   4.613 -0.5409 -0.0752  0.2543
    1C        C  163   4.360   2.999   4.616 -1.1028  0.2683  0.2316
    1C        C  164   4.466   3.188   4.732 -0.2917 -0.1265  0.2180
    1C        C  165   4.430   3.126   4.854 -0.3303  0.3004  0.4230
    1C        C  166   4.513   3.320   4.970 -0.3579  0.3455  0.0752
    1C        C  167   4.481   3.185   4.971  0.2478  0.1996  0.2302
    1C        C  168   3.475   2.439   2.077  0.3856  0.3683  0.1832
    1C        C  169   3.397   2.456   2.192 -0.1454  0.3151 -0.1624
    1C        C  170   3.616   2.461   2.311 -0.1984  0.1085  0.1883
    1C        C  171   3.474   2.460   2.310 -0.2053 -0.3892 -0.0883
    1C        C  172   3.691   2.486   2.428  0.3629 -0.0034 -0.1360
    1C        C  173   3.617   2.491   2.548 -0.1133 -0.6856 -0.3810
    1C        C  174   3.826   2.544   2.668 -0.1105  0.1651 -0.0357
    1C        C  175   3.689   2.509   2.668 -0.0276 -0.2002 -0.4956
    1C        C  176   3.895   2.563   2.790 -0.1460  0.3516 -0.0371
    1C        C  177   3.828   2.545   2.913 -0.1579  0.5844 -0.0050
    1C        C  178   4.022   2.631   3.035  0.2221 -0.2639 -0.1683
    1C        C  179   3.894   2.570   3.035 -0.0728  0.3373  0.0019
    1C        C  180   4.088   2.661   3.156  0.1748 -0.5997 -0.0557
    1C        C  181   4.022   2.633   3.278  0.0084 -0.1274 -0.0333
    1C        C  182   4.199   2.753   3.398  0.5792 -0.8313  0.2916
    1C        C  183   4.081   2.675   3.398  0.2464 -0.3363 -0.0758
    1C        C  184   4.248   2.805   3.520  0.0999 -0.2182  0.2304
    1C        C  185   4.195   2.759   3.643  0.0808 -0.0949  0.2676
    1C        C  186   4.350   2.910   3.764  0.1642  0.5101  0.2882
    1C        C  187   4.254   2.806   3.762  0.1719  0.5072 -0.0087
    1C        C  188   4.387   2.972   3.885 -0.2854  0.6236  0.3707
    1C        C  189   4.343   2.916   4.007  0.0527 -0.4993 -0.0053
    1C        C  190   4.448   3.103   4.129 -0.6204 -0.2845  0.0724
    1C        C  191   4.377   2.981   4.128 -0.4046 -0.4141  0.0810
    1C        C  192   4.482   3.169   4.249  0.0109 -0.4180 -0.0234
    1C        C  193   4.450   3.107   4.373 -0.6254  0.3019  0.1826
    1C        C  194   4.507   3.318   4.490 -0.3681 -0.0386  0.1980
    1C        C  195   4.472   3.181   4.491 -0.2342 -0.0733  0.3471
    1C        C  196   4.531   3.389   4.610  0.1602 -0.0564  0.1018
    1C        C  197   4.515   3.321   4.733  0.1632 -0.2877 -0.0242
    1C        C  198   4.561   3.534   4.851  0.6337 -0.2533 -0.3399
    1C        C  199   4.538   3.393   4.853  0.4077 -0.2153 -0.1148
    1C        C  200   4.588   3.619   4.963  0.1121 -0.0789 -0.3415
    1C        C  201   3.614   2.421   2.074  0.3557  0.1386  0.0619
    1C        C  202   3.822   2.515   2.186  0.2571 -0.4906 -0.2531
    1C        C  203   3.689   2.464   2.189 -0.0632  0.3363  0.2681
    1C        C  204   3.894   2.544   2.305 -0.1579 -0.5276  0.0169
    1C        C  205   3.826   2.525   2.427  0.4175 -0.1475  0.4104
    1C        C  206   4.025   2.615   2.546  0.6628 -0.3399  0.2574
    1C        C  207   3.895   2.558   2.546  0.7340 -0.5277  0.3452
    1C        C  208   4.086   2.654   2.668  0.7324 -0.1130  0.1599
    1C        C  209   4.022   2.625   2.790  0.1337 -0.1983 -0.1591
    1C        C  210   4.197   2.747   2.907  0.2038 -0.2044  0.1829
    1C        C  211   4.080   2.669   2.912  0.1649 -0.1801 -0.1736
    1C        C  212   4.249   2.796   3.028  0.4828 -0.7352  0.2870
    1C        C  213   4.200   2.747   3.151  0.0213 -0.3775  0.2520
    1C        C  214   4.337   2.907   3.272  0.5861 -0.8910  0.2202
    1C        C  215   4.250   2.796   3.274  0.4365 -0.7781  0.2490
    1C        C  216   4.372   2.969   3.395  0.1772 -0.1059 -0.0482
    1C        C  217   4.337   2.915   3.520 -0.2623  0.0819 -0.0834
    1C        C  218   4.433   3.104   3.640  0.1610 -0.1558 -0.3714
    1C        C  219   4.379   2.974   3.642 -0.0934 -0.0505 -0.0733
    1C        C  220   4.460   3.169   3.762  0.1658 -0.2308 -0.3261
    1C        C  221   4.441   3.102   3.885  0.1238  0.4581  0.0537
    1C        C  222   4.498   3.308   4.004  0.0184  0.1618  0.3385
    1C        C  223   4.469   3.170   4.006 -0.8566  0.3371  0.3585
    1C        C  224   4.510   3.380   4.125 -0.0245 -0.1000  0.5041
    1C        C  225   4.512   3.307   4.246 -0.2762 -0.3398  0.3694
    1C        C  226   4.518   3.524   4.364  0.3839 -0.1221 -0.3484
    1C        C  227   4.516   3.382   4.365  0.4507 -0.1221  0.2107
    1C        C  228   4.513   3.596   4.485 -0.4081 -0.0350 -0.4268
    1C        C  229   4.531   3.530   4.608 -0.7243 -0.0538 -0.3879
    1C        C  230   4.502   3.741   4.728  0.4938 -0.2126  0.1416
    1C        C  231   4.534   3.603   4.729  0.2734 -0.2695 -0.2724
    1C        C  232   4.489   3.817   4.846 -0.4944 -0.2937  0.0971
    1C        C  233   4.540   3.751   4.959 -0.4241 -0.2581  0.0861
    1C        C  234   4.022   2.594   2.067  0.5752 -0.0114 -0.2282
    1C        C  235   3.898   2.531   2.069  0.5345  0.0706 -0.0075
    1C        C  236   4.083   2.645   2.182  0.4109 -0.5920  0.1274
    1C        C  237   4.022   2.608   2.304 -0.1732 -0.4817 -0.1196
    1C        C  238   4.192   2.741   2.419  0.1815 -0.7043 -0.0769
    1C        C  239   4.084   2.649   2.423 -0.2052 -0.2736 -0.1630
    1C        C  240   4.244   2.793   2.541  0.8750 -0.5222 -0.4306
    1C        C  241   4.193   2.746   2.663  0.6890 -0.0690 -0.3211
    1C        C  242   4.336   2.903   2.782 -0.7949  0.2651  0.1666
    1C        C  243   4.252   2.790   2.784  0.2530 -0.5380  0.0800
    1C        C  244   4.372   2.965   2.904  0.0134 -0.3159  0.2386
    1C        C  245   4.338   2.906   3.027  0.6519 -0.8662  0.1650
    1C        C  246   4.441   3.090   3.151 -0.7353 -0.2210 -0.1169
    1C        C  247   4.377   2.964   3.150  0.7775 -1.0296  0.2109
    1C        C  248   4.463   3.160   3.272 -0.3937 -0.0834 -0.2498
    1C        C  249   4.432   3.097   3.394  0.0039 -0.0190 -0.1071
    1C        C  250   4.499   3.300   3.515 -0.1627  0.1849 -0.0279
    1C        C  251   4.460   3.164   3.515  0.6803 -0.0704 -0.2275
    1C        C  252   4.514   3.370   3.637 -0.3992 -0.1235  0.1899
    1C        C  253   4.501   3.304   3.761 -0.1443 -0.1224  0.2243
    1C        C  254   4.521   3.517   3.875  0.2161 -0.0822  0.0639
    1C        C  255   4.514   3.376   3.882 -0.0659 -0.0687  0.1919
    1C        C  256   4.516   3.590   3.996  0.2246  0.2976 -0.1563
    1C        C  257   4.517   3.521   4.120  0.3835 -0.1458 -0.3966
    1C        C  258   4.482   3.731   4.240 -0.6927 -0.3678  0.0585
    1C        C  259   4.510   3.593   4.241  0.3282 -0.1761 -0.3781
    1C        C  260   4.466   3.801   4.362 -0.1344 -0.2152  0.0516
    1C        C  261   4.482   3.734   4.485 -0.2379  0.0053  0.1864
    1C        C  262   4.420   3.938   4.602 -0.7275 -0.4234 -0.1456
    1C        C  263   4.471   3.806   4.606 -0.1589 -0.1958  0.3148
    1C        C  264   4.394   4.007   4.723 -0.2310 -0.0285 -0.2636
    1C        C  265   4.432   3.946   4.844 -0.2181 -0.1744 -0.3417
    1C        C  266   4.328   4.137   4.958 -0.7810 -0.1792  0.3132
    1C        C  267   4.391   4.013   4.960 -0.9243 -0.2746 -0.5312
    1C        C  268   4.257   2.771   2.061  1.0951 -0.6765  0.2885
    1C        C  269   4.195   2.730   2.180  0.2889 -0.4211 -0.0268
    1C        C  270   4.347   2.890   2.296  0.0716 -0.3340  0.2686
    1C        C  271   4.250   2.786   2.298  0.4995 -0.7543  0.0432
    1C        C  272   4.380   2.954   2.417  0.6482 -0.1863  0.0419
    1C        C  273   4.338   2.898   2.539  0.1867  0.1201  0.0334
    1C        C  274   4.441   3.085   2.658 -0.3267  0.0251  0.2603
    1C        C  275   4.379   2.958   2.660 -0.0254 -0.1316  0.2438
    1C        C  276   4.464   3.152   2.781 -0.5732 -0.1900  0.4321
    1C        C  277   4.437   3.090   2.905 -0.1885 -0.2053  0.5169
    1C        C  278   4.504   3.291   3.023  0.0230  0.2838 -0.1179
    1C        C  279   4.461   3.156   3.028 -1.1949  0.6652  0.2670
    1C        C  280   4.516   3.362   3.145 -0.0898  0.1561 -0.0249
    1C        C  281   4.504   3.295   3.269 -0.5924 -0.0130 -0.1540
    1C        C  282   4.504   3.506   3.386 -0.5505 -0.0269 -0.0132
    1C        C  283   4.513   3.365   3.391 -0.2990 -0.0232 -0.1602
    1C        C  284   4.503   3.579   3.507 -0.2500 -0.0929  0.0370
    1C        C  285   4.514   3.511   3.631  0.0392 -0.1223  0.0039
    1C        C  286   4.493   3.724   3.751  0.2912  0.0177 -0.2483
    1C        C  287   4.516   3.584   3.752 -0.6640 -0.1539  0.0489
    1C        C  288   4.473   3.795   3.871 -0.3205 -0.2015 -0.2094
    1C        C  289   4.487   3.728   3.995 -0.3694  0.1857  0.0125
    1C        C  290   4.425   3.932   4.114  0.1552  0.1112 -0.2725
    1C        C  291   4.469   3.798   4.116 -0.5376 -0.1203  0.1702
    1C        C  292   4.398   3.999   4.236  0.0709 -0.3493 -0.0326
    1C        C  293   4.421   3.935   4.359 -0.3109 -0.2722  0.0824
    1C        C  294   4.328   4.127   4.476  0.0092  0.1442 -0.1395
    1C        C  295   4.397   4.004   4.480 -0.4670 -0.1233 -0.0329
    1C        C  296   4.284   4.187   4.597 -0.4157 -0.1075 -0.1655
    1C        C  297   4.317   4.127   4.720 -0.3438 -0.0997 -0.1809
    1C        C  298   4.195   4.310   4.838  0.1540 -0.1155  0.1400
    1C        C  299   4.282   4.196   4.839  0.1580 -0.1141 -0.0219
    1C        C  300   4.166   4.401   4.944  0.2972 -0.1047  0.1695
    1C        C  301   4.351   2.873   2.061  1.0149 -0.5999  0.1619
    1C        C  302   4.464   3.069   2.173  0.1675 -0.1855  0.4038
    1C        C  303   4.393   2.945   2.174 -0.5957  0.2407  0.2648
    1C        C  304   4.480   3.140   2.295  0.4329 -0.1903  0.3773
    1C        C  305   4.443   3.081   2.418  0.2129  0.0394  0.4290
    1C        C  306   4.511   3.286   2.535  0.5040  0.0411  0.0306
    1C        C  307   4.474   3.150   2.537 -0.0341  0.1868  0.4149
    1C        C  308   4.518   3.356   2.657  0.6203 -0.3391  0.2493
    1C        C  309   4.506   3.287   2.779 -0.6147 -0.1730  0.2397
    1C        C  310   4.524   3.499   2.898 -0.8057  0.4310 -0.2140
    1C        C  311   4.521   3.358   2.900 -0.4565  0.4193 -0.1175
    1C        C  312   4.514   3.570   3.020 -0.7308  0.0316  0.0330
    1C        C  313   4.519   3.503   3.144 -0.9814  0.1910  0.1368
    1C        C  314   4.483   3.716   3.261  0.0975  0.3303 -0.2032
    1C        C  315   4.506   3.576   3.264  0.1074  0.3334  0.1911
    1C        C  316   4.464   3.786   3.382  0.6720  0.2225 -0.0425
    1C        C  317   4.481   3.718   3.505  0.1971 -0.0186 -0.1022
    1C        C  318   4.415   3.918   3.626 -0.2765 -0.0450  0.2476
    1C        C  319   4.465   3.786   3.628  0.4117  0.2007 -0.1889
    1C        C  320   4.385   3.986   3.747  0.3255  0.3879  0.1614
    1C        C  321   4.419   3.925   3.870  0.5343  0.1650 -0.0016
    1C        C  322   4.311   4.108   3.991 -0.0450  0.3590 -0.3087
    1C        C  323   4.392   3.992   3.991 -0.5302  0.0134 -0.1444
    1C        C  324   4.276   4.171   4.112  0.0407 -0.0392 -0.0718
    1C        C  325   4.324   4.119   4.235 -0.1785 -0.5004 -0.1787
    1C        C  326   4.184   4.281   4.354  0.3442  0.1818  0.1284
    1C        C  327   4.286   4.184   4.354  0.0184 -0.1719 -0.2930
    1C        C  328   4.134   4.336   4.474 -0.0344 -0.1189  0.1126
    1C        C  329   4.190   4.292   4.596  0.2869  0.5346  0.2080
    1C        C  330   4.016   4.423   4.713  0.0418  0.0971  0.0856
    1C        C  331   4.134   4.345   4.714  0.3400  0.5431  0.2304
    1C        C  332   3.965   4.487   4.829 -0.1779 -0.3388  0.2333
    1C        C  333   4.050   4.479   4.940  0.1368 -0.3484 -0.0063
    1C        C  334   4.549   3.269   2.061 -0.1096  0.0029 -0.6205
    1C        C  335   4.530   3.131   2.061 -0.1158 -0.0041  0.3332
    1C        C  336   4.533   3.351   2.174 -0.5874 -0.2970 -0.4669
    1C        C  337   4.513   3.279   2.293  0.4984 -0.2062 -0.2112
    1C        C  338   4.521   3.496   2.411 -0.4209 -0.2571 -0.0369
    1C        C  339   4.520   3.355   2.412  0.3854 -0.2697 -0.1593
    1C        C  340   4.516   3.568   2.532 -0.1644  0.0441 -0.2025
    1C        C  341   4.518   3.497   2.654  0.2301 -0.3438 -0.4295
    1C        C  342   4.488   3.707   2.771 -0.3339 -0.0584 -0.0876
    1C        C  343   4.519   3.569   2.776 -0.5167 -0.1180 -0.5499
    1C        C  344   4.468   3.776   2.893 -0.6576  0.1010 -0.2290
    1C        C  345   4.481   3.707   3.015 -0.5380  0.0727 -0.2554
    1C        C  346   4.415   3.910   3.133  0.1540  0.3101 -0.1621
    1C        C  347   4.454   3.775   3.136  0.1186  0.2973 -0.2277
    1C        C  348   4.385   3.975   3.255  0.0344 -0.4607  0.2208
    1C        C  349   4.417   3.919   3.381  0.0053 -0.0023  0.4345
    1C        C  350   4.313   4.102   3.501  0.2002  0.3117 -0.4388
    1C        C  351   4.389   3.983   3.503  0.0861  0.2474  0.3236
    1C        C  352   4.269   4.161   3.622 -0.0941 -0.0310 -0.3777
    1C        C  353   4.311   4.106   3.745  0.0098  0.1930 -0.3133
    1C        C  354   4.182   4.273   3.865  0.4226  0.6224 -0.0677
    1C        C  355   4.271   4.163   3.868  0.1312  0.3793 -0.3592
    1C        C  356   4.128   4.320   3.987  0.1630 -0.3085  0.1811
    1C        C  357   4.179   4.274   4.110 -0.1427 -0.1988  0.3505
    1C        C  358   4.009   4.401   4.231  0.3401  0.6681  0.3340
    1C        C  359   4.127   4.324   4.231  0.0122  0.1591  0.2725
    1C        C  360   3.953   4.449   4.351 -0.2752  0.4052  0.1562
    1C        C  361   4.016   4.414   4.472  0.1197  0.1177 -0.1304
    1C        C  362   3.821   4.508   4.593  0.4441  0.6079 -0.0734
    1C        C  363   3.952   4.454   4.591  0.1402 -0.1464 -0.0286
    1C        C  364   3.758   4.549   4.713  0.2335  0.2122 -0.0450
    1C        C  365   3.832   4.534   4.832 -0.0156  0.1359  0.1010
    1C        C  366   3.629   4.592   4.947 -0.1947 -0.4599  0.4668
    1C        C  367   3.764   4.561   4.951  0.0661  0.5837  0.0458
    1C        C  368   4.513   3.567   2.053 -0.5223 -0.3018  0.1953
    1C        C  369   4.529   3.492   2.170 -0.6046 -0.2750  0.2231
    1C        C  370   4.491   3.706   2.288 -0.7194 -0.0942 -0.4890
    1C        C  371   4.519   3.567   2.289 -0.4655 -0.0413  0.0876
    1C        C  372   4.478   3.777   2.409 -0.5151 -0.5921 -0.1702
    1C        C  373   4.503   3.709   2.530  0.1264  0.0780  0.0779
    1C        C  374   4.423   3.909   2.650  0.0987  0.2542  0.0707
    1C        C  375   4.474   3.777   2.650 -0.5991 -0.0225 -0.0370
    1C        C  376   4.381   3.970   2.770 -0.2722 -0.0749  0.1085
    1C        C  377   4.415   3.907   2.892 -0.4186  0.2054  0.2930
    1C        C  378   4.310   4.095   3.011 -0.1368  0.6522  0.0246
    1C        C  379   4.385   3.975   3.012 -0.0652  0.7002  0.0994
    1C        C  380   4.273   4.156   3.133  0.3269  0.3822  0.2964
    1C        C  381   4.311   4.095   3.255  0.7608 -0.0076 -0.0323
    1C        C  382   4.171   4.254   3.377 -0.2892 -0.0643  0.1834
    1C        C  383   4.265   4.150   3.377 -0.0201  0.1766 -0.4046
    1C        C  384   4.120   4.306   3.498 -0.3117 -0.2162  0.2344
    1C        C  385   4.174   4.265   3.621 -0.4198 -0.3235  0.2415
    1C        C  386   4.009   4.394   3.745  0.0745  0.4193  0.4480
    1C        C  387   4.131   4.322   3.743  0.1639  0.5841  0.0285
    1C        C  388   3.949   4.438   3.865  0.0149  0.4163  0.4163
    1C        C  389   4.012   4.399   3.986  0.2264 -0.2171  0.1064
    1C        C  390   3.817   4.484   4.106  0.1832 -0.6593 -0.1764
    1C        C  391   3.949   4.434   4.107  0.5417  0.2742  0.1283
    1C        C  392   3.749   4.511   4.227  0.0485  0.5434 -0.5034
    1C        C  393   3.821   4.500   4.348 -0.3850  0.1003 -0.2814
    1C        C  394   3.616   4.550   4.471  0.2622  0.2849  0.4278
    1C        C  395   3.755   4.526   4.470  0.3180  0.6128 -0.0057
    1C        C  396   3.544   4.562   4.592 -0.0205  0.0172  0.2877
    1C        C  397   3.618   4.563   4.713  0.1521 -0.5730  0.1895
    1C        C  398   3.409   4.551   4.834  0.2025 -0.0841  0.0524
    1C        C  399   3.547   4.580   4.834  0.1917 -0.0373  0.1384
    1C        C  400   3.342   4.518   4.953  0.1860  0.5615  0.2247
    1C        C  401   4.487   3.703   2.048  0.0724 -0.1931 -0.1627
    1C        C  402   4.441   3.914   2.167  0.0741  0.2868 -0.0175
    1C        C  403   4.478   3.777   2.167 -0.6368  0.0917 -0.3889
    1C        C  404   4.406   3.979   2.287 -0.0337 -0.0461  0.1324
    1C        C  405   4.431   3.911   2.407 -0.0059 -0.4142 -0.0825
    1C        C  406   4.320   4.093   2.524 -0.2520 -0.4505  0.0119
    1C        C  407   4.398   3.976   2.528  0.2319 -0.1344 -0.1693
    1C        C  408   4.276   4.151   2.645  0.0145  0.1397 -0.1704
    1C        C  409   4.308   4.091   2.769 -0.2034 -0.0394 -0.2045
    1C        C  410   4.174   4.257   2.889 -0.0722  0.0628  0.0877
    1C        C  411   4.272   4.155   2.889  0.0835  0.2156 -0.2584
    1C        C  412   4.121   4.301   3.012  0.1832  0.4058  0.0713
    1C        C  413   4.179   4.261   3.134  0.0655  0.1479  0.0384
    1C        C  414   4.006   4.386   3.252  0.6319  0.8461  0.4367
    1C        C  415   4.123   4.307   3.255  0.1304  0.0862  0.0876
    1C        C  416   3.941   4.411   3.375 -0.1241  0.2427  0.1625
    1C        C  417   4.002   4.384   3.500 -0.3016 -0.2060  0.1493
    1C        C  418   3.816   4.481   3.620  0.3235  0.3273 -0.3389
    1C        C  419   3.945   4.423   3.623  0.1284 -0.0767  0.3029
    1C        C  420   3.750   4.509   3.741  0.5166  0.5581 -0.2875
    1C        C  421   3.818   4.489   3.863  0.1514  0.7535 -0.0531
    1C        C  422   3.610   4.532   3.985  0.0370  0.0084  0.1490
    1C        C  423   3.749   4.507   3.985 -0.0052 -0.2289  0.0093
    1C        C  424   3.540   4.540   4.108  0.0973 -0.2801  0.2057
    1C        C  425   3.611   4.539   4.229 -0.0452  0.0472  0.2947
    1C        C  426   3.401   4.549   4.355  0.2548 -0.5230  0.5719
    1C        C  427   3.542   4.557   4.351  0.2200  0.0810  0.4415
    1C        C  428   3.329   4.541   4.476 -0.3685 -0.1622  0.2312
    1C        C  429   3.403   4.557   4.595 -0.0256 -0.0332 -0.0001
    1C        C  430   3.191   4.527   4.722  0.1504 -0.4152  0.0506
    1C        C  431   3.331   4.548   4.716  0.1703 -0.5333  0.0809
    1C        C  432   3.122   4.496   4.842  0.3613  0.0044  0.2857
    1C        C  433   3.206   4.489   4.954  0.2349  0.3432  0.4044
    1C        C  434   4.381   4.123   2.052  0.2659  0.0877  0.1136
    1C        C  435   4.449   4.001   2.057  0.1103 -0.0165 -0.2559
    1C        C  436   4.294   4.159   2.159 -0.0287  0.0038 -0.0973
    1C        C  437   4.324   4.095   2.283  0.0780  0.0228 -0.1162
    1C        C  438   4.178   4.253   2.401  0.0646 -0.1946 -0.1709
    1C        C  439   4.274   4.150   2.403 -0.6055 -0.8145 -0.0197
    1C        C  440   4.125   4.299   2.524 -0.0420 -0.5162 -0.1000
    1C        C  441   4.174   4.248   2.646 -0.2584 -0.1497  0.1356
    1C        C  442   4.002   4.378   2.765 -0.2553 -0.1172  0.2404
    1C        C  443   4.114   4.293   2.766 -0.1316  0.0519  0.1189
    1C        C  444   3.942   4.414   2.887 -0.3132 -0.3667  0.2814
    1C        C  445   4.001   4.376   3.009 -0.0373  0.0529  0.2769
    1C        C  446   3.813   4.475   3.132  0.5970  0.6541 -0.1976
    1C        C  447   3.939   4.412   3.131  0.5045  0.4617  0.4272
    1C        C  448   3.747   4.499   3.254  0.4055  0.3765 -0.2525
    1C        C  449   3.813   4.471   3.376 -0.0261  0.4416 -0.0051
    1C        C  450   3.610   4.531   3.500 -0.4058 -0.5006  0.1059
    1C        C  451   3.748   4.498   3.498 -0.3144 -0.1023 -0.0415
    1C        C  452   3.540   4.542   3.622 -0.0630 -0.3410  0.2868
    1C        C  453   3.612   4.542   3.744  0.2882 -0.3846  0.0778
    1C        C  454   3.398   4.549   3.865  0.2421 -0.0980  0.5251
    1C        C  455   3.539   4.549   3.864  0.2424 -0.0017  0.0281
    1C        C  456   3.328   4.535   3.987 -0.2324 -0.4718  0.2120
    1C        C  457   3.398   4.542   4.109  0.0893 -0.7971  0.0472
    1C        C  458   3.194   4.506   4.234  0.5534 -0.3828 -0.0298
    1C        C  459   3.331   4.541   4.233  0.6525 -0.7473  0.3574
    1C        C  460   3.126   4.486   4.356  0.2022 -0.6374 -0.2639
    1C        C  461   3.191   4.510   4.479 -0.2586 -0.7022 -0.0044
    1C        C  462   2.999   4.428   4.600 -0.1152 -0.0921  0.0522
    1C        C  463   3.123   4.495   4.602 -0.2347  0.1317  0.1166
    1C        C  464   2.935   4.395   4.722  0.1772 -0.3279  0.1458
    1C        C  465   2.990   4.440   4.845  0.4836 -0.3038  0.0042
    1C        C  466   2.791   4.347   4.954  0.2804  0.3637  0.3044
    1C        C  467   2.904   4.430   4.959  0.3361  0.3140 -0.0449
    1C        C  468   4.125   4.290   2.038 -0.4428 -0.5764  0.0086
    1C        C  469   4.183   4.248   2.159 -0.0592 -0.0361  0.0109
    1C        C  470   4.006   4.376   2.280 -0.2542 -0.4396  0.4113
    1C        C  471   4.128   4.302   2.279  0.1926  0.2977 -0.0250
    1C        C  472   3.941   4.404   2.401 -0.1259  0.4574  0.2740
    1C        C  473   4.005   4.374   2.524  0.1091 -0.2782 -0.0322
    1C        C  474   3.811   4.469   2.643 -0.0556 -0.6871  0.1351
    1C        C  475   3.942   4.415   2.643  0.0139 -0.5056 -0.0079
    1C        C  476   3.747   4.495   2.766 -0.0191 -0.0894  0.0270
    1C        C  477   3.814   4.475   2.889 -0.0861  0.1135  0.0934
    1C        C  478   3.608   4.530   3.011 -0.1168  0.2407 -0.1408
    1C        C  479   3.746   4.500   3.010 -0.2041 -0.1528  0.0775
    1C        C  480   3.537   4.534   3.133  0.1085 -0.1218 -0.0020
    1C        C  481   3.607   4.517   3.255  0.3843  0.1827 -0.1203
    1C        C  482   3.398   4.526   3.377  0.1875 -0.1147  0.0720
    1C        C  483   3.539   4.531   3.378  0.1767  0.2467 -0.2447
    1C        C  484   3.329   4.522   3.501  0.4040 -0.1126  0.1923
    1C        C  485   3.400   4.532   3.622 -0.0528 -0.4613  0.4872
    1C        C  486   3.190   4.500   3.743  0.1566 -0.0552 -0.1229
    1C        C  487   3.328   4.531   3.744  0.0514  0.4046  0.5584
    1C        C  488   3.125   4.479   3.866  0.1531 -0.0443 -0.1224
    1C        C  489   3.191   4.499   3.989 -0.1949 -0.6226  0.1663
    1C        C  490   3.004   4.410   4.114 -0.0827 -0.5519 -0.2531
    1C        C  491   3.127   4.479   4.113  0.1893 -1.0165  0.3075
    1C        C  492   2.947   4.369   4.237 -0.2948 -0.2382 -0.2424
    1C        C  493   3.004   4.416   4.357 -0.1868  0.0305 -0.3947
    1C        C  494   2.833   4.292   4.481  0.1294  0.2498 -0.1124
    1C        C  495   2.941   4.383   4.480 -0.0079  0.4178 -0.1961
    1C        C  496   2.776   4.252   4.604  0.1313  0.4503 -0.0427
    1C        C  497   2.822   4.308   4.725 -0.1664  0.1142  0.2320
    1C        C  498   2.652   4.173   4.840  0.4838 -0.0386 -0.4157
    1C        C  499   2.748   4.277   4.840 -0.2978  0.7030  0.3118
    1C        C  500   2.584   4.121   4.951  0.3124 -0.2540 -0.6185
    1C        C  501   4.006   4.363   2.038  0.5126  1.0080  0.1261
    1C        C  502   3.816   4.464   2.155  0.3087  0.2927  0.0395
    1C        C  503   3.942   4.402   2.157  0.0285 -0.2784  0.3007
    1C        C  504   3.747   4.482   2.277  0.2844  0.4638 -0.0017
    1C        C  505   3.809   4.453   2.400 -0.3131 -0.0522  0.1778
    1C        C  506   3.602   4.507   2.521 -0.0549  0.3777  0.1410
    1C        C  507   3.741   4.482   2.521 -0.1065  0.1024  0.2523
    1C        C  508   3.535   4.517   2.645 -0.3717  0.2276 -0.0204
    1C        C  509   3.607   4.515   2.766  0.1203  0.8786 -0.2990
    1C        C  510   3.397   4.528   2.887  0.0237  0.6338  0.0913
    1C        C  511   3.538   4.531   2.888  0.0401  0.0141 -0.2297
    1C        C  512   3.326   4.519   3.009  0.2945  0.2040  0.2159
    1C        C  513   3.396   4.535   3.130  0.0939 -0.6439  0.4470
    1C        C  514   3.193   4.491   3.254 -0.2258 -0.3541 -0.1190
    1C        C  515   3.329   4.528   3.254 -0.2138 -0.4037  0.2915
    1C        C  516   3.124   4.472   3.376  0.3912 -0.3689  0.2327
    1C        C  517   3.190   4.494   3.498  0.4983 -0.5851  0.2128
    1C        C  518   3.001   4.406   3.623 -0.0474 -0.0754 -0.3498
    1C        C  519   3.123   4.477   3.621 -0.0465 -0.0620 -0.0105
    1C        C  520   2.943   4.368   3.747  0.1752  0.1470 -0.1747
    1C        C  521   3.005   4.405   3.868  0.1993 -0.1204 -0.1045
    1C        C  522   2.841   4.275   3.995  0.1411 -0.5980 -0.0517
    1C        C  523   2.947   4.368   3.992 -0.2151 -0.1947 -0.3170
    1C        C  524   2.789   4.231   4.118  0.1340  0.0473  0.1815
    1C        C  525   2.837   4.281   4.241 -0.4116 -0.0631  0.4424
    1C        C  526   2.694   4.125   4.362 -0.3143 -0.2676  0.1699
    1C        C  527   2.778   4.239   4.363 -0.6007 -0.0523  0.3567
    1C        C  528   2.651   4.075   4.487 -0.1874  0.0023  0.3253
    1C        C  529   2.687   4.143   4.606  0.1051  0.4675 -0.0199
    1C        C  530   2.582   3.960   4.729 -0.1827 -0.0252  0.2207
    1C        C  531   2.633   4.093   4.726  0.0030 -0.1026 -0.2963
    1C        C  532   2.537   3.899   4.850 -0.1718 -0.5259 -0.0217
    1C        C  533   2.520   3.996   4.953  0.1569 -0.1697 -0.2966
    1C        C  534   3.619   4.556   2.040  0.1635  0.1806  0.4382
    1C        C  535   3.753   4.513   2.040  0.0472 -0.1865 -0.0229
    1C        C  536   3.538   4.528   2.154 -0.3918  0.3412  0.0827
    1C        C  537   3.606   4.502   2.276  0.3252  0.7488 -0.2246
    1C        C  538   3.393   4.513   2.402  0.3708  0.0483  0.4309
    1C        C  539   3.535   4.516   2.397  0.3557 -0.0238 -0.1130
    1C        C  540   3.321   4.513   2.523 -0.3501  0.3901  0.0081
    1C        C  541   3.394   4.522   2.644 -0.3576  0.5841 -0.0032
    1C        C  542   3.189   4.481   2.767  0.1445 -0.3773 -0.0323
    1C        C  543   3.324   4.520   2.766 -0.0589  0.3260  0.1633
    1C        C  544   3.121   4.458   2.889  0.3051 -0.2335  0.0796
    1C        C  545   3.191   4.476   3.010  0.5581 -0.6360 -0.0094
    1C        C  546   2.998   4.402   3.134  0.3111 -0.7312 -0.1570
    1C        C  547   3.124   4.464   3.134 -0.1068  0.1208 -0.2904
    1C        C  548   2.938   4.365   3.257  0.0759  0.0946 -0.0227
    1C        C  549   3.000   4.403   3.378  0.4944 -0.5582 -0.0326
    1C        C  550   2.834   4.276   3.503 -0.1113 -0.3707  0.2173
    1C        C  551   2.945   4.363   3.501  0.2802 -0.8698 -0.2290
    1C        C  552   2.787   4.228   3.628  0.2919 -0.1632  0.4525
    1C        C  553   2.836   4.277   3.751  0.1989  0.1392  0.3714
    1C        C  554   2.704   4.112   3.872 -0.1793 -0.4192 -0.0344
    1C        C  555   2.790   4.223   3.873 -0.1362 -0.4507 -0.0017
    1C        C  556   2.658   4.061   3.996  0.0732  0.2050  0.3224
    1C        C  557   2.701   4.121   4.117 -0.0593  0.1945  0.3789
    1C        C  558   2.591   3.942   4.246  0.4529 -0.5029 -0.1091
    1C        C  559   2.655   4.068   4.239 -0.6872  0.1044  0.1094
    1C        C  560   2.563   3.877   4.368 -0.0980 -0.4832 -0.2172
    1C        C  561   2.590   3.948   4.487  0.0160 -0.1031 -0.4635
    1C        C  562   2.528   3.749   4.615  0.2324  0.4082  0.0708
    1C        C  563   2.563   3.885   4.610  0.6347  0.2998 -0.1195
    1C        C  564   2.510   3.680   4.737 -0.7179  0.1000 -0.2278
    1C        C  565   2.517   3.758   4.856  0.0642 -0.5515  0.1628
    1C        C  566   2.518   3.547   4.977 -0.0624  0.0844 -0.2493
    1C        C  567   2.516   3.686   4.977  0.8049  0.1104  0.5761
    1C        C  568   3.324   4.474   2.043  0.3587 -0.2602 -0.2842
    1C        C  569   3.397   4.508   2.158 -0.3848  0.2836  0.0334
    1C        C  570   3.186   4.468   2.283  0.2514  0.3735  0.0987
    1C        C  571   3.323   4.506   2.280  0.3073  0.2104  0.4579
    1C        C  572   3.117   4.455   2.406  0.0628  0.1155 -0.0344
    1C        C  573   3.183   4.486   2.526 -0.3936  0.6245  0.0875
    1C        C  574   2.985   4.406   2.650 -0.1208 -0.0070 -0.1593
    1C        C  575   3.115   4.461   2.648 -0.2606  0.3295  0.0999
    1C        C  576   2.925   4.367   2.771  0.0819  0.0248 -0.0502
    1C        C  577   2.993   4.399   2.891  0.2559 -0.1271 -0.1090
    1C        C  578   2.831   4.265   3.017  0.3389 -0.5964  0.1579
    1C        C  579   2.936   4.360   3.014  0.4212 -0.7030 -0.2193
    1C        C  580   2.782   4.216   3.140  0.0128  0.0239  0.2751
    1C        C  581   2.834   4.270   3.260 -0.0660  0.2610  0.1991
    1C        C  582   2.703   4.105   3.385  0.1536 -0.2451 -0.2268
    1C        C  583   2.790   4.217   3.383 -0.0970 -0.0456  0.0526
    1C        C  584   2.663   4.049   3.509  0.1622 -0.0241 -0.1249
    1C        C  585   2.704   4.113   3.627 -0.0530  0.0794 -0.1046
    1C        C  586   2.586   3.937   3.757  0.2071 -0.3045 -0.0561
    1C        C  587   2.664   4.055   3.749 -0.2972  0.0263 -0.2084
    1C        C  588   2.560   3.873   3.880  0.4693 -0.1348  0.0918
    1C        C  589   2.590   3.938   4.002 -0.6611  0.5880 -0.0004
    1C        C  590   2.528   3.738   4.128 -0.2013 -0.0681  0.1609
    1C        C  591   2.560   3.875   4.125 -0.1120 -0.0902 -0.2004
    1C        C  592   2.519   3.668   4.250  0.4099 -0.3587  0.0479
    1C        C  593   2.530   3.740   4.372  0.0202 -0.5048  0.1728
    1C        C  594   2.513   3.533   4.495  0.3851 -0.0980 -0.0771
    1C        C  595   2.519   3.674   4.496 -0.1468 -0.0714  0.3933
    1C        C  596   2.511   3.464   4.618  0.0355  0.0347 -0.0071
    1C        C  597   2.510   3.538   4.738  0.3890  0.0939 -0.0408
    1C        C  598   2.529   3.328   4.862  0.4300 -0.0788  0.2534
    1C        C  599   2.518   3.468   4.861  0.4952 -0.0750 -0.1431
    1C        C  600   2.521   3.243   4.973  0.1112  0.1697  0.4205
    1C        C  601   3.192   4.434   2.043  0.4043 -0.4230  0.1907
    1C        C  602   2.985   4.388   2.162  0.5552 -0.1927 -0.0182
    1C        C  603   3.119   4.438   2.162  0.1808  0.8316  0.0248
    1C        C  604   2.931   4.349   2.287 -0.3017  0.4125 -0.1855
    1C        C  605   2.990   4.392   2.408  0.2282 -0.2273 -0.2084
    1C        C  606   2.822   4.265   2.531 -0.4288  0.4323 -0.1287
    1C        C  607   2.928   4.359   2.530  0.2758 -0.3498 -0.2173
    1C        C  608   2.767   4.220   2.653 -0.4329  0.5305 -0.0954
    1C        C  609   2.821   4.272   2.773 -0.7264  0.9004 -0.1242
    1C        C  610   2.690   4.107   2.897  0.4958 -0.0184  0.1995
    1C        C  611   2.781   4.214   2.896  0.2008  0.2251 -0.1314
    1C        C  612   2.658   4.045   3.020  0.4111 -0.3502  0.0091
    1C        C  613   2.693   4.107   3.142 -0.0476  0.0706 -0.0737
    1C        C  614   2.599   3.918   3.268  0.2519 -0.2989  0.1387
    1C        C  615   2.661   4.045   3.265 -0.0546 -0.1593 -0.1942
    1C        C  616   2.561   3.861   3.392  0.5568 -0.5615  0.1110
    1C        C  617   2.589   3.929   3.513  0.7927 -0.4102 -0.0292
    1C        C  618   2.521   3.734   3.640  0.6963 -0.3684  0.1864
    1C        C  619   2.554   3.871   3.636  0.3246 -0.2835 -0.1009
    1C        C  620   2.513   3.664   3.763  0.5135 -0.0764  0.3429
    1C        C  621   2.526   3.736   3.884 -0.0824  0.0016  0.3712
    1C        C  622   2.504   3.526   4.008 -0.0771 -0.2725 -0.0196
    1C        C  623   2.513   3.667   4.006  0.0721 -0.2739  0.2393
    1C        C  624   2.508   3.456   4.130 -0.2166 -0.1300  0.0701
    1C        C  625   2.506   3.528   4.252 -0.0223 -0.3222  0.1879
    1C        C  626   2.544   3.321   4.378  0.2509 -0.4421  0.2688
    1C        C  627   2.513   3.459   4.375  0.3846 -0.4161  0.1158
    1C        C  628   2.554   3.253   4.501  0.2044 -0.3324  0.3315
    1C        C  629   2.537   3.325   4.621  0.7354  0.1662  0.1102
    1C        C  630   2.606   3.123   4.746 -0.1235 -0.0820  0.0122
    1C        C  631   2.557   3.257   4.743  0.3509  0.0929  0.1326
    1C        C  632   2.617   3.048   4.866 -0.2254  0.0657  0.1122
    1C        C  633   2.556   3.108   4.980 -0.3817  0.0200  0.0502
    1C        C  634   2.778   4.305   2.064  0.1336  0.4054  0.3321
    1C        C  635   2.894   4.383   2.051  0.3835 -0.0053  0.1111
    1C        C  636   2.745   4.227   2.175  0.2331 -0.2955 -0.1223
    1C        C  637   2.814   4.269   2.292  0.0783 -0.1451 -0.0836
    1C        C  638   2.682   4.102   2.410 -0.4085  0.3257  0.4884
    1C        C  639   2.761   4.219   2.412 -0.4343  0.3567 -0.0958
    1C        C  640   2.644   4.043   2.533  0.2259 -0.3098  0.3903
    1C        C  641   2.686   4.104   2.653  0.2315  0.0614  0.1994
    1C        C  642   2.588   3.919   2.778 -0.1640  0.2436 -0.4559
    1C        C  643   2.649   4.046   2.776  0.5246 -0.0735  0.2212
    1C        C  644   2.555   3.856   2.900  0.4499  0.1405 -0.3458
    1C        C  645   2.593   3.919   3.020  0.3257 -0.3018 -0.0734
    1C        C  646   2.522   3.725   3.148  0.1393 -0.0627  0.0093
    1C        C  647   2.571   3.857   3.144  0.9647 -0.3670  0.0088
    1C        C  648   2.511   3.656   3.271  0.4055 -0.1474 -0.0166
    1C        C  649   2.521   3.726   3.393  0.2946 -0.4823  0.1842
    1C        C  650   2.511   3.522   3.518  0.6642 -0.3794 -0.1098
    1C        C  651   2.510   3.663   3.519  0.2797 -0.3847  0.2316
    1C        C  652   2.518   3.452   3.641 -0.0384 -0.1433  0.0652
    1C        C  653   2.510   3.523   3.763 -0.0807 -0.0680  0.0213
    1C        C  654   2.532   3.316   3.888 -0.2661 -0.1864  0.0759
    1C        C  655   2.505   3.455   3.886 -0.3868 -0.2091 -0.0637
    1C        C  656   2.551   3.248   4.010 -0.5356 -0.0845  0.1754
    1C        C  657   2.539   3.318   4.132  0.0155 -0.0761  0.2251
    1C        C  658   2.600   3.117   4.257 -0.2668 -0.2930 -0.1495
    1C        C  659   2.556   3.252   4.255 -0.4614 -0.3535  0.1424
    1C        C  660   2.634   3.055   4.379 -0.1030 -0.1597 -0.1310
    1C        C  661   2.609   3.122   4.500 -0.0871 -0.4496  0.0294
    1C        C  662   2.712   2.939   4.625  0.0536 -0.1473  0.0937
    1C        C  663   2.638   3.060   4.624 -0.2781 -0.3553  0.1174
    1C        C  664   2.753   2.879   4.746 -0.0874 -0.3085  0.0539
    1C        C  665   2.703   2.933   4.867 -0.6338 -0.2454 -0.2030
    1C        C  666   2.752   2.871   4.983 -0.1709  0.2233 -0.1460
    1C        C  667   2.688   4.020   2.053 -0.8011  0.1657 -0.1952
    1C        C  668   2.683   4.101   2.168  0.0472 -0.2199  0.1243
    1C        C  669   2.585   3.911   2.292  0.0549  0.2950  0.2321
    1C        C  670   2.641   4.042   2.289 -0.0758  0.3525  0.3626
    1C        C  671   2.559   3.844   2.413 -0.3841 -0.0278 -0.0414
    1C        C  672   2.580   3.917   2.532 -0.4656  0.0396 -0.0728
    1C        C  673   2.521   3.718   2.658  0.4042 -0.3098 -0.0681
    1C        C  674   2.556   3.855   2.656 -0.7781 -0.0084 -0.1618
    1C        C  675   2.508   3.649   2.781 -0.1316  0.1197  0.1116
    1C        C  676   2.516   3.720   2.903  0.6595  0.0912  0.0735
    1C        C  677   2.505   3.512   3.031  0.3471 -0.0397  0.0343
    1C        C  678   2.509   3.653   3.027  0.3619 -0.0450 -0.0213
    1C        C  679   2.509   3.442   3.154 -0.7580 -0.1804 -0.0050
    1C        C  680   2.503   3.515   3.275 -0.7327 -0.0931 -0.0587
    1C        C  681   2.530   3.307   3.402  0.0070 -0.1946  0.1091
    1C        C  682   2.512   3.447   3.398 -0.9264 -0.3201 -0.1700
    1C        C  683   2.550   3.241   3.526 -0.2099 -0.1376  0.1747
    1C        C  684   2.538   3.313   3.647 -0.6092 -0.2253  0.1913
    1C        C  685   2.604   3.111   3.771 -0.7063 -0.4033  0.1871
    1C        C  686   2.551   3.242   3.769 -0.5369 -0.3351  0.1218
    1C        C  687   2.634   3.050   3.894 -0.1300 -0.5766 -0.0365
    1C        C  688   2.598   3.115   4.014  0.1674  0.1440 -0.3364
    1C        C  689   2.706   2.931   4.139 -0.3409 -0.0458 -0.2447
    1C        C  690   2.633   3.052   4.136 -0.4796 -0.1330 -0.2919
    1C        C  691   2.751   2.876   4.261 -0.3893 -0.0905 -0.2524
    1C        C  692   2.710   2.936   4.382 -0.1240 -0.1664 -0.1311
    1C        C  693   2.755   2.881   4.504 -0.3747 -0.1660 -0.0455
    1C        C  694   2.627   3.894   2.056 -0.4351 -0.0030  0.4681
    1C        C  695   2.526   3.704   2.174 -0.3856 -0.0882 -0.2400
    1C        C  696   2.578   3.835   2.173  0.6115 -0.4651  0.6823
    1C        C  697   2.506   3.635   2.295 -0.0493 -0.0285 -0.1516
    1C        C  698   2.518   3.709   2.415 -0.1241 -0.1039 -0.1018
    1C        C  699   2.488   3.503   2.545  0.2931 -0.1760  0.1102
    1C        C  700   2.506   3.643   2.539  0.0941 -0.1641 -0.1162
    1C        C  701   2.497   3.434   2.668  0.1742 -0.0306  0.1948
    1C        C  702   2.503   3.508   2.787 -0.3288  0.1317  0.1150
    1C        C  703   2.528   3.301   2.912  0.1661  0.0995  0.4396
    1C        C  704   2.501   3.439   2.910 -0.3467 -0.0019  0.0349
    1C        C  705   2.549   3.235   3.035 -0.0935 -0.0385  0.4091
    1C        C  706   2.527   3.302   3.157 -0.7649 -0.1711  0.3646
    1C        C  707   2.587   3.103   3.281 -0.3953 -0.5048 -0.0612
    1C        C  708   2.539   3.235   3.281  0.0246 -0.3494  0.2012
    1C        C  709   2.630   3.045   3.402 -0.8977 -0.3924  0.1695
    1C        C  710   2.610   3.114   3.524 -0.2794 -0.1700  0.1491
    1C        C  711   2.713   2.933   3.647 -0.0392 -0.0783 -0.2492
    1C        C  712   2.635   3.051   3.648  0.1730  0.0618  0.1752
    1C        C  713   2.753   2.878   3.771 -0.3850 -0.0789 -0.1384
    1C        C  714   2.713   2.933   3.894 -0.5545 -0.8669  0.1623
    1C        C  715   2.751   2.876   4.018  0.0639 -0.5292  0.1252
    1C        C  716   2.446   3.498   2.063 -0.1447 -0.2880 -0.0822
    1C        C  717   2.492   3.630   2.060  0.3219 -0.4532 -0.2221
    1C        C  718   2.459   3.420   2.182 -0.4268 -0.1065  0.0676
    1C        C  719   2.481   3.495   2.301 -0.3485  0.0317 -0.0381
    1C        C  720   2.511   3.289   2.425 -0.0225  0.0558  0.4134
    1C        C  721   2.486   3.428   2.425  0.0999  0.0724 -0.0360
    1C        C  722   2.534   3.225   2.549  0.2100 -0.0526  0.3070
    1C        C  723   2.516   3.294   2.671 -0.2300 -0.0801  0.2508
    1C        C  724   2.596   3.096   2.789 -0.3572  0.0052 -0.0056
    1C        C  725   2.541   3.227   2.792  0.3771  0.3086  0.3380
    1C        C  726   2.624   3.037   2.914  0.8914  0.2678 -0.1526
    1C        C  727   2.594   3.101   3.037 -0.0264 -0.0263 -0.2211
    1C        C  728   2.691   2.916   3.161 -0.3768 -0.1637 -0.0252
    1C        C  729   2.617   3.036   3.160 -0.4533 -0.2127 -0.2388
    1C        C  730   2.745   2.867   3.282 -0.6613 -0.0409  0.1509
    1C        C  731   2.709   2.928   3.404 -0.9414 -0.4209  0.2599
    1C        C  732   2.751   2.871   3.526 -0.1964 -0.5534 -0.0553
    1C        C  733   2.491   3.199   2.071 -0.3849 -0.2482  0.2295
    1C        C  734   2.488   3.280   2.186 -0.6774 -0.1541  0.1566
    1C        C  735   2.581   3.084   2.305 -0.0418  0.3608  0.0954
    1C        C  736   2.522   3.213   2.307 -0.2383  0.2659  0.2631
    1C        C  737   2.612   3.023   2.429 -0.0147 -0.0714 -0.1261
    1C        C  738   2.589   3.095   2.549  0.7410  0.1723 -0.1237
    1C        C  739   2.689   2.904   2.668  0.4625  0.2805 -0.4370
    1C        C  740   2.620   3.028   2.669  0.4605  0.2755  0.0032
    1C        C  741   2.734   2.855   2.793  0.4405  0.2443 -0.4448
    1C        C  742   2.697   2.916   2.915  0.6278  0.1095 -0.3212
    1C        C  743   2.736   2.861   3.039  0.3911  0.5205 -0.0599
    1C        C  744   2.543   3.070   2.071 -0.3767 -0.2433 -0.0218
    1C        C  745   2.684   2.899   2.187 -0.5711  0.0557 -0.3969
    1C        C  746   2.608   3.018   2.183  0.0997  0.5038  0.0516
    1C        C  747   2.729   2.841   2.307 -0.2859 -0.0404 -0.5502
    1C        C  748   2.687   2.904   2.426  0.0252 -0.0365 -0.4468
    1C        C  749   2.725   2.841   2.547  0.4920  0.2816 -0.4267
    1C        C  750   2.733   2.841   2.069 -0.3690 -0.0650 -0.2519
    1C        C  751   3.652   2.303   1.994  0.0160  0.2232 -0.2266
    1C        O  752   3.683   2.195   2.051 -0.3304  0.2724  0.0571
    1C        O  753   3.719   2.318   1.872  0.1909 -0.3140 -0.2036
    1C        C  754   4.586   3.051   1.950  0.2469  0.0471  0.4773
    1C        O  755   4.572   3.100   1.835 -0.0475 -0.6756  0.1963
    1C        O  756   4.719   3.007   1.947  0.0907 -0.4103 -0.3411
    1C        C  757   4.450   4.228   1.974  0.7379 -0.5595 -0.3526
    1C        O  758   4.531   4.311   2.025 -0.1169  0.2766 -0.3371
    1C        O  759   4.449   4.232   1.834  0.1438  0.5916 -0.3292
    1C        C  760   3.584   4.672   1.956 -0.1226 -0.1247  0.1338
    1C        O  761   3.576   4.791   1.996 -0.3202 -0.2935  0.6016
    1C        O  762   3.587   4.658   1.817  0.6045  0.3042  0.1006
    1C        C  763   2.877   4.486   1.946 -0.8346 -0.5174 -0.2051
    1C        O  764   2.936   4.471   1.836  0.2928  0.4156  0.2574
    1C        O  765   2.804   4.604   1.966  0.1794  0.0994 -0.0664
    1C        C  766   2.342   3.482   1.958 -0.4170  0.0684  0.1309
    1C        O  767   2.368   3.463   1.836 -0.2212 -0.4130  0.2465
    1C        O  768   2.223   3.418   1.994 -0.5351  0.3277  0.1979
    1C        C  769   4.677   3.580   5.074 -0.4448 -0.2434  0.0515
    1C        O  770   4.652   3.599   5.196 -0.2807 -0.4010  0.1096
    1C        O  771   4.816   3.576   5.054 -0.3291  0.6883  0.5829
    1C        C  772   4.258   4.461   5.043  0.2060 -0.5102  0.5064
    1C        O  773   4.233   4.437   5.164 -0.4039 -0.0507  0.4763
    1C        O  774   4.340   4.570   5.013  0.4762 -0.8219  0.1011
    1C        C  775   4.148   2.514   5.055 -0.6127  0.0617  0.1489
    1C        O  776   4.166   2.389   5.049 -0.2376  0.1055  0.3154
    1C        O  777   4.176   2.545   5.189 -0.8461  0.4198  0.1145
    1C        C  778   2.924   4.509   5.082 -0.0273  0.4611 -0.0782
    1C        O  779   2.888   4.630   5.087  0.1867  0.5162  0.1685
    1C        O  780   2.913   4.446   5.207 -0.0843 -0.5677 -0.5948
    1C        C  781   2.469   3.040   5.079 -0.2277 -0.1998  0.0343
    1C        O  782   2.351   3.007   5.050 -0.2565 -0.5039  0.4857
    1C        O  783   2.491   3.041   5.216 -0.1588 -0.0135  0.0209
    1C        C  784   2.395   4.000   5.033  0.2669 -0.1074 -0.1267
    1C        O  785   2.280   3.978   4.987  0.3331 -0.0810 -0.3067
    1C        O  786   2.399   4.019   5.172 -0.3734  0.3027 -0.1612
    1C        C  787   2.960   2.410   2.014  0.5190 -0.0088  0.1712
    1C        O  788   2.932   2.421   1.892  0.3756 -0.1293  0.1934
    1C        O  789   2.911   2.292   2.068  0.1976  0.2248  0.3923
    1C        C  790   3.188   2.389   5.071 -0.3685  0.1194 -0.2683
    1C        O  791   3.195   2.268   5.037 -0.1193 -0.0147  0.2487
    1C        O  792   3.176   2.406   5.210 -0.2323 -0.3658 -0.1950
    1C        H  793   4.286   3.013   5.064  1.7349 -0.3814 -0.1770
    1C        H  794   4.176   2.806   5.070 -0.6904 -0.8035 -0.1701
    1C        H  795   4.460   3.137   5.064 -1.5718 -0.1739 -0.3315
    1C        H  796   4.504   3.379   5.059 -0.3760  1.1782 -0.4621
    1C        H  797   4.589   3.819   5.025 -1.8055  1.8224 -0.9452
    1C        H  798   4.365   3.953   5.045 -1.1010 -0.1740 -0.5144
    1C        H  799   4.318   4.183   5.054  0.8410 -0.5773  0.7010
    1C        H  800   4.015   4.512   5.036  0.4098  0.2200 -0.0934
    1C        H  801   3.821   4.606   5.029 -1.4660  1.7479  0.5541
    1C        H  802   3.597   4.661   5.023  1.2305  0.7206  0.0500
    1C        H  803   3.398   4.481   5.036 -0.5815 -1.0473  0.0650
    1C        H  804   3.166   4.472   5.052  1.6418  0.3231  1.0008
    1C        H  805   3.884   2.481   5.063 -1.1306 -1.0670 -0.4157
    1C        H  806   3.679   2.478   5.075 -2.2285 -1.0902  0.9838
    1C        H  807   3.033   2.612   5.074 -0.3435  0.0445  0.0244
    1C        H  808   3.450   2.421   5.062  0.4326 -0.8903 -0.6261
    1C        H  809   2.901   2.761   5.073 -0.2658  0.3954  0.1901
    1C        H  810   2.696   2.884   5.073 -1.3984  1.0613 -0.9931
    1C        H  811   2.481   3.284   5.064 -1.0350  1.5990 -0.6690
    1C        H  812   2.485   3.501   5.068 -0.9778  2.0455  0.4715
    1C        H  813   2.553   3.738   5.063  1.7001 -0.1918  0.3876
    1C        H  814   2.564   4.186   5.034  0.6965 -2.2629  1.1389
    1C        H  815   2.708   4.366   5.018  0.9350  0.6436  1.0807
    1C        H  816   2.698   2.873   1.973 -1.1275  0.0636  0.0669
    1C        H  817   2.891   2.733   1.989  1.1205  1.8901  0.5268
    1C        H  818   3.213   2.426   1.991  0.1789 -0.6644  0.3552
    1C        H  819   3.429   2.431   1.981  1.5861 -1.6321 -0.2734
    1C        H  820   3.889   2.460   1.989  0.2796 -0.1331  0.2001
    1C        H  821   4.065   2.603   1.969 -1.1456 -1.7357 -1.1989
    1C        H  822   4.276   2.701   1.982  0.8762  1.0873 -1.3853
    1C        H  823   4.377   2.909   1.964 -0.0083  0.4225  0.2321
    1C        H  824   4.593   3.317   1.976  1.0489  1.1203  0.5502
    1C        H  825   4.525   3.523   1.956 -1.9510 -2.7889  1.0611
    1C        H  826   4.467   3.752   1.955 -0.1964  1.7172  0.8448
    1C        H  827   3.818   4.543   1.961  0.1918 -1.4547 -0.4151
    1C        H  828   3.965   4.384   1.942  1.0689  1.0561 -0.1040
    1C        H  829   4.167   4.260   1.945  0.4488  2.0448 -0.5074
    1C        H  830   4.537   3.994   1.996 -0.9250 -1.1197 -1.6889
    1C        H  831   2.601   3.852   1.961  1.2236 -0.1307  0.0335
    1C        H  832   2.751   4.046   1.971 -0.2964  0.2877  0.2261
    1C        H  833   2.710   4.314   1.982 -0.4801 -1.2089  0.6338
    1C        H  834   3.372   4.490   1.949  1.6585 -0.4209  0.3277
    1C        H  835   3.141   4.440   1.949  0.7349 -0.7082 -0.0098
    1C        H  836   2.497   2.998   2.006  0.4015  0.5769 -1.5281
    1C        H  837   2.459   3.247   1.981 -2.5211 -1.3022  0.3424
    1C        H  838   2.514   3.677   1.966 -0.8270  1.1141  0.2423
    2V3OU   H29  839   2.803   3.547   0.857 -1.3613 -0.8432 -0.9359
    2V3OU   C27  840   2.786   3.508   0.960  0.2025  0.7236 -0.0418
    2V3OU   H27  841   2.722   3.571   1.026 -1.8276  0.4471 -1.6625
    2V3OU   H28  842   2.728   3.413   0.946 -3.5933  2.8825 -0.1575
    2V3OU   O11  843   2.911   3.480   1.024  0.3380  0.5588 -0.3764
    2V3OU   C15  844   2.918   3.407   1.141 -0.1492  0.5670 -0.3427
    2V3OU   C13  845   3.047   3.379   1.190 -0.3784  0.3118  0.1242
    2V3OU   C14  846   3.075   3.267   1.268 -0.1114 -0.1150 -0.5720
    2V3OU   C16  847   2.972   3.183   1.307  0.0644 -0.1109 -0.0867
    2V3OU    H6  848   2.987   3.109   1.388 -0.6989  0.0671  0.2345
    2V3OU   C12  849   3.215   3.221   1.286 -0.2122 -0.1333  0.2044
    2V3OU    O2  850   3.245   3.125   1.360 -0.0170  0.4052  0.8383
    2V3OU   C10  851   3.328   3.308   1.250 -0.2218 -0.0887  0.2866
    2V3OU    C8  852   3.461   3.271   1.271 -0.2298 -0.0375  0.4200
    2V3OU   O10  853   3.492   3.156   1.335  0.1537 -0.3335 -0.2874
    2V3OU   H26  854   3.411   3.114   1.368  0.5870 -1.8568 -1.0475
    2V3OU    C6  855   3.567   3.347   1.213 -0.3865 -0.5061 -0.5022
    2V3OU    C5  856   3.539   3.464   1.143 -0.2766 -0.1531  0.0405
    2V3OU    C4  857   3.706   3.294   1.222 -0.3274 -0.3572 -0.5509
    2V3OU    H4  858   3.719   3.230   1.314 -1.7857 -0.6098 -0.5001
    2V3OU    H5  859   3.715   3.220   1.137  0.3892  0.3900 -1.1472
    2V3OU    C2  860   3.817   3.399   1.214  0.0346 -0.6621  0.3196
    2V3OU    O6  861   3.812   3.480   1.331  0.2742 -0.5992  0.2872
    2V3OU   H21  862   3.755   3.557   1.317  2.5623  1.0484 -0.6696
    2V3OU    C3  863   3.778   3.495   1.101 -0.1085 -0.7338  0.3085
    2V3OU    H2  864   3.858   3.572   1.094 -2.0490  1.6010  1.9439
    2V3OU    H3  865   3.780   3.438   1.004  0.8459  1.1274 -0.8317
    2V3OU   C25  866   3.952   3.329   1.194  0.1455 -0.3338 -0.1076
    2V3OU    O7  867   3.992   3.299   1.082 -0.0730 -0.0447 -0.2667
    2V3OU   C26  868   4.035   3.290   1.314 -0.0239  0.7290  0.3715
    2V3OU   H22  869   4.074   3.376   1.374 -2.5399  0.1574  3.0961
    2V3OU   H23  870   4.126   3.235   1.279  0.7623  1.7567  0.7498
    2V3OU    O8  871   3.979   3.205   1.412  0.1777 -0.0406 -0.1725
    2V3OU   H24  872   3.921   3.248   1.477 -1.3660 -3.9668  1.4240
    2V3OU    C1  873   3.645   3.567   1.115  0.0060 -0.4566 -0.0177
    2V3OU    H1  874   3.619   3.617   1.017 -0.8215 -0.7439  0.0500
    2V3OU    O3  875   3.651   3.656   1.228  0.0313 -0.0114 -0.3662
    2V3OU   C19  876   3.612   3.793   1.224 -0.5077 -0.1624 -0.3315
    2V3OU    H9  877   3.515   3.803   1.166 -0.1245 -0.7133 -1.0853
    2V3OU    O4  878   3.712   3.848   1.141 -0.0184 -0.0840  0.3095
    2V3OU   C20  879   3.847   3.875   1.181 -0.1150  0.1740  0.4694
    2V3OU   H10  880   3.896   3.777   1.208 -2.0142 -0.4277  1.8895
    2V3OU   C24  881   3.607   3.856   1.363  0.4835  0.1808 -0.4432
    2V3OU   H16  882   3.542   3.792   1.428  2.1866 -2.2282 -0.9772
    2V3OU   H17  883   3.560   3.957   1.354  0.6796  0.6495  2.5922
    2V3OU   C23  884   3.751   3.876   1.412  0.3666  0.2430 -0.1202
    2V3OU   H15  885   3.793   3.771   1.425 -1.2338 -0.5013 -0.6522
    2V3OU    N1  886   3.736   3.956   1.532  0.0696 -0.4215  0.2874
    2V3OU   H19  887   3.802   3.919   1.598  0.9434  0.8110  0.1311
    2V3OU   H20  888   3.646   3.941   1.573  0.3535  0.8915  1.4756
    2V3OU   C21  889   3.850   3.948   1.315  0.4002  0.6425  0.2079
    2V3OU   H11  890   3.955   3.929   1.353  0.1692 -2.1648 -0.3667
    2V3OU    O5  891   3.825   4.087   1.302 -0.2967  0.5014  0.0187
    2V3OU   H18  892   3.761   4.100   1.373  0.0145  3.1385 -0.0953
    2V3OU   C22  893   3.916   3.948   1.066  0.1077 -0.7687 -0.0053
    2V3OU   H12  894   3.867   4.047   1.052  1.5192  0.1450  1.1783
    2V3OU   H13  895   3.905   3.892   0.970 -1.1306  0.8124 -0.8107
    2V3OU   H14  896   4.026   3.955   1.090 -0.0191 -2.4551  1.3439
    2V3OU   C11  897   3.157   3.471   1.159  0.0347 -0.1667  0.1669
    2V3OU    O1  898   3.136   3.593   1.139 -0.3566 -0.1951  0.4080
    2V3OU    C9  899   3.297   3.423   1.173 -0.0430 -0.6134 -0.5729
    2V3OU    C7  900   3.402   3.501   1.127 -0.2193  0.2195  0.4242
    2V3OU    O9  901   3.378   3.614   1.051  0.7054 -0.0511 -0.2805
    2V3OU   H25  902   3.282   3.627   1.048  0.8893  1.4133 -0.3402
    2V3OU   C17  903   2.817   3.320   1.186  0.2644 -0.2026 -0.8719
    2V3OU    H7  904   2.716   3.336   1.147 -0.9549 -0.4246  1.9504
    2V3OU   C18  905   2.841   3.211   1.268  0.2322  0.0230 -0.5589
    2V3OU    H8  906   2.760   3.137   1.278  1.6548 -1.5571 -0.3085
    3SOL     OW  907   5.735   4.299   0.832  1.1098  0.2858 -0.3000
    3SOL    HW1  908   5.757   4.357   0.911  1.1476  2.6662 -1.9604
    3SOL    HW2  909   5.813   4.297   0.770  0.5466 -0.3153 -0.9974
    4SOL     OW  910   5.097   0.158   1.831 -0.0371 -0.4516 -0.3607
    4SOL    HW1  911   5.123   0.146   1.927  0.0577  0.4643 -0.2650
    4SOL    HW2  912   5.178   0.145   1.774  0.1838  0.2314 -0.2174
    5SOL     OW  913   3.504   2.859   0.810 -0.4554 -0.0555 -0.3134
    5SOL    HW1  914   3.541   2.783   0.863  1.4344  0.6416 -0.5679
    5SOL    HW2  915   3.525   2.845   0.713 -2.7384 -0.6638 -0.7972
    6SOL     OW  916   3.276   3.185   0.921 -0.2631 -0.4904  0.4429
    6SOL    HW1  917   3.218   3.265   0.908  1.2973  0.8864  1.5671
    6SOL    HW2  918   3.236   3.125   0.990 -1.5895 -0.8728 -0.6211
    7SOL     OW  919   4.679   6.878   1.145 -0.2290 -0.0506  0.3486
    7SOL    HW1  920   4.695   6.801   1.208 -0.8197 -0.7352 -0.3152
    7SOL    HW2  921   4.723   6.858   1.057  1.0103  1.1152  0.6738
    8SOL     OW  922   3.893   2.137   3.539 -0.3037  0.1876 -0.0256
    8SOL    HW1  923   3.978   2.138   3.592 -1.0583 -1.2954  1.2751
    8SOL    HW2  924   3.915   2.137   3.441  1.1417  1.3756  0.2614
    9SOL     OW  925   5.874   4.844   5.694 -0.2268  0.5830 -0.5495
    9SOL    HW1  926   5.841   4.937   5.708 -0.4841  0.5126 -0.6971
    9SOL    HW2  927   5.805   4.790   5.647 -0.6745 -0.0909  0.8284
   10SOL     OW  928   6.847   3.482   2.009 -0.1808  0.3535 -0.1637
   10SOL    HW1  929   6.882   3.491   2.103 -1.3582 -2.0786  0.5846
   10SOL    HW2  930   6.902   3.416   1.959 -0.3803  0.6330 -0.7579
   11SOL     OW  931   4.978   0.550   0.844  0.4232 -0.5212  0.2589
   11SOL    HW1  932   4.964   0.533   0.942  0.8218 -0.6970  0.2863
   11SOL    HW2  933   4.963   0.466   0.793 -0.4147 -0.2870  0.0954
   12SOL     OW  934   6.276   0.008   4.315 -0.1322  0.1194 -0.0872
   12SOL    HW1  935   6.306   0.009   4.220 -0.0152 -1.7574 -0.1113
   12SOL    HW2  936   6.293   0.097   4.357  1.1809  0.5221 -1.4061
   13SOL     OW  937   0.537   5.021   1.488  0.2083 -0.1542 -0.4795
   13SOL    HW1  938   0.577   5.112   1.499 -1.0866  0.1628  3.5514
   13SOL    HW2  939   0.437   5.028   1.496  0.0369 -1.8637 -0.7173
   14SOL     OW  940   3.364   6.582   2.983 -0.1090 -0.2492  0.7513
   14SOL    HW1  941   3.299   6.594   2.908  0.3643  0.2218  0.4113
   14SOL    HW2  942   3.318   6.537   3.060 -0.5528 -0.8729  0.1251
   15SOL     OW  943   2.969   0.938   5.816  0.0716  0.1594  0.4374
   15SOL    HW1  944   3.006   0.877   5.747 -0.4784  0.1172  0.1687
   15SOL    HW2  945   2.904   1.002   5.773 -1.3851 -0.8108  1.1190
   16SOL     OW  946   6.726   4.094   6.612 -0.5492  0.1525 -0.1552
   16SOL    HW1  947   6.744   4.025   6.682 -0.0207 -0.5283 -0.9257
   16SOL    HW2  948   6.694   4.048   6.529 -1.6649  0.9914 -0.1982
   17SOL     OW  949   5.578   5.335   2.817  0.7398 -0.3185  0.2019
   17SOL    HW1  950   5.602   5.237   2.816 -0.1816 -0.5524  0.0391
   17SOL    HW2  951   5.614   5.377   2.899 -1.1440 -1.4122  1.6729
   18SOL     OW  952   0.432   6.832   2.561  0.0190  0.5668  0.4630
   18SOL    HW1  953   0.398   6.920   2.527 -0.8407  0.6448  1.4844
   18SOL    HW2  954   0.497   6.795   2.495 -1.6896  0.6294 -1.3892
   19SOL     OW  955   1.373   6.569   0.909  0.1914  0.0095 -0.2283
   19SOL    HW1  956   1.281   6.590   0.878  0.1966  2.4044  1.1419
   19SOL    HW2  957   1.430   6.543   0.831 -2.0130 -3.4353 -0.8979
   20SOL     OW  958   3.156   1.942   3.814  0.4514  0.3065  0.3121
   20SOL    HW1  959   3.143   2.011   3.743 -1.6286 -0.1137  0.2375
   20SOL    HW2  960   3.242   1.893   3.797  1.2079  1.8333 -0.4833
   21SOL     OW  961   2.221   2.224   1.494  0.5168 -0.7060  0.4936
   21SOL    HW1  962   2.130   2.261   1.475  0.9765 -0.4667 -1.5152
   21SOL    HW2  963   2.285   2.299   1.509  0.9906 -0.6994 -1.3146
   22SOL     OW  964   0.603   2.093   5.639  0.2044 -0.1712  0.5230
   22SOL    HW1  965   0.663   2.018   5.612 -0.4152 -0.6526  0.4473
   22SOL    HW2  966   0.657   2.164   5.684  0.4100 -2.2622  3.9852
   23SOL     OW  967   2.188   6.398   6.581 -0.2631 -0.3329 -0.4164
   23SOL    HW1  968   2.124   6.325   6.558 -0.3311 -0.4997  0.2930
   23SOL    HW2  969   2.238   6.426   6.498 -0.4708 -0.9498 -0.7535
   24SOL     OW  970   4.198   1.616   6.260 -0.1598 -0.2493  0.4658
   24SOL    HW1  971   4.273   1.647   6.201  0.0938 -1.2771  0.2340
   24SOL    HW2  972   4.201   1.666   6.347  0.2959  0.2943  0.1461
   25SOL     OW  973   2.348   4.148   0.370  0.0194  0.2352 -0.2123
   25SOL    HW1  974   2.402   4.232   0.376 -0.2691  0.5137 -1.4347
   25SOL    HW2  975   2.345   4.105   0.460  0.5225  1.3070  0.3362
   26SOL     OW  976   4.653   0.434   1.808  0.1176  0.0760  0.0010
   26SOL    HW1  977   4.601   0.389   1.881  1.2153 -2.6280 -0.7912
   26SOL    HW2  978   4.750   0.434   1.831  0.4276 -0.3886 -1.2414
   27SOL     OW  979   6.749   0.578   4.005  0.1327 -0.4328 -0.1585
   27SOL    HW1  980   6.744   0.558   3.907 -0.0454  1.4379 -0.5696
   27SOL    HW2  981   6.658   0.569   4.046  0.1445 -0.8891 -0.2280
   28SOL     OW  982   3.113   0.870   0.980 -0.2133 -0.4899  0.0082
   28SOL    HW1  983   3.057   0.944   0.942  0.8122  0.7756  0.8779
   28SOL    HW2  984   3.177   0.837   0.910  2.9596  3.0879  0.8771
   29SOL     OW  985   5.390   1.853   2.229  0.0502 -0.1923 -0.0207
   29SOL    HW1  986   5.299   1.875   2.262 -0.2940 -0.4163 -0.7967
   29SOL    HW2  987   5.414   1.759   2.255  0.3744  0.1220  0.8408
   30SOL     OW  988   5.233   2.422   6.906  0.8436  0.1068 -0.1029
   30SOL    HW1  989   5.202   2.378   6.991  1.1000  1.3187  0.6344
   30SOL    HW2  990   5.321   2.466   6.922  2.0942 -1.6291 -1.6420
   31SOL     OW  991   0.753   1.011   4.168 -0.1616 -0.6561 -0.7614
   31SOL    HW1  992   0.727   0.934   4.227  0.1335 -0.2667 -0.1144
   31SOL    HW2  993   0.852   1.024   4.172 -0.5209  2.2471  2.3179
   32SOL     OW  994   0.286   1.691   0.818  0.3176  0.1671 -0.1137
   32SOL    HW1  995   0.275   1.705   0.917  0.7958  0.3485 -0.0866
   32SOL    HW2  996   0.218   1.624   0.787 -0.1695  0.4831  0.2468
   33SOL     OW  997   1.235   1.367   4.676 -0.2264  0.0928  0.1576
   33SOL    HW1  998   1.313   1.305   4.665  0.9144  1.0100  2.4768
   33SOL    HW2  999   1.227   1.425   4.596  2.8715  1.4251  0.6521
   34SOL     OW 1000   5.024   0.545   4.954 -0.0404  0.1541 -0.2446
   34SOL    HW1 1001   5.100   0.480   4.951  0.7995  1.0002  1.2754
   34SOL    HW2 1002   5.033   0.611   4.880  1.2218  0.7612  0.4212
   35SOL     OW 1003   6.211   2.479   5.997 -0.4415 -0.3105 -0.1170
   35SOL    HW1 1004   6.193   2.543   5.923 -0.5526  0.2369  0.3784
   35SOL    HW2 1005   6.172   2.389   5.974 -1.1997  0.0729 -0.3578
   36SOL     OW 1006   1.916   2.241   5.276  0.6139  0.3276  0.3807
   36SOL    HW1 1007   1.851   2.313   5.300  0.4364  0.5425 -0.6819
   36SOL    HW2 1008   1.980   2.275   5.208  1.4694 -0.0743  0.9620
   37SOL     OW 1009   3.437   6.696   0.127  0.3456  0.2302  0.3121
   37SOL    HW1 1010   3.390   6.707   0.214 -0.6804  3.2803 -0.5078
   37SOL    HW2 1011   3.534   6.717   0.138  0.4094 -0.3496  0.8889
   38SOL     OW 1012   6.680   0.172   1.945  0.7688 -0.4824  0.4637
   38SOL    HW1 1013   6.646   0.084   1.913  0.6402 -0.2436 -0.0823
   38SOL    HW2 1014   6.778   0.165   1.965  0.6093 -0.9274  1.1155
   39SOL     OW 1015   1.013   2.807   6.564  0.4244 -0.0844  0.1807
   39SOL    HW1 1016   1.080   2.745   6.606  0.1830  1.0332  2.3990
   39SOL    HW2 1017   0.924   2.763   6.561  0.7523 -0.7220 -0.5934
   40SOL     OW 1018   1.333   0.789   0.302 -0.3255 -0.6411 -0.0915
   40SOL    HW1 1019   1.367   0.799   0.208  1.0773  0.2764  0.4840
   40SOL    HW2 1020   1.309   0.879   0.338  0.3551 -0.8228  0.8469
   41SOL     OW 1021   1.558   1.058   5.407 -0.5068 -0.3683  0.4133
   41SOL    HW1 1022   1.573   0.981   5.345 -0.0247  0.7107 -0.8687
   41SOL    HW2 1023   1.586   1.033   5.500  0.1537 -1.5378 -0.0836
   42SOL     OW 1024   5.032   1.784   6.045  0.1373  0.4792 -0.1299
   42SOL    HW1 1025   5.076   1.697   6.068  2.5443  1.5413 -0.3640
   42SOL    HW2 1026   5.076   1.858   6.096 -1.7278  1.6178 -0.0725
   43SOL     OW 1027   3.919   4.545   6.771 -0.4862  0.0768 -0.6200
   43SOL    HW1 1028   3.977   4.526   6.692 -0.9191  0.0460 -0.9382
   43SOL    HW2 1029   3.907   4.461   6.824  0.6006  0.3173  0.0323
   44SOL     OW 1030   2.019   4.789   1.163  0.0794 -0.0488 -0.4716
   44SOL    HW1 1031   2.010   4.888   1.157 -0.0878 -0.0458 -0.1591
   44SOL    HW2 1032   2.100   4.760   1.112  1.3142  0.4420  1.1431
   45SOL     OW 1033   2.246   1.732   1.134 -0.4095 -0.1548 -0.0103
   45SOL    HW1 1034   2.328   1.781   1.165  0.2403 -1.9457  1.2490
   45SOL    HW2 1035   2.244   1.733   1.034  0.5874  0.8097 -0.0468
   46SOL     OW 1036   0.282   5.981   2.898  0.0314  0.2280 -0.9155
   46SOL    HW1 1037   0.234   5.928   2.829  0.6584 -0.3095 -0.9462
   46SOL    HW2 1038   0.279   5.932   2.986 -0.5320  0.7794 -0.6183
   47SOL     OW 1039   6.852   6.008   2.167  0.0347 -0.1329  0.0208
   47SOL    HW1 1040   6.832   6.074   2.240  1.8986  1.2119 -0.6100
   47SOL    HW2 1041   6.949   5.986   2.168 -0.1516 -1.1012 -1.2558
   48SOL     OW 1042   5.979   6.887   6.034 -0.7619 -0.3152 -0.1475
   48SOL    HW1 1043   6.039   6.926   5.964  0.5162 -1.3748  0.3112
   48SOL    HW2 1044   5.983   6.787   6.029  0.8331 -0.4632  2.6120
   49SOL     OW 1045   6.886   3.011   0.225  0.2003  0.6032 -1.1171
   49SOL    HW1 1046   6.884   2.919   0.187  1.6920 -0.0574  0.3082
   49SOL    HW2 1047   6.980   3.038   0.244 -0.2343  2.3074 -1.1819
   50SOL     OW 1048   1.698   3.091   3.417 -0.3367 -0.3317 -0.1929
   50SOL    HW1 1049   1.742   3.006   3.447 -0.7791  0.0242  1.6243
   50SOL    HW2 1050   1.767   3.152   3.378  0.5477 -0.4018  1.1575
   51SOL     OW 1051   3.047   5.503   2.233 -0.2084 -0.0322 -0.2857
   51SOL    HW1 1052   2.968   5.503   2.172 -1.0499 -1.8938  0.7358
   51SOL    HW2 1053   3.113   5.435   2.202  0.5355  0.7760 -0.5225
   52SOL     OW 1054   1.084   7.014   2.292  0.5174  0.2837 -0.6771
   52SOL    HW1 1055   1.000   7.039   2.245  0.7069 -0.0834 -1.2143
   52SOL    HW2 1056   1.093   6.915   2.295  1.2408  0.3248 -1.1843
   53SOL     OW 1057   5.808   2.088   3.209  0.1781  0.4229 -0.1239
   53SOL    HW1 1058   5.897   2.127   3.187  0.7914 -0.9989 -0.2494
   53SOL    HW2 1059   5.748   2.160   3.246  1.1408  1.5299 -0.6575
   54SOL     OW 1060   5.666   3.592   5.548  0.5589 -0.4431 -0.0628
   54SOL    HW1 1061   5.753   3.560   5.587  0.4919 -0.1969  0.2967
   54SOL    HW2 1062   5.651   3.687   5.574  0.5126 -0.2694 -0.7096
   55SOL     OW 1063   2.895   0.538   1.154  0.0322 -0.4347 -0.3477
   55SOL    HW1 1064   2.852   0.561   1.241  0.8209 -1.8694  0.4581
   55SOL    HW2 1065   2.886   0.615   1.091  1.4044  1.5870  1.7422
   56SOL     OW 1066   1.826   0.131   2.225 -0.6532 -0.4784 -0.3638
   56SOL    HW1 1067   1.905   0.071   2.239  1.9813  3.2815  2.8499
   56SOL    HW2 1068   1.841   0.188   2.144 -0.6174 -0.5292 -0.3927
   57SOL     OW 1069   4.775   0.831   1.608 -0.2414  0.1023 -0.0075
   57SOL    HW1 1070   4.834   0.883   1.546 -0.4397  0.9441  0.4907
   57SOL    HW2 1071   4.687   0.877   1.616  0.7423  1.7777  3.2252
   58SOL     OW 1072   0.349   6.998   6.884  0.3216  0.2747  0.0314
   58SOL    HW1 1073   0.264   6.949   6.867  1.3535 -0.8693 -2.3123
   58SOL    HW2 1074   0.423   6.958   6.830  2.6932  0.4701  2.8469
   59SOL     OW 1075   1.429   0.359   6.202 -0.1299  0.2548 -0.1151
   59SOL    HW1 1076   1.399   0.414   6.280 -0.4434 -1.4689  1.0191
   59SOL    HW2 1077   1.499   0.409   6.152  2.5185  0.1394  3.1641
   60SOL     OW 1078   5.033   1.396   2.551 -0.7201 -0.2225 -0.2095
   60SOL    HW1 1079   5.075   1.485   2.565 -1.5695  0.1135  0.2639
   60SOL    HW2 1080   5.094   1.338   2.497 -0.3689  0.8107 -0.9401
   61SOL     OW 1081   3.381   0.339   4.344 -0.6943 -0.3391  0.1730
   61SOL    HW1 1082   3.384   0.305   4.250 -1.8747  0.7285 -0.2792
   61SOL    HW2 1083   3.298   0.305   4.389 -1.3943  1.1096  0.0223
   62SOL     OW 1084   3.833   6.782   6.978  0.4747  0.3133 -0.1677
   62SOL    HW1 1085   3.912   6.798   6.919  1.4090 -0.5779  0.8003
   62SOL    HW2 1086   3.801   6.688   6.966  1.5205 -0.3382  1.6561
   63SOL     OW 1087   6.648   2.889   3.977 -0.7519 -0.2891 -0.2291
   63SOL    HW1 1088   6.702   2.941   4.043 -0.7485  0.0671 -0.5070
   63SOL    HW2 1089   6.573   2.946   3.943  0.1431  0.0852 -1.6745
   64SOL     OW 1090   6.523   2.362   0.378 -0.8062 -0.2462  0.7019
   64SOL    HW1 1091   6.520   2.344   0.280  2.5705 -0.9653  0.6119
   64SOL    HW2 1092   6.518   2.460   0.394 -0.4021 -0.0526 -0.2793
   65SOL     OW 1093   6.751   4.983   6.979  0.1864 -0.3688  0.1083
   65SOL    HW1 1094   6.752   4.993   7.078 -0.8168 -0.5903  0.1442
   65SOL    HW2 1095   6.681   4.918   6.952  1.1560 -1.1220 -0.6889
   66SOL     OW 1096   3.601   0.017   0.989  0.0667  0.1490 -0.2775
   66SOL    HW1 1097   3.667   0.038   0.916  0.0248  1.0956 -0.0676
   66SOL    HW2 1098   3.511   0.051   0.963 -0.2840 -0.8719 -0.4314
   67SOL     OW 1099   6.194   5.927   4.017 -0.6589  0.0190  0.1232
   67SOL    HW1 1100   6.175   5.830   4.003 -1.7935  0.4441 -1.6418
   67SOL    HW2 1101   6.183   5.976   3.930  1.5662  1.4900  0.5728
   68SOL     OW 1102   6.076   2.533   0.025 -0.3521  0.0970 -0.1309
   68SOL    HW1 1103   6.022   2.593  -0.034  0.8531  0.1956 -1.2007
   68SOL    HW2 1104   6.107   2.584   0.106  0.5674  0.9225 -0.9743
   69SOL     OW 1105   2.937   2.200   6.469  0.2062  0.5342  0.1140
   69SOL    HW1 1106   2.886   2.163   6.391  1.1252 -0.8637  0.1439
   69SOL    HW2 1107   2.904   2.158   6.554  0.5581  0.5661  0.2667
   70SOL     OW 1108   5.728   6.837   3.847  0.0322 -0.7629  0.0788
   70SOL    HW1 1109   5.762   6.851   3.940 -0.2140  0.8974 -0.0601
   70SOL    HW2 1110   5.764   6.751   3.811  0.5841 -1.1442  1.4978
   71SOL     OW 1111   2.161   3.353   2.868 -0.2059 -0.1433  0.1980
   71SOL    HW1 1112   2.200   3.307   2.788  0.3645 -1.9779  1.4666
   71SOL    HW2 1113   2.063   3.366   2.853 -0.5170 -2.3242 -0.0302
   72SOL     OW 1114   2.094   5.222   1.792 -0.1672  0.0270  0.4425
   72SOL    HW1 1115   1.995   5.221   1.802 -0.3389 -1.2666 -1.0757
   72SOL    HW2 1116   2.129   5.128   1.793  0.7622  0.3109 -1.3642
   73SOL     OW 1117   3.324   2.999   5.204  0.6304 -0.0303 -0.5496
   73SOL    HW1 1118   3.322   2.917   5.262  0.0236 -0.3129 -0.9543
   73SOL    HW2 1119   3.339   2.972   5.108 -2.0042  0.0783 -1.0599
   74SOL     OW 1120   4.915   5.703   6.239  0.1776 -0.1733  0.2117
   74SOL    HW1 1121   4.957   5.626   6.191  1.6651 -1.3920  3.1827
   74SOL    HW2 1122   4.821   5.681   6.263  0.6158 -1.1763  1.1072
   75SOL     OW 1123   2.911   6.525   5.977 -0.1169 -0.4076  0.0519
   75SOL    HW1 1124   2.880   6.444   5.927 -0.2354 -1.4471  1.7228
   75SOL    HW2 1125   3.010   6.524   5.986 -0.2276 -1.3224  1.5373
   76SOL     OW 1126   1.131   4.443   6.897  0.2235 -0.1541 -0.5947
   76SOL    HW1 1127   1.150   4.381   6.821  1.0970 -1.5367  0.6888
   76SOL    HW2 1128   1.193   4.422   6.973 -0.8012  0.9993  0.6060
   77SOL     OW 1129   5.305   4.544   6.173 -0.1656 -0.4856  0.7515
   77SOL    HW1 1130   5.223   4.601   6.184 -0.4967 -1.2329  2.2875
   77SOL    HW2 1131   5.373   4.570   6.241  0.5555 -0.4513  0.0272
   78SOL     OW 1132   4.117   0.188   6.028 -0.2627  0.4526 -0.1754
   78SOL    HW1 1133   4.117   0.139   6.115 -0.4405  2.3840  0.9785
   78SOL    HW2 1134   4.106   0.286   6.045  2.9190  1.2894 -2.1770
   79SOL     OW 1135   2.304   0.278   5.486 -0.6683 -1.1062 -0.0240
   79SOL    HW1 1136   2.350   0.217   5.551  1.0321 -0.5801 -0.6733
   79SOL    HW2 1137   2.327   0.373   5.508 -1.1359 -0.8521 -0.6081
   80SOL     OW 1138   0.453   2.579   4.885 -0.4838  0.7252 -0.6309
   80SOL    HW1 1139   0.514   2.582   4.806 -0.3666  2.1014 -0.5132
   80SOL    HW2 1140   0.467   2.661   4.942 -0.0056 -0.6054  1.2559
   81SOL     OW 1141   1.723   1.166   4.614  0.4624  0.0986  0.1358
   81SOL    HW1 1142   1.803   1.212   4.652  0.4167 -0.2663  0.6878
   81SOL    HW2 1143   1.727   1.167   4.514  0.6692  0.9294  0.1450
   82SOL     OW 1144   6.838   4.362   4.554  0.0793  0.2153  0.1108
   82SOL    HW1 1145   6.913   4.413   4.596 -0.8219  1.4618  0.2779
   82SOL    HW2 1146   6.843   4.371   4.455 -0.4300  1.1915  0.1608
   83SOL     OW 1147   6.228   0.425   6.230 -0.8033  0.0920  0.5329
   83SOL    HW1 1148   6.300   0.368   6.270 -1.9040 -0.1352  2.3218
   83SOL    HW2 1149   6.177   0.373   6.163 -1.4892 -0.9142  1.8008
   84SOL     OW 1150   0.390   3.869   2.539  0.1376 -0.7532 -0.3633
   84SOL    HW1 1151   0.394   3.868   2.439  0.1732 -2.2585 -0.3680
   84SOL    HW2 1152   0.468   3.920   2.575 -0.3468  0.5512 -1.1031
   85SOL     OW 1153   4.823   1.786   5.841 -0.1549 -0.0113 -0.2495
   85SOL    HW1 1154   4.884   1.787   5.920 -0.6250 -1.4001  0.1600
   85SOL    HW2 1155   4.745   1.847   5.858 -0.6575 -0.8939  0.7153
   86SOL     OW 1156   3.226   1.298   5.759 -0.0119 -0.0903  0.3566
   86SOL    HW1 1157   3.157   1.347   5.813  0.3334  2.6840 -1.5128
   86SOL    HW2 1158   3.210   1.315   5.662  2.2514 -0.8563 -0.2014
   87SOL     OW 1159   2.784   6.071   1.716 -0.1266  0.2140 -0.1847
   87SOL    HW1 1160   2.709   6.098   1.655 -1.3827 -1.3916  0.5434
   87SOL    HW2 1161   2.782   6.127   1.799 -0.5945  0.1150 -0.1268
   88SOL     OW 1162   0.360   1.915   0.639 -0.0259 -0.0358 -0.3017
   88SOL    HW1 1163   0.303   1.842   0.677 -1.8421  1.1929 -0.5362
   88SOL    HW2 1164   0.335   1.930   0.543  0.7807  0.4520 -0.4402
   89SOL     OW 1165   1.068   1.175   6.951 -0.5038 -0.0587  0.1538
   89SOL    HW1 1166   1.006   1.223   6.889  1.2680  2.3898  0.1581
   89SOL    HW2 1167   1.161   1.182   6.917  0.3637  0.2735  2.4404
   90SOL     OW 1168   0.947   5.504   3.177  0.2182 -0.2537  0.0795
   90SOL    HW1 1169   0.963   5.576   3.110 -1.2896  0.9618  0.9610
   90SOL    HW2 1170   1.031   5.486   3.228  0.8556  0.1852 -0.8060
   91SOL     OW 1171   3.869   6.354   3.726 -0.3747 -0.4606 -0.8198
   91SOL    HW1 1172   3.897   6.435   3.778 -1.4195 -0.2036 -0.6213
   91SOL    HW2 1173   3.948   6.296   3.708  0.5163  0.9091 -1.5024
   92SOL     OW 1174   4.215   6.578   0.100  0.2663  0.2521 -0.4587
   92SOL    HW1 1175   4.300   6.533   0.125 -0.3214  0.1702  1.5335
   92SOL    HW2 1176   4.180   6.539   0.015  1.9012 -0.0970 -0.9947
   93SOL     OW 1177   3.612   6.480   4.800  0.4005  0.5330 -0.1373
   93SOL    HW1 1178   3.678   6.409   4.776 -1.2102 -1.3801  0.8013
   93SOL    HW2 1179   3.524   6.438   4.823 -0.1925  2.6973  2.0228
   94SOL     OW 1180   1.261   5.518   2.146  0.2207  0.7661  0.3510
   94SOL    HW1 1181   1.163   5.514   2.164  0.5499  3.1581  3.4842
   94SOL    HW2 1182   1.305   5.435   2.180 -0.6989 -0.6302 -1.6877
   95SOL     OW 1183   0.542   0.407   0.166  0.1771 -0.1674 -0.0778
   95SOL    HW1 1184   0.548   0.490   0.111 -0.5708 -0.3041 -0.3649
   95SOL    HW2 1185   0.466   0.414   0.230 -0.9015 -1.2459 -1.1691
   96SOL     OW 1186   1.502   0.183   5.535  0.5397  0.5752  0.3794
   96SOL    HW1 1187   1.481   0.280   5.549  0.8867  0.7312 -0.1307
   96SOL    HW2 1188   1.588   0.161   5.581 -0.2552  0.1488  1.7250
   97SOL     OW 1189   6.381   3.227   2.371 -0.7064  0.9565  0.2419
   97SOL    HW1 1190   6.415   3.221   2.277  0.8390  2.4890  0.6749
   97SOL    HW2 1191   6.332   3.142   2.393  1.4413 -0.6823 -0.9540
   98SOL     OW 1192   4.376   1.306   6.296 -0.6877 -0.5177  0.5051
   98SOL    HW1 1193   4.377   1.404   6.280  0.3300 -0.4428  0.9222
   98SOL    HW2 1194   4.457   1.264   6.256 -1.4625 -1.3076 -0.2885
   99SOL     OW 1195   4.509   2.673   0.600  0.0222  0.0003  0.0782
   99SOL    HW1 1196   4.577   2.640   0.665 -1.0870 -0.2436  1.1631
   99SOL    HW2 1197   4.428   2.613   0.603 -0.9452  1.2637  0.1188
  100SOL     OW 1198   6.719   6.049   0.898 -0.4416 -0.5704 -0.6952
  100SOL    HW1 1199   6.784   5.987   0.853 -2.5244 -2.7591 -0.9079
  100SOL    HW2 1200   6.657   5.996   0.956 -2.7719  1.2090 -1.4072
  101SOL     OW 1201   0.688   6.342   5.766 -0.2126 -0.0050  0.4924
  101SOL    HW1 1202   0.694   6.307   5.860 -0.5080 -1.0145  0.1539
  101SOL    HW2 1203   0.641   6.430   5.766  0.0862  0.1653  1.3236
  102SOL     OW 1204   5.383   6.296   3.720 -0.3804  0.4445  0.1880
  102SOL    HW1 1205   5.320   6.272   3.646  1.3785 -0.1894 -1.2086
  102SOL    HW2 1206   5.455   6.355   3.683  0.3710  0.3700  1.4911
  103SOL     OW 1207   1.553   1.079   0.604 -0.3937 -0.4815 -0.0765
  103SOL    HW1 1208   1.459   1.101   0.630 -0.1550  0.6689 -0.0938
  103SOL    HW2 1209   1.612   1.087   0.685 -0.2933 -1.0786 -0.0907
  104SOL     OW 1210   0.975   5.692   2.968 -0.3406 -0.4044 -0.0445
  104SOL    HW1 1211   0.888   5.739   2.955 -0.2038 -0.5413 -1.7625
  104SOL    HW2 1212   0.979   5.613   2.907  0.0554 -1.7836  1.7010
  105SOL     OW 1213   4.415   1.375   5.400  0.3460 -0.2753  0.0555
  105SOL    HW1 1214   4.441   1.428   5.320 -2.1062 -1.4316 -1.6303
  105SOL    HW2 1215   4.398   1.436   5.477 -0.0588  1.1739 -1.1359
  106SOL     OW 1216   3.565   6.454   1.294 -0.2975 -0.0358 -0.5551
  106SOL    HW1 1217   3.616   6.526   1.246 -0.1542  0.2054 -0.0426
  106SOL    HW2 1218   3.557   6.374   1.235  0.4046  0.0407 -0.7585
  107SOL     OW 1219   3.000   4.689   6.496 -0.2727  0.8218 -0.0004
  107SOL    HW1 1220   3.023   4.779   6.457 -0.3676  1.2322  0.8676
  107SOL    HW2 1221   2.969   4.628   6.423  3.7974  0.1073 -1.4026
  108SOL     OW 1222   5.661   3.958   2.577 -0.0342 -0.1007  0.0542
  108SOL    HW1 1223   5.719   4.024   2.625 -1.3458  0.4153  0.9805
  108SOL    HW2 1224   5.660   3.981   2.479  0.2878  0.6635  0.2202
  109SOL     OW 1225   6.127   1.496   1.564 -0.1474  0.0418 -0.2554
  109SOL    HW1 1226   6.208   1.468   1.615 -1.6741  0.8430  2.8865
  109SOL    HW2 1227   6.150   1.574   1.505  1.5896 -0.4924 -0.3196
  110SOL     OW 1228   2.302   4.999   4.236  0.4041  0.3517 -0.6295
  110SOL    HW1 1229   2.370   4.997   4.310 -0.7466 -1.0302  0.4530
  110SOL    HW2 1230   2.305   4.912   4.187  0.0516  0.6479 -1.1866
  111SOL     OW 1231   3.382   0.928   4.943  0.1896  0.5583 -0.4931
  111SOL    HW1 1232   3.405   1.018   4.982  1.8433 -0.3298  0.7062
  111SOL    HW2 1233   3.405   0.856   5.009 -3.0014 -0.7069 -0.5743
  112SOL     OW 1234   6.812   3.119   6.950 -0.3012 -0.1095  0.0545
  112SOL    HW1 1235   6.889   3.122   7.013  0.4398 -0.8172 -0.7905
  112SOL    HW2 1236   6.762   3.205   6.954 -0.0891 -0.0303  1.3706
  113SOL     OW 1237   0.973   6.231   5.437 -0.4394  0.3427  0.6688
  113SOL    HW1 1238   1.044   6.294   5.405  0.5120 -1.1930 -0.3953
  113SOL    HW2 1239   0.962   6.241   5.536  1.5435  0.3755  0.9236
  114SOL     OW 1240   2.293   5.910   0.802  0.1555  0.0233  0.3250
  114SOL    HW1 1241   2.200   5.885   0.829 -0.2465 -0.4647 -1.3646
  114SOL    HW2 1242   2.344   5.827   0.777  0.9029  0.3335  0.7622
  115SOL     OW 1243   4.457   1.300   4.059 -0.2557 -0.0577 -0.3224
  115SOL    HW1 1244   4.375   1.285   4.005 -1.1821 -1.0298  1.2817
  115SOL    HW2 1245   4.437   1.366   4.132  0.7153  0.5438 -0.5767
  116SOL     OW 1246   1.591   3.188   2.286  0.1035 -0.2816 -0.2424
  116SOL    HW1 1247   1.535   3.220   2.363 -1.0677  1.7103 -1.8246
  116SOL    HW2 1248   1.660   3.124   2.320 -0.1753  0.7227  2.5091
  117SOL     OW 1249   0.373   6.138   6.045  0.3152  0.2293  0.1657
  117SOL    HW1 1250   0.448   6.203   6.035  0.7798 -0.2882  0.2163
  117SOL    HW2 1251   0.386   6.085   6.129 -0.8803  1.1077  0.9362
  118SOL     OW 1252   3.071   2.233   4.051  0.1692  0.0354  0.1912
  118SOL    HW1 1253   3.002   2.293   4.091 -0.3592 -1.5059  1.7485
  118SOL    HW2 1254   3.079   2.251   3.953 -1.8337  0.8525  0.1362
  119SOL     OW 1255   5.939   3.238   6.699  0.2244  0.0889  0.2477
  119SOL    HW1 1256   5.930   3.289   6.614 -0.0680 -0.4427 -0.0476
  119SOL    HW2 1257   5.855   3.248   6.753 -0.4925 -1.3314 -0.5281
  120SOL     OW 1258   3.194   5.165   2.330 -0.2301  0.2719 -0.2017
  120SOL    HW1 1259   3.192   5.065   2.326  1.4663  0.1725  0.4679
  120SOL    HW2 1260   3.180   5.203   2.238 -1.8778 -0.5133 -0.3182
  121SOL     OW 1261   2.803   3.376   6.112  0.5688 -0.3640 -0.2726
  121SOL    HW1 1262   2.704   3.371   6.121  0.5890  0.4245  0.5855
  121SOL    HW2 1263   2.827   3.400   6.018  0.0082 -1.7268 -0.7849
  122SOL     OW 1264   6.122   2.641   4.976  0.2739 -0.4157 -0.3378
  122SOL    HW1 1265   6.101   2.733   4.941 -0.8638 -0.5315  0.0020
  122SOL    HW2 1266   6.076   2.573   4.919  0.2201 -0.7216  0.0703
  123SOL     OW 1267   0.617   6.957   0.033 -0.2614 -0.1000  0.3913
  123SOL    HW1 1268   0.652   7.048   0.054  0.3778 -0.2403 -0.0202
  123SOL    HW2 1269   0.537   6.964  -0.026  0.3973  0.1844 -0.5047
  124SOL     OW 1270   6.080   1.940   1.983  0.3608  0.1672  0.1742
  124SOL    HW1 1271   6.120   1.853   1.956  1.8617  1.1749 -1.0893
  124SOL    HW2 1272   6.105   2.010   1.916 -0.9450  1.5419  1.0538
  125SOL     OW 1273   2.776   2.464   0.550 -0.0467  1.0784  0.2881
  125SOL    HW1 1274   2.842   2.536   0.529 -1.3849  1.8542 -1.5003
  125SOL    HW2 1275   2.702   2.501   0.604 -0.9718  1.2141 -1.0160
  126SOL     OW 1276   5.306   4.797   2.894 -0.6857 -0.1964 -0.5086
  126SOL    HW1 1277   5.344   4.870   2.951 -2.0967 -0.6655  1.1238
  126SOL    HW2 1278   5.362   4.786   2.811 -0.0026  2.1820 -0.4255
  127SOL     OW 1279   1.444   4.281   5.809  0.3476 -0.0016 -0.2014
  127SOL    HW1 1280   1.482   4.374   5.813  0.0544  0.1003  0.5674
  127SOL    HW2 1281   1.365   4.276   5.871  0.0900 -0.6443 -0.5772
  128SOL     OW 1282   0.366   2.821   7.013 -0.5649  0.1403  0.1652
  128SOL    HW1 1283   0.338   2.748   7.075  0.3156 -0.3525 -0.0057
  128SOL    HW2 1284   0.286   2.876   6.989 -1.2795 -0.8901  0.1230
  129SOL     OW 1285   1.980   4.407   0.403  0.1365 -0.2661  0.2338
  129SOL    HW1 1286   1.889   4.377   0.375 -0.9102  2.4129  0.4282
  129SOL    HW2 1287   2.046   4.382   0.333 -0.6510 -2.5583  0.2412
  130SOL     OW 1288   2.079   0.238   5.329  0.2967 -0.1441 -0.4852
  130SOL    HW1 1289   2.166   0.244   5.377  0.7732 -0.9589 -1.2455
  130SOL    HW2 1290   2.048   0.143   5.326 -0.9896  0.2215  0.4210
  131SOL     OW 1291   5.495   1.549   1.305 -0.1664 -0.3027  0.2594
  131SOL    HW1 1292   5.464   1.531   1.398  1.3532  0.0243  0.8602
  131SOL    HW2 1293   5.577   1.495   1.287  0.4166  0.7619 -0.3618
  132SOL     OW 1294   6.996   3.833   0.955  0.8027  0.0509 -0.0461
  132SOL    HW1 1295   6.939   3.895   1.009 -2.0252 -0.4523 -2.1901
  132SOL    HW2 1296   6.997   3.743   0.997 -1.3085 -0.3174 -0.6759
  133SOL     OW 1297   0.223   4.563   2.072  0.0496  0.1559 -0.1219
  133SOL    HW1 1298   0.171   4.486   2.036 -0.5633 -1.1130  3.1201
  133SOL    HW2 1299   0.207   4.571   2.171  2.4632  2.5823  0.1953
  134SOL     OW 1300   0.839   4.288   2.013 -0.0835 -0.1647 -0.5992
  134SOL    HW1 1301   0.853   4.283   2.112 -0.0049  1.0055 -0.5322
  134SOL    HW2 1302   0.918   4.251   1.966  0.1297 -0.1897 -0.2239
  135SOL     OW 1303   5.236   3.154   4.327  0.1503  0.1726  0.0984
  135SOL    HW1 1304   5.147   3.199   4.319 -0.3122 -0.5273  1.1450
  135SOL    HW2 1305   5.257   3.139   4.424  2.3969  2.2852  0.0512
  136SOL     OW 1306   3.870   3.848   0.285 -0.3380 -0.3479  0.6521
  136SOL    HW1 1307   3.833   3.756   0.276  1.0185 -0.8678 -0.0225
  136SOL    HW2 1308   3.809   3.914   0.241 -0.3816 -1.2019 -0.6289
  137SOL     OW 1309   2.585   1.230   5.760  0.2412 -0.0838  0.0260
  137SOL    HW1 1310   2.557   1.326   5.758  0.5338 -0.0048 -0.2405
  137SOL    HW2 1311   2.611   1.200   5.668  0.5906 -0.2849  0.1858
  138SOL     OW 1312   6.822   4.485   5.407 -0.0590  0.1939  0.9338
  138SOL    HW1 1313   6.790   4.478   5.312  0.5448  0.9225  0.6646
  138SOL    HW2 1314   6.745   4.469   5.469 -0.0677 -2.2480  0.3706
  139SOL     OW 1315   0.813   5.251   6.886 -0.2628 -0.0993  0.6509
  139SOL    HW1 1316   0.720   5.262   6.922 -0.1674  0.9151  0.6211
  139SOL    HW2 1317   0.877   5.236   6.962  0.0681  2.9061  1.0609
  140SOL     OW 1318   6.976   5.009   5.390 -0.0205 -0.3512 -0.2070
  140SOL    HW1 1319   6.882   4.988   5.414 -0.1588 -0.6569 -0.9966
  140SOL    HW2 1320   6.985   5.107   5.372  0.0377 -0.1542  0.8477
  141SOL     OW 1321   6.962   1.106   2.327 -0.3637  0.1173 -0.2482
  141SOL    HW1 1322   6.984   1.012   2.301  0.4808  0.1811  0.1839
  141SOL    HW2 1323   7.044   1.149   2.366 -0.6764  1.1102 -0.6736
  142SOL     OW 1324   2.543   5.356   6.737  0.0519  0.5646 -0.1872
  142SOL    HW1 1325   2.625   5.361   6.679 -0.3649  1.6325 -0.7021
  142SOL    HW2 1326   2.564   5.392   6.828 -0.2777  2.5602 -0.8495
  143SOL     OW 1327   4.969   3.386   1.355 -0.3216  0.8712 -0.3316
  143SOL    HW1 1328   5.058   3.430   1.346 -0.2538  0.8469  0.1942
  143SOL    HW2 1329   4.975   3.311   1.421 -0.5358  0.3307 -0.9189
  144SOL     OW 1330   1.785   6.080   0.238 -0.8164  0.2783  0.3215
  144SOL    HW1 1331   1.840   6.003   0.272 -0.5072  0.1541 -0.4286
  144SOL    HW2 1332   1.846   6.156   0.216 -1.1836  1.0199  1.7254
  145SOL     OW 1333   5.459   6.914   0.205  0.3765  0.4877 -0.0771
  145SOL    HW1 1334   5.533   6.893   0.141  1.8872  0.7355  1.5242
  145SOL    HW2 1335   5.486   6.992   0.262 -1.1428  0.5855  0.5459
  146SOL     OW 1336   6.026   4.126   6.456  0.1930  0.0375  0.0375
  146SOL    HW1 1337   5.955   4.094   6.393  0.4031  0.7088 -0.5486
  146SOL    HW2 1338   6.108   4.071   6.443  0.0478 -0.2067  0.1421
  147SOL     OW 1339   4.567   3.989   1.114 -0.1984 -0.5615  0.1078
  147SOL    HW1 1340   4.482   4.015   1.068 -0.1296  0.1379  0.3678
  147SOL    HW2 1341   4.546   3.932   1.194 -0.7254  2.3033  2.1674
  148SOL     OW 1342   1.955   3.718   3.861 -0.1725 -0.6410  0.0625
  148SOL    HW1 1343   1.888   3.710   3.934 -0.7205  0.2253 -0.3381
  148SOL    HW2 1344   2.040   3.754   3.898  0.1289 -1.8133  0.5873
  149SOL     OW 1345   2.862   1.323   5.108 -0.0297 -0.2099  0.0213
  149SOL    HW1 1346   2.819   1.233   5.097  0.7900 -0.4001 -2.0377
  149SOL    HW2 1347   2.794   1.394   5.094  0.0975 -0.5165 -2.7616
  150SOL     OW 1348   6.053   5.248   4.980  0.2407  0.1729  0.0825
  150SOL    HW1 1349   6.048   5.154   4.945 -0.9953  0.3515 -0.2707
  150SOL    HW2 1350   6.138   5.291   4.947 -0.4588  0.0566 -2.0476
  151SOL     OW 1351   3.920   1.434   2.591  0.5956 -0.2028 -0.3680
  151SOL    HW1 1352   3.937   1.449   2.494 -3.6164 -1.2920 -1.4641
  151SOL    HW2 1353   3.866   1.351   2.603 -2.5105  1.9661  2.4490
  152SOL     OW 1354   2.948   2.418   5.806  0.2142  0.2234 -0.5764
  152SOL    HW1 1355   3.045   2.442   5.813  0.1408  0.3077  0.2838
  152SOL    HW2 1356   2.934   2.358   5.727  1.3076 -1.3738  0.3721
  153SOL     OW 1357   1.003   6.149   2.909 -0.1299  0.8335 -0.3736
  153SOL    HW1 1358   1.038   6.243   2.902 -1.8587  1.6375  1.0225
  153SOL    HW2 1359   1.020   6.113   3.000 -0.8730  0.3862 -0.4020
  154SOL     OW 1360   0.252   2.869   1.580  0.2713 -0.0225  0.1425
  154SOL    HW1 1361   0.322   2.917   1.528  0.6375  0.1527  0.7915
  154SOL    HW2 1362   0.264   2.770   1.570  0.3146  0.0090 -0.1313
  155SOL     OW 1363   0.139   3.176   3.619 -0.0891  0.2376 -0.1101
  155SOL    HW1 1364   0.236   3.161   3.639 -0.6003 -1.2823  1.4836
  155SOL    HW2 1365   0.109   3.112   3.548  0.8430  3.1842 -3.4943
  156SOL     OW 1366   6.707   2.941   0.651 -0.3474  0.5334 -0.0789
  156SOL    HW1 1367   6.674   2.929   0.558 -0.4675  0.2682 -0.0029
  156SOL    HW2 1368   6.745   3.034   0.661  0.0352  0.4303 -0.5020
  157SOL     OW 1369   6.801   2.146   3.802  0.2438  0.6758  0.2079
  157SOL    HW1 1370   6.840   2.222   3.854  1.2378 -1.1631  2.2699
  157SOL    HW2 1371   6.730   2.101   3.856 -2.3926  1.7553 -2.0905
  158SOL     OW 1372   3.221   1.877   2.665  0.1979  0.4633 -0.3647
  158SOL    HW1 1373   3.309   1.845   2.631  0.4460 -0.0420  0.6963
  158SOL    HW2 1374   3.210   1.849   2.761 -0.3124  2.0865  0.0975
  159SOL     OW 1375   6.043   2.198   3.145  0.6300 -0.1375 -0.0215
  159SOL    HW1 1376   6.036   2.259   3.224  1.2026  0.2967 -0.2878
  159SOL    HW2 1377   6.123   2.139   3.155  1.1328  0.4233 -0.5988
  160SOL     OW 1378   5.646   3.703   4.302  0.9378  0.1189 -0.1539
  160SOL    HW1 1379   5.618   3.786   4.255 -0.9855 -0.3760  0.0347
  160SOL    HW2 1380   5.705   3.726   4.379  1.4776  1.1806 -0.8619
  161SOL     OW 1381   3.120   5.954   4.978  0.0274  0.3447 -0.3052
  161SOL    HW1 1382   3.116   5.855   4.987  1.0699  0.4482  1.8520
  161SOL    HW2 1383   3.210   5.987   5.007 -0.3793  1.9375 -0.7655
  162SOL     OW 1384   3.549   6.373   1.835 -0.0817  0.6246 -0.1758
  162SOL    HW1 1385   3.503   6.443   1.779  0.8478  1.0914 -0.3748
  162SOL    HW2 1386   3.481   6.311   1.873 -0.7800  0.5539 -1.4779
  163SOL     OW 1387   0.123   1.447   0.133 -0.2281 -0.1612 -0.1977
  163SOL    HW1 1388   0.031   1.485   0.143  0.3759  0.9578  1.6256
  163SOL    HW2 1389   0.165   1.482   0.049 -0.5596  1.4359  0.2523
  164SOL     OW 1390   5.868   1.037   2.736 -0.0980  0.0448 -0.1400
  164SOL    HW1 1391   5.833   0.978   2.809  2.5664 -0.3596  0.9255
  164SOL    HW2 1392   5.894   0.981   2.657  0.3410  0.0563 -0.0046
  165SOL     OW 1393   0.384   1.582   5.712  0.2448 -0.2123  0.3978
  165SOL    HW1 1394   0.401   1.571   5.809 -0.7143  2.2178  0.9262
  165SOL    HW2 1395   0.401   1.677   5.686 -0.0293 -0.6901 -1.6980
  166SOL     OW 1396   2.558   0.974   1.399  0.2954  0.6835  0.0526
  166SOL    HW1 1397   2.649   0.995   1.434 -0.1365  0.4667  1.3843
  166SOL    HW2 1398   2.490   1.026   1.451 -0.4126 -0.0681 -0.1038
  167SOL     OW 1399   5.441   0.299   2.009 -0.2596  0.2209 -0.5143
  167SOL    HW1 1400   5.475   0.288   1.915 -1.4831 -1.7679 -0.7717
  167SOL    HW2 1401   5.356   0.248   2.020  0.6042 -0.8279  2.0736
  168SOL     OW 1402   1.492   4.325   2.041  0.9953  0.4813 -0.3606
  168SOL    HW1 1403   1.538   4.379   2.111  1.4378  2.3295 -1.9917
  168SOL    HW2 1404   1.531   4.233   2.038 -0.0328 -0.1692  2.7453
  169SOL     OW 1405   1.335   0.749   1.741  0.0375 -0.4823  0.3553
  169SOL    HW1 1406   1.362   0.733   1.836  1.7971 -1.2510 -0.2265
  169SOL    HW2 1407   1.275   0.674   1.711  0.0511 -0.6140  0.6501
  170SOL     OW 1408   0.002   0.864   3.873  0.0356  0.2645  0.2895
  170SOL    HW1 1409   0.018   0.819   3.786  1.4504 -0.0420  0.6824
  170SOL    HW2 1410  -0.009   0.963   3.858  1.6277  0.3995 -0.1158
  171SOL     OW 1411   2.703   4.525   6.837 -0.5639  0.2816 -0.2450
  171SOL    HW1 1412   2.629   4.522   6.770 -1.3335 -0.1529  0.5886
  171SOL    HW2 1413   2.680   4.464   6.913  1.2852 -0.9189 -0.5899
  172SOL     OW 1414   0.742   2.774   2.191 -0.1043  0.1564  0.1373
  172SOL    HW1 1415   0.682   2.851   2.171  1.5055  1.0971 -1.3057
  172SOL    HW2 1416   0.834   2.807   2.211  0.5890 -1.3901 -0.3508
  173SOL     OW 1417   1.447   0.463   5.564  0.3155  0.1399 -0.1475
  173SOL    HW1 1418   1.533   0.514   5.565  1.0119 -0.9995  0.4065
  173SOL    HW2 1419   1.371   0.524   5.588  1.0650  1.0010  0.0766
  174SOL     OW 1420   1.962   6.722   1.659 -0.2933 -0.6393  0.6680
  174SOL    HW1 1421   1.906   6.645   1.688 -0.5827 -1.2641 -1.4067
  174SOL    HW2 1422   1.909   6.807   1.667 -0.4697 -0.8293  1.5933
  175SOL     OW 1423   2.687   4.923   1.612  0.2104 -0.9099 -0.0331
  175SOL    HW1 1424   2.727   4.850   1.556  0.3624 -1.1144  0.3360
  175SOL    HW2 1425   2.699   4.901   1.709 -1.1943 -1.2063  0.1004
  176SOL     OW 1426   3.583   3.989   6.053  0.0326  0.4131 -0.3141
  176SOL    HW1 1427   3.670   4.012   6.096  0.7840 -0.5354 -1.2605
  176SOL    HW2 1428   3.520   4.066   6.062  1.0171  1.1824  0.2532
  177SOL     OW 1429   5.858   1.753   4.028 -0.1827 -0.5801  0.1356
  177SOL    HW1 1430   5.832   1.742   3.932  3.0018 -0.1105 -0.9160
  177SOL    HW2 1431   5.836   1.670   4.079 -0.2059 -1.6077 -1.4712
  178SOL     OW 1432   5.587   3.274   2.946  0.3886  0.3848  0.0202
  178SOL    HW1 1433   5.513   3.219   2.907 -0.2882  0.9226  0.5298
  178SOL    HW2 1434   5.665   3.274   2.882  1.3899 -3.0866  0.9896
  179SOL     OW 1435   3.213   1.187   6.963 -0.6220  0.0863 -0.8363
  179SOL    HW1 1436   3.262   1.113   7.009  0.5759  2.2568  1.7171
  179SOL    HW2 1437   3.115   1.173   6.970 -0.6614  1.1923  4.5227
  180SOL     OW 1438   0.810   2.530   1.083 -0.2585 -0.5684  0.1817
  180SOL    HW1 1439   0.875   2.454   1.078  0.0092 -0.3512  0.3858
  180SOL    HW2 1440   0.835   2.600   1.016  1.8190  1.1543  2.5549
  181SOL     OW 1441   3.508   3.954   4.909  0.9565  0.3033  0.3317
  181SOL    HW1 1442   3.440   3.979   4.979  0.7043 -0.4716  0.3696
  181SOL    HW2 1443   3.462   3.908   4.833  1.5072 -0.7050  0.5977
  182SOL     OW 1444   5.039   4.221   5.940  0.2993  0.2124 -0.3346
  182SOL    HW1 1445   5.054   4.318   5.921 -0.4160 -0.1103 -2.7639
  182SOL    HW2 1446   5.016   4.173   5.856 -0.4123 -1.9046  0.9906
  183SOL     OW 1447   5.464   1.646   1.786 -0.0686  0.1739  0.6419
  183SOL    HW1 1448   5.426   1.732   1.821 -1.0564  0.6997 -1.4978
  183SOL    HW2 1449   5.522   1.604   1.855  0.8970  2.8360  1.5712
  184SOL     OW 1450   1.721   3.867   2.964  0.5382  0.2796 -0.2340
  184SOL    HW1 1451   1.635   3.815   2.962  0.8695 -0.2456 -1.0761
  184SOL    HW2 1452   1.742   3.900   2.872  0.6117  1.4711  0.1922
  185SOL     OW 1453   1.004   3.646   6.475 -0.0289  0.2487  0.1690
  185SOL    HW1 1454   1.074   3.574   6.475 -0.5542 -0.3089  1.8023
  185SOL    HW2 1455   1.035   3.722   6.417 -0.9129 -2.5462 -4.4687
  186SOL     OW 1456   6.051   5.863   3.700 -0.1122 -0.5708 -0.3086
  186SOL    HW1 1457   6.087   5.839   3.610 -1.2661 -0.2819 -0.8776
  186SOL    HW2 1458   6.061   5.962   3.714 -1.4762 -0.3291 -0.8754
  187SOL     OW 1459   6.722   0.327   3.500  0.0236  0.1486  0.1172
  187SOL    HW1 1460   6.734   0.269   3.419  0.0152 -1.1235  1.0009
  187SOL    HW2 1461   6.662   0.403   3.477  0.6358  0.2374 -1.2779
  188SOL     OW 1462   6.069   1.252   6.509  0.3278  0.2586 -0.1791
  188SOL    HW1 1463   6.160   1.292   6.496  0.1810  0.0917 -1.8161
  188SOL    HW2 1464   6.000   1.319   6.481 -0.2584  1.4645  3.5470
  189SOL     OW 1465   0.792   2.250   1.965  0.3901  0.4533 -0.0023
  189SOL    HW1 1466   0.854   2.223   2.040  0.0165 -0.8743 -0.1465
  189SOL    HW2 1467   0.746   2.335   1.989  1.5055  0.9166  0.5591
  190SOL     OW 1468   4.037   5.820   5.968  0.3440 -0.5512 -0.5749
  190SOL    HW1 1469   4.025   5.724   5.993  0.3825 -0.7224 -1.1866
  190SOL    HW2 1470   4.088   5.826   5.882  1.8979  0.0565  0.3398
  191SOL     OW 1471   4.285   5.653   5.271  0.1149 -0.2039  0.3462
  191SOL    HW1 1472   4.234   5.570   5.246  0.1090 -1.0770  2.9380
  191SOL    HW2 1473   4.235   5.734   5.239  0.4936 -1.1095 -2.9245
  192SOL     OW 1474   4.911   0.692   1.231 -0.1432  0.3424  0.4973
  192SOL    HW1 1475   4.828   0.744   1.254  0.8654  1.8562  0.8723
  192SOL    HW2 1476   4.963   0.675   1.314  0.7169  0.8488  0.0759
  193SOL     OW 1477   5.099   5.194   5.798  0.0871 -0.1122 -0.3319
  193SOL    HW1 1478   5.174   5.239   5.750  2.1254 -1.1646  1.6776
  193SOL    HW2 1479   5.133   5.151   5.881 -2.5920 -1.5502  0.1563
  194SOL     OW 1480   4.010   0.244   4.605  0.0402  0.6733 -0.1109
  194SOL    HW1 1481   4.030   0.252   4.703 -1.1641  0.3024  0.1865
  194SOL    HW2 1482   4.089   0.273   4.552  0.6829  0.9539  0.9760
  195SOL     OW 1483   6.738   3.792   5.071  0.2225 -0.4098 -0.5143
  195SOL    HW1 1484   6.737   3.745   5.160  0.1332  1.3416  0.4398
  195SOL    HW2 1485   6.666   3.754   5.013  0.0944 -1.3864  0.2501
  196SOL     OW 1486   6.772   2.377   6.874 -0.6675 -0.2741 -0.0452
  196SOL    HW1 1487   6.758   2.394   6.776  0.4906  0.8775 -0.0366
  196SOL    HW2 1488   6.686   2.393   6.923 -0.7280  1.3444 -0.6162
  197SOL     OW 1489   6.567   0.691   0.357  0.3597 -0.4508 -0.3870
  197SOL    HW1 1490   6.572   0.791   0.348  1.1079 -0.2716  1.6701
  197SOL    HW2 1491   6.652   0.657   0.397  1.1836 -2.2630 -3.3374
  198SOL     OW 1492   4.158   1.574   4.234 -0.0851 -0.2582  0.2869
  198SOL    HW1 1493   4.153   1.547   4.330 -1.7364 -0.4809  0.1563
  198SOL    HW2 1494   4.066   1.588   4.197  0.5111 -0.1240 -1.2559
  199SOL     OW 1495   2.029   1.887   4.398  0.7274 -0.0310 -0.0036
  199SOL    HW1 1496   2.023   1.788   4.407 -0.9050 -0.0022 -0.4023
  199SOL    HW2 1497   2.025   1.930   4.488  0.6051 -0.2944  0.1145
  200SOL     OW 1498   5.759   2.161   1.030 -0.1417 -0.1912  0.1647
  200SOL    HW1 1499   5.775   2.225   1.106  1.3408 -0.9224  0.5181
  200SOL    HW2 1500   5.843   2.109   1.014 -0.9249 -1.1228 -0.9846
  201SOL     OW 1501   5.663   6.853   5.690 -0.4078  0.1951 -0.7351
  201SOL    HW1 1502   5.734   6.914   5.655 -0.6415  0.9252  0.0159
  201SOL    HW2 1503   5.696   6.759   5.688  1.0424  0.6181  0.6307
  202SOL     OW 1504   5.228   1.217   0.562 -0.5206  0.1167  0.1569
  202SOL    HW1 1505   5.166   1.205   0.640  0.8941 -0.6298  1.2220
  202SOL    HW2 1506   5.240   1.129   0.516 -0.5053  0.3300 -0.2511
  203SOL     OW 1507   6.696   2.065   0.262 -0.1751  0.3148  0.1769
  203SOL    HW1 1508   6.749   2.106   0.188  0.9611  2.0709  1.8551
  203SOL    HW2 1509   6.610   2.114   0.272  0.2658  0.9712  0.8501
  204SOL     OW 1510   0.057   6.306   6.488  0.3175 -0.2894 -0.0139
  204SOL    HW1 1511   0.051   6.319   6.586 -0.1417 -1.6819  0.1673
  204SOL    HW2 1512   0.053   6.208   6.467 -1.9937  0.0473 -1.5510
  205SOL     OW 1513   3.963   5.692   3.058 -0.2293 -0.5718  0.6157
  205SOL    HW1 1514   4.061   5.682   3.041 -0.1565 -0.7127  1.1097
  205SOL    HW2 1515   3.948   5.756   3.133 -0.5767  0.6028 -0.4074
  206SOL     OW 1516   5.887   5.075   0.458  0.4520 -0.1832 -0.0491
  206SOL    HW1 1517   5.820   5.041   0.524  0.4159 -1.9773 -0.9400
  206SOL    HW2 1518   5.979   5.060   0.493  0.4182  0.3337  0.2671
  207SOL     OW 1519   1.451   3.117   5.856 -0.0115  0.5268 -0.1429
  207SOL    HW1 1520   1.530   3.176   5.876 -0.2700  1.1348 -0.8779
  207SOL    HW2 1521   1.433   3.118   5.758 -0.3634 -0.3566 -0.0959
  208SOL     OW 1522   1.408   2.577   4.124 -0.1038  0.6484  0.1777
  208SOL    HW1 1523   1.411   2.673   4.153  1.7426  0.9056 -0.7252
  208SOL    HW2 1524   1.318   2.539   4.143 -0.1737  1.8779  2.7370
  209SOL     OW 1525   0.919   4.580   3.056 -0.7253 -0.2108  0.0281
  209SOL    HW1 1526   1.018   4.577   3.066 -0.4661 -0.6097 -2.2002
  209SOL    HW2 1527   0.878   4.512   3.117  0.3970 -0.3710  0.6311
  210SOL     OW 1528   5.009   4.359   0.559 -0.2947  0.3412  0.0107
  210SOL    HW1 1529   5.000   4.318   0.650  1.0502  1.0442  0.4883
  210SOL    HW2 1530   5.045   4.292   0.495 -0.7651 -0.0103  0.1083
  211SOL     OW 1531   2.404   0.356   0.368  0.3753 -1.0744 -0.1709
  211SOL    HW1 1532   2.455   0.274   0.394  1.7422 -0.9798 -2.3235
  211SOL    HW2 1533   2.462   0.415   0.311 -0.4408  1.6043  1.6081
  212SOL     OW 1534   2.552   4.752   3.330  0.0213  0.4411 -0.6076
  212SOL    HW1 1535   2.456   4.776   3.316 -0.2902 -1.2326 -1.7169
  212SOL    HW2 1536   2.609   4.799   3.262 -0.2492  0.1099 -1.0719
  213SOL     OW 1537   0.647   6.110   6.927 -0.6520  0.2383  0.0357
  213SOL    HW1 1538   0.580   6.091   6.856  0.7477  2.4377 -2.0602
  213SOL    HW2 1539   0.630   6.201   6.964  1.0879  0.8509 -0.5594
  214SOL     OW 1540   6.352   0.792   3.902 -0.4906  0.2132 -0.0334
  214SOL    HW1 1541   6.339   0.774   3.805  2.0302 -2.5155  0.0053
  214SOL    HW2 1542   6.388   0.885   3.914 -2.1762  1.1287 -1.4796
  215SOL     OW 1543   2.098   4.336   0.155  0.0699 -0.1159 -0.1488
  215SOL    HW1 1544   2.196   4.354   0.144 -0.3001  2.4634  0.0572
  215SOL    HW2 1545   2.046   4.408   0.108 -1.8340 -2.7468 -2.4016
  216SOL     OW 1546   3.276   6.682   4.225 -0.2161 -0.0868  0.0421
  216SOL    HW1 1547   3.324   6.631   4.295 -1.7272 -0.8536  0.5646
  216SOL    HW2 1548   3.234   6.764   4.265  2.4221  1.8508 -0.8357
  217SOL     OW 1549   6.961   5.998   4.762 -0.6343 -0.8225  0.2419
  217SOL    HW1 1550   6.974   6.040   4.851 -0.3273  2.0802 -1.0422
  217SOL    HW2 1551   6.872   5.952   4.760 -0.8552 -0.5350  1.8873
  218SOL     OW 1552   2.924   1.708   5.041  0.8952 -0.1279  0.4478
  218SOL    HW1 1553   3.021   1.733   5.033  0.6674  1.4123  1.7109
  218SOL    HW2 1554   2.868   1.780   5.001  0.2293 -2.3671 -3.0291
  219SOL     OW 1555   4.126   2.401   1.518  0.3851 -0.0822  0.3814
  219SOL    HW1 1556   4.219   2.389   1.554  1.2654 -0.9047 -1.9265
  219SOL    HW2 1557   4.126   2.476   1.452 -0.6326  0.0370  0.5089
  220SOL     OW 1558   3.010   4.776   1.538  0.5965 -0.5952  0.2409
  220SOL    HW1 1559   3.092   4.774   1.482 -0.7653 -1.1348 -1.8641
  220SOL    HW2 1560   2.998   4.868   1.575  0.4987  0.4423 -2.1357
  221SOL     OW 1561   5.092   6.434   1.508  0.1234  0.4073  0.0154
  221SOL    HW1 1562   5.084   6.475   1.417  2.5444 -0.4782 -0.6764
  221SOL    HW2 1563   5.165   6.365   1.507  1.7840  1.8977  3.1408
  222SOL     OW 1564   3.125   3.017   5.868  0.6464 -0.5048  0.4268
  222SOL    HW1 1565   3.048   3.041   5.927 -0.5137  0.5043 -1.4147
  222SOL    HW2 1566   3.124   2.918   5.849  0.1040 -0.5711  0.7987
  223SOL     OW 1567   0.667   2.189   5.013  0.5655  0.0746 -0.4241
  223SOL    HW1 1568   0.687   2.148   4.924 -1.6133 -1.3153 -0.3274
  223SOL    HW2 1569   0.593   2.256   5.003 -0.7857 -1.2189  0.5398
  224SOL     OW 1570   4.299   3.003   0.452  0.3428 -0.2776 -0.4329
  224SOL    HW1 1571   4.244   2.919   0.455 -0.5689  0.3336  2.2409
  224SOL    HW2 1572   4.394   2.979   0.435  0.0343 -1.8138 -0.1583
  225SOL     OW 1573   3.408   5.496   2.040  0.6991  0.1221  0.3423
  225SOL    HW1 1574   3.343   5.424   2.064  0.3891  0.1706 -0.3431
  225SOL    HW2 1575   3.479   5.458   1.981  1.2508  0.0901  1.0105
  226SOL     OW 1576   2.858   1.677   0.192 -0.3049 -0.0244  0.3259
  226SOL    HW1 1577   2.952   1.644   0.179 -0.5506 -2.5348  3.7401
  226SOL    HW2 1578   2.857   1.777   0.185  1.8437 -0.0666 -3.3588
  227SOL     OW 1579   1.510   3.452   1.909  0.5200  0.1919 -0.9542
  227SOL    HW1 1580   1.579   3.388   1.942  0.6008  0.1989 -1.1109
  227SOL    HW2 1581   1.419   3.417   1.930  0.4734 -1.0899 -3.0235
  228SOL     OW 1582   1.887   6.983   0.934 -0.5818  0.0681 -0.4049
  228SOL    HW1 1583   1.833   7.031   1.003 -0.8492 -0.8618  0.0581
  228SOL    HW2 1584   1.969   7.036   0.912 -0.6355  0.5041  0.4291
  229SOL     OW 1585   4.424   6.307   4.566  0.0604  0.0945 -0.2781
  229SOL    HW1 1586   4.359   6.340   4.498  0.1743  0.5479 -0.1674
  229SOL    HW2 1587   4.513   6.351   4.553  0.3321 -0.4647 -0.3818
  230SOL     OW 1588   4.827   6.190   5.346  0.1570  0.2182  0.6575
  230SOL    HW1 1589   4.758   6.187   5.418  0.0504  3.1480  0.7967
  230SOL    HW2 1590   4.782   6.193   5.257  0.0141  2.2926  0.7542
  231SOL     OW 1591   3.755   1.260   6.797 -0.2484 -0.5517  0.4142
  231SOL    HW1 1592   3.744   1.334   6.730  1.5185  0.1498  0.8579
  231SOL    HW2 1593   3.805   1.184   6.755  0.2622 -0.3962  0.7477
  232SOL     OW 1594   6.946   3.128   5.255  0.1263 -0.1152 -0.4655
  232SOL    HW1 1595   6.891   3.142   5.172 -0.8828  1.0466  0.3713
  232SOL    HW2 1596   7.039   3.162   5.238 -0.3953  1.2320 -0.7602
  233SOL     OW 1597   4.694   0.543   2.106  0.3810 -0.1810  0.4926
  233SOL    HW1 1598   4.637   0.601   2.163  2.0050  0.3136  1.6761
  233SOL    HW2 1599   4.789   0.575   2.108  0.4725  0.2490 -2.9862
  234SOL     OW 1600   4.170   0.783   1.139  0.1220  0.3600  0.4548
  234SOL    HW1 1601   4.100   0.712   1.149  0.1941  0.0077 -1.1678
  234SOL    HW2 1602   4.129   0.873   1.157 -1.1698  0.2962 -1.7814
  235SOL     OW 1603   6.738   3.712   1.829  0.0384  0.1958 -0.0124
  235SOL    HW1 1604   6.766   3.630   1.880 -2.2732 -1.7264 -1.5685
  235SOL    HW2 1605   6.767   3.704   1.734  1.0122  1.9371  0.0937
  236SOL     OW 1606   4.500   3.971   5.849 -0.3391  0.4803  0.0233
  236SOL    HW1 1607   4.514   3.988   5.752 -0.0360  1.8272  0.2820
  236SOL    HW2 1608   4.495   3.872   5.866  0.2000  0.2212 -1.2691
  237SOL     OW 1609   6.504   4.122   3.799  0.2151 -0.3106  0.0148
  237SOL    HW1 1610   6.457   4.094   3.883  0.1832 -1.9913 -0.5347
  237SOL    HW2 1611   6.438   4.162   3.736  0.0120 -0.1985  0.2959
  238SOL     OW 1612   4.622   1.203   2.442 -0.2275  0.0386  0.8041
  238SOL    HW1 1613   4.618   1.104   2.427 -0.2174  0.0895  0.4486
  238SOL    HW2 1614   4.577   1.250   2.366 -0.3299  0.3042  1.0262
  239SOL     OW 1615   0.928   3.088   6.973  0.0533  0.0716 -0.3985
  239SOL    HW1 1616   1.024   3.113   6.961  0.2743 -0.9827 -0.9324
  239SOL    HW2 1617   0.898   3.113   7.065  1.1520 -0.5630  0.1484
  240SOL     OW 1618   4.293   2.655   1.703 -0.0355 -0.1599  0.0763
  240SOL    HW1 1619   4.193   2.662   1.710 -0.2631 -1.2961 -1.4671
  240SOL    HW2 1620   4.332   2.746   1.688 -1.0720  0.0702 -1.4424
  241SOL     OW 1621   2.532   1.443   4.494 -0.1334 -0.1186  0.2320
  241SOL    HW1 1622   2.512   1.532   4.535  2.5108  0.6804 -0.0092
  241SOL    HW2 1623   2.493   1.438   4.402  1.4673  1.7073 -0.6064
  242SOL     OW 1624   5.249   4.084   1.234 -0.2824 -0.2664 -0.1304
  242SOL    HW1 1625   5.309   4.043   1.302  1.5116  0.3349 -1.2864
  242SOL    HW2 1626   5.194   4.013   1.191 -0.1578 -0.8794  0.6865
  243SOL     OW 1627   4.559   3.858   6.204  0.0087 -0.4146 -0.5047
  243SOL    HW1 1628   4.610   3.795   6.146  0.1902 -0.4814 -0.2715
  243SOL    HW2 1629   4.581   3.952   6.178  1.4862 -0.4144  0.6515
  244SOL     OW 1630   5.518   5.703   4.640 -0.5842 -0.1142  0.1430
  244SOL    HW1 1631   5.524   5.640   4.563  1.8749 -0.5077  0.5560
  244SOL    HW2 1632   5.562   5.790   4.616  1.1617 -0.6005  1.3391
  245SOL     OW 1633   6.137   1.849   3.152  0.3435 -0.1934 -0.5033
  245SOL    HW1 1634   6.201   1.776   3.128 -1.0819 -1.3201 -1.0840
  245SOL    HW2 1635   6.085   1.821   3.233  1.7798  1.4843  1.0727
  246SOL     OW 1636   0.632   0.489   3.025 -0.2639 -0.1596 -0.2416
  246SOL    HW1 1637   0.590   0.567   3.072  1.2307  0.7815 -0.4105
  246SOL    HW2 1638   0.699   0.446   3.084 -1.2141 -1.4808 -0.0778
  247SOL     OW 1639   2.822   0.171   6.939 -0.5287 -0.0694 -0.5638
  247SOL    HW1 1640   2.745   0.114   6.968  0.1219 -0.5949  0.1920
  247SOL    HW2 1641   2.803   0.266   6.964 -1.3659 -0.0275 -1.3051
  248SOL     OW 1642   2.882   3.614   2.118 -0.5843  0.3506 -0.0942
  248SOL    HW1 1643   2.879   3.589   2.215  1.8093 -0.2198 -0.1164
  248SOL    HW2 1644   2.915   3.536   2.065  0.4152  1.3839 -1.0348
  249SOL     OW 1645   5.049   0.768   5.649  0.1658 -0.1213 -0.5586
  249SOL    HW1 1646   5.030   0.722   5.736 -1.1678  0.2102 -0.6522
  249SOL    HW2 1647   5.115   0.841   5.664  1.2359 -1.1389 -0.1523
  250SOL     OW 1648   5.144   2.499   5.409  0.5345  0.1010 -0.2041
  250SOL    HW1 1649   5.131   2.447   5.493 -1.4505 -0.1268 -0.6192
  250SOL    HW2 1650   5.195   2.582   5.429  0.3445 -0.0964  1.1684
  251SOL     OW 1651   4.687   4.146   5.629  0.3535 -0.1078  0.0166
  251SOL    HW1 1652   4.654   4.235   5.660 -2.7887 -1.7730  1.9592
  251SOL    HW2 1653   4.640   4.121   5.544 -0.3361 -0.7396  0.5714
  252SOL     OW 1654   6.855   4.871   4.642 -0.4950  0.1880  0.0833
  252SOL    HW1 1655   6.822   4.779   4.620 -0.1300 -0.1703  1.0160
  252SOL    HW2 1656   6.861   4.882   4.741 -2.9574  2.0679  0.1352
  253SOL     OW 1657   5.540   0.743   4.983 -0.2981  0.0362  0.2815
  253SOL    HW1 1658   5.601   0.791   4.920 -1.0734  0.1143 -0.4366
  253SOL    HW2 1659   5.472   0.692   4.930 -2.0760  1.5040  1.0310
  254SOL     OW 1660   0.113   0.400   0.131  0.3892  0.0489  0.2191
  254SOL    HW1 1661   0.190   0.460   0.151 -0.3200  0.3191  2.4411
  254SOL    HW2 1662   0.146   0.315   0.090  1.6721  0.8524 -0.4581
  255SOL     OW 1663   0.858   4.715   1.427 -0.3820  0.5478  0.3621
  255SOL    HW1 1664   0.840   4.746   1.521  0.5695  1.3681  0.2979
  255SOL    HW2 1665   0.949   4.674   1.423 -0.1452  1.1249 -0.3348
  256SOL     OW 1666   5.622   2.309   3.317  0.1329 -0.2501  0.1227
  256SOL    HW1 1667   5.639   2.351   3.406 -0.4013  1.6226 -0.6047
  256SOL    HW2 1668   5.527   2.325   3.290 -0.5278 -3.2305  0.4121
  257SOL     OW 1669   2.461   5.782   2.179 -0.0632 -0.2934 -0.3422
  257SOL    HW1 1670   2.481   5.861   2.236  0.8086 -0.0974 -0.9017
  257SOL    HW2 1671   2.390   5.727   2.223  0.2622  0.0892  0.7054
  258SOL     OW 1672   2.165   3.638   4.807  0.0665  0.1043  0.7110
  258SOL    HW1 1673   2.259   3.671   4.807 -0.1969  0.9939  3.0610
  258SOL    HW2 1674   2.157   3.559   4.867 -0.7210  0.1037  0.6157
  259SOL     OW 1675   3.362   0.853   4.019  0.1745  0.2778 -0.1484
  259SOL    HW1 1676   3.348   0.891   3.927  1.0038 -0.5339 -0.6224
  259SOL    HW2 1677   3.316   0.911   4.086  0.0227  1.1907 -1.0204
  260SOL     OW 1678   3.910   5.859   2.733  0.2163 -0.3168  0.4659
  260SOL    HW1 1679   3.986   5.806   2.769  0.0071 -2.0602 -1.4756
  260SOL    HW2 1680   3.941   5.910   2.652 -0.5822 -0.7715 -0.1349
  261SOL     OW 1681   3.011   5.137   0.556  0.2417 -0.1516  0.1226
  261SOL    HW1 1682   3.080   5.072   0.526  1.2840  1.4115 -1.0684
  261SOL    HW2 1683   2.943   5.150   0.484 -0.9556 -1.1798  1.0310
  262SOL     OW 1684   2.212   5.558   6.215  0.4270 -0.7311 -0.3601
  262SOL    HW1 1685   2.195   5.613   6.296 -1.6503  2.2503 -2.5720
  262SOL    HW2 1686   2.164   5.471   6.222 -1.3594  0.2944  0.8364
  263SOL     OW 1687   1.915   1.134   4.028 -0.0234 -0.2703  0.0737
  263SOL    HW1 1688   2.003   1.112   3.986 -0.9236 -0.3379 -1.8662
  263SOL    HW2 1689   1.849   1.062   4.008 -0.0085 -1.3750  3.4325
  264SOL     OW 1690   6.820   4.614   5.869 -0.5047 -0.1805 -0.7925
  264SOL    HW1 1691   6.848   4.710   5.860 -1.6992  0.7067  2.9730
  264SOL    HW2 1692   6.879   4.557   5.813  1.4042  2.5669 -1.8279
  265SOL     OW 1693   0.180   0.709   2.560  0.0853  0.7763  0.0978
  265SOL    HW1 1694   0.167   0.645   2.636  1.1102  0.0567 -0.3051
  265SOL    HW2 1695   0.098   0.709   2.502 -0.2626  0.4892  0.5800
  266SOL     OW 1696   2.870   6.833   4.777 -0.1655  0.7243 -0.5802
  266SOL    HW1 1697   2.841   6.744   4.813 -0.0201 -0.0311 -2.2472
  266SOL    HW2 1698   2.946   6.868   4.833 -0.4947  0.0141  0.3435
  267SOL     OW 1699   2.312   0.398   3.878  0.1036  0.1540  0.1077
  267SOL    HW1 1700   2.309   0.437   3.970  0.7469  0.4814 -0.0019
  267SOL    HW2 1701   2.268   0.461   3.814  0.0999  0.1622  0.1185
  268SOL     OW 1702   2.682   2.209   0.843  0.2207  0.0057 -0.2088
  268SOL    HW1 1703   2.632   2.219   0.929  0.1965  0.6596 -0.2924
  268SOL    HW2 1704   2.771   2.167   0.862  0.3211  0.3835  0.1748
  269SOL     OW 1705   4.929   2.725   1.735 -0.1995  0.4755 -0.2337
  269SOL    HW1 1706   5.017   2.764   1.709 -0.4839  1.3088  0.0205
  269SOL    HW2 1707   4.865   2.799   1.757 -0.6426 -0.1426  0.6026
  270SOL     OW 1708   5.192   0.172   2.114  0.0159  0.6592 -0.0168
  270SOL    HW1 1709   5.230   0.133   2.198  0.0068  0.1573 -0.2404
  270SOL    HW2 1710   5.098   0.202   2.130  0.2971  1.3460  0.3770
  271SOL     OW 1711   6.686   5.195   0.615  0.0038  0.2224 -0.2417
  271SOL    HW1 1712   6.633   5.279   0.597  1.1641  1.3046  1.2022
  271SOL    HW2 1713   6.769   5.197   0.559 -0.1897 -0.2124 -0.5500
  272SOL     OW 1714   3.987   5.444   3.909  0.0532  0.0099 -0.0143
  272SOL    HW1 1715   4.011   5.350   3.883  0.2874  0.3619 -1.1574
  272SOL    HW2 1716   4.040   5.508   3.853 -2.4911  0.8351 -1.6772
  273SOL     OW 1717   2.211   3.797   5.228  0.9430 -0.5304 -0.1259
  273SOL    HW1 1718   2.138   3.822   5.165 -1.1494 -0.1302  2.2930
  273SOL    HW2 1719   2.280   3.869   5.231 -0.2821  0.6588 -0.0405
  274SOL     OW 1720   4.961   3.452   4.576  0.4522  0.7101  0.6671
  274SOL    HW1 1721   4.919   3.518   4.514 -0.6968  0.8701  1.5983
  274SOL    HW2 1722   4.929   3.468   4.669 -0.9016 -1.9602  0.7527
  275SOL     OW 1723   0.101   5.954   2.083  0.3020  0.6701 -0.0113
  275SOL    HW1 1724   0.077   5.858   2.071 -0.4005  0.7716  0.4572
  275SOL    HW2 1725   0.180   5.977   2.026  1.3466 -0.5138  0.9126
  276SOL     OW 1726   6.704   6.073   4.967 -0.2905  0.0874  0.6461
  276SOL    HW1 1727   6.712   6.171   4.946  3.2561 -0.1527  0.2244
  276SOL    HW2 1728   6.683   6.023   4.883  0.3870  0.3135  0.3299
  277SOL     OW 1729   0.921   3.023   1.833 -0.3307  0.1749  0.0822
  277SOL    HW1 1730   0.979   2.949   1.868  2.6618  2.2104 -0.2604
  277SOL    HW2 1731   0.871   3.065   1.909 -2.3372 -2.2278  0.2503
  278SOL     OW 1732   6.776   1.544   1.753  0.0837  0.2947  0.2292
  278SOL    HW1 1733   6.709   1.471   1.749  0.8265 -0.5021  1.6182
  278SOL    HW2 1734   6.830   1.536   1.837  1.0646  1.6620 -0.2256
  279SOL     OW 1735   5.453   6.782   3.145  0.4863 -0.5313  0.2974
  279SOL    HW1 1736   5.505   6.863   3.174  0.1140 -0.5943  1.1639
  279SOL    HW2 1737   5.359   6.790   3.178  0.0110 -0.5514 -1.0250
  280SOL     OW 1738   0.495   3.351   2.273 -0.5123  0.1020  0.1816
  280SOL    HW1 1739   0.454   3.317   2.188 -0.5487  0.2755  0.1307
  280SOL    HW2 1740   0.437   3.324   2.350  0.3229 -1.4350  0.3180
  281SOL     OW 1741   1.344   4.391   0.468  0.0443 -0.4045  0.7251
  281SOL    HW1 1742   1.305   4.384   0.560  0.9938  2.1787  1.4298
  281SOL    HW2 1743   1.311   4.476   0.425  0.3818 -1.0913 -0.9414
  282SOL     OW 1744   1.991   5.669   4.462  0.6320 -0.4965 -0.1779
  282SOL    HW1 1745   2.040   5.672   4.375  0.2455 -0.7034 -0.4033
  282SOL    HW2 1746   2.037   5.730   4.527  0.7416 -0.0974 -0.6150
  283SOL     OW 1747   3.076   3.878   4.976 -0.0089  0.1504 -0.3845
  283SOL    HW1 1748   3.066   3.967   5.019 -1.1019 -0.3113  0.3747
  283SOL    HW2 1749   3.012   3.870   4.899 -2.0274 -0.9624  1.3059
  284SOL     OW 1750   5.963   3.241   1.389 -0.3927  0.5546 -0.5146
  284SOL    HW1 1751   5.964   3.296   1.305 -1.3359  1.2890 -0.0731
  284SOL    HW2 1752   5.886   3.270   1.446  1.9143  2.2756  2.0234
  285SOL     OW 1753   5.152   4.126   2.468  0.0221  0.2345  0.4124
  285SOL    HW1 1754   5.096   4.102   2.548  1.4690 -0.2395  1.3290
  285SOL    HW2 1755   5.107   4.094   2.385 -0.8657 -0.5158  1.1565
  286SOL     OW 1756   2.105   5.047   0.166  0.5333 -0.2464  0.0748
  286SOL    HW1 1757   2.047   4.978   0.210  0.4032 -0.3510 -0.2484
  286SOL    HW2 1758   2.047   5.120   0.130  0.4657 -0.9058 -1.2456
  287SOL     OW 1759   1.550   3.032   5.463 -0.0129 -0.0019 -0.2462
  287SOL    HW1 1760   1.515   3.112   5.512 -0.8183  0.3623 -1.3863
  287SOL    HW2 1761   1.496   2.952   5.489  0.2516 -0.0238  0.2565
  288SOL     OW 1762   4.557   2.922   0.503 -0.0273  0.6150 -0.3303
  288SOL    HW1 1763   4.612   2.985   0.557 -2.7179  1.3427  1.7399
  288SOL    HW2 1764   4.535   2.841   0.557 -1.3468  0.5355 -0.9547
  289SOL     OW 1765   3.438   3.773   6.895 -0.3580 -0.0257  0.5572
  289SOL    HW1 1766   3.385   3.775   6.979  1.7605 -0.8054  1.9973
  289SOL    HW2 1767   3.522   3.825   6.907  1.0887 -2.0473 -0.2488
  290SOL     OW 1768   1.486   1.714   5.122 -0.2797 -0.2824 -0.5171
  290SOL    HW1 1769   1.410   1.762   5.167 -0.3073  1.5752 -2.4166
  290SOL    HW2 1770   1.470   1.615   5.128 -0.4611 -0.1882  3.1258
  291SOL     OW 1771   0.460   2.204   3.138 -0.1555 -0.5115 -0.1123
  291SOL    HW1 1772   0.486   2.114   3.172  0.9045  0.1074  0.7760
  291SOL    HW2 1773   0.429   2.260   3.214 -0.6967 -0.0745 -0.6436
  292SOL     OW 1774   2.987   1.938   4.371 -0.4703  0.1083 -0.2015
  292SOL    HW1 1775   2.892   1.906   4.377 -1.2353  1.8192 -2.0474
  292SOL    HW2 1776   3.017   1.935   4.276  1.0818  0.3347  0.2587
  293SOL     OW 1777   3.118   5.929   4.364 -0.3114  0.7837  0.0626
  293SOL    HW1 1778   3.153   5.872   4.438  0.5104  1.8447  0.5267
  293SOL    HW2 1779   3.026   5.899   4.339  0.5815 -1.6053 -0.6612
  294SOL     OW 1780   5.389   0.857   1.428 -0.1919  0.8503 -0.2286
  294SOL    HW1 1781   5.415   0.760   1.430  0.7403  1.0883 -0.2698
  294SOL    HW2 1782   5.294   0.867   1.456 -0.5296 -0.1529 -0.9607
  295SOL     OW 1783   6.058   4.828   2.656  0.1374 -0.0844  0.5202
  295SOL    HW1 1784   6.023   4.864   2.570 -0.1882 -0.4680  0.4853
  295SOL    HW2 1785   6.148   4.788   2.642 -0.5545 -1.5400  0.0067
  296SOL     OW 1786   1.654   0.490   2.342 -0.1749 -0.0207 -0.5357
  296SOL    HW1 1787   1.690   0.489   2.435  0.4077  1.3315 -0.7096
  296SOL    HW2 1788   1.598   0.409   2.326  1.4109 -1.3617  0.3187
  297SOL     OW 1789   2.249   3.998   2.031  0.3617 -0.5608  0.0942
  297SOL    HW1 1790   2.241   3.953   1.942 -0.8230  0.6534 -0.4525
  297SOL    HW2 1791   2.306   4.080   2.021  0.2935 -0.4672  0.4665
  298SOL     OW 1792   7.015   5.888   6.870  0.0768  0.2061  0.6116
  298SOL    HW1 1793   7.037   5.791   6.875  1.1884  0.4460  0.6529
  298SOL    HW2 1794   6.957   5.913   6.947 -2.5932 -0.9800 -0.8685
  299SOL     OW 1795   5.927   1.131   4.551 -0.1641 -0.4730  0.6658
  299SOL    HW1 1796   5.977   1.052   4.516  1.9344  0.4227  1.5091
  299SOL    HW2 1797   5.866   1.166   4.479  1.1721 -0.9960 -0.7736
  300SOL     OW 1798   3.866   6.417   3.221 -0.0501 -0.1935 -0.1744
  300SOL    HW1 1799   3.788   6.477   3.239 -0.8467 -1.3333  0.2809
  300SOL    HW2 1800   3.863   6.386   3.126  0.7305  0.9634 -0.6062
  301SOL     OW 1801   5.589   2.140   5.389  0.1987  0.1692 -0.2587
  301SOL    HW1 1802   5.502   2.100   5.360  0.6800 -1.5884  0.5646
  301SOL    HW2 1803   5.581   2.239   5.394 -0.9790  0.2580 -2.6947
  302SOL     OW 1804   6.679   5.368   2.530  0.4363  0.6574 -0.1840
  302SOL    HW1 1805   6.632   5.345   2.615 -0.2899  0.1542 -0.7023
  302SOL    HW2 1806   6.748   5.438   2.547  2.0071 -1.1281  1.2766
  303SOL     OW 1807   0.143   1.210   3.903  0.1306  0.0370 -0.3631
  303SOL    HW1 1808   0.175   1.304   3.892  1.9275 -0.5798 -0.7845
  303SOL    HW2 1809   0.161   1.179   3.996  1.1049 -0.4114 -0.6860
  304SOL     OW 1810   4.321   1.852   4.190  0.6121  0.4321  0.5697
  304SOL    HW1 1811   4.323   1.754   4.208  1.9288  0.1560 -0.8111
  304SOL    HW2 1812   4.391   1.874   4.122 -0.6601  2.1058 -0.2598
  305SOL     OW 1813   0.304   5.838   0.964  0.0650 -0.5394  1.2446
  305SOL    HW1 1814   0.312   5.937   0.953 -0.7356 -0.3056  2.5009
  305SOL    HW2 1815   0.238   5.803   0.897  0.2870 -0.2142  0.8487
  306SOL     OW 1816   1.804   2.293   3.110  0.0628  0.2545 -0.0251
  306SOL    HW1 1817   1.814   2.225   3.183  0.0162  1.2291  0.9182
  306SOL    HW2 1818   1.886   2.292   3.053  1.1899  1.0866  1.4792
  307SOL     OW 1819   5.475   1.727   0.699  0.3169  0.0410 -0.2964
  307SOL    HW1 1820   5.504   1.696   0.609 -1.0865  0.1044 -0.7856
  307SOL    HW2 1821   5.503   1.661   0.768  1.5275  0.0627 -0.7436
  308SOL     OW 1822   0.305   6.220   3.487  0.1322  0.3089 -0.1670
  308SOL    HW1 1823   0.211   6.188   3.494  0.1076 -0.0667 -1.7672
  308SOL    HW2 1824   0.348   6.218   3.577 -0.3934 -2.6744  0.1161
  309SOL     OW 1825   3.444   3.988   5.777 -0.0780 -0.9050 -0.0839
  309SOL    HW1 1826   3.489   3.913   5.824  0.3339 -1.1619 -0.8642
  309SOL    HW2 1827   3.395   4.045   5.843  0.0456 -1.5528  0.5744
  310SOL     OW 1828   1.504   5.578   0.769 -0.8718 -0.3096  0.2519
  310SOL    HW1 1829   1.432   5.511   0.786  0.9640 -2.1494  1.2065
  310SOL    HW2 1830   1.570   5.541   0.704  1.0069 -0.1024  1.9528
  311SOL     OW 1831   6.655   0.587   2.084 -0.3802  0.0593  0.5899
  311SOL    HW1 1832   6.592   0.665   2.088  1.2204  1.5519 -1.5744
  311SOL    HW2 1833   6.604   0.505   2.057 -1.8898  0.5035  1.8621
  312SOL     OW 1834   4.453   2.222   1.397 -0.0314 -0.8214 -0.2809
  312SOL    HW1 1835   4.547   2.256   1.388 -0.1303  0.7639  3.1659
  312SOL    HW2 1836   4.402   2.243   1.313  2.4120 -1.0471 -1.9338
  313SOL     OW 1837   5.957   6.380   1.274  0.6125  0.1630  0.4021
  313SOL    HW1 1838   5.976   6.286   1.247 -0.1830  0.2748 -0.6013
  313SOL    HW2 1839   6.032   6.439   1.245  0.2347  0.1228 -0.7147
  314SOL     OW 1840   1.861   4.567   2.193  0.3555  0.0795 -0.4339
  314SOL    HW1 1841   1.797   4.505   2.238  2.6087 -2.2965 -0.3080
  314SOL    HW2 1842   1.854   4.556   2.093  1.5320 -1.3256 -0.3975
  315SOL     OW 1843   0.002   2.249   1.789 -0.3348  0.9396  0.1395
  315SOL    HW1 1844  -0.095   2.225   1.797 -0.6659  1.6064 -1.5656
  315SOL    HW2 1845   0.055   2.166   1.771 -0.5801  0.5909  0.9456
  316SOL     OW 1846   2.579   4.517   3.990  0.2631  0.3866 -0.3415
  316SOL    HW1 1847   2.581   4.515   4.090  0.7893  0.6075 -0.3450
  316SOL    HW2 1848   2.558   4.610   3.959  2.3335  0.8581 -0.4485
  317SOL     OW 1849   5.677   6.835   0.030 -0.0061 -0.6220 -0.1083
  317SOL    HW1 1850   5.707   6.740   0.041  2.0434 -0.1852 -1.2586
  317SOL    HW2 1851   5.757   6.892   0.009 -1.3993  1.0835 -1.0117
  318SOL     OW 1852   2.537   3.589   1.248 -0.4154  0.4355 -0.3463
  318SOL    HW1 1853   2.552   3.680   1.211  0.2827  1.1167  1.4866
  318SOL    HW2 1854   2.587   3.579   1.334 -1.8432 -1.0785  0.3711
  319SOL     OW 1855   0.988   6.422   0.393 -0.0568 -0.7696  0.4344
  319SOL    HW1 1856   1.002   6.327   0.366 -0.4462 -0.6049 -0.4168
  319SOL    HW2 1857   1.049   6.446   0.468 -0.3374 -1.8437  1.0251
  320SOL     OW 1858   5.283   1.734   1.235  0.4890 -0.0341 -0.2957
  320SOL    HW1 1859   5.358   1.669   1.250 -0.3714 -0.9354  0.1860
  320SOL    HW2 1860   5.310   1.824   1.267  1.0017 -0.5714  0.8403
  321SOL     OW 1861   3.136   1.542   2.628 -0.2267 -0.1074  0.5224
  321SOL    HW1 1862   3.053   1.556   2.682 -2.0800 -0.4847 -2.0449
  321SOL    HW2 1863   3.137   1.448   2.593  1.2445 -0.0733  0.4274
  322SOL     OW 1864   3.418   2.009   6.405 -0.0235 -0.2825  0.0744
  322SOL    HW1 1865   3.432   1.913   6.428  1.0508 -0.2484 -0.3653
  322SOL    HW2 1866   3.477   2.066   6.462  0.4376  0.0033 -0.6635
  323SOL     OW 1867   2.627   2.948   1.084  0.4463 -0.1046 -0.0952
  323SOL    HW1 1868   2.606   2.855   1.054  1.4176 -0.2993 -0.1886
  323SOL    HW2 1869   2.647   2.948   1.182  0.4633  0.0044 -0.0983
  324SOL     OW 1870   6.597   4.257   4.639  0.6079  0.2835  0.4711
  324SOL    HW1 1871   6.522   4.324   4.644  0.4484  0.1950 -0.4494
  324SOL    HW2 1872   6.684   4.305   4.641  0.5525  1.0129 -3.8554
  325SOL     OW 1873   1.281   1.165   2.425 -0.3629  0.0209  0.5832
  325SOL    HW1 1874   1.347   1.238   2.444  0.5268 -0.5455 -0.1991
  325SOL    HW2 1875   1.273   1.105   2.505  0.8708 -0.4845  0.3589
  326SOL     OW 1876   0.954   3.261   4.008  1.0204  0.2588 -0.3400
  326SOL    HW1 1877   0.869   3.210   3.991  0.3799  0.7902  1.0686
  326SOL    HW2 1878   1.032   3.208   3.977  0.3653 -1.5677  0.9783
  327SOL     OW 1879   0.263   6.316   5.649  0.0140  0.3943 -0.3491
  327SOL    HW1 1880   0.239   6.372   5.570  2.1163 -0.2763 -1.5310
  327SOL    HW2 1881   0.281   6.376   5.728  0.0477  1.2130 -0.9622
  328SOL     OW 1882   2.643   5.653   3.084 -0.1543  0.2146  0.0303
  328SOL    HW1 1883   2.702   5.732   3.103 -0.8433  0.8875 -0.5672
  328SOL    HW2 1884   2.636   5.639   2.986  0.3694 -0.9322  0.1330
  329SOL     OW 1885   4.061   3.073   2.181  0.4179 -0.4541 -0.1559
  329SOL    HW1 1886   4.060   3.135   2.102 -1.4434 -1.6008 -1.0847
  329SOL    HW2 1887   4.146   3.020   2.181  0.4833 -0.3661 -1.3380
  330SOL     OW 1888   2.265   1.721   1.546 -0.3682  0.4495 -0.3842
  330SOL    HW1 1889   2.215   1.806   1.525 -0.1474  0.4767 -0.8220
  330SOL    HW2 1890   2.255   1.699   1.643 -0.7423  0.7724 -0.3470
  331SOL     OW 1891   5.710   3.434   6.089 -0.4806 -0.3654 -0.0792
  331SOL    HW1 1892   5.679   3.469   6.000  1.7728 -1.0038 -1.1884
  331SOL    HW2 1893   5.706   3.334   6.088 -0.2880 -0.3806  0.4777
  332SOL     OW 1894   4.816   1.861   3.957 -0.7726 -0.4284 -0.3443
  332SOL    HW1 1895   4.816   1.844   3.858 -0.0279 -0.0472 -0.4107
  332SOL    HW2 1896   4.902   1.831   3.996 -1.0104 -0.4403  0.1750
  333SOL     OW 1897   4.030   6.486   6.562 -0.2225  0.1697  0.5369
  333SOL    HW1 1898   4.042   6.489   6.462 -0.8974  1.8579  0.4704
  333SOL    HW2 1899   4.013   6.392   6.591 -3.4528  0.0077 -1.4029
  334SOL     OW 1900   5.110   5.213   1.445 -0.1542 -0.3723  0.0612
  334SOL    HW1 1901   5.115   5.151   1.366  0.4528  0.9903 -1.0144
  334SOL    HW2 1902   5.014   5.223   1.473 -0.3901 -0.7987 -0.5661
  335SOL     OW 1903   3.218   6.871   2.906 -0.2747  0.2370 -0.0830
  335SOL    HW1 1904   3.181   6.829   2.989  0.6350  0.1751  0.3073
  335SOL    HW2 1905   3.250   6.799   2.844  1.4541  0.2981  0.6648
  336SOL     OW 1906   4.160   5.660   4.625  0.1516  0.3103  0.2346
  336SOL    HW1 1907   4.075   5.636   4.578  0.6139 -1.5115  0.2467
  336SOL    HW2 1908   4.207   5.733   4.574 -0.2212 -0.3826 -1.1701
  337SOL     OW 1909   6.673   4.401   1.333  0.1972 -0.0938  0.4730
  337SOL    HW1 1910   6.749   4.399   1.267 -0.2276  0.7213 -0.0626
  337SOL    HW2 1911   6.669   4.314   1.381  1.4653 -0.1543  0.5068
  338SOL     OW 1912   6.684   2.506   0.605 -0.0711 -0.0477  0.1710
  338SOL    HW1 1913   6.673   2.410   0.630  1.5981 -0.3934 -0.3284
  338SOL    HW2 1914   6.613   2.560   0.650 -2.2544 -1.7344 -1.0671
  339SOL     OW 1915   4.514   0.979   3.245 -0.1717  0.5978 -0.4994
  339SOL    HW1 1916   4.420   0.991   3.276  0.3909  0.9935  1.1605
  339SOL    HW2 1917   4.541   1.058   3.190  0.0072  1.7943  1.2339
  340SOL     OW 1918   5.284   4.253   5.200  0.2143  0.1439  0.1878
  340SOL    HW1 1919   5.250   4.317   5.269 -0.5545 -1.3961  1.2999
  340SOL    HW2 1920   5.384   4.257   5.196  0.2143  0.8575  0.7589
  341SOL     OW 1921   5.401   5.323   5.356 -0.9023 -0.4791 -0.5474
  341SOL    HW1 1922   5.384   5.393   5.286  0.7087  2.0125  1.3824
  341SOL    HW2 1923   5.490   5.280   5.340 -0.7350 -0.2297 -0.2938
  342SOL     OW 1924   5.623   4.799   6.865  0.4821  0.3168 -0.4969
  342SOL    HW1 1925   5.686   4.779   6.940 -3.1678  2.7071  3.6358
  342SOL    HW2 1926   5.570   4.717   6.843  1.6384 -0.4285 -0.6240
  343SOL     OW 1927   2.221   0.767   2.584  0.1305  0.1425 -0.0993
  343SOL    HW1 1928   2.276   0.834   2.533 -0.4036  0.1723 -0.6510
  343SOL    HW2 1929   2.252   0.764   2.678 -0.8735  2.3974  0.3768
  344SOL     OW 1930   3.066   4.434   0.145 -0.3132  0.0251  0.1749
  344SOL    HW1 1931   3.112   4.494   0.211  0.6102  0.3433 -0.7317
  344SOL    HW2 1932   3.085   4.466   0.052 -2.7757  0.4564 -0.2571
  345SOL     OW 1933   1.886   0.873   4.809 -0.0103  0.1208  0.3400
  345SOL    HW1 1934   1.900   0.781   4.773 -0.6014 -0.1823  0.8513
  345SOL    HW2 1935   1.956   0.935   4.773  0.3611 -0.5169 -0.0456
  346SOL     OW 1936   3.723   2.162   0.501 -0.3745 -0.7098 -0.6607
  346SOL    HW1 1937   3.769   2.087   0.548 -1.2461 -1.5837 -1.1700
  346SOL    HW2 1938   3.664   2.211   0.565 -1.9507 -2.2059 -0.8747
  347SOL     OW 1939   3.338   6.079   5.069 -0.1439  0.3445 -0.4721
  347SOL    HW1 1940   3.373   6.171   5.085  0.9356  0.0682 -1.1395
  347SOL    HW2 1941   3.376   6.017   5.138 -2.5414  0.7341  1.3224
  348SOL     OW 1942   3.356   6.524   3.425 -0.0176  0.8121 -0.7157
  348SOL    HW1 1943   3.433   6.470   3.391 -0.8696 -1.3952  0.5933
  348SOL    HW2 1944   3.363   6.533   3.524 -2.4781 -1.3835 -0.2301
  349SOL     OW 1945   2.462   4.432   2.782 -0.0466 -0.5202 -0.0296
  349SOL    HW1 1946   2.428   4.412   2.690 -1.2313  0.4151  0.1763
  349SOL    HW2 1947   2.421   4.368   2.847 -1.9688  0.9362  0.2957
  350SOL     OW 1948   5.858   1.212   2.380 -0.2169  0.0717 -0.1822
  350SOL    HW1 1949   5.877   1.289   2.319 -1.0581 -0.6052 -1.3362
  350SOL    HW2 1950   5.786   1.155   2.340  1.5028 -2.2481 -0.2175
  351SOL     OW 1951   3.437   1.742   0.669  0.6290 -0.1919 -0.6157
  351SOL    HW1 1952   3.448   1.643   0.657  0.0019 -0.2755 -0.5509
  351SOL    HW2 1953   3.340   1.763   0.680  0.7760  0.4135 -0.4522
  352SOL     OW 1954   4.143   1.485   1.359  0.0982  0.0730  0.4527
  352SOL    HW1 1955   4.118   1.572   1.402  0.2609  0.5569 -0.4136
  352SOL    HW2 1956   4.170   1.501   1.264  0.4193 -0.8895  0.3715
  353SOL     OW 1957   0.800   5.985   1.650 -0.0579 -0.3814 -0.8004
  353SOL    HW1 1958   0.759   5.914   1.592 -0.8310  0.0058 -0.7413
  353SOL    HW2 1959   0.843   5.942   1.729 -0.0914 -0.8249 -1.0198
  354SOL     OW 1960   5.452   1.793   3.362 -0.3167 -0.7037 -0.1643
  354SOL    HW1 1961   5.478   1.768   3.455  1.0089 -0.8134 -0.5391
  354SOL    HW2 1962   5.354   1.814   3.359 -0.6305 -1.8612  1.0000
  355SOL     OW 1963   1.413   6.821   1.820 -0.6114 -0.3438  0.0188
  355SOL    HW1 1964   1.468   6.867   1.750 -1.4993 -0.6585 -0.9062
  355SOL    HW2 1965   1.347   6.885   1.858 -2.0755 -0.8522 -1.5059
  356SOL     OW 1966   4.462   2.107   2.536  0.7071  0.5636 -0.0022
  356SOL    HW1 1967   4.486   2.198   2.569 -0.8428  0.4203  1.6863
  356SOL    HW2 1968   4.458   2.043   2.613  0.2080 -0.5659 -0.9261
  357SOL     OW 1969   2.062   5.740   5.729 -0.5616 -0.1920 -0.9051
  357SOL    HW1 1970   2.027   5.658   5.683 -1.7463 -1.3028  1.7641
  357SOL    HW2 1971   2.157   5.755   5.703 -0.7624 -1.5617 -2.5749
  358SOL     OW 1972   5.620   0.063   1.965  0.0830 -0.6831  0.2497
  358SOL    HW1 1973   5.630   0.014   1.879 -1.5558  0.5964 -0.7106
  358SOL    HW2 1974   5.538   0.120   1.963 -0.4080 -1.1293  2.9218
  359SOL     OW 1975   0.965   1.399   0.262  0.4164 -1.1894 -0.0900
  359SOL    HW1 1976   0.941   1.321   0.205 -0.7163 -0.6097 -0.4464
  359SOL    HW2 1977   1.055   1.434   0.235  1.1148 -2.5977  0.3531
  360SOL     OW 1978   5.845   1.438   6.379 -0.0520 -0.1134  0.0908
  360SOL    HW1 1979   5.769   1.409   6.438  0.0854 -0.2835  0.1845
  360SOL    HW2 1980   5.827   1.408   6.285  0.2279 -0.7694  0.2384
  361SOL     OW 1981   4.482   6.974   2.794  0.3377  0.5076  0.3451
  361SOL    HW1 1982   4.394   7.022   2.793 -0.1285 -0.3214  0.3571
  361SOL    HW2 1983   4.555   7.038   2.819 -0.3451  1.0713  0.9360
  362SOL     OW 1984   3.812   3.751   0.741  0.3209 -0.2596  0.1077
  362SOL    HW1 1985   3.787   3.671   0.687  0.5201  0.0064 -0.3900
  362SOL    HW2 1986   3.888   3.728   0.802 -0.1218 -0.6504  0.5177
  363SOL     OW 1987   3.987   5.882   3.675  0.0101  0.2783  0.3034
  363SOL    HW1 1988   3.947   5.869   3.766 -0.6696 -0.7324 -0.1189
  363SOL    HW2 1989   3.938   5.955   3.628  0.6724  1.1328  0.9097
  364SOL     OW 1990   3.021   0.561   6.822  0.1116 -0.4667  0.4095
  364SOL    HW1 1991   3.004   0.535   6.917 -1.1642 -0.3136  0.2493
  364SOL    HW2 1992   2.994   0.486   6.762 -0.7552  0.0670  0.0994
  365SOL     OW 1993   4.160   6.535   4.018  0.7408 -0.5835  0.3506
  365SOL    HW1 1994   4.240   6.484   3.988  1.9967  1.1351  0.6651
  365SOL    HW2 1995   4.119   6.582   3.939  0.9138 -0.2874  0.4367
  366SOL     OW 1996   4.585   1.040   0.445  0.2240  0.4424  0.0822
  366SOL    HW1 1997   4.526   1.015   0.522  0.4913 -0.2296  0.0713
  366SOL    HW2 1998   4.645   0.964   0.423  0.7400  0.9410 -0.2468
  367SOL     OW 1999   6.771   1.189   1.380  0.6048 -0.4124 -0.8239
  367SOL    HW1 2000   6.679   1.161   1.406  0.6810 -0.0867 -0.1700
  367SOL    HW2 2001   6.806   1.255   1.447  1.1358 -0.1820 -1.3183
  368SOL     OW 2002   0.045   6.112   3.848  0.5354  0.1445  0.2778
  368SOL    HW1 2003   0.110   6.067   3.786  1.0771  0.0208  0.9269
  368SOL    HW2 2004  -0.023   6.162   3.794 -0.0982 -1.4517 -0.4725
  369SOL     OW 2005   6.477   4.087   1.866 -0.1176  0.0469  0.1844
  369SOL    HW1 2006   6.472   4.069   1.964  2.2917 -0.2995  0.3005
  369SOL    HW2 2007   6.393   4.055   1.822 -0.7122 -0.9613  1.9430
  370SOL     OW 2008   2.783   2.463   6.035 -0.2301 -0.2512 -0.7296
  370SOL    HW1 2009   2.717   2.391   6.011  2.3714 -2.9766 -0.3579
  370SOL    HW2 2010   2.864   2.453   5.978  0.2349  2.4999 -0.6584
  371SOL     OW 2011   2.563   3.293   6.243  0.0015  0.0324  0.1311
  371SOL    HW1 2012   2.582   3.344   6.327  0.1059 -0.3862  0.3639
  371SOL    HW2 2013   2.470   3.311   6.213  0.5062  1.5510 -0.6245
  372SOL     OW 2014   2.005   4.203   6.882 -0.2973  0.2491 -0.2897
  372SOL    HW1 2015   1.981   4.299   6.864 -0.0757  0.1963 -0.9251
  372SOL    HW2 2016   2.100   4.198   6.914 -0.7359  0.3546  1.0832
  373SOL     OW 2017   5.016   0.603   5.866  0.0199 -0.3354  0.2564
  373SOL    HW1 2018   5.079   0.526   5.874  0.1828 -0.5772 -2.4296
  373SOL    HW2 2019   4.929   0.581   5.909  1.4355 -0.2650  3.4258
  374SOL     OW 2020   4.169   0.606   2.007 -0.1665  0.0761 -0.1793
  374SOL    HW1 2021   4.209   0.680   1.953  0.4717 -0.6219 -0.6874
  374SOL    HW2 2022   4.176   0.520   1.957  1.7648 -0.8727  1.5499
  375SOL     OW 2023   6.329   4.426   5.827  0.1478  0.6749  0.2642
  375SOL    HW1 2024   6.416   4.437   5.875  0.1613 -1.5598  0.8696
  375SOL    HW2 2025   6.254   4.459   5.885  0.4515  1.1890  0.3694
  376SOL     OW 2026   2.426   5.357   4.092  0.0340 -0.0353 -0.2911
  376SOL    HW1 2027   2.409   5.412   4.010  1.0080  1.1597  0.2658
  376SOL    HW2 2028   2.426   5.260   4.068  0.9709  0.3118 -1.8526
  377SOL     OW 2029   6.230   2.214   4.729  0.0679 -0.0819 -0.8582
  377SOL    HW1 2030   6.270   2.252   4.812  2.2867 -0.1035 -1.8565
  377SOL    HW2 2031   6.217   2.287   4.661 -1.7875 -0.0527 -0.5232
  378SOL     OW 2032   5.401   3.741   6.011 -0.1299  0.1392 -0.4411
  378SOL    HW1 2033   5.351   3.739   5.925  0.1769  0.6842 -0.6340
  378SOL    HW2 2034   5.352   3.797   6.077  0.4477  1.0488 -0.7737
  379SOL     OW 2035   5.056   1.853   1.585 -0.3338 -0.0011  0.2358
  379SOL    HW1 2036   5.050   1.946   1.621 -1.1103 -0.3385  1.0319
  379SOL    HW2 2037   5.021   1.789   1.654 -0.5043 -0.8116 -0.5882
  380SOL     OW 2038   1.513   2.403   5.994 -0.0775 -0.3163 -0.2227
  380SOL    HW1 2039   1.591   2.344   6.014  0.1604  0.1050  0.0873
  380SOL    HW2 2040   1.535   2.464   5.918  0.5527  1.0456  1.0061
  381SOL     OW 2041   4.852   4.671   6.684  0.6879  0.0347 -0.6320
  381SOL    HW1 2042   4.809   4.593   6.638  0.3632 -0.0168 -0.2395
  381SOL    HW2 2043   4.824   4.673   6.780  1.4524  0.0819 -0.4040
  382SOL     OW 2044   2.124   4.602   6.578  0.3841 -0.5784 -0.3210
  382SOL    HW1 2045   2.072   4.554   6.649  2.4510 -1.8256  0.4294
  382SOL    HW2 2046   2.160   4.688   6.614 -0.9992  0.2353 -0.8098
  383SOL     OW 2047   5.142   3.100   0.823  0.3027 -0.0518 -0.2184
  383SOL    HW1 2048   5.188   3.185   0.848 -1.8923  1.5162 -1.1883
  383SOL    HW2 2049   5.166   3.028   0.889  2.0904  1.3276  0.7112
  384SOL     OW 2050   1.021   5.672   5.172 -0.1547  0.1076 -0.3004
  384SOL    HW1 2051   1.118   5.681   5.195 -0.0210 -0.3285 -0.6792
  384SOL    HW2 2052   0.967   5.730   5.234  0.4903  2.0175 -1.4473
  385SOL     OW 2053   3.830   3.053   0.128 -0.0421 -0.1314 -0.2041
  385SOL    HW1 2054   3.824   2.974   0.189  2.2669 -0.7139 -0.6389
  385SOL    HW2 2055   3.738   3.082   0.103 -0.9888 -1.7478  1.1355
  386SOL     OW 2056   2.500   5.671   4.397 -0.1327 -0.9390 -0.1456
  386SOL    HW1 2057   2.575   5.730   4.426 -1.2298  0.8935 -0.8545
  386SOL    HW2 2058   2.495   5.591   4.457  1.5030 -0.4092  0.7476
  387SOL     OW 2059   7.002   0.014   5.758 -0.2123  0.1584  0.5929
  387SOL    HW1 2060   7.049   0.011   5.847  2.1016 -0.9369 -0.5818
  387SOL    HW2 2061   7.061   0.057   5.691 -0.8501 -1.3047 -0.9795
  388SOL     OW 2062   0.329   2.072   5.757  0.1303 -0.1549  0.0084
  388SOL    HW1 2063   0.400   2.092   5.689 -1.2339  0.7509 -1.2248
  388SOL    HW2 2064   0.258   2.143   5.753  0.9488  1.1165  3.8445
  389SOL     OW 2065   5.627   3.603   2.182 -0.2476  0.0783 -0.0442
  389SOL    HW1 2066   5.635   3.505   2.203  3.3368  0.2410 -0.0855
  389SOL    HW2 2067   5.573   3.615   2.099  1.5209 -2.1617 -1.6492
  390SOL     OW 2068   2.134   2.919   2.112  0.0870 -0.2230 -0.6010
  390SOL    HW1 2069   2.130   2.985   2.187  0.9727 -1.0677  0.2298
  390SOL    HW2 2070   2.158   2.966   2.027  1.9050  0.3953  0.2061
  391SOL     OW 2071   3.603   4.189   4.654  0.1232 -0.5234  0.0583
  391SOL    HW1 2072   3.618   4.187   4.753 -1.8843 -3.2384  0.4358
  391SOL    HW2 2073   3.505   4.202   4.636  0.2409 -1.5015 -1.4837
  392SOL     OW 2074   2.229   3.056   2.918 -1.0327  0.1994 -0.2153
  392SOL    HW1 2075   2.242   3.151   2.888 -1.7147  0.6300  0.7753
  392SOL    HW2 2076   2.224   2.996   2.838  1.3383  0.7106 -0.8188
  393SOL     OW 2077   2.183   6.285   2.624 -0.0126 -0.5229  0.5608
  393SOL    HW1 2078   2.182   6.194   2.580  2.1150 -1.2478  1.8577
  393SOL    HW2 2079   2.244   6.345   2.573  1.2061 -0.8846  1.5331
  394SOL     OW 2080   4.449   0.398   0.666  0.8610 -0.2815 -0.1987
  394SOL    HW1 2081   4.532   0.451   0.686  0.5382  0.2238 -0.1754
  394SOL    HW2 2082   4.369   0.457   0.674  0.6842  0.0367 -3.0388
  395SOL     OW 2083   6.809   4.254   6.080 -0.3886  0.1874  0.0816
  395SOL    HW1 2084   6.859   4.340   6.092 -1.1760  0.7170 -0.3567
  395SOL    HW2 2085   6.873   4.182   6.052  0.0734  0.9470 -0.8785
  396SOL     OW 2086   6.672   0.972   1.872 -0.1447 -0.1772 -0.1187
  396SOL    HW1 2087   6.728   1.041   1.827  1.1370 -0.6335  0.6937
  396SOL    HW2 2088   6.730   0.919   1.935 -1.1349 -1.7914 -0.5021
  397SOL     OW 2089   5.046   3.352   5.470  0.0645 -0.1765  0.0718
  397SOL    HW1 2090   5.028   3.404   5.554 -1.5349  1.3018 -1.0934
  397SOL    HW2 2091   5.102   3.407   5.408 -0.7091 -0.2763 -0.7406
  398SOL     OW 2092   5.492   2.112   4.466  0.4605 -0.5578 -0.8902
  398SOL    HW1 2093   5.488   2.139   4.370 -1.8078  0.1907 -0.6309
  398SOL    HW2 2094   5.442   2.026   4.479  0.1356 -0.2818 -0.2744
  399SOL     OW 2095   6.233   3.665   2.536  0.3599  0.0974 -0.5997
  399SOL    HW1 2096   6.276   3.710   2.614 -1.4319 -0.2200  0.6425
  399SOL    HW2 2097   6.294   3.669   2.457  1.5385  1.9152  0.3306
  400SOL     OW 2098   0.690   5.692   1.778 -0.3305 -0.2885  0.6987
  400SOL    HW1 2099   0.712   5.611   1.723 -1.5663 -0.4418  0.4105
  400SOL    HW2 2100   0.763   5.708   1.845  0.5531 -0.8714 -0.1024
  401SOL     OW 2101   3.846   5.214   3.566 -0.1564 -0.0978 -0.5108
  401SOL    HW1 2102   3.833   5.244   3.471 -1.8942  1.0814  0.0544
  401SOL    HW2 2103   3.928   5.257   3.603  0.5038 -0.5157 -1.4248
  402SOL     OW 2104   0.664   0.801   4.331 -0.2815 -0.6551 -0.8727
  402SOL    HW1 2105   0.568   0.776   4.321 -0.1786 -1.4958  0.1720
  402SOL    HW2 2106   0.718   0.720   4.350  0.2472  0.1521  1.3283
  403SOL     OW 2107   1.306   2.352   4.345 -0.0813 -0.3994  0.0807
  403SOL    HW1 2108   1.356   2.293   4.281 -0.1256 -0.5058  0.1441
  403SOL    HW2 2109   1.232   2.399   4.297  0.3399  0.0801 -0.1066
  404SOL     OW 2110   3.339   0.586   3.701 -0.1150 -0.1596  0.4202
  404SOL    HW1 2111   3.275   0.579   3.625 -0.1481  0.9140  0.3427
  404SOL    HW2 2112   3.397   0.667   3.690  0.1850 -0.2372  1.3020
  405SOL     OW 2113   1.500   4.335   3.350  0.6909 -0.0226 -0.2027
  405SOL    HW1 2114   1.519   4.356   3.255 -1.1894 -0.3167 -0.6892
  405SOL    HW2 2115   1.463   4.417   3.395 -2.7037 -0.9433 -1.0004
  406SOL     OW 2116   6.972   6.595   6.066 -0.1342 -0.5809 -0.0183
  406SOL    HW1 2117   6.917   6.537   6.127 -1.8107 -2.1266 -2.7733
  406SOL    HW2 2118   6.923   6.680   6.047  0.5866  0.1000  1.0312
  407SOL     OW 2119   1.095   2.601   3.261 -0.1992 -0.1483 -0.1454
  407SOL    HW1 2120   1.118   2.690   3.221  1.2191 -0.2582  0.3853
  407SOL    HW2 2121   1.041   2.615   3.344 -1.3448  0.1445 -0.9102
  408SOL     OW 2122   2.639   1.862   2.952 -0.0979  0.2532 -0.0807
  408SOL    HW1 2123   2.720   1.908   2.916  1.4912 -2.6375 -0.5452
  408SOL    HW2 2124   2.638   1.868   3.052  0.6253  0.4052 -0.0810
  409SOL     OW 2125   1.013   2.621   1.683  0.0341 -0.2254 -0.1632
  409SOL    HW1 2126   0.950   2.608   1.606 -0.6061 -0.6669  0.4193
  409SOL    HW2 2127   0.961   2.647   1.764  0.4492 -1.7064  0.6164
  410SOL     OW 2128   1.917   3.041   1.266  1.1760  0.1237  1.0083
  410SOL    HW1 2129   1.871   2.955   1.291  0.3651  0.2075 -0.1302
  410SOL    HW2 2130   1.960   3.031   1.177  0.2276  1.1923  0.3981
  411SOL     OW 2131   0.339   2.026   1.279  0.0747  0.2038 -0.0484
  411SOL    HW1 2132   0.248   1.987   1.261 -0.2257  0.9951 -0.2888
  411SOL    HW2 2133   0.406   1.953   1.282 -0.4676 -0.3305 -0.5520
  412SOL     OW 2134   2.443   0.672   3.086 -0.1261 -0.0578 -0.0703
  412SOL    HW1 2135   2.423   0.593   3.027 -2.1345 -1.0759  1.8330
  412SOL    HW2 2136   2.541   0.690   3.085  0.2188 -1.7480 -1.5710
  413SOL     OW 2137   0.065   5.632   1.140 -0.3611  0.2567  0.2999
  413SOL    HW1 2138   0.061   5.607   1.237 -0.5643  1.4064  0.5997
  413SOL    HW2 2139   0.126   5.568   1.093  0.1455 -0.0159  1.2793
  414SOL     OW 2140   1.439   6.913   2.860 -0.5151 -0.2874 -0.3373
  414SOL    HW1 2141   1.428   6.988   2.926  0.1192  1.3229 -1.9681
  414SOL    HW2 2142   1.430   6.826   2.907 -0.0763  0.7887  1.8733
  415SOL     OW 2143   6.267   3.110   0.937  0.1632  0.6301  0.7309
  415SOL    HW1 2144   6.302   3.200   0.915 -0.0308  0.7343  0.8484
  415SOL    HW2 2145   6.245   3.105   1.034 -1.2428  0.9464  0.4574
  416SOL     OW 2146   5.777   2.825   0.900 -0.1918 -0.1020 -0.0810
  416SOL    HW1 2147   5.802   2.893   0.831 -1.7927  0.5682 -0.0589
  416SOL    HW2 2148   5.850   2.817   0.968  1.2374 -0.4605 -1.5868
  417SOL     OW 2149   1.414   3.485   6.221 -0.3802 -0.2929  0.0390
  417SOL    HW1 2150   1.421   3.385   6.213  3.2087 -0.0148 -2.4879
  417SOL    HW2 2151   1.502   3.522   6.250 -1.3840  2.2263  0.0526
  418SOL     OW 2152   3.779   5.588   6.370 -0.0797 -0.2835 -0.4224
  418SOL    HW1 2153   3.862   5.600   6.425  0.2236 -0.9942 -0.7197
  418SOL    HW2 2154   3.760   5.674   6.322 -0.6349  0.5144  1.1570
  419SOL     OW 2155   5.038   0.560   2.934  0.0041  0.0143  0.2756
  419SOL    HW1 2156   5.011   0.604   2.849 -1.2980 -0.1160  0.6014
  419SOL    HW2 2157   5.024   0.622   3.011  1.9654  0.4374  0.3462
  420SOL     OW 2158   2.215   4.590   1.063 -0.1425  0.4971  0.4665
  420SOL    HW1 2159   2.306   4.554   1.044 -0.4017 -1.0950  1.9376
  420SOL    HW2 2160   2.154   4.566   0.988  0.4874  0.9712 -0.2110
  421SOL     OW 2161   5.306   5.375   2.769  0.0687 -0.5063  0.3829
  421SOL    HW1 2162   5.273   5.424   2.850  1.7165 -1.8149  1.9516
  421SOL    HW2 2163   5.392   5.328   2.792  1.0720 -0.2085 -2.4111
  422SOL     OW 2164   1.772   1.243   1.176  0.6408  0.2423  0.2060
  422SOL    HW1 2165   1.777   1.195   1.264  2.4674  0.1617  0.0905
  422SOL    HW2 2166   1.681   1.285   1.167  0.4551  0.3967  2.1939
  423SOL     OW 2167   3.716   1.245   2.826 -0.7630 -0.0471  0.1981
  423SOL    HW1 2168   3.762   1.241   2.737 -2.2544  3.7709 -0.9235
  423SOL    HW2 2169   3.670   1.157   2.843  1.5113 -1.7103 -1.6141
  424SOL     OW 2170   6.305   3.487   2.037 -0.5811 -0.4423  0.0115
  424SOL    HW1 2171   6.404   3.472   2.038 -0.4772  0.2188 -0.1305
  424SOL    HW2 2172   6.284   3.567   1.982 -1.3012 -1.2711 -0.9667
  425SOL     OW 2173   4.332   2.271   6.050 -0.3679  0.0755  0.0946
  425SOL    HW1 2174   4.290   2.262   5.959 -2.5092 -0.0037  1.0387
  425SOL    HW2 2175   4.417   2.219   6.052 -1.1664 -1.3827 -1.3390
  426SOL     OW 2176   3.225   2.131   3.602  0.0259 -0.3667 -0.0877
  426SOL    HW1 2177   3.135   2.169   3.583 -0.6868 -1.2973  1.2369
  426SOL    HW2 2178   3.291   2.168   3.537 -1.0832  1.1865 -0.4069
  427SOL     OW 2179   4.591   2.301   3.218 -0.6097 -0.6928  0.1349
  427SOL    HW1 2180   4.577   2.400   3.229 -0.0008 -0.6361  0.4897
  427SOL    HW2 2181   4.510   2.252   3.248 -1.2693 -0.2685 -0.8849
  428SOL     OW 2182   2.682   2.169   5.998 -0.4500  0.2863 -0.5302
  428SOL    HW1 2183   2.725   2.131   5.917 -3.2222 -1.9462 -1.1222
  428SOL    HW2 2184   2.678   2.099   6.070  0.5619  1.7305  1.0185
  429SOL     OW 2185   0.697   6.202   2.629 -0.8274  0.1849 -0.3146
  429SOL    HW1 2186   0.683   6.193   2.530 -0.3312 -0.9808 -0.2945
  429SOL    HW2 2187   0.629   6.148   2.678 -0.1219 -0.5006 -0.0673
  430SOL     OW 2188   3.356   1.302   2.928  0.6418  0.4255  0.2072
  430SOL    HW1 2189   3.327   1.392   2.894  2.7886  0.5369 -1.5590
  430SOL    HW2 2190   3.420   1.314   3.004  2.5455  0.5761 -1.3261
  431SOL     OW 2191   1.173   4.944   1.905 -0.3601 -0.2418  0.6499
  431SOL    HW1 2192   1.264   4.929   1.942  0.7036  1.8447 -0.8745
  431SOL    HW2 2193   1.117   4.994   1.971  0.6114  1.0550  0.5242
  432SOL     OW 2194   6.879   1.359   1.555 -0.2271  0.8661  0.2810
  432SOL    HW1 2195   6.972   1.389   1.533 -1.3746  2.3139 -3.3996
  432SOL    HW2 2196   6.842   1.417   1.627  1.0013  1.7060  0.2687
  433SOL     OW 2197   1.192   4.731   6.617 -0.6752  0.0006 -0.2035
  433SOL    HW1 2198   1.215   4.769   6.707 -0.1811  1.1116 -0.7790
  433SOL    HW2 2199   1.215   4.634   6.616 -0.2497  0.0723  0.7215
  434SOL     OW 2200   3.718   5.997   3.168  0.1929  0.4528  0.4899
  434SOL    HW1 2201   3.763   6.085   3.157  1.3887 -0.0755  0.9641
  434SOL    HW2 2202   3.685   5.966   3.078  0.4751  1.0116  0.1851
  435SOL     OW 2203   2.944   3.546   6.259  0.3994 -0.1006 -0.2150
  435SOL    HW1 2204   3.042   3.563   6.251  0.5933  0.0435  1.9375
  435SOL    HW2 2205   2.919   3.468   6.202  1.5061  0.6401 -1.7661
  436SOL     OW 2206   6.201   4.647   2.367  0.2628 -0.2160 -0.1401
  436SOL    HW1 2207   6.235   4.553   2.376 -1.1826 -0.9352 -1.5348
  436SOL    HW2 2208   6.221   4.698   2.450  1.0965 -1.7530  0.6482
  437SOL     OW 2209   6.921   1.185   0.726  0.5328 -0.5862 -0.7833
  437SOL    HW1 2210   7.013   1.195   0.763  0.1493 -0.0936  0.0556
  437SOL    HW2 2211   6.854   1.218   0.792 -0.1557  0.5624 -2.0102
  438SOL     OW 2212   6.309   2.862   1.252  0.5098  0.2548 -0.3937
  438SOL    HW1 2213   6.254   2.813   1.185  0.9443  1.6325 -1.8130
  438SOL    HW2 2214   6.381   2.802   1.287  0.1432 -0.5488 -0.9905
  439SOL     OW 2215   1.707   0.782   6.305  0.3891  0.4577  0.0779
  439SOL    HW1 2216   1.759   0.865   6.326 -0.8403  2.0572 -2.6834
  439SOL    HW2 2217   1.610   0.804   6.296  0.0126 -1.2998 -0.6214
  440SOL     OW 2218   3.950   0.940   0.730 -0.5625  0.0349 -0.0524
  440SOL    HW1 2219   4.022   0.982   0.675  2.0773 -1.3283  2.1213
  440SOL    HW2 2220   3.896   0.879   0.673  2.1261 -1.4078 -1.2683
  441SOL     OW 2221   0.245   3.838   1.401 -0.0487 -0.0042 -0.8147
  441SOL    HW1 2222   0.200   3.927   1.403 -1.9484 -0.9240  0.0129
  441SOL    HW2 2223   0.243   3.798   1.493  0.5174 -1.0124 -1.2253
  442SOL     OW 2224   4.936   3.147   5.950  0.6620  0.3867  0.6763
  442SOL    HW1 2225   4.857   3.205   5.930  0.2325  0.0591  1.4327
  442SOL    HW2 2226   4.998   3.148   5.871 -0.8123 -0.5733 -0.5273
  443SOL     OW 2227   4.733   2.419   0.389  0.5287  0.4089  0.1550
  443SOL    HW1 2228   4.829   2.411   0.361  0.0723  0.9354 -1.6394
  443SOL    HW2 2229   4.713   2.348   0.457  1.6506 -1.0697 -0.9871
  444SOL     OW 2230   4.329   3.983   0.988  0.0522 -0.2536 -0.7805
  444SOL    HW1 2231   4.359   3.907   0.930  0.2520 -0.4041 -0.4854
  444SOL    HW2 2232   4.250   4.027   0.947 -0.8295 -1.3865 -0.3584
  445SOL     OW 2233   2.676   5.185   2.477 -0.1665 -0.2272 -0.2911
  445SOL    HW1 2234   2.594   5.197   2.532  0.0436  0.6177 -0.1341
  445SOL    HW2 2235   2.731   5.269   2.481  0.0979 -0.3324 -1.3801
  446SOL     OW 2236   0.661   6.764   1.018 -0.1117 -0.2164  0.3937
  446SOL    HW1 2237   0.711   6.678   1.018  0.4080  0.0635 -0.9909
  446SOL    HW2 2238   0.608   6.772   0.934 -0.0200  0.8805  0.4219
  447SOL     OW 2239   0.044   4.608   5.519 -0.2571  0.0465 -0.5007
  447SOL    HW1 2240  -0.037   4.601   5.461  1.1762 -1.7640 -2.3883
  447SOL    HW2 2241   0.121   4.564   5.475  1.5420  0.7688  1.7326
  448SOL     OW 2242   3.366   1.789   4.660 -0.9148 -0.0083 -0.1759
  448SOL    HW1 2243   3.358   1.690   4.659  1.2376 -0.3214  2.4402
  448SOL    HW2 2244   3.276   1.830   4.679 -1.3870 -1.5980  1.2125
  449SOL     OW 2245   6.744   3.893   2.612  0.1686 -0.2455  0.0575
  449SOL    HW1 2246   6.704   3.936   2.693 -0.0227 -2.0500  0.9836
  449SOL    HW2 2247   6.671   3.868   2.548  0.3038  1.0119 -0.6136
  450SOL     OW 2248   6.423   3.885   4.605 -0.3981 -0.5071  0.0677
  450SOL    HW1 2249   6.419   3.941   4.522  1.0056  0.7134  0.7755
  450SOL    HW2 2250   6.509   3.835   4.607  0.0272  0.2307  1.2290
  451SOL     OW 2251   1.477   1.992   0.762 -0.0197 -0.0143  0.0523
  451SOL    HW1 2252   1.502   1.950   0.849 -1.4227 -1.6324 -0.2640
  451SOL    HW2 2253   1.404   2.059   0.777 -0.0396 -0.0631  0.1726
  452SOL     OW 2254   5.260   6.507   1.105 -0.5958 -0.1602 -0.2134
  452SOL    HW1 2255   5.271   6.420   1.155 -1.7048 -1.8221 -2.6421
  452SOL    HW2 2256   5.163   6.525   1.092 -0.3777  1.6056  0.4265
  453SOL     OW 2257   4.264   2.579   1.329  0.1940  0.7616 -0.2074
  453SOL    HW1 2258   4.342   2.632   1.363  0.0227  0.4105  0.7664
  453SOL    HW2 2259   4.277   2.558   1.232  0.8157  1.5824 -0.3131
  454SOL     OW 2260   6.994   2.559   2.929 -0.1217  0.4866  0.3987
  454SOL    HW1 2261   7.071   2.601   2.976  0.2162 -0.3531  0.6095
  454SOL    HW2 2262   6.932   2.630   2.896 -1.2057  1.1086  3.4902
  455SOL     OW 2263   6.439   3.883   6.556  1.0334  0.3327 -0.4857
  455SOL    HW1 2264   6.351   3.918   6.524  0.6666 -1.6646 -1.8020
  455SOL    HW2 2265   6.510   3.905   6.489  1.1544  0.1822 -0.4081
  456SOL     OW 2266   2.153   0.190   4.408 -0.1380  0.1796  0.0743
  456SOL    HW1 2267   2.095   0.154   4.481  1.3807 -0.4960  0.9760
  456SOL    HW2 2268   2.132   0.142   4.323 -2.7896  1.8073 -0.3135
  457SOL     OW 2269   2.472   5.439   1.004 -0.0486  0.0297 -0.1862
  457SOL    HW1 2270   2.394   5.474   1.055  1.2092  1.2058  1.0146
  457SOL    HW2 2271   2.549   5.503   1.012  0.0849  0.6192 -4.0767
  458SOL     OW 2272   3.585   1.700   2.890  0.6391 -0.3773 -0.3107
  458SOL    HW1 2273   3.587   1.695   2.989  2.0893  0.9773 -0.2291
  458SOL    HW2 2274   3.658   1.643   2.852  0.5145 -0.3679 -0.5667
  459SOL     OW 2275   4.582   1.647   3.221 -0.5838 -0.4097 -0.8763
  459SOL    HW1 2276   4.550   1.720   3.160  0.5478 -1.4801 -2.8537
  459SOL    HW2 2277   4.558   1.558   3.182  1.7813 -1.1665 -0.7610
  460SOL     OW 2278   6.650   2.950   0.369  0.0914 -0.2497 -0.7846
  460SOL    HW1 2279   6.729   2.946   0.308  1.0295 -0.6699  0.4113
  460SOL    HW2 2280   6.597   3.033   0.350 -0.6205 -1.1924 -3.2739
  461SOL     OW 2281   1.510   0.562   2.988  0.3681  0.2827 -0.1350
  461SOL    HW1 2282   1.505   0.593   2.893  3.4028  0.4535 -0.3260
  461SOL    HW2 2283   1.507   0.462   2.990  1.5071  0.2208 -0.5737
  462SOL     OW 2284   4.980   4.112   5.687  0.6053 -0.0561  0.4334
  462SOL    HW1 2285   5.014   4.022   5.661  1.3442  0.2329  0.3838
  462SOL    HW2 2286   4.900   4.134   5.631  2.1770  0.5633 -1.6977
  463SOL     OW 2287   5.856   6.440   4.265  0.1519 -0.4304  0.2539
  463SOL    HW1 2288   5.951   6.438   4.298  0.2633 -1.9326 -0.1282
  463SOL    HW2 2289   5.833   6.353   4.223 -1.8934 -0.6587  1.7107
  464SOL     OW 2290   3.625   4.917   5.247 -0.8459 -0.0456  0.2350
  464SOL    HW1 2291   3.658   5.007   5.275  0.2900 -0.6955  1.0464
  464SOL    HW2 2292   3.585   4.870   5.326  0.1135 -0.9094  0.2287
  465SOL     OW 2293   6.292   5.433   0.606  0.5950 -0.2139  0.6377
  465SOL    HW1 2294   6.223   5.406   0.538  0.2376  0.8306  0.5665
  465SOL    HW2 2295   6.246   5.466   0.688  1.0230 -1.8035  1.5669
  466SOL     OW 2296   5.117   6.672   3.576 -0.2825 -0.6472 -0.5204
  466SOL    HW1 2297   5.070   6.755   3.608 -0.7217 -0.5826 -1.3099
  466SOL    HW2 2298   5.151   6.621   3.655  2.6629  1.7577 -0.0601
  467SOL     OW 2299   5.603   5.608   1.716 -0.4109  0.4310 -0.4114
  467SOL    HW1 2300   5.659   5.652   1.646  0.2758 -0.7871 -0.6612
  467SOL    HW2 2301   5.536   5.548   1.672 -1.0709  0.8954 -0.0641
  468SOL     OW 2302   1.584   5.029   5.152 -0.1789  0.1337 -0.6411
  468SOL    HW1 2303   1.657   5.088   5.117  0.8261 -1.8034 -1.9670
  468SOL    HW2 2304   1.583   5.034   5.252  2.4482 -0.5127 -0.5047
  469SOL     OW 2305   4.337   5.351   4.386  0.2905 -0.0632  0.1834
  469SOL    HW1 2306   4.351   5.254   4.364  0.9563 -0.1796  1.0700
  469SOL    HW2 2307   4.320   5.361   4.484  3.2007  0.9596  0.6768
  470SOL     OW 2308   3.088   5.578   3.118 -0.4418  0.2567 -0.6533
  470SOL    HW1 2309   3.020   5.572   3.045  1.4425 -1.3790 -2.4372
  470SOL    HW2 2310   3.061   5.519   3.194 -1.1907 -0.0891 -1.1741
  471SOL     OW 2311   3.492   1.440   5.330 -0.5896 -0.5874 -0.0406
  471SOL    HW1 2312   3.582   1.397   5.339 -0.7055 -1.0240 -0.8808
  471SOL    HW2 2313   3.490   1.524   5.385  1.1049  0.6358 -1.6975
  472SOL     OW 2314   4.650   4.546   6.189  0.4182 -0.1534 -0.2563
  472SOL    HW1 2315   4.572   4.513   6.242 -0.0138  1.4237  0.1436
  472SOL    HW2 2316   4.720   4.581   6.251  1.1719 -0.9680 -0.6395
  473SOL     OW 2317   6.922   3.949   0.345 -0.0393 -0.4105  0.0247
  473SOL    HW1 2318   6.863   4.008   0.290 -0.3389 -0.5080  0.2348
  473SOL    HW2 2319   6.876   3.862   0.362 -1.1536  0.5550  2.6428
  474SOL     OW 2320   5.487   4.601   4.029  0.2611  0.8469  0.5445
  474SOL    HW1 2321   5.431   4.680   4.007 -0.8135 -0.5855 -2.4745
  474SOL    HW2 2322   5.428   4.524   4.053  0.9716 -0.1811 -0.8514
  475SOL     OW 2323   4.913   2.692   0.155 -0.5492  0.2450 -0.3918
  475SOL    HW1 2324   4.875   2.707   0.246  0.2385  0.1991 -0.0533
  475SOL    HW2 2325   4.844   2.647   0.098 -0.9988  0.1455  0.2160
  476SOL     OW 2326   1.084   1.704   0.833 -0.4896 -0.1066  0.0921
  476SOL    HW1 2327   1.179   1.680   0.853 -0.4775  1.3472  2.0736
  476SOL    HW2 2328   1.063   1.681   0.738  1.8893 -0.3019 -0.4507
  477SOL     OW 2329   4.882   6.711   3.908  0.2567 -0.1552 -0.2622
  477SOL    HW1 2330   4.921   6.773   3.840  2.0220 -1.8141 -0.8296
  477SOL    HW2 2331   4.782   6.708   3.896  0.4767 -0.1266 -2.5780
  478SOL     OW 2332   6.605   6.282   1.222 -0.2041  0.2687 -0.3544
  478SOL    HW1 2333   6.663   6.297   1.142  0.1239  0.3088 -0.1112
  478SOL    HW2 2334   6.584   6.185   1.230  0.8138  0.0775  0.2247
  479SOL     OW 2335   3.685   3.906   4.071  0.1942  0.3150 -0.1417
  479SOL    HW1 2336   3.637   3.896   3.984  0.1908 -4.9810  0.1785
  479SOL    HW2 2337   3.782   3.888   4.058  0.6498  1.9422  0.6825
  480SOL     OW 2338   0.827   5.495   2.150 -0.2040  0.1982  0.5083
  480SOL    HW1 2339   0.790   5.469   2.061  0.8008  0.2925  0.0491
  480SOL    HW2 2340   0.776   5.572   2.186  0.0324  0.8307 -0.4765
  481SOL     OW 2341   5.508   6.457   6.656  0.2881  0.6014 -0.3431
  481SOL    HW1 2342   5.445   6.406   6.715 -1.0447  3.5917  1.0630
  481SOL    HW2 2343   5.463   6.479   6.570  0.4806  0.3038 -0.5214
  482SOL     OW 2344   4.756   4.519   4.108  0.7520  0.1225  0.4575
  482SOL    HW1 2345   4.753   4.558   4.016  0.1297  1.5114  1.0389
  482SOL    HW2 2346   4.664   4.523   4.149  0.9715 -0.6799  1.0647
  483SOL     OW 2347   5.225   2.730   5.509 -0.6131  0.0841 -0.1765
  483SOL    HW1 2348   5.258   2.776   5.592 -0.9368  0.9478 -0.5103
  483SOL    HW2 2349   5.203   2.799   5.440 -2.0557 -0.5181 -0.3554
  484SOL     OW 2350   2.218   6.549   3.537 -0.1518 -0.1098 -0.7208
  484SOL    HW1 2351   2.128   6.507   3.539 -1.1568  1.8480  2.2659
  484SOL    HW2 2352   2.218   6.625   3.473 -0.2553 -0.8028 -1.5516
  485SOL     OW 2353   6.033   2.263   6.812 -0.8425  0.0212 -0.4633
  485SOL    HW1 2354   6.040   2.356   6.775 -0.6740  0.1985  0.0077
  485SOL    HW2 2355   5.957   2.259   6.877 -1.2899 -0.3519 -1.0003
  486SOL     OW 2356   0.036   5.219   5.864  0.4155 -0.2217  0.0828
  486SOL    HW1 2357   0.099   5.235   5.940  1.0425  1.1794 -0.6942
  486SOL    HW2 2358   0.085   5.179   5.788  0.7883  2.2410 -1.0732
  487SOL     OW 2359   5.685   1.682   0.469  0.0378 -0.0124 -0.1726
  487SOL    HW1 2360   5.729   1.744   0.535  2.7540 -1.1238 -0.8088
  487SOL    HW2 2361   5.745   1.668   0.391 -2.5193  0.1677 -2.3213
  488SOL     OW 2362   1.150   5.029   1.239 -0.0324  0.3784  0.7926
  488SOL    HW1 2363   1.233   4.986   1.276  0.2988  0.9444  0.7154
  488SOL    HW2 2364   1.158   5.128   1.246 -0.9435  0.4247  1.2876
  489SOL     OW 2365   2.934   3.586   4.687  0.1505  0.4234 -0.3006
  489SOL    HW1 2366   3.012   3.578   4.749 -0.6044  0.5080  0.6785
  489SOL    HW2 2367   2.879   3.666   4.713 -1.6917 -1.0884  0.6844
  490SOL     OW 2368   6.686   6.306   5.960  0.2131 -0.3917 -0.0295
  490SOL    HW1 2369   6.594   6.271   5.941  0.4916  0.6642 -4.1424
  490SOL    HW2 2370   6.679   6.401   5.991 -0.0856 -0.2469 -0.5327
  491SOL     OW 2371   5.549   4.259   0.595 -0.8185  0.8704  0.3477
  491SOL    HW1 2372   5.548   4.189   0.666 -0.4755 -0.0977 -0.5920
  491SOL    HW2 2373   5.591   4.343   0.632  0.3640  0.0329  0.9723
  492SOL     OW 2374   2.517   3.550   5.622  0.3831  0.6176  0.3598
  492SOL    HW1 2375   2.440   3.590   5.672 -1.7320 -1.6133 -0.8467
  492SOL    HW2 2376   2.505   3.567   5.524  0.1339 -1.6310 -0.0512
  493SOL     OW 2377   3.706   4.954   2.580 -0.5346 -0.3484  0.4245
  493SOL    HW1 2378   3.724   5.030   2.643  0.5660  0.2133 -0.5113
  493SOL    HW2 2379   3.787   4.895   2.576 -0.7701 -0.6376 -0.0930
  494SOL     OW 2380   1.277   0.461   2.652 -0.0098 -0.9289 -0.2132
  494SOL    HW1 2381   1.223   0.464   2.568 -0.2113 -0.5931 -0.0738
  494SOL    HW2 2382   1.297   0.366   2.675 -1.9325 -1.1753  0.6126
  495SOL     OW 2383   5.178   2.333   1.089 -0.2114 -0.8961  0.6485
  495SOL    HW1 2384   5.141   2.413   1.137 -1.1861  0.4437 -2.0807
  495SOL    HW2 2385   5.277   2.342   1.079 -0.5362  1.3744 -1.7228
  496SOL     OW 2386   5.050   6.484   2.524  0.3611  0.1260  0.0939
  496SOL    HW1 2387   5.115   6.534   2.582 -0.4809  0.0491  1.1382
  496SOL    HW2 2388   5.093   6.463   2.436  1.0429  1.9137 -0.0455
  497SOL     OW 2389   6.796   4.212   0.976 -0.1419 -0.5453  0.2650
  497SOL    HW1 2390   6.840   4.296   1.007 -1.2482 -0.3533  1.4019
  497SOL    HW2 2391   6.701   4.231   0.952 -0.2141 -1.3470 -0.1194
  498SOL     OW 2392   0.312   0.233   6.539  0.9393  0.0131 -0.8651
  498SOL    HW1 2393   0.399   0.210   6.583  1.2169  1.6684 -0.4549
  498SOL    HW2 2394   0.277   0.317   6.580 -1.5896 -1.3561 -0.0380
  499SOL     OW 2395   1.117   5.319   6.201 -0.3677 -0.2453 -0.4144
  499SOL    HW1 2396   1.163   5.407   6.214  0.8029 -0.9729  0.4483
  499SOL    HW2 2397   1.135   5.286   6.108 -0.0421 -0.0248 -0.4329
  500SOL     OW 2398   4.755   2.002   0.035 -0.2944  0.1620 -0.5854
  500SOL    HW1 2399   4.716   2.089   0.066 -1.4365  0.6701 -3.1823
  500SOL    HW2 2400   4.814   1.965   0.106 -1.5559  1.9153  1.5109
  501SOL     OW 2401   1.665   2.710   4.478 -1.0923 -0.0352  0.1966
  501SOL    HW1 2402   1.715   2.648   4.417 -2.6116 -1.2099  0.0911
  501SOL    HW2 2403   1.699   2.803   4.466 -0.8706 -0.3530 -1.9334
  502SOL     OW 2404   2.112   1.486   0.010  0.1226 -0.5059 -0.4625
  502SOL    HW1 2405   2.150   1.473   0.102  1.0099 -0.2944 -0.7851
  502SOL    HW2 2406   2.130   1.404  -0.045 -0.2823 -0.5762 -0.4929
  503SOL     OW 2407   4.314   3.869   0.344 -0.1032 -0.1607 -0.7214
  503SOL    HW1 2408   4.379   3.798   0.317  0.2565  0.6774 -2.1527
  503SOL    HW2 2409   4.251   3.887   0.268  0.1963  1.4573 -0.6195
  504SOL     OW 2410   6.131   1.166   0.766  0.3665 -0.5373 -0.2547
  504SOL    HW1 2411   6.159   1.143   0.859  1.1078 -1.6892 -0.7344
  504SOL    HW2 2412   6.135   1.265   0.753  0.6624 -0.3982  0.8071
  505SOL     OW 2413   6.951   4.459   0.098  0.1946  0.2353 -0.3748
  505SOL    HW1 2414   7.032   4.435   0.152 -0.4734 -1.3759 -0.0090
  505SOL    HW2 2415   6.977   4.515   0.020  2.4334 -3.7951 -2.8655
  506SOL     OW 2416   3.418   5.169   1.965 -0.1842 -0.0706  0.1984
  506SOL    HW1 2417   3.420   5.109   2.046  2.6821  2.9302  2.6441
  506SOL    HW2 2418   3.468   5.126   1.890 -2.0619 -2.5156  0.2310
  507SOL     OW 2419   3.732   0.043   1.331 -0.3901  0.2887 -0.2097
  507SOL    HW1 2420   3.711   0.137   1.304 -1.4426 -0.4593 -2.2034
  507SOL    HW2 2421   3.647  -0.010   1.336  0.3218 -0.9696 -0.8524
  508SOL     OW 2422   1.673   5.969   4.230 -0.1332 -0.7815 -0.5424
  508SOL    HW1 2423   1.719   6.031   4.167 -1.8773  1.2587  0.0762
  508SOL    HW2 2424   1.627   5.897   4.178 -0.1599 -0.1036 -1.4759
  509SOL     OW 2425   3.909   0.346   6.798  0.5579 -0.3279 -0.6724
  509SOL    HW1 2426   3.838   0.408   6.766  1.2287 -1.2430 -4.3780
  509SOL    HW2 2427   3.999   0.389   6.787  0.9938 -1.6551 -2.8424
  510SOL     OW 2428   6.569   4.942   0.618 -0.1346  0.0730  0.2516
  510SOL    HW1 2429   6.607   5.034   0.629 -0.0197  0.0748 -0.1523
  510SOL    HW2 2430   6.522   4.936   0.530 -0.8354 -0.0118  0.6190
  511SOL     OW 2431   6.720   1.125   1.069  0.2630 -0.3961 -0.4123
  511SOL    HW1 2432   6.743   1.191   0.998 -1.0197  0.8467  0.2560
  511SOL    HW2 2433   6.750   1.160   1.158 -1.1157 -0.2847  0.0480
  512SOL     OW 2434   2.207   1.416   4.547  0.3478  0.2203  0.1334
  512SOL    HW1 2435   2.200   1.342   4.480  0.6089  0.1443  0.1879
  512SOL    HW2 2436   2.257   1.384   4.627  1.2470  0.7106 -0.2164
  513SOL     OW 2437   5.413   6.030   3.455 -0.0251  0.0618  0.0111
  513SOL    HW1 2438   5.341   5.964   3.435 -0.4574  0.3099  0.6950
  513SOL    HW2 2439   5.372   6.119   3.478  0.5713  0.8378 -1.7517
  514SOL     OW 2440   5.561   0.814   3.992  0.4746  0.7118 -0.7572
  514SOL    HW1 2441   5.579   0.765   3.907 -0.1210 -0.8073 -0.0394
  514SOL    HW2 2442   5.648   0.833   4.038  0.6885 -0.2732 -0.7325
  515SOL     OW 2443   2.549   6.945   6.274  0.3118  0.3115 -0.3738
  515SOL    HW1 2444   2.489   6.948   6.354  0.4472 -2.0908 -0.1325
  515SOL    HW2 2445   2.493   6.950   6.191  0.1078  1.9074 -0.1713
  516SOL     OW 2446   0.338   6.084   4.091  0.0468  0.0648  0.1599
  516SOL    HW1 2447   0.273   6.160   4.104  0.4074  0.4342 -0.1641
  516SOL    HW2 2448   0.296   5.999   4.121  0.1047  0.5782  1.7527
  517SOL     OW 2449   2.508   4.932   0.690  0.3419 -0.3957  0.1585
  517SOL    HW1 2450   2.499   4.884   0.603  0.1740  1.1769 -0.7303
  517SOL    HW2 2451   2.422   4.977   0.712  1.1614  1.4753 -0.2688
  518SOL     OW 2452   2.908   0.502   3.726  0.2204  0.0581 -0.0780
  518SOL    HW1 2453   2.972   0.518   3.650 -1.5182 -0.2664 -1.6844
  518SOL    HW2 2454   2.827   0.558   3.713 -0.3089 -0.3503  1.3370
  519SOL     OW 2455   7.004   4.913   3.155  0.6743  0.3491 -0.5431
  519SOL    HW1 2456   6.926   4.875   3.105  1.0362 -0.4569 -0.5108
  519SOL    HW2 2457   7.061   4.966   3.092  0.0518  1.0375 -0.5436
  520SOL     OW 2458   4.498   5.497   1.529 -0.2757 -0.4188 -0.7651
  520SOL    HW1 2459   4.473   5.420   1.470  0.8284 -1.1645 -0.3015
  520SOL    HW2 2460   4.486   5.583   1.480 -0.0414 -0.9836 -1.8257
  521SOL     OW 2461   5.834   6.107   5.263  0.1607  0.5045 -0.0556
  521SOL    HW1 2462   5.886   6.033   5.220 -1.4961 -1.6201  1.4397
  521SOL    HW2 2463   5.766   6.141   5.198 -3.9115 -4.2394  1.1521
  522SOL     OW 2464   2.331   4.709   6.960  0.0136 -0.1218  0.1898
  522SOL    HW1 2465   2.304   4.614   6.944  1.6749 -0.1921 -2.9583
  522SOL    HW2 2466   2.408   4.711   7.024  0.2585 -0.9478 -0.0619
  523SOL     OW 2467   3.055   1.265   6.365 -0.0979 -0.3423 -0.3475
  523SOL    HW1 2468   2.971   1.211   6.365 -0.1391 -0.2802  0.0002
  523SOL    HW2 2469   3.117   1.230   6.294 -1.0963  0.6955 -1.7753
  524SOL     OW 2470   5.379   1.471   0.599  0.7368  0.7774  0.1270
  524SOL    HW1 2471   5.358   1.514   0.687  0.5536  1.5509 -0.2784
  524SOL    HW2 2472   5.333   1.383   0.593  0.4897  0.8622  0.6797
  525SOL     OW 2473   0.189   2.552   3.296  0.2492  0.0435  0.4609
  525SOL    HW1 2474   0.104   2.604   3.294  0.0789 -0.2511  0.0369
  525SOL    HW2 2475   0.169   2.454   3.295  0.6083 -0.1186 -3.0401
  526SOL     OW 2476   4.337   6.870   3.892  0.8390  0.1213  0.7405
  526SOL    HW1 2477   4.326   6.864   3.793  2.1165  1.9969  0.4225
  526SOL    HW2 2478   4.251   6.847   3.937  0.1363 -0.4198 -0.8119
  527SOL     OW 2479   3.730   1.162   1.955  0.3942 -0.1423  0.1706
  527SOL    HW1 2480   3.768   1.224   1.887 -0.6148 -0.2318 -0.4795
  527SOL    HW2 2481   3.717   1.072   1.914 -2.3301  0.3636 -0.2182
  528SOL     OW 2482   0.857   0.901   5.055 -1.1705 -0.1075 -0.1691
  528SOL    HW1 2483   0.901   0.969   4.996  0.3769 -2.1329 -1.5125
  528SOL    HW2 2484   0.918   0.876   5.129 -1.2593 -0.8028 -0.3205
  529SOL     OW 2485   0.878   0.918   5.425  0.3438  0.2904 -0.0986
  529SOL    HW1 2486   0.907   0.827   5.453  0.1470  0.1425 -0.3679
  529SOL    HW2 2487   0.900   0.984   5.497  1.9092  0.2923 -0.5368
  530SOL     OW 2488   3.235   3.547   1.516  0.1818  0.0448 -0.3782
  530SOL    HW1 2489   3.185   3.466   1.548  0.5825  0.2299  0.7634
  530SOL    HW2 2490   3.333   3.529   1.521  0.2660  0.4807 -0.4685
  531SOL     OW 2491   5.643   0.520   5.654  0.2990  0.5544 -0.1294
  531SOL    HW1 2492   5.688   0.448   5.706 -0.2243  0.1837 -0.1849
  531SOL    HW2 2493   5.580   0.479   5.588 -1.0248  1.0970  0.7624
  532SOL     OW 2494   3.932   6.508   5.987 -0.1942  0.1518 -0.0798
  532SOL    HW1 2495   3.969   6.432   5.934 -1.2164 -0.0742 -0.4975
  532SOL    HW2 2496   3.917   6.587   5.928  0.9118  0.7116  0.3637
  533SOL     OW 2497   4.178   6.557   4.804  0.1894 -0.4166 -0.0932
  533SOL    HW1 2498   4.176   6.460   4.831 -2.5242 -0.6790 -0.9400
  533SOL    HW2 2499   4.124   6.569   4.721  1.2272  1.7232 -0.5154
  534SOL     OW 2500   3.354   4.326   1.565 -0.3454 -0.1164 -0.2031
  534SOL    HW1 2501   3.422   4.383   1.610  1.3586 -0.7758 -1.8153
  534SOL    HW2 2502   3.359   4.233   1.601 -1.2179  0.0782  0.4677
  535SOL     OW 2503   4.332   5.446   3.000  0.2004 -0.3448 -0.2199
  535SOL    HW1 2504   4.324   5.426   2.903  1.5751 -0.3322 -0.3506
  535SOL    HW2 2505   4.420   5.414   3.034  0.0562  0.3424  0.8534
  536SOL     OW 2506   6.841   5.712   0.995 -0.4631  0.2263  0.1039
  536SOL    HW1 2507   6.923   5.680   1.042 -0.2649  0.9263  0.2480
  536SOL    HW2 2508   6.837   5.671   0.904  0.4421  0.7388 -0.1868
  537SOL     OW 2509   1.857   0.861   1.808 -0.0679  0.1112  0.4628
  537SOL    HW1 2510   1.887   0.768   1.831  0.1865 -0.2350 -1.1398
  537SOL    HW2 2511   1.847   0.869   1.709 -2.6246  1.0302  0.7103
  538SOL     OW 2512   3.940   6.051   5.670  0.0092  0.2254  0.1788
  538SOL    HW1 2513   4.039   6.048   5.657  0.0637  1.2706  0.2209
  538SOL    HW2 2514   3.897   5.979   5.616  0.6660  0.8889 -1.2932
  539SOL     OW 2515   0.902   5.248   1.823 -0.0266 -0.0892 -0.0398
  539SOL    HW1 2516   0.907   5.204   1.733  0.5977 -1.3292  0.5686
  539SOL    HW2 2517   0.986   5.299   1.840 -1.5825  3.3749 -1.6608
  540SOL     OW 2518   3.186   0.724   5.935 -0.9640 -0.1320  0.1772
  540SOL    HW1 2519   3.208   0.712   6.032 -1.6307 -0.2060  0.3190
  540SOL    HW2 2520   3.214   0.815   5.906  0.7679 -0.6720  0.0088
  541SOL     OW 2521   4.534   5.876   2.067 -0.1434  0.2795 -0.4512
  541SOL    HW1 2522   4.582   5.794   2.036 -1.5064 -1.2608  1.3069
  541SOL    HW2 2523   4.436   5.864   2.057 -0.3773  1.7020 -0.1298
  542SOL     OW 2524   4.330   5.012   5.464 -0.0290  0.4316 -0.4179
  542SOL    HW1 2525   4.419   4.973   5.488 -0.8391 -0.6858  0.9336
  542SOL    HW2 2526   4.258   4.964   5.514 -1.4813  0.7759 -2.0756
  543SOL     OW 2527   6.328   2.769   5.151  0.5189  0.4674 -0.0782
  543SOL    HW1 2528   6.423   2.739   5.164 -0.2555 -1.2922  2.0701
  543SOL    HW2 2529   6.288   2.721   5.073  1.0663  0.4359 -0.3429
  544SOL     OW 2530   1.312   1.210   0.720  0.4921 -0.2140 -0.3498
  544SOL    HW1 2531   1.382   1.250   0.778  1.4524 -1.3689 -0.6775
  544SOL    HW2 2532   1.251   1.282   0.686  0.6258  0.6274  1.1038
  545SOL     OW 2533   5.762   4.714   2.471 -0.5966  1.1437  0.7038
  545SOL    HW1 2534   5.680   4.760   2.439 -0.9039 -0.9626 -1.9582
  545SOL    HW2 2535   5.744   4.616   2.480  1.9010  0.3531 -1.4720
  546SOL     OW 2536   0.506   5.434   2.792 -0.5471 -0.4166 -0.1037
  546SOL    HW1 2537   0.500   5.347   2.841 -0.6598 -0.4955 -0.2600
  546SOL    HW2 2538   0.589   5.436   2.737 -0.4513 -0.3523  0.0422
  547SOL     OW 2539   3.783   6.517   6.909 -0.3956 -0.0907  0.4443
  547SOL    HW1 2540   3.850   6.451   6.877  0.4735  0.2203  1.5679
  547SOL    HW2 2541   3.718   6.537   6.835  0.1462 -1.1371 -0.3409
  548SOL     OW 2542   4.413   1.538   0.047 -0.0550  0.4117  0.4375
  548SOL    HW1 2543   4.492   1.600   0.045 -0.9219  1.6288  1.6293
  548SOL    HW2 2544   4.339   1.578  -0.007  0.1168 -0.7060 -0.6457
  549SOL     OW 2545   5.009   2.017   3.621  0.2493  0.1012 -0.0593
  549SOL    HW1 2546   5.002   2.076   3.701  1.4927  2.3316 -1.4980
  549SOL    HW2 2547   5.100   1.977   3.617 -0.3094 -1.2679  0.4368
  550SOL     OW 2548   0.552   5.458   4.834  0.5157  0.3828 -0.0559
  550SOL    HW1 2549   0.485   5.456   4.760  1.0168 -0.1418 -0.5123
  550SOL    HW2 2550   0.565   5.552   4.865 -1.2039  0.3827  0.7850
  551SOL     OW 2551   5.282   1.026   0.268 -0.0987 -0.0747 -0.4898
  551SOL    HW1 2552   5.329   0.975   0.341  0.0049 -0.6030 -0.9165
  551SOL    HW2 2553   5.340   1.101   0.237  0.3320 -0.5306 -0.7946
  552SOL     OW 2554   0.198   6.815   3.659 -0.1092 -0.2662  0.5765
  552SOL    HW1 2555   0.198   6.729   3.709  0.1594 -2.1951 -2.4527
  552SOL    HW2 2556   0.106   6.853   3.657 -0.5684 -1.3470  0.6510
  553SOL     OW 2557   4.653   2.882   5.869  0.2327 -0.7034  0.2035
  553SOL    HW1 2558   4.725   2.857   5.805  0.7080 -0.6798  0.7168
  553SOL    HW2 2559   4.573   2.915   5.819  1.7300  2.4457 -0.3418
  554SOL     OW 2560   6.314   6.458   0.203 -0.3481  0.4334  0.3442
  554SOL    HW1 2561   6.412   6.459   0.188 -0.0678 -0.4086  1.8447
  554SOL    HW2 2562   6.296   6.447   0.301 -1.9378  0.4828  0.0855
  555SOL     OW 2563   1.884   4.667   5.913 -0.6206 -0.5214 -0.4918
  555SOL    HW1 2564   1.847   4.582   5.950  0.0709 -0.2218  0.9674
  555SOL    HW2 2565   1.844   4.745   5.963  1.3651 -0.1597  0.6303
  556SOL     OW 2566   6.685   6.322   3.894  0.4055  0.4633 -0.7185
  556SOL    HW1 2567   6.700   6.325   3.795 -2.9938 -2.4513 -1.5332
  556SOL    HW2 2568   6.725   6.239   3.931  3.0515  2.2927  0.7988
  557SOL     OW 2569   0.155   4.644   6.661  0.0229 -0.1254 -0.1713
  557SOL    HW1 2570   0.184   4.620   6.754 -1.4771  0.9250  0.6214
  557SOL    HW2 2571   0.056   4.657   6.660  0.2713  2.3093 -1.3325
  558SOL     OW 2572   3.935   3.000   2.705 -0.4722 -0.8655 -0.2964
  558SOL    HW1 2573   3.837   2.983   2.699 -0.8138  0.8367  0.0257
  558SOL    HW2 2574   3.968   3.035   2.617 -0.3733 -0.4094 -0.0796
  559SOL     OW 2575   5.410   1.987   0.784  0.0286  0.2177  0.3055
  559SOL    HW1 2576   5.455   1.898   0.776 -0.4578 -0.0965  0.9547
  559SOL    HW2 2577   5.390   2.005   0.881 -0.2564  0.8415  0.1336
  560SOL     OW 2578   1.402   0.912   3.636 -0.2985  0.5106  0.3026
  560SOL    HW1 2579   1.397   0.999   3.686  1.2140  1.5177 -1.1860
  560SOL    HW2 2580   1.497   0.886   3.624 -0.6338  0.0065 -1.5406
  561SOL     OW 2581   6.439   3.923   6.826 -0.2269 -0.2999  0.1378
  561SOL    HW1 2582   6.349   3.964   6.840 -1.2081 -2.7602  1.8863
  561SOL    HW2 2583   6.452   3.904   6.729 -0.9662  1.3431 -0.3169
  562SOL     OW 2584   4.700   5.399   3.423  0.6763 -0.2714 -0.4106
  562SOL    HW1 2585   4.614   5.363   3.388  0.4280  0.5943 -0.7162
  562SOL    HW2 2586   4.764   5.324   3.439  0.2929 -0.8104 -1.3531
  563SOL     OW 2587   5.730   2.702   4.954 -0.4064 -0.1250 -0.5847
  563SOL    HW1 2588   5.719   2.621   5.012  0.7770 -0.3612 -0.6546
  563SOL    HW2 2589   5.735   2.674   4.859 -0.2240  0.0463 -0.6264
  564SOL     OW 2590   6.348   1.013   6.538  0.5885  0.2938 -0.3852
  564SOL    HW1 2591   6.372   1.065   6.456 -0.2661  0.5193 -0.4974
  564SOL    HW2 2592   6.271   0.952   6.518  0.3020  0.4323  0.2787
  565SOL     OW 2593   2.983   3.295   2.956  0.1397  0.8443 -0.2079
  565SOL    HW1 2594   3.082   3.283   2.955  0.0324 -0.2195  0.0917
  565SOL    HW2 2595   2.942   3.225   3.015 -0.7816  1.3521 -0.2253
  566SOL     OW 2596   1.414   1.669   3.954 -0.1076  0.2816 -0.1119
  566SOL    HW1 2597   1.321   1.650   3.923 -1.1476  1.4361  2.0705
  566SOL    HW2 2598   1.456   1.738   3.893 -0.9293  0.2839 -0.6875
  567SOL     OW 2599   6.872   3.455   5.130  0.0304 -0.6259 -0.1160
  567SOL    HW1 2600   6.915   3.369   5.159  0.2779 -0.4220  0.1299
  567SOL    HW2 2601   6.913   3.485   5.044 -0.0935 -0.7806 -0.2299
  568SOL     OW 2602   1.210   0.769   2.503  0.1035  0.2214  0.1384
  568SOL    HW1 2603   1.141   0.699   2.484  1.0986 -1.5595  2.6077
  568SOL    HW2 2604   1.282   0.765   2.434 -0.1264 -0.8518 -0.0477
  569SOL     OW 2605   4.263   3.480   0.420  0.1198 -0.0930 -0.2005
  569SOL    HW1 2606   4.201   3.517   0.351 -2.0233  0.3587  1.8341
  569SOL    HW2 2607   4.245   3.525   0.508  0.7653 -2.5704  1.2876
  570SOL     OW 2608   5.280   1.585   5.105 -0.3259 -0.1060 -0.8639
  570SOL    HW1 2609   5.264   1.488   5.091 -1.1066  0.2544 -2.7684
  570SOL    HW2 2610   5.321   1.600   5.195 -2.6297 -1.9302  0.5929
  571SOL     OW 2611   1.718   4.066   3.167 -0.5200  0.4341 -0.1397
  571SOL    HW1 2612   1.725   3.993   3.099 -1.9812 -0.8000  0.9723
  571SOL    HW2 2613   1.805   4.074   3.216  0.3238  0.8802 -1.6392
  572SOL     OW 2614   3.658   2.766   5.235  0.5032  0.4537 -0.0911
  572SOL    HW1 2615   3.599   2.726   5.165  0.8019 -0.4098  0.1356
  572SOL    HW2 2616   3.711   2.840   5.195 -0.1482  0.7066 -0.4952
  573SOL     OW 2617   1.108   6.633   6.665 -0.2102  0.3287 -0.6417
  573SOL    HW1 2618   1.151   6.711   6.621  1.0277  0.5989  0.9322
  573SOL    HW2 2619   1.128   6.635   6.763 -1.7162 -0.9577 -0.2616
  574SOL     OW 2620   2.303   6.371   0.143 -0.6268  0.8937  0.4698
  574SOL    HW1 2621   2.296   6.323   0.231  1.8568  0.3053  0.4055
  574SOL    HW2 2622   2.244   6.327   0.076 -2.5567  1.3362  1.7756
  575SOL     OW 2623   2.787   4.256   0.343 -0.3499  0.5187 -0.0940
  575SOL    HW1 2624   2.849   4.271   0.266 -0.6483  2.2321 -0.0299
  575SOL    HW2 2625   2.838   4.258   0.429 -0.0869 -0.9502 -0.1847
  576SOL     OW 2626   6.165   6.491   0.496 -0.2300  0.2887 -0.4044
  576SOL    HW1 2627   6.168   6.420   0.566  0.9188 -0.2020 -0.9223
  576SOL    HW2 2628   6.088   6.553   0.515  1.3024  1.5145  2.6014
  577SOL     OW 2629   0.698   6.325   1.882  0.0282  0.0986  0.7224
  577SOL    HW1 2630   0.773   6.279   1.928 -0.0291 -0.2355  0.4825
  577SOL    HW2 2631   0.725   6.419   1.860  0.2644  0.0742  0.9053
  578SOL     OW 2632   4.028   4.762   1.916  0.3343 -0.2302  0.1315
  578SOL    HW1 2633   3.968   4.687   1.888  0.2569 -0.2529  0.3549
  578SOL    HW2 2634   4.073   4.737   2.002  1.1810 -0.4985 -0.3751
  579SOL     OW 2635   0.492   3.995   1.530  0.5459  0.2261 -0.1700
  579SOL    HW1 2636   0.427   4.067   1.505 -0.3051 -0.4792 -0.0376
  579SOL    HW2 2637   0.575   4.037   1.565  1.4667  1.2490 -3.2565
  580SOL     OW 2638   4.802   5.375   4.427 -0.4276 -0.3524  0.2754
  580SOL    HW1 2639   4.731   5.374   4.356 -0.3241 -0.5825  0.1739
  580SOL    HW2 2640   4.772   5.318   4.503  0.1020 -1.3184 -0.2191
  581SOL     OW 2641   4.088   1.036   4.094 -0.8115  0.2813  0.2023
  581SOL    HW1 2642   4.093   1.136   4.094  2.8381  0.2305 -0.0454
  581SOL    HW2 2643   4.079   1.003   4.188  0.2970  0.8222  0.5069
  582SOL     OW 2644   4.752   4.270   5.308  0.1559  0.2303  0.4345
  582SOL    HW1 2645   4.776   4.309   5.219  0.3959  1.5694  1.0695
  582SOL    HW2 2646   4.824   4.206   5.337  0.2497  0.0575 -0.1708
  583SOL     OW 2647   3.199   5.047   5.149  0.0002  0.0689 -0.2478
  583SOL    HW1 2648   3.111   5.001   5.159 -0.5955  1.1430 -0.4370
  583SOL    HW2 2649   3.248   5.009   5.071 -0.7648  0.1835 -0.7920
  584SOL     OW 2650   6.688   1.066   4.105  0.0779  0.0474 -0.3001
  584SOL    HW1 2651   6.716   1.142   4.046 -0.6870  1.9712  1.6424
  584SOL    HW2 2652   6.752   0.990   4.094  0.5472  0.7109 -2.7623
  585SOL     OW 2653   3.219   2.137   2.597  0.6883 -0.6037  0.6394
  585SOL    HW1 2654   3.194   2.042   2.615  2.0381 -0.8790  1.1354
  585SOL    HW2 2655   3.310   2.141   2.557 -0.0727  0.3910 -1.0993
  586SOL     OW 2656   3.291   5.954   1.023 -0.2118  0.3490 -0.3377
  586SOL    HW1 2657   3.372   5.947   0.965 -0.3635  0.3939 -0.5528
  586SOL    HW2 2658   3.236   6.032   0.994 -0.8929 -0.3301 -0.8790
  587SOL     OW 2659   4.508   2.063   1.689  0.1142  0.1946  0.1292
  587SOL    HW1 2660   4.608   2.060   1.680  0.0979 -2.4846 -0.1015
  587SOL    HW2 2661   4.477   1.980   1.735 -2.2192 -0.9563 -3.1147
  588SOL     OW 2662   1.629   2.232   1.647  0.1623 -0.1354  0.3161
  588SOL    HW1 2663   1.595   2.221   1.553  1.1802  0.4813 -0.1416
  588SOL    HW2 2664   1.598   2.320   1.683 -1.1653 -0.8440  0.9939
  589SOL     OW 2665   1.562   0.320   6.594 -0.3452  0.1304 -0.4742
  589SOL    HW1 2666   1.568   0.344   6.691  0.8116 -0.2253 -0.4450
  589SOL    HW2 2667   1.598   0.396   6.539  1.9394 -0.8536 -0.4486
  590SOL     OW 2668   3.297   1.755   5.213 -0.1833 -0.6352  0.2327
  590SOL    HW1 2669   3.288   1.729   5.309  1.2481 -3.0322 -0.2088
  590SOL    HW2 2670   3.304   1.855   5.206  1.3737 -0.4870  2.7683
  591SOL     OW 2671   2.485   6.247   5.265 -0.2351  0.1977  0.1297
  591SOL    HW1 2672   2.528   6.330   5.228 -1.2497  0.3761 -0.7091
  591SOL    HW2 2673   2.528   6.167   5.225  2.8870  0.0959  3.2163
  592SOL     OW 2674   2.767   2.030   4.092  0.2068 -0.1486 -0.1596
  592SOL    HW1 2675   2.779   2.129   4.089  1.5745 -0.3170 -0.8475
  592SOL    HW2 2676   2.841   1.986   4.042 -0.7716 -1.4996 -0.4699
  593SOL     OW 2677   3.000   0.789   1.779 -0.2139  0.0300  0.1675
  593SOL    HW1 2678   3.074   0.841   1.822 -0.1337  0.1765 -0.1378
  593SOL    HW2 2679   3.011   0.692   1.797 -1.2521  0.2263  2.0977
  594SOL     OW 2680   6.030   2.981   6.654 -0.1543 -0.0220  0.5234
  594SOL    HW1 2681   6.021   3.076   6.685  0.8401 -0.5818  2.6656
  594SOL    HW2 2682   5.955   2.927   6.692 -1.7173  0.1450 -2.0653
  595SOL     OW 2683   0.281   3.789   3.883  0.0999  0.0407 -0.5600
  595SOL    HW1 2684   0.196   3.842   3.886 -0.6844 -1.1837  2.6949
  595SOL    HW2 2685   0.288   3.745   3.793 -1.8454  1.4503 -1.5006
  596SOL     OW 2686   5.266   5.348   4.895 -0.3875 -0.7892 -0.2382
  596SOL    HW1 2687   5.291   5.444   4.894  0.5763 -0.9663  1.8330
  596SOL    HW2 2688   5.172   5.338   4.927 -0.8470 -0.5224 -1.4287
  597SOL     OW 2689   3.753   3.178   5.724  0.0676  0.3469 -0.3342
  597SOL    HW1 2690   3.839   3.190   5.774 -0.7062  3.0446  0.5161
  597SOL    HW2 2691   3.765   3.106   5.655  2.3869 -0.7002  1.0146
  598SOL     OW 2692   3.122   3.877   3.116 -0.2575  0.3694 -0.5763
  598SOL    HW1 2693   3.193   3.894   3.048  0.8007 -0.3799  0.3230
  598SOL    HW2 2694   3.108   3.960   3.171  0.3435  0.3251 -0.3600
  599SOL     OW 2695   2.401   4.240   2.000 -0.2930  0.2026 -0.0365
  599SOL    HW1 2696   2.394   4.212   1.904 -1.7096  0.0304  0.0881
  599SOL    HW2 2697   2.464   4.318   2.007  1.5755 -1.1690 -0.7619
  600SOL     OW 2698   2.133   1.330   6.788  0.2290 -0.2421  0.1479
  600SOL    HW1 2699   2.102   1.402   6.727  1.9038  0.2540 -0.1642
  600SOL    HW2 2700   2.133   1.242   6.739 -0.5513 -0.2423  0.1332
  601SOL     OW 2701   1.151   0.630   4.409  0.3341  0.1340 -0.3496
  601SOL    HW1 2702   1.116   0.631   4.315 -1.1632 -0.8732  0.1532
  601SOL    HW2 2703   1.240   0.585   4.410  0.8527  1.0750 -1.4131
  602SOL     OW 2704   6.768   2.385   3.552 -0.7920  0.2725  0.2449
  602SOL    HW1 2705   6.691   2.344   3.599 -2.5591  1.1259 -1.7203
  602SOL    HW2 2706   6.802   2.323   3.481 -0.6246  0.4595  0.1584
  603SOL     OW 2707   0.804   1.897   4.083 -0.0130  0.5150  0.0319
  603SOL    HW1 2708   0.744   1.931   4.011 -1.2523 -1.8376 -0.1318
  603SOL    HW2 2709   0.898   1.892   4.048 -0.2979  1.0238 -0.8430
  604SOL     OW 2710   5.455   2.956   1.501 -0.1299  0.4172 -0.0476
  604SOL    HW1 2711   5.435   2.929   1.595 -1.1811  1.7564  0.1570
  604SOL    HW2 2712   5.420   3.049   1.485 -1.1746 -0.2748 -2.1405
  605SOL     OW 2713   5.773   6.224   4.112  0.0171  0.0926  0.6241
  605SOL    HW1 2714   5.689   6.218   4.058 -0.2682  0.6830  0.9915
  605SOL    HW2 2715   5.830   6.143   4.095 -0.1882  0.1410 -0.3516
  606SOL     OW 2716   4.580   4.784   4.118 -0.2789  0.1651 -0.1564
  606SOL    HW1 2717   4.616   4.780   4.025  0.1556 -1.4034  0.0500
  606SOL    HW2 2718   4.480   4.787   4.115 -0.3180 -1.0060 -0.6897
  607SOL     OW 2719   1.797   3.289   5.650 -0.3652 -0.3981  0.1766
  607SOL    HW1 2720   1.892   3.257   5.654 -0.3227 -0.4168 -0.7927
  607SOL    HW2 2721   1.782   3.338   5.565 -0.9912  0.4055  0.7384
  608SOL     OW 2722   1.405   0.028   0.059  0.1723  0.3516 -1.1303
  608SOL    HW1 2723   1.423   0.097   0.129  1.6426  0.1943 -1.3394
  608SOL    HW2 2724   1.351  -0.047   0.099  1.9610 -0.3018  0.1749
  609SOL     OW 2725   4.042   3.136   2.488  0.4952  0.1994 -0.0379
  609SOL    HW1 2726   4.036   3.045   2.446  1.5564 -0.9042  2.0278
  609SOL    HW2 2727   4.001   3.204   2.427 -1.0283 -1.7587 -1.3094
  610SOL     OW 2728   6.704   1.339   2.034  0.0131  0.0769  0.0067
  610SOL    HW1 2729   6.796   1.304   2.052  0.4518  0.7908 -0.7761
  610SOL    HW2 2730   6.637   1.279   2.077  0.7703 -1.3835 -0.7658
  611SOL     OW 2731   5.650   1.897   0.930  0.5070 -0.4052 -1.2475
  611SOL    HW1 2732   5.621   1.992   0.940  0.5733 -0.4866 -0.1753
  611SOL    HW2 2733   5.670   1.858   1.020  1.0644 -1.2553 -1.7177
  612SOL     OW 2734   5.990   5.035   4.702  0.3349  0.3676 -0.3208
  612SOL    HW1 2735   6.078   5.040   4.655 -0.7296 -0.9848 -2.5848
  612SOL    HW2 2736   5.988   4.954   4.760  0.7494  0.7015  0.1746
  613SOL     OW 2737   1.617   5.301   6.445 -0.0314 -0.1350 -0.0960
  613SOL    HW1 2738   1.570   5.318   6.532  1.2826  1.9319  0.2814
  613SOL    HW2 2739   1.638   5.388   6.401  2.9598 -0.9433 -0.4646
  614SOL     OW 2740   2.632   0.405   5.236  0.1684 -0.1803  0.0771
  614SOL    HW1 2741   2.542   0.365   5.252 -0.2506 -0.0650 -1.8144
  614SOL    HW2 2742   2.645   0.483   5.296 -1.3503  0.3311 -0.2154
  615SOL     OW 2743   5.968   5.366   5.740  0.2214 -0.1474  0.1022
  615SOL    HW1 2744   6.026   5.345   5.661  1.2141  1.2263  0.4354
  615SOL    HW2 2745   5.884   5.409   5.709  0.1800 -0.4764 -0.2570
  616SOL     OW 2746   5.869   1.074   4.113 -0.1043  0.5053  0.2425
  616SOL    HW1 2747   5.967   1.077   4.131 -0.3930  0.9104  1.8905
  616SOL    HW2 2748   5.850   1.125   4.029  1.1797 -0.4148 -0.6486
  617SOL     OW 2749   1.306   1.589   0.447  0.7202 -0.4140  0.4664
  617SOL    HW1 2750   1.277   1.596   0.352 -0.4930  0.5649  0.8892
  617SOL    HW2 2751   1.349   1.675   0.475 -3.8308  1.5630  2.3156
  618SOL     OW 2752   2.847   0.639   2.855  0.0102 -0.0909 -0.4184
  618SOL    HW1 2753   2.939   0.599   2.854 -0.3525 -0.9749 -2.3825
  618SOL    HW2 2754   2.851   0.735   2.827  0.2368 -0.3858 -1.4058
  619SOL     OW 2755   2.400   2.412   5.868  0.1255  0.3027 -0.0270
  619SOL    HW1 2756   2.327   2.379   5.808  0.0527 -0.5499  0.5054
  619SOL    HW2 2757   2.488   2.395   5.825  0.0344  1.0426 -0.5312
  620SOL     OW 2758   3.211   2.209   6.520 -0.1857 -0.0880  0.2017
  620SOL    HW1 2759   3.116   2.212   6.489 -0.7080 -2.5680  1.3497
  620SOL    HW2 2760   3.271   2.189   6.443 -0.9890 -1.8318 -0.0068
  621SOL     OW 2761   6.887   4.851   0.868 -0.6384  0.3556 -0.3241
  621SOL    HW1 2762   6.876   4.828   0.771 -1.2374 -1.0964  0.0588
  621SOL    HW2 2763   6.867   4.948   0.882  3.6199  1.7837 -2.3211
  622SOL     OW 2764   0.774   2.987   5.886  0.0321  0.4145  0.0128
  622SOL    HW1 2765   0.778   3.083   5.858 -4.1975  0.7855  0.0041
  622SOL    HW2 2766   0.782   2.981   5.985 -0.9122  0.9306  0.1252
  623SOL     OW 2767   5.945   4.599   6.693  0.2585 -0.5694 -0.0183
  623SOL    HW1 2768   6.024   4.600   6.631  0.0853  0.1973 -0.2451
  623SOL    HW2 2769   5.968   4.651   6.776 -0.3520  0.5671 -0.5431
  624SOL     OW 2770   6.228   1.304   3.652  0.3667 -0.4517  0.3531
  624SOL    HW1 2771   6.293   1.229   3.639  0.3861 -0.1304 -1.7709
  624SOL    HW2 2772   6.277   1.391   3.652 -0.0205 -0.1896 -1.5039
  625SOL     OW 2773   1.602   1.758   1.952  0.7989  0.4865 -0.3008
  625SOL    HW1 2774   1.612   1.851   1.916  2.3332  0.4650  0.0170
  625SOL    HW2 2775   1.659   1.747   2.032  0.8701 -0.8384 -0.5123
  626SOL     OW 2776   4.603   5.199   4.569 -0.5312  0.6972  0.1238
  626SOL    HW1 2777   4.544   5.192   4.489 -0.3534 -0.4814  0.0769
  626SOL    HW2 2778   4.547   5.216   4.650 -1.0697 -1.1149  0.1918
  627SOL     OW 2779   5.795   4.111   0.330  0.5524  0.0585  0.4010
  627SOL    HW1 2780   5.855   4.160   0.266  1.0578 -0.9238  0.1011
  627SOL    HW2 2781   5.703   4.148   0.323  0.8938  0.8888  0.1003
  628SOL     OW 2782   4.883   3.305   2.656  0.1943 -0.2112 -0.1989
  628SOL    HW1 2783   4.867   3.334   2.562  0.4730 -0.7842 -0.4326
  628SOL    HW2 2784   4.895   3.205   2.658 -3.3336 -0.7609  0.8954
  629SOL     OW 2785   1.288   6.257   2.115 -0.2910 -0.2071 -0.0087
  629SOL    HW1 2786   1.213   6.287   2.056 -1.3146 -1.9035  0.3548
  629SOL    HW2 2787   1.328   6.174   2.078 -0.2562 -0.7107  1.1243
  630SOL     OW 2788   1.378   1.549   2.022  0.6373  0.0025  0.3645
  630SOL    HW1 2789   1.355   1.549   2.119  1.6170 -3.6767  0.7366
  630SOL    HW2 2790   1.477   1.534   2.011  0.5906  0.5969 -1.2327
  631SOL     OW 2791   0.998   1.593   2.689 -0.3670  0.5684  0.2168
  631SOL    HW1 2792   0.983   1.501   2.651 -1.4673  1.1022 -0.7261
  631SOL    HW2 2793   0.982   1.591   2.788 -0.8470 -0.1669  0.1349
  632SOL     OW 2794   2.797   0.593   1.443  0.0507 -0.4695  0.2885
  632SOL    HW1 2795   2.712   0.593   1.497  0.6995  0.3615  1.3369
  632SOL    HW2 2796   2.853   0.672   1.468  0.6115 -0.3507 -1.2563
  633SOL     OW 2797   2.528   6.732   4.125  0.6791  0.1815 -0.1602
  633SOL    HW1 2798   2.627   6.740   4.116  0.6484 -0.4493 -1.1842
  633SOL    HW2 2799   2.497   6.646   4.084 -0.1905 -0.0921  0.9968
  634SOL     OW 2800   2.410   5.246   1.882  0.0491 -0.2710  0.1567
  634SOL    HW1 2801   2.489   5.189   1.904 -1.7351 -2.0253  2.5780
  634SOL    HW2 2802   2.344   5.242   1.957 -1.8403  2.0817 -1.2307
  635SOL     OW 2803   3.899   6.204   3.371 -0.4958 -0.2465 -0.2867
  635SOL    HW1 2804   3.989   6.174   3.341  0.0195 -0.0206  0.9415
  635SOL    HW2 2805   3.883   6.298   3.340  0.2651  0.1910  0.5697
  636SOL     OW 2806   5.518   5.591   5.733 -0.2420 -0.4365  0.1341
  636SOL    HW1 2807   5.612   5.576   5.703 -0.3292  0.2463 -0.5183
  636SOL    HW2 2808   5.466   5.635   5.659 -0.3487  1.7428  1.4412
  637SOL     OW 2809   5.753   3.609   6.311 -0.2274  0.0515  0.1964
  637SOL    HW1 2810   5.749   3.553   6.228 -2.1785 -0.8797  0.8576
  637SOL    HW2 2811   5.828   3.578   6.369  1.2257  0.7749 -1.2040
  638SOL     OW 2812   0.037   1.824   3.686  0.2396  0.6847 -0.1443
  638SOL    HW1 2813   0.085   1.753   3.737 -0.4725  0.5028  0.2908
  638SOL    HW2 2814   0.030   1.907   3.742  0.2059  0.7673 -0.2710
  639SOL     OW 2815   3.040   2.677   1.146 -0.5771  0.0982  0.7518
  639SOL    HW1 2816   3.052   2.738   1.224 -0.7440  1.1803 -0.0568
  639SOL    HW2 2817   2.946   2.682   1.113 -0.6585 -0.7774  0.8149
  640SOL     OW 2818   1.982   2.283   4.117 -0.2608  0.1176 -0.6248
  640SOL    HW1 2819   1.973   2.199   4.063  2.2188 -0.0350 -0.9115
  640SOL    HW2 2820   1.982   2.362   4.056 -2.0968  0.3627 -0.3902
  641SOL     OW 2821   6.143   1.361   4.175 -0.1987 -0.4524  0.3037
  641SOL    HW1 2822   6.144   1.295   4.100 -0.3512  0.3668 -0.4422
  641SOL    HW2 2823   6.219   1.343   4.237 -0.1466 -1.2198  0.0265
  642SOL     OW 2824   1.290   5.481   1.453 -0.3266  0.3362 -0.2373
  642SOL    HW1 2825   1.382   5.490   1.416  0.5327 -1.1724  1.3614
  642SOL    HW2 2826   1.278   5.545   1.529 -1.0748  1.4359 -1.2625
  643SOL     OW 2827   5.817   5.290   5.091  0.5948  0.2043  1.1388
  643SOL    HW1 2828   5.905   5.303   5.046  0.1782 -0.0265  0.2394
  643SOL    HW2 2829   5.821   5.209   5.149  0.8604 -0.0310  0.7944
  644SOL     OW 2830   3.488   6.215   0.550  0.0521 -0.1779  0.2044
  644SOL    HW1 2831   3.433   6.240   0.471  0.6116  1.9806  0.4322
  644SOL    HW2 2832   3.555   6.288   0.569  0.6013 -1.0992  2.0497
  645SOL     OW 2833   6.880   3.155   3.145 -0.3321 -0.2199 -0.9858
  645SOL    HW1 2834   6.886   3.213   3.064  0.9366  0.3149 -0.5265
  645SOL    HW2 2835   6.971   3.132   3.177 -0.8162 -0.4376  0.2956
  646SOL     OW 2836   1.876   3.206   2.700 -0.7538 -0.5251  0.3787
  646SOL    HW1 2837   1.819   3.124   2.709  0.1979 -1.3329 -0.7770
  646SOL    HW2 2838   1.971   3.180   2.686 -0.4423  0.7792 -0.1174
  647SOL     OW 2839   6.179   5.349   6.395 -0.2968  0.5505 -0.8126
  647SOL    HW1 2840   6.178   5.403   6.479  1.3144  0.0037 -0.4141
  647SOL    HW2 2841   6.132   5.399   6.323 -0.6041  1.5849  0.0812
  648SOL     OW 2842   4.874   3.636   4.417 -0.6319 -0.0360  0.0820
  648SOL    HW1 2843   4.861   3.661   4.321  0.8322  0.1701 -0.0794
  648SOL    HW2 2844   4.896   3.718   4.470 -1.9097 -0.0697  0.7114
  649SOL     OW 2845   4.069   6.285   2.889 -0.2464  0.4806 -0.6235
  649SOL    HW1 2846   4.148   6.347   2.890 -0.5658  0.8951 -0.8076
  649SOL    HW2 2847   4.076   6.221   2.965 -0.3853  1.3405  0.1277
  650SOL     OW 2848   5.500   5.442   1.285 -0.8612 -0.0204  0.5657
  650SOL    HW1 2849   5.515   5.461   1.188 -0.1301  0.0903  0.6953
  650SOL    HW2 2850   5.424   5.498   1.318  0.4924  1.8728  0.6512
  651SOL     OW 2851   0.757   5.494   6.685 -0.1682 -0.0490  0.2634
  651SOL    HW1 2852   0.695   5.474   6.760 -0.5785  2.5038  0.6981
  651SOL    HW2 2853   0.825   5.561   6.715 -0.4764  1.2135 -1.6611
  652SOL     OW 2854   5.065   2.927   1.581  0.2423 -0.2135 -0.2884
  652SOL    HW1 2855   5.141   2.977   1.538  0.0253 -0.5207 -1.0510
  652SOL    HW2 2856   5.048   2.964   1.672  0.2802  0.9043 -0.7220
  653SOL     OW 2857   2.117   6.651   2.776 -0.3176  0.0278 -0.6150
  653SOL    HW1 2858   2.185   6.707   2.728 -1.0353 -0.1095 -1.8274
  653SOL    HW2 2859   2.140   6.647   2.873 -0.3331  2.6070 -0.4388
  654SOL     OW 2860   1.132   4.920   0.434  0.2799 -0.1506  0.1242
  654SOL    HW1 2861   1.034   4.934   0.417  0.5272 -0.6649 -1.9556
  654SOL    HW2 2862   1.181   5.005   0.415  0.7048 -1.0526 -3.3376
  655SOL     OW 2863   6.609   2.204   6.632  0.0239 -0.0381  0.0521
  655SOL    HW1 2864   6.650   2.283   6.586  2.3595 -0.8764  0.5774
  655SOL    HW2 2865   6.601   2.129   6.567 -0.1440 -0.0654  0.1044
  656SOL     OW 2866   6.152   5.929   0.223 -0.4568  0.3127 -0.1893
  656SOL    HW1 2867   6.149   5.992   0.300 -0.8871  0.2633 -0.1597
  656SOL    HW2 2868   6.095   5.965   0.149 -1.1770 -0.3127  0.0433
  657SOL     OW 2869   5.576   1.371   0.921  0.1519 -0.3396 -0.3418
  657SOL    HW1 2870   5.485   1.412   0.915  0.3444 -0.1087 -2.1980
  657SOL    HW2 2871   5.644   1.444   0.925  0.3023 -0.5159  0.6611
  658SOL     OW 2872   4.286   6.053   6.008 -0.5467  0.6804 -0.4889
  658SOL    HW1 2873   4.194   6.041   6.046 -0.0886 -0.5103  0.3168
  658SOL    HW2 2874   4.342   6.105   6.073 -0.3776  0.5658 -0.5438
  659SOL     OW 2875   3.164   6.088   5.797 -0.6901  0.8924 -0.4665
  659SOL    HW1 2876   3.227   6.139   5.737  2.3429 -0.7952  1.0424
  659SOL    HW2 2877   3.183   6.111   5.892 -0.9467 -1.1832  0.1263
  660SOL     OW 2878   3.510   1.536   1.751  0.6422 -0.2419 -0.1783
  660SOL    HW1 2879   3.596   1.582   1.725 -0.0287  1.0858 -0.1533
  660SOL    HW2 2880   3.520   1.498   1.843  0.9143  0.7820  0.2399
  661SOL     OW 2881   0.455   5.237   4.310 -0.3707  0.5828  0.1143
  661SOL    HW1 2882   0.410   5.240   4.399  0.7594  0.4691  0.7148
  661SOL    HW2 2883   0.517   5.159   4.306  1.1759  1.7476  0.0521
  662SOL     OW 2884   5.394   3.259   4.907  0.0759 -0.4063  0.1835
  662SOL    HW1 2885   5.347   3.170   4.903  2.0130 -1.4547 -0.4675
  662SOL    HW2 2886   5.341   3.326   4.856 -0.5820 -1.6297 -0.8146
  663SOL     OW 2887   1.687   3.081   4.674  0.4667 -0.5670  0.5662
  663SOL    HW1 2888   1.605   3.067   4.619 -0.1423 -1.1481  1.5930
  663SOL    HW2 2889   1.726   3.172   4.655  0.9680 -1.2090 -1.6859
  664SOL     OW 2890   5.432   1.289   6.621 -0.5486  0.2085 -0.1152
  664SOL    HW1 2891   5.338   1.311   6.646 -1.2617 -1.1276 -1.5294
  664SOL    HW2 2892   5.469   1.221   6.685 -0.5315  0.6870  0.4003
  665SOL     OW 2893   0.861   3.215   1.150  0.7757  0.0082  0.4347
  665SOL    HW1 2894   0.815   3.211   1.239 -1.2518 -0.0333 -0.5827
  665SOL    HW2 2895   0.921   3.296   1.148 -2.1966  2.4090  0.4901
  666SOL     OW 2896   4.870   6.899   2.832  0.2792  0.2854  0.0892
  666SOL    HW1 2897   4.960   6.857   2.846  0.3753  0.6454  0.5821
  666SOL    HW2 2898   4.824   6.853   2.756  1.0549  0.3894 -0.4591
  667SOL     OW 2899   6.718   0.248   2.883  0.1917 -0.2747  0.5953
  667SOL    HW1 2900   6.811   0.273   2.907  0.6144 -1.4592  0.2717
  667SOL    HW2 2901   6.707   0.149   2.889 -0.3211 -0.4199 -1.7858
  668SOL     OW 2902   3.708   2.939   6.073  0.0651  0.6801 -0.1191
  668SOL    HW1 2903   3.638   2.985   6.018  0.1249  0.5170 -0.3359
  668SOL    HW2 2904   3.799   2.960   6.035  0.2445  2.0229  0.9880
  669SOL     OW 2905   6.592   1.507   2.526  0.3861 -0.1266 -0.2511
  669SOL    HW1 2906   6.552   1.556   2.604 -3.4459 -1.8223 -0.9660
  669SOL    HW2 2907   6.628   1.419   2.557 -3.4269 -1.9740 -0.5000
  670SOL     OW 2908   3.302   1.923   0.883  0.1778 -0.2731 -0.1756
  670SOL    HW1 2909   3.367   1.909   0.958 -0.2634 -2.6147 -0.1697
  670SOL    HW2 2910   3.209   1.927   0.920  0.1749  1.7857 -0.3176
  671SOL     OW 2911   0.839   5.303   1.248 -0.4673  0.2785 -0.1766
  671SOL    HW1 2912   0.900   5.381   1.258  0.0196 -0.0973 -0.1938
  671SOL    HW2 2913   0.873   5.243   1.176 -0.4197 -0.3405  0.3529
  672SOL     OW 2914   0.267   6.241   3.198 -0.7641 -0.1984  0.1605
  672SOL    HW1 2915   0.294   6.244   3.295 -1.3467 -1.8203  0.4095
  672SOL    HW2 2916   0.183   6.189   3.189 -2.2630  2.2440 -0.9568
  673SOL     OW 2917   4.433   6.449   6.285 -0.6973 -0.0624 -0.7252
  673SOL    HW1 2918   4.519   6.434   6.235 -0.9094  0.9153 -1.4139
  673SOL    HW2 2919   4.406   6.545   6.278 -0.2576  0.3636  2.0954
  674SOL     OW 2920   6.594   5.114   5.129  0.2918  0.0731  0.3835
  674SOL    HW1 2921   6.592   5.117   5.029  0.4423 -0.5349  0.3597
  674SOL    HW2 2922   6.656   5.184   5.164  0.9361 -0.3099  0.0174
  675SOL     OW 2923   6.052   3.531   3.308  0.0859  0.2929 -0.1046
  675SOL    HW1 2924   6.056   3.630   3.324 -2.2230  0.1821  1.7863
  675SOL    HW2 2925   6.004   3.513   3.223  1.1880  0.7587 -0.8577
  676SOL     OW 2926   1.950   4.478   6.847  0.2763  0.1031  0.2802
  676SOL    HW1 2927   1.976   4.520   6.934  1.6258 -1.1631  0.5166
  676SOL    HW2 2928   1.892   4.542   6.796  0.9650  1.6063  1.2985
  677SOL     OW 2929   5.133   0.981   1.507 -0.0422  0.0763  0.1773
  677SOL    HW1 2930   5.176   1.071   1.495  0.6804 -0.3373 -0.3874
  677SOL    HW2 2931   5.036   0.993   1.526  0.1230  0.9929  0.4766
  678SOL     OW 2932   0.361   5.450   4.617 -0.5569 -0.3487  0.1498
  678SOL    HW1 2933   0.385   5.526   4.556  1.3143 -0.6862  0.3829
  678SOL    HW2 2934   0.327   5.373   4.563  0.5029 -0.4257 -0.4515
  679SOL     OW 2935   0.189   2.544   6.542 -0.2619  0.8332  0.1325
  679SOL    HW1 2936   0.270   2.596   6.570  0.9362 -1.0475  0.3396
  679SOL    HW2 2937   0.182   2.462   6.598  0.0079 -1.0871 -2.5110
  680SOL     OW 2938   4.682   1.391   3.712 -0.2739 -0.3868  0.1059
  680SOL    HW1 2939   4.661   1.294   3.728  0.9474 -0.1057  4.9926
  680SOL    HW2 2940   4.778   1.401   3.688  0.1475 -0.3484  1.7057
  681SOL     OW 2941   4.435   4.506   1.813  0.1375  0.0656  0.3026
  681SOL    HW1 2942   4.439   4.410   1.843 -1.0055 -0.0613  0.0859
  681SOL    HW2 2943   4.466   4.565   1.888  1.0834 -0.4774  0.3542
  682SOL     OW 2944   5.837   1.480   2.276  0.6130  0.5104  0.5187
  682SOL    HW1 2945   5.768   1.549   2.254  0.2214 -0.5383 -1.9632
  682SOL    HW2 2946   5.924   1.524   2.298  0.2490  1.8239 -0.5576
  683SOL     OW 2947   2.345   5.682   7.009 -0.0459  0.5021 -0.5975
  683SOL    HW1 2948   2.307   5.755   7.066  1.0943  1.7978 -1.4398
  683SOL    HW2 2949   2.271   5.635   6.961 -1.0379 -0.6149  1.8717
  684SOL     OW 2950   0.238   1.027   6.808  0.6230 -0.6543 -0.2055
  684SOL    HW1 2951   0.309   0.986   6.865  2.7792 -0.2870 -2.4710
  684SOL    HW2 2952   0.242   1.126   6.816  0.1507 -0.6411 -0.1156
  685SOL     OW 2953   2.071   0.430   1.262  0.0577  0.0689 -0.1025
  685SOL    HW1 2954   2.063   0.354   1.197 -0.8637  0.9992 -1.1121
  685SOL    HW2 2955   2.109   0.510   1.216  0.9433  0.2674  0.9325
  686SOL     OW 2956   4.263   1.389   6.554  1.0493 -0.4185  0.5006
  686SOL    HW1 2957   4.193   1.343   6.608 -0.8696  1.7096 -0.0406
  686SOL    HW2 2958   4.290   1.330   6.478 -1.0180 -0.8799  0.0554
  687SOL     OW 2959   0.746   6.933   3.487  1.2231 -0.4154 -0.4917
  687SOL    HW1 2960   0.712   7.015   3.532  1.7071 -1.0550  1.1034
  687SOL    HW2 2961   0.835   6.952   3.445  0.2810  0.4714 -2.1573
  688SOL     OW 2962   4.805   5.244   6.315 -0.1180  0.0815  0.2401
  688SOL    HW1 2963   4.715   5.254   6.274 -1.0735  1.0180  2.4410
  688SOL    HW2 2964   4.828   5.146   6.320 -0.1269 -0.0891 -2.0316
  689SOL     OW 2965   2.711   5.126   5.014 -0.4334 -0.3103  0.1993
  689SOL    HW1 2966   2.706   5.112   4.915  0.2632  1.6174 -0.1560
  689SOL    HW2 2967   2.619   5.139   5.051 -0.5670  4.0065 -1.1118
  690SOL     OW 2968   6.982   3.810   4.776  0.3079  0.2269 -0.0786
  690SOL    HW1 2969   6.990   3.866   4.858 -2.2946  2.0451 -0.9288
  690SOL    HW2 2970   6.892   3.766   4.775  1.3311 -1.9569 -0.6975
  691SOL     OW 2971   4.481   2.545   3.091  0.3238  0.2855  0.3049
  691SOL    HW1 2972   4.385   2.517   3.099  0.4010  0.3639  1.7685
  691SOL    HW2 2973   4.497   2.583   3.000 -0.9420 -0.0557 -0.0857
  692SOL     OW 2974   0.960   1.736   3.316 -0.0281  0.7474 -0.2801
  692SOL    HW1 2975   0.965   1.707   3.220 -0.0223 -0.7692  0.1560
  692SOL    HW2 2976   0.955   1.656   3.375 -1.3337  1.6814  0.9397
  693SOL     OW 2977   0.389   3.745   2.873 -0.3644 -0.5017  0.2226
  693SOL    HW1 2978   0.397   3.834   2.916  1.4553 -0.2563 -0.5254
  693SOL    HW2 2979   0.328   3.750   2.794  0.8116  0.4567 -0.6593
  694SOL     OW 2980   0.153   5.128   3.007  0.2437 -0.2178 -0.7584
  694SOL    HW1 2981   0.198   5.169   3.086  0.3277 -1.9222  0.1093
  694SOL    HW2 2982   0.104   5.199   2.956  0.6558  0.9992  0.4972
  695SOL     OW 2983   4.375   0.753   5.161  0.3823  0.3202  0.3656
  695SOL    HW1 2984   4.325   0.838   5.146  0.8562  0.4047 -0.8651
  695SOL    HW2 2985   4.443   0.766   5.233 -0.8744  0.3930  1.5935
  696SOL     OW 2986   7.014   4.158   2.821 -0.5908  0.6582  0.7263
  696SOL    HW1 2987   6.917   4.170   2.800 -0.4344 -0.2608 -0.6361
  696SOL    HW2 2988   7.030   4.062   2.845 -0.1033  0.9295  1.5338
  697SOL     OW 2989   6.144   5.081   2.438 -0.1026  0.0975 -0.3115
  697SOL    HW1 2990   6.159   5.073   2.340  1.7368  3.4182 -0.4529
  697SOL    HW2 2991   6.048   5.103   2.455 -0.5702 -1.0790 -1.2604
  698SOL     OW 2992   4.799   0.687   6.019 -0.1079 -0.0208  0.1250
  698SOL    HW1 2993   4.728   0.628   6.057 -1.7430  0.2611 -2.2788
  698SOL    HW2 2994   4.761   0.779   6.003  0.8230  0.1754 -1.0938
  699SOL     OW 2995   2.805   2.727   1.405 -0.1032  0.0163 -0.1056
  699SOL    HW1 2996   2.751   2.644   1.421  1.8348 -1.1639  0.6598
  699SOL    HW2 2997   2.770   2.801   1.463 -1.4918 -0.3960 -0.3634
  700SOL     OW 2998   3.324   6.536   5.945 -0.3293  0.2452 -0.4792
  700SOL    HW1 2999   3.366   6.448   5.924  1.2499  0.5832  0.9874
  700SOL    HW2 3000   3.258   6.525   6.019 -1.6107  0.0112 -1.6098
  701SOL     OW 3001   4.239   3.756   1.761 -0.0620  0.0603 -0.1259
  701SOL    HW1 3002   4.309   3.687   1.742  0.1329  0.3994 -0.6606
  701SOL    HW2 3003   4.194   3.735   1.847  1.2529  0.2710  0.6467
  702SOL     OW 3004   5.560   0.791   5.650 -0.2807  0.6442 -0.2134
  702SOL    HW1 3005   5.552   0.692   5.637  0.8152  0.4951  0.1269
  702SOL    HW2 3006   5.606   0.809   5.736 -0.3689  1.4572 -0.3303
  703SOL     OW 3007   3.492   2.424   0.092  0.1479  0.3774 -0.2092
  703SOL    HW1 3008   3.569   2.373   0.055  0.2912 -0.0773  0.6962
  703SOL    HW2 3009   3.441   2.466   0.017  1.6367  1.2269 -0.7733
  704SOL     OW 3010   1.814   2.760   4.991 -0.2751 -0.2285  0.3253
  704SOL    HW1 3011   1.761   2.763   5.076  0.3551  0.3416  0.7049
  704SOL    HW2 3012   1.833   2.853   4.960 -0.7269 -0.4304 -0.5939
  705SOL     OW 3013   6.950   0.377   5.456 -0.8428  0.1741  0.9782
  705SOL    HW1 3014   6.965   0.435   5.535  0.3240  0.1898  0.7549
  705SOL    HW2 3015   6.963   0.430   5.372 -0.7251 -0.1720  0.7749
  706SOL     OW 3016   3.711   1.274   5.322  0.3305  0.0031 -0.0322
  706SOL    HW1 3017   3.809   1.282   5.307  0.2242  0.7281 -0.3901
  706SOL    HW2 3018   3.670   1.224   5.246  0.4815 -0.7214  0.3537
  707SOL     OW 3019   2.875   5.106   4.211 -0.2471  0.5283  0.2761
  707SOL    HW1 3020   2.960   5.113   4.263 -0.5048  1.1168  0.6256
  707SOL    HW2 3021   2.853   5.009   4.196  1.2426  0.3548 -1.0788
  708SOL     OW 3022   2.888   6.343   4.165 -0.1558  0.1424  0.0158
  708SOL    HW1 3023   2.826   6.395   4.106 -0.7079  1.1618  1.4403
  708SOL    HW2 3024   2.977   6.388   4.169  0.5879 -1.0585 -1.6395
  709SOL     OW 3025   1.184   5.921   3.325  0.0015 -0.2408  0.2503
  709SOL    HW1 3026   1.112   5.960   3.381 -0.3682  0.9345 -0.9993
  709SOL    HW2 3027   1.270   5.969   3.342  0.1348 -0.5901  0.5780
  710SOL     OW 3028   4.445   1.610   2.389  0.7516  0.1470 -0.2560
  710SOL    HW1 3029   4.516   1.661   2.341  1.3689 -0.6146 -0.1725
  710SOL    HW2 3030   4.376   1.673   2.423  0.3258  0.7331 -2.0667
  711SOL     OW 3031   0.705   0.734   0.547  0.1823 -0.0888 -0.4955
  711SOL    HW1 3032   0.622   0.768   0.592 -0.6073  0.1201 -2.0400
  711SOL    HW2 3033   0.770   0.809   0.535  1.1495 -0.4834  1.7768
  712SOL     OW 3034   4.995   4.902   6.031  0.0486 -0.6438  0.4850
  712SOL    HW1 3035   5.032   4.809   6.039  0.3192 -0.6962 -0.9689
  712SOL    HW2 3036   4.910   4.899   5.978 -1.2103 -0.3103  2.3746
  713SOL     OW 3037   3.314   3.938   5.554  0.3050 -0.0280  0.1340
  713SOL    HW1 3038   3.283   4.027   5.519 -1.6891 -0.6545  0.1884
  713SOL    HW2 3039   3.368   3.952   5.637 -1.5231  1.0899  1.2147
  714SOL     OW 3040   3.070   6.476   3.746  0.0775 -0.3914  0.1257
  714SOL    HW1 3041   3.014   6.397   3.772  0.6839 -0.5247  1.0698
  714SOL    HW2 3042   3.157   6.473   3.795  1.1294 -0.4304 -1.6494
  715SOL     OW 3043   4.153   5.585   6.310 -0.3010  0.4926 -0.6703
  715SOL    HW1 3044   4.095   5.599   6.391 -1.6101 -1.0080 -1.2916
  715SOL    HW2 3045   4.224   5.655   6.307 -1.3880  1.7139  0.7475
  716SOL     OW 3046   2.332   2.469   2.522  0.2592  0.0309  0.1976
  716SOL    HW1 3047   2.378   2.419   2.595  0.9478  0.7781  0.3014
  716SOL    HW2 3048   2.363   2.564   2.524  2.0415 -0.4128 -2.4883
  717SOL     OW 3049   5.661   4.926   4.083  0.6535 -0.0549 -0.1176
  717SOL    HW1 3050   5.713   4.841   4.097  0.2151 -0.4196 -0.6443
  717SOL    HW2 3051   5.628   4.960   4.171  2.2577  0.4973  0.3007
  718SOL     OW 3052   0.202   0.302   5.830  0.7940 -0.0116  0.4082
  718SOL    HW1 3053   0.199   0.401   5.814 -0.0681  0.0446  0.8846
  718SOL    HW2 3054   0.139   0.278   5.903  0.5740 -0.9955 -0.0878
  719SOL     OW 3055   3.832   5.437   1.011 -0.4353  0.4211  0.1028
  719SOL    HW1 3056   3.765   5.506   1.038 -0.0997  1.7664 -2.2266
  719SOL    HW2 3057   3.842   5.439   0.911  0.3747 -2.2960  0.0627
  720SOL     OW 3058   4.368   0.480   6.389  0.0747  0.3085  0.4761
  720SOL    HW1 3059   4.438   0.418   6.425  0.2591  0.2490  0.0270
  720SOL    HW2 3060   4.326   0.530   6.465 -0.9420 -1.2384  0.9607
  721SOL     OW 3061   0.758   2.742   0.883  0.6603  0.1567  0.3440
  721SOL    HW1 3062   0.766   2.839   0.904  1.1955  0.3487 -0.6729
  721SOL    HW2 3063   0.661   2.715   0.886  0.3081  1.1353 -1.0495
  722SOL     OW 3064   5.038   0.003   1.019  0.4706  0.7103 -0.1735
  722SOL    HW1 3065   5.117  -0.041   1.062 -0.4009 -0.5837  0.1687
  722SOL    HW2 3066   5.030  -0.031   0.925 -1.0857 -1.1323  0.5580
  723SOL     OW 3067   2.668   0.131   5.975  0.1925  0.3730 -0.0797
  723SOL    HW1 3068   2.722   0.098   6.053 -2.0321  1.2644  1.9491
  723SOL    HW2 3069   2.589   0.182   6.008 -0.8452  0.8251 -2.9701
  724SOL     OW 3070   0.351   2.160   4.200 -0.2226  0.3295  0.4063
  724SOL    HW1 3071   0.369   2.251   4.239 -1.0880  0.7475 -0.1343
  724SOL    HW2 3072   0.436   2.108   4.197  0.3991  1.3308  0.2160
  725SOL     OW 3073   1.469   3.590   4.247 -0.2401 -0.4010 -0.1320
  725SOL    HW1 3074   1.485   3.502   4.291 -1.5889 -1.0364 -0.8498
  725SOL    HW2 3075   1.533   3.658   4.283  1.1386 -1.7706  0.0990
  726SOL     OW 3076   2.551   3.625   5.347 -0.0368 -0.4113 -0.5920
  726SOL    HW1 3077   2.636   3.574   5.333 -0.1858 -0.1645 -2.7043
  726SOL    HW2 3078   2.561   3.718   5.312 -0.2901  0.5772  1.7616
  727SOL     OW 3079   2.086   5.150   4.187 -0.5638  0.0397  0.0194
  727SOL    HW1 3080   2.166   5.098   4.218 -1.1854  0.7826  3.2444
  727SOL    HW2 3081   2.028   5.091   4.131 -0.1422 -2.1115  1.6966
  728SOL     OW 3082   5.925   3.752   2.547 -0.2990  0.3076  0.2564
  728SOL    HW1 3083   5.866   3.832   2.541 -0.8909  0.0172  1.6799
  728SOL    HW2 3084   6.000   3.760   2.482 -0.1447  2.1863  0.6239
  729SOL     OW 3085   0.638   6.689   6.792  0.4669 -0.2190 -0.4532
  729SOL    HW1 3086   0.633   6.622   6.718 -1.5225 -0.9081  0.2491
  729SOL    HW2 3087   0.596   6.775   6.763 -1.8722 -1.0167  0.3374
  730SOL     OW 3088   5.749   3.076   4.580 -0.0281 -0.1530  0.1850
  730SOL    HW1 3089   5.690   3.122   4.646 -1.1651 -0.8516 -0.3152
  730SOL    HW2 3090   5.797   3.001   4.625  0.2625  0.2379  0.5315
  731SOL     OW 3091   0.016   3.813   3.375 -0.0075 -0.2018 -0.1804
  731SOL    HW1 3092   0.082   3.887   3.388  0.9922 -1.1264  0.1316
  731SOL    HW2 3093   0.002   3.798   3.277  0.2254  0.0150 -0.2472
  732SOL     OW 3094   5.579   1.017   3.313  0.3850  0.0832 -0.5212
  732SOL    HW1 3095   5.591   1.075   3.232 -1.5855  0.9429 -0.2645
  732SOL    HW2 3096   5.661   1.023   3.371 -0.5310  4.6240  0.6779
  733SOL     OW 3097   0.009   4.935   1.866  0.0664 -0.1072 -0.3816
  733SOL    HW1 3098  -0.063   4.930   1.797  0.7394 -0.6141 -1.0631
  733SOL    HW2 3099  -0.016   4.880   1.945 -1.1489  1.2487  0.2169
  734SOL     OW 3100   5.499   4.675   3.740 -0.3075 -0.0264  0.2432
  734SOL    HW1 3101   5.414   4.637   3.776  0.1416 -0.3648  0.9782
  734SOL    HW2 3102   5.542   4.608   3.679 -0.0111 -0.3043  0.7553
  735SOL     OW 3103   5.747   6.558   3.068 -0.0114  0.6076  0.2387
  735SOL    HW1 3104   5.683   6.486   3.039  2.2691 -1.4697  0.0350
  735SOL    HW2 3105   5.792   6.597   2.987  1.1236 -0.0775  0.5272
  736SOL     OW 3106   2.619   1.222   2.540 -0.5109 -0.4448 -0.5831
  736SOL    HW1 3107   2.600   1.279   2.460  0.5850  0.7031 -0.0557
  736SOL    HW2 3108   2.718   1.210   2.550 -0.6266 -4.4962 -2.0760
  737SOL     OW 3109   3.021   3.123   3.188  0.1211 -0.3959  0.4617
  737SOL    HW1 3110   2.925   3.095   3.177 -0.5432  2.2535 -1.6624
  737SOL    HW2 3111   3.032   3.166   3.278 -0.3780 -1.6882  1.1680
  738SOL     OW 3112   0.892   6.487   6.535  0.0815  0.2456  0.1324
  738SOL    HW1 3113   0.872   6.553   6.463  0.2341 -1.6285 -1.6962
  738SOL    HW2 3114   0.965   6.524   6.594 -1.5427  2.7491  0.7583
  739SOL     OW 3115   2.569   0.344   4.335  0.5832 -0.5952  0.8074
  739SOL    HW1 3116   2.629   0.422   4.316 -0.1574 -0.2822 -0.3566
  739SOL    HW2 3117   2.502   0.370   4.404 -1.0471  0.5848 -1.1091
  740SOL     OW 3118   4.323   2.480   1.084 -0.6369 -0.2024  0.1709
  740SOL    HW1 3119   4.392   2.416   1.119  0.5878  1.0208  0.0993
  740SOL    HW2 3120   4.363   2.535   1.010 -1.8809  0.1465 -0.2624
  741SOL     OW 3121   3.459   0.414   2.740 -0.2366 -0.1231  0.8250
  741SOL    HW1 3122   3.496   0.381   2.827  3.0746 -0.1076 -0.4488
  741SOL    HW2 3123   3.400   0.344   2.700  0.2352 -1.1645  1.9083
  742SOL     OW 3124   2.287   5.826   2.975  0.1512  0.4522  0.5493
  742SOL    HW1 3125   2.266   5.854   3.069 -0.4157 -0.2287  0.6395
  742SOL    HW2 3126   2.215   5.860   2.914 -1.5380 -2.1317  0.8968
  743SOL     OW 3127   6.821   6.695   4.165  0.0648  0.1165  0.0755
  743SOL    HW1 3128   6.845   6.600   4.148  0.4695  0.6483 -2.9959
  743SOL    HW2 3129   6.903   6.752   4.156 -0.7854  1.1033 -2.2926
  744SOL     OW 3130   5.128   0.717   0.575  0.0809  0.0082  0.0400
  744SOL    HW1 3131   5.067   0.716   0.654 -0.4728 -1.9419 -0.3503
  744SOL    HW2 3132   5.077   0.744   0.494 -0.0404 -0.6882 -0.1203
  745SOL     OW 3133   2.737   0.547   5.823  0.2392  0.5163 -0.0097
  745SOL    HW1 3134   2.753   0.492   5.741 -0.1339 -0.5588  0.6143
  745SOL    HW2 3135   2.793   0.512   5.898 -0.1529  0.8558  0.4475
  746SOL     OW 3136   6.870   6.919   4.653  0.4249  0.5459  0.0839
  746SOL    HW1 3137   6.939   6.971   4.602 -0.9245 -0.4110 -3.0110
  746SOL    HW2 3138   6.903   6.826   4.669  0.3837  0.4835 -0.1857
  747SOL     OW 3139   3.429   6.231   4.170  0.8070 -0.2099 -0.1635
  747SOL    HW1 3140   3.482   6.188   4.243  2.9157  0.1258 -1.3970
  747SOL    HW2 3141   3.479   6.311   4.137 -0.7946  0.4665 -1.0184
  748SOL     OW 3142   0.863   5.500   1.635 -0.2880 -0.2991  0.7963
  748SOL    HW1 3143   0.803   5.526   1.559  0.8222 -1.1225 -0.4146
  748SOL    HW2 3144   0.939   5.445   1.599  2.3103  2.3202  1.9069
  749SOL     OW 3145   5.649   2.915   5.116 -0.6040 -0.3981  0.0138
  749SOL    HW1 3146   5.676   2.849   5.047 -0.1021 -1.3130  1.0492
  749SOL    HW2 3147   5.673   2.880   5.207  1.4574  2.0359  0.5124
  750SOL     OW 3148   1.813   2.994   2.338 -0.8787 -0.0555 -0.4028
  750SOL    HW1 3149   1.756   2.933   2.282 -2.0764  1.2561 -0.6702
  750SOL    HW2 3150   1.844   2.945   2.419 -0.2436 -1.5740 -1.5129
  751SOL     OW 3151   4.787   6.605   0.029 -0.2920 -0.5733 -0.1385
  751SOL    HW1 3152   4.785   6.651   0.118  0.5889 -0.8502  0.0343
  751SOL    HW2 3153   4.748   6.514   0.038  0.0713 -0.7139  0.0377
  752SOL     OW 3154   3.333   2.980   2.937 -0.4746  0.4394  0.9020
  752SOL    HW1 3155   3.302   2.943   2.849 -0.1991 -0.8329  1.3141
  752SOL    HW2 3156   3.433   2.983   2.938 -0.4901  1.0907  0.9328
  753SOL     OW 3157   3.048   3.898   3.912 -0.2910 -0.0906 -0.1601
  753SOL    HW1 3158   2.993   3.900   3.828 -1.1484 -1.9093  0.3230
  753SOL    HW2 3159   2.997   3.855   3.985  2.0840 -2.8254  0.0540
  754SOL     OW 3160   4.022   6.983   5.916  0.1350 -0.4090  0.3599
  754SOL    HW1 3161   4.062   7.069   5.945 -0.4569 -0.5907  1.7778
  754SOL    HW2 3162   3.983   6.993   5.824 -1.4595  1.3438  1.1760
  755SOL     OW 3163   0.174   3.319   6.033  0.0482 -0.5188  0.9727
  755SOL    HW1 3164   0.120   3.351   5.956  0.6179 -0.2626  0.6730
  755SOL    HW2 3165   0.165   3.382   6.110 -0.0600 -0.4643  0.9141
  756SOL     OW 3166   3.888   4.197   6.528 -0.7720  0.8665 -0.3848
  756SOL    HW1 3167   3.954   4.204   6.603 -1.0717  1.4340 -0.1662
  756SOL    HW2 3168   3.818   4.267   6.539 -1.2531  0.4535 -0.7738
  757SOL     OW 3169   6.642   0.094   0.768 -0.0272  0.0880 -1.0845
  757SOL    HW1 3170   6.644   0.159   0.844  0.3184  0.5256 -1.4650
  757SOL    HW2 3171   6.563   0.115   0.709  0.3304  0.4342 -1.4424
  758SOL     OW 3172   5.185   1.775   5.411 -0.9309 -0.1486 -0.2000
  758SOL    HW1 3173   5.147   1.684   5.425 -1.8767  0.2657 -0.0130
  758SOL    HW2 3174   5.280   1.776   5.442 -1.4327 -0.6157  1.4999
  759SOL     OW 3175   6.921   2.730   1.982 -0.3707  0.0651 -0.2254
  759SOL    HW1 3176   6.983   2.659   2.016 -0.5912  0.1810  0.4372
  759SOL    HW2 3177   6.920   2.729   1.882 -0.9844 -1.3800 -0.2164
  760SOL     OW 3178   6.524   5.721   5.077  0.2295 -0.2985 -0.5995
  760SOL    HW1 3179   6.541   5.819   5.059 -1.1300 -0.2641 -1.9115
  760SOL    HW2 3180   6.555   5.698   5.169  2.6100  0.8506 -1.0372
  761SOL     OW 3181   4.952   4.070   5.384  0.2922  0.2070  0.1691
  761SOL    HW1 3182   4.936   3.983   5.431  1.1091  0.0334  0.1402
  761SOL    HW2 3183   5.025   4.058   5.316 -0.6640  0.5241 -0.9423
  762SOL     OW 3184   4.615   6.684   3.826  0.5196  0.3210 -0.0287
  762SOL    HW1 3185   4.593   6.655   3.733 -0.6608 -0.0785  0.3488
  762SOL    HW2 3186   4.579   6.776   3.841 -4.4042 -1.5378  1.6480
  763SOL     OW 3187   5.571   2.402   2.312 -0.2172  0.4157 -0.4308
  763SOL    HW1 3188   5.506   2.477   2.311  0.4094  1.0236  1.0405
  763SOL    HW2 3189   5.626   2.407   2.396  0.9312 -0.7413 -1.0774
  764SOL     OW 3190   5.222   5.752   4.945 -0.1820  0.0970  0.3203
  764SOL    HW1 3191   5.298   5.688   4.933  0.8922  1.1818  1.1398
  764SOL    HW2 3192   5.191   5.749   5.040  0.4046  1.3254  0.5718
  765SOL     OW 3193   4.694   5.738   0.985  0.4063  0.2862 -0.2783
  765SOL    HW1 3194   4.722   5.674   0.912 -0.2184  1.1137 -1.2673
  765SOL    HW2 3195   4.614   5.701   1.032 -1.4714  1.3713 -2.4318
  766SOL     OW 3196   1.687   0.791   3.629  0.3894 -0.0607 -0.2271
  766SOL    HW1 3197   1.750   0.865   3.604 -0.5317  0.1647 -2.0354
  766SOL    HW2 3198   1.699   0.715   3.565 -0.7643 -0.2409 -0.2401
  767SOL     OW 3199   0.774   4.997   4.600  0.1433 -0.4385  0.8154
  767SOL    HW1 3200   0.779   4.901   4.628  0.2549 -0.6196  0.1853
  767SOL    HW2 3201   0.718   5.048   4.666 -2.9473 -1.6375 -0.6964
  768SOL     OW 3202   2.954   3.825   1.054 -0.4506 -0.3750 -0.3938
  768SOL    HW1 3203   2.857   3.808   1.071 -0.7308  1.4201  0.0101
  768SOL    HW2 3204   2.999   3.740   1.025 -2.3143 -1.0595 -1.4304
  769SOL     OW 3205   2.545   3.618   6.784 -0.1805 -0.6170 -0.1134
  769SOL    HW1 3206   2.629   3.610   6.731 -1.4364 -1.2850 -2.1033
  769SOL    HW2 3207   2.480   3.677   6.736 -1.0065 -0.4207  1.1883
  770SOL     OW 3208   1.234   4.383   5.121  0.7806 -0.2041  0.1238
  770SOL    HW1 3209   1.170   4.419   5.053 -0.3424 -0.5960  0.9354
  770SOL    HW2 3210   1.282   4.459   5.164  1.0345  0.0862 -0.6521
  771SOL     OW 3211   3.648   5.618   3.326 -0.0384  0.3867  0.1189
  771SOL    HW1 3212   3.689   5.618   3.417  0.8401  2.3074 -0.2167
  771SOL    HW2 3213   3.719   5.602   3.258 -0.0420  2.1708 -0.3715
  772SOL     OW 3214   5.411   6.958   6.472  0.1757  0.2612 -0.0656
  772SOL    HW1 3215   5.370   7.049   6.476 -0.3411  0.1115 -1.2949
  772SOL    HW2 3216   5.339   6.889   6.475  0.5840 -0.1248  1.1548
  773SOL     OW 3217   2.607   5.082   4.132 -0.2402 -0.0363  0.5094
  773SOL    HW1 3218   2.577   5.060   4.225  2.1781 -3.5379  0.6181
  773SOL    HW2 3219   2.698   5.124   4.135  0.0958 -0.6843 -0.2725
  774SOL     OW 3220   1.368   1.551   2.337  0.4117 -0.3181  0.4677
  774SOL    HW1 3221   1.365   1.578   2.433 -0.9948 -1.2557  0.7088
  774SOL    HW2 3222   1.335   1.457   2.327 -0.3081  0.0584 -1.0362
  775SOL     OW 3223   5.956   2.938   3.084 -0.6235 -0.3980 -0.2314
  775SOL    HW1 3224   6.017   2.990   3.144 -0.7650 -0.7123  0.1930
  775SOL    HW2 3225   6.008   2.864   3.040 -0.2726  0.4700 -1.3309
  776SOL     OW 3226   1.401   4.921   6.139 -0.2056  0.2160  0.6351
  776SOL    HW1 3227   1.424   4.895   6.233 -0.4194  0.7114  0.8302
  776SOL    HW2 3228   1.477   4.971   6.099  0.2617 -0.8183  0.2110
  777SOL     OW 3229   2.453   4.062   5.762  0.3102  0.2537 -0.0310
  777SOL    HW1 3230   2.455   4.022   5.853  0.5545 -0.6804 -0.4387
  777SOL    HW2 3231   2.497   4.000   5.697  1.6640  1.6433 -0.4982
  778SOL     OW 3232   3.623   6.301   1.079  0.2331  0.3308 -0.0518
  778SOL    HW1 3233   3.578   6.374   1.026 -2.0870  0.1059  1.4871
  778SOL    HW2 3234   3.700   6.266   1.026 -0.5215  1.7071 -2.2484
  779SOL     OW 3235   6.774   0.559   2.616 -0.4113  0.0297 -0.0768
  779SOL    HW1 3236   6.754   0.640   2.562 -0.7750  0.2756  0.4176
  779SOL    HW2 3237   6.695   0.497   2.613 -0.5740  0.2103  0.4667
  780SOL     OW 3238   4.788   1.501   4.292 -0.0041  0.1664  0.0945
  780SOL    HW1 3239   4.708   1.531   4.239 -1.4732 -1.4096  1.2936
  780SOL    HW2 3240   4.818   1.411   4.260  1.3385  0.7423 -0.3414
  781SOL     OW 3241   0.725   3.575   6.437 -0.4110  0.1283 -0.1797
  781SOL    HW1 3242   0.815   3.615   6.456  1.1947 -2.3344 -2.0057
  781SOL    HW2 3243   0.686   3.619   6.357  0.0336 -0.0537 -0.4999
  782SOL     OW 3244   0.639   3.294   6.739  0.2042  0.6777  0.6646
  782SOL    HW1 3245   0.614   3.275   6.644  1.5638  2.4230 -0.0963
  782SOL    HW2 3246   0.691   3.217   6.776 -1.1755 -0.4407  0.3587
  783SOL     OW 3247   6.525   5.734   6.207  0.1772  0.2540 -0.3638
  783SOL    HW1 3248   6.463   5.759   6.133 -0.5775  0.1846  0.2284
  783SOL    HW2 3249   6.485   5.661   6.261  0.6533  0.3991  0.2008
  784SOL     OW 3250   2.491   0.251   6.150  0.6810 -0.3574  0.6668
  784SOL    HW1 3251   2.394   0.275   6.161  0.4613 -0.0446 -1.4952
  784SOL    HW2 3252   2.544   0.335   6.141  0.7686 -0.5496 -0.7693
  785SOL     OW 3253   0.008   0.294   3.804 -0.5443 -0.2090  0.1638
  785SOL    HW1 3254   0.056   0.246   3.878  0.1074  0.8580  0.4406
  785SOL    HW2 3255   0.054   0.380   3.783 -1.3278  0.0059 -0.7787
  786SOL     OW 3256   6.485   2.614   5.811  0.3480  0.9121  0.0023
  786SOL    HW1 3257   6.524   2.529   5.846  1.3189  1.3831  0.0844
  786SOL    HW2 3258   6.385   2.608   5.814  0.4053 -0.3194 -0.2443
  787SOL     OW 3259   2.557   6.419   0.071  0.0654  0.4832  0.6052
  787SOL    HW1 3260   2.461   6.396   0.087 -0.2864  0.5211 -1.2538
  787SOL    HW2 3261   2.565   6.474  -0.012  1.7331  0.1693  0.5215
  788SOL     OW 3262   1.856   2.608   2.554 -0.5461 -0.1829  0.1583
  788SOL    HW1 3263   1.936   2.552   2.578  1.5744  1.0183 -3.2661
  788SOL    HW2 3264   1.812   2.569   2.473 -0.4945  1.6940 -0.8230
  789SOL     OW 3265   4.069   4.199   1.428  0.1466 -0.5287  0.2580
  789SOL    HW1 3266   4.043   4.286   1.387  0.0167 -1.1510 -1.0414
  789SOL    HW2 3267   3.996   4.132   1.415  0.4761 -0.9986  0.7314
  790SOL     OW 3268   0.463   2.246   0.977 -0.2813  0.3787  0.3422
  790SOL    HW1 3269   0.451   2.194   1.062  0.7701  0.8211  0.7812
  790SOL    HW2 3270   0.399   2.213   0.908 -0.6896 -0.4434  1.1002
  791SOL     OW 3271   4.031   1.059   4.649 -0.3152  0.0456 -0.0946
  791SOL    HW1 3272   3.994   1.072   4.741  0.5193 -0.2423  0.2892
  791SOL    HW2 3273   3.959   1.075   4.581 -0.6723  1.3202  0.5598
  792SOL     OW 3274   2.804   0.837   1.985  0.0486  0.1961  0.2844
  792SOL    HW1 3275   2.841   0.806   1.897 -0.2246 -1.8419  0.8444
  792SOL    HW2 3276   2.878   0.843   2.052  0.1458  1.1038  0.1143
  793SOL     OW 3277   1.352   5.741   3.410 -0.5110  0.3046 -0.3171
  793SOL    HW1 3278   1.387   5.693   3.330 -2.5008 -1.7875 -0.0310
  793SOL    HW2 3279   1.289   5.813   3.382  0.1572  0.7613 -0.6635
  794SOL     OW 3280   3.912   3.976   2.990  0.1521 -0.0614  0.1106
  794SOL    HW1 3281   3.966   3.969   2.906  1.4092  0.7671  0.8142
  794SOL    HW2 3282   3.829   4.030   2.972  2.9091  4.8177  0.4215
  795SOL     OW 3283   5.082   6.523   5.435  0.8551  0.2485  0.1771
  795SOL    HW1 3284   5.010   6.579   5.478  0.1480 -1.1840  0.9434
  795SOL    HW2 3285   5.044   6.477   5.355  1.0363 -0.1992  0.3475
  796SOL     OW 3286   0.800   3.298   0.096 -0.2448 -0.0821  0.8858
  796SOL    HW1 3287   0.808   3.349   0.011  0.9818 -2.8769 -0.8015
  796SOL    HW2 3288   0.879   3.317   0.154 -0.2590  0.6043  0.6835
  797SOL     OW 3289   2.442   5.949   6.905 -0.5794  0.1917 -0.6553
  797SOL    HW1 3290   2.408   5.892   6.980  1.1719  0.0852  0.1051
  797SOL    HW2 3291   2.472   5.890   6.830 -2.6454  0.3074 -1.6431
  798SOL     OW 3292   4.983   4.780   1.868 -0.1172 -0.2590 -0.6263
  798SOL    HW1 3293   4.985   4.880   1.878  0.8461 -0.2448 -0.8386
  798SOL    HW2 3294   4.926   4.755   1.791  0.0054  0.1578 -0.8549
  799SOL     OW 3295   4.070   3.224   4.247  0.6655  0.4655 -0.0120
  799SOL    HW1 3296   4.039   3.298   4.307 -0.0919  0.2777 -0.1559
  799SOL    HW2 3297   4.164   3.242   4.218  0.6137  1.1933  0.2351
  800SOL     OW 3298   4.188   2.013   1.776 -0.0688  0.2734 -0.3611
  800SOL    HW1 3299   4.197   2.054   1.685 -0.2520  0.4523 -0.3002
  800SOL    HW2 3300   4.201   2.084   1.846  1.5020 -0.1222 -0.2153
  801SOL     OW 3301   6.928   5.599   6.452 -0.5887  0.6311  0.6287
  801SOL    HW1 3302   6.921   5.503   6.425 -0.8493  0.7800  0.1477
  801SOL    HW2 3303   7.021   5.631   6.438 -0.3602  0.2945  1.3319
  802SOL     OW 3304   3.382   3.109   5.559  0.1675 -0.1965 -0.3518
  802SOL    HW1 3305   3.304   3.051   5.535  1.3270 -1.5829 -0.9284
  802SOL    HW2 3306   3.356   3.171   5.632 -2.2560  1.2702 -2.3097
  803SOL     OW 3307   2.707   1.985   3.229 -0.3590  0.7851  0.1944
  803SOL    HW1 3308   2.711   2.085   3.230  1.0256  0.7630 -0.6660
  803SOL    HW2 3309   2.725   1.950   3.321 -0.8257  1.3307  0.4940
  804SOL     OW 3310   4.600   6.657   3.534 -0.3856  0.3229 -0.2002
  804SOL    HW1 3311   4.695   6.632   3.515 -0.7106 -1.6233  0.5700
  804SOL    HW2 3312   4.544   6.635   3.454 -0.3457  0.5900 -0.3033
  805SOL     OW 3313   3.238   2.078   4.363  0.1381  0.6439 -0.4546
  805SOL    HW1 3314   3.306   2.116   4.426 -1.2010  1.4202  0.5968
  805SOL    HW2 3315   3.165   2.035   4.415 -1.9082  2.8352 -1.3037
  806SOL     OW 3316   4.047   5.535   6.063 -0.7366 -0.4017 -0.1690
  806SOL    HW1 3317   4.091   5.572   6.145 -0.4983  0.9640 -0.8831
  806SOL    HW2 3318   3.971   5.476   6.090  1.3951 -2.7483  1.1072
  807SOL     OW 3319   2.804   1.012   0.457  0.1135 -0.5851 -0.3087
  807SOL    HW1 3320   2.716   1.034   0.499  0.9144  0.7842  0.7681
  807SOL    HW2 3321   2.798   0.924   0.410 -1.3451 -1.3548  1.2113
  808SOL     OW 3322   0.033   1.883   6.192 -0.1096 -0.2209  0.1743
  808SOL    HW1 3323  -0.001   1.943   6.264  0.2791  1.2342 -0.8047
  808SOL    HW2 3324  -0.037   1.817   6.167 -0.6198 -0.0662  1.1567
  809SOL     OW 3325   4.626   0.414   6.487 -0.0346  0.0070 -0.5989
  809SOL    HW1 3326   4.595   0.357   6.410  0.2172  0.3242 -0.9382
  809SOL    HW2 3327   4.725   0.420   6.485 -0.0021 -0.3126 -0.0084
  810SOL     OW 3328   2.827   3.064   6.432 -0.8971 -0.3200  0.2923
  810SOL    HW1 3329   2.784   3.037   6.518 -0.8252  0.0053  0.4292
  810SOL    HW2 3330   2.918   3.023   6.426 -0.6800  0.1146  0.6241
  811SOL     OW 3331   5.230   5.149   4.231  0.1766 -0.7290 -0.5784
  811SOL    HW1 3332   5.199   5.135   4.137 -0.5676 -2.8378 -0.0817
  811SOL    HW2 3333   5.319   5.195   4.230  1.2069 -2.5577 -2.4542
  812SOL     OW 3334   0.487   2.446   0.661 -0.2489  0.1964 -0.2384
  812SOL    HW1 3335   0.452   2.425   0.752  1.0960 -1.5376 -0.0725
  812SOL    HW2 3336   0.552   2.522   0.667 -0.8224  0.6747  0.0804
  813SOL     OW 3337   1.578   2.589   3.859  0.4102  0.2589  0.2087
  813SOL    HW1 3338   1.644   2.652   3.899  1.1196 -1.4060  1.8473
  813SOL    HW2 3339   1.517   2.554   3.931  0.3157 -1.2075 -0.5380
  814SOL     OW 3340   0.412   4.700   0.465  0.2550 -0.1276 -1.0586
  814SOL    HW1 3341   0.509   4.680   0.478 -0.2409 -1.1954  1.5314
  814SOL    HW2 3342   0.367   4.620   0.425 -0.0422 -0.7733  0.5019
  815SOL     OW 3343   2.853   1.772   5.315 -0.2697 -0.1752 -0.2142
  815SOL    HW1 3344   2.797   1.850   5.288  0.9156  1.1815  1.0466
  815SOL    HW2 3345   2.891   1.729   5.234  0.3436  1.5775 -0.9062
  816SOL     OW 3346   5.893   5.492   6.504  0.2350 -0.0396 -0.5114
  816SOL    HW1 3347   5.962   5.534   6.563 -0.3010 -0.4985  0.4723
  816SOL    HW2 3348   5.849   5.562   6.449  2.8444  0.0490 -2.6818
  817SOL     OW 3349   5.401   5.541   6.597  0.6545 -0.1605 -0.3429
  817SOL    HW1 3350   5.467   5.615   6.611  1.9320 -1.3354  0.0845
  817SOL    HW2 3351   5.352   5.524   6.683 -0.8887  1.2848 -0.8773
  818SOL     OW 3352   5.716   1.153   5.575  0.2654  0.3684 -0.3215
  818SOL    HW1 3353   5.728   1.236   5.520  1.0775  0.3912 -0.1278
  818SOL    HW2 3354   5.687   1.078   5.516  0.2290  0.6164 -0.6237
  819SOL     OW 3355   5.599   4.909   2.178  0.0775  0.2123  0.3862
  819SOL    HW1 3356   5.678   4.871   2.130  1.2747  0.0630  2.3918
  819SOL    HW2 3357   5.519   4.905   2.118  1.2819 -0.8472 -1.2257
  820SOL     OW 3358   2.891   2.095   0.022  0.0255 -0.4184 -0.6289
  820SOL    HW1 3359   2.856   2.076  -0.069 -1.4551  0.8611 -0.3688
  820SOL    HW2 3360   2.981   2.138   0.015  0.1088 -0.7311 -1.4692
  821SOL     OW 3361   6.339   3.201   6.560  0.1833  0.1049  0.3622
  821SOL    HW1 3362   6.439   3.201   6.555  0.1820 -0.9037  0.0025
  821SOL    HW2 3363   6.310   3.164   6.649  0.1409 -1.2759 -0.1999
  822SOL     OW 3364   0.608   6.701   3.517  0.0472 -0.5590  0.2893
  822SOL    HW1 3365   0.589   6.671   3.610 -0.6359 -0.2987  0.2433
  822SOL    HW2 3366   0.657   6.788   3.519 -1.2355  0.1828  0.4129
  823SOL     OW 3367   2.173   3.274   3.155  0.0961 -0.1027 -0.2756
  823SOL    HW1 3368   2.141   3.180   3.171 -0.9807  0.2954 -0.0277
  823SOL    HW2 3369   2.194   3.286   3.058  2.3169 -1.2138  0.0103
  824SOL     OW 3370   4.724   2.607   6.973  0.2479 -0.3111  0.3609
  824SOL    HW1 3371   4.787   2.530   6.960  0.8147  0.4102 -1.4489
  824SOL    HW2 3372   4.674   2.624   6.888 -0.6294  0.6780  1.0460
  825SOL     OW 3373   5.304   5.250   5.611  0.2297  0.1997  0.0963
  825SOL    HW1 3374   5.299   5.150   5.613  2.7641  0.0101  0.5504
  825SOL    HW2 3375   5.331   5.280   5.519  0.6959  0.3628  0.2829
  826SOL     OW 3376   4.612   1.717   0.036 -0.3329 -0.1124 -0.1673
  826SOL    HW1 3377   4.651   1.686   0.123  0.4986 -1.6718 -1.0477
  826SOL    HW2 3378   4.619   1.817   0.030 -0.8413  0.0708  1.7275
  827SOL     OW 3379   3.733   2.930   4.239  0.0317 -0.2324 -0.0952
  827SOL    HW1 3380   3.755   2.833   4.231 -0.4833 -0.1906 -3.1947
  827SOL    HW2 3381   3.801   2.984   4.189 -0.7215  0.8412 -0.0048
  828SOL     OW 3382   0.735   0.277   5.974 -0.0334  0.6576 -0.1166
  828SOL    HW1 3383   0.771   0.197   6.023  0.1439  1.6303  1.3940
  828SOL    HW2 3384   0.644   0.256   5.939  0.3848 -0.5106 -0.5801
  829SOL     OW 3385   3.990   3.242   1.798 -0.0648  0.4658 -0.0281
  829SOL    HW1 3386   3.939   3.270   1.716 -1.1504 -0.0422  0.4455
  829SOL    HW2 3387   3.963   3.149   1.823  0.4815  0.5100  0.7384
  830SOL     OW 3388   5.240   4.443   5.393  0.0852  0.3129  0.0436
  830SOL    HW1 3389   5.213   4.401   5.480 -0.8957  2.3092  0.7563
  830SOL    HW2 3390   5.339   4.454   5.391  0.4579 -2.3760 -0.3837
  831SOL     OW 3391   5.700   1.383   2.516 -0.3144 -0.2629  0.3551
  831SOL    HW1 3392   5.616   1.413   2.472 -0.0691  1.5943  1.0943
  831SOL    HW2 3393   5.768   1.362   2.446 -0.6421  0.4741 -0.1970
  832SOL     OW 3394   3.419   1.945   3.130  0.2908  0.5801  0.1087
  832SOL    HW1 3395   3.486   1.908   3.194  0.6031  2.4932  0.9552
  832SOL    HW2 3396   3.365   2.016   3.176 -0.1344  1.3291 -1.4940
  833SOL     OW 3397   5.408   2.607   6.682 -0.3698  0.1323  0.6224
  833SOL    HW1 3398   5.427   2.516   6.646 -0.2278  0.9343 -1.4287
  833SOL    HW2 3399   5.314   2.633   6.658 -0.7039  0.2191  1.9378
  834SOL     OW 3400   5.526   3.243   1.393  0.9011 -0.0431 -0.0685
  834SOL    HW1 3401   5.547   3.266   1.298  0.7346 -0.1936 -0.1416
  834SOL    HW2 3402   5.482   3.322   1.437 -2.0982 -1.0155 -1.0598
  835SOL     OW 3403   5.451   5.908   4.240 -0.0974 -0.5056 -0.9114
  835SOL    HW1 3404   5.512   5.828   4.239 -2.1045 -2.1402  0.0189
  835SOL    HW2 3405   5.459   5.954   4.329  0.9471  0.2722 -1.3915
  836SOL     OW 3406   6.471   0.587   4.054  0.2078 -0.3140 -0.3156
  836SOL    HW1 3407   6.428   0.501   4.025 -1.0183  0.1687 -0.0005
  836SOL    HW2 3408   6.426   0.663   4.009 -1.2959  0.4280  2.2418
  837SOL     OW 3409   0.320   1.640   5.228  0.2110 -0.4465 -0.4677
  837SOL    HW1 3410   0.416   1.660   5.208  0.5557  0.2357  1.5730
  837SOL    HW2 3411   0.266   1.723   5.215  0.5583  0.2136  1.8202
  838SOL     OW 3412   4.187   4.734   2.868  0.1980  0.1277 -0.0528
  838SOL    HW1 3413   4.251   4.744   2.944 -1.1703  0.6759  1.0711
  838SOL    HW2 3414   4.213   4.655   2.813  1.4493 -0.0442  0.7530
  839SOL     OW 3415   0.205   2.208   6.981  0.5241  0.3235 -0.2929
  839SOL    HW1 3416   0.231   2.270   7.056 -2.0886 -0.2882  1.2437
  839SOL    HW2 3417   0.164   2.260   6.907  1.3849  0.7337 -0.4976
  840SOL     OW 3418   4.437   6.539   0.637 -0.1518 -0.1745 -0.2842
  840SOL    HW1 3419   4.514   6.596   0.665 -0.1677  0.2456 -1.0884
  840SOL    HW2 3420   4.361   6.553   0.700 -0.0818  0.5324 -0.3511
  841SOL     OW 3421   2.600   6.339   6.405  0.2382 -0.5094 -0.0931
  841SOL    HW1 3422   2.561   6.250   6.379  0.5663 -0.7384  0.1984
  841SOL    HW2 3423   2.687   6.352   6.357  0.4293 -0.5607  0.2401
  842SOL     OW 3424   3.986   1.031   2.147  0.3772  0.2883  0.5204
  842SOL    HW1 3425   3.978   1.130   2.140  0.2428  0.2843  0.5969
  842SOL    HW2 3426   4.066   1.000   2.096 -0.2450  0.3121 -0.5013
  843SOL     OW 3427   6.007   6.986   1.840  0.5728 -0.1051 -0.1439
  843SOL    HW1 3428   5.939   6.943   1.780 -0.3552 -0.2098  0.9414
  843SOL    HW2 3429   5.963   7.011   1.927  1.4938  1.5377 -0.1269
  844SOL     OW 3430   5.610   0.493   0.096  0.3814 -0.5497  0.2083
  844SOL    HW1 3431   5.629   0.591   0.099 -1.4444 -0.1867  1.0638
  844SOL    HW2 3432   5.613   0.455   0.188  1.7958 -1.4757 -0.1933
  845SOL     OW 3433   4.900   1.490   1.186  0.1058 -0.2925  0.4953
  845SOL    HW1 3434   4.964   1.537   1.247  0.1051  0.5498 -0.1361
  845SOL    HW2 3435   4.913   1.523   1.092 -1.9603  0.6774  0.5019
  846SOL     OW 3436   2.053   1.007   1.932 -0.0333 -0.4425 -0.5671
  846SOL    HW1 3437   1.992   0.942   1.888 -0.6440 -0.2520 -0.0225
  846SOL    HW2 3438   2.009   1.044   2.014  0.6053  0.0876 -0.4512
  847SOL     OW 3439   1.906   5.306   2.424 -0.0265  0.2351  0.2240
  847SOL    HW1 3440   1.827   5.368   2.427 -1.5433 -1.5020 -1.5307
  847SOL    HW2 3441   1.966   5.333   2.349 -1.3240 -1.0286 -1.3509
  848SOL     OW 3442   4.696   6.709   6.618 -0.3911  0.0078 -0.1019
  848SOL    HW1 3443   4.718   6.662   6.533  0.4447  0.5786 -0.2159
  848SOL    HW2 3444   4.612   6.763   6.606 -1.9066 -2.1198  0.3031
  849SOL     OW 3445   6.443   3.281   5.636 -0.3336  0.5143 -0.1754
  849SOL    HW1 3446   6.346   3.259   5.629 -0.4374  0.4053  1.2234
  849SOL    HW2 3447   6.473   3.266   5.731  0.7988  1.5132 -0.3586
  850SOL     OW 3448   3.097   1.330   4.969  0.1157 -0.1149 -0.2027
  850SOL    HW1 3449   3.037   1.365   5.040  0.8608  1.3564 -0.2520
  850SOL    HW2 3450   3.192   1.348   4.994  0.5638 -2.3638 -0.1397
  851SOL     OW 3451   6.919   2.004   5.741 -0.3737 -0.1516 -0.4008
  851SOL    HW1 3452   6.925   2.038   5.835  0.8340  0.3788 -0.6504
  851SOL    HW2 3453   6.994   1.940   5.724 -0.5403 -0.1837 -1.0326
  852SOL     OW 3454   0.517   5.950   0.715 -0.8871 -0.4335 -0.3335
  852SOL    HW1 3455   0.442   5.899   0.673 -2.3212  1.1903  0.1205
  852SOL    HW2 3456   0.496   5.963   0.812 -0.1366  0.2770 -0.2659
  853SOL     OW 3457   2.642   2.830   1.660 -0.3981 -0.1410 -0.0815
  853SOL    HW1 3458   2.720   2.769   1.677  0.6265  0.6874 -1.5551
  853SOL    HW2 3459   2.560   2.792   1.702  0.6985 -1.2809  1.1251
  854SOL     OW 3460   5.848   1.142   6.013  0.0638  0.3463 -0.1136
  854SOL    HW1 3461   5.822   1.054   6.053  0.7967  0.1219 -0.1026
  854SOL    HW2 3462   5.946   1.141   5.993  0.2558  1.4796  0.7025
  855SOL     OW 3463   4.812   0.731   5.517 -0.3631  0.2286 -0.2993
  855SOL    HW1 3464   4.906   0.734   5.553 -0.5277  3.4474  0.1508
  855SOL    HW2 3465   4.802   0.650   5.459  1.9556 -1.4802  1.4352
  856SOL     OW 3466   2.946   4.354   1.008 -0.3642  0.3297 -0.4661
  856SOL    HW1 3467   2.994   4.404   1.079  0.0474 -2.8051  1.6742
  856SOL    HW2 3468   2.872   4.300   1.048 -0.4990 -1.1277 -2.4727
  857SOL     OW 3469   0.982   5.583   4.332  0.9703 -0.2658 -0.2835
  857SOL    HW1 3470   1.028   5.496   4.311 -0.2428 -0.8280 -0.7240
  857SOL    HW2 3471   0.906   5.596   4.269 -0.2491  0.0076  1.1930
  858SOL     OW 3472   3.870   3.469   0.155  0.4337 -0.0231 -0.5580
  858SOL    HW1 3473   3.884   3.388   0.212 -2.3983 -0.9979 -1.0833
  858SOL    HW2 3474   3.820   3.538   0.207  2.9319  1.5616 -0.0719
  859SOL     OW 3475   3.171   6.102   0.246  0.6100 -0.7263  0.5417
  859SOL    HW1 3476   3.083   6.142   0.273  0.6138  0.2671 -0.7872
  859SOL    HW2 3477   3.157   6.039   0.170  1.1704  0.6095 -0.7349
  860SOL     OW 3478   5.057   4.655   6.111  0.0434 -0.5529 -0.0573
  860SOL    HW1 3479   5.043   4.597   6.031 -1.3648  1.5587 -1.4319
  860SOL    HW2 3480   4.973   4.656   6.166  0.9393 -1.8457  1.4267
  861SOL     OW 3481   6.320   5.970   2.626  0.0875 -1.0462 -0.0642
  861SOL    HW1 3482   6.297   6.019   2.710  0.4585 -1.2365  0.1494
  861SOL    HW2 3483   6.246   5.906   2.603  0.0295 -1.0621  0.1656
  862SOL     OW 3484   1.240   4.762   4.844 -0.4421  0.3870 -0.2258
  862SOL    HW1 3485   1.227   4.832   4.915 -0.7501 -0.6590  0.7668
  862SOL    HW2 3486   1.324   4.712   4.863 -0.0293  0.7213 -1.1492
  863SOL     OW 3487   5.985   1.866   1.672 -0.3068  0.9558  0.9606
  863SOL    HW1 3488   5.910   1.819   1.718  0.6373  0.2602  1.8314
  863SOL    HW2 3489   6.007   1.950   1.722  0.7332  0.1894  1.8329
  864SOL     OW 3490   0.342   6.375   5.048  0.1844 -0.3270  0.1367
  864SOL    HW1 3491   0.295   6.366   5.136  1.4891  1.0239  1.0162
  864SOL    HW2 3492   0.298   6.449   4.995  2.0244  1.8843  1.5274
  865SOL     OW 3493   1.526   3.441   3.630 -0.4879  0.1425 -0.1407
  865SOL    HW1 3494   1.540   3.395   3.542  0.9905 -0.5952  0.4390
  865SOL    HW2 3495   1.436   3.485   3.631 -1.1538 -1.1062 -1.4519
  866SOL     OW 3496   3.633   6.204   2.217  0.0755  0.2021  0.2822
  866SOL    HW1 3497   3.599   6.277   2.277  0.9342  1.1671 -0.3604
  866SOL    HW2 3498   3.624   6.116   2.263  0.9066  0.9222  1.9256
  867SOL     OW 3499   5.762   4.645   4.966  0.0563  0.2973 -0.0262
  867SOL    HW1 3500   5.754   4.576   4.894 -1.7254  0.9837 -0.5432
  867SOL    HW2 3501   5.771   4.600   5.055 -1.3683 -0.6198 -0.3185
  868SOL     OW 3502   6.341   6.990   3.007 -0.0620 -0.4208 -0.1012
  868SOL    HW1 3503   6.422   6.987   2.948  1.0559  1.8437  1.1457
  868SOL    HW2 3504   6.348   6.920   3.078 -0.3480 -1.7059 -1.2938
  869SOL     OW 3505   0.781   0.830   6.842 -0.2009  0.3629  0.0361
  869SOL    HW1 3506   0.764   0.731   6.839  2.1137 -0.1013  0.6264
  869SOL    HW2 3507   0.814   0.856   6.932  1.1441  1.3096 -0.6918
  870SOL     OW 3508   4.448   5.332   3.340 -0.0134 -0.0511 -0.7020
  870SOL    HW1 3509   4.426   5.252   3.397 -0.7264  0.9505  0.4617
  870SOL    HW2 3510   4.369   5.356   3.285  1.1016 -1.9054 -3.3471
  871SOL     OW 3511   3.472   2.904   6.271 -0.2398 -0.0535  0.3276
  871SOL    HW1 3512   3.395   2.966   6.254  0.0151  0.4029  0.8013
  871SOL    HW2 3513   3.549   2.931   6.214 -0.3094 -0.2873  0.1204
  872SOL     OW 3514   1.767   3.909   4.646  0.2096 -0.4442  0.3526
  872SOL    HW1 3515   1.788   3.968   4.724  2.6982  1.4183 -1.5647
  872SOL    HW2 3516   1.845   3.850   4.626  0.0210 -0.1642 -1.3247
  873SOL     OW 3517   3.872   0.707   0.928  0.2433 -0.1336 -0.2146
  873SOL    HW1 3518   3.952   0.647   0.927  0.3664  0.0186 -1.9171
  873SOL    HW2 3519   3.847   0.727   1.023  1.8796 -0.6257  0.3624
  874SOL     OW 3520   5.350   3.845   2.178 -0.0839 -0.1753  0.4646
  874SOL    HW1 3521   5.284   3.786   2.130 -0.4519 -0.2673  1.0730
  874SOL    HW2 3522   5.377   3.801   2.264  0.3852  0.1017  0.4616
  875SOL     OW 3523   0.176   5.771   2.717 -0.0299 -0.0002  0.3826
  875SOL    HW1 3524   0.238   5.743   2.644  0.0604 -0.3864  0.6078
  875SOL    HW2 3525   0.143   5.691   2.767 -0.6790  0.2022  0.2959
  876SOL     OW 3526   5.787   2.201   6.988 -0.5791 -0.1460  0.3698
  876SOL    HW1 3527   5.849   2.235   7.058 -1.8740  0.4640  1.2751
  876SOL    HW2 3528   5.831   2.128   6.936  1.2176  0.9200  0.3143
  877SOL     OW 3529   2.038   2.438   0.018  0.0777  0.0149  0.0367
  877SOL    HW1 3530   2.097   2.376   0.069  0.6256  1.1982  0.8965
  877SOL    HW2 3531   1.996   2.389  -0.059  2.4212 -0.8223 -0.8103
  878SOL     OW 3532   3.419   4.946   4.532 -0.3095  0.4852  0.7531
  878SOL    HW1 3533   3.417   4.852   4.569 -2.0151  0.6837  1.2744
  878SOL    HW2 3534   3.365   5.005   4.592  1.1430  1.9316  0.6909
  879SOL     OW 3535   3.801   0.268   0.629 -0.0649 -0.1785  0.0100
  879SOL    HW1 3536   3.746   0.283   0.546  0.2032  0.0004 -0.1350
  879SOL    HW2 3537   3.778   0.179   0.668 -1.7607  0.6025  0.9338
  880SOL     OW 3538   3.614   3.257   1.738 -0.1580 -0.0035  0.1425
  880SOL    HW1 3539   3.516   3.241   1.731 -0.0249 -0.9839  0.4454
  880SOL    HW2 3540   3.649   3.216   1.822  0.5980 -0.1065 -0.2129
  881SOL     OW 3541   5.293   2.916   0.978 -0.5103  0.9229  0.1372
  881SOL    HW1 3542   5.317   2.820   0.997 -0.3707  0.8341 -0.4705
  881SOL    HW2 3543   5.373   2.964   0.943 -0.2775  1.5631  1.4864
  882SOL     OW 3544   1.540   3.638   2.873  0.1117  0.3199  0.6516
  882SOL    HW1 3545   1.554   3.550   2.828  1.0906  0.7455  0.0916
  882SOL    HW2 3546   1.474   3.693   2.821  0.5157  0.4373  0.2627
  883SOL     OW 3547   1.400   5.484   1.153  0.1151  0.0440 -0.6303
  883SOL    HW1 3548   1.484   5.494   1.206  0.3333 -1.3822 -0.6491
  883SOL    HW2 3549   1.383   5.567   1.100  0.2157  1.2588  1.1703
  884SOL     OW 3550   3.096   4.026   6.486 -0.6751  0.2124  0.0822
  884SOL    HW1 3551   3.059   3.935   6.468 -0.0835 -0.0588  0.2085
  884SOL    HW2 3552   3.177   4.018   6.544 -0.0289  0.7382 -0.7231
  885SOL     OW 3553   2.747   4.641   0.689 -0.4962 -0.1956  0.7161
  885SOL    HW1 3554   2.800   4.701   0.629 -0.0060  0.0350  1.3730
  885SOL    HW2 3555   2.706   4.695   0.762  0.8559 -0.7979  1.9626
  886SOL     OW 3556   0.967   0.469   6.334 -0.0005 -0.1925 -0.2532
  886SOL    HW1 3557   0.967   0.567   6.316  0.2081  0.3267  2.2247
  886SOL    HW2 3558   1.034   0.448   6.405  1.4935 -2.4891 -2.1977
  887SOL     OW 3559   4.793   1.975   6.481  0.1053  0.4078  0.5297
  887SOL    HW1 3560   4.711   1.941   6.526  0.6599 -0.5249  0.8709
  887SOL    HW2 3561   4.797   1.941   6.387  0.2400  0.2135  0.6044
  888SOL     OW 3562   1.519   6.420   1.983 -0.1315 -0.0853 -0.1597
  888SOL    HW1 3563   1.428   6.426   2.025 -0.3576  0.6041 -0.7213
  888SOL    HW2 3564   1.589   6.436   2.053 -0.4113 -1.2677  0.4018
  889SOL     OW 3565   0.608   4.618   6.838 -0.5485  0.5632  0.3751
  889SOL    HW1 3566   0.538   4.587   6.903 -0.7291  2.4636  1.1575
  889SOL    HW2 3567   0.686   4.556   6.841 -0.5042  0.6403  2.5160
  890SOL     OW 3568   2.154   5.478   0.270 -0.1744 -0.3451 -0.4091
  890SOL    HW1 3569   2.118   5.423   0.345  1.2822 -1.2400 -0.3264
  890SOL    HW2 3570   2.241   5.519   0.297 -0.3869  0.6003 -1.0878
  891SOL     OW 3571   4.166   5.049   3.071 -0.3131  0.2190 -0.2133
  891SOL    HW1 3572   4.130   4.956   3.069 -0.2306  0.1930 -1.3281
  891SOL    HW2 3573   4.112   5.105   3.133 -2.6753  0.3351 -2.2381
  892SOL     OW 3574   2.221   3.212   0.497  0.4121  0.4703 -0.5972
  892SOL    HW1 3575   2.226   3.227   0.398  3.2719 -0.7576 -0.7451
  892SOL    HW2 3576   2.183   3.293   0.542 -1.7830  0.7382 -2.7026
  893SOL     OW 3577   2.239   6.626   3.087 -0.3380  0.1046 -0.0447
  893SOL    HW1 3578   2.166   6.558   3.096  0.3161 -0.5269  0.5372
  893SOL    HW2 3579   2.328   6.583   3.102  0.0377  1.2510  1.2603
  894SOL     OW 3580   6.973   3.487   2.236 -0.1062  0.3089 -0.2306
  894SOL    HW1 3581   6.972   3.410   2.299  0.4584  1.0453  0.7024
  894SOL    HW2 3582   7.066   3.524   2.230 -0.1656  0.3045 -1.4372
  895SOL     OW 3583   0.623   4.807   4.948  0.5814  0.2886 -0.2863
  895SOL    HW1 3584   0.543   4.832   5.002  1.1319 -0.6088  0.9706
  895SOL    HW2 3585   0.614   4.713   4.915  1.3622 -0.0137  0.3374
  896SOL     OW 3586   6.836   0.779   5.885 -0.2965 -0.3703 -0.7651
  896SOL    HW1 3587   6.760   0.756   5.946 -0.1667  0.3141 -0.3391
  896SOL    HW2 3588   6.823   0.872   5.850  1.4766  0.6662  1.0982
  897SOL     OW 3589   5.203   2.375   1.781  0.2092 -1.0949 -0.4717
  897SOL    HW1 3590   5.104   2.383   1.768 -0.1334 -1.9361  1.2522
  897SOL    HW2 3591   5.228   2.278   1.782  1.3238 -0.8775 -2.4370
  898SOL     OW 3592   4.553   1.269   1.948 -0.3101  0.0793 -0.3051
  898SOL    HW1 3593   4.516   1.293   1.858 -2.2549  2.8136  1.0900
  898SOL    HW2 3594   4.648   1.300   1.955 -1.2471  3.2728 -0.2915
  899SOL     OW 3595   6.194   4.106   1.263  0.1270  0.4257  0.2924
  899SOL    HW1 3596   6.271   4.121   1.201  0.6466 -0.3434  0.7294
  899SOL    HW2 3597   6.201   4.015   1.303 -1.0157  0.3431  0.3483
  900SOL     OW 3598   4.699   5.677   4.472 -0.0599 -0.2096 -0.3240
  900SOL    HW1 3599   4.763   5.607   4.440  1.6113  1.2403 -0.3486
  900SOL    HW2 3600   4.745   5.766   4.472 -2.1596  0.9384 -0.4609
  901SOL     OW 3601   2.328   0.704   1.569  0.2532  0.0905  0.4318
  901SOL    HW1 3602   2.340   0.747   1.480  2.5639 -0.7124  0.2902
  901SOL    HW2 3603   2.309   0.774   1.638 -1.4340  0.7278 -0.6222
  902SOL     OW 3604   6.357   3.738   0.622  0.5512 -0.5126  0.4584
  902SOL    HW1 3605   6.367   3.653   0.570 -1.9868 -0.1835 -0.7368
  902SOL    HW2 3606   6.373   3.720   0.719  1.3807 -2.0458  0.0580
  903SOL     OW 3607   4.895   0.345   0.102 -0.5139 -0.5054 -0.4332
  903SOL    HW1 3608   4.827   0.275   0.078  0.7790 -1.7125 -0.7271
  903SOL    HW2 3609   4.961   0.354   0.027  1.3157 -1.4892  0.9877
  904SOL     OW 3610   3.549   1.152   4.325 -0.3002  0.0442  0.3287
  904SOL    HW1 3611   3.591   1.218   4.386 -0.7439 -0.2407  0.9503
  904SOL    HW2 3612   3.475   1.195   4.274 -0.6878 -0.0088  0.8432
  905SOL     OW 3613   5.511   0.858   0.737  0.1970  0.0615  0.7529
  905SOL    HW1 3614   5.560   0.927   0.684  1.0004  0.0877  1.5067
  905SOL    HW2 3615   5.566   0.775   0.744 -0.6748 -0.6039  0.0318
  906SOL     OW 3616   4.966   3.958   0.648  0.5464  0.0418 -0.1118
  906SOL    HW1 3617   5.004   4.039   0.692  0.9272 -0.3761  0.3350
  906SOL    HW2 3618   4.899   3.986   0.579  0.7811  0.7380 -0.0627
  907SOL     OW 3619   6.548   4.141   0.423  0.0469  0.3670 -0.0265
  907SOL    HW1 3620   6.557   4.234   0.458 -2.2151  0.2917  0.8819
  907SOL    HW2 3621   6.582   4.076   0.491  1.9053  0.4745 -0.7782
  908SOL     OW 3622   0.942   4.039   2.897  0.0227 -0.2953 -0.3998
  908SOL    HW1 3623   0.940   3.993   2.809  0.1240 -0.3702 -0.3628
  908SOL    HW2 3624   0.895   4.128   2.890 -0.0490 -0.3417 -0.5049
  909SOL     OW 3625   4.944   3.821   0.293 -0.6390 -0.1422  0.3890
  909SOL    HW1 3626   4.976   3.727   0.292 -0.1816 -0.0183  1.4176
  909SOL    HW2 3627   4.983   3.871   0.216  0.8566 -0.2565  1.0355
  910SOL     OW 3628   2.915   4.638   5.768 -0.0843  0.0963 -0.1578
  910SOL    HW1 3629   2.928   4.541   5.788  3.3061  0.3565 -0.3813
  910SOL    HW2 3630   2.999   4.675   5.727 -2.0628  2.6447 -2.2345
  911SOL     OW 3631   1.726   2.983   5.661 -0.3357 -0.0352  0.1289
  911SOL    HW1 3632   1.727   3.066   5.718  0.2088 -0.5790  0.9366
  911SOL    HW2 3633   1.663   2.996   5.585  0.2147  1.3623 -0.1227
  912SOL     OW 3634   4.336   5.800   4.467  0.2115 -0.1311  0.1118
  912SOL    HW1 3635   4.310   5.766   4.376 -1.2132 -1.0592  0.8095
  912SOL    HW2 3636   4.378   5.890   4.459 -2.2715  1.0069 -1.2937
  913SOL     OW 3637   6.242   0.359   2.798 -0.1823  0.3470  0.0815
  913SOL    HW1 3638   6.337   0.362   2.767 -0.6848  1.1671 -1.5135
  913SOL    HW2 3639   6.238   0.377   2.896  1.2690  0.8880  0.0629
  914SOL     OW 3640   2.887   6.519   4.713 -0.3662  0.1482  0.0417
  914SOL    HW1 3641   2.858   6.585   4.644  1.0677  0.3880 -0.3833
  914SOL    HW2 3642   2.859   6.427   4.685  0.7222  0.1582 -1.2308
  915SOL     OW 3643   7.001   4.575   3.131 -0.0943  0.4829  0.1691
  915SOL    HW1 3644   7.009   4.533   3.040 -0.8963 -0.8976  0.7022
  915SOL    HW2 3645   6.908   4.560   3.166  0.5739 -0.1393  1.7446
  916SOL     OW 3646   1.427   1.670   2.764  0.0762  0.1972 -0.4772
  916SOL    HW1 3647   1.374   1.732   2.823  1.2999  0.9426 -0.1232
  916SOL    HW2 3648   1.476   1.724   2.695  2.0423 -0.2292  0.5201
  917SOL     OW 3649   1.676   0.657   5.509 -0.1544  0.4075  0.4837
  917SOL    HW1 3650   1.585   0.690   5.482 -0.1684  0.4322  0.5603
  917SOL    HW2 3651   1.746   0.714   5.466 -0.0894 -1.5283 -2.1661
  918SOL     OW 3652   4.143   6.428   6.905 -0.2392  0.0759 -0.4476
  918SOL    HW1 3653   4.061   6.407   6.851  1.1128 -0.6463 -2.3300
  918SOL    HW2 3654   4.216   6.365   6.879  0.5213 -0.2667  2.2493
  919SOL     OW 3655   4.774   0.398   5.877 -0.7492  0.3411 -0.1003
  919SOL    HW1 3656   4.713   0.331   5.919 -0.1695  0.2360  0.5997
  919SOL    HW2 3657   4.737   0.427   5.789 -0.7084 -1.3852 -0.7341
  920SOL     OW 3658   2.321   4.957   1.030  0.2138  0.3440 -0.2333
  920SOL    HW1 3659   2.320   4.943   0.931  4.4992  4.2603 -1.1505
  920SOL    HW2 3660   2.372   4.882   1.073  0.1143 -0.3352 -1.2467
  921SOL     OW 3661   3.470   0.543   5.583  0.0453 -0.6254  0.2296
  921SOL    HW1 3662   3.567   0.525   5.601 -0.0487  0.2395  1.8335
  921SOL    HW2 3663   3.417   0.517   5.664 -0.7270  1.4363  0.4389
  922SOL     OW 3664   3.217   3.401   2.372  0.3851  0.4714  0.1694
  922SOL    HW1 3665   3.254   3.339   2.303  3.0850  0.9475  1.0890
  922SOL    HW2 3666   3.175   3.348   2.446  1.2000 -0.2109  0.1534
  923SOL     OW 3667   1.879   5.240   5.514  0.1381 -0.3975 -0.0839
  923SOL    HW1 3668   1.918   5.309   5.452  0.9056 -1.8271 -1.2502
  923SOL    HW2 3669   1.891   5.149   5.474 -2.9525 -1.0761  0.2843
  924SOL     OW 3670   5.855   4.130   2.712 -0.1171  0.1099  0.1850
  924SOL    HW1 3671   5.912   4.058   2.752 -1.3856 -0.9666  0.1243
  924SOL    HW2 3672   5.890   4.153   2.621 -0.2330 -1.1285 -0.1896
  925SOL     OW 3673   0.711   0.981   5.846  0.3473  0.9667  0.6054
  925SOL    HW1 3674   0.638   0.990   5.914  0.0885 -0.3064  0.5188
  925SOL    HW2 3675   0.772   0.907   5.872 -0.0506  0.1149 -0.8088
  926SOL     OW 3676   2.140   0.913   6.216  0.0470  0.0654 -0.4600
  926SOL    HW1 3677   2.220   0.973   6.214  0.1040  0.0248 -2.6235
  926SOL    HW2 3678   2.169   0.817   6.216  0.0668  0.0384 -2.3065
  927SOL     OW 3679   6.114   2.956   3.991 -0.7358  0.4426 -0.2450
  927SOL    HW1 3680   6.114   2.880   3.926 -3.0297  0.7908 -0.7376
  927SOL    HW2 3681   6.109   3.043   3.942 -2.7166  0.7015  0.3201
  928SOL     OW 3682   2.602   4.827   4.831  0.1049 -0.7102  0.3888
  928SOL    HW1 3683   2.605   4.760   4.904 -1.2065  0.1136  1.2394
  928SOL    HW2 3684   2.516   4.819   4.781  0.0558  0.1226  0.3160
  929SOL     OW 3685   1.187   3.199   5.661  0.0866 -0.7975 -0.2128
  929SOL    HW1 3686   1.153   3.269   5.597 -0.1593 -0.8886 -0.1829
  929SOL    HW2 3687   1.202   3.240   5.751 -2.8715 -1.3608  0.6460
  930SOL     OW 3688   6.127   6.682   4.107  0.6134  0.2073 -0.2268
  930SOL    HW1 3689   6.098   6.701   4.201 -1.0505 -4.0457  0.3688
  930SOL    HW2 3690   6.220   6.645   4.108  0.2274 -0.8021 -0.0445
  931SOL     OW 3691   6.520   0.879   1.409 -0.0098  0.3203  0.2858
  931SOL    HW1 3692   6.441   0.936   1.386  0.1797  0.2962 -0.4439
  931SOL    HW2 3693   6.527   0.870   1.508 -0.3527  1.1382  0.3914
  932SOL     OW 3694   5.254   1.223   3.110  0.1051  0.2290  0.2295
  932SOL    HW1 3695   5.277   1.293   3.043  0.1726  0.6087  0.6476
  932SOL    HW2 3696   5.256   1.133   3.066  1.2819  0.3537 -0.0072
  933SOL     OW 3697   0.283   4.945   0.750  0.0766 -0.4900  0.4778
  933SOL    HW1 3698   0.200   4.998   0.769 -1.3829 -2.1104 -1.0888
  933SOL    HW2 3699   0.300   4.943   0.652  1.8333 -0.4579  0.7469
  934SOL     OW 3700   1.007   4.597   0.642  0.1893  0.2636  0.3174
  934SOL    HW1 3701   1.013   4.677   0.703  0.5890  1.2659 -0.9827
  934SOL    HW2 3702   0.915   4.559   0.645 -0.5112  1.8125 -0.2773
  935SOL     OW 3703   5.700   4.492   5.978  0.6671 -0.0929  0.3066
  935SOL    HW1 3704   5.622   4.452   6.026  0.3145  1.0840  0.7426
  935SOL    HW2 3705   5.671   4.520   5.886  0.3120  1.1776  0.7869
  936SOL     OW 3706   2.085   0.845   5.461  0.2726 -0.9686 -0.6969
  936SOL    HW1 3707   2.083   0.781   5.539 -1.8263  0.4963  0.5319
  936SOL    HW2 3708   2.071   0.794   5.376  0.2912 -2.3360  0.0917
  937SOL     OW 3709   3.085   2.905   0.306  0.0760  0.4668  0.0802
  937SOL    HW1 3710   2.996   2.907   0.351 -0.1961 -1.1305 -0.3139
  937SOL    HW2 3711   3.074   2.874   0.211  1.0866 -0.1302  0.1409
  938SOL     OW 3712   3.128   0.524   4.223  0.0586 -0.5389 -0.2044
  938SOL    HW1 3713   3.079   0.443   4.258 -2.4739  0.9650  0.0056
  938SOL    HW2 3714   3.102   0.539   4.128 -0.5686  0.7584  0.1556
  939SOL     OW 3715   0.697   5.850   3.074 -0.0195  0.2116  0.2290
  939SOL    HW1 3716   0.670   5.765   3.029  3.1661  0.3600 -2.3241
  939SOL    HW2 3717   0.624   5.917   3.064 -0.8203 -0.8660 -1.7581
  940SOL     OW 3718   6.380   3.505   0.488 -0.1619  0.4125 -0.5061
  940SOL    HW1 3719   6.286   3.474   0.499  0.6336 -1.5012  1.6972
  940SOL    HW2 3720   6.435   3.430   0.450  0.8849  0.7304  0.3396
  941SOL     OW 3721   4.942   0.123   0.254 -0.5044 -0.1075  0.1626
  941SOL    HW1 3722   4.938   0.214   0.212  0.4977 -0.5602 -0.9798
  941SOL    HW2 3723   4.857   0.074   0.238 -1.5114  1.0103  1.7757
  942SOL     OW 3724   1.013   6.372   1.058  0.4499 -0.4499  0.7355
  942SOL    HW1 3725   1.091   6.369   1.121  1.8436  2.1002 -0.6980
  942SOL    HW2 3726   1.036   6.322   0.974  0.1700 -0.4579  0.6620
  943SOL     OW 3727   2.777   4.948   2.308  0.5421 -0.3930 -0.6154
  943SOL    HW1 3728   2.717   4.879   2.266 -0.8882  1.1621 -1.2557
  943SOL    HW2 3729   2.848   4.975   2.243 -1.2730  1.5305 -1.9285
  944SOL     OW 3730   0.058   6.292   4.078 -0.8422  0.3665  0.1194
  944SOL    HW1 3731   0.059   6.214   4.016  0.6716  0.5710 -0.1434
  944SOL    HW2 3732   0.064   6.259   4.173 -4.4451 -0.0242  0.3586
  945SOL     OW 3733   0.079   6.759   5.147  0.0793 -0.1820 -0.4161
  945SOL    HW1 3734   0.159   6.819   5.150 -1.2993  1.6874  0.5778
  945SOL    HW2 3735   0.011   6.797   5.084 -0.9717 -0.4840  0.5100
  946SOL     OW 3736   5.371   0.483   2.409 -0.5818  0.3022  0.5191
  946SOL    HW1 3737   5.417   0.428   2.479 -0.5363 -0.7195 -0.2908
  946SOL    HW2 3738   5.393   0.580   2.422 -0.4359  0.1041  1.8005
  947SOL     OW 3739   3.559   4.009   3.203  0.1381  0.3213 -0.4550
  947SOL    HW1 3740   3.553   3.910   3.191 -2.0941 -0.0105  2.3165
  947SOL    HW2 3741   3.655   4.037   3.200  1.2358 -2.5256  2.2512
  948SOL     OW 3742   3.614   1.525   2.411 -0.5818  0.1422 -0.3701
  948SOL    HW1 3743   3.621   1.600   2.345  0.1694  1.6825  1.3602
  948SOL    HW2 3744   3.695   1.467   2.405  0.4407  1.4194  0.4577
  949SOL     OW 3745   2.034   0.161   6.259  0.2134 -0.0931 -0.3416
  949SOL    HW1 3746   1.944   0.189   6.226  0.8712  0.6773 -1.5630
  949SOL    HW2 3747   2.023   0.102   6.339 -1.3478  0.4735 -0.0957
  950SOL     OW 3748   1.308   6.780   1.409  0.0044 -0.2082 -0.4070
  950SOL    HW1 3749   1.242   6.732   1.467 -1.0225  0.6809 -0.7951
  950SOL    HW2 3750   1.268   6.796   1.319 -0.9876  3.8973  0.5218
  951SOL     OW 3751   2.744   2.332   3.194 -0.6807  0.3795  0.7992
  951SOL    HW1 3752   2.834   2.311   3.154 -0.3987  1.4845  0.8134
  951SOL    HW2 3753   2.685   2.373   3.125 -2.2718 -3.0710 -0.0464
  952SOL     OW 3754   3.955   2.296   1.752  0.4528  0.1259 -0.3313
  952SOL    HW1 3755   3.870   2.310   1.802  1.1498  0.6615  0.7372
  952SOL    HW2 3756   3.943   2.328   1.657 -0.6608 -0.2376 -0.3274
  953SOL     OW 3757   2.562   1.184   5.446 -0.0858 -0.2851  0.1610
  953SOL    HW1 3758   2.662   1.194   5.445 -0.2150  1.1902 -0.4051
  953SOL    HW2 3759   2.520   1.269   5.415 -1.5320 -0.8967  0.3798
  954SOL     OW 3760   4.950   1.149   2.720  0.3956  0.2436 -0.6014
  954SOL    HW1 3761   4.983   1.235   2.680 -0.4409  0.1251 -1.5848
  954SOL    HW2 3762   4.850   1.148   2.719  0.3923 -1.1467 -1.5214
  955SOL     OW 3763   3.781   6.282   1.373  0.4317  0.1936 -0.3200
  955SOL    HW1 3764   3.722   6.358   1.346  1.8394  1.3406 -0.3214
  955SOL    HW2 3765   3.833   6.307   1.455  0.5778 -0.9589 -0.0415
  956SOL     OW 3766   1.989   5.057   2.938 -0.4542  0.2150  0.4680
  956SOL    HW1 3767   1.959   5.038   2.844  1.1877  1.0479 -0.2608
  956SOL    HW2 3768   1.908   5.066   2.997 -1.4846 -1.1566 -0.6735
  957SOL     OW 3769   6.703   6.792   3.293  0.0596  0.4422 -0.1352
  957SOL    HW1 3770   6.656   6.704   3.284 -0.6873  0.7819  0.3664
  957SOL    HW2 3771   6.644   6.856   3.341  1.6804  0.3795  2.0888
  958SOL     OW 3772   6.574   5.597   2.330  0.1540 -0.4544 -0.1891
  958SOL    HW1 3773   6.648   5.630   2.389 -0.2130 -1.7963  1.0905
  958SOL    HW2 3774   6.494   5.576   2.386 -0.2134 -1.7710 -1.1574
  959SOL     OW 3775   5.282   2.410   4.132 -0.1631  0.6514  0.0545
  959SOL    HW1 3776   5.256   2.499   4.096  0.6811  0.2733 -1.5965
  959SOL    HW2 3777   5.257   2.338   4.066  1.3550 -0.0769  0.2137
  960SOL     OW 3778   2.487   1.564   4.839  0.2702  0.2577  0.3936
  960SOL    HW1 3779   2.433   1.620   4.902 -0.1329  0.1270  0.1655
  960SOL    HW2 3780   2.494   1.610   4.750 -0.2830 -0.1683  0.1249
  961SOL     OW 3781   4.725   1.817   4.257  0.4007  0.3355  0.0016
  961SOL    HW1 3782   4.671   1.776   4.331 -0.1557  1.8189  0.4694
  961SOL    HW2 3783   4.730   1.754   4.180 -2.0160  0.1100 -0.0594
  962SOL     OW 3784   0.494   6.772   4.761 -0.2695  0.4984 -0.2568
  962SOL    HW1 3785   0.477   6.841   4.691 -2.2318  0.8887  0.5320
  962SOL    HW2 3786   0.592   6.761   4.775  0.0975  2.0819 -1.4220
  963SOL     OW 3787   6.734   2.544   1.771  0.0107  0.1241 -0.2761
  963SOL    HW1 3788   6.637   2.558   1.751 -0.0624  1.4634  0.8398
  963SOL    HW2 3789   6.789   2.613   1.725  0.3007  0.2047  0.1764
  964SOL     OW 3790   1.965   5.541   5.587 -0.5627  0.2667 -0.2344
  964SOL    HW1 3791   1.968   5.499   5.496 -0.7075 -0.8922  0.2869
  964SOL    HW2 3792   1.890   5.502   5.640 -0.5610  1.0267  0.3543
  965SOL     OW 3793   6.471   2.595   6.619  0.7282 -0.3505  0.3401
  965SOL    HW1 3794   6.480   2.569   6.523  1.0013 -0.7471  0.4742
  965SOL    HW2 3795   6.534   2.542   6.675 -2.5578 -3.5484  1.3745
  966SOL     OW 3796   5.789   6.468   2.778 -0.0523 -0.3353  0.3096
  966SOL    HW1 3797   5.825   6.397   2.839 -1.7985 -0.7678  0.8991
  966SOL    HW2 3798   5.840   6.467   2.692  2.5345  0.3623  1.7522
  967SOL     OW 3799   2.034   4.984   6.084 -0.0387  0.5016 -0.7220
  967SOL    HW1 3800   1.963   4.932   6.131  1.1583 -4.1202 -3.3340
  967SOL    HW2 3801   2.109   5.002   6.147 -0.5324 -0.9821  0.3521
  968SOL     OW 3802   3.895   0.065   1.905 -0.4783 -0.1182 -0.5957
  968SOL    HW1 3803   3.857   0.075   1.814  1.2890 -0.8960 -1.4629
  968SOL    HW2 3804   3.828   0.022   1.965 -1.9509  1.1419 -1.2825
  969SOL     OW 3805   3.310   5.116   0.972  0.0256  0.0754  0.0763
  969SOL    HW1 3806   3.319   5.095   0.874 -0.9515 -2.8551  0.5247
  969SOL    HW2 3807   3.242   5.189   0.984 -1.0407 -0.6311 -1.3490
  970SOL     OW 3808   2.606   5.821   5.864  0.7797  0.0371  0.3008
  970SOL    HW1 3809   2.556   5.865   5.939 -1.9056  0.7721 -1.7601
  970SOL    HW2 3810   2.698   5.799   5.894 -0.3969 -0.4355  4.0345
  971SOL     OW 3811   4.543   2.398   2.180 -0.0659 -0.0174  0.7052
  971SOL    HW1 3812   4.543   2.355   2.089  0.6802 -0.6422  0.9816
  971SOL    HW2 3813   4.453   2.389   2.221 -0.2297 -0.3285  0.2897
  972SOL     OW 3814   1.148   2.526   0.979  0.1553 -0.6165  0.0111
  972SOL    HW1 3815   1.073   2.514   0.913 -0.7875 -1.4646  1.1961
  972SOL    HW2 3816   1.183   2.436   1.006  0.5550 -0.2736  0.6449
  973SOL     OW 3817   5.338   2.320   3.299  0.0361  0.5339 -0.6098
  973SOL    HW1 3818   5.359   2.275   3.212 -1.7853  1.6324 -1.6844
  973SOL    HW2 3819   5.239   2.323   3.312  0.2621 -1.0206  2.3323
  974SOL     OW 3820   0.958   3.096   1.581  0.3944 -0.2565 -0.8422
  974SOL    HW1 3821   1.047   3.068   1.543 -0.2784 -0.5720 -2.2325
  974SOL    HW2 3822   0.949   3.059   1.674  1.7538 -0.1247 -0.6348
  975SOL     OW 3823   3.593   0.801   0.962 -0.2253 -0.4350  0.2326
  975SOL    HW1 3824   3.527   0.769   1.029  1.0125 -2.1732  0.6822
  975SOL    HW2 3825   3.685   0.794   0.999  0.3406  0.6060 -0.8874
  976SOL     OW 3826   6.464   2.524   3.030 -0.1912  0.1610  0.2741
  976SOL    HW1 3827   6.519   2.597   3.070  2.8383 -2.2022  0.8529
  976SOL    HW2 3828   6.439   2.459   3.102  1.3157 -1.7419 -0.8332
  977SOL     OW 3829   6.091   1.117   2.196  0.5265 -0.0943  0.1423
  977SOL    HW1 3830   6.000   1.119   2.237  0.6110  4.6286  0.6840
  977SOL    HW2 3831   6.086   1.148   2.102  1.3606 -2.6275 -0.8202
  978SOL     OW 3832   5.826   0.372   2.219 -0.0170  0.0107 -0.4195
  978SOL    HW1 3833   5.800   0.301   2.284 -0.4027  1.6475  1.2957
  978SOL    HW2 3834   5.781   0.458   2.243  1.5599  1.2217 -1.5560
  979SOL     OW 3835   0.450   4.563   1.317  0.0873 -0.1469  0.2193
  979SOL    HW1 3836   0.371   4.571   1.256  1.1279  0.6869 -1.1005
  979SOL    HW2 3837   0.442   4.629   1.392 -1.1586 -1.1096  0.9577
  980SOL     OW 3838   4.696   2.610   2.290  0.0571 -0.4295  0.0788
  980SOL    HW1 3839   4.681   2.688   2.229  0.2688 -0.6024 -0.1969
  980SOL    HW2 3840   4.668   2.526   2.245 -0.1663 -0.5131  0.3752
  981SOL     OW 3841   0.814   5.798   5.326  0.3136 -0.0320 -0.1329
  981SOL    HW1 3842   0.791   5.894   5.341 -1.2235 -0.3127 -0.5838
  981SOL    HW2 3843   0.731   5.743   5.323  1.1595 -1.3706 -0.0494
  982SOL     OW 3844   0.239   6.846   0.637 -0.2644  0.4785 -0.5034
  982SOL    HW1 3845   0.178   6.879   0.565 -1.8794 -0.0398  0.5640
  982SOL    HW2 3846   0.198   6.765   0.681  1.6258 -0.4329 -0.3219
  983SOL     OW 3847   1.036   4.882   2.941  0.2468  0.1364  0.1875
  983SOL    HW1 3848   1.117   4.857   2.888 -0.4647 -2.5513  0.2019
  983SOL    HW2 3849   0.955   4.881   2.882  0.0158  1.4081  0.4568
  984SOL     OW 3850   6.136   2.358   2.173 -0.0465  0.7988 -0.6192
  984SOL    HW1 3851   6.205   2.422   2.207 -0.0908 -0.8662  3.0525
  984SOL    HW2 3852   6.050   2.374   2.221  0.1137 -2.2959  0.9112
  985SOL     OW 3853   5.580   5.875   6.395 -0.1244  0.0595 -0.2060
  985SOL    HW1 3854   5.520   5.847   6.320  1.2413  0.0111 -1.3335
  985SOL    HW2 3855   5.624   5.962   6.371 -2.9958  2.4765  2.4912
  986SOL     OW 3856   4.462   5.657   0.745  0.0696 -0.0634 -0.3387
  986SOL    HW1 3857   4.363   5.661   0.734  0.2321  1.4195 -1.6722
  986SOL    HW2 3858   4.495   5.743   0.785  0.6189 -1.4644  2.4681
  987SOL     OW 3859   4.690   4.705   3.281  0.1262 -0.0459  0.0223
  987SOL    HW1 3860   4.649   4.629   3.231 -2.1880  0.6006  0.8050
  987SOL    HW2 3861   4.687   4.788   3.224 -0.2909  0.1606  0.3439
  988SOL     OW 3862   2.129   5.110   3.881 -0.8525 -0.2439  0.0087
  988SOL    HW1 3863   2.108   5.207   3.877 -1.5776 -0.4298 -0.8699
  988SOL    HW2 3864   2.221   5.097   3.919 -0.9125  0.7536  0.5069
  989SOL     OW 3865   6.810   3.867   6.832  0.3567  0.5207 -0.4801
  989SOL    HW1 3866   6.879   3.923   6.879  0.6790 -0.4493  0.2507
  989SOL    HW2 3867   6.729   3.860   6.890 -0.1320  1.1678 -1.0770
  990SOL     OW 3868   3.875   0.114   0.013  0.6408 -0.4920  0.7369
  990SOL    HW1 3869   3.845   0.031   0.059 -3.3171  0.3230 -0.0157
  990SOL    HW2 3870   3.930   0.090  -0.067 -2.2738 -2.6574 -0.7836
  991SOL     OW 3871   2.428   6.731   2.727  0.3307 -0.1958 -0.2206
  991SOL    HW1 3872   2.380   6.818   2.714  0.3467  0.0834  1.4187
  991SOL    HW2 3873   2.450   6.692   2.638 -1.0419  0.7193 -1.0052
  992SOL     OW 3874   5.231   6.078   6.477  0.2688  0.0494 -0.1463
  992SOL    HW1 3875   5.242   6.000   6.538  2.4182 -1.3763 -2.1604
  992SOL    HW2 3876   5.321   6.118   6.456 -0.5976  1.8238 -0.7166
  993SOL     OW 3877   2.425   5.446   5.322 -0.2215 -0.3353 -0.0950
  993SOL    HW1 3878   2.509   5.492   5.296  0.3164 -0.9119  0.5753
  993SOL    HW2 3879   2.446   5.353   5.352 -1.2293 -0.8657 -0.9864
  994SOL     OW 3880   4.677   0.584   1.567  0.1142  0.4011  0.8288
  994SOL    HW1 3881   4.675   0.520   1.644 -0.1122 -0.8195 -0.1533
  994SOL    HW2 3882   4.719   0.670   1.596 -1.3362  0.5345  2.7096
  995SOL     OW 3883   5.971   4.321   5.486  0.3744  0.0027  0.3303
  995SOL    HW1 3884   5.952   4.241   5.543  0.3730  1.0126  1.8144
  995SOL    HW2 3885   6.028   4.385   5.537 -0.6905  1.5398 -0.3348
  996SOL     OW 3886   2.300   6.720   6.281  0.1332  0.2241  0.1548
  996SOL    HW1 3887   2.328   6.640   6.334 -0.2018  0.4701  0.7196
  996SOL    HW2 3888   2.210   6.750   6.313  0.0837  0.5931 -0.3227
  997SOL     OW 3889   1.439   4.600   2.886  0.0758  0.4118 -0.4643
  997SOL    HW1 3890   1.499   4.654   2.945  0.3598  0.5326 -0.8611
  997SOL    HW2 3891   1.494   4.549   2.819 -0.2351  0.1886 -0.5553
  998SOL     OW 3892   3.912   6.295   6.839 -0.4085  0.1536  0.2294
  998SOL    HW1 3893   3.946   6.248   6.921 -0.4916  0.8149  0.6474
  998SOL    HW2 3894   3.914   6.231   6.761  0.3637 -0.2686  0.5778
  999SOL     OW 3895   0.068   1.705   2.580 -0.2655 -0.1040 -0.8035
  999SOL    HW1 3896   0.066   1.756   2.666  0.7790  0.0532 -0.8549
  999SOL    HW2 3897  -0.025   1.697   2.544 -0.6450  0.3285  0.0426
 1000SOL     OW 3898   4.816   2.599   1.468 -0.4153 -0.2254 -0.2851
 1000SOL    HW1 3899   4.859   2.599   1.558 -1.1261  0.9013  0.0717
 1000SOL    HW2 3900   4.856   2.671   1.411 -0.6055 -0.3267 -0.5500
 1001SOL     OW 3901   1.285   5.804   3.655 -0.1191 -0.5832 -0.5923
 1001SOL    HW1 3902   1.327   5.890   3.685 -0.7089 -0.4686 -0.0675
 1001SOL    HW2 3903   1.328   5.774   3.570 -0.3035  0.5348 -1.1038
 1002SOL     OW 3904   2.559   2.454   0.773 -0.0222  0.1091  0.1407
 1002SOL    HW1 3905   2.466   2.425   0.748  0.0694  1.3306 -1.7892
 1002SOL    HW2 3906   2.606   2.378   0.818 -1.1802 -1.3367 -0.9622
 1003SOL     OW 3907   1.827   3.288   3.151  0.2770 -0.7283 -0.5051
 1003SOL    HW1 3908   1.816   3.369   3.092  0.6034 -0.5526 -0.3328
 1003SOL    HW2 3909   1.882   3.220   3.102  0.6875 -0.5166 -0.3517
 1004SOL     OW 3910   5.442   1.006   6.302  0.3587 -0.6876 -0.0440
 1004SOL    HW1 3911   5.398   0.973   6.386  0.7495 -0.7870  0.1223
 1004SOL    HW2 3912   5.420   0.945   6.226 -1.0675  0.0959 -0.3109
 1005SOL     OW 3913   1.059   4.768   0.865 -0.5887 -0.5253 -0.0098
 1005SOL    HW1 3914   1.149   4.743   0.900 -0.3606 -0.0680 -0.2685
 1005SOL    HW2 3915   1.031   4.856   0.903  0.8088  1.3346 -2.8843
 1006SOL     OW 3916   2.108   3.395   2.474  0.0952 -0.3493  0.4898
 1006SOL    HW1 3917   2.102   3.376   2.376 -0.4043 -1.8720  0.7838
 1006SOL    HW2 3918   2.127   3.492   2.488  0.8112 -0.2173 -1.1218
 1007SOL     OW 3919   3.838   1.104   0.927 -0.9258 -0.2968 -0.2741
 1007SOL    HW1 3920   3.881   1.043   0.860  0.3528  0.9201 -0.6087
 1007SOL    HW2 3921   3.871   1.198   0.912 -1.3942  0.1647  1.4263
 1008SOL     OW 3922   1.356   5.559   5.759 -0.1966 -0.6183 -0.0386
 1008SOL    HW1 3923   1.366   5.518   5.850  0.7376 -1.2378 -0.4041
 1008SOL    HW2 3924   1.294   5.502   5.704 -1.3901  0.1838  0.4462
 1009SOL     OW 3925   0.679   6.329   0.077 -0.4791 -0.0729  0.4172
 1009SOL    HW1 3926   0.742   6.292   0.145 -0.9733 -1.0599  0.3698
 1009SOL    HW2 3927   0.730   6.373   0.003  0.1384 -0.5287  0.5670
 1010SOL     OW 3928   1.859   3.215   0.172 -0.4408  0.1272 -0.2065
 1010SOL    HW1 3929   1.806   3.266   0.240 -1.7777 -1.0630 -0.3036
 1010SOL    HW2 3930   1.847   3.117   0.188  2.6609 -0.2548  0.4717
 1011SOL     OW 3931   0.760   6.130   4.129 -0.1628 -0.0004  0.4307
 1011SOL    HW1 3932   0.831   6.194   4.101 -0.5143  0.8571  1.4199
 1011SOL    HW2 3933   0.801   6.041   4.148  0.2113 -0.3601 -1.7868
 1012SOL     OW 3934   3.070   5.895   3.008 -0.3183 -0.8703  0.1811
 1012SOL    HW1 3935   3.087   5.907   2.911 -3.7924  2.8993 -0.2475
 1012SOL    HW2 3936   3.010   5.817   3.023 -0.4379 -0.9719 -0.8042
 1013SOL     OW 3937   5.790   1.783   0.720 -0.8283 -0.7275  0.4878
 1013SOL    HW1 3938   5.862   1.807   0.784 -0.8610 -4.1692  2.0575
 1013SOL    HW2 3939   5.702   1.819   0.752 -0.0978  2.7808 -1.0125
 1014SOL     OW 3940   2.427   2.473   3.211 -0.1171 -0.4245 -0.7664
 1014SOL    HW1 3941   2.496   2.475   3.284 -0.1306  0.0230 -0.7615
 1014SOL    HW2 3942   2.361   2.400   3.229 -0.4002 -0.0019 -0.0725
 1015SOL     OW 3943   1.849   5.243   1.857  0.1424  0.6171 -0.6539
 1015SOL    HW1 3944   1.831   5.271   1.952 -0.0552  0.6740 -0.7089
 1015SOL    HW2 3945   1.763   5.219   1.812 -0.0610  2.6120 -1.4671
 1016SOL     OW 3946   4.453   4.465   0.483  0.1296  0.0170  0.1819
 1016SOL    HW1 3947   4.470   4.370   0.455 -0.6459  0.2889 -1.3288
 1016SOL    HW2 3948   4.482   4.527   0.409 -0.3784  0.8928  0.7057
 1017SOL     OW 3949   3.498   0.566   2.488 -0.2042  0.6160 -0.3986
 1017SOL    HW1 3950   3.498   0.489   2.552  2.7037 -0.4660 -1.5243
 1017SOL    HW2 3951   3.552   0.641   2.525  2.0971 -0.2808 -1.7201
 1018SOL     OW 3952   4.614   5.338   4.859  0.0947 -0.5213  0.4738
 1018SOL    HW1 3953   4.618   5.322   4.957  1.6451  2.8847  1.1195
 1018SOL    HW2 3954   4.625   5.435   4.840 -0.0853 -1.0368 -3.1160
 1019SOL     OW 3955   4.353   5.024   3.343 -0.3810  0.1490  0.1111
 1019SOL    HW1 3956   4.373   5.058   3.251 -1.2546 -1.2227 -0.6319
 1019SOL    HW2 3957   4.254   5.025   3.357 -0.4202 -1.6370  0.1919
 1020SOL     OW 3958   5.839   0.349   1.244  0.0908 -0.6725  0.0514
 1020SOL    HW1 3959   5.842   0.345   1.344 -3.3007 -0.5422  0.2945
 1020SOL    HW2 3960   5.849   0.444   1.214  2.3526 -0.8387  0.0906
 1021SOL     OW 3961   0.816   6.517   6.925  0.1805 -0.2381 -0.0066
 1021SOL    HW1 3962   0.772   6.593   6.876 -0.6709  0.5215  1.8593
 1021SOL    HW2 3963   0.907   6.501   6.886 -0.2698  0.6380 -1.5028
 1022SOL     OW 3964   0.905   4.720   4.292  0.1764 -0.3187 -0.0467
 1022SOL    HW1 3965   0.850   4.652   4.341 -0.3281 -0.1304 -0.3553
 1022SOL    HW2 3966   0.869   4.811   4.309 -1.6770 -0.4006 -2.8327
 1023SOL     OW 3967   0.696   1.115   2.319 -0.0447  0.6871 -0.1787
 1023SOL    HW1 3968   0.741   1.187   2.370 -0.3074  1.2189 -0.6875
 1023SOL    HW2 3969   0.651   1.052   2.383  3.2331 -1.1778  0.5149
 1024SOL     OW 3970   2.134   3.285   4.001 -0.4899 -0.5608  0.0029
 1024SOL    HW1 3971   2.104   3.331   3.917  1.1797  1.7034  0.5412
 1024SOL    HW2 3972   2.210   3.223   3.980  1.0853  1.2748 -0.0181
 1025SOL     OW 3973   4.518   4.082   0.642 -0.7132  0.6343  0.1132
 1025SOL    HW1 3974   4.420   4.085   0.660 -0.5857  3.3960  0.8719
 1025SOL    HW2 3975   4.557   4.173   0.658  1.5465  0.2875 -2.6268
 1026SOL     OW 3976   3.358   3.248   1.637 -0.5283 -0.1169  0.2066
 1026SOL    HW1 3977   3.260   3.226   1.636 -0.4252 -1.0037  2.5154
 1026SOL    HW2 3978   3.410   3.169   1.604 -0.5335 -0.0979  0.1523
 1027SOL     OW 3979   6.635   1.150   6.776 -0.3899  0.2859 -0.1342
 1027SOL    HW1 3980   6.700   1.153   6.853 -1.0004  1.2548  0.3543
 1027SOL    HW2 3981   6.593   1.059   6.773  0.2790 -0.0469  0.1335
 1028SOL     OW 3982   0.082   6.002   2.641  0.1543  0.3171 -0.0704
 1028SOL    HW1 3983   0.082   5.909   2.677  1.3738 -0.0733 -1.0142
 1028SOL    HW2 3984   0.135   6.005   2.556 -2.5032  1.2325 -1.8264
 1029SOL     OW 3985   0.488   0.710   2.864  0.2917 -0.3565  0.4932
 1029SOL    HW1 3986   0.493   0.613   2.886  0.0443  0.0349  2.4258
 1029SOL    HW2 3987   0.457   0.761   2.944  2.1032  1.5393  0.0651
 1030SOL     OW 3988   2.312   3.660   1.667  0.1787 -0.4707 -0.2505
 1030SOL    HW1 3989   2.336   3.578   1.719 -1.3492  0.0656  1.3571
 1030SOL    HW2 3990   2.328   3.643   1.570  3.2138 -1.4665  0.3148
 1031SOL     OW 3991   3.440   0.721   1.980  0.1356  0.1227  0.0843
 1031SOL    HW1 3992   3.520   0.718   2.039  1.6663 -0.5935 -1.9089
 1031SOL    HW2 3993   3.387   0.803   1.999  1.3777  0.6461  1.4187
 1032SOL     OW 3994   2.175   1.470   0.277 -0.1521 -0.3860  0.2444
 1032SOL    HW1 3995   2.156   1.551   0.333 -0.4467 -0.2119 -0.1077
 1032SOL    HW2 3996   2.218   1.399   0.335 -0.3419 -0.1646  0.6622
 1033SOL     OW 3997   0.525   6.081   3.080  0.4014 -0.2520 -0.0859
 1033SOL    HW1 3998   0.427   6.061   3.067  0.4766  0.0193 -1.1398
 1033SOL    HW2 3999   0.536   6.145   3.156 -0.1585 -1.0187  0.6632
 1034SOL     OW 4000   1.182   1.597   4.494  0.6002 -0.0178  0.2114
 1034SOL    HW1 4001   1.126   1.631   4.569  0.6270 -1.9883  1.1809
 1034SOL    HW2 4002   1.132   1.608   4.408 -0.3910  0.2005  0.7972
 1035SOL     OW 4003   1.991   0.477   0.393 -0.2655  0.3800 -0.2735
 1035SOL    HW1 4004   2.035   0.387   0.400 -0.7089  0.1627 -0.1974
 1035SOL    HW2 4005   2.053   0.548   0.427 -0.1003  0.0444  0.1380
 1036SOL     OW 4006   3.925   1.493   2.331 -0.7801  0.1516  0.2304
 1036SOL    HW1 4007   3.971   1.569   2.285 -0.8964  0.4820  0.6526
 1036SOL    HW2 4008   3.862   1.449   2.268 -0.1179 -0.1050 -0.2588
 1037SOL     OW 4009   1.395   3.968   3.045  0.6814  0.1687  0.3765
 1037SOL    HW1 4010   1.488   3.948   3.076  0.5775 -1.5894 -0.3712
 1037SOL    HW2 4011   1.399   4.028   2.965  1.1239  0.6571  0.7535
 1038SOL     OW 4012   1.371   6.363   6.137  0.2673  0.4926  0.0744
 1038SOL    HW1 4013   1.413   6.370   6.228  0.7413  0.1340 -0.1132
 1038SOL    HW2 4014   1.308   6.286   6.135  2.5345 -1.4373 -0.7694
 1039SOL     OW 4015   3.226   4.107   3.569  0.2829  0.1559 -0.2879
 1039SOL    HW1 4016   3.306   4.075   3.519 -0.3467 -0.3384 -0.9972
 1039SOL    HW2 4017   3.255   4.144   3.658  1.1677 -1.1685  0.0141
 1040SOL     OW 4018   5.317   2.582   2.317 -0.6304 -0.9040  0.2860
 1040SOL    HW1 4019   5.246   2.652   2.324  1.1844  1.0057  0.7150
 1040SOL    HW2 4020   5.337   2.565   2.221 -1.4467 -1.2289  0.1687
 1041SOL     OW 4021   0.190   0.472   1.501  0.1265 -0.5744  0.2850
 1041SOL    HW1 4022   0.172   0.568   1.523  0.7952 -0.7325  1.6022
 1041SOL    HW2 4023   0.105   0.428   1.473 -0.2670  0.2948  0.0687
 1042SOL     OW 4024   6.555   4.622   3.966 -0.1462  0.2546 -0.2009
 1042SOL    HW1 4025   6.484   4.673   3.917 -1.5563 -0.8120  0.6633
 1042SOL    HW2 4026   6.548   4.641   4.063 -1.1017 -1.9677  0.2253
 1043SOL     OW 4027   2.289   2.701   2.013  0.1524 -0.0601  0.3921
 1043SOL    HW1 4028   2.230   2.774   2.046 -0.4478 -0.0002 -0.7547
 1043SOL    HW2 4029   2.258   2.613   2.051  0.7070  0.2257  1.5493
 1044SOL     OW 4030   6.134   2.784   2.944  0.1273  0.0180 -0.6171
 1044SOL    HW1 4031   6.116   2.705   3.002 -0.7638 -0.5517 -1.6364
 1044SOL    HW2 4032   6.191   2.757   2.866 -0.8411  0.1865 -1.4007
 1045SOL     OW 4033   2.966   6.205   1.088  0.4810  0.5219 -0.2755
 1045SOL    HW1 4034   2.995   6.157   1.171  0.5489  1.2299  0.1250
 1045SOL    HW2 4035   3.032   6.278   1.069  2.0943 -1.3959 -2.5936
 1046SOL     OW 4036   2.821   0.924   0.750 -0.0041 -0.3978 -0.3188
 1046SOL    HW1 4037   2.912   0.965   0.749  0.9767 -2.3657 -2.5558
 1046SOL    HW2 4038   2.821   0.843   0.809 -0.4201 -0.2005 -0.0412
 1047SOL     OW 4039   3.659   1.446   4.709  0.1506  0.5908  0.0194
 1047SOL    HW1 4040   3.752   1.483   4.708 -0.8606  3.4566  1.3877
 1047SOL    HW2 4041   3.644   1.395   4.793  0.9951 -1.6379 -1.0836
 1048SOL     OW 4042   0.401   1.043   3.988  0.7080 -0.4564  0.3236
 1048SOL    HW1 4043   0.480   1.104   3.981 -0.6531  1.3930  0.1533
 1048SOL    HW2 4044   0.429   0.949   3.968  2.8492  0.1272  0.3425
 1049SOL     OW 4045   2.927   0.566   0.811 -0.3812 -0.3316  0.0227
 1049SOL    HW1 4046   2.866   0.486   0.804  0.0330 -0.9735  2.8031
 1049SOL    HW2 4047   2.898   0.623   0.887  0.2321  1.4325 -1.0248
 1050SOL     OW 4048   1.570   2.325   4.126  0.0404 -0.1158  1.1171
 1050SOL    HW1 4049   1.626   2.300   4.205  3.4924  2.1862 -0.3493
 1050SOL    HW2 4050   1.522   2.411   4.145  0.5484  0.2263  0.8603
 1051SOL     OW 4051   0.803   1.715   5.017 -1.0024 -0.0122  0.3251
 1051SOL    HW1 4052   0.714   1.706   5.062  0.0032  1.0910  2.7063
 1051SOL    HW2 4053   0.863   1.642   5.048 -0.5179  0.3232  0.1868
 1052SOL     OW 4054   5.086   3.797   5.921  0.9648  0.7334  0.6138
 1052SOL    HW1 4055   5.139   3.820   5.840  0.2755  0.2427  0.0159
 1052SOL    HW2 4056   5.007   3.858   5.928  0.3686  0.0177  0.2519
 1053SOL     OW 4057   6.019   3.652   4.769 -0.7881 -0.0735 -0.1450
 1053SOL    HW1 4058   6.096   3.663   4.832  0.3313  1.2519 -1.6460
 1053SOL    HW2 4059   5.995   3.555   4.763 -0.5532 -0.2899  1.8396
 1054SOL     OW 4060   6.043   6.628   5.970  0.0625 -0.2158 -0.2595
 1054SOL    HW1 4061   6.060   6.676   5.884  1.5511 -0.3884 -0.0791
 1054SOL    HW2 4062   6.100   6.547   5.975  0.0359 -0.1820  0.9225
 1055SOL     OW 4063   4.294   5.760   4.860  0.2072 -0.1193  0.0137
 1055SOL    HW1 4064   4.241   5.723   4.936 -1.0818 -1.2156 -1.3517
 1055SOL    HW2 4065   4.257   5.725   4.774 -0.4215  3.5180 -1.3494
 1056SOL     OW 4066   2.875   2.409   0.215 -0.0227  0.0787  0.5545
 1056SOL    HW1 4067   2.957   2.433   0.163  0.6970  0.3249  1.7484
 1056SOL    HW2 4068   2.888   2.436   0.311 -1.2703 -0.4217  0.8816
 1057SOL     OW 4069   2.644   2.140   6.580  0.7517 -0.2080  0.0661
 1057SOL    HW1 4070   2.552   2.159   6.614  0.9615 -1.3542  1.3844
 1057SOL    HW2 4071   2.638   2.094   6.491 -0.2117 -3.7807  1.7946
 1058SOL     OW 4072   2.588   1.885   1.907  0.9493  0.0918 -0.5916
 1058SOL    HW1 4073   2.597   1.951   1.981  0.1477 -1.5374  1.0696
 1058SOL    HW2 4074   2.678   1.862   1.870  1.5662 -0.2464  1.0314
 1059SOL     OW 4075   2.465   4.990   2.144  0.5055  0.0209  0.1732
 1059SOL    HW1 4076   2.537   5.058   2.156  1.1855 -0.5287 -0.6527
 1059SOL    HW2 4077   2.504   4.906   2.108 -0.3754 -0.7099  0.8791
 1060SOL     OW 4078   5.132   0.385   6.164 -0.7067  0.7952  0.2333
 1060SOL    HW1 4079   5.221   0.418   6.135 -0.7658  0.4342 -0.3597
 1060SOL    HW2 4080   5.100   0.313   6.102 -1.5935  1.2097  0.1889
 1061SOL     OW 4081   6.247   4.681   5.959 -0.2532  0.4116  0.2385
 1061SOL    HW1 4082   6.166   4.739   5.965  0.0080  1.0390 -1.4567
 1061SOL    HW2 4083   6.271   4.647   6.049 -0.7551  2.4918  1.2279
 1062SOL     OW 4084   3.902   4.917   5.009 -0.0055  0.0740  0.1452
 1062SOL    HW1 4085   3.829   4.850   4.999  1.0645 -1.1183  0.1159
 1062SOL    HW2 4086   3.988   4.880   4.972  0.1530  2.3258 -2.0749
 1063SOL     OW 4087   3.540   6.753   5.388 -0.0570  0.3848 -0.6111
 1063SOL    HW1 4088   3.554   6.697   5.470  0.4493 -0.0391 -0.9906
 1063SOL    HW2 4089   3.508   6.844   5.416  2.0879  0.9514  0.2080
 1064SOL     OW 4090   0.786   3.202   2.003 -0.1412 -0.3764 -0.3756
 1064SOL    HW1 4091   0.834   3.281   2.041  0.3538 -0.7968 -0.1151
 1064SOL    HW2 4092   0.726   3.232   1.929 -2.2693  0.6719  1.6546
 1065SOL     OW 4093   5.052   0.332   6.609  0.4359  0.0260  0.0994
 1065SOL    HW1 4094   5.030   0.249   6.558 -0.2994  0.5118 -0.3835
 1065SOL    HW2 4095   4.974   0.358   6.666  1.1952 -0.4399  1.4024
 1066SOL     OW 4096   3.682   6.392   0.589  0.2819 -0.3240  0.0510
 1066SOL    HW1 4097   3.683   6.472   0.529  1.3792  0.5584  1.1943
 1066SOL    HW2 4098   3.663   6.421   0.683  0.9174 -1.3603  0.5184
 1067SOL     OW 4099   2.947   0.594   0.071 -0.0914  0.4954 -0.2830
 1067SOL    HW1 4100   2.948   0.551   0.161  1.4326  1.9296  0.4464
 1067SOL    HW2 4101   2.967   0.692   0.081 -2.5673  1.2486 -1.9471
 1068SOL     OW 4102   6.465   3.475   1.330 -0.6006  0.1657  0.2258
 1068SOL    HW1 4103   6.417   3.533   1.396  0.0876 -0.3173  1.1589
 1068SOL    HW2 4104   6.483   3.385   1.370 -0.7810 -0.3772 -0.8641
 1069SOL     OW 4105   6.318   2.386   1.775 -0.3631  0.0689  0.2917
 1069SOL    HW1 4106   6.358   2.414   1.863  0.4298  1.7833 -0.5501
 1069SOL    HW2 4107   6.383   2.327   1.726 -1.7956 -2.9653  1.8189
 1070SOL     OW 4108   6.755   0.444   2.290  0.3117 -0.5521 -0.1652
 1070SOL    HW1 4109   6.756   0.350   2.255 -0.8864 -0.6686  0.0708
 1070SOL    HW2 4110   6.722   0.505   2.219  1.1463 -0.2820 -0.3372
 1071SOL     OW 4111   0.829   4.122   5.457 -0.0071  0.4451  0.1864
 1071SOL    HW1 4112   0.878   4.135   5.371 -1.1258  0.4628 -0.4786
 1071SOL    HW2 4113   0.760   4.194   5.467  0.4945  0.7679  1.3811
 1072SOL     OW 4114   1.142   1.931   1.369 -0.6899  0.2194  0.1811
 1072SOL    HW1 4115   1.167   1.971   1.457 -1.6699  0.8588  0.1854
 1072SOL    HW2 4116   1.051   1.963   1.342 -1.2113 -1.4192 -0.1783
 1073SOL     OW 4117   6.275   1.595   3.124  0.0264 -0.2775  0.1774
 1073SOL    HW1 4118   6.209   1.527   3.092 -0.7031  1.4424 -2.2386
 1073SOL    HW2 4119   6.259   1.614   3.221 -2.1680 -0.8296 -0.0232
 1074SOL     OW 4120   3.773   4.921   1.890 -0.7967  0.4593  0.4463
 1074SOL    HW1 4121   3.844   4.885   1.950 -0.1049 -0.6179 -0.9595
 1074SOL    HW2 4122   3.688   4.869   1.904  0.3948 -2.4907 -2.1076
 1075SOL     OW 4123   6.567   4.538   5.941  0.3652  0.2394  0.3653
 1075SOL    HW1 4124   6.565   4.578   6.033  1.4145 -2.6308  1.7681
 1075SOL    HW2 4125   6.650   4.566   5.895  0.4989  0.6258  0.8280
 1076SOL     OW 4126   3.262   4.131   4.036  0.3749 -0.2269 -0.1453
 1076SOL    HW1 4127   3.186   4.071   4.011 -0.1536  0.2002  0.3924
 1076SOL    HW2 4128   3.323   4.143   3.958 -0.3215 -0.2685 -0.7029
 1077SOL     OW 4129   6.541   0.589   6.669  0.4174 -0.4642 -0.1296
 1077SOL    HW1 4130   6.604   0.514   6.687  1.2951 -0.1645 -1.7794
 1077SOL    HW2 4131   6.527   0.598   6.570 -0.9082  0.5469  0.1276
 1078SOL     OW 4132   5.792   6.649   5.295  0.1415 -0.5632 -0.3065
 1078SOL    HW1 4133   5.829   6.641   5.202 -0.0486 -0.1726 -0.4179
 1078SOL    HW2 4134   5.723   6.721   5.297  0.4208 -0.3042  0.2266
 1079SOL     OW 4135   6.439   0.034   1.703  0.8001  0.1377  0.3518
 1079SOL    HW1 4136   6.494   0.116   1.694  3.7267 -1.5686  1.3050
 1079SOL    HW2 4137   6.388   0.038   1.790  0.4783  1.1262  0.1343
 1080SOL     OW 4138   5.062   4.749   5.689 -0.0742  0.2715 -0.0163
 1080SOL    HW1 4139   5.134   4.767   5.757  0.8345 -0.5046 -0.7344
 1080SOL    HW2 4140   5.011   4.833   5.671  0.5409  0.8031  0.6512
 1081SOL     OW 4141   1.801   1.193   2.970 -0.1778 -0.0534 -0.2381
 1081SOL    HW1 4142   1.880   1.207   3.031 -0.1872 -0.8972 -0.0214
 1081SOL    HW2 4143   1.788   1.274   2.914  0.7751  0.1495 -0.1853
 1082SOL     OW 4144   4.360   0.854   0.461 -0.0417  0.1929 -0.7664
 1082SOL    HW1 4145   4.413   0.914   0.401 -0.0873 -0.7453 -1.7704
 1082SOL    HW2 4146   4.337   0.769   0.413 -2.6773  0.6415 -0.4685
 1083SOL     OW 4147   4.427   4.329   1.267  0.1591 -0.3728 -0.0659
 1083SOL    HW1 4148   4.514   4.378   1.268  0.8390 -1.5415 -0.7338
 1083SOL    HW2 4149   4.356   4.386   1.310  0.4747  2.0300 -2.4701
 1084SOL     OW 4150   4.077   1.574   5.326 -0.1485  0.1816  0.1796
 1084SOL    HW1 4151   4.140   1.559   5.250  0.4460  0.2364  0.6529
 1084SOL    HW2 4152   4.049   1.670   5.326  2.1444  0.9393  1.7173
 1085SOL     OW 4153   1.396   2.192   3.967  0.9412  0.3326  0.9120
 1085SOL    HW1 4154   1.463   2.122   3.943  3.2992  2.5544  0.5772
 1085SOL    HW2 4155   1.442   2.268   4.013 -1.3488  2.0835  0.5030
 1086SOL     OW 4156   4.993   4.203   0.786 -0.2481 -0.4372 -0.3330
 1086SOL    HW1 4157   4.920   4.208   0.855 -0.0071  1.3753 -0.1615
 1086SOL    HW2 4158   5.082   4.207   0.832 -0.0769 -0.1552 -0.6868
 1087SOL     OW 4159   3.203   5.958   6.893 -0.3034 -0.5180 -0.2461
 1087SOL    HW1 4160   3.199   5.868   6.938 -1.0559 -0.4097 -0.0668
 1087SOL    HW2 4161   3.257   5.951   6.810 -0.2430 -1.1120 -0.1672
 1088SOL     OW 4162   6.378   5.229   5.729 -0.7058 -0.9304  0.1892
 1088SOL    HW1 4163   6.434   5.308   5.704 -1.7309 -0.2610 -0.0623
 1088SOL    HW2 4164   6.425   5.145   5.704  0.1112 -0.3805 -0.1507
 1089SOL     OW 4165   6.415   5.828   5.395 -0.4026 -0.3794  0.5360
 1089SOL    HW1 4166   6.474   5.753   5.365  0.0547  0.4059 -0.6122
 1089SOL    HW2 4167   6.383   5.810   5.488  2.2197 -0.5208  1.4866
 1090SOL     OW 4168   0.736   3.732   5.851 -0.2185 -0.3503  0.0122
 1090SOL    HW1 4169   0.762   3.750   5.756 -0.0117 -0.5133  0.0351
 1090SOL    HW2 4170   0.750   3.814   5.905 -1.2895  0.0467 -0.2873
 1091SOL     OW 4171   1.915   3.564   3.601  0.1052 -0.6166  0.8374
 1091SOL    HW1 4172   1.837   3.574   3.663 -1.1214 -2.2169 -0.3344
 1091SOL    HW2 4173   1.889   3.502   3.526  1.6890  0.7788 -0.9606
 1092SOL     OW 4174   1.241   1.051   0.390  0.3351 -0.3197  0.0433
 1092SOL    HW1 4175   1.314   1.120   0.398  0.3493 -0.4178  0.7824
 1092SOL    HW2 4176   1.178   1.060   0.467 -0.8012  0.1715 -0.9104
 1093SOL     OW 4177   1.812   0.524   3.189  0.0328 -0.1432  0.5456
 1093SOL    HW1 4178   1.727   0.557   3.231 -1.2102 -1.0350 -1.1404
 1093SOL    HW2 4179   1.795   0.504   3.093  2.5821  1.1273 -0.2510
 1094SOL     OW 4180   0.166   0.264   4.676  0.0920  0.3127  0.6940
 1094SOL    HW1 4181   0.121   0.185   4.635 -2.2276  1.7709  0.3043
 1094SOL    HW2 4182   0.111   0.298   4.753  2.1149  0.3324  2.2297
 1095SOL     OW 4183   5.541   5.054   6.373  0.8352 -0.2200  0.2456
 1095SOL    HW1 4184   5.565   5.150   6.386  1.4304 -0.3326  0.0515
 1095SOL    HW2 4185   5.445   5.046   6.348  0.1222  0.1204  2.7114
 1096SOL     OW 4186   0.637   6.028   2.396  0.1908  0.2942 -0.4259
 1096SOL    HW1 4187   0.630   5.975   2.311 -1.4816 -0.4716  0.1478
 1096SOL    HW2 4188   0.692   5.976   2.462  1.8232  1.0638 -1.1191
 1097SOL     OW 4189   3.536   6.649   4.353 -0.3131 -0.3271  0.0533
 1097SOL    HW1 4190   3.509   6.588   4.426 -1.3031  0.4891  0.3899
 1097SOL    HW2 4191   3.538   6.743   4.387  1.8477 -0.1895 -0.2597
 1098SOL     OW 4192   5.556   3.986   6.640  0.0173  0.4507  0.1462
 1098SOL    HW1 4193   5.619   4.057   6.671  0.4314  1.0068 -1.8147
 1098SOL    HW2 4194   5.465   4.026   6.627  0.1337  0.5231 -0.4832
 1099SOL     OW 4195   0.552   1.655   0.774 -0.6285  0.3210  0.0193
 1099SOL    HW1 4196   0.454   1.674   0.783 -0.8897 -1.2889  0.8557
 1099SOL    HW2 4197   0.569   1.615   0.684 -0.8415 -0.0397  0.1399
 1100SOL     OW 4198   4.845   2.261   2.512 -0.1151 -0.4790 -0.7197
 1100SOL    HW1 4199   4.916   2.191   2.517  0.5280  0.1523 -0.8972
 1100SOL    HW2 4200   4.799   2.255   2.424  0.6371 -0.0106 -1.1482
 1101SOL     OW 4201   3.812   2.046   6.592 -0.0828 -0.1816 -0.0805
 1101SOL    HW1 4202   3.840   1.974   6.656  0.7298  1.2816  1.2901
 1101SOL    HW2 4203   3.878   2.050   6.517 -0.0080 -0.6959 -0.0518
 1102SOL     OW 4204   5.240   1.103   6.038 -0.5875  0.2880  0.5641
 1102SOL    HW1 4205   5.327   1.151   6.043 -0.3279 -0.1723  0.5354
 1102SOL    HW2 4206   5.193   1.108   6.127 -0.6960  0.8341  0.4778
 1103SOL     OW 4207   3.727   6.059   6.798 -0.1402  0.3601  0.0383
 1103SOL    HW1 4208   3.645   6.048   6.854  0.2306  1.9778  0.9498
 1103SOL    HW2 4209   3.721   6.144   6.746  1.1092  0.6695  0.3768
 1104SOL     OW 4210   0.614   1.508   3.759 -1.0013 -0.3907 -0.4546
 1104SOL    HW1 4211   0.678   1.550   3.823  0.1482 -1.2400 -1.0175
 1104SOL    HW2 4212   0.604   1.567   3.678  0.9157 -1.3079 -1.4218
 1105SOL     OW 4213   5.305   1.227   6.912 -0.1373  0.0686 -0.8455
 1105SOL    HW1 4214   5.339   1.319   6.896  0.6015  0.4548  2.2188
 1105SOL    HW2 4215   5.208   1.231   6.937 -0.6142 -0.2504 -2.5049
 1106SOL     OW 4216   6.129   2.067   2.245  0.0059  0.0745 -0.4464
 1106SOL    HW1 4217   6.081   2.019   2.171 -1.3660  0.0616  0.4203
 1106SOL    HW2 4218   6.127   2.165   2.228 -0.1563  0.0597 -0.5143
 1107SOL     OW 4219   0.980   2.149   6.409  0.2522 -0.2562 -0.4356
 1107SOL    HW1 4220   0.928   2.173   6.326  0.7565  1.7539 -0.2217
 1107SOL    HW2 4221   1.006   2.232   6.457  0.9656 -1.3523  1.1660
 1108SOL     OW 4222   2.669   0.995   4.261  0.4969 -0.0027  0.3228
 1108SOL    HW1 4223   2.611   1.073   4.287 -0.6078 -0.8179  0.3933
 1108SOL    HW2 4224   2.665   0.926   4.333  1.0364 -0.3567  0.0193
 1109SOL     OW 4225   6.172   3.346   5.456 -0.6539 -0.4336 -0.6111
 1109SOL    HW1 4226   6.217   3.290   5.385  0.0089 -0.0318 -0.5119
 1109SOL    HW2 4227   6.088   3.301   5.484  0.5794 -2.1681  0.5239
 1110SOL     OW 4228   1.797   1.955   2.619 -0.0802 -0.1013  0.3726
 1110SOL    HW1 4229   1.715   2.012   2.619  0.7693  1.1684 -0.5818
 1110SOL    HW2 4230   1.773   1.861   2.595 -1.3022  0.1645  0.5221
 1111SOL     OW 4231   5.328   4.177   6.235  0.3100 -0.0754 -0.1341
 1111SOL    HW1 4232   5.359   4.214   6.148  1.2726 -3.9119 -1.6385
 1111SOL    HW2 4233   5.391   4.204   6.307 -0.0662  2.5213 -0.6880
 1112SOL     OW 4234   6.551   6.853   3.663 -0.3735  0.0751 -0.1560
 1112SOL    HW1 4235   6.634   6.863   3.718 -1.6994  1.1292  1.8083
 1112SOL    HW2 4236   6.480   6.915   3.699 -1.7153 -0.0820 -2.3548
 1113SOL     OW 4237   1.221   3.914   3.804  0.2243  0.3661 -0.0167
 1113SOL    HW1 4238   1.293   3.940   3.869  1.7000 -2.1438 -0.4965
 1113SOL    HW2 4239   1.185   3.996   3.759  2.1248  1.7997  0.9351
 1114SOL     OW 4240   2.888   3.420   3.785  0.5402  0.6188 -0.3971
 1114SOL    HW1 4241   2.892   3.517   3.762 -1.4761  0.6084 -0.9761
 1114SOL    HW2 4242   2.882   3.366   3.701  0.5436  0.0591 -0.0458
 1115SOL     OW 4243   5.142   4.996   3.935  0.0778  0.1640  0.1787
 1115SOL    HW1 4244   5.044   4.997   3.916  0.0197 -1.8625  0.2040
 1115SOL    HW2 4245   5.192   4.998   3.848 -0.0674 -1.8860  0.0117
 1116SOL     OW 4246   4.903   6.012   6.537 -0.8429 -0.6876 -1.0880
 1116SOL    HW1 4247   4.840   6.066   6.481 -1.3623  0.3701  0.4315
 1116SOL    HW2 4248   4.939   5.935   6.483 -3.1164 -1.1077 -2.1296
 1117SOL     OW 4249   3.553   1.253   0.909  0.3745 -0.2943 -0.2755
 1117SOL    HW1 4250   3.623   1.183   0.896 -0.5705 -1.2975  0.0024
 1117SOL    HW2 4251   3.568   1.326   0.842  2.3392  0.0662  0.4803
 1118SOL     OW 4252   3.855   0.031   0.827 -0.2195 -0.0981 -0.2220
 1118SOL    HW1 4253   3.859  -0.019   0.741  0.0308 -0.3439 -0.0660
 1118SOL    HW2 4254   3.869  -0.031   0.903  0.0045  0.1929 -0.0235
 1119SOL     OW 4255   3.566   6.731   3.453  0.9039  0.3709  0.7044
 1119SOL    HW1 4256   3.538   6.676   3.531  0.8649 -0.2560  0.2582
 1119SOL    HW2 4257   3.485   6.771   3.410  1.0255  1.9864  1.8744
 1120SOL     OW 4258   5.748   3.824   2.219 -0.1591 -0.4090 -0.3062
 1120SOL    HW1 4259   5.848   3.818   2.209 -0.2574 -0.7412 -1.2205
 1120SOL    HW2 4260   5.707   3.738   2.189 -0.6454 -0.7632  1.3109
 1121SOL     OW 4261   6.210   4.506   6.567  0.2427 -0.4200  0.5229
 1121SOL    HW1 4262   6.194   4.424   6.623 -0.2480 -1.2779 -0.8307
 1121SOL    HW2 4263   6.257   4.480   6.483 -1.4320  0.4113 -0.7240
 1122SOL     OW 4264   6.552   6.385   1.452 -0.0556  0.0788  0.1869
 1122SOL    HW1 4265   6.593   6.474   1.473  2.8171 -1.1751  0.2938
 1122SOL    HW2 4266   6.567   6.363   1.355  1.8045 -1.4553  0.7665
 1123SOL     OW 4267   3.271   1.548   5.952  0.0248  0.3590 -0.0987
 1123SOL    HW1 4268   3.188   1.507   5.914  0.8648  0.6283 -2.3218
 1123SOL    HW2 4269   3.348   1.486   5.939  0.4953  0.8008  0.4994
 1124SOL     OW 4270   1.652   3.971   3.950  0.1077  0.5596 -0.6847
 1124SOL    HW1 4271   1.661   3.872   3.937  1.2565  0.6513 -0.6809
 1124SOL    HW2 4272   1.561   3.992   3.985  0.1172 -0.5701  0.0685
 1125SOL     OW 4273   2.299   1.542   3.413  0.1932  0.1889 -0.3040
 1125SOL    HW1 4274   2.391   1.556   3.449  0.5472  0.2909 -1.2261
 1125SOL    HW2 4275   2.260   1.630   3.386  0.2265  0.0332 -0.8665
 1126SOL     OW 4276   5.000   5.070   1.857 -0.2721  0.0309 -0.3783
 1126SOL    HW1 4277   5.055   5.102   1.780  1.2929 -0.0075  0.6669
 1126SOL    HW2 4278   4.918   5.126   1.866 -0.0645  0.5477 -1.5604
 1127SOL     OW 4279   6.564   0.970   0.264  0.1949  0.5313 -0.3957
 1127SOL    HW1 4280   6.526   0.999   0.176 -0.1730  1.3607  0.0302
 1127SOL    HW2 4281   6.572   1.049   0.325 -1.4385 -0.3523  1.0261
 1128SOL     OW 4282   3.904   2.193   4.269  0.0279 -0.1387  0.4209
 1128SOL    HW1 4283   3.997   2.212   4.301 -0.5228  1.3454  1.2366
 1128SOL    HW2 4284   3.896   2.216   4.172  0.5953 -0.6519  0.2438
 1129SOL     OW 4285   1.592   1.411   6.155 -0.5145 -0.5029 -0.2745
 1129SOL    HW1 4286   1.594   1.511   6.152 -0.3709 -0.5041 -0.2332
 1129SOL    HW2 4287   1.524   1.381   6.222 -0.2630 -0.4305  0.0124
 1130SOL     OW 4288   1.843   5.404   1.426  0.1927 -0.4705  0.3760
 1130SOL    HW1 4289   1.847   5.376   1.522  1.8936 -1.5914  0.0162
 1130SOL    HW2 4290   1.860   5.325   1.367 -1.7756  0.0023 -0.9228
 1131SOL     OW 4291   3.465   6.128   4.785 -0.5480 -0.7508  0.1038
 1131SOL    HW1 4292   3.437   6.193   4.856 -1.7342 -1.6190  0.4650
 1131SOL    HW2 4293   3.393   6.120   4.716 -0.8772 -2.3938  0.5898
 1132SOL     OW 4294   6.871   1.841   4.343  0.2444 -0.3211  0.5269
 1132SOL    HW1 4295   6.892   1.783   4.421  0.6260 -1.9808 -0.7528
 1132SOL    HW2 4296   6.946   1.905   4.328 -0.0129  0.2854  1.7341
 1133SOL     OW 4297   1.230   0.995   6.760 -0.2578  0.7774  0.3804
 1133SOL    HW1 4298   1.250   1.068   6.694  0.4658  1.1710  1.0099
 1133SOL    HW2 4299   1.234   1.033   6.853  0.9128 -0.2275  0.7604
 1134SOL     OW 4300   5.344   5.806   1.578 -0.0410  0.7090 -0.4647
 1134SOL    HW1 4301   5.403   5.800   1.658 -1.1353 -0.2916  0.3045
 1134SOL    HW2 4302   5.336   5.716   1.535  0.8144  1.3032 -1.9369
 1135SOL     OW 4303   1.378   0.799   3.086 -0.4009 -0.2136 -0.0169
 1135SOL    HW1 4304   1.329   0.822   3.170 -1.5479 -1.7430 -0.2173
 1135SOL    HW2 4305   1.413   0.705   3.093 -0.0503 -0.1699 -1.0399
 1136SOL     OW 4306   2.366   4.255   2.972  1.1809 -0.1091  0.3038
 1136SOL    HW1 4307   2.402   4.166   2.943  1.1591 -0.0092 -0.0369
 1136SOL    HW2 4308   2.308   4.243   3.052 -0.0918 -0.6272 -0.6655
 1137SOL     OW 4309   1.883   5.484   3.859 -0.4086 -0.9466  0.0844
 1137SOL    HW1 4310   1.955   5.439   3.912  1.1796 -0.1146 -1.2693
 1137SOL    HW2 4311   1.856   5.568   3.905  1.4549  0.1305 -0.6866
 1138SOL     OW 4312   1.830   3.609   4.469  0.4396  0.0816  0.0983
 1138SOL    HW1 4313   1.925   3.585   4.488  0.8741  1.1962 -0.5563
 1138SOL    HW2 4314   1.800   3.563   4.385  1.0519  1.1995 -0.7752
 1139SOL     OW 4315   3.021   5.976   6.480  0.1002  0.1480 -0.1060
 1139SOL    HW1 4316   3.024   5.970   6.380 -0.5952  1.1052 -0.1942
 1139SOL    HW2 4317   2.931   5.948   6.512  0.7675 -1.5627  0.3835
 1140SOL     OW 4318   0.491   2.535   2.208  0.4755  0.5328  0.1607
 1140SOL    HW1 4319   0.557   2.607   2.229  1.0859  0.0398 -0.0406
 1140SOL    HW2 4320   0.402   2.560   2.246  0.7601  1.2263  0.3961
 1141SOL     OW 4321   6.443   6.714   5.826 -0.3301  0.0647  0.3718
 1141SOL    HW1 4322   6.462   6.624   5.787  0.7810  0.9191 -1.1766
 1141SOL    HW2 4323   6.494   6.784   5.775 -2.2821  1.7435  0.5948
 1142SOL     OW 4324   4.887   4.989   2.242 -0.4027  0.3530 -0.2545
 1142SOL    HW1 4325   4.815   4.920   2.235 -0.3435 -0.0554  2.2706
 1142SOL    HW2 4326   4.854   5.076   2.206 -1.5685 -0.2215 -0.6197
 1143SOL     OW 4327   5.983   5.191   6.907 -0.6687 -0.6208  0.3251
 1143SOL    HW1 4328   5.971   5.179   7.006  1.2165  1.3894  0.8912
 1143SOL    HW2 4329   5.937   5.276   6.879  0.8760  0.1599  0.0253
 1144SOL     OW 4330   4.943   4.157   6.775 -0.2825 -0.0783 -0.2717
 1144SOL    HW1 4331   4.853   4.182   6.810 -0.8124  0.8138 -2.1680
 1144SOL    HW2 4332   4.999   4.239   6.764  0.2448 -0.4588 -0.4923
 1145SOL     OW 4333   5.423   1.788   5.536 -0.4383  0.2912 -0.3393
 1145SOL    HW1 4334   5.381   1.779   5.626 -1.4691 -0.6903 -0.8873
 1145SOL    HW2 4335   5.509   1.838   5.544 -0.4693  0.1526  1.1971
 1146SOL     OW 4336   1.907   0.583   6.997 -0.3345  0.7794  0.1213
 1146SOL    HW1 4337   1.867   0.560   7.085  0.6460 -0.3964  0.2894
 1146SOL    HW2 4338   1.965   0.664   7.007  0.3754  0.2170  0.7610
 1147SOL     OW 4339   1.399   6.374   0.160  0.2032  0.2989 -0.4425
 1147SOL    HW1 4340   1.383   6.348   0.065 -0.6018 -0.4804 -0.1028
 1147SOL    HW2 4341   1.331   6.441   0.189  0.9720  1.1972 -0.6642
 1148SOL     OW 4342   2.131   0.376   2.291  0.6615 -0.1174  0.1631
 1148SOL    HW1 4343   2.072   0.443   2.247  1.8675 -0.2277 -1.7387
 1148SOL    HW2 4344   2.174   0.416   2.371  2.0166  1.7312 -1.3997
 1149SOL     OW 4345   4.959   0.885   2.431  0.2089  0.3638  0.3137
 1149SOL    HW1 4346   4.999   0.840   2.351 -0.1018 -0.9663  0.8744
 1149SOL    HW2 4347   5.031   0.916   2.492  0.4584  1.6121 -0.5681
 1150SOL     OW 4348   1.619   1.974   0.093 -0.3246  0.0502 -0.0194
 1150SOL    HW1 4349   1.534   1.942   0.052  0.1393 -1.2306 -0.0432
 1150SOL    HW2 4350   1.605   1.990   0.191 -0.6433  0.0705 -0.0676
 1151SOL     OW 4351   5.374   5.503   3.738 -0.2095 -0.3201  0.1361
 1151SOL    HW1 4352   5.466   5.470   3.713  0.8410  1.9407  0.7839
 1151SOL    HW2 4353   5.330   5.435   3.796  0.3558 -2.1992 -1.5172
 1152SOL     OW 4354   3.125   6.965   4.080  0.4221 -0.2889 -0.0165
 1152SOL    HW1 4355   3.138   7.051   4.031 -0.1517 -0.3160 -0.2135
 1152SOL    HW2 4356   3.186   6.964   4.160 -0.2012  0.6924  0.5005
 1153SOL     OW 4357   6.029   0.339   2.652  0.7347  0.3935  0.2294
 1153SOL    HW1 4358   6.110   0.345   2.711  0.7565 -0.0574  0.2452
 1153SOL    HW2 4359   6.046   0.275   2.578 -0.6529 -2.0756  1.9140
 1154SOL     OW 4360   0.171   3.068   1.255  0.2530  0.5413 -0.5517
 1154SOL    HW1 4361   0.228   2.996   1.294 -0.3693 -0.4148 -1.3631
 1154SOL    HW2 4362   0.219   3.110   1.177  0.6425  1.0698 -0.0387
 1155SOL     OW 4363   4.367   6.554   3.661 -0.0707  0.3957 -0.4690
 1155SOL    HW1 4364   4.346   6.651   3.675 -0.5173  0.3308 -0.6802
 1155SOL    HW2 4365   4.442   6.545   3.595 -1.5050  0.5411 -2.1805
 1156SOL     OW 4366   3.450   2.682   0.561  0.0053 -0.3637  1.1692
 1156SOL    HW1 4367   3.531   2.624   0.561 -0.1549 -0.6405 -0.9351
 1156SOL    HW2 4368   3.370   2.627   0.583 -0.1990 -1.1133 -1.1827
 1157SOL     OW 4369   1.826   2.556   6.539 -0.3253 -0.1317 -0.9609
 1157SOL    HW1 4370   1.883   2.571   6.458  0.1292  0.2060 -0.5824
 1157SOL    HW2 4371   1.755   2.627   6.542  0.2602  0.4516 -0.5443
 1158SOL     OW 4372   6.442   4.973   4.454  0.5023  0.2950  1.0763
 1158SOL    HW1 4373   6.526   5.005   4.498  1.2469  0.5108 -0.4332
 1158SOL    HW2 4374   6.444   4.997   4.356 -2.0615  1.7930  1.2951
 1159SOL     OW 4375   5.488   0.238   6.684 -0.4359 -0.3161  0.1075
 1159SOL    HW1 4376   5.468   0.258   6.588  0.3191 -2.6327 -0.5821
 1159SOL    HW2 4377   5.582   0.208   6.694 -1.0614 -2.0761  1.2189
 1160SOL     OW 4378   2.710   1.705   0.641 -0.2689  0.0219  0.2301
 1160SOL    HW1 4379   2.616   1.733   0.620  0.0162  2.3458  1.7294
 1160SOL    HW2 4380   2.709   1.642   0.719 -0.6433 -1.1837 -0.7122
 1161SOL     OW 4381   1.410   4.290   0.183  0.3232  0.2369 -0.4659
 1161SOL    HW1 4382   1.467   4.223   0.232  1.2471  1.8236  0.7166
 1161SOL    HW2 4383   1.326   4.306   0.235 -0.4459 -0.8311 -1.3412
 1162SOL     OW 4384   2.188   2.867   6.020  0.0570 -0.2259  0.7174
 1162SOL    HW1 4385   2.244   2.784   6.024  2.2234  1.1215  0.4896
 1162SOL    HW2 4386   2.180   2.897   5.925 -4.6704 -2.5621  0.1318
 1163SOL     OW 4387   4.234   0.890   1.550 -0.5146 -0.4660 -0.0888
 1163SOL    HW1 4388   4.159   0.824   1.549 -0.0258 -1.1017 -2.6205
 1163SOL    HW2 4389   4.212   0.965   1.488  0.8349 -0.5652 -0.7143
 1164SOL     OW 4390   3.393   4.739   0.643  0.0935 -0.1188 -0.1880
 1164SOL    HW1 4391   3.313   4.680   0.658 -0.6096  0.8603  0.0080
 1164SOL    HW2 4392   3.454   4.733   0.721  0.0710 -0.6538 -0.2083
 1165SOL     OW 4393   3.898   2.099   5.039  0.0528 -0.1716 -0.0235
 1165SOL    HW1 4394   3.799   2.111   5.026 -0.1584 -0.4188  1.2372
 1165SOL    HW2 4395   3.919   2.002   5.050  0.5079 -0.1621 -0.7504
 1166SOL     OW 4396   2.976   1.888   0.805  0.0924 -0.0419  0.3672
 1166SOL    HW1 4397   2.974   1.856   0.711  1.9016  0.2869  0.1785
 1166SOL    HW2 4398   2.977   1.988   0.807 -1.7156  0.0001  0.8268
 1167SOL     OW 4399   5.756   4.107   4.142 -0.6107 -0.1420  0.3088
 1167SOL    HW1 4400   5.818   4.135   4.215 -0.6945  2.3057 -0.4943
 1167SOL    HW2 4401   5.802   4.041   4.082  0.9415  1.0071  0.1938
 1168SOL     OW 4402   1.632   0.208   0.786 -0.0729  0.1904  0.3607
 1168SOL    HW1 4403   1.658   0.279   0.852 -2.3835  2.6147 -1.0949
 1168SOL    HW2 4404   1.560   0.151   0.826  0.8974 -0.5690  1.0783
 1169SOL     OW 4405   5.389   4.351   3.578  0.1820  0.1469  0.4133
 1169SOL    HW1 4406   5.296   4.347   3.616  1.0863  0.3528  2.8363
 1169SOL    HW2 4407   5.400   4.277   3.511 -2.1534  1.0414 -1.0966
 1170SOL     OW 4408   5.747   0.445   3.714 -0.2121  0.5850  0.0309
 1170SOL    HW1 4409   5.732   0.348   3.731 -2.1017  0.9520  0.7807
 1170SOL    HW2 4410   5.814   0.457   3.641  0.6513 -1.2512  0.4690
 1171SOL     OW 4411   1.033   0.811   0.532 -0.4791  0.1252  0.4307
 1171SOL    HW1 4412   1.050   0.855   0.619 -0.7832  0.0739  0.5184
 1171SOL    HW2 4413   0.984   0.874   0.471  1.0495  0.7006 -0.2488
 1172SOL     OW 4414   5.333   4.434   0.867  0.1334  0.6347 -0.1217
 1172SOL    HW1 4415   5.289   4.488   0.939  0.6953 -0.7817  1.3524
 1172SOL    HW2 4416   5.361   4.495   0.793  0.0050  2.2413  1.0835
 1173SOL     OW 4417   3.084   2.451   0.024  0.4275 -0.1497  0.3696
 1173SOL    HW1 4418   3.123   2.359   0.019  2.7755  0.6392  2.3448
 1173SOL    HW2 4419   3.124   2.500   0.101 -1.1067  2.4114 -0.3454
 1174SOL     OW 4420   5.011   5.058   0.829  0.5571 -0.9058 -0.3846
 1174SOL    HW1 4421   5.042   4.974   0.873 -0.1593 -1.4265 -0.8477
 1174SOL    HW2 4422   4.986   5.126   0.899  1.0561 -1.1057 -0.0106
 1175SOL     OW 4423   4.013   3.804   3.648 -0.3807  0.4142 -0.9044
 1175SOL    HW1 4424   4.018   3.786   3.550 -0.0928  0.5898 -0.9235
 1175SOL    HW2 4425   3.939   3.750   3.689  0.6719 -1.0770 -0.8944
 1176SOL     OW 4426   5.857   3.241   0.955  0.0876 -0.1535  0.0146
 1176SOL    HW1 4427   5.789   3.189   1.008  0.3179 -1.7506 -1.1879
 1176SOL    HW2 4428   5.870   3.197   0.866  1.8642  0.7817 -0.2185
 1177SOL     OW 4429   0.456   1.882   4.937  0.0588  0.0623  0.9028
 1177SOL    HW1 4430   0.550   1.914   4.948  0.8122 -1.2269 -1.1819
 1177SOL    HW2 4431   0.456   1.794   4.890 -2.2213  0.3907  0.1580
 1178SOL     OW 4432   4.404   6.925   0.560 -0.1304  0.0013 -0.6102
 1178SOL    HW1 4433   4.334   6.879   0.506 -2.2504  1.1182  1.0188
 1178SOL    HW2 4434   4.440   6.862   0.629  1.0448 -0.7876 -1.9029
 1179SOL     OW 4435   5.381   6.210   0.997  0.4983  0.0445  0.6130
 1179SOL    HW1 4436   5.355   6.283   0.933  2.0334 -0.3884 -0.5430
 1179SOL    HW2 4437   5.314   6.136   0.992  0.7411 -0.0988 -0.7008
 1180SOL     OW 4438   3.948   4.384   0.042 -0.3385 -0.2069  0.3947
 1180SOL    HW1 4439   4.044   4.373   0.016  0.4879 -0.8769  3.3333
 1180SOL    HW2 4440   3.937   4.473   0.087 -0.9804 -0.3494  0.5204
 1181SOL     OW 4441   5.821   4.774   0.048  0.2268  0.4105  0.3458
 1181SOL    HW1 4442   5.752   4.841   0.075 -0.6469 -0.0400 -0.6837
 1181SOL    HW2 4443   5.883   4.757   0.125 -0.1142  1.6715  0.9224
 1182SOL     OW 4444   4.913   3.535   3.413  0.6459  0.2857  0.5161
 1182SOL    HW1 4445   4.915   3.600   3.337 -0.0794 -0.5109 -0.2124
 1182SOL    HW2 4446   4.997   3.542   3.466  1.1101  0.9402 -0.2962
 1183SOL     OW 4447   3.216   5.916   0.444  0.3087  0.1376  0.1469
 1183SOL    HW1 4448   3.195   5.990   0.380 -1.9871  0.0105  0.6648
 1183SOL    HW2 4449   3.187   5.942   0.536  0.1319 -1.0987  0.4663
 1184SOL     OW 4450   6.533   0.899   6.711  0.0212 -0.2366 -0.0550
 1184SOL    HW1 4451   6.459   0.941   6.657  1.0146  0.7283 -0.7101
 1184SOL    HW2 4452   6.493   0.850   6.789 -1.2977  0.5653 -0.1818
 1185SOL     OW 4453   6.579   3.666   6.521 -0.0414  0.0659  0.2679
 1185SOL    HW1 4454   6.530   3.745   6.558  1.7446  0.1558  2.7133
 1185SOL    HW2 4455   6.548   3.648   6.427 -0.9981  3.2324 -0.1542
 1186SOL     OW 4456   5.400   5.297   3.080  0.4293  0.8742  0.1434
 1186SOL    HW1 4457   5.418   5.246   3.164  1.3355  1.5714  0.3898
 1186SOL    HW2 4458   5.450   5.384   3.082 -0.7380  1.5792 -0.4600
 1187SOL     OW 4459   0.805   1.618   5.790 -0.7781  0.2693  0.2889
 1187SOL    HW1 4460   0.759   1.533   5.765  0.3516 -0.0096 -0.9352
 1187SOL    HW2 4461   0.846   1.608   5.880 -2.8992  0.4640  1.3401
 1188SOL     OW 4462   4.748   6.439   0.311  0.7563 -0.3605  0.0880
 1188SOL    HW1 4463   4.763   6.535   0.333  0.2836 -0.1640 -0.4254
 1188SOL    HW2 4464   4.823   6.407   0.252  1.8732 -0.8134  1.6723
 1189SOL     OW 4465   5.464   3.847   3.194  0.2197  0.0880 -0.4054
 1189SOL    HW1 4466   5.379   3.857   3.246  0.2102  0.4939 -0.4981
 1189SOL    HW2 4467   5.542   3.854   3.255  0.1886 -2.2728  0.0353
 1190SOL     OW 4468   2.457   0.941   4.859  0.0123 -0.1759 -0.1657
 1190SOL    HW1 4469   2.514   0.896   4.790  1.2405 -0.1088  0.7684
 1190SOL    HW2 4470   2.506   1.019   4.897 -1.8887  1.7586 -1.4300
 1191SOL     OW 4471   2.912   6.692   2.852  0.6716 -0.7344 -0.2833
 1191SOL    HW1 4472   2.984   6.692   2.783  1.2337  0.6609  0.2592
 1191SOL    HW2 4473   2.953   6.687   2.944  0.0927 -0.0258  0.0265
 1192SOL     OW 4474   5.690   4.079   4.555 -0.1717  0.4610  0.0386
 1192SOL    HW1 4475   5.647   3.995   4.586  0.6229 -0.3437 -0.9774
 1192SOL    HW2 4476   5.766   4.102   4.615  0.9118 -0.7045 -0.8264
 1193SOL     OW 4477   0.435   0.177   4.678 -0.4785 -0.2425 -0.3861
 1193SOL    HW1 4478   0.341   0.213   4.678 -0.5851 -0.5183 -0.8875
 1193SOL    HW2 4479   0.474   0.188   4.769 -0.7202  0.6081 -0.3748
 1194SOL     OW 4480   3.646   0.092   6.042 -0.1665 -0.2653  0.5372
 1194SOL    HW1 4481   3.688   0.137   6.120  1.5815 -0.5542 -0.1960
 1194SOL    HW2 4482   3.658  -0.007   6.049  0.4868 -0.2611 -0.3333
 1195SOL     OW 4483   4.014   2.162   2.359 -0.0074 -0.1757 -0.7461
 1195SOL    HW1 4484   3.914   2.164   2.354  0.0467  0.2379 -2.2443
 1195SOL    HW2 4485   4.052   2.147   2.267  1.3317  0.5004 -0.3371
 1196SOL     OW 4486   0.822   0.031   5.614 -0.3649 -0.3405  0.4356
 1196SOL    HW1 4487   0.819   0.127   5.644 -0.0701 -0.2123  0.0646
 1196SOL    HW2 4488   0.763   0.019   5.535 -0.6817 -0.5475  0.7032
 1197SOL     OW 4489   2.796   5.430   0.758 -0.1649 -0.5763  0.0303
 1197SOL    HW1 4490   2.866   5.457   0.692 -0.4423  2.3331  0.7741
 1197SOL    HW2 4491   2.761   5.339   0.735  3.5125 -2.0094 -0.5980
 1198SOL     OW 4492   2.945   3.529   0.105 -0.4671  0.3067 -0.0943
 1198SOL    HW1 4493   2.938   3.620   0.064  0.7258  0.5569  0.2301
 1198SOL    HW2 4494   2.960   3.461   0.033 -2.6307  0.1628 -0.4774
 1199SOL     OW 4495   0.385   3.570   3.335 -0.3579 -0.1917  0.0008
 1199SOL    HW1 4496   0.336   3.652   3.362 -0.3404 -0.0084 -0.5083
 1199SOL    HW2 4497   0.328   3.490   3.350 -0.4386 -0.0695  0.3396
 1200SOL     OW 4498   3.247   4.120   3.268  0.4976 -0.0132  0.5668
 1200SOL    HW1 4499   3.346   4.128   3.282  0.6954  2.4793 -1.5001
 1200SOL    HW2 4500   3.200   4.125   3.356  2.1587 -1.2785  1.5890
 1201SOL     OW 4501   0.837   3.526   6.141 -0.3230 -0.0459 -0.1842
 1201SOL    HW1 4502   0.876   3.523   6.049  0.0643 -1.4405 -0.0004
 1201SOL    HW2 4503   0.743   3.492   6.139 -0.3588  0.0472 -0.0918
 1202SOL     OW 4504   0.725   4.075   3.884  0.3997  0.6630 -0.0964
 1202SOL    HW1 4505   0.653   4.006   3.887  0.1562  0.9097 -0.2364
 1202SOL    HW2 4506   0.722   4.131   3.967 -0.0199  1.1245 -0.4182
 1203SOL     OW 4507   2.848   0.263   4.474 -0.4654 -0.5952 -0.6441
 1203SOL    HW1 4508   2.781   0.289   4.544 -0.2901 -1.6920 -0.0555
 1203SOL    HW2 4509   2.823   0.174   4.435  0.6870 -1.0656 -0.3483
 1204SOL     OW 4510   1.863   6.705   2.075 -0.0090 -0.0951  0.4495
 1204SOL    HW1 4511   1.881   6.610   2.051 -0.6422 -0.0293 -0.3116
 1204SOL    HW2 4512   1.772   6.712   2.117 -0.4778  0.3393 -0.6051
 1205SOL     OW 4513   5.920   4.145   4.356  0.7975  0.1128  0.3979
 1205SOL    HW1 4514   5.853   4.082   4.395 -0.6672  2.1819  1.4202
 1205SOL    HW2 4515   6.012   4.119   4.387  0.4954 -2.4329 -0.5601
 1206SOL     OW 4516   3.927   4.008   5.218 -0.0886 -0.0610  0.5908
 1206SOL    HW1 4517   3.842   4.050   5.187 -0.5039 -0.2898  1.4050
 1206SOL    HW2 4518   3.978   3.975   5.138 -1.3764 -1.1001  0.1606
 1207SOL     OW 4519   2.057   5.670   2.513 -0.3050  0.1461  0.0515
 1207SOL    HW1 4520   2.055   5.642   2.609 -0.0762  2.5009  0.8199
 1207SOL    HW2 4521   1.965   5.696   2.484 -0.1520  0.7457  0.0865
 1208SOL     OW 4522   2.302   2.586   6.901  0.4967  0.1192  0.4637
 1208SOL    HW1 4523   2.286   2.554   6.807 -1.2681  2.8223 -0.2621
 1208SOL    HW2 4524   2.236   2.542   6.962  0.6546 -0.5208  0.1821
 1209SOL     OW 4525   3.239   1.173   3.554 -0.2137  0.0828 -0.2706
 1209SOL    HW1 4526   3.254   1.150   3.458 -0.4203 -3.8086  0.4716
 1209SOL    HW2 4527   3.180   1.253   3.560 -0.9706 -0.1119 -3.3849
 1210SOL     OW 4528   2.967   6.845   2.548 -0.5077 -0.1252  0.7400
 1210SOL    HW1 4529   3.019   6.916   2.596 -0.7349 -0.4810  1.5315
 1210SOL    HW2 4530   3.021   6.761   2.543  0.6389  0.6681 -2.0860
 1211SOL     OW 4531   0.419   3.559   0.976 -0.4958  0.3514  0.5110
 1211SOL    HW1 4532   0.463   3.482   1.024  1.3565 -0.0941 -1.7236
 1211SOL    HW2 4533   0.341   3.525   0.924  1.1658 -0.4150 -1.6275
 1212SOL     OW 4534   2.250   6.229   1.158 -0.2150 -0.6533  0.3249
 1212SOL    HW1 4535   2.319   6.159   1.179  1.3456  1.1531  1.6577
 1212SOL    HW2 4536   2.279   6.316   1.198 -2.2378  0.6991 -0.9950
 1213SOL     OW 4537   5.079   2.892   1.131  0.0724 -0.3625 -0.1025
 1213SOL    HW1 4538   5.159   2.903   1.073  0.0053  0.1541 -0.0987
 1213SOL    HW2 4539   5.006   2.848   1.080  0.1485 -0.2687 -0.2931
 1214SOL     OW 4540   6.596   0.904   2.880 -0.0002  0.3079  0.1350
 1214SOL    HW1 4541   6.509   0.903   2.830 -0.6661  0.6023  1.2442
 1214SOL    HW2 4542   6.653   0.828   2.850 -0.6019  0.1650 -0.6762
 1215SOL     OW 4543   2.899   4.943   3.189 -0.3009  0.9160 -0.1932
 1215SOL    HW1 4544   2.849   4.882   3.251  0.1161 -0.6311 -1.3388
 1215SOL    HW2 4545   2.992   4.957   3.224 -0.5521  1.3415  0.3356
 1216SOL     OW 4546   3.214   6.829   2.015 -0.0020  0.2201  0.0454
 1216SOL    HW1 4547   3.190   6.885   2.095  1.0392  0.1644  0.4204
 1216SOL    HW2 4548   3.268   6.884   1.951 -1.1879  0.3847 -0.8352
 1217SOL     OW 4549   1.578   4.068   5.930 -0.2890 -0.1989 -0.2229
 1217SOL    HW1 4550   1.672   4.100   5.916  0.2365 -1.9294 -0.9733
 1217SOL    HW2 4551   1.516   4.124   5.874  0.7459 -1.2248 -2.5393
 1218SOL     OW 4552   1.702   3.519   3.821  0.5263  0.1333 -0.6507
 1218SOL    HW1 4553   1.640   3.480   3.753  0.2520  0.2592 -0.4737
 1218SOL    HW2 4554   1.764   3.448   3.854  0.2815 -0.0644 -0.6103
 1219SOL     OW 4555   4.254   5.568   2.288  0.0596  0.1328 -0.1918
 1219SOL    HW1 4556   4.225   5.574   2.384  0.4930 -0.1533 -0.0402
 1219SOL    HW2 4557   4.203   5.496   2.242  0.4874 -0.3418  0.0644
 1220SOL     OW 4558   0.861   5.841   1.180 -0.2971  0.4824  0.1608
 1220SOL    HW1 4559   0.960   5.835   1.192  0.1896  0.6732 -2.9245
 1220SOL    HW2 4560   0.830   5.932   1.207  0.1747  0.1570  1.9385
 1221SOL     OW 4561   4.838   6.724   0.272 -0.6033 -0.1179 -0.2687
 1221SOL    HW1 4562   4.811   6.776   0.353 -1.7210  1.0541 -1.3540
 1221SOL    HW2 4563   4.935   6.702   0.277  0.1057  2.7125 -0.0750
 1222SOL     OW 4564   5.404   1.238   0.130  0.3223 -0.0810 -0.6205
 1222SOL    HW1 4565   5.377   1.233   0.034  0.7040 -0.7449 -0.7021
 1222SOL    HW2 4566   5.501   1.264   0.137  0.5149 -0.8016 -0.4568
 1223SOL     OW 4567   3.474   5.671   6.602 -0.1989  0.3035 -0.0542
 1223SOL    HW1 4568   3.438   5.671   6.509  1.0714  1.6353 -0.5956
 1223SOL    HW2 4569   3.449   5.757   6.647 -1.3212 -0.5763  1.0881
 1224SOL     OW 4570   4.320   1.320   2.067  0.6107 -0.5896  0.5064
 1224SOL    HW1 4571   4.414   1.308   2.034  0.8516 -1.9091  1.5998
 1224SOL    HW2 4572   4.278   1.231   2.083 -0.0992 -0.0061  2.0511
 1225SOL     OW 4573   4.372   4.612   0.688  0.1246  0.4755  0.4560
 1225SOL    HW1 4574   4.315   4.679   0.641  1.1913  1.4077  0.4646
 1225SOL    HW2 4575   4.403   4.543   0.623 -0.2933  0.4559  0.2758
 1226SOL     OW 4576   2.357   5.083   2.549 -0.5740  0.7119  0.2102
 1226SOL    HW1 4577   2.393   5.145   2.619  0.3371  0.5015 -0.0511
 1226SOL    HW2 4578   2.269   5.117   2.516  0.4582  2.5894 -0.8268
 1227SOL     OW 4579   1.058   2.434   6.507  0.0377  0.4631 -0.2324
 1227SOL    HW1 4580   1.070   2.512   6.569 -1.3056  0.4384  0.0939
 1227SOL    HW2 4581   1.143   2.418   6.456 -0.1779  3.3711 -1.7404
 1228SOL     OW 4582   5.092   2.133   6.452 -0.1929 -0.5563 -0.4274
 1228SOL    HW1 4583   5.059   2.057   6.508 -0.9078  0.6351  0.8460
 1228SOL    HW2 4584   5.026   2.152   6.380 -0.2161 -0.8745 -0.4919
 1229SOL     OW 4585   4.036   3.653   6.327  0.3544  0.0031  0.0875
 1229SOL    HW1 4586   3.966   3.694   6.385 -0.4532 -0.0300 -0.8387
 1229SOL    HW2 4587   4.126   3.669   6.368 -0.2357 -0.8751  1.8549
 1230SOL     OW 4588   4.141   0.716   3.574  0.2456  0.2152 -0.1971
 1230SOL    HW1 4589   4.200   0.776   3.627 -0.6848  0.0191  1.1092
 1230SOL    HW2 4590   4.047   0.725   3.606 -0.1171 -0.9668 -0.8608
 1231SOL     OW 4591   1.448   2.336   4.576 -0.5768  0.1099 -0.6743
 1231SOL    HW1 4592   1.465   2.397   4.654 -0.4046 -0.9814  0.1698
 1231SOL    HW2 4593   1.387   2.382   4.511  0.9633  1.8791 -0.9640
 1232SOL     OW 4594   1.672   2.830   2.791 -0.0549  0.4865  0.9435
 1232SOL    HW1 4595   1.611   2.767   2.743 -0.9762  0.4972  2.0528
 1232SOL    HW2 4596   1.746   2.858   2.730  1.0733 -2.5497  0.7247
 1233SOL     OW 4597   0.983   3.518   3.799 -0.1019  0.0622 -0.1063
 1233SOL    HW1 4598   0.975   3.431   3.750 -1.2748  0.2652 -0.3065
 1233SOL    HW2 4599   1.069   3.520   3.851  0.7872 -0.4883 -1.5027
 1234SOL     OW 4600   0.392   4.381   5.617  0.0565  0.3243  0.3488
 1234SOL    HW1 4601   0.388   4.461   5.558 -2.5125 -0.6622 -1.0105
 1234SOL    HW2 4602   0.423   4.302   5.564 -1.2226 -0.3501  0.5511
 1235SOL     OW 4603   6.455   4.293   1.482 -0.6117 -0.1049 -0.0383
 1235SOL    HW1 4604   6.430   4.293   1.385 -0.9588 -0.2963  0.0493
 1235SOL    HW2 4605   6.375   4.269   1.537 -0.3333 -0.3254  0.2744
 1236SOL     OW 4606   5.397   6.940   5.631 -0.4593 -0.0235  0.4848
 1236SOL    HW1 4607   5.495   6.921   5.630 -0.5655 -0.7073  1.3343
 1236SOL    HW2 4608   5.357   6.905   5.716 -1.2977  0.9800  0.5332
 1237SOL     OW 4609   2.827   3.721   5.677  0.4722 -0.3176  0.3279
 1237SOL    HW1 4610   2.842   3.641   5.619  2.7119  0.5181 -0.3249
 1237SOL    HW2 4611   2.875   3.800   5.639 -2.3822  1.6406  0.4425
 1238SOL     OW 4612   2.634   0.769   0.607  0.0386 -0.1394  0.5503
 1238SOL    HW1 4613   2.691   0.750   0.527  0.7842 -2.2033  1.5006
 1238SOL    HW2 4614   2.680   0.836   0.666  1.2622 -1.3738  1.0398
 1239SOL     OW 4615   2.302   6.213   0.373  0.3436  0.3409  0.0471
 1239SOL    HW1 4616   2.216   6.180   0.335  1.2317 -1.7143 -0.3170
 1239SOL    HW2 4617   2.300   6.206   0.472  0.7586 -1.5618 -0.0535
 1240SOL     OW 4618   5.945   6.590   1.557  0.4906  0.2364 -0.8439
 1240SOL    HW1 4619   5.919   6.529   1.481 -1.6930  0.3521 -0.2643
 1240SOL    HW2 4620   6.042   6.579   1.576  0.4515 -2.1083 -1.6171
 1241SOL     OW 4621   0.711   1.853   5.881 -0.2548  0.3719 -0.1061
 1241SOL    HW1 4622   0.737   1.757   5.868 -0.6360 -0.1173  2.2851
 1241SOL    HW2 4623   0.659   1.884   5.802  2.2356 -0.4950 -2.2139
 1242SOL     OW 4624   3.696   2.890   6.810 -0.3151  0.4099 -0.5955
 1242SOL    HW1 4625   3.786   2.932   6.793 -0.0040  0.9441  1.8516
 1242SOL    HW2 4626   3.696   2.849   6.902 -2.3294 -0.3014 -0.8670
 1243SOL     OW 4627   4.527   4.899   4.787  0.6313 -0.5419 -0.4279
 1243SOL    HW1 4628   4.623   4.890   4.762  0.5594 -0.3498 -0.7857
 1243SOL    HW2 4629   4.519   4.942   4.877  0.8772 -0.3984 -0.4744
 1244SOL     OW 4630   0.614   0.043   2.844  0.1223  0.2033 -0.9210
 1244SOL    HW1 4631   0.563  -0.029   2.797  0.0874  0.8119 -1.8452
 1244SOL    HW2 4632   0.684   0.002   2.902 -0.9825 -0.6252 -0.1209
 1245SOL     OW 4633   3.218   2.740   5.291  0.6274  0.0077 -0.0179
 1245SOL    HW1 4634   3.188   2.654   5.250 -0.7309 -0.3045  1.5320
 1245SOL    HW2 4635   3.143   2.807   5.287  1.3808  0.8479 -0.4372
 1246SOL     OW 4636   1.702   0.502   2.618 -0.2238  0.0296  0.3486
 1246SOL    HW1 4637   1.622   0.539   2.666  0.8498  2.4982  0.3550
 1246SOL    HW2 4638   1.785   0.532   2.664  0.7708 -0.8102 -0.8472
 1247SOL     OW 4639   1.327   0.701   4.062  0.0069  0.1692 -0.3894
 1247SOL    HW1 4640   1.356   0.638   3.991  2.3997 -0.7506  1.2473
 1247SOL    HW2 4641   1.406   0.724   4.120 -1.2974  2.7765  0.5304
 1248SOL     OW 4642   2.825   6.367   6.246  0.0478 -0.0489  0.1143
 1248SOL    HW1 4643   2.832   6.467   6.241  0.0617  0.0050  1.0532
 1248SOL    HW2 4644   2.805   6.330   6.155  0.7149  0.7514 -0.3671
 1249SOL     OW 4645   0.572   2.079   2.050 -0.1705  0.0466 -0.2197
 1249SOL    HW1 4646   0.616   2.019   2.116 -1.6538 -2.2992 -1.2055
 1249SOL    HW2 4647   0.641   2.126   1.995  1.1287 -2.1117 -0.5389
 1250SOL     OW 4648   6.627   1.654   4.417  0.4294 -0.8032  0.2904
 1250SOL    HW1 4649   6.585   1.707   4.491 -1.6789 -2.0173  0.0374
 1250SOL    HW2 4650   6.672   1.715   4.353  0.0434  0.4763  1.2042
 1251SOL     OW 4651   3.133   0.759   5.362 -0.6752  0.0334  0.2479
 1251SOL    HW1 4652   3.224   0.719   5.351 -0.7666 -0.0380 -0.2934
 1251SOL    HW2 4653   3.101   0.793   5.274 -1.1221  0.1700  0.4604
 1252SOL     OW 4654   1.731   3.486   0.659 -0.1389  0.2793  0.2351
 1252SOL    HW1 4655   1.791   3.531   0.593  0.3974 -1.4138 -0.4750
 1252SOL    HW2 4656   1.766   3.502   0.752  0.9846 -0.0327 -0.1154
 1253SOL     OW 4657   4.055   2.853   1.679 -0.2045 -0.0222 -0.5335
 1253SOL    HW1 4658   3.973   2.906   1.658 -0.8546 -0.3399  1.1147
 1253SOL    HW2 4659   4.136   2.905   1.650 -0.9684 -0.3652 -3.5998
 1254SOL     OW 4660   6.802   1.610   4.800  0.5510  0.5167  0.4355
 1254SOL    HW1 4661   6.739   1.538   4.831  1.1608 -0.4204 -0.4661
 1254SOL    HW2 4662   6.750   1.678   4.748  0.4208 -0.8869 -1.3720
 1255SOL     OW 4663   0.809   5.759   3.798  0.5698  0.5218 -0.3290
 1255SOL    HW1 4664   0.777   5.668   3.771  0.3994  0.0918  1.2427
 1255SOL    HW2 4665   0.739   5.805   3.853  1.0924  1.1453 -0.1734
 1256SOL     OW 4666   5.542   2.013   3.762  0.6799  0.2106 -0.2120
 1256SOL    HW1 4667   5.555   2.103   3.802  0.2430  0.5883 -0.8940
 1256SOL    HW2 4668   5.523   2.023   3.664 -3.6191 -0.2925  0.4101
 1257SOL     OW 4669   3.989   1.349   4.822 -0.3800  0.4209  0.5950
 1257SOL    HW1 4670   3.972   1.367   4.725  0.1100  0.3732  0.4984
 1257SOL    HW2 4671   3.976   1.251   4.840  0.9673  0.1594  0.2603
 1258SOL     OW 4672   5.996   4.766   4.843 -0.2770 -0.0923 -0.3769
 1258SOL    HW1 4673   5.940   4.685   4.861 -1.8831  1.0266 -0.1440
 1258SOL    HW2 4674   6.087   4.752   4.883 -0.7926 -1.4208  0.4307
 1259SOL     OW 4675   4.633   2.182   4.554 -0.3208 -0.0215 -0.2724
 1259SOL    HW1 4676   4.726   2.204   4.585 -0.7557  1.0393  0.3091
 1259SOL    HW2 4677   4.638   2.129   4.469  0.9203 -2.6321  1.2781
 1260SOL     OW 4678   0.866   1.063   6.257 -0.2507 -0.1510 -0.2867
 1260SOL    HW1 4679   0.775   1.026   6.272  0.2821 -1.4755 -0.2274
 1260SOL    HW2 4680   0.900   1.104   6.342 -1.2696  1.5220 -0.6320
 1261SOL     OW 4681   6.172   3.011   5.831 -0.6456  0.3428 -0.3759
 1261SOL    HW1 4682   6.079   3.026   5.866 -0.4413  1.3199 -0.2481
 1261SOL    HW2 4683   6.235   3.002   5.908 -0.9536 -2.8167 -0.3521
 1262SOL     OW 4684   4.833   6.558   2.382 -0.0487 -0.1863 -0.2899
 1262SOL    HW1 4685   4.834   6.510   2.295 -0.2751  0.9020 -0.9154
 1262SOL    HW2 4686   4.899   6.517   2.444  0.9014 -0.3051 -1.3555
 1263SOL     OW 4687   0.880   3.441   2.086  0.3345 -0.5685 -0.1976
 1263SOL    HW1 4688   0.855   3.501   2.161  4.8655  1.1528  0.2842
 1263SOL    HW2 4689   0.913   3.495   2.008 -0.4442 -2.3871 -1.8854
 1264SOL     OW 4690   6.356   3.894   4.202  0.1117 -0.3984  0.4365
 1264SOL    HW1 4691   6.323   3.801   4.220  0.7957 -0.3688  2.0667
 1264SOL    HW2 4692   6.451   3.901   4.234 -0.3009  1.1692  1.3970
 1265SOL     OW 4693   4.672   6.204   6.471 -0.0929 -0.4085  0.0443
 1265SOL    HW1 4694   4.746   6.267   6.494  0.6133 -1.2716  0.2331
 1265SOL    HW2 4695   4.640   6.223   6.378  1.3005 -0.8622 -0.5666
 1266SOL     OW 4696   2.383   0.814   5.393  0.3735 -0.1747 -0.2965
 1266SOL    HW1 4697   2.296   0.812   5.442  0.6794 -0.0962  0.2638
 1266SOL    HW2 4698   2.368   0.791   5.297 -0.2421 -0.3025 -0.1746
 1267SOL     OW 4699   3.084   6.200   3.403  0.0120  0.2789  0.3325
 1267SOL    HW1 4700   3.077   6.279   3.464 -1.5861  0.0252  0.5233
 1267SOL    HW2 4701   3.169   6.151   3.421 -0.3992  0.2388  2.3327
 1268SOL     OW 4702   3.860   1.049   5.648 -0.4610  0.4938 -0.5236
 1268SOL    HW1 4703   3.765   1.052   5.618  0.0634  1.6119 -2.2022
 1268SOL    HW2 4704   3.881   0.957   5.681 -3.0650  1.0589  3.4059
 1269SOL     OW 4705   6.770   2.300   2.730 -0.5845 -0.4917 -0.4668
 1269SOL    HW1 4706   6.827   2.220   2.712 -1.9513 -1.6934  0.2285
 1269SOL    HW2 4707   6.815   2.382   2.696  1.1428 -1.4720 -0.6815
 1270SOL     OW 4708   5.256   4.199   4.041 -0.0130  0.2353 -0.1380
 1270SOL    HW1 4709   5.343   4.214   4.089 -0.6681 -0.3144  1.2689
 1270SOL    HW2 4710   5.186   4.259   4.079 -0.1615  1.0400 -1.6067
 1271SOL     OW 4711   1.427   0.113   2.014  0.3598  0.1829  0.4931
 1271SOL    HW1 4712   1.477   0.052   2.076  1.7244 -0.3157 -1.0366
 1271SOL    HW2 4713   1.492   0.165   1.959 -0.8113  1.7034  0.4785
 1272SOL     OW 4714   6.332   1.880   0.302 -0.2605 -0.2189 -0.0271
 1272SOL    HW1 4715   6.282   1.794   0.315 -1.9189  0.7691  0.4609
 1272SOL    HW2 4716   6.308   1.919   0.214  0.7590 -0.4131 -0.3958
 1273SOL     OW 4717   2.143   5.153   5.704 -0.1685  0.1166  0.4017
 1273SOL    HW1 4718   2.156   5.110   5.614  1.4009  0.7586  0.2932
 1273SOL    HW2 4719   2.147   5.252   5.695 -1.8750  0.2746  0.9435
 1274SOL     OW 4720   6.722   3.088   2.067  0.0372  0.1932 -0.3650
 1274SOL    HW1 4721   6.718   2.988   2.076  1.0860 -0.0907 -2.3752
 1274SOL    HW2 4722   6.730   3.112   1.970 -0.7435  2.2769  0.0367
 1275SOL     OW 4723   2.166   2.891   2.472 -0.3921 -0.2420 -0.4766
 1275SOL    HW1 4724   2.153   2.808   2.418 -0.7177  0.0467 -0.8560
 1275SOL    HW2 4725   2.147   2.971   2.414  1.2776  0.1540 -0.5288
 1276SOL     OW 4726   6.577   5.324   5.306 -0.5493 -0.2180  0.6762
 1276SOL    HW1 4727   6.567   5.240   5.360 -1.1236  0.1873  1.2197
 1276SOL    HW2 4728   6.491   5.343   5.259 -0.6050  0.3636  1.0026
 1277SOL     OW 4729   1.681   6.944   6.359 -0.0524  0.0108  0.3067
 1277SOL    HW1 4730   1.736   7.017   6.401  0.2842 -0.2412  0.3113
 1277SOL    HW2 4731   1.674   6.867   6.422 -0.7126  0.1792  0.4447
 1278SOL     OW 4732   6.067   5.431   2.179 -0.1765  0.7181  0.0834
 1278SOL    HW1 4733   6.137   5.486   2.226 -0.1190  1.2465 -0.6029
 1278SOL    HW2 4734   5.980   5.479   2.183 -0.5938 -0.0999  1.2349
 1279SOL     OW 4735   1.860   3.572   1.807  0.7285 -0.3495  0.0114
 1279SOL    HW1 4736   1.945   3.536   1.769  0.2815  0.2700 -1.6601
 1279SOL    HW2 4737   1.809   3.619   1.736 -0.9815 -0.6139  1.0129
 1280SOL     OW 4738   2.404   1.729   3.131 -0.1311  0.7027  0.1379
 1280SOL    HW1 4739   2.402   1.702   3.035  2.0512  2.9896 -0.6553
 1280SOL    HW2 4740   2.339   1.804   3.146 -1.1864 -0.2871  0.7474
 1281SOL     OW 4741   4.956   5.694   0.098 -0.4327  0.1952 -0.4958
 1281SOL    HW1 4742   5.006   5.617   0.138  1.5752  1.5811 -0.1330
 1281SOL    HW2 4743   5.019   5.749   0.043 -1.4318  2.3147  0.3717
 1282SOL     OW 4744   0.186   1.535   6.795 -0.4364 -0.1733  0.1953
 1282SOL    HW1 4745   0.107   1.595   6.789 -0.6290 -0.3043  1.1631
 1282SOL    HW2 4746   0.223   1.517   6.704 -0.4325  1.3261 -0.1131
 1283SOL     OW 4747   0.845   1.595   4.698 -0.3752  0.2020  0.2323
 1283SOL    HW1 4748   0.936   1.626   4.724  0.1936 -1.6163  0.5770
 1283SOL    HW2 4749   0.822   1.631   4.608  0.8180  0.4295  0.0005
 1284SOL     OW 4750   2.880   3.087   0.834 -0.1564 -0.1584  0.3479
 1284SOL    HW1 4751   2.864   2.988   0.831  0.0665 -0.1739 -0.8155
 1284SOL    HW2 4752   2.885   3.117   0.929 -5.1534 -0.4389  0.9898
 1285SOL     OW 4753   5.283   3.438   4.483 -0.0765  0.1765 -0.2397
 1285SOL    HW1 4754   5.304   3.456   4.579  1.1569  1.3246 -0.6895
 1285SOL    HW2 4755   5.216   3.364   4.476 -1.6234  1.3077  1.5787
 1286SOL     OW 4756   5.348   1.550   2.169 -0.4084 -0.2802 -0.1786
 1286SOL    HW1 4757   5.411   1.517   2.098 -0.7258  2.9254 -2.1491
 1286SOL    HW2 4758   5.258   1.566   2.128 -1.4353 -0.9571  1.6766
 1287SOL     OW 4759   6.042   5.543   6.922  0.7407 -1.2657  0.0060
 1287SOL    HW1 4760   6.014   5.639   6.918 -0.5308 -1.5422  1.1667
 1287SOL    HW2 4761   6.142   5.537   6.926  0.8221  0.0463  0.4976
 1288SOL     OW 4762   4.143   3.836   0.056 -0.1400 -0.1940  0.2055
 1288SOL    HW1 4763   4.112   3.931   0.056 -0.6217 -0.3509  0.3661
 1288SOL    HW2 4764   4.177   3.812  -0.034 -2.4587 -0.6665 -0.6049
 1289SOL     OW 4765   0.027   6.186   0.762  0.1325 -0.3674 -0.3311
 1289SOL    HW1 4766   0.123   6.189   0.735  0.4408  0.4654  0.8004
 1289SOL    HW2 4767   0.008   6.259   0.828 -1.0280 -1.1732  0.2664
 1290SOL     OW 4768   2.353   6.480   6.396 -0.1451 -0.3160 -0.1301
 1290SOL    HW1 4769   2.436   6.447   6.441 -0.8179 -2.7712 -0.5267
 1290SOL    HW2 4770   2.343   6.434   6.308 -2.9436 -1.6884  0.8058
 1291SOL     OW 4771   0.787   5.243   3.632 -0.1924 -0.4209  0.2189
 1291SOL    HW1 4772   0.744   5.164   3.675 -0.8981  0.2531  0.7857
 1291SOL    HW2 4773   0.868   5.214   3.582  0.2563 -1.3492  1.4270
 1292SOL     OW 4774   6.119   5.924   1.965 -0.0139 -0.1248 -0.8030
 1292SOL    HW1 4775   6.083   5.885   2.049  1.6850 -0.4910 -0.1911
 1292SOL    HW2 4776   6.215   5.948   1.979  0.3277 -0.2739 -2.6633
 1293SOL     OW 4777   4.677   6.756   2.276 -0.3361  0.1823  0.1779
 1293SOL    HW1 4778   4.720   6.840   2.241 -1.5751  1.0352  0.6498
 1293SOL    HW2 4779   4.748   6.689   2.298  0.6406  0.8250 -0.8980
 1294SOL     OW 4780   1.025   4.470   4.042  0.0977 -0.4318 -0.1679
 1294SOL    HW1 4781   1.068   4.560   4.030 -1.3625  0.2037 -0.9165
 1294SOL    HW2 4782   0.934   4.471   4.000 -0.6107 -1.7613  1.2558
 1295SOL     OW 4783   0.264   4.311   0.412 -0.1606 -0.5334  0.0609
 1295SOL    HW1 4784   0.181   4.284   0.461  0.7955 -1.9520  1.0219
 1295SOL    HW2 4785   0.261   4.408   0.391 -2.3339 -0.6735 -0.5230
 1296SOL     OW 4786   4.946   1.393   5.669  0.3151  0.2929  0.1514
 1296SOL    HW1 4787   4.848   1.379   5.686  0.2907  1.2473  0.8121
 1296SOL    HW2 4788   4.999   1.326   5.722 -0.0039 -1.3797 -1.5123
 1297SOL     OW 4789   6.004   0.599   6.519 -0.2634 -0.1984  1.0856
 1297SOL    HW1 4790   5.905   0.611   6.513 -0.0609  1.1812  0.1420
 1297SOL    HW2 4791   6.024   0.504   6.544 -1.7797 -1.3370 -1.5466
 1298SOL     OW 4792   6.824   0.908   4.611  0.1233 -0.8025 -0.0779
 1298SOL    HW1 4793   6.917   0.901   4.576 -0.3771  0.2453 -1.7475
 1298SOL    HW2 4794   6.759   0.891   4.536 -1.0282 -0.6956  0.8676
 1299SOL     OW 4795   1.402   4.012   5.335  0.0976  0.7224 -0.1227
 1299SOL    HW1 4796   1.319   3.957   5.346  1.5097 -1.2232  1.5476
 1299SOL    HW2 4797   1.401   4.087   5.401  0.1197  0.0727  0.6334
 1300SOL     OW 4798   1.679   6.403   1.039 -0.8513  0.2938 -0.6268
 1300SOL    HW1 4799   1.597   6.441   0.995 -1.3415  1.3409  1.0966
 1300SOL    HW2 4800   1.670   6.304   1.045 -1.7749  0.3454 -0.9212
 1301SOL     OW 4801   5.255   2.364   6.188 -0.2097  0.2138 -0.2458
 1301SOL    HW1 4802   5.159   2.347   6.166  0.2736 -1.4069 -1.2525
 1301SOL    HW2 4803   5.266   2.370   6.287 -1.6185  2.4250 -0.1469
 1302SOL     OW 4804   0.363   6.976   5.670 -0.3455 -0.1971 -0.5669
 1302SOL    HW1 4805   0.399   7.014   5.756  1.0962  0.5264 -1.4630
 1302SOL    HW2 4806   0.296   7.040   5.632  0.4306  0.4111 -0.9388
 1303SOL     OW 4807   3.338   6.182   1.896  0.0097  0.0264 -0.0029
 1303SOL    HW1 4808   3.350   6.118   1.972 -2.4771 -0.5916 -0.0196
 1303SOL    HW2 4809   3.369   6.139   1.811 -0.0300 -0.4894  0.2383
 1304SOL     OW 4810   0.074   1.037   1.918  0.0529 -0.4418  0.0318
 1304SOL    HW1 4811   0.118   1.095   1.850  0.1560  0.8987  1.1847
 1304SOL    HW2 4812  -0.012   1.079   1.947 -0.7265 -1.7452 -0.3321
 1305SOL     OW 4813   4.291   3.418   5.961 -0.0119 -0.1341 -0.2437
 1305SOL    HW1 4814   4.240   3.468   6.031 -0.5754 -0.8270 -0.1487
 1305SOL    HW2 4815   4.350   3.350   6.004 -0.0025 -0.2394 -0.4226
 1306SOL     OW 4816   3.381   1.687   4.047  0.9892 -0.4343 -0.3414
 1306SOL    HW1 4817   3.475   1.718   4.034  0.7175  0.2356 -0.7793
 1306SOL    HW2 4818   3.376   1.627   4.127  1.6740  0.0408  0.0676
 1307SOL     OW 4819   1.024   4.422   4.748  0.4961 -0.1150 -0.2989
 1307SOL    HW1 4820   1.031   4.472   4.835  1.2104 -0.2844 -0.2588
 1307SOL    HW2 4821   1.043   4.325   4.764 -2.2657 -0.7182 -0.0997
 1308SOL     OW 4822   0.158   4.193   6.261 -0.3766  0.3336  0.7085
 1308SOL    HW1 4823   0.143   4.289   6.237  0.5265  0.0926 -0.9001
 1308SOL    HW2 4824   0.114   4.134   6.194  0.5034 -0.3736  0.7312
 1309SOL     OW 4825   6.617   5.514   6.863 -0.3456  0.2192 -0.6297
 1309SOL    HW1 4826   6.698   5.564   6.832 -0.4129 -0.3416 -1.7957
 1309SOL    HW2 4827   6.630   5.416   6.844 -1.6569  0.2291 -1.6971
 1310SOL     OW 4828   1.840   2.466   1.820  0.0507  0.0854  0.6474
 1310SOL    HW1 4829   1.883   2.378   1.800 -0.9973  0.3538 -3.6985
 1310SOL    HW2 4830   1.905   2.540   1.800 -0.0614  0.3949  1.3817
 1311SOL     OW 4831   5.976   6.463   6.797 -0.1863  0.4727 -0.4273
 1311SOL    HW1 4832   5.898   6.418   6.840 -0.3969  0.7533 -0.5103
 1311SOL    HW2 4833   5.946   6.510   6.714 -0.2723  1.9970  0.4266
 1312SOL     OW 4834   4.210   2.144   0.384 -0.3579  0.1604 -0.4680
 1312SOL    HW1 4835   4.133   2.206   0.373 -1.1837 -0.7923 -0.3038
 1312SOL    HW2 4836   4.282   2.167   0.319 -0.0018  2.1826  0.5531
 1313SOL     OW 4837   6.763   3.822   4.510 -0.2494 -0.0532 -0.2034
 1313SOL    HW1 4838   6.791   3.763   4.586 -0.5963  1.3949  1.1062
 1313SOL    HW2 4839   6.784   3.917   4.532  0.6003  0.3286 -2.3990
 1314SOL     OW 4840   3.257   0.099   3.077 -0.2200  0.1574 -0.1418
 1314SOL    HW1 4841   3.253   0.006   3.040 -0.6734  0.8660 -1.9480
 1314SOL    HW2 4842   3.164   0.133   3.090 -0.0616  0.8776 -0.8560
 1315SOL     OW 4843   5.725   0.895   4.250 -0.1470 -0.6051  0.2939
 1315SOL    HW1 4844   5.783   0.966   4.209 -1.8440  1.3392  1.0707
 1315SOL    HW2 4845   5.782   0.831   4.301  1.3370  1.2264  1.0512
 1316SOL     OW 4846   0.239   6.767   6.612 -0.3253 -0.0772  0.3352
 1316SOL    HW1 4847   0.183   6.792   6.691 -1.0436  1.1247 -0.5157
 1316SOL    HW2 4848   0.180   6.730   6.539  0.3481 -1.3498  0.4069
 1317SOL     OW 4849   3.326   3.369   3.705  0.1684  0.4024  0.5568
 1317SOL    HW1 4850   3.259   3.296   3.716  1.2717 -0.5404  1.2056
 1317SOL    HW2 4851   3.418   3.333   3.721  1.0242  1.2577 -1.9911
 1318SOL     OW 4852   1.808   1.182   6.574  0.1209 -0.1237  0.3968
 1318SOL    HW1 4853   1.716   1.150   6.553 -0.4909  0.7187  1.6981
 1318SOL    HW2 4854   1.875   1.120   6.533 -0.9815  0.2621 -2.1671
 1319SOL     OW 4855   6.489   2.315   1.463 -0.0428 -0.7567  0.0415
 1319SOL    HW1 4856   6.542   2.272   1.535  0.8735  0.7332  0.3026
 1319SOL    HW2 4857   6.547   2.333   1.384 -0.0750  1.0065  0.3744
 1320SOL     OW 4858   4.350   3.208   0.958 -0.1409 -0.4907 -0.4619
 1320SOL    HW1 4859   4.343   3.149   0.878 -0.0302 -0.0752 -0.7790
 1320SOL    HW2 4860   4.439   3.255   0.957 -0.5667  0.3281 -0.6627
 1321SOL     OW 4861   6.346   3.124   0.167 -0.0134  0.3704 -0.4994
 1321SOL    HW1 4862   6.247   3.132   0.179  0.2171  1.4095  0.8335
 1321SOL    HW2 4863   6.377   3.191   0.100  0.0974  1.7005  0.8512
 1322SOL     OW 4864   1.647   3.127   0.363 -0.8927  0.1177 -0.2289
 1322SOL    HW1 4865   1.698   3.063   0.305  2.0301  1.5455  0.5484
 1322SOL    HW2 4866   1.551   3.128   0.336  0.0629 -0.1452 -4.2530
 1323SOL     OW 4867   1.954   6.742   1.365 -0.4608  0.4668 -0.0213
 1323SOL    HW1 4868   1.889   6.697   1.303 -1.0455 -0.2333  1.0485
 1323SOL    HW2 4869   1.942   6.705   1.457 -0.1056  1.9715  0.6604
 1324SOL     OW 4870   3.708   2.666   6.113  0.1405 -0.4481  0.2505
 1324SOL    HW1 4871   3.714   2.764   6.091  0.2080 -0.6714 -0.7637
 1324SOL    HW2 4872   3.793   2.637   6.157  0.7341 -0.3649 -0.8047
 1325SOL     OW 4873   5.531   4.920   3.841 -0.1906  0.2982  0.2659
 1325SOL    HW1 4874   5.578   4.927   3.928  2.5870  0.3374 -1.1178
 1325SOL    HW2 4875   5.534   4.825   3.810  0.9296  0.6456 -0.7862
 1326SOL     OW 4876   4.653   0.228   3.897  0.0016  0.4682  0.4370
 1326SOL    HW1 4877   4.631   0.130   3.900  0.5154  0.3342  0.0171
 1326SOL    HW2 4878   4.690   0.251   3.807 -0.5079  1.1397  0.3890
 1327SOL     OW 4879   5.835   6.685   0.928 -0.0446 -0.1329  0.1211
 1327SOL    HW1 4880   5.800   6.607   0.980  0.1939 -0.9239 -0.8714
 1327SOL    HW2 4881   5.874   6.752   0.991  1.5853 -1.7232  0.9146
 1328SOL     OW 4882   3.395   2.987   4.887 -0.6054  0.3343 -0.4306
 1328SOL    HW1 4883   3.333   3.021   4.817 -0.4885  0.3311 -0.5357
 1328SOL    HW2 4884   3.470   2.937   4.845 -1.2893 -0.8929 -0.2184
 1329SOL     OW 4885   2.127   1.924   3.879  0.4499  0.1642  0.0302
 1329SOL    HW1 4886   2.136   1.934   3.780  0.2155  0.0382 -0.0058
 1329SOL    HW2 4887   2.138   1.827   3.905 -1.4763 -0.1415 -0.1096
 1330SOL     OW 4888   0.600   3.498   2.667  0.6048  0.0234 -0.1036
 1330SOL    HW1 4889   0.629   3.519   2.574 -1.0619  2.1821 -0.2157
 1330SOL    HW2 4890   0.501   3.484   2.668  0.6235 -0.1160  1.3314
 1331SOL     OW 4891   3.351   1.120   2.353  0.2205 -0.5755 -0.4376
 1331SOL    HW1 4892   3.386   1.061   2.426  0.5865  0.1863  0.0156
 1331SOL    HW2 4893   3.388   1.091   2.265 -2.1690 -3.1247 -0.7474
 1332SOL     OW 4894   1.082   0.312   0.494  0.4224  0.0914 -0.1381
 1332SOL    HW1 4895   1.100   0.376   0.569 -1.0193  0.8599 -0.3987
 1332SOL    HW2 4896   0.984   0.314   0.472  0.6058 -1.0960 -1.1754
 1333SOL     OW 4897   4.112   3.291   3.164 -0.6108 -0.4761  0.0192
 1333SOL    HW1 4898   4.078   3.236   3.088  0.4615 -0.2089 -0.6736
 1333SOL    HW2 4899   4.176   3.360   3.130 -1.2634  0.6530  0.9742
 1334SOL     OW 4900   5.776   4.204   6.731  0.0545 -0.1932  0.3482
 1334SOL    HW1 4901   5.765   4.136   6.803 -1.1962 -0.4076 -0.0203
 1334SOL    HW2 4902   5.743   4.293   6.763  3.2680  0.7581  1.4544
 1335SOL     OW 4903   0.275   3.989   3.002  0.1039  0.3959 -0.0644
 1335SOL    HW1 4904   0.182   3.955   2.986 -0.3442  2.0987 -1.3813
 1335SOL    HW2 4905   0.272   4.067   3.064  0.8434 -0.3733  0.9747
 1336SOL     OW 4906   1.460   0.144   5.275 -0.2263 -0.3801 -0.0486
 1336SOL    HW1 4907   1.480   0.160   5.372  0.0797 -0.2864 -0.1274
 1336SOL    HW2 4908   1.499   0.056   5.247  1.7006  0.6125 -0.6657
 1337SOL     OW 4909   0.125   6.857   3.019 -0.6084  0.0264  0.4527
 1337SOL    HW1 4910   0.041   6.803   3.027 -0.1205 -0.9209 -0.5205
 1337SOL    HW2 4911   0.204   6.800   3.043 -0.1303  0.4863 -0.0045
 1338SOL     OW 4912   0.659   4.172   4.626  0.1131  0.8194  0.7393
 1338SOL    HW1 4913   0.728   4.228   4.580 -1.0311  2.2697  0.6916
 1338SOL    HW2 4914   0.620   4.224   4.702 -0.5341 -0.1784  1.1088
 1339SOL     OW 4915   5.691   1.271   0.146  0.2526  0.0518 -0.8650
 1339SOL    HW1 4916   5.742   1.200   0.098 -0.4389 -0.6918 -0.5002
 1339SOL    HW2 4917   5.687   1.353   0.089  1.7175  0.0784 -0.9688
 1340SOL     OW 4918   1.993   2.181   1.139 -0.1359  0.0036 -0.6922
 1340SOL    HW1 4919   1.981   2.128   1.055  0.3517  1.2310 -1.5628
 1340SOL    HW2 4920   1.937   2.264   1.135  1.1770  0.9351 -0.5845
 1341SOL     OW 4921   4.435   5.460   5.880 -0.0636 -0.3426 -0.5840
 1341SOL    HW1 4922   4.522   5.509   5.882 -0.0248 -0.4318  0.0453
 1341SOL    HW2 4923   4.361   5.524   5.863  0.2742 -0.4934 -2.9113
 1342SOL     OW 4924   6.575   5.643   3.735 -0.4488 -0.0191 -0.0606
 1342SOL    HW1 4925   6.613   5.613   3.648  0.5817 -1.8824  0.9525
 1342SOL    HW2 4926   6.646   5.689   3.789 -0.3321 -1.0728  0.7363
 1343SOL     OW 4927   4.785   5.662   3.342 -0.0353 -0.1058 -0.2348
 1343SOL    HW1 4928   4.742   5.576   3.369  0.0615 -0.0507  0.1082
 1343SOL    HW2 4929   4.849   5.645   3.267  0.3094 -0.4122  0.1201
 1344SOL     OW 4930   1.909   1.546   2.480 -0.2698  0.7244  0.3537
 1344SOL    HW1 4931   1.889   1.548   2.578  1.5238  0.6155  0.7462
 1344SOL    HW2 4932   1.977   1.476   2.460 -1.7901 -0.4052 -1.2519
 1345SOL     OW 4933   0.711   6.875   6.022  0.2126  0.4185 -0.2505
 1345SOL    HW1 4934   0.785   6.942   6.032  0.4298  0.5814 -2.4604
 1345SOL    HW2 4935   0.628   6.923   5.994 -0.2113 -0.0071  0.2645
 1346SOL     OW 4936   4.101   6.193   2.645  0.3243 -0.5576 -0.7186
 1346SOL    HW1 4937   4.081   6.191   2.743  1.0556 -0.3387 -0.5651
 1346SOL    HW2 4938   4.199   6.205   2.631 -0.0434  1.9738 -1.4879
 1347SOL     OW 4939   2.253   1.037   0.838 -0.2019  0.5642 -0.2062
 1347SOL    HW1 4940   2.212   1.128   0.841 -2.0683 -0.2108 -0.8628
 1347SOL    HW2 4941   2.196   0.977   0.782  0.8365 -1.0963  0.4568
 1348SOL     OW 4942   1.508   0.021   4.939  0.5585 -0.5829 -0.5525
 1348SOL    HW1 4943   1.561   0.051   5.018 -0.9495 -1.6239  0.9248
 1348SOL    HW2 4944   1.568  -0.021   4.872  1.6073 -1.8081  1.0933
 1349SOL     OW 4945   6.109   3.488   4.420  0.4141  0.1008  0.4097
 1349SOL    HW1 4946   6.134   3.574   4.377  1.6557 -1.2177 -1.6974
 1349SOL    HW2 4947   6.020   3.458   4.387  0.6678 -0.1503 -0.0555
 1350SOL     OW 4948   5.545   5.414   6.142  0.4271 -0.0031  0.0225
 1350SOL    HW1 4949   5.532   5.322   6.106  0.2529  0.7717 -2.0863
 1350SOL    HW2 4950   5.469   5.472   6.113  0.5776  0.8320  1.2324
 1351SOL     OW 4951   6.746   2.457   4.414  0.2541  0.1672 -0.4964
 1351SOL    HW1 4952   6.665   2.404   4.392 -0.3606  0.7662  0.2459
 1351SOL    HW2 4953   6.731   2.553   4.388  0.6674  0.3008 -0.2548
 1352SOL     OW 4954   1.117   0.233   3.223  0.4113 -0.0916  0.3321
 1352SOL    HW1 4955   1.153   0.203   3.135  0.3728 -0.2644  0.3751
 1352SOL    HW2 4956   1.192   0.247   3.287  0.5800  1.5515 -0.1828
 1353SOL     OW 4957   6.204   2.021   6.045 -0.4362 -0.4032 -0.0840
 1353SOL    HW1 4958   6.223   1.924   6.028  1.5707  0.0831 -0.9146
 1353SOL    HW2 4959   6.289   2.068   6.069 -1.2199  1.3172 -0.5296
 1354SOL     OW 4960   5.253   6.001   1.360  0.7461 -0.8083 -0.1181
 1354SOL    HW1 4961   5.290   5.946   1.435 -0.7389 -1.8684 -0.1276
 1354SOL    HW2 4962   5.155   6.017   1.375  1.3214  3.1214  0.6741
 1355SOL     OW 4963   4.920   3.482   6.621 -0.0374 -0.8907 -0.1812
 1355SOL    HW1 4964   4.921   3.411   6.551  1.4216 -2.7873  1.6653
 1355SOL    HW2 4965   4.879   3.447   6.704  1.4627  0.1362  1.0514
 1356SOL     OW 4966   2.567   2.610   6.867  0.4042  0.2672 -0.5869
 1356SOL    HW1 4967   2.481   2.603   6.919  0.0663  2.1737 -0.8418
 1356SOL    HW2 4968   2.644   2.611   6.931 -0.0346  3.1021  0.0089
 1357SOL     OW 4969   0.890   2.705   5.946 -0.8531  0.4832  0.0005
 1357SOL    HW1 4970   0.957   2.765   5.991 -1.0671  0.4037  0.4205
 1357SOL    HW2 4971   0.817   2.760   5.906 -0.3497  0.6009 -0.7869
 1358SOL     OW 4972   3.760   6.404   0.188  0.2609 -0.1304  0.4609
 1358SOL    HW1 4973   3.767   6.451   0.100  1.9206 -1.4321 -0.1568
 1358SOL    HW2 4974   3.778   6.469   0.262  0.8928  0.5695 -0.2808
 1359SOL     OW 4975   0.221   4.565   0.680 -0.2266  0.4678 -0.4237
 1359SOL    HW1 4976   0.250   4.648   0.633  0.4670  0.1270 -0.6151
 1359SOL    HW2 4977   0.167   4.508   0.619  0.6749  0.0243 -0.8260
 1360SOL     OW 4978   3.380   2.755   6.961  0.1609 -0.1553 -0.1384
 1360SOL    HW1 4979   3.402   2.685   6.894  1.4190 -0.7425  0.8430
 1360SOL    HW2 4980   3.464   2.798   6.994 -0.4760  0.6139  0.5449
 1361SOL     OW 4981   4.969   1.339   6.044 -0.6661 -0.1478 -0.5631
 1361SOL    HW1 4982   5.002   1.289   5.964 -2.2956 -1.1579 -0.6657
 1361SOL    HW2 4983   5.018   1.307   6.125 -0.5664 -0.7671 -0.8571
 1362SOL     OW 4984   3.350   2.922   4.490  0.3331  0.2120  0.1541
 1362SOL    HW1 4985   3.416   2.868   4.543 -1.0795 -0.7864  0.9722
 1362SOL    HW2 4986   3.316   2.868   4.413  0.4092  0.6868 -0.2165
 1363SOL     OW 4987   0.618   1.054   2.792  0.1839  0.0074  0.4973
 1363SOL    HW1 4988   0.571   0.966   2.801 -0.7119  0.3237 -0.7839
 1363SOL    HW2 4989   0.556   1.128   2.816  0.2967  0.3891 -0.3580
 1364SOL     OW 4990   4.670   4.058   6.844 -0.3631 -0.2417  0.0303
 1364SOL    HW1 4991   4.609   4.053   6.924 -0.2872  1.1949  0.2029
 1364SOL    HW2 4992   4.632   4.003   6.770 -1.3857 -0.1253  0.4541
 1365SOL     OW 4993   6.023   3.671   5.834 -0.5481  0.3888 -0.0785
 1365SOL    HW1 4994   6.079   3.620   5.770 -1.2921  0.7793 -1.0593
 1365SOL    HW2 4995   5.994   3.611   5.909 -0.1495 -0.2138 -0.4039
 1366SOL     OW 4996   1.563   6.855   3.688 -0.4635 -0.2222  0.2623
 1366SOL    HW1 4997   1.517   6.768   3.665 -0.8116 -0.3646  1.4267
 1366SOL    HW2 4998   1.659   6.837   3.709 -1.2538 -1.0111  4.0778
 1367SOL     OW 4999   3.176   0.470   1.678 -0.2447  0.6298  0.4082
 1367SOL    HW1 5000   3.102   0.514   1.728 -2.7590 -1.4673 -1.2327
 1367SOL    HW2 5001   3.203   0.528   1.600 -3.1705 -0.3179 -1.4508
 1368SOL     OW 5002   1.678   1.614   4.397 -0.3907 -0.1372 -0.6107
 1368SOL    HW1 5003   1.632   1.687   4.347 -1.6649  0.3581  1.1972
 1368SOL    HW2 5004   1.610   1.552   4.437  0.6340 -1.6395 -1.0971
 1369SOL     OW 5005   0.493   6.222   1.451 -0.5472  0.6142 -0.0971
 1369SOL    HW1 5006   0.440   6.206   1.535  0.0493 -1.5539 -0.0740
 1369SOL    HW2 5007   0.547   6.140   1.430 -0.2187  1.3392 -2.2769
 1370SOL     OW 5008   2.237   6.837   1.312  0.0049  0.0375  0.3280
 1370SOL    HW1 5009   2.247   6.936   1.302 -1.8737  0.2523  0.2444
 1370SOL    HW2 5010   2.141   6.814   1.327  0.1923 -1.9068 -1.0426
 1371SOL     OW 5011   1.849   0.221   5.045  0.3292  0.3458  0.4898
 1371SOL    HW1 5012   1.816   0.313   5.067 -1.0892 -0.4032  1.5971
 1371SOL    HW2 5013   1.940   0.228   5.003  0.0622  2.2696  0.1317
 1372SOL     OW 5014   2.748   1.546   0.860 -0.4130  0.5506  0.0742
 1372SOL    HW1 5015   2.768   1.472   0.796  0.0182  0.5557  0.1947
 1372SOL    HW2 5016   2.751   1.511   0.954  2.0475  1.1325  0.2999
 1373SOL     OW 5017   3.027   4.969   4.491  0.0097 -0.2837  0.0363
 1373SOL    HW1 5018   3.061   4.997   4.400 -4.0540  0.1131 -1.5753
 1373SOL    HW2 5019   3.077   5.019   4.561  1.1812  1.8578 -2.1490
 1374SOL     OW 5020   6.481   3.164   5.908 -0.6671 -0.4414 -0.1763
 1374SOL    HW1 5021   6.445   3.203   5.993 -0.4543  0.9043 -0.6915
 1374SOL    HW2 5022   6.539   3.086   5.931  0.2401  0.5292  1.0095
 1375SOL     OW 5023   0.146   5.546   5.819 -0.0358  0.4674 -0.1084
 1375SOL    HW1 5024   0.167   5.582   5.728 -1.5363  2.1084  0.1559
 1375SOL    HW2 5025   0.165   5.447   5.820  2.3223  0.8352 -1.4404
 1376SOL     OW 5026   6.083   0.367   3.510  0.3221  0.0944  0.3140
 1376SOL    HW1 5027   6.170   0.337   3.548  0.5059 -1.0688 -0.9336
 1376SOL    HW2 5028   6.022   0.288   3.503 -0.9891  0.9524  1.5100
 1377SOL     OW 5029   5.457   4.350   6.041  0.4370 -0.1333 -0.5569
 1377SOL    HW1 5030   5.399   4.411   6.094  1.4549  0.6507 -0.3069
 1377SOL    HW2 5031   5.436   4.358   5.944 -1.7415 -1.8931 -0.3109
 1378SOL     OW 5032   2.762   1.334   0.681  0.5875 -0.5480 -0.4587
 1378SOL    HW1 5033   2.798   1.364   0.592  0.9996 -2.6098 -1.0307
 1378SOL    HW2 5034   2.662   1.331   0.677  0.5530  0.2973 -0.5126
 1379SOL     OW 5035   4.872   5.537   2.038  0.3967 -0.2508  0.8006
 1379SOL    HW1 5036   4.927   5.604   2.088  1.8355 -0.7443 -0.0512
 1379SOL    HW2 5037   4.916   5.517   1.951 -1.6819  0.0575 -0.3751
 1380SOL     OW 5038   6.969   3.759   3.131  0.0515 -0.9340 -0.1127
 1380SOL    HW1 5039   6.870   3.760   3.121  0.0470  0.2431 -0.0414
 1380SOL    HW2 5040   7.008   3.685   3.077 -0.5442  0.8409 -3.1863
 1381SOL     OW 5041   5.075   1.181   1.155 -0.1746  0.1422 -0.7176
 1381SOL    HW1 5042   5.000   1.245   1.140 -2.1035 -1.3413  1.7989
 1381SOL    HW2 5043   5.051   1.092   1.117 -0.0557 -0.5546  0.7940
 1382SOL     OW 5044   0.559   5.590   6.513 -0.1739  0.8559  0.2537
 1382SOL    HW1 5045   0.633   5.569   6.577 -0.5092  0.2981  0.4611
 1382SOL    HW2 5046   0.474   5.551   6.547 -0.9792  3.0991  1.0199
 1383SOL     OW 5047   3.560   6.820   1.179  0.6477  0.6010  0.5978
 1383SOL    HW1 5048   3.571   6.889   1.108  0.9822 -0.8049 -0.7889
 1383SOL    HW2 5049   3.492   6.850   1.245 -1.3195  1.0863 -1.5124
 1384SOL     OW 5050   1.363   0.451   3.454 -0.1264 -0.4814 -0.2823
 1384SOL    HW1 5051   1.346   0.353   3.453 -3.6500 -0.0168 -0.5542
 1384SOL    HW2 5052   1.309   0.494   3.381  0.4142  1.7511  0.5567
 1385SOL     OW 5053   5.439   1.870   1.957  0.3913  0.4662  0.5099
 1385SOL    HW1 5054   5.476   1.952   1.913 -2.4475  1.8610  0.4648
 1385SOL    HW2 5055   5.432   1.884   2.055 -0.8676  0.6547  0.4118
 1386SOL     OW 5056   3.055   1.522   3.922 -0.1319 -0.3274  0.1040
 1386SOL    HW1 5057   2.987   1.452   3.897 -0.2449 -0.3710  0.5157
 1386SOL    HW2 5058   3.112   1.543   3.843  0.5983 -1.6609  0.2397
 1387SOL     OW 5059   6.245   2.449   2.851  0.4027 -0.1944  0.3711
 1387SOL    HW1 5060   6.325   2.420   2.799  0.0918 -2.5318  1.0557
 1387SOL    HW2 5061   6.273   2.508   2.926  1.3806 -0.3849  0.1689
 1388SOL     OW 5062   4.606   2.334   2.650  0.1392 -0.8000 -0.4633
 1388SOL    HW1 5063   4.577   2.408   2.590  0.7542 -1.8496 -2.1022
 1388SOL    HW2 5064   4.700   2.306   2.627  0.9948 -0.2698  1.9604
 1389SOL     OW 5065   5.065   6.317   4.017  0.9941 -0.0333  0.3982
 1389SOL    HW1 5066   5.047   6.408   4.054 -0.2376  0.5775 -1.5469
 1389SOL    HW2 5067   5.154   6.285   4.048 -0.3450 -0.1339  4.8053
 1390SOL     OW 5068   5.991   2.240   2.437 -0.2339 -0.0774 -0.1265
 1390SOL    HW1 5069   6.086   2.211   2.440 -0.1113  0.0336 -1.8908
 1390SOL    HW2 5070   5.968   2.290   2.520  1.2838  0.0228  0.2499
 1391SOL     OW 5071   5.057   1.331   6.998 -0.1791  0.2041 -0.3683
 1391SOL    HW1 5072   5.075   1.407   7.060 -0.7020  1.1790 -1.3848
 1391SOL    HW2 5073   4.963   1.300   7.010 -0.1313  0.0752 -0.3292
 1392SOL     OW 5074   4.877   0.120   5.017  0.1139 -0.2423 -0.1594
 1392SOL    HW1 5075   4.899   0.200   4.962  1.4884 -0.4265  0.0691
 1392SOL    HW2 5076   4.831   0.147   5.101  0.4096  0.2973 -0.1699
 1393SOL     OW 5077   4.592   1.168   6.570  0.6719 -0.1214  0.1828
 1393SOL    HW1 5078   4.564   1.113   6.491 -0.8926  0.7042  0.1158
 1393SOL    HW2 5079   4.591   1.112   6.652 -0.5074 -0.3082  0.0533
 1394SOL     OW 5080   4.511   6.755   5.430 -0.0751  0.2912  0.1901
 1394SOL    HW1 5081   4.462   6.774   5.344 -0.9552  0.4762  0.7250
 1394SOL    HW2 5082   4.482   6.819   5.500  0.2862 -0.1691  0.7702
 1395SOL     OW 5083   5.862   4.428   1.040 -0.2707 -0.2468  0.0574
 1395SOL    HW1 5084   5.945   4.382   1.073 -0.5732 -0.7368  0.1357
 1395SOL    HW2 5085   5.799   4.442   1.117 -0.0642  0.5597  0.0915
 1396SOL     OW 5086   1.904   0.749   2.886  0.0797 -0.1210  0.1517
 1396SOL    HW1 5087   1.957   0.831   2.906 -0.9411  1.2248 -2.1841
 1396SOL    HW2 5088   1.810   0.760   2.920  0.3377 -1.0239  1.2129
 1397SOL     OW 5089   4.093   3.183   0.183  0.1814  0.3683  0.2073
 1397SOL    HW1 5090   4.025   3.145   0.120 -1.1904  0.7017  1.4244
 1397SOL    HW2 5091   4.053   3.191   0.274  2.2503 -0.5968  1.2922
 1398SOL     OW 5092   3.916   0.006   4.625  0.1049  0.3316 -0.1012
 1398SOL    HW1 5093   3.955   0.096   4.609  0.0519  0.5603  0.9953
 1398SOL    HW2 5094   3.827   0.015   4.669  0.3502 -0.2526  0.5380
 1399SOL     OW 5095   4.176   6.635   5.169 -0.0715 -0.0544 -0.4427
 1399SOL    HW1 5096   4.273   6.613   5.160  0.6625  1.4888  2.4798
 1399SOL    HW2 5097   4.132   6.566   5.227 -0.3166  0.2194 -0.3043
 1400SOL     OW 5098   0.342   2.839   4.255 -0.1716  0.4284 -0.2256
 1400SOL    HW1 5099   0.285   2.919   4.274  1.4438  2.3440 -2.8446
 1400SOL    HW2 5100   0.382   2.805   4.341 -0.3971  2.8385  0.8981
 1401SOL     OW 5101   5.691   6.909   0.805  0.5489  0.1710 -0.3116
 1401SOL    HW1 5102   5.602   6.877   0.772 -0.0071 -0.7661  1.9233
 1401SOL    HW2 5103   5.754   6.832   0.813  0.6568  0.3456  0.7492
 1402SOL     OW 5104   5.077   4.045   2.178  0.5937  0.0729 -0.0624
 1402SOL    HW1 5105   4.991   4.004   2.209 -0.2292  1.1401 -0.8640
 1402SOL    HW2 5106   5.111   3.994   2.098  0.7956 -0.4381  0.3447
 1403SOL     OW 5107   2.508   4.586   1.717 -0.0480 -0.2418 -0.4042
 1403SOL    HW1 5108   2.478   4.527   1.792 -0.0575  0.6166  0.2719
 1403SOL    HW2 5109   2.597   4.554   1.684 -0.3510 -1.0265 -0.4821
 1404SOL     OW 5110   4.788   5.893   0.165  0.3378 -0.3914  0.5685
 1404SOL    HW1 5111   4.822   5.805   0.130 -0.5539 -0.8193  0.7582
 1404SOL    HW2 5112   4.770   5.954   0.088 -0.2771 -0.8395  0.3451
 1405SOL     OW 5113   0.124   5.437   2.038  0.3009  0.6382  0.2829
 1405SOL    HW1 5114   0.094   5.342   2.042 -1.2364  1.0657 -0.2722
 1405SOL    HW2 5115   0.213   5.442   1.992  0.2352 -0.4928  0.0067
 1406SOL     OW 5116   0.265   4.908   1.196  0.4885 -0.1462  0.5174
 1406SOL    HW1 5117   0.363   4.910   1.219  0.8539 -1.3762 -0.8041
 1406SOL    HW2 5118   0.251   4.847   1.118 -1.3600 -0.0344  0.7394
 1407SOL     OW 5119   6.162   1.449   1.887 -0.0534  0.0938 -0.4046
 1407SOL    HW1 5120   6.224   1.405   1.821  0.2122  0.9999 -0.7719
 1407SOL    HW2 5121   6.154   1.546   1.866 -0.9648  0.1509  0.1445
 1408SOL     OW 5122   5.890   6.857   1.624 -0.3707  0.0986 -0.2530
 1408SOL    HW1 5123   5.881   6.898   1.534  1.2951 -0.4185 -0.6820
 1408SOL    HW2 5124   5.893   6.757   1.616  2.6465  0.0810  0.0096
 1409SOL     OW 5125   6.649   0.831   0.632 -0.2603 -0.1886  0.0795
 1409SOL    HW1 5126   6.553   0.856   0.628  0.0476  0.9186 -2.6114
 1409SOL    HW2 5127   6.663   0.742   0.590 -0.0162  0.0466 -0.3476
 1410SOL     OW 5128   2.996   1.197   1.978 -0.2260  0.0822 -0.2968
 1410SOL    HW1 5129   2.950   1.215   2.065  1.1174 -1.6872  0.8461
 1410SOL    HW2 5130   3.091   1.227   1.984  0.9718 -3.4070  0.2966
 1411SOL     OW 5131   3.572   5.951   0.913 -0.4399  0.3957 -0.8740
 1411SOL    HW1 5132   3.590   6.015   0.838  2.3532  0.9575  0.1606
 1411SOL    HW2 5133   3.607   5.860   0.887  0.8061  0.6621 -0.1674
 1412SOL     OW 5134   1.879   2.036   1.602  0.6900 -0.1935  0.2412
 1412SOL    HW1 5135   1.847   1.949   1.639 -0.2403 -0.2415 -0.6406
 1412SOL    HW2 5136   1.815   2.108   1.626  0.6106 -0.0458 -0.4091
 1413SOL     OW 5137   1.629   2.234   4.399 -0.3282 -0.2912  0.0580
 1413SOL    HW1 5138   1.630   2.134   4.399 -0.6621 -0.3162  1.2251
 1413SOL    HW2 5139   1.568   2.266   4.472 -0.8730  0.7688 -0.8267
 1414SOL     OW 5140   0.229   0.179   1.955  0.5866  0.0312 -0.4287
 1414SOL    HW1 5141   0.233   0.279   1.954  2.3239  0.0423  1.1061
 1414SOL    HW2 5142   0.309   0.142   1.907  0.4785 -0.5872 -0.1445
 1415SOL     OW 5143   3.505   0.583   6.322 -0.9082 -0.3586  0.5382
 1415SOL    HW1 5144   3.537   0.570   6.228  1.4284 -0.4715  1.2834
 1415SOL    HW2 5145   3.530   0.674   6.353  3.7096 -2.1142  2.8440
 1416SOL     OW 5146   3.144   0.963   5.155 -0.5172 -0.4762 -0.3274
 1416SOL    HW1 5147   3.142   1.051   5.108  1.2100 -0.0987  0.2498
 1416SOL    HW2 5148   3.188   0.895   5.096  0.3789 -0.3396  0.1673
 1417SOL     OW 5149   3.122   3.460   4.878 -0.4238  0.7380  0.0144
 1417SOL    HW1 5150   3.117   3.497   4.971  0.6151  1.6424 -0.2738
 1417SOL    HW2 5151   3.111   3.360   4.882 -0.2517  0.7439  1.1149
 1418SOL     OW 5152   2.848   4.047   5.568 -0.0180 -0.1670 -0.8431
 1418SOL    HW1 5153   2.768   4.006   5.612 -0.5689  0.7814 -0.9210
 1418SOL    HW2 5154   2.852   4.019   5.472  1.1916 -2.2524 -0.2507
 1419SOL     OW 5155   6.212   0.864   0.600 -0.0042  0.3694  0.1761
 1419SOL    HW1 5156   6.231   0.912   0.685 -0.6511 -0.9179  1.0904
 1419SOL    HW2 5157   6.219   0.927   0.523 -0.0740  1.7119  1.2434
 1420SOL     OW 5158   2.903   5.789   2.418 -0.2233 -0.3354 -0.6167
 1420SOL    HW1 5159   2.882   5.854   2.345 -0.4641 -0.1183 -0.3582
 1420SOL    HW2 5160   2.994   5.750   2.404 -0.8643 -1.4650 -1.8896
 1421SOL     OW 5161   2.999   4.750   0.000  0.0087 -0.2870  0.0599
 1421SOL    HW1 5162   2.938   4.734  -0.077 -0.7734 -0.4833  0.6992
 1421SOL    HW2 5163   3.026   4.847   0.002  1.6275 -0.6579 -1.5719
 1422SOL     OW 5164   2.582   4.520   5.960  0.1925  0.3084 -0.2768
 1422SOL    HW1 5165   2.489   4.548   5.984 -0.6507 -1.0416 -1.7467
 1422SOL    HW2 5166   2.580   4.468   5.874  2.5035  1.4731 -1.1304
 1423SOL     OW 5167   5.086   0.449   5.330  0.1135  0.2886 -0.0577
 1423SOL    HW1 5168   5.077   0.362   5.379 -0.7899  0.3471 -0.1159
 1423SOL    HW2 5169   5.012   0.458   5.263  0.9626  0.5034 -0.9965
 1424SOL     OW 5170   6.756   3.947   0.639 -0.1041 -0.4008  0.0527
 1424SOL    HW1 5171   6.732   3.903   0.553 -0.1173 -0.0372 -0.1339
 1424SOL    HW2 5172   6.853   3.934   0.659  0.1343  0.3831 -0.5418
 1425SOL     OW 5173   3.856   5.743   3.902  0.4309  0.2725 -0.1763
 1425SOL    HW1 5174   3.775   5.687   3.882 -1.5826  2.6844  0.7801
 1425SOL    HW2 5175   3.897   5.712   3.987  0.8102 -1.2133 -0.8591
 1426SOL     OW 5176   4.974   1.684   1.783 -0.0372  0.6322  0.1473
 1426SOL    HW1 5177   5.031   1.674   1.865  0.3666 -0.5185 -0.2433
 1426SOL    HW2 5178   4.938   1.594   1.756  0.7390  0.7731 -1.5460
 1427SOL     OW 5179   1.245   1.757   5.317  0.0188  0.1949  0.3278
 1427SOL    HW1 5180   1.206   1.686   5.375  0.1698  1.7077  2.3864
 1427SOL    HW2 5181   1.316   1.806   5.368  0.5577  1.2252 -1.3512
 1428SOL     OW 5182   2.107   3.565   3.183 -0.5343  0.7277 -0.1728
 1428SOL    HW1 5183   2.133   3.597   3.274  1.6288 -0.1530 -0.4265
 1428SOL    HW2 5184   2.108   3.465   3.181  0.3129  0.7383 -1.3634
 1429SOL     OW 5185   6.228   5.711   2.868  0.0858 -0.1107  0.5470
 1429SOL    HW1 5186   6.218   5.674   2.776 -1.4204 -1.3914  1.1747
 1429SOL    HW2 5187   6.142   5.754   2.896  0.5464  0.3180  1.3418
 1430SOL     OW 5188   3.327   6.001   4.024  0.2936 -0.6029  0.1138
 1430SOL    HW1 5189   3.410   5.947   4.036  1.1100  0.7773  0.9427
 1430SOL    HW2 5190   3.333   6.085   4.079 -0.1468  1.2490 -2.4572
 1431SOL     OW 5191   2.660   2.092   0.137  0.0264  0.0686  0.0202
 1431SOL    HW1 5192   2.606   2.159   0.085 -0.2191 -0.5505 -0.5401
 1431SOL    HW2 5193   2.756   2.097   0.109  0.3451  1.3861  1.2388
 1432SOL     OW 5194   4.793   0.016   1.707  0.2212 -0.3126 -0.0078
 1432SOL    HW1 5195   4.725  -0.054   1.684  0.9063 -1.1548  0.5112
 1432SOL    HW2 5196   4.855  -0.019   1.777  0.1552  1.0563  0.7695
 1433SOL     OW 5197   2.786   1.612   5.912  0.0367 -0.6475  0.4877
 1433SOL    HW1 5198   2.853   1.579   5.978  0.7790 -0.0945  0.0285
 1433SOL    HW2 5199   2.787   1.553   5.831 -2.5887 -2.8018  1.8829
 1434SOL     OW 5200   6.871   3.787   1.325 -0.2231  0.2036  1.1041
 1434SOL    HW1 5201   6.848   3.698   1.285  0.3671  0.6178 -0.1964
 1434SOL    HW2 5202   6.874   3.856   1.254  0.8616  0.9752  1.8619
 1435SOL     OW 5203   4.815   5.924   4.593 -0.1564 -0.2235 -0.9288
 1435SOL    HW1 5204   4.864   5.986   4.655  0.2398 -0.4948 -0.9687
 1435SOL    HW2 5205   4.856   5.834   4.597 -1.6224 -0.8880  0.2100
 1436SOL     OW 5206   4.816   1.749   0.719 -0.2434 -0.4537 -0.2567
 1436SOL    HW1 5207   4.874   1.811   0.666 -1.8079  1.1177 -0.1869
 1436SOL    HW2 5208   4.832   1.655   0.688  2.4488 -0.1368 -0.1105
 1437SOL     OW 5209   4.791   1.258   7.016 -0.2204 -0.0405 -0.3152
 1437SOL    HW1 5210   4.794   1.232   7.112 -0.5168  0.6347 -0.1165
 1437SOL    HW2 5211   4.780   1.176   6.959 -1.1339 -0.3568  0.2944
 1438SOL     OW 5212   0.645   0.076   2.475 -0.0880 -0.3446  0.5610
 1438SOL    HW1 5213   0.675   0.162   2.434  0.7616 -0.1256  1.5997
 1438SOL    HW2 5214   0.545   0.073   2.474 -0.1083 -0.2701 -1.3029
 1439SOL     OW 5215   6.375   5.224   6.620  0.0021 -0.1728 -0.5958
 1439SOL    HW1 5216   6.320   5.177   6.688  1.0612 -1.5711 -0.6706
 1439SOL    HW2 5217   6.373   5.323   6.638  0.0212 -0.4828  1.2623
 1440SOL     OW 5218   3.818   3.082   2.307  0.0689  0.5228  0.2336
 1440SOL    HW1 5219   3.780   2.990   2.294 -2.8093  1.9920 -3.6693
 1440SOL    HW2 5220   3.902   3.091   2.253 -0.6202  0.6409 -0.8466
 1441SOL     OW 5221   0.106   1.867   5.817  0.3041  0.1823 -0.1807
 1441SOL    HW1 5222   0.139   1.945   5.870 -2.5755  0.5631  1.2437
 1441SOL    HW2 5223   0.109   1.785   5.874  1.5895 -0.4008 -1.0582
 1442SOL     OW 5224   6.144   5.228   1.585  0.0408  0.0238 -0.4834
 1442SOL    HW1 5225   6.107   5.263   1.670 -1.4471 -1.9639 -0.2381
 1442SOL    HW2 5226   6.225   5.281   1.559 -1.0312  2.3719  0.7257
 1443SOL     OW 5227   1.714   3.642   5.465  0.5554 -0.6582  0.2283
 1443SOL    HW1 5228   1.813   3.634   5.473  0.5110 -0.7326  0.7475
 1443SOL    HW2 5229   1.691   3.687   5.378  0.9873 -1.8843 -0.5530
 1444SOL     OW 5230   4.595   2.399   4.030 -0.0161 -0.5648  0.0280
 1444SOL    HW1 5231   4.509   2.362   4.067 -0.9903  0.2762 -1.3006
 1444SOL    HW2 5232   4.664   2.326   4.026 -0.2940 -1.0040  2.1314
 1445SOL     OW 5233   5.436   3.684   0.084 -0.2783 -0.4791 -0.0243
 1445SOL    HW1 5234   5.439   3.607   0.021 -0.2605  0.5573 -1.3370
 1445SOL    HW2 5235   5.456   3.769   0.034  0.4902  0.2937  1.5204
 1446SOL     OW 5236   3.306   4.440   5.973 -0.4688  0.1866 -0.6844
 1446SOL    HW1 5237   3.286   4.397   6.061 -1.1613  0.9213 -0.4714
 1446SOL    HW2 5238   3.248   4.400   5.902  0.6188 -0.9361 -0.9683
 1447SOL     OW 5239   4.685   1.653   5.100 -0.1490  0.2501  0.5437
 1447SOL    HW1 5240   4.778   1.620   5.082  0.2258  1.8301 -0.7424
 1447SOL    HW2 5241   4.629   1.642   5.017 -0.4981  1.1770  0.6426
 1448SOL     OW 5242   6.496   1.796   6.978 -0.2416 -0.2835 -0.1767
 1448SOL    HW1 5243   6.486   1.806   7.077 -1.0738  3.6555 -0.5054
 1448SOL    HW2 5244   6.518   1.884   6.937 -0.5180 -1.6383 -3.6316
 1449SOL     OW 5245   3.639   4.997   0.992 -0.4621 -0.2474 -0.2104
 1449SOL    HW1 5246   3.650   5.082   0.941  1.9398 -1.2752 -1.5894
 1449SOL    HW2 5247   3.697   5.000   1.074 -0.2459 -0.6035 -0.3469
 1450SOL     OW 5248   5.690   0.209   2.930 -0.1334  0.2683 -0.0548
 1450SOL    HW1 5249   5.673   0.120   2.888  2.2626 -1.0965  1.6245
 1450SOL    HW2 5250   5.706   0.198   3.028 -1.0024  2.7534  0.4492
 1451SOL     OW 5251   1.422   5.899   2.347  0.2259  0.0792  0.3580
 1451SOL    HW1 5252   1.494   5.831   2.330 -0.4803 -1.0584  1.6831
 1451SOL    HW2 5253   1.344   5.854   2.390  0.0965  1.8712  2.1673
 1452SOL     OW 5254   1.864   0.615   4.736  0.3526  0.4967  0.4652
 1452SOL    HW1 5255   1.893   0.613   4.640 -1.5128  2.5012 -0.2230
 1452SOL    HW2 5256   1.802   0.539   4.754  0.9717 -0.0804  0.1798
 1453SOL     OW 5257   4.065   4.257   5.291 -0.0935 -0.2411 -0.6879
 1453SOL    HW1 5258   4.121   4.274   5.210 -0.2308 -1.9990 -1.1891
 1453SOL    HW2 5259   4.022   4.168   5.284 -1.8000  0.4515  0.3837
 1454SOL     OW 5260   4.567   4.218   0.370 -0.0318 -0.1980  0.4856
 1454SOL    HW1 5261   4.570   4.192   0.274  1.8581  0.8624  0.2133
 1454SOL    HW2 5262   4.553   4.136   0.426  1.3348 -1.1997 -0.5756
 1455SOL     OW 5263   0.645   0.500   1.660  0.0858 -0.5127 -0.2306
 1455SOL    HW1 5264   0.660   0.442   1.740  0.8440  0.0360  0.0431
 1455SOL    HW2 5265   0.733   0.538   1.630 -0.4258  0.7336 -0.2084
 1456SOL     OW 5266   5.542   6.769   5.342  0.0227 -0.2900  0.2378
 1456SOL    HW1 5267   5.479   6.786   5.418  0.6142 -0.4801  0.7821
 1456SOL    HW2 5268   5.526   6.678   5.306  0.7852 -0.8232  1.1815
 1457SOL     OW 5269   2.701   1.352   4.811  0.2851 -0.2974  0.4265
 1457SOL    HW1 5270   2.773   1.374   4.745 -1.3337 -2.8953 -2.4710
 1457SOL    HW2 5271   2.630   1.423   4.807  1.2164  0.7054  1.0844
 1458SOL     OW 5272   6.610   6.892   5.650  0.1482  0.1633 -0.0091
 1458SOL    HW1 5273   6.649   6.984   5.643  0.2834  0.0713 -0.5229
 1458SOL    HW2 5274   6.678   6.824   5.622  0.4272 -0.1882  1.4805
 1459SOL     OW 5275   3.898   0.833   1.869  0.2310  0.0992  0.6422
 1459SOL    HW1 5276   3.917   0.809   1.964  1.2788  1.2383  0.7470
 1459SOL    HW2 5277   3.799   0.830   1.854 -0.0298  0.6571  1.9985
 1460SOL     OW 5278   6.135   2.552   0.446  0.3555  0.0124 -0.0637
 1460SOL    HW1 5279   6.119   2.613   0.368  0.0799  0.3334  0.2372
 1460SOL    HW2 5280   6.146   2.607   0.529  0.7164 -0.3220  0.1153
 1461SOL     OW 5281   4.607   5.376   3.128 -0.7623 -0.4360  0.4880
 1461SOL    HW1 5282   4.655   5.291   3.106  0.6642  0.1386  1.2662
 1461SOL    HW2 5283   4.569   5.369   3.221 -1.1453 -0.4269  0.3356
 1462SOL     OW 5284   4.789   6.571   6.385  0.1483  0.4386  0.4750
 1462SOL    HW1 5285   4.722   6.531   6.322 -1.3165 -0.0381  2.2568
 1462SOL    HW2 5286   4.869   6.511   6.391 -0.9735 -1.0437  1.2792
 1463SOL     OW 5287   0.463   1.005   6.566  0.5485 -0.0916 -0.1719
 1463SOL    HW1 5288   0.457   1.085   6.625  0.1240 -0.2318 -0.0207
 1463SOL    HW2 5289   0.381   1.001   6.507  0.8323 -0.1059 -0.5726
 1464SOL     OW 5290   6.775   1.882   6.750 -0.1335  0.1777  0.0432
 1464SOL    HW1 5291   6.808   1.957   6.807  0.6638 -1.0066  1.2075
 1464SOL    HW2 5292   6.691   1.910   6.703  0.0118  1.6954  0.6244
 1465SOL     OW 5293   3.110   0.595   3.521  0.5476 -0.6594  0.0387
 1465SOL    HW1 5294   3.111   0.502   3.484  0.4183 -0.4861 -0.4072
 1465SOL    HW2 5295   3.051   0.653   3.465 -0.8751 -0.7388  1.3862
 1466SOL     OW 5296   5.543   0.485   5.151 -0.1482  0.4812 -0.3106
 1466SOL    HW1 5297   5.619   0.420   5.153 -0.5560 -0.0038 -0.4286
 1466SOL    HW2 5298   5.559   0.552   5.078  0.7886  1.1644  0.4908
 1467SOL     OW 5299   6.728   5.024   5.952 -0.2901 -0.2890 -0.4822
 1467SOL    HW1 5300   6.642   4.974   5.955  0.1766 -1.1534 -1.0586
 1467SOL    HW2 5301   6.802   4.963   5.922  0.3037  0.7224 -1.1630
 1468SOL     OW 5302   3.761   6.029   1.141  0.2133 -0.0469  0.0915
 1468SOL    HW1 5303   3.783   6.110   1.088 -0.2713 -1.3462 -2.2091
 1468SOL    HW2 5304   3.706   5.966   1.086  0.0553 -1.6980  1.9922
 1469SOL     OW 5305   0.757   5.598   4.162 -0.2236 -0.0780  0.0624
 1469SOL    HW1 5306   0.732   5.554   4.076  0.0798  0.5128 -0.3344
 1469SOL    HW2 5307   0.696   5.566   4.235 -2.0178  1.1541 -0.8293
 1470SOL     OW 5308   0.354   1.041   3.462 -0.7449 -0.7022 -0.8373
 1470SOL    HW1 5309   0.439   0.989   3.457 -0.7711 -0.6881 -1.5473
 1470SOL    HW2 5310   0.325   1.050   3.557 -0.1677 -1.0563 -0.6289
 1471SOL     OW 5311   4.415   1.235   0.767  0.3652  0.8191 -0.2875
 1471SOL    HW1 5312   4.381   1.142   0.778  0.7451  0.3843 -2.4179
 1471SOL    HW2 5313   4.368   1.295   0.833 -1.9974 -0.3627 -0.7687
 1472SOL     OW 5314   6.032   6.813   4.762 -0.4767  0.4187 -0.1295
 1472SOL    HW1 5315   6.008   6.777   4.672 -0.1708 -0.9234  0.3077
 1472SOL    HW2 5316   5.953   6.862   4.800 -0.8332  0.4002 -0.8318
 1473SOL     OW 5317   6.493   4.112   5.294 -0.1320  0.4902  0.1427
 1473SOL    HW1 5318   6.560   4.076   5.360  1.3261  3.2387  0.2844
 1473SOL    HW2 5319   6.435   4.180   5.340 -1.2830  0.0778 -0.6592
 1474SOL     OW 5320   1.187   5.211   3.196  0.2995  0.2435  0.5329
 1474SOL    HW1 5321   1.178   5.280   3.267 -0.3756  0.6145  0.0912
 1474SOL    HW2 5322   1.158   5.122   3.232 -0.4199  0.5042  0.6068
 1475SOL     OW 5323   6.089   6.339   2.749 -0.2520 -0.1866 -0.6465
 1475SOL    HW1 5324   6.092   6.241   2.769  0.2839 -0.2165 -0.8510
 1475SOL    HW2 5325   6.084   6.390   2.835 -0.4235 -0.3917 -0.5351
 1476SOL     OW 5326   0.383   1.438   6.607  0.5547 -0.2763  0.1250
 1476SOL    HW1 5327   0.453   1.372   6.636  2.0042  0.6757 -1.0488
 1476SOL    HW2 5328   0.409   1.477   6.519 -1.1208  0.6439  0.0027
 1477SOL     OW 5329   1.245   4.875   4.569  0.3933 -0.0889  0.5499
 1477SOL    HW1 5330   1.185   4.797   4.552 -0.7529  0.4012  2.1112
 1477SOL    HW2 5331   1.330   4.842   4.611  0.2543 -0.5810  0.4509
 1478SOL     OW 5332   0.185   6.349   1.133 -0.4588  0.2473  0.5632
 1478SOL    HW1 5333   0.240   6.361   1.050 -0.6557  0.9367  0.5314
 1478SOL    HW2 5334   0.237   6.378   1.212 -1.4376  2.8060  0.3481
 1479SOL     OW 5335   2.320   4.796   5.272  0.3782 -0.1037 -0.3769
 1479SOL    HW1 5336   2.374   4.876   5.247  1.0891 -0.6780 -0.7335
 1479SOL    HW2 5337   2.360   4.753   5.353  0.9871 -1.0121 -1.1312
 1480SOL     OW 5338   3.544   0.090   6.339  0.5715  0.4082 -0.5062
 1480SOL    HW1 5339   3.506   0.001   6.361  2.1237 -0.1068  0.2515
 1480SOL    HW2 5340   3.482   0.139   6.277 -1.4115 -0.2372  0.8611
 1481SOL     OW 5341   6.899   3.920   2.383  0.5915  0.2631 -0.5806
 1481SOL    HW1 5342   6.831   3.973   2.433  1.2807 -0.9004  1.7209
 1481SOL    HW2 5343   6.978   3.902   2.442  1.8454 -0.4857 -2.3829
 1482SOL     OW 5344   4.584   0.749   0.071 -0.1656 -0.5394  0.1384
 1482SOL    HW1 5345   4.586   0.649   0.083 -0.4455 -0.9462 -2.6674
 1482SOL    HW2 5346   4.583   0.771  -0.026  0.3926  2.2528  0.6831
 1483SOL     OW 5347   6.389   1.875   0.782  0.0528  0.1621 -0.5315
 1483SOL    HW1 5348   6.457   1.884   0.855 -0.1341  0.0315 -0.3409
 1483SOL    HW2 5349   6.435   1.884   0.693  0.1628  1.1051 -0.3900
 1484SOL     OW 5350   5.540   6.539   3.365  0.3452 -0.1180 -0.1788
 1484SOL    HW1 5351   5.582   6.629   3.355  2.2857 -0.7616  1.4890
 1484SOL    HW2 5352   5.585   6.474   3.303 -0.4828 -0.1407 -0.7737
 1485SOL     OW 5353   5.531   2.687   3.517 -0.4754 -0.1239 -0.0005
 1485SOL    HW1 5354   5.461   2.675   3.446  0.7064  2.4092 -1.7337
 1485SOL    HW2 5355   5.611   2.631   3.494 -0.5747 -0.2746  0.0216
 1486SOL     OW 5356   4.741   2.847   2.701  0.4004  0.4224  0.1435
 1486SOL    HW1 5357   4.683   2.823   2.623 -0.3475  1.3546  0.3994
 1486SOL    HW2 5358   4.802   2.922   2.675  1.2720 -0.3193 -0.0160
 1487SOL     OW 5359   6.773   5.052   3.701 -0.0195  0.4328  0.3106
 1487SOL    HW1 5360   6.721   4.966   3.704  0.0241  0.3417 -1.0269
 1487SOL    HW2 5361   6.820   5.059   3.613  1.0551  1.2077  0.9304
 1488SOL     OW 5362   4.170   2.108   5.203 -0.0736 -0.1401  0.3953
 1488SOL    HW1 5363   4.122   2.091   5.117 -0.2780 -0.5576  0.5899
 1488SOL    HW2 5364   4.268   2.094   5.190 -0.1051 -0.2090  0.2321
 1489SOL     OW 5365   5.012   6.344   5.199  0.0453  0.1934  0.1341
 1489SOL    HW1 5366   4.937   6.284   5.228  1.8978 -1.5141  1.7192
 1489SOL    HW2 5367   4.975   6.432   5.170 -2.5720 -0.6687  0.5745
 1490SOL     OW 5368   3.597   2.927   0.267  0.4394  0.0596 -0.0366
 1490SOL    HW1 5369   3.664   2.887   0.330  0.8042  0.8222  0.0610
 1490SOL    HW2 5370   3.507   2.886   0.285  0.6230 -0.0424  0.6867
 1491SOL     OW 5371   1.187   2.013   4.840  0.1101 -0.6768  0.4679
 1491SOL    HW1 5372   1.240   1.940   4.796 -1.7919 -1.6620 -0.2994
 1491SOL    HW2 5373   1.198   2.008   4.939 -0.4861 -2.4578  0.4804
 1492SOL     OW 5374   6.342   0.974   2.239 -0.4728 -0.1672  0.0016
 1492SOL    HW1 5375   6.366   0.965   2.336  0.2966  0.6840 -0.0952
 1492SOL    HW2 5376   6.258   1.028   2.231  0.0573  0.7025  0.1596
 1493SOL     OW 5377   5.739   2.777   6.203  0.4842  0.1754 -0.1286
 1493SOL    HW1 5378   5.734   2.700   6.267  1.9814  0.6774  0.6353
 1493SOL    HW2 5379   5.646   2.804   6.178 -0.1220 -0.7177  1.0007
 1494SOL     OW 5380   6.162   0.674   4.083 -0.2792  0.2427  0.1439
 1494SOL    HW1 5381   6.241   0.676   4.021 -0.2973  1.3422  0.1264
 1494SOL    HW2 5382   6.190   0.638   4.172  0.4821  1.4247  0.4122
 1495SOL     OW 5383   0.858   0.685   2.204  0.0499 -0.4041 -0.0652
 1495SOL    HW1 5384   0.871   0.708   2.301  0.3961 -0.8688  0.0068
 1495SOL    HW2 5385   0.868   0.767   2.148 -1.6589  0.1584  0.4092
 1496SOL     OW 5386   1.199   1.336   1.595 -0.3107 -0.2996 -0.6010
 1496SOL    HW1 5387   1.283   1.373   1.632  0.8764 -2.5353 -0.8636
 1496SOL    HW2 5388   1.121   1.368   1.649  0.9008  0.2917  0.8442
 1497SOL     OW 5389   6.260   6.843   5.514 -0.6999  0.4754  0.2382
 1497SOL    HW1 5390   6.254   6.743   5.510 -0.7805  0.5136 -0.9886
 1497SOL    HW2 5391   6.336   6.874   5.457 -0.7837  1.1289  0.4765
 1498SOL     OW 5392   3.334   6.410   4.830 -0.3002  0.0225  0.1197
 1498SOL    HW1 5393   3.237   6.431   4.818 -0.6410 -1.3248  0.2964
 1498SOL    HW2 5394   3.369   6.458   4.911 -1.3864 -1.1193  1.3176
 1499SOL     OW 5395   0.592   2.993   2.089 -0.4224  0.2464  0.1044
 1499SOL    HW1 5396   0.563   2.975   1.995  0.7298  0.2907 -0.2828
 1499SOL    HW2 5397   0.635   3.083   2.094 -1.8631  0.9187  1.0247
 1500SOL     OW 5398   4.583   0.800   5.351  0.2947 -0.0156  0.1064
 1500SOL    HW1 5399   4.664   0.806   5.410  0.0394  0.6403  0.4013
 1500SOL    HW2 5400   4.576   0.883   5.296 -0.9765  0.6058  1.1477
 1501SOL     OW 5401   4.625   0.008   3.378 -0.2504  0.0750  0.0748
 1501SOL    HW1 5402   4.607  -0.040   3.464 -0.4506 -1.6793 -0.9003
 1501SOL    HW2 5403   4.706  -0.032   3.335 -0.6712  0.3228 -0.9728
 1502SOL     OW 5404   0.094   1.465   6.217 -0.6135  0.4241  0.2354
 1502SOL    HW1 5405   0.166   1.533   6.205  0.7702 -1.3371 -2.3114
 1502SOL    HW2 5406   0.083   1.445   6.315 -0.4618  3.5268  1.0056
 1503SOL     OW 5407   1.970   5.554   6.609 -0.0143  0.1218 -0.4250
 1503SOL    HW1 5408   1.947   5.483   6.676 -0.1120 -0.7634 -1.3593
 1503SOL    HW2 5409   1.940   5.643   6.643  0.2249 -0.2584  0.8328
 1504SOL     OW 5410   3.034   1.644   2.326  0.2342  0.2834 -0.0851
 1504SOL    HW1 5411   2.937   1.633   2.307  0.4844 -0.3438 -1.1177
 1504SOL    HW2 5412   3.054   1.616   2.420 -0.5112  0.0161 -0.0053
 1505SOL     OW 5413   4.480   0.216   2.581  0.5334  0.1212 -0.1549
 1505SOL    HW1 5414   4.461   0.280   2.506  1.2084  0.6302  0.0957
 1505SOL    HW2 5415   4.495   0.125   2.543  0.9248  0.3845 -0.6468
 1506SOL     OW 5416   6.495   6.411   3.162 -0.9012  0.4059  0.3679
 1506SOL    HW1 5417   6.443   6.375   3.084 -2.4496  0.9464  1.0980
 1506SOL    HW2 5418   6.593   6.406   3.143 -1.2280 -0.1479 -1.2998
 1507SOL     OW 5419   2.385   2.587   5.556 -0.2796 -0.0874  0.0750
 1507SOL    HW1 5420   2.466   2.551   5.510 -1.4183 -2.4511 -0.2414
 1507SOL    HW2 5421   2.408   2.671   5.604  1.7023  0.7462 -2.1854
 1508SOL     OW 5422   4.551   5.562   1.145 -0.1792  0.1707 -0.3058
 1508SOL    HW1 5423   4.547   5.621   1.225 -0.2516 -1.8664  1.2671
 1508SOL    HW2 5424   4.458   5.534   1.120 -0.1700  0.8788 -1.2194
 1509SOL     OW 5425   4.569   1.760   6.329 -0.4728  0.4520  0.0683
 1509SOL    HW1 5426   4.526   1.782   6.417 -0.0475  1.5259  0.0304
 1509SOL    HW2 5427   4.498   1.747   6.259 -0.8973 -2.0551  0.8851
 1510SOL     OW 5428   0.336   0.060   2.443 -0.3010  0.3218 -0.1770
 1510SOL    HW1 5429   0.323   0.129   2.514  0.5015 -0.4925  0.7874
 1510SOL    HW2 5430   0.344   0.105   2.354 -1.8448  1.3287  0.1528
 1511SOL     OW 5431   5.448   6.584   0.336 -0.1263 -0.0404 -0.5140
 1511SOL    HW1 5432   5.490   6.675   0.341  1.2632 -0.6635 -0.3868
 1511SOL    HW2 5433   5.348   6.593   0.334 -0.2043  1.3750  3.0649
 1512SOL     OW 5434   6.421   6.616   4.882 -0.1807 -0.2990 -0.6200
 1512SOL    HW1 5435   6.468   6.595   4.797  3.0124  2.2946  0.3008
 1512SOL    HW2 5436   6.426   6.714   4.900 -2.6430 -0.4595  1.5583
 1513SOL     OW 5437   1.826   1.526   4.626  0.2866 -0.4328 -0.0646
 1513SOL    HW1 5438   1.770   1.533   4.543 -2.2763  1.8754  1.6848
 1513SOL    HW2 5439   1.917   1.564   4.608  0.2419 -1.1566 -2.0930
 1514SOL     OW 5440   3.858   0.837   5.975 -0.4539  0.0064  0.1994
 1514SOL    HW1 5441   3.926   0.907   5.997 -0.8958  0.4189  0.2923
 1514SOL    HW2 5442   3.770   0.863   6.015 -0.6428 -0.5718  0.1723
 1515SOL     OW 5443   5.770   6.563   6.013 -0.0560 -0.1811  0.2499
 1515SOL    HW1 5444   5.755   6.464   6.009 -0.4937 -0.1482  0.8765
 1515SOL    HW2 5445   5.868   6.583   6.011  0.0206 -0.5893 -0.4984
 1516SOL     OW 5446   5.276   1.870   2.863 -0.4138  0.3828 -0.5057
 1516SOL    HW1 5447   5.235   1.871   2.771 -0.7089  1.6257 -0.3699
 1516SOL    HW2 5448   5.352   1.805   2.864 -0.4362  0.3127 -1.6193
 1517SOL     OW 5449   1.622   5.003   2.967 -1.0594  0.0816 -0.3469
 1517SOL    HW1 5450   1.577   5.034   3.051 -1.8649 -1.1242 -0.3087
 1517SOL    HW2 5451   1.671   5.080   2.925 -1.2495  0.8724  0.8326
 1518SOL     OW 5452   0.132   5.461   2.676  0.6408 -0.0398 -0.6571
 1518SOL    HW1 5453   0.227   5.441   2.654  0.4034 -1.8492 -0.2641
 1518SOL    HW2 5454   0.073   5.396   2.628 -0.3265  0.4771 -0.1902
 1519SOL     OW 5455   5.304   6.294   0.734 -0.1420  0.6764  0.1317
 1519SOL    HW1 5456   5.312   6.392   0.716 -2.3366  0.8422 -0.2795
 1519SOL    HW2 5457   5.330   6.242   0.653  0.8816  0.8971  0.3020
 1520SOL     OW 5458   1.093   4.274   2.720  0.0485 -0.2437 -0.2646
 1520SOL    HW1 5459   1.128   4.298   2.810  1.0516 -1.3433 -0.3468
 1520SOL    HW2 5460   1.022   4.340   2.694 -0.8496 -0.3868  1.6577
 1521SOL     OW 5461   1.514   4.968   0.227  0.0483 -0.0325  0.7718
 1521SOL    HW1 5462   1.513   5.057   0.272  0.1912 -0.4732  1.6890
 1521SOL    HW2 5463   1.495   4.897   0.295 -1.3345 -0.6095 -0.1806
 1522SOL     OW 5464   0.835   3.472   6.875 -0.5062 -0.0475  0.1607
 1522SOL    HW1 5465   0.832   3.571   6.888 -0.6087 -0.1051  0.6057
 1522SOL    HW2 5466   0.742   3.437   6.861 -0.8893 -0.4614  3.1123
 1523SOL     OW 5467   5.512   6.953   1.010  0.2199  0.7209  0.3642
 1523SOL    HW1 5468   5.484   6.869   1.057  0.7910  0.7912  0.8369
 1523SOL    HW2 5469   5.592   6.936   0.954 -0.3174  0.6967 -0.4157
 1524SOL     OW 5470   0.312   1.018   1.249 -0.6550  0.5155 -0.1818
 1524SOL    HW1 5471   0.245   1.030   1.322 -1.2742  0.7695 -0.7787
 1524SOL    HW2 5472   0.265   1.011   1.161  0.0271 -0.6627 -0.4718
 1525SOL     OW 5473   5.859   0.688   5.755 -0.1746 -0.5455 -0.6601
 1525SOL    HW1 5474   5.889   0.674   5.661 -0.3563 -0.8536 -0.6743
 1525SOL    HW2 5475   5.800   0.612   5.783 -1.0287  0.1010 -0.6654
 1526SOL     OW 5476   4.799   4.981   6.983  0.1282 -0.0431 -0.9544
 1526SOL    HW1 5477   4.795   5.068   7.033 -2.8000 -0.9451  0.5607
 1526SOL    HW2 5478   4.777   4.998   6.887 -3.1483  0.7053 -0.2126
 1527SOL     OW 5479   2.323   6.646   5.111 -0.3119  0.3582 -0.6101
 1527SOL    HW1 5480   2.349   6.685   5.022 -0.2786 -0.2870 -0.8925
 1527SOL    HW2 5481   2.385   6.680   5.182  1.7590 -1.6140 -1.3613
 1528SOL     OW 5482   4.098   6.201   3.782  0.0622 -0.1515 -0.2478
 1528SOL    HW1 5483   4.192   6.173   3.798 -0.5076 -1.1560  1.6898
 1528SOL    HW2 5484   4.037   6.151   3.844 -1.8193  0.0773 -1.8070
 1529SOL     OW 5485   2.477   1.936   4.875  0.3690  0.1802  0.5642
 1529SOL    HW1 5486   2.473   1.862   4.943 -0.6403 -1.4919 -1.2176
 1529SOL    HW2 5487   2.531   1.905   4.796 -1.1391  0.8449 -0.7714
 1530SOL     OW 5488   5.347   6.803   6.797  0.2544  0.6205 -0.1944
 1530SOL    HW1 5489   5.396   6.778   6.881  2.9183  2.6266 -1.0341
 1530SOL    HW2 5490   5.346   6.725   6.735  0.3698 -0.1455  0.7328
 1531SOL     OW 5491   6.840   1.554   0.946  0.0082  0.6656  0.3508
 1531SOL    HW1 5492   6.764   1.581   1.005  0.2833  0.7022  0.6907
 1531SOL    HW2 5493   6.862   1.629   0.884 -1.1506  0.1492 -0.7178
 1532SOL     OW 5494   2.343   0.544   5.847  0.7890 -0.0466  0.0441
 1532SOL    HW1 5495   2.380   0.635   5.865 -0.1556  0.8141 -2.0320
 1532SOL    HW2 5496   2.407   0.475   5.879  2.1703  1.3538  0.4057
 1533SOL     OW 5497   4.901   2.863   0.921  0.2444  0.3805  0.5582
 1533SOL    HW1 5498   4.886   2.956   0.886 -0.7858 -0.1076 -0.3467
 1533SOL    HW2 5499   4.967   2.816   0.863 -1.3959 -0.3977 -0.7552
 1534SOL     OW 5500   0.159   1.171   0.868  0.0671  0.0027 -0.0142
 1534SOL    HW1 5501   0.147   1.222   0.953  2.1808  3.1272 -1.4241
 1534SOL    HW2 5502   0.251   1.130   0.866 -0.1909 -0.5757 -0.5569
 1535SOL     OW 5503   4.926   3.255   4.001 -0.3166 -0.0993  0.1072
 1535SOL    HW1 5504   4.982   3.331   4.036  0.3434 -0.3112 -0.4709
 1535SOL    HW2 5505   4.976   3.207   3.929 -1.2426 -0.3048 -0.4158
 1536SOL     OW 5506   3.553   6.362   2.431 -0.7410 -0.0747 -0.0514
 1536SOL    HW1 5507   3.628   6.428   2.441 -0.0462 -0.6930 -1.0102
 1536SOL    HW2 5508   3.572   6.281   2.486  0.5882 -1.3114 -2.1960
 1537SOL     OW 5509   2.508   6.444   5.473  0.6959  0.5996 -0.1123
 1537SOL    HW1 5510   2.435   6.508   5.495  1.7354  0.9022  2.9648
 1537SOL    HW2 5511   2.473   6.370   5.415 -1.6240  1.5102  0.0623
 1538SOL     OW 5512   3.704   0.782   1.557 -0.2871 -0.0283 -0.0924
 1538SOL    HW1 5513   3.629   0.800   1.494  0.6506  1.0759 -0.9201
 1538SOL    HW2 5514   3.776   0.730   1.511 -0.2626 -0.5634  0.5248
 1539SOL     OW 5515   0.909   4.971   2.273 -0.0156 -0.4769  0.0346
 1539SOL    HW1 5516   0.826   4.928   2.310 -0.1998 -0.9112 -0.8468
 1539SOL    HW2 5517   0.891   5.003   2.180  1.1511 -1.7084 -0.6469
 1540SOL     OW 5518   5.891   6.595   5.045 -0.0298 -0.3721 -0.0098
 1540SOL    HW1 5519   5.980   6.563   5.013 -1.5902 -4.2834 -1.0601
 1540SOL    HW2 5520   5.829   6.606   4.967 -0.9699  0.5116  0.8323
 1541SOL     OW 5521   3.796   1.776   1.995 -0.5023  0.0154 -0.1192
 1541SOL    HW1 5522   3.810   1.875   2.000 -1.6699  0.1379  1.0815
 1541SOL    HW2 5523   3.791   1.749   1.899  0.6943  0.9788 -0.4827
 1542SOL     OW 5524   0.955   5.552   1.274  0.9028  0.3667 -0.0637
 1542SOL    HW1 5525   1.030   5.613   1.298 -0.5010  2.0645  0.2785
 1542SOL    HW2 5526   0.874   5.576   1.328 -0.1283 -0.8334 -1.0126
 1543SOL     OW 5527   4.101   3.795   5.065  0.1542 -0.2653  0.3427
 1543SOL    HW1 5528   4.047   3.716   5.093  1.7793 -1.1940  0.9655
 1543SOL    HW2 5529   4.099   3.803   4.965 -1.7548  0.2206  0.3730
 1544SOL     OW 5530   3.936   3.993   2.099  0.4174  0.2865 -0.5498
 1544SOL    HW1 5531   3.962   4.053   2.174  0.1842 -0.9370  0.5524
 1544SOL    HW2 5532   3.857   4.030   2.051 -1.0905 -0.1891  1.4755
 1545SOL     OW 5533   1.311   6.680   5.147  0.3200  0.0299  0.4462
 1545SOL    HW1 5534   1.302   6.718   5.239  0.4203 -1.1710  0.9698
 1545SOL    HW2 5535   1.399   6.633   5.138  0.1327 -0.2321 -0.1271
 1546SOL     OW 5536   1.711   6.000   6.513  0.1962  0.3068  0.6036
 1546SOL    HW1 5537   1.631   5.968   6.564 -0.4138  0.3322 -0.3179
 1546SOL    HW2 5538   1.690   6.001   6.415  1.9237 -1.4081  0.1568
 1547SOL     OW 5539   2.497   5.573   0.155 -0.3235  0.6046  1.2558
 1547SOL    HW1 5540   2.472   5.586   0.251 -1.8583 -1.6146  1.2158
 1547SOL    HW2 5541   2.425   5.609   0.096 -1.0693 -1.1519  1.0408
 1548SOL     OW 5542   0.536   3.058   3.035  0.0892 -0.2739 -0.2638
 1548SOL    HW1 5543   0.569   2.996   2.963  0.4039  0.7684 -1.0461
 1548SOL    HW2 5544   0.562   3.152   3.012  0.4476  0.0559  1.3714
 1549SOL     OW 5545   5.763   1.854   0.091 -0.0695 -0.5033 -0.4768
 1549SOL    HW1 5546   5.776   1.895   0.000  0.3193 -0.0310 -0.2123
 1549SOL    HW2 5547   5.829   1.893   0.155 -1.2938  0.2484  0.3584
 1550SOL     OW 5548   2.966   4.872   3.648  0.2019 -0.4529  0.0761
 1550SOL    HW1 5549   3.062   4.885   3.675 -0.1244  0.7573  0.7145
 1550SOL    HW2 5550   2.937   4.948   3.591 -0.2782 -1.0184 -0.4489
 1551SOL     OW 5551   6.756   1.137   2.517 -0.8671 -0.2506  0.1466
 1551SOL    HW1 5552   6.808   1.114   2.436 -1.3569 -0.7614 -0.0255
 1551SOL    HW2 5553   6.805   1.207   2.570 -0.4707 -0.0386 -0.4958
 1552SOL     OW 5554   1.767   5.374   6.787 -0.1548  0.2737 -0.1171
 1552SOL    HW1 5555   1.814   5.286   6.785  0.9915  0.8657 -2.3550
 1552SOL    HW2 5556   1.670   5.360   6.767 -0.2662 -0.5859  0.9192
 1553SOL     OW 5557   0.421   2.324   4.960 -0.0894 -0.4566  0.1593
 1553SOL    HW1 5558   0.425   2.420   4.931  0.4567  0.1961  2.2131
 1553SOL    HW2 5559   0.390   2.267   4.884  0.7919  1.1766 -1.4947
 1554SOL     OW 5560   6.866   2.966   0.975  0.0971 -0.5265  0.1711
 1554SOL    HW1 5561   6.850   2.975   1.073  0.2250 -0.4976  0.1901
 1554SOL    HW2 5562   6.939   2.898   0.959  1.1079  0.5296  0.1769
 1555SOL     OW 5563   5.477   2.409   1.668 -0.0731  0.0335  0.7562
 1555SOL    HW1 5564   5.473   2.400   1.767 -0.3521 -1.3106  0.6297
 1555SOL    HW2 5565   5.388   2.390   1.628  0.4474 -1.2283  0.1287
 1556SOL     OW 5566   3.344   0.904   6.843  0.4646 -0.3942 -0.3560
 1556SOL    HW1 5567   3.325   0.831   6.908  1.2584 -2.2741 -2.0964
 1556SOL    HW2 5568   3.419   0.961   6.877 -0.3738 -0.1632  1.1774
 1557SOL     OW 5569   2.049   2.027   0.300 -0.2964  0.4300  0.0553
 1557SOL    HW1 5570   2.072   1.954   0.236 -0.8640 -0.1631  0.5220
 1557SOL    HW2 5571   2.006   1.989   0.381 -0.0642  1.2284  0.5701
 1558SOL     OW 5572   3.479   4.466   6.333 -0.4869 -0.3450  0.8199
 1558SOL    HW1 5573   3.400   4.525   6.347  0.7344  1.6138 -0.1785
 1558SOL    HW2 5574   3.449   4.370   6.331 -3.0618  0.3985 -0.8959
 1559SOL     OW 5575   1.719   0.981   3.137  0.4574  0.1523 -0.0277
 1559SOL    HW1 5576   1.663   0.924   3.077 -0.1801  0.9242 -0.1766
 1559SOL    HW2 5577   1.762   1.054   3.083  0.7292  0.2225  0.2776
 1560SOL     OW 5578   4.470   3.910   1.689  0.3241 -0.0276 -0.3043
 1560SOL    HW1 5579   4.433   3.991   1.643  0.5303  1.3209  1.7914
 1560SOL    HW2 5580   4.400   3.839   1.691  0.2270 -0.0725 -2.4198
 1561SOL     OW 5581   4.781   6.279   0.760  0.2531 -0.0437 -0.0870
 1561SOL    HW1 5582   4.713   6.265   0.688  0.2192  1.6722 -0.4276
 1561SOL    HW2 5583   4.872   6.255   0.725  0.1619  0.2503 -0.5403
 1562SOL     OW 5584   0.394   0.589   3.419 -0.6452 -0.2077  0.2114
 1562SOL    HW1 5585   0.423   0.494   3.405 -0.9021 -0.5255  1.6968
 1562SOL    HW2 5586   0.466   0.638   3.468 -0.1141  0.6468 -1.3557
 1563SOL     OW 5587   1.792   4.694   3.962 -0.5104  0.1699 -0.5801
 1563SOL    HW1 5588   1.735   4.667   4.040  1.7791 -3.2716  0.1415
 1563SOL    HW2 5589   1.888   4.701   3.992 -0.1618  4.0885 -2.0702
 1564SOL     OW 5590   0.491   0.185   4.950 -0.6329 -0.2430 -0.1910
 1564SOL    HW1 5591   0.399   0.199   4.987 -0.0722  2.0294  0.4767
 1564SOL    HW2 5592   0.558   0.193   5.024  0.4618  3.6189 -1.3761
 1565SOL     OW 5593   5.581   1.851   5.933  0.0835  0.0583  0.4653
 1565SOL    HW1 5594   5.657   1.885   5.877 -0.9920 -0.7896 -1.6454
 1565SOL    HW2 5595   5.607   1.853   6.029  2.9412 -0.5629 -0.1846
 1566SOL     OW 5596   1.543   2.338   2.381 -0.1466  0.1726 -0.3932
 1566SOL    HW1 5597   1.510   2.382   2.298 -1.3261  0.0755  0.0069
 1566SOL    HW2 5598   1.619   2.392   2.419 -0.6906  1.1320 -0.6405
 1567SOL     OW 5599   5.692   0.155   5.652 -0.2231 -0.1024 -0.0730
 1567SOL    HW1 5600   5.757   0.104   5.596  0.6771 -0.5245  1.3033
 1567SOL    HW2 5601   5.732   0.171   5.743 -1.7185  0.3527  0.5321
 1568SOL     OW 5602   2.728   4.174   1.037  0.0826  0.5464  0.6607
 1568SOL    HW1 5603   2.708   4.102   0.971  0.1628  1.4090 -0.3244
 1568SOL    HW2 5604   2.649   4.188   1.097 -0.5252  0.7380 -0.1772
 1569SOL     OW 5605   3.897   0.071   3.404  0.7645 -0.8151 -0.1503
 1569SOL    HW1 5606   3.849   0.020   3.475  0.8666 -1.3737 -0.4729
 1569SOL    HW2 5607   3.992   0.040   3.400  0.4124 -1.8384 -1.4781
 1570SOL     OW 5608   3.212   6.627   5.729 -0.2235 -0.4228 -0.2337
 1570SOL    HW1 5609   3.258   6.706   5.689  0.3777 -0.4184  0.4440
 1570SOL    HW2 5610   3.269   6.589   5.802 -1.6208  0.0536  1.1778
 1571SOL     OW 5611   0.925   1.538   6.017 -0.2741  0.0175 -0.1977
 1571SOL    HW1 5612   0.975   1.592   6.086  1.6583 -0.8761 -0.8471
 1571SOL    HW2 5613   0.918   1.443   6.048 -1.1377  0.0142 -0.3734
 1572SOL     OW 5614   1.923   0.531   2.761 -0.3782 -0.7962  0.3058
 1572SOL    HW1 5615   1.908   0.624   2.795 -0.5514 -0.5997 -0.3170
 1572SOL    HW2 5616   1.963   0.476   2.835  1.1849  0.1727  0.2447
 1573SOL     OW 5617   4.120   5.028   5.891  0.2074 -0.3851 -0.3875
 1573SOL    HW1 5618   4.081   4.975   5.966  0.5386  0.6300  0.5218
 1573SOL    HW2 5619   4.167   5.108   5.927  1.0158 -0.2688 -1.6385
 1574SOL     OW 5620   6.304   2.946   2.079 -0.2998  0.3968  0.6595
 1574SOL    HW1 5621   6.257   2.925   1.993 -0.3453  0.7713  0.5908
 1574SOL    HW2 5622   6.390   2.895   2.083  0.1181  1.0373 -0.0000
 1575SOL     OW 5623   2.573   1.350   0.359  0.2890  0.1608 -0.0229
 1575SOL    HW1 5624   2.502   1.410   0.322  0.4436  1.6842  1.9915
 1575SOL    HW2 5625   2.557   1.335   0.456  0.1849 -3.2687 -0.4327
 1576SOL     OW 5626   1.659   6.747   2.836  0.8949  0.0022  0.8506
 1576SOL    HW1 5627   1.585   6.707   2.781  1.5363 -0.2444  0.1426
 1576SOL    HW2 5628   1.623   6.822   2.891 -0.5676 -2.0544  2.9019
 1577SOL     OW 5629   5.534   5.958   2.831 -0.4644  0.5889 -0.7863
 1577SOL    HW1 5630   5.546   6.008   2.917  1.4723 -0.5835 -0.2979
 1577SOL    HW2 5631   5.484   5.873   2.848 -0.4691  0.5676 -0.9032
 1578SOL     OW 5632   4.591   1.064   2.140 -0.5605  0.8962  0.2129
 1578SOL    HW1 5633   4.540   1.051   2.225 -0.7226 -1.1160 -0.1420
 1578SOL    HW2 5634   4.548   1.136   2.086 -1.6398  0.8217  0.9424
 1579SOL     OW 5635   0.721   2.922   1.201  0.3265  0.6333  0.1493
 1579SOL    HW1 5636   0.743   2.933   1.104 -1.6666 -1.8386 -0.6932
 1579SOL    HW2 5637   0.804   2.903   1.252  1.0559 -2.0331 -1.8054
 1580SOL     OW 5638   3.074   3.232   4.422  0.3635  0.2919 -0.2383
 1580SOL    HW1 5639   3.041   3.196   4.509 -0.3585 -1.4623 -1.1704
 1580SOL    HW2 5640   3.023   3.314   4.397 -0.5410 -0.1125  0.2438
 1581SOL     OW 5641   4.747   4.454   6.579 -0.0465 -0.3867 -0.1518
 1581SOL    HW1 5642   4.815   4.395   6.535  0.1759  2.1613 -3.6692
 1581SOL    HW2 5643   4.663   4.455   6.523 -1.9485 -1.1163  2.4844
 1582SOL     OW 5644   3.638   5.574   2.694  0.1290 -0.3211  0.4984
 1582SOL    HW1 5645   3.680   5.492   2.656  0.9861  0.3201  0.0230
 1582SOL    HW2 5646   3.610   5.557   2.789  1.1249 -0.8840  0.7060
 1583SOL     OW 5647   0.133   6.630   3.881  0.2298  0.4757 -0.3901
 1583SOL    HW1 5648   0.179   6.610   3.968 -0.6058 -1.5388 -0.3614
 1583SOL    HW2 5649   0.169   6.571   3.809  0.5205  1.7393 -1.3077
 1584SOL     OW 5650   0.322   5.914   6.986 -0.3899 -0.2856 -0.5954
 1584SOL    HW1 5651   0.289   5.973   7.059  0.4246 -0.2202 -0.2648
 1584SOL    HW2 5652   0.264   5.925   6.905 -1.4211 -0.5029  0.0899
 1585SOL     OW 5653   4.196   0.617   3.005  0.4288 -0.2139 -0.2648
 1585SOL    HW1 5654   4.266   0.676   2.965 -0.1210  0.5379 -0.1430
 1585SOL    HW2 5655   4.193   0.632   3.104 -1.3799  1.4324 -0.5033
 1586SOL     OW 5656   3.066   6.229   5.279  0.3108 -0.6518 -0.1910
 1586SOL    HW1 5657   3.025   6.318   5.300 -0.1717 -1.0537  0.5821
 1586SOL    HW2 5658   3.056   6.210   5.181  0.5200  0.1865 -0.3899
 1587SOL     OW 5659   4.101   0.828   6.337  0.0152 -0.1217  0.3477
 1587SOL    HW1 5660   4.155   0.821   6.253 -1.4238  0.3172 -0.6521
 1587SOL    HW2 5661   4.060   0.739   6.357  2.0888 -0.8153  1.8481
 1588SOL     OW 5662   5.817   2.560   3.436 -0.0516  0.2847  0.3739
 1588SOL    HW1 5663   5.908   2.553   3.476  0.3644 -1.4896 -0.7699
 1588SOL    HW2 5664   5.811   2.501   3.355 -1.3701  2.4453 -1.2094
 1589SOL     OW 5665   6.661   2.832   4.681  0.0653  0.2882 -0.0696
 1589SOL    HW1 5666   6.591   2.841   4.752 -1.0384 -0.0555 -1.0646
 1589SOL    HW2 5667   6.748   2.808   4.722  0.4697  3.9652  1.5924
 1590SOL     OW 5668   0.305   0.130   3.190 -0.3775 -0.9052 -0.0644
 1590SOL    HW1 5669   0.360   0.046   3.182 -0.8498 -1.3986  1.5592
 1590SOL    HW2 5670   0.298   0.173   3.100  1.1301 -1.7974 -0.6513
 1591SOL     OW 5671   6.395   5.826   6.800 -0.4319  0.1162 -0.9456
 1591SOL    HW1 5672   6.310   5.871   6.826  0.5979  0.9941  1.1398
 1591SOL    HW2 5673   6.399   5.735   6.841 -0.1328  0.2905 -0.5842
 1592SOL     OW 5674   6.978   5.374   5.316 -0.5788 -0.4185  0.8351
 1592SOL    HW1 5675   7.070   5.360   5.351  0.7188  0.2731 -1.9924
 1592SOL    HW2 5676   6.950   5.294   5.263  0.9997  1.5140 -3.3270
 1593SOL     OW 5677   4.921   4.804   0.596 -0.4615 -0.4279  0.3863
 1593SOL    HW1 5678   4.873   4.719   0.578 -2.2220  0.7752 -0.9419
 1593SOL    HW2 5679   4.969   4.834   0.513 -2.6174  1.4873 -0.2753
 1594SOL     OW 5680   4.024   1.301   2.106  0.0146 -0.4858 -0.2317
 1594SOL    HW1 5681   4.069   1.302   2.016 -0.5860  0.0407 -0.5386
 1594SOL    HW2 5682   4.081   1.349   2.172  0.0715 -0.1292 -0.5368
 1595SOL     OW 5683   5.878   3.031   0.749  0.2486 -0.8791  0.0606
 1595SOL    HW1 5684   5.977   3.042   0.758  0.1036 -0.1133  0.9351
 1595SOL    HW2 5685   5.848   3.067   0.661  0.4078  1.6115  0.9490
 1596SOL     OW 5686   5.932   5.382   3.436 -0.0262  0.3539 -0.1891
 1596SOL    HW1 5687   5.969   5.441   3.364  0.1346 -0.1208 -0.4995
 1596SOL    HW2 5688   5.848   5.339   3.404 -1.1381  1.7877  0.6769
 1597SOL     OW 5689   3.284   1.182   2.006 -0.3683  0.0411  0.4530
 1597SOL    HW1 5690   3.362   1.130   2.040 -2.6185 -2.9429  1.4765
 1597SOL    HW2 5691   3.284   1.273   2.048  2.2802 -0.0056  0.7160
 1598SOL     OW 5692   6.023   4.313   6.689  0.3930 -0.5584  0.0799
 1598SOL    HW1 5693   5.936   4.272   6.663  0.8566 -0.9400 -0.9077
 1598SOL    HW2 5694   6.008   4.408   6.717 -0.3495 -0.6477  0.0051
 1599SOL     OW 5695   0.070   4.882   4.524 -0.0185  0.7270  0.0290
 1599SOL    HW1 5696   0.067   4.935   4.439  0.9811  0.3393 -0.2533
 1599SOL    HW2 5697  -0.017   4.893   4.572  0.5294  3.6155  0.5910
 1600SOL     OW 5698   3.628   0.938   1.767 -0.5635  0.5242 -0.3404
 1600SOL    HW1 5699   3.533   0.969   1.758 -0.7515  0.0448 -0.0750
 1600SOL    HW2 5700   3.653   0.884   1.687 -1.6346 -2.1868  1.0017
 1601SOL     OW 5701   5.450   0.917   4.628 -0.2615 -0.7934 -0.8475
 1601SOL    HW1 5702   5.360   0.919   4.672  0.1479 -1.8261  0.0745
 1601SOL    HW2 5703   5.516   0.876   4.690  0.9592  0.3480 -1.3476
 1602SOL     OW 5704   3.581   0.025   3.900  0.6683 -0.0028 -0.0854
 1602SOL    HW1 5705   3.665   0.078   3.906  0.5656  0.0308  1.2673
 1602SOL    HW2 5706   3.536   0.043   3.812  1.8214  0.3376 -0.6196
 1603SOL     OW 5707   3.255   4.759   0.950 -0.4737 -0.3087  0.3751
 1603SOL    HW1 5708   3.330   4.729   0.892 -0.0322 -0.2002  0.8810
 1603SOL    HW2 5709   3.285   4.758   1.046 -0.8889  0.4314  0.5173
 1604SOL     OW 5710   4.969   5.220   1.094  0.5105  0.1743  0.0782
 1604SOL    HW1 5711   4.896   5.287   1.112  1.0864  0.2685  2.3852
 1604SOL    HW2 5712   5.058   5.262   1.113  1.0213 -0.5928 -0.5957
 1605SOL     OW 5713   4.532   5.710   5.402  0.0262  0.8056 -0.2079
 1605SOL    HW1 5714   4.603   5.641   5.389 -0.1033  0.5932  0.1923
 1605SOL    HW2 5715   4.457   5.695   5.338  0.3939  1.1004 -0.7108
 1606SOL     OW 5716   5.757   4.952   4.563  0.5470  0.2773 -0.6360
 1606SOL    HW1 5717   5.751   4.853   4.578  1.0501  0.2701 -0.4857
 1606SOL    HW2 5718   5.846   4.985   4.592  0.7978  0.5952 -1.7034
 1607SOL     OW 5719   5.533   3.555   2.820 -0.0088  0.8193  0.1895
 1607SOL    HW1 5720   5.473   3.536   2.898 -2.2271 -0.0464 -1.6416
 1607SOL    HW2 5721   5.593   3.476   2.805 -2.0872 -0.5965 -1.1134
 1608SOL     OW 5722   0.078   4.415   2.888 -0.2289 -0.3591 -0.2986
 1608SOL    HW1 5723   0.178   4.407   2.892 -0.2493 -0.8340 -0.6730
 1608SOL    HW2 5724   0.038   4.326   2.868 -0.7527 -0.2376  0.1820
 1609SOL     OW 5725   1.711   6.535   0.485  0.2050 -0.0590 -0.0364
 1609SOL    HW1 5726   1.700   6.599   0.409 -2.1796 -1.1624 -0.7199
 1609SOL    HW2 5727   1.760   6.579   0.559 -0.7617  2.3487 -0.7446
 1610SOL     OW 5728   5.487   6.711   0.730  0.3651  0.1194  0.5952
 1610SOL    HW1 5729   5.493   6.698   0.829 -0.2765 -0.5784  0.5491
 1610SOL    HW2 5730   5.452   6.628   0.687  1.1901  0.2115 -0.2895
 1611SOL     OW 5731   2.230   3.792   6.792  0.3076 -0.4475 -0.1788
 1611SOL    HW1 5732   2.285   3.824   6.714  0.6956 -0.9876 -0.1332
 1611SOL    HW2 5733   2.225   3.692   6.790 -1.6571 -0.3822 -0.8462
 1612SOL     OW 5734   5.944   2.084   1.289  0.1864  0.1285  0.0776
 1612SOL    HW1 5735   5.902   2.090   1.380  2.9298 -0.3857  1.5183
 1612SOL    HW2 5736   5.944   2.174   1.246 -1.9287  0.2142  0.1668
 1613SOL     OW 5737   2.295   6.612   0.844 -0.1937 -0.0653  0.0476
 1613SOL    HW1 5738   2.250   6.523   0.848 -0.1924 -0.0879 -0.4596
 1613SOL    HW2 5739   2.259   6.671   0.917 -1.0397 -0.0827 -0.3542
 1614SOL     OW 5740   6.273   0.974   6.849 -0.3843  0.0811  0.2159
 1614SOL    HW1 5741   6.238   0.891   6.892 -3.8046  1.2292 -0.0586
 1614SOL    HW2 5742   6.271   0.964   6.750  0.2494  0.1310  0.1937
 1615SOL     OW 5743   5.464   3.879   5.017 -0.4868 -0.5126  0.0195
 1615SOL    HW1 5744   5.372   3.840   5.015 -0.8452  0.1878  1.5350
 1615SOL    HW2 5745   5.507   3.860   5.105  0.4646 -0.0248 -0.3172
 1616SOL     OW 5746   2.916   6.949   4.520  0.0694 -0.4003  0.2309
 1616SOL    HW1 5747   3.000   6.896   4.511  1.8188  2.1023  0.7738
 1616SOL    HW2 5748   2.866   6.918   4.601  0.5753 -1.7479  0.0495
 1617SOL     OW 5749   0.664   5.064   3.395 -0.1056  0.0890 -0.4698
 1617SOL    HW1 5750   0.596   5.132   3.424 -1.4092 -1.1099 -0.5654
 1617SOL    HW2 5751   0.705   5.091   3.309 -0.9419  0.5377 -0.7351
 1618SOL     OW 5752   3.122   5.286   3.626  0.2721 -0.0588 -0.0901
 1618SOL    HW1 5753   3.209   5.273   3.580  0.5722  0.7724  0.2187
 1618SOL    HW2 5754   3.124   5.241   3.715 -0.0246 -0.9857 -0.5352
 1619SOL     OW 5755   2.025   3.092   5.604 -0.3744  0.5762 -0.0659
 1619SOL    HW1 5756   1.930   3.062   5.600  0.0626 -0.8062 -2.1370
 1619SOL    HW2 5757   2.072   3.062   5.521  1.9756  0.8857  1.0790
 1620SOL     OW 5758   1.444   6.604   3.706  0.2808 -0.4161 -0.2713
 1620SOL    HW1 5759   1.426   6.600   3.804 -0.2107 -1.9173 -0.3917
 1620SOL    HW2 5760   1.357   6.615   3.656  0.6342  1.7455 -0.5257
 1621SOL     OW 5761   5.141   4.393   6.923 -0.3544  0.4050  0.4498
 1621SOL    HW1 5762   5.231   4.433   6.900  1.1884 -2.3547  1.3028
 1621SOL    HW2 5763   5.102   4.441   7.001  0.6221  1.3040  0.4064
 1622SOL     OW 5764   4.743   2.250   2.276 -0.2411  0.1253  0.3284
 1622SOL    HW1 5765   4.707   2.159   2.253 -0.5688 -0.0248  1.3931
 1622SOL    HW2 5766   4.672   2.319   2.261 -0.7045 -0.0623  1.5570
 1623SOL     OW 5767   6.070   2.760   4.195  0.2496 -0.0433 -0.2445
 1623SOL    HW1 5768   6.073   2.825   4.119 -0.0540  0.2576 -0.0012
 1623SOL    HW2 5769   5.975   2.743   4.221  0.3654  0.1078  0.2826
 1624SOL     OW 5770   4.754   3.849   1.324 -0.0538 -0.0546  0.2473
 1624SOL    HW1 5771   4.814   3.783   1.369  2.1705 -0.7602 -3.3285
 1624SOL    HW2 5772   4.748   3.932   1.379  1.1838 -1.3312  2.4601
 1625SOL     OW 5773   1.275   0.593   0.973  0.2551  0.4441  0.6224
 1625SOL    HW1 5774   1.316   0.630   0.890 -1.7166 -2.0340 -1.6006
 1625SOL    HW2 5775   1.178   0.614   0.975  0.1144 -0.2240  1.9089
 1626SOL     OW 5776   3.077   1.384   0.903 -0.2359 -0.5422 -0.2113
 1626SOL    HW1 5777   3.051   1.478   0.923 -2.2403 -1.1519  0.2678
 1626SOL    HW2 5778   3.130   1.382   0.818  0.8577  1.1136  0.3845
 1627SOL     OW 5779   4.603   2.497   6.096 -0.2046 -0.2859 -0.0581
 1627SOL    HW1 5780   4.586   2.496   5.998 -0.0865  1.0515 -0.1094
 1627SOL    HW2 5781   4.657   2.578   6.120  2.6502 -2.2128  0.6625
 1628SOL     OW 5782   6.308   5.753   1.756 -0.7170  0.3194 -0.2211
 1628SOL    HW1 5783   6.258   5.839   1.759 -1.7258 -0.2629  1.5185
 1628SOL    HW2 5784   6.400   5.768   1.719 -0.3979  2.3855  1.2706
 1629SOL     OW 5785   1.819   1.099   1.421  0.2033 -0.2497 -0.1495
 1629SOL    HW1 5786   1.867   1.020   1.459 -0.5828 -0.7880 -0.2622
 1629SOL    HW2 5787   1.733   1.112   1.469  0.2444  0.4447 -0.2466
 1630SOL     OW 5788   6.393   1.351   6.719  0.5964 -0.4187  0.1638
 1630SOL    HW1 5789   6.426   1.439   6.755  1.2113 -0.3283 -0.5934
 1630SOL    HW2 5790   6.458   1.279   6.743 -0.0144 -0.7175  0.9671
 1631SOL     OW 5791   5.871   5.010   6.270  0.3103  0.0403  0.0146
 1631SOL    HW1 5792   5.917   5.026   6.183  0.3924  1.4291  0.2917
 1631SOL    HW2 5793   5.793   5.072   6.277  0.3120 -0.0619  0.9383
 1632SOL     OW 5794   5.541   6.810   4.988 -0.0345  0.0944 -0.1327
 1632SOL    HW1 5795   5.504   6.852   4.906  1.2480  0.6727 -0.4322
 1632SOL    HW2 5796   5.522   6.869   5.067  1.4002  1.0994 -0.4905
 1633SOL     OW 5797   0.787   3.712   4.333  0.2709 -0.0816  0.3272
 1633SOL    HW1 5798   0.865   3.712   4.396  0.4114 -0.4715  0.1584
 1633SOL    HW2 5799   0.757   3.806   4.317  2.4194  0.3722 -1.6864
 1634SOL     OW 5800   1.486   2.891   0.052  0.4669  0.1475 -0.7016
 1634SOL    HW1 5801   1.562   2.828   0.068 -0.5469 -1.3782 -1.6620
 1634SOL    HW2 5802   1.457   2.931   0.139  0.7322 -1.2111  0.0499
 1635SOL     OW 5803   3.397   0.303   3.606 -0.5393 -0.4201 -0.3238
 1635SOL    HW1 5804   3.423   0.392   3.644 -1.6438  0.3572 -1.3025
 1635SOL    HW2 5805   3.367   0.315   3.511 -0.1738 -1.9343 -0.6526
 1636SOL     OW 5806   0.283   5.617   3.123  0.4036  0.0777  0.5575
 1636SOL    HW1 5807   0.218   5.583   3.055 -1.5688 -0.5841  2.6426
 1636SOL    HW2 5808   0.272   5.716   3.134  1.9228  0.4962 -1.2066
 1637SOL     OW 5809   6.357   2.259   6.538  0.6950  0.0687 -0.4086
 1637SOL    HW1 5810   6.332   2.172   6.495 -1.4366  0.0696  0.6818
 1637SOL    HW2 5811   6.435   2.246   6.598 -0.6365 -1.5654  1.0882
 1638SOL     OW 5812   5.036   2.110   1.626  0.0924 -0.1657  0.3729
 1638SOL    HW1 5813   5.084   2.161   1.698 -0.2278  1.0214 -0.2360
 1638SOL    HW2 5814   5.062   2.146   1.537 -2.6755  1.2421  0.0284
 1639SOL     OW 5815   6.719   1.561   2.965 -0.4659 -0.2016 -0.6408
 1639SOL    HW1 5816   6.788   1.633   2.966 -2.1782  1.5106 -0.6673
 1639SOL    HW2 5817   6.654   1.576   3.040 -2.3175 -0.2234 -2.1773
 1640SOL     OW 5818   5.794   1.289   1.771  0.8925 -0.0971 -0.0006
 1640SOL    HW1 5819   5.746   1.256   1.690  0.5588  0.2045  0.0691
 1640SOL    HW2 5820   5.838   1.376   1.750  1.7830 -0.5869 -0.1910
 1641SOL     OW 5821   4.545   0.412   2.381  0.0338 -0.3277 -0.0896
 1641SOL    HW1 5822   4.602   0.494   2.371 -0.1783 -0.2609 -0.7755
 1641SOL    HW2 5823   4.600   0.331   2.363 -0.3521 -0.2093 -1.9636
 1642SOL     OW 5824   0.075   3.281   7.018  0.7209  0.7169 -0.1781
 1642SOL    HW1 5825   0.115   3.324   6.937  1.2402  1.4399  0.4469
 1642SOL    HW2 5826   0.142   3.280   7.092 -0.3952  1.9846  0.9068
 1643SOL     OW 5827   2.003   6.588   4.596 -0.3838 -0.8304 -0.4156
 1643SOL    HW1 5828   1.985   6.614   4.502  0.0178  0.5771 -0.1280
 1643SOL    HW2 5829   2.102   6.589   4.613 -0.4989 -0.0707  0.2758
 1644SOL     OW 5830   6.572   2.644   0.351  0.2922 -0.3622  0.4157
 1644SOL    HW1 5831   6.539   2.735   0.327  1.3068  0.4715  2.0189
 1644SOL    HW2 5832   6.651   2.652   0.412 -0.3172 -2.3222  1.5487
 1645SOL     OW 5833   1.848   0.414   4.257 -1.1851 -0.4253 -0.6130
 1645SOL    HW1 5834   1.824   0.353   4.332  2.2311 -2.0177 -0.6133
 1645SOL    HW2 5835   1.874   0.503   4.293 -1.0475 -0.6946 -0.0303
 1646SOL     OW 5836   0.403   6.273   0.157  0.6392 -0.3474 -0.0322
 1646SOL    HW1 5837   0.379   6.363   0.119 -0.4675 -0.9190 -0.7276
 1646SOL    HW2 5838   0.496   6.250   0.128  0.4839  0.0414 -0.8812
 1647SOL     OW 5839   0.301   2.447   6.315  0.2795 -0.7448  0.1110
 1647SOL    HW1 5840   0.389   2.406   6.340 -0.2673 -1.1708  1.3655
 1647SOL    HW2 5841   0.250   2.469   6.397 -1.2575 -1.4776 -0.6117
 1648SOL     OW 5842   0.406   5.069   4.751  0.6500 -0.1486 -0.3115
 1648SOL    HW1 5843   0.494   5.114   4.764  0.7319 -0.4544  0.2046
 1648SOL    HW2 5844   0.417   4.971   4.762 -0.1447 -0.0318  1.9313
 1649SOL     OW 5845   3.533   0.944   3.418  0.3486  0.3856  0.0918
 1649SOL    HW1 5846   3.624   0.909   3.393  0.3082  0.6227 -0.4003
 1649SOL    HW2 5847   3.500   0.895   3.498  1.0242  0.4700  0.4328
 1650SOL     OW 5848   2.202   3.100   4.359 -0.1409  0.1733  0.8897
 1650SOL    HW1 5849   2.296   3.064   4.366 -0.3591 -0.8174 -0.6771
 1650SOL    HW2 5850   2.145   3.033   4.311 -1.6707  0.7662  1.8285
 1651SOL     OW 5851   0.291   2.623   3.056  0.1796  0.5467  0.3757
 1651SOL    HW1 5852   0.275   2.601   3.152 -0.8017 -0.2046  0.0624
 1651SOL    HW2 5853   0.382   2.662   3.045  0.2334  0.8111  1.6321
 1652SOL     OW 5854   6.619   4.307   1.859  0.5145  0.2653 -0.5858
 1652SOL    HW1 5855   6.573   4.219   1.874  1.7671 -0.1397  1.1733
 1652SOL    HW2 5856   6.652   4.311   1.765  0.7116 -1.3050 -0.6120
 1653SOL     OW 5857   0.432   4.833   2.401  0.2578  0.3303  0.2520
 1653SOL    HW1 5858   0.401   4.806   2.310 -0.4429 -0.2182  0.6442
 1653SOL    HW2 5859   0.357   4.825   2.466  0.3478  2.1122  0.6235
 1654SOL     OW 5860   5.899   3.786   1.362  0.2649  0.1111 -0.1221
 1654SOL    HW1 5861   5.932   3.800   1.268  0.5478  0.2867  0.0027
 1654SOL    HW2 5862   5.973   3.804   1.426 -0.0939  0.6057  0.1671
 1655SOL     OW 5863   5.269   0.166   6.463  0.5043 -0.2668  0.4299
 1655SOL    HW1 5864   5.296   0.260   6.441  0.2731 -0.4399 -0.6495
 1655SOL    HW2 5865   5.213   0.166   6.545  0.2431  0.5816  0.2633
 1656SOL     OW 5866   2.180   3.121   1.911  0.2383 -0.4477 -0.3763
 1656SOL    HW1 5867   2.258   3.173   1.946 -1.4139  1.1525  1.1621
 1656SOL    HW2 5868   2.102   3.182   1.901 -1.3387 -2.3502 -0.1566
 1657SOL     OW 5869   1.321   1.172   6.576  0.1417 -0.4700 -0.1900
 1657SOL    HW1 5870   1.331   1.262   6.618  1.0891 -0.4995 -0.3208
 1657SOL    HW2 5871   1.257   1.177   6.499  1.6233  0.5380 -1.4161
 1658SOL     OW 5872   3.482   5.876   3.732  0.1933 -0.0652  0.6217
 1658SOL    HW1 5873   3.447   5.966   3.707  0.3401 -0.2727 -0.3582
 1658SOL    HW2 5874   3.520   5.880   3.825  2.0926  1.4286 -0.1384
 1659SOL     OW 5875   4.677   1.079   5.940  0.1329  0.2686  0.2638
 1659SOL    HW1 5876   4.747   1.055   6.008 -0.3366 -1.0880  0.2971
 1659SOL    HW2 5877   4.662   1.002   5.879  0.8506  1.5992 -1.7051
 1660SOL     OW 5878   2.377   0.755   2.022  0.1835  0.0587  0.0224
 1660SOL    HW1 5879   2.444   0.821   2.054 -1.4501  2.0930 -0.5636
 1660SOL    HW2 5880   2.314   0.732   2.096  0.1224 -0.0456 -0.0605
 1661SOL     OW 5881   6.256   5.916   5.221  0.2593  0.1005 -0.0595
 1661SOL    HW1 5882   6.329   5.882   5.281  0.4448 -0.6931 -0.7153
 1661SOL    HW2 5883   6.290   5.919   5.127  0.3769  2.4857  0.0050
 1662SOL     OW 5884   0.914   1.817   2.482  0.2859  0.2344  0.2111
 1662SOL    HW1 5885   0.966   1.760   2.546  0.1683  0.3572  0.4150
 1662SOL    HW2 5886   0.857   1.881   2.533  0.3566  0.4792 -0.0204
 1663SOL     OW 5887   6.611   5.751   0.734 -0.5703  0.5941  0.1177
 1663SOL    HW1 5888   6.529   5.732   0.789 -0.9341  0.7737 -0.3545
 1663SOL    HW2 5889   6.685   5.690   0.762 -0.3119  1.6093  1.7776
 1664SOL     OW 5890   1.764   2.967   4.402 -0.4300 -0.5716 -0.4524
 1664SOL    HW1 5891   1.831   2.954   4.475  0.0797 -2.1971 -1.1648
 1664SOL    HW2 5892   1.721   3.057   4.411 -0.6379 -0.8621  2.0471
 1665SOL     OW 5893   0.154   1.937   7.005  0.2071 -0.0571  0.3693
 1665SOL    HW1 5894   0.176   2.034   6.997  1.7594 -0.5211 -2.2613
 1665SOL    HW2 5895   0.236   1.882   6.987 -0.7670 -1.8723  1.1552
 1666SOL     OW 5896   4.451   6.828   6.626  0.0690 -0.3076 -0.2592
 1666SOL    HW1 5897   4.461   6.866   6.718 -0.3409  0.6574 -0.6000
 1666SOL    HW2 5898   4.359   6.789   6.616 -0.3222  0.6723 -0.6300
 1667SOL     OW 5899   6.105   6.749   6.398  0.2263  0.0784  0.5224
 1667SOL    HW1 5900   6.009   6.734   6.375  0.2869  1.6727 -1.0104
 1667SOL    HW2 5901   6.162   6.687   6.345  0.0681 -0.8252  1.3860
 1668SOL     OW 5902   0.645   3.092   3.597 -0.1748 -0.0807  0.0765
 1668SOL    HW1 5903   0.651   3.033   3.516 -0.1371 -0.1390  0.1217
 1668SOL    HW2 5904   0.654   3.188   3.569  0.7577 -0.1496  0.1161
 1669SOL     OW 5905   6.779   1.011   5.728  0.8970  0.3515 -0.2833
 1669SOL    HW1 5906   6.731   1.011   5.815  1.5806  0.0628  0.1015
 1669SOL    HW2 5907   6.719   1.048   5.657 -0.4507 -1.4223 -0.1350
 1670SOL     OW 5908   2.381   6.103   6.216 -0.3724  0.3312  0.1343
 1670SOL    HW1 5909   2.363   6.193   6.174 -2.3251 -0.2025 -0.2764
 1670SOL    HW2 5910   2.395   6.036   6.143  0.1601  0.1112  0.4349
 1671SOL     OW 5911   0.316   2.746   1.062 -0.4694  0.4351  0.5542
 1671SOL    HW1 5912   0.244   2.679   1.043  0.5416 -1.4442  2.8970
 1671SOL    HW2 5913   0.400   2.718   1.016 -0.7086  1.6684 -0.7128
 1672SOL     OW 5914   6.762   1.453   6.783  0.0264 -0.1691  0.2015
 1672SOL    HW1 5915   6.745   1.361   6.819 -3.3432  0.4128  0.4408
 1672SOL    HW2 5916   6.771   1.449   6.684 -0.7512 -0.7165  0.1418
 1673SOL     OW 5917   2.402   1.745   5.051 -0.0057 -0.7319  0.1551
 1673SOL    HW1 5918   2.446   1.800   5.121 -1.5761  1.5443 -0.5174
 1673SOL    HW2 5919   2.311   1.718   5.082 -0.6053  0.0564 -0.8356
 1674SOL     OW 5920   5.229   3.423   3.808 -0.1820  0.1457  0.5511
 1674SOL    HW1 5921   5.313   3.448   3.759 -1.1782  1.0259 -0.7963
 1674SOL    HW2 5922   5.167   3.376   3.745 -1.4409  1.1614  0.9847
 1675SOL     OW 5923   5.402   6.606   2.950  0.4023 -0.0967  0.2899
 1675SOL    HW1 5924   5.424   6.690   2.998 -0.3987  0.0007  0.5105
 1675SOL    HW2 5925   5.348   6.546   3.010  0.1257 -0.3411 -0.1936
 1676SOL     OW 5926   6.992   1.591   4.418 -0.4787 -0.0454  0.3411
 1676SOL    HW1 5927   6.996   1.516   4.353  0.7182 -0.2155  0.5988
 1676SOL    HW2 5928   7.022   1.560   4.508  0.2163  0.7739  0.4093
 1677SOL     OW 5929   3.624   2.832   2.283  0.7381 -0.2876  0.0931
 1677SOL    HW1 5930   3.660   2.758   2.227  0.6312 -0.8209  0.7168
 1677SOL    HW2 5931   3.563   2.889   2.227 -2.9179 -3.3045  0.5734
 1678SOL     OW 5932   2.254   0.224   5.865 -0.0585 -0.2427 -0.3606
 1678SOL    HW1 5933   2.239   0.234   5.964  0.9915  0.8978 -0.2931
 1678SOL    HW2 5934   2.221   0.305   5.818 -0.9819 -0.9789 -1.0257
 1679SOL     OW 5935   4.382   0.964   0.772 -0.6077 -0.1920  0.1709
 1679SOL    HW1 5936   4.407   0.963   0.868 -3.4197 -0.5955  1.0011
 1679SOL    HW2 5937   4.315   0.892   0.754 -0.0735 -0.1787 -2.1134
 1680SOL     OW 5938   4.817   3.348   5.216  0.0789 -0.0908 -0.8703
 1680SOL    HW1 5939   4.816   3.429   5.157 -1.2268  1.3521  1.0146
 1680SOL    HW2 5940   4.910   3.312   5.222  0.9646  2.1149 -0.6639
 1681SOL     OW 5941   3.775   6.057   3.560 -0.0216 -0.1098  0.1539
 1681SOL    HW1 5942   3.708   5.994   3.521 -0.3049  0.1164  0.2686
 1681SOL    HW2 5943   3.827   6.100   3.487 -0.2133 -0.0597  0.0448
 1682SOL     OW 5944   4.763   1.555   6.335 -0.4509  0.3251  0.2795
 1682SOL    HW1 5945   4.854   1.592   6.357 -0.9370  0.3042  2.5325
 1682SOL    HW2 5946   4.694   1.625   6.352 -1.1344 -0.6964  1.9396
 1683SOL     OW 5947   6.990   1.861   2.163 -0.5724 -0.0463  0.1798
 1683SOL    HW1 5948   7.071   1.807   2.141 -0.5868  0.0831 -0.1956
 1683SOL    HW2 5949   6.975   1.860   2.262  0.6383  0.9787  0.4072
 1684SOL     OW 5950   1.673   5.322   0.784  0.6416 -0.2216  0.2655
 1684SOL    HW1 5951   1.609   5.345   0.858  1.2408 -0.0319  0.7302
 1684SOL    HW2 5952   1.738   5.254   0.815  0.1013 -1.1138 -0.5027
 1685SOL     OW 5953   6.938   0.630   6.483  0.3690  0.0121  0.0655
 1685SOL    HW1 5954   7.021   0.681   6.508 -0.5636  1.7121 -0.1098
 1685SOL    HW2 5955   6.897   0.591   6.565  1.1411 -0.5359  0.1991
 1686SOL     OW 5956   5.131   5.725   1.036  0.5139  0.5214  0.0237
 1686SOL    HW1 5957   5.092   5.660   1.101  0.4295  0.8731  0.3284
 1686SOL    HW2 5958   5.165   5.676   0.957  1.7811 -0.0565  0.8955
 1687SOL     OW 5959   4.665   5.303   0.682 -0.1726 -0.0526  0.2161
 1687SOL    HW1 5960   4.735   5.372   0.699  0.7501 -0.8075 -0.3676
 1687SOL    HW2 5961   4.576   5.337   0.712  0.0963  1.7444 -0.8808
 1688SOL     OW 5962   2.796   2.557   1.700 -0.0183 -0.3872  0.0294
 1688SOL    HW1 5963   2.794   2.521   1.794 -3.2813 -1.8804 -0.4579
 1688SOL    HW2 5964   2.804   2.481   1.636 -0.1035  0.4188 -0.9633
 1689SOL     OW 5965   4.277   0.291   3.609  0.0989 -0.2878 -0.5243
 1689SOL    HW1 5966   4.289   0.251   3.700  0.9696 -1.1973 -1.0328
 1689SOL    HW2 5967   4.360   0.341   3.583 -1.3049  2.9288  0.5634
 1690SOL     OW 5968   6.812   5.285   5.958  0.0377 -0.0227 -0.5655
 1690SOL    HW1 5969   6.782   5.191   5.940  0.2358 -0.0153 -0.9538
 1690SOL    HW2 5970   6.909   5.294   5.935  0.0431  0.2534 -0.4419
 1691SOL     OW 5971   4.087   2.039   6.511 -0.1996 -0.0686  0.3939
 1691SOL    HW1 5972   4.067   2.069   6.604  1.3477  0.0973  0.6924
 1691SOL    HW2 5973   4.177   2.072   6.483 -0.6208 -0.1313 -1.1634
 1692SOL     OW 5974   6.613   6.116   2.825  0.7432  0.3022  0.3414
 1692SOL    HW1 5975   6.526   6.110   2.873 -0.1316 -0.0463 -1.1959
 1692SOL    HW2 5976   6.617   6.043   2.756  0.5551  2.5403 -2.2119
 1693SOL     OW 5977   4.317   0.150   5.851  0.0464  0.4716  0.5339
 1693SOL    HW1 5978   4.319   0.057   5.814 -0.0615  0.8261 -0.4026
 1693SOL    HW2 5979   4.233   0.163   5.904 -0.1532  0.1750  0.2960
 1694SOL     OW 5980   3.059   0.206   5.422  0.1972  0.0917  0.0267
 1694SOL    HW1 5981   3.025   0.167   5.337 -0.8964 -1.6421  1.1819
 1694SOL    HW2 5982   3.074   0.133   5.489  1.0463  1.3869  1.3182
 1695SOL     OW 5983   3.372   6.815   5.980 -0.0462 -0.8727 -0.1340
 1695SOL    HW1 5984   3.331   6.725   5.969 -0.7748 -0.3701 -2.1050
 1695SOL    HW2 5985   3.357   6.868   5.896  0.6461  0.9640  0.8505
 1696SOL     OW 5986   5.957   0.034   3.254  0.2639 -0.3051  0.1898
 1696SOL    HW1 5987   5.862   0.057   3.234 -0.2203 -2.0976  0.3110
 1696SOL    HW2 5988   6.016   0.107   3.219 -1.2156  1.7186  1.6293
 1697SOL     OW 5989   3.175   5.429   6.441  0.2474 -0.2951 -0.1645
 1697SOL    HW1 5990   3.264   5.388   6.464  0.0385  0.0829  1.4190
 1697SOL    HW2 5991   3.116   5.428   6.521 -1.5044 -1.2446 -1.3808
 1698SOL     OW 5992   4.757   0.219   2.629  0.0892  0.1795 -0.3889
 1698SOL    HW1 5993   4.801   0.268   2.704 -0.5271  1.0155 -0.5569
 1698SOL    HW2 5994   4.659   0.211   2.648 -0.3694  1.7752 -1.7744
 1699SOL     OW 5995   2.907   0.876   0.059 -0.5893 -0.2903 -0.1495
 1699SOL    HW1 5996   2.892   0.909  -0.034 -0.5703  0.5749  0.1427
 1699SOL    HW2 5997   3.005   0.881   0.080 -0.5179 -1.0463 -0.2820
 1700SOL     OW 5998   6.232   3.103   2.862  0.1444  0.0806 -0.3403
 1700SOL    HW1 5999   6.163   3.046   2.817 -0.9346  0.8039  0.3598
 1700SOL    HW2 6000   6.201   3.128   2.953  0.8306  1.3620 -0.4284
 1701SOL     OW 6001   0.973   5.124   5.388 -0.1681 -0.4880  0.0873
 1701SOL    HW1 6002   0.956   5.044   5.330 -2.9701  0.7158 -0.8958
 1701SOL    HW2 6003   1.071   5.145   5.387  0.0945 -1.3306 -3.0959
 1702SOL     OW 6004   2.684   3.132   5.839 -0.1231  0.1986  0.4334
 1702SOL    HW1 6005   2.585   3.136   5.851  0.0264  0.8162  1.6247
 1702SOL    HW2 6006   2.706   3.140   5.742 -1.2385 -0.0716  0.1428
 1703SOL     OW 6007   1.892   0.604   1.918 -0.1244 -0.0673 -0.3487
 1703SOL    HW1 6008   1.983   0.566   1.936  0.3611  1.3109  0.2318
 1703SOL    HW2 6009   1.856   0.647   2.000 -0.7868  0.4491 -0.8927
 1704SOL     OW 6010   3.288   2.956   6.719 -0.5345 -0.5050  0.0596
 1704SOL    HW1 6011   3.328   2.910   6.640 -0.2270  1.1046 -0.7529
 1704SOL    HW2 6012   3.321   2.911   6.803  1.2431 -0.6169 -0.6485
 1705SOL     OW 6013   6.609   3.794   1.162  0.3327  0.3579 -0.5523
 1705SOL    HW1 6014   6.640   3.831   1.075  1.5688  0.9244  0.1056
 1705SOL    HW2 6015   6.660   3.710   1.182  0.0477  0.2255 -0.3829
 1706SOL     OW 6016   6.308   1.633   6.238 -0.4028 -0.9636 -0.1416
 1706SOL    HW1 6017   6.366   1.556   6.267  1.6124  0.9525  1.2031
 1706SOL    HW2 6018   6.233   1.644   6.304  0.3969 -0.6365  0.7308
 1707SOL     OW 6019   4.286   1.829   1.029 -0.2132 -0.1425  0.1630
 1707SOL    HW1 6020   4.223   1.759   0.993 -0.1042 -0.0326 -0.2393
 1707SOL    HW2 6021   4.363   1.839   0.967 -0.2279  0.3390  0.2235
 1708SOL     OW 6022   3.040   4.801   2.467 -0.9709 -0.0811 -0.2885
 1708SOL    HW1 6023   2.954   4.801   2.518  0.0183 -0.0467  1.4297
 1708SOL    HW2 6024   3.117   4.811   2.530  0.6045 -3.8753 -1.3373
 1709SOL     OW 6025   4.891   6.352   1.028 -0.2315 -0.1297  0.0171
 1709SOL    HW1 6026   4.913   6.269   1.080  1.4750  1.0322  1.2351
 1709SOL    HW2 6027   4.868   6.327   0.934  1.2586 -1.9181  0.0744
 1710SOL     OW 6028   4.059   2.264   3.309 -0.2499  0.3742 -0.1250
 1710SOL    HW1 6029   4.126   2.209   3.359 -0.1446  0.6826  0.0705
 1710SOL    HW2 6030   4.068   2.360   3.334 -0.7236  0.4276 -0.1491
 1711SOL     OW 6031   4.011   5.963   2.491 -0.3479  0.2146  0.6660
 1711SOL    HW1 6032   4.011   6.059   2.518 -0.3307  0.0480  1.2636
 1711SOL    HW2 6033   4.043   5.955   2.396 -0.3456  0.7947  0.6174
 1712SOL     OW 6034   6.604   1.644   1.062  0.1709  0.5451 -0.0027
 1712SOL    HW1 6035   6.598   1.616   1.157 -0.2084 -0.8083 -0.3996
 1712SOL    HW2 6036   6.514   1.673   1.029 -0.4213 -1.9429 -0.7722
 1713SOL     OW 6037   1.800   0.924   1.048 -0.2909 -0.1581 -0.5920
 1713SOL    HW1 6038   1.868   0.980   1.095 -0.5284 -1.3519  1.2724
 1713SOL    HW2 6039   1.741   0.880   1.116 -1.7663 -0.5998 -2.1016
 1714SOL     OW 6040   3.397   5.115   6.753 -0.1733  0.2944  0.1894
 1714SOL    HW1 6041   3.319   5.052   6.751  1.6184 -2.1562  1.2784
 1714SOL    HW2 6042   3.393   5.171   6.836 -0.1627 -0.7251  0.8976
 1715SOL     OW 6043   3.334   6.388   0.857  0.5224 -0.0853 -0.2163
 1715SOL    HW1 6044   3.289   6.430   0.778 -1.4272 -1.4260  0.1133
 1715SOL    HW2 6045   3.327   6.288   0.851 -0.8557 -0.2390  2.2159
 1716SOL     OW 6046   5.372   0.830   3.202  0.3453 -0.4635  0.5715
 1716SOL    HW1 6047   5.302   0.884   3.156  1.1707 -0.6463 -0.9752
 1716SOL    HW2 6048   5.426   0.889   3.261  0.3534  0.1343 -0.0224
 1717SOL     OW 6049   1.947   0.094   2.680  0.3816 -0.6507  0.1002
 1717SOL    HW1 6050   1.975   0.094   2.584 -0.8626 -1.1395 -0.2731
 1717SOL    HW2 6051   1.944  -0.000   2.714  0.3868 -0.5112  0.4953
 1718SOL     OW 6052   1.702   5.096   2.473  0.2113 -0.0304 -0.1715
 1718SOL    HW1 6053   1.772   5.163   2.448 -0.2617  0.5675  0.0859
 1718SOL    HW2 6054   1.633   5.140   2.531 -1.4489 -0.0864 -2.0112
 1719SOL     OW 6055   2.833   4.780   3.411  0.2665 -0.3072 -0.3609
 1719SOL    HW1 6056   2.893   4.791   3.491  0.3437  0.7804 -0.5501
 1719SOL    HW2 6057   2.737   4.783   3.441  0.2759 -2.2441 -0.0337
 1720SOL     OW 6058   0.238   3.469   4.766  0.0397 -0.7512 -0.7159
 1720SOL    HW1 6059   0.154   3.489   4.816 -0.5701 -1.0797 -1.5968
 1720SOL    HW2 6060   0.245   3.529   4.686  0.2734 -1.2294 -1.0583
 1721SOL     OW 6061   1.946   2.294   1.433 -0.4456  0.3506 -0.1437
 1721SOL    HW1 6062   1.922   2.274   1.338 -0.3102  0.7140 -0.2551
 1721SOL    HW2 6063   1.889   2.368   1.467 -0.2961  0.4153 -0.0333
 1722SOL     OW 6064   3.107   1.917   4.745 -0.3695  0.1054  0.2227
 1722SOL    HW1 6065   3.035   1.852   4.769 -0.6413  0.3404  0.0454
 1722SOL    HW2 6066   3.069   2.009   4.740 -0.1540  0.1665 -0.3256
 1723SOL     OW 6067   6.494   6.981   0.351 -0.2357  0.2282  0.1836
 1723SOL    HW1 6068   6.486   6.884   0.374 -0.1394 -0.3011 -1.8543
 1723SOL    HW2 6069   6.468   7.036   0.431  1.2886 -1.4290  1.9344
 1724SOL     OW 6070   5.954   5.197   0.194  0.2336  0.0530 -0.0150
 1724SOL    HW1 6071   5.908   5.163   0.277 -2.3303  2.7148 -0.1838
 1724SOL    HW2 6072   5.984   5.291   0.209 -3.0489  1.7867 -2.8953
 1725SOL     OW 6073   1.287   5.950   4.435  0.7693 -0.6373 -0.2619
 1725SOL    HW1 6074   1.319   5.983   4.346  1.5497  2.3916  1.0166
 1725SOL    HW2 6075   1.339   5.869   4.461  3.1108  0.5402 -1.0052
 1726SOL     OW 6076   6.398   5.831   3.074 -0.1632 -0.1214  0.2759
 1726SOL    HW1 6077   6.352   5.784   2.999  0.0155 -0.7174  0.5306
 1726SOL    HW2 6078   6.452   5.765   3.126 -1.5659 -0.0675  1.9143
 1727SOL     OW 6079   3.631   3.302   3.690 -0.0811 -0.0147  0.1678
 1727SOL    HW1 6080   3.615   3.309   3.592  1.4725  1.3207 -0.0460
 1727SOL    HW2 6081   3.677   3.216   3.711  0.1336 -0.0277 -0.3553
 1728SOL     OW 6082   6.098   1.695   3.702  0.2266 -0.5820 -0.0714
 1728SOL    HW1 6083   6.115   1.652   3.790 -0.1452 -2.2144 -0.7548
 1728SOL    HW2 6084   6.138   1.786   3.701 -0.8325 -0.0235  2.2049
 1729SOL     OW 6085   0.793   2.814   1.697 -0.3049  0.3671 -0.0559
 1729SOL    HW1 6086   0.841   2.896   1.727 -0.3350  0.2714  0.2579
 1729SOL    HW2 6087   0.718   2.839   1.636 -1.4320  0.7375  1.4201
 1730SOL     OW 6088   3.035   6.176   3.969 -0.2188  0.3674  0.1479
 1730SOL    HW1 6089   3.061   6.079   3.970  0.7001  0.6151  0.2808
 1730SOL    HW2 6090   3.011   6.205   4.061  0.9279  0.6412  0.3714
 1731SOL     OW 6091   6.604   3.348   2.857 -0.4238  0.1033 -0.3366
 1731SOL    HW1 6092   6.571   3.333   2.950  1.4104 -0.3423  0.2854
 1731SOL    HW2 6093   6.553   3.289   2.794 -0.9448 -0.3883  0.5265
 1732SOL     OW 6094   4.064   3.160   5.809 -0.1343 -0.4650  0.8828
 1732SOL    HW1 6095   4.152   3.155   5.762 -1.1671 -0.0683 -1.2112
 1732SOL    HW2 6096   4.058   3.246   5.860  0.8654 -0.7359  1.4988
 1733SOL     OW 6097   1.660   2.732   0.561  0.0008  0.2001  0.0270
 1733SOL    HW1 6098   1.696   2.730   0.468 -0.6312 -1.0957 -0.2160
 1733SOL    HW2 6099   1.565   2.700   0.561 -0.5967  1.8589  0.8975
 1734SOL     OW 6100   0.026   3.513   3.052  0.5187  0.1636 -0.3669
 1734SOL    HW1 6101   0.100   3.472   2.999 -0.2711 -1.2335 -0.4493
 1734SOL    HW2 6102  -0.061   3.471   3.025 -0.0030  0.0310  1.4032
 1735SOL     OW 6103   4.381   5.884   5.544  0.3600 -0.5711  0.1038
 1735SOL    HW1 6104   4.375   5.962   5.481 -1.6064  0.9226  2.0180
 1735SOL    HW2 6105   4.442   5.814   5.504  3.1162  2.3250 -1.2146
 1736SOL     OW 6106   4.828   2.770   5.713 -0.2897 -0.0559  0.3018
 1736SOL    HW1 6107   4.924   2.790   5.733  0.0753  2.2539 -2.9499
 1736SOL    HW2 6108   4.823   2.689   5.654 -0.3192  0.0373  0.1774
 1737SOL     OW 6109   3.577   1.101   0.569  0.3236 -0.0395 -0.2776
 1737SOL    HW1 6110   3.506   1.156   0.526  0.0757 -0.6919 -0.7114
 1737SOL    HW2 6111   3.665   1.147   0.559 -0.1414  1.2793  1.1248
 1738SOL     OW 6112   6.930   2.318   2.161  0.5329 -0.0215  0.2092
 1738SOL    HW1 6113   6.987   2.383   2.112 -1.5015  3.7620  2.3520
 1738SOL    HW2 6114   6.967   2.304   2.253 -1.2383  1.6446  1.2521
 1739SOL     OW 6115   4.213   4.337   1.653  0.7627  0.0714 -0.4100
 1739SOL    HW1 6116   4.169   4.252   1.625  0.2338  0.2782 -0.2028
 1739SOL    HW2 6117   4.284   4.316   1.721 -0.8729 -0.0074  1.3773
 1740SOL     OW 6118   4.772   1.626   5.448 -0.0976  0.1762  0.3366
 1740SOL    HW1 6119   4.866   1.649   5.475 -0.3086  0.1253  1.1255
 1740SOL    HW2 6120   4.775   1.558   5.375  0.4918  1.0722 -0.5027
 1741SOL     OW 6121   6.772   2.993   5.857 -0.5183 -0.4306 -0.1875
 1741SOL    HW1 6122   6.846   2.927   5.864 -0.2653 -0.1310 -0.0478
 1741SOL    HW2 6123   6.793   3.073   5.912 -2.2105 -1.4915  2.1776
 1742SOL     OW 6124   4.996   0.077   6.540  0.2318 -0.3442  0.4386
 1742SOL    HW1 6125   4.898   0.076   6.518  0.3188 -0.1084  0.0162
 1742SOL    HW2 6126   5.015   0.013   6.614 -0.0357 -1.3832 -0.3729
 1743SOL     OW 6127   3.363   1.322   1.126 -0.4172  0.0821 -0.1491
 1743SOL    HW1 6128   3.414   1.324   1.040  1.1456 -1.2447  0.6830
 1743SOL    HW2 6129   3.270   1.289   1.109 -0.6790  1.4415 -1.5432
 1744SOL     OW 6130   2.326   1.928   4.114 -0.0576  0.2147  0.3624
 1744SOL    HW1 6131   2.262   1.853   4.100  0.7718 -0.1755 -1.6987
 1744SOL    HW2 6132   2.328   1.952   4.211 -1.8213 -1.0626  0.7767
 1745SOL     OW 6133   6.025   6.405   1.786 -0.3747  0.2928 -0.2359
 1745SOL    HW1 6134   6.124   6.399   1.796 -0.2286  0.1626 -1.5534
 1745SOL    HW2 6135   5.987   6.461   1.859  0.9774  2.5602 -1.1886
 1746SOL     OW 6136   2.655   5.049   2.763 -0.1623  0.5155 -0.2945
 1746SOL    HW1 6137   2.685   4.997   2.843 -0.3550 -0.2006 -0.6775
 1746SOL    HW2 6138   2.684   5.145   2.773  0.2434  0.3327  0.3952
 1747SOL     OW 6139   2.946   6.423   2.672  0.5058 -0.0835 -0.5556
 1747SOL    HW1 6140   2.890   6.390   2.596 -0.8324  0.4303  0.1746
 1747SOL    HW2 6141   2.907   6.391   2.758  1.7205 -0.2435 -0.0520
 1748SOL     OW 6142   1.498   2.160   1.424 -0.0577 -0.5670  0.0958
 1748SOL    HW1 6143   1.413   2.147   1.373  0.9747 -0.2635 -1.7859
 1748SOL    HW2 6144   1.566   2.094   1.393  1.2351  0.9420 -0.3849
 1749SOL     OW 6145   0.308   5.772   2.233  0.2672 -0.3960  0.1060
 1749SOL    HW1 6146   0.217   5.770   2.190 -0.0609 -0.8452  0.8003
 1749SOL    HW2 6147   0.377   5.755   2.163 -0.1881 -0.1809 -0.4119
 1750SOL     OW 6148   2.639   0.964   3.645  0.4113 -0.4012 -0.6957
 1750SOL    HW1 6149   2.582   0.906   3.703  2.6796  0.5809  2.8510
 1750SOL    HW2 6150   2.644   1.056   3.684  2.0752  0.3685 -2.5129
 1751SOL     OW 6151   0.492   4.518   4.448 -0.0514  0.0782 -0.1035
 1751SOL    HW1 6152   0.501   4.557   4.540  1.1870  1.3497 -0.7204
 1751SOL    HW2 6153   0.438   4.579   4.391 -1.7143 -1.2143  0.0291
 1752SOL     OW 6154   6.848   6.456   3.135  0.5309  0.9592 -0.3750
 1752SOL    HW1 6155   6.944   6.454   3.165  0.4466 -0.3183 -0.1556
 1752SOL    HW2 6156   6.830   6.379   3.075 -0.7179  0.3271  0.7595
 1753SOL     OW 6157   0.972   0.897   0.824  0.4289  0.2560  0.1929
 1753SOL    HW1 6158   0.898   0.964   0.818 -0.7471 -0.9343  1.0109
 1753SOL    HW2 6159   1.058   0.945   0.842 -0.5526  1.4797  1.9437
 1754SOL     OW 6160   1.824   4.142   3.528 -0.1319 -0.1544  0.2546
 1754SOL    HW1 6161   1.857   4.084   3.453 -3.2095  0.7925 -2.0467
 1754SOL    HW2 6162   1.765   4.088   3.587  0.8619 -0.4616  0.9948
 1755SOL     OW 6163   6.902   5.456   4.448  0.0745 -0.9510 -0.0418
 1755SOL    HW1 6164   6.840   5.533   4.463 -0.6345 -1.5016 -0.1121
 1755SOL    HW2 6165   6.849   5.374   4.429  0.7507 -1.8891  1.9406
 1756SOL     OW 6166   2.968   5.131   1.244 -0.3246 -0.3037  0.5219
 1756SOL    HW1 6167   2.921   5.049   1.278 -2.4011  0.6752  0.1545
 1756SOL    HW2 6168   2.940   5.148   1.150  0.9970  0.2135  0.1985
 1757SOL     OW 6169   4.333   6.095   3.407  0.0893  0.4786  0.2113
 1757SOL    HW1 6170   4.432   6.090   3.397  0.0363 -2.3043  0.2266
 1757SOL    HW2 6171   4.306   6.048   3.491 -1.2538  1.1920  0.2003
 1758SOL     OW 6172   2.419   5.865   4.042  0.0642  0.8077 -0.7000
 1758SOL    HW1 6173   2.409   5.766   4.052  1.5711  0.7345  0.5376
 1758SOL    HW2 6174   2.501   5.884   3.989 -0.0821  1.3896 -0.7175
 1759SOL     OW 6175   1.010   0.788   0.058 -0.2154 -0.0778  0.5882
 1759SOL    HW1 6176   1.011   0.885   0.081 -0.9856  0.1593 -0.3205
 1759SOL    HW2 6177   1.039   0.734   0.138  1.3070  0.9402  0.7704
 1760SOL     OW 6178   6.384   5.318   3.179 -0.9690  0.8212  0.3071
 1760SOL    HW1 6179   6.387   5.339   3.276  1.0244 -0.4517  0.5703
 1760SOL    HW2 6180   6.420   5.226   3.163 -0.4662  1.3163 -1.7258
 1761SOL     OW 6181   5.837   3.023   4.098 -0.3442 -0.0090 -0.0901
 1761SOL    HW1 6182   5.889   3.025   4.012  0.1673  1.9957  0.2254
 1761SOL    HW2 6183   5.739   3.028   4.077 -0.2144  0.7340 -0.5648
 1762SOL     OW 6184   0.336   1.839   6.630  0.0372 -0.3231 -0.0941
 1762SOL    HW1 6185   0.296   1.891   6.554 -1.1900 -1.2074 -0.0784
 1762SOL    HW2 6186   0.326   1.741   6.613 -0.0338 -0.5389  1.1041
 1763SOL     OW 6187   3.493   4.983   2.945  0.1235 -0.2979  0.2762
 1763SOL    HW1 6188   3.402   4.942   2.940 -0.3828  0.8057  0.0169
 1763SOL    HW2 6189   3.496   5.064   2.887  1.1848 -0.1457  0.5193
 1764SOL     OW 6190   1.709   6.116   3.727 -0.3241  0.3490  0.4822
 1764SOL    HW1 6191   1.785   6.168   3.688 -0.5841 -0.1317 -0.7217
 1764SOL    HW2 6192   1.726   6.099   3.824  1.5747 -0.5783  0.0339
 1765SOL     OW 6193   6.933   4.013   1.162  0.4184  0.2092 -0.0283
 1765SOL    HW1 6194   6.910   4.110   1.153 -2.4674 -0.3688  0.4259
 1765SOL    HW2 6195   7.000   4.002   1.236  1.5103  1.8832 -0.6815
 1766SOL     OW 6196   4.449   4.603   2.390 -0.3188  0.0477 -0.0291
 1766SOL    HW1 6197   4.395   4.594   2.474 -0.3199 -0.3381 -0.0698
 1766SOL    HW2 6198   4.454   4.699   2.365  0.8716  0.3313  1.1934
 1767SOL     OW 6199   2.997   3.567   1.721  0.8133 -0.0511 -0.4263
 1767SOL    HW1 6200   3.019   3.528   1.632  1.8882  0.0848 -0.2265
 1767SOL    HW2 6201   3.069   3.630   1.749 -0.0595  0.7826  0.0393
 1768SOL     OW 6202   4.952   5.313   4.119  0.2450  0.7909  0.4545
 1768SOL    HW1 6203   4.855   5.334   4.107  0.2724  1.2058  0.9262
 1768SOL    HW2 6204   4.962   5.228   4.170  0.1286  1.0824  0.9622
 1769SOL     OW 6205   4.483   6.510   0.104  0.2385  0.1954  0.3355
 1769SOL    HW1 6206   4.498   6.568   0.184  0.6321 -0.0555  0.4451
 1769SOL    HW2 6207   4.565   6.456   0.085  0.3728  0.6998 -0.6085
 1770SOL     OW 6208   2.017   3.956   6.768  0.1845 -0.5150 -0.0498
 1770SOL    HW1 6209   2.015   4.043   6.818 -0.4136 -0.2538 -0.5218
 1770SOL    HW2 6210   2.112   3.925   6.761  0.9205  1.9030 -2.8804
 1771SOL     OW 6211   1.407   2.636   0.536 -0.1260  0.4886 -0.6163
 1771SOL    HW1 6212   1.382   2.591   0.450 -0.3288 -0.9920  0.1832
 1771SOL    HW2 6213   1.444   2.568   0.600 -0.2337  1.5068  0.5745
 1772SOL     OW 6214   2.659   5.836   3.909  0.4290  0.1135 -0.3865
 1772SOL    HW1 6215   2.717   5.918   3.907 -1.1602  1.3355  0.6717
 1772SOL    HW2 6216   2.668   5.791   3.998 -0.1507  0.2727 -0.2378
 1773SOL     OW 6217   1.320   5.508   4.362  0.3700 -0.0772  0.3488
 1773SOL    HW1 6218   1.315   5.504   4.462 -2.1261 -0.0109  0.2919
 1773SOL    HW2 6219   1.282   5.424   4.323 -1.6500  1.1552 -0.5015
 1774SOL     OW 6220   4.600   6.892   6.153 -0.4495  0.2412 -0.3126
 1774SOL    HW1 6221   4.529   6.920   6.217  0.9635  0.6872  1.1395
 1774SOL    HW2 6222   4.652   6.972   6.123 -1.0427  0.0293 -1.9973
 1775SOL     OW 6223   2.515   5.501   0.716 -0.0159 -0.0196 -0.1968
 1775SOL    HW1 6224   2.587   5.474   0.779  0.6618 -1.1359 -1.4014
 1775SOL    HW2 6225   2.426   5.475   0.753  0.3430 -0.3514  0.4444
 1776SOL     OW 6226   5.210   2.854   6.948  0.0142 -0.1443 -0.0519
 1776SOL    HW1 6227   5.179   2.854   6.853  0.8364  1.0157 -0.3490
 1776SOL    HW2 6228   5.133   2.874   7.009 -0.0933  1.4971 -0.6744
 1777SOL     OW 6229   4.861   5.099   5.677  0.2538 -0.1855 -0.1118
 1777SOL    HW1 6230   4.845   5.029   5.746  2.3352 -1.3196 -0.6831
 1777SOL    HW2 6231   4.959   5.122   5.675  0.4690 -0.9334 -3.3113
 1778SOL     OW 6232   6.575   1.635   3.209 -0.9446 -0.3691 -0.3124
 1778SOL    HW1 6233   6.519   1.578   3.269 -0.0033  0.1606  1.1403
 1778SOL    HW2 6234   6.667   1.645   3.249 -0.1114 -0.3981 -2.1158
 1779SOL     OW 6235   6.428   6.986   4.080 -0.0464 -0.7447  0.2579
 1779SOL    HW1 6236   6.433   6.890   4.053  3.4039 -0.3887 -0.9215
 1779SOL    HW2 6237   6.504   7.008   4.141 -0.8210  1.2445  0.6089
 1780SOL     OW 6238   2.736   0.932   3.378 -0.2925  0.3116 -0.3326
 1780SOL    HW1 6239   2.686   0.934   3.465 -1.2799 -1.5257 -0.8166
 1780SOL    HW2 6240   2.684   0.983   3.309 -0.0639  0.8094 -0.1454
 1781SOL     OW 6241   5.231   0.247   1.190 -0.1392 -0.0284 -0.4257
 1781SOL    HW1 6242   5.131   0.251   1.194 -0.1157  0.6838 -0.4329
 1781SOL    HW2 6243   5.261   0.248   1.095 -0.0868  0.8824 -0.4003
 1782SOL     OW 6244   6.450   6.885   2.509  0.4095 -0.2386  0.7850
 1782SOL    HW1 6245   6.509   6.879   2.428 -0.1117 -1.2359  0.4642
 1782SOL    HW2 6246   6.506   6.886   2.591  0.9011 -0.4829  0.4583
 1783SOL     OW 6247   0.000   4.202   0.799 -0.7166 -0.7112 -0.7400
 1783SOL    HW1 6248   0.060   4.142   0.852 -1.8161 -1.6627 -0.5559
 1783SOL    HW2 6249  -0.089   4.210   0.844 -0.3363  1.7944 -0.2641
 1784SOL     OW 6250   1.363   6.088   6.998  0.0932 -0.1900  0.6071
 1784SOL    HW1 6251   1.339   5.999   6.959 -1.0530  0.1922  0.4088
 1784SOL    HW2 6252   1.459   6.088   7.023 -0.2334 -2.0000  2.0294
 1785SOL     OW 6253   1.767   3.828   6.057  0.1887 -0.6263 -0.3723
 1785SOL    HW1 6254   1.690   3.877   6.098  1.6868  1.8480 -0.3598
 1785SOL    HW2 6255   1.838   3.813   6.126  0.7132 -0.7845 -0.9399
 1786SOL     OW 6256   1.769   4.936   1.647 -0.5298 -0.0779  0.6224
 1786SOL    HW1 6257   1.723   4.851   1.621  1.3783 -0.8504 -0.3979
 1786SOL    HW2 6258   1.852   4.915   1.699  0.2667  1.1178 -0.1156
 1787SOL     OW 6259   1.977   3.626   5.844  0.1318  0.7718 -0.1860
 1787SOL    HW1 6260   2.040   3.615   5.921 -0.7869  1.6480  0.7320
 1787SOL    HW2 6261   1.953   3.723   5.834 -2.1264  0.3362  0.3997
 1788SOL     OW 6262   4.601   3.572   0.686 -0.8791  0.0596 -0.2181
 1788SOL    HW1 6263   4.570   3.520   0.607 -0.1090 -1.0067  0.1629
 1788SOL    HW2 6264   4.597   3.670   0.665 -1.7319 -0.1704 -1.1711
 1789SOL     OW 6265   5.818   3.646   2.986  0.2502 -0.3826 -0.0449
 1789SOL    HW1 6266   5.787   3.739   3.007 -0.0731 -0.7848  1.3598
 1789SOL    HW2 6267   5.872   3.647   2.902 -1.2604  0.7919 -1.0714
 1790SOL     OW 6268   3.537   1.210   3.482  0.6899 -0.3359  0.0386
 1790SOL    HW1 6269   3.450   1.232   3.526  1.4054  0.8964  0.8803
 1790SOL    HW2 6270   3.529   1.121   3.436 -1.4238  0.3491 -1.0526
 1791SOL     OW 6271   5.006   0.299   2.438 -0.2557 -0.0337  0.0077
 1791SOL    HW1 6272   4.921   0.277   2.487  0.1688 -0.8399  0.4038
 1791SOL    HW2 6273   4.988   0.301   2.339 -0.9095  0.6511  0.1305
 1792SOL     OW 6274   0.593   3.613   5.192  0.0694 -0.0637 -0.0436
 1792SOL    HW1 6275   0.537   3.653   5.264  1.5131  4.0212 -0.9155
 1792SOL    HW2 6276   0.538   3.600   5.110 -0.6478 -0.8869  0.5458
 1793SOL     OW 6277   6.990   2.102   4.415  0.3415  0.3225 -0.3368
 1793SOL    HW1 6278   7.087   2.112   4.439  0.4457 -0.6108 -0.3416
 1793SOL    HW2 6279   6.962   2.178   4.356  1.2194  0.3123 -0.7795
 1794SOL     OW 6280   6.697   2.272   6.288 -0.0143 -0.1917 -0.2985
 1794SOL    HW1 6281   6.613   2.327   6.288 -0.0925 -0.2766 -1.6469
 1794SOL    HW2 6282   6.763   2.312   6.224  0.0682 -1.4321 -1.0178
 1795SOL     OW 6283   5.690   5.163   6.747 -0.7437 -0.2470 -0.2040
 1795SOL    HW1 6284   5.667   5.067   6.731  1.4597 -0.8871  0.2315
 1795SOL    HW2 6285   5.781   5.182   6.712 -0.4406  1.2358  1.2601
 1796SOL     OW 6286   6.354   2.276   5.682  0.3371  0.1813 -0.5797
 1796SOL    HW1 6287   6.382   2.299   5.588  0.0323 -1.3134 -1.0638
 1796SOL    HW2 6288   6.263   2.314   5.700 -0.0890 -0.4475 -1.3069
 1797SOL     OW 6289   1.565   6.167   4.585 -0.3714  0.7287 -0.4651
 1797SOL    HW1 6290   1.498   6.097   4.608 -0.4134  0.5943 -1.0065
 1797SOL    HW2 6291   1.634   6.173   4.658 -0.9235  0.8161  0.0553
 1798SOL     OW 6292   2.206   3.613   0.251  0.7019 -0.1198  0.1967
 1798SOL    HW1 6293   2.169   3.658   0.170  2.6649  0.0485 -0.6715
 1798SOL    HW2 6294   2.221   3.516   0.232 -0.8469 -0.5747  1.1186
 1799SOL     OW 6295   2.409   2.725   1.768  0.2702 -0.3881 -0.3388
 1799SOL    HW1 6296   2.441   2.631   1.765 -1.8167 -1.1201 -1.5881
 1799SOL    HW2 6297   2.362   2.741   1.855  3.3138  0.5438  1.2813
 1800SOL     OW 6298   6.263   1.998   0.062  0.1435 -0.0649  0.1649
 1800SOL    HW1 6299   6.258   1.927  -0.008  1.6167  1.7482 -1.9242
 1800SOL    HW2 6300   6.183   2.058   0.055  0.3067  0.1355 -0.0079
 1801SOL     OW 6301   1.202   1.325   2.236  0.2086 -0.2005 -0.0922
 1801SOL    HW1 6302   1.232   1.258   2.303 -1.2082  0.1187  0.9186
 1801SOL    HW2 6303   1.230   1.296   2.144  0.4468 -1.6600  0.4151
 1802SOL     OW 6304   6.404   5.452   5.104 -0.4877  0.2305 -0.0094
 1802SOL    HW1 6305   6.395   5.392   5.024 -1.0383  0.8358 -0.4134
 1802SOL    HW2 6306   6.443   5.540   5.075  1.8813 -0.4700  0.8413
 1803SOL     OW 6307   0.832   6.448   2.706 -0.0563  0.4532  0.1779
 1803SOL    HW1 6308   0.784   6.367   2.673  1.2718  0.1447 -1.1461
 1803SOL    HW2 6309   0.770   6.526   2.706 -1.4741 -0.6108  1.8621
 1804SOL     OW 6310   0.596   1.803   4.442 -0.4890 -0.1708 -0.2168
 1804SOL    HW1 6311   0.613   1.727   4.379 -1.1498 -1.0816  0.6656
 1804SOL    HW2 6312   0.502   1.799   4.474 -0.4409  0.8523  0.0870
 1805SOL     OW 6313   6.669   6.202   6.450  0.0383 -0.0972  0.0479
 1805SOL    HW1 6314   6.735   6.219   6.524 -0.9249  1.1620  0.6610
 1805SOL    HW2 6315   6.648   6.288   6.403 -2.0596 -0.2084  0.6624
 1806SOL     OW 6316   0.406   0.488   2.465 -0.0249 -0.0820  0.2698
 1806SOL    HW1 6317   0.367   0.396   2.462 -1.7388  0.6303 -0.5810
 1806SOL    HW2 6318   0.477   0.497   2.396 -1.1843 -0.2324 -0.9922
 1807SOL     OW 6319   6.563   1.672   3.796  0.1017  0.3305 -0.0044
 1807SOL    HW1 6320   6.620   1.594   3.769 -0.6344  0.2477 -1.3803
 1807SOL    HW2 6321   6.621   1.744   3.834  0.9850 -0.1741 -0.3630
 1808SOL     OW 6322   6.126   0.355   1.569  0.2801 -0.0717 -0.3805
 1808SOL    HW1 6323   6.128   0.255   1.572 -0.3148 -0.0755  0.2512
 1808SOL    HW2 6324   6.219   0.390   1.569  0.5552 -0.6508 -2.3199
 1809SOL     OW 6325   5.409   1.229   4.261 -0.2128  0.2533 -0.1837
 1809SOL    HW1 6326   5.345   1.293   4.304 -2.0606 -3.0338  2.5044
 1809SOL    HW2 6327   5.456   1.176   4.333 -1.0545 -3.3921 -2.0678
 1810SOL     OW 6328   2.353   1.078   5.567  0.2622  0.0027 -0.5710
 1810SOL    HW1 6329   2.352   1.147   5.640  0.5081 -0.4847 -0.1024
 1810SOL    HW2 6330   2.432   1.094   5.507 -0.3826  0.8936 -1.2194
 1811SOL     OW 6331   4.090   4.730   1.255 -0.0493  0.5673  0.2740
 1811SOL    HW1 6332   4.105   4.768   1.347  0.7543 -1.2075  0.9318
 1811SOL    HW2 6333   4.153   4.773   1.191  0.6391  0.5928  0.9378
 1812SOL     OW 6334   5.058   6.987   0.073  0.0358  0.3250 -0.6052
 1812SOL    HW1 6335   4.963   6.968   0.050  0.0687  0.3048 -0.7264
 1812SOL    HW2 6336   5.083   7.078   0.039  0.9419 -0.8204 -3.3328
 1813SOL     OW 6337   5.664   2.908   1.295 -0.3105 -0.2625 -0.1489
 1813SOL    HW1 6338   5.613   2.935   1.377  0.3918  2.3664 -0.4912
 1813SOL    HW2 6339   5.700   2.816   1.307 -0.5982 -0.1171  2.3188
 1814SOL     OW 6340   5.928   6.078   1.830 -0.5477 -0.5220 -0.2106
 1814SOL    HW1 6341   6.016   6.032   1.843 -0.4755 -0.3961 -0.2551
 1814SOL    HW2 6342   5.935   6.142   1.754 -0.3295  0.3534  0.5321
 1815SOL     OW 6343   5.317   5.707   0.589  0.5827  0.9194 -0.5135
 1815SOL    HW1 6344   5.368   5.685   0.505 -0.2793  1.1732 -1.1226
 1815SOL    HW2 6345   5.350   5.793   0.627  0.4452  1.2127 -1.0467
 1816SOL     OW 6346   3.847   4.984   4.700 -0.1669  0.3267  0.0342
 1816SOL    HW1 6347   3.926   4.934   4.667  0.0380  0.2571  0.6136
 1816SOL    HW2 6348   3.796   5.023   4.623  1.6668  2.2982 -0.2665
 1817SOL     OW 6349   5.810   2.884   3.769 -0.2003  0.2824  0.6306
 1817SOL    HW1 6350   5.847   2.811   3.826  2.4543  0.8534 -0.2429
 1817SOL    HW2 6351   5.736   2.930   3.819  1.1964  0.0081  3.1546
 1818SOL     OW 6352   4.551   2.663   5.597  0.1804  0.5418  0.0068
 1818SOL    HW1 6353   4.458   2.675   5.562  0.1718  0.6950  0.0792
 1818SOL    HW2 6354   4.608   2.739   5.565  0.0177  1.0236  0.8435
 1819SOL     OW 6355   1.629   4.260   0.777 -0.5537 -0.1120  0.2034
 1819SOL    HW1 6356   1.639   4.296   0.684  1.8377  0.4907  0.6295
 1819SOL    HW2 6357   1.541   4.214   0.785 -1.7090  1.5712 -1.7435
 1820SOL     OW 6358   3.670   5.802   6.080  0.1984 -0.3279 -0.3620
 1820SOL    HW1 6359   3.709   5.884   6.039  2.0241 -0.5957  0.7249
 1820SOL    HW2 6360   3.655   5.733   6.009 -0.7045  0.6675 -1.1742
 1821SOL     OW 6361   3.959   2.315   1.298 -0.1000 -0.0605  0.2052
 1821SOL    HW1 6362   3.895   2.380   1.258  0.4495 -0.8966 -2.2298
 1821SOL    HW2 6363   3.998   2.353   1.382 -1.6027  1.6666  0.1759
 1822SOL     OW 6364   1.980   4.134   5.146 -0.4149 -0.5893 -0.4915
 1822SOL    HW1 6365   1.907   4.201   5.129  0.0731 -0.1627 -0.9240
 1822SOL    HW2 6366   1.959   4.049   5.098  0.0456 -0.0113 -1.7381
 1823SOL     OW 6367   3.321   0.825   4.515  0.1270 -0.6702 -0.0195
 1823SOL    HW1 6368   3.315   0.725   4.519 -2.2643 -0.6684 -1.2847
 1823SOL    HW2 6369   3.278   0.863   4.596  1.4742 -0.6390  0.7001
 1824SOL     OW 6370   5.318   1.885   2.524 -0.1087  0.1308 -0.4283
 1824SOL    HW1 6371   5.400   1.938   2.547 -0.6209  0.2404  1.3484
 1824SOL    HW2 6372   5.266   1.933   2.453  0.8219  0.5984 -0.8086
 1825SOL     OW 6373   6.617   4.415   0.425 -0.5429  0.5469 -0.0802
 1825SOL    HW1 6374   6.591   4.417   0.328  0.5598 -0.9899 -0.4563
 1825SOL    HW2 6375   6.559   4.478   0.477 -1.4662  1.0541 -1.6562
 1826SOL     OW 6376   3.881   2.950   0.642 -0.3167 -0.2783  0.3614
 1826SOL    HW1 6377   3.812   3.004   0.691  0.2307 -0.2006  1.0640
 1826SOL    HW2 6378   3.937   2.899   0.707 -0.8757 -1.7824 -0.3068
 1827SOL     OW 6379   4.821   4.659   1.670  0.1946 -0.0040  0.2758
 1827SOL    HW1 6380   4.766   4.686   1.591 -0.0458  1.1001  0.8093
 1827SOL    HW2 6381   4.839   4.561   1.665  0.3808  0.0785 -1.2651
 1828SOL     OW 6382   1.283   0.166   6.108 -0.2653  0.0043  0.1976
 1828SOL    HW1 6383   1.333   0.251   6.126  1.4460 -0.9121 -0.1110
 1828SOL    HW2 6384   1.342   0.088   6.126 -1.2124 -1.0988 -1.3102
 1829SOL     OW 6385   1.806   6.656   1.139  0.0142  0.2755  0.0579
 1829SOL    HW1 6386   1.735   6.717   1.103 -2.0955 -2.1547 -0.2088
 1829SOL    HW2 6387   1.772   6.562   1.138  2.9378 -0.8876  0.8855
 1830SOL     OW 6388   2.937   0.642   6.473  0.7602  0.3407  0.0249
 1830SOL    HW1 6389   2.938   0.709   6.399  1.3689  0.2870 -0.0166
 1830SOL    HW2 6390   2.916   0.688   6.559 -0.0423  0.3895 -0.1816
 1831SOL     OW 6391   3.604   3.336   6.021 -0.5262  0.3340  0.1395
 1831SOL    HW1 6392   3.692   3.322   6.067  0.3401 -1.4151 -1.8805
 1831SOL    HW2 6393   3.614   3.407   5.951 -0.9228  0.6496  0.4049
 1832SOL     OW 6394   2.071   2.619   5.058 -0.1618  0.0510  0.3434
 1832SOL    HW1 6395   1.973   2.626   5.079 -0.2733 -0.4434  0.0066
 1832SOL    HW2 6396   2.086   2.638   4.961 -0.2690 -2.4291 -0.2163
 1833SOL     OW 6397   0.558   1.651   1.432 -0.3054 -0.2583 -0.0116
 1833SOL    HW1 6398   0.534   1.554   1.434  2.7459 -1.1191 -0.4589
 1833SOL    HW2 6399   0.656   1.661   1.415 -0.1776  2.8715  1.8002
 1834SOL     OW 6400   1.639   2.816   6.214 -0.1794 -0.3128  0.1675
 1834SOL    HW1 6401   1.695   2.838   6.135  1.3350 -0.7190  1.0948
 1834SOL    HW2 6402   1.597   2.726   6.201 -1.1480  0.2481 -0.7864
 1835SOL     OW 6403   0.008   5.941   6.158  0.2950 -0.5297 -0.6937
 1835SOL    HW1 6404   0.053   5.870   6.104  0.3347 -0.8295 -0.2671
 1835SOL    HW2 6405  -0.080   5.964   6.117 -0.4183 -1.9189  0.0302
 1836SOL     OW 6406   4.545   2.562   5.845 -0.3756 -0.3197 -0.5841
 1836SOL    HW1 6407   4.495   2.624   5.906 -0.2949 -0.5625 -0.2639
 1836SOL    HW2 6408   4.564   2.608   5.759  1.1793  0.7248  0.2621
 1837SOL     OW 6409   1.872   2.639   0.704  0.0159 -0.0448 -0.2937
 1837SOL    HW1 6410   1.782   2.651   0.660  0.0710 -0.2509 -0.4663
 1837SOL    HW2 6411   1.940   2.693   0.656  0.0659 -0.2280 -0.4303
 1838SOL     OW 6412   4.558   6.944   6.897 -0.1382  0.1969  0.1749
 1838SOL    HW1 6413   4.635   6.882   6.911 -1.0344 -0.8238  0.6828
 1838SOL    HW2 6414   4.588   7.021   6.840  1.5562  0.4474  1.3382
 1839SOL     OW 6415   0.333   2.211   6.545  0.1704  0.9166  1.2673
 1839SOL    HW1 6416   0.425   2.246   6.564  0.5525 -0.0884  1.3225
 1839SOL    HW2 6417   0.338   2.134   6.482 -0.6664  1.0582  1.0086
 1840SOL     OW 6418   3.325   6.346   5.399 -0.0785 -0.1016  0.3002
 1840SOL    HW1 6419   3.323   6.446   5.399  1.7159  0.0145 -1.8978
 1840SOL    HW2 6420   3.234   6.312   5.375 -1.6131  0.8008  4.1678
 1841SOL     OW 6421   2.984   6.675   2.008 -0.3272  0.0975  0.0398
 1841SOL    HW1 6422   2.919   6.727   1.953  0.7588 -0.4997 -1.9008
 1841SOL    HW2 6423   3.075   6.715   1.998 -0.0888 -0.0678  1.3929
 1842SOL     OW 6424   6.717   5.631   1.261 -0.3259 -0.2991  0.2679
 1842SOL    HW1 6425   6.745   5.632   1.165 -0.6385 -1.6429  0.1473
 1842SOL    HW2 6426   6.798   5.618   1.318 -0.3584 -1.4962  0.0656
 1843SOL     OW 6427   3.617   2.225   6.491  0.7223 -0.3236  0.1790
 1843SOL    HW1 6428   3.670   2.308   6.475  1.0088 -0.5611 -0.1046
 1843SOL    HW2 6429   3.679   2.151   6.519  0.4515 -0.4042  0.5821
 1844SOL     OW 6430   4.010   5.067   6.979  0.5439 -0.2718  0.1465
 1844SOL    HW1 6431   3.949   5.131   7.026 -0.5620 -0.7980 -0.5471
 1844SOL    HW2 6432   4.069   5.022   7.047 -1.6250 -1.6902  1.2202
 1845SOL     OW 6433   6.338   4.108   4.034  0.3207  0.0899  0.2338
 1845SOL    HW1 6434   6.300   4.186   4.083 -2.1177 -1.3001  0.7192
 1845SOL    HW2 6435   6.342   4.029   4.096 -1.4485 -1.3269 -1.3203
 1846SOL     OW 6436   2.275   2.880   2.714 -0.0952 -0.3095 -0.2019
 1846SOL    HW1 6437   2.374   2.895   2.709  0.4607 -3.0714  0.9279
 1846SOL    HW2 6438   2.239   2.862   2.623  1.0792 -2.4213 -0.3132
 1847SOL     OW 6439   2.742   6.947   5.568 -0.5940 -0.3124 -0.9826
 1847SOL    HW1 6440   2.704   7.022   5.621 -0.6018 -0.9387 -0.0867
 1847SOL    HW2 6441   2.753   6.866   5.626  1.9205 -0.2240 -1.2100
 1848SOL     OW 6442   3.122   5.677   4.590 -0.4650  0.3017  0.0397
 1848SOL    HW1 6443   3.197   5.658   4.653 -0.2776  0.8347 -0.0203
 1848SOL    HW2 6444   3.142   5.639   4.500 -0.9310 -0.8597  0.4045
 1849SOL     OW 6445   3.624   2.932   1.262 -0.1168 -0.1631 -0.2719
 1849SOL    HW1 6446   3.572   3.016   1.252 -0.4269 -0.3864 -0.5586
 1849SOL    HW2 6447   3.672   2.911   1.177  0.3526 -0.0196 -0.0460
 1850SOL     OW 6448   4.881   1.748   0.990 -0.7266  0.2485 -0.2953
 1850SOL    HW1 6449   4.873   1.760   0.891  0.7508 -0.7510 -0.5577
 1850SOL    HW2 6450   4.799   1.701   1.024 -1.2487  0.6092 -1.0149
 1851SOL     OW 6451   1.328   4.727   3.809  0.1706  0.8335  0.1749
 1851SOL    HW1 6452   1.281   4.702   3.725  2.4558 -0.3381 -0.8360
 1851SOL    HW2 6453   1.426   4.736   3.792  0.8942 -0.5617  2.9056
 1852SOL     OW 6454   0.379   0.368   4.063  0.5315 -0.0582 -0.1667
 1852SOL    HW1 6455   0.332   0.331   4.143  0.6772  0.0304 -0.0415
 1852SOL    HW2 6456   0.458   0.422   4.092 -0.4871  1.5407 -0.2890
 1853SOL     OW 6457   1.011   2.001   3.771 -0.3052  0.4460  0.1422
 1853SOL    HW1 6458   0.989   1.915   3.817 -1.5422  1.4363  1.5270
 1853SOL    HW2 6459   1.030   1.984   3.674  0.7145 -1.5095  0.6310
 1854SOL     OW 6460   0.928   6.872   2.848 -0.3601  0.0651  0.2862
 1854SOL    HW1 6461   0.886   6.890   2.760  0.8708  0.2752 -0.2743
 1854SOL    HW2 6462   0.857   6.851   2.915 -1.2975 -0.2503 -0.7815
 1855SOL     OW 6463   1.050   0.141   3.577 -0.6077 -0.8860 -0.2820
 1855SOL    HW1 6464   1.052   0.062   3.515 -1.6532 -1.7139  0.7019
 1855SOL    HW2 6465   1.074   0.112   3.669  0.4148  0.2390 -0.1677
 1856SOL     OW 6466   5.308   4.417   0.525 -0.3340  0.2385  0.2919
 1856SOL    HW1 6467   5.217   4.382   0.507 -0.6892  0.6097  1.2577
 1856SOL    HW2 6468   5.372   4.340   0.538 -0.7186 -0.0400  0.5722
 1857SOL     OW 6469   5.604   0.232   6.245 -0.2159 -0.2916  0.1081
 1857SOL    HW1 6470   5.606   0.308   6.181 -0.7074  0.3562  0.8510
 1857SOL    HW2 6471   5.578   0.148   6.196 -0.5858  0.1861 -0.5348
 1858SOL     OW 6472   5.118   2.344   5.156 -0.0985 -0.7692 -0.3811
 1858SOL    HW1 6473   5.019   2.353   5.164  0.0881  1.7527 -0.1239
 1858SOL    HW2 6474   5.163   2.393   5.231  1.3604 -1.6079 -0.6595
 1859SOL     OW 6475   5.620   5.518   3.440  0.2703  0.0140  0.6797
 1859SOL    HW1 6476   5.693   5.563   3.389 -0.9937  0.8322 -0.4486
 1859SOL    HW2 6477   5.566   5.586   3.489 -2.4115  0.0280 -2.0150
 1860SOL     OW 6478   2.557   0.548   1.567 -0.1060 -0.0350 -0.6939
 1860SOL    HW1 6479   2.563   0.516   1.662  1.2877 -1.1130 -1.0978
 1860SOL    HW2 6480   2.484   0.615   1.559 -1.8023 -1.6115  0.6589
 1861SOL     OW 6481   6.333   6.149   0.058  0.3456 -0.2220 -0.4762
 1861SOL    HW1 6482   6.268   6.217   0.092  1.3530  0.5168  0.0267
 1861SOL    HW2 6483   6.317   6.062   0.105 -0.1060  0.0250 -0.1658
 1862SOL     OW 6484   4.672   5.853   3.516  0.1918 -0.0307  0.2095
 1862SOL    HW1 6485   4.696   5.772   3.463  0.6457 -0.4299  1.0078
 1862SOL    HW2 6486   4.610   5.828   3.590 -0.3423  0.5020 -0.0473
 1863SOL     OW 6487   6.184   0.092   1.575  0.2117  0.6242 -0.3022
 1863SOL    HW1 6488   6.113   0.025   1.552 -1.2048  1.1341  2.1693
 1863SOL    HW2 6489   6.259   0.046   1.622  0.6236  0.3662 -1.2001
 1864SOL     OW 6490   4.528   0.096   1.659  0.2096 -0.2167 -1.0855
 1864SOL    HW1 6491   4.514   0.150   1.576 -0.5537  0.5614 -0.4624
 1864SOL    HW2 6492   4.621   0.110   1.693  0.7382 -1.0256 -2.1323
 1865SOL     OW 6493   5.937   1.512   5.807  0.5302  0.3043  0.4030
 1865SOL    HW1 6494   5.960   1.422   5.771 -1.8577 -0.0861 -0.3321
 1865SOL    HW2 6495   6.016   1.573   5.798  0.4190  0.1103 -5.1332
 1866SOL     OW 6496   6.318   3.659   3.822 -0.1690 -0.6734 -0.3870
 1866SOL    HW1 6497   6.333   3.638   3.726 -1.3739  3.3293 -1.6471
 1866SOL    HW2 6498   6.395   3.713   3.857 -1.1427  0.5884 -0.1112
 1867SOL     OW 6499   1.361   0.852   1.072  0.1581  0.2898 -0.7278
 1867SOL    HW1 6500   1.449   0.854   1.119 -1.0656 -1.4311  1.8873
 1867SOL    HW2 6501   1.322   0.761   1.078 -2.0864  1.1499 -1.2819
 1868SOL     OW 6502   0.096   5.084   6.270 -0.3103 -0.0401 -0.1326
 1868SOL    HW1 6503   0.015   5.038   6.233 -0.7463  3.0547 -3.6355
 1868SOL    HW2 6504   0.171   5.075   6.205  0.6376  1.1510  0.7614
 1869SOL     OW 6505   4.757   0.484   4.948  0.5668 -0.1762  0.1247
 1869SOL    HW1 6506   4.839   0.534   4.976  0.4071  0.6097 -0.7436
 1869SOL    HW2 6507   4.716   0.529   4.868 -0.8346 -0.4208  0.6634
 1870SOL     OW 6508   4.432   0.965   4.691  0.1744 -0.4861 -0.4659
 1870SOL    HW1 6509   4.439   1.053   4.738 -1.0831 -0.0969 -0.9575
 1870SOL    HW2 6510   4.376   0.976   4.609 -0.0306 -1.7612 -0.5104
 1871SOL     OW 6511   1.733   4.420   5.978 -0.7344  0.4733 -0.4904
 1871SOL    HW1 6512   1.650   4.364   5.980  0.1868 -0.9318  0.7361
 1871SOL    HW2 6513   1.798   4.380   5.914  0.3197 -0.4917  1.1356
 1872SOL     OW 6514   1.207   2.764   6.977  0.5465 -0.4748 -0.0279
 1872SOL    HW1 6515   1.167   2.677   7.005 -0.1690  0.0909  0.7823
 1872SOL    HW2 6516   1.302   2.768   7.006  0.8252 -1.3086 -0.7948
 1873SOL     OW 6517   6.831   0.025   2.357 -0.0711  0.1168  0.0743
 1873SOL    HW1 6518   6.855   0.039   2.453 -1.5459  0.3149  0.4497
 1873SOL    HW2 6519   6.778   0.104   2.325  0.1509 -0.0875 -0.8128
 1874SOL     OW 6520   0.744   4.516   4.413  0.1596 -0.2604 -0.0480
 1874SOL    HW1 6521   0.797   4.442   4.455  0.1320  0.2401  0.9028
 1874SOL    HW2 6522   0.649   4.509   4.440 -0.3836 -1.3847 -2.0732
 1875SOL     OW 6523   0.268   6.491   1.723 -0.0103 -0.1905  0.2861
 1875SOL    HW1 6524   0.211   6.410   1.738 -0.2699 -0.4151 -1.6751
 1875SOL    HW2 6525   0.314   6.515   1.808  0.0664 -2.3896  0.9317
 1876SOL     OW 6526   1.828   4.125   6.417 -0.2721  0.3161  0.6362
 1876SOL    HW1 6527   1.803   4.201   6.476 -1.8698  0.9703 -0.8029
 1876SOL    HW2 6528   1.829   4.040   6.470  0.2171  1.1295  1.9741
 1877SOL     OW 6529   1.010   1.499   3.854 -0.4150  0.2967 -0.3936
 1877SOL    HW1 6530   0.981   1.594   3.851  0.4952  0.7120  2.1889
 1877SOL    HW2 6531   0.950   1.447   3.916 -0.9329 -0.8786 -1.8018
 1878SOL     OW 6532   5.985   3.400   5.260  0.8110 -0.6324  0.1872
 1878SOL    HW1 6533   6.079   3.401   5.295  0.7916 -0.5977  0.2403
 1878SOL    HW2 6534   5.934   3.327   5.306  0.2108  0.7290  1.7617
 1879SOL     OW 6535   5.944   6.555   4.648  0.0604 -0.1427 -0.3830
 1879SOL    HW1 6536   5.862   6.527   4.697 -0.7337  0.6745 -1.1829
 1879SOL    HW2 6537   5.917   6.610   4.568  1.3498 -0.5232 -1.1017
 1880SOL     OW 6538   1.263   2.807   4.464 -0.7560 -0.2078  0.3380
 1880SOL    HW1 6539   1.270   2.711   4.490 -1.4427  0.2076  2.1747
 1880SOL    HW2 6540   1.338   2.830   4.401  1.2376 -1.2161  2.1985
 1881SOL     OW 6541   1.890   1.973   1.324  1.1183 -0.2450 -0.2417
 1881SOL    HW1 6542   1.906   1.992   1.421  1.6139 -1.9146  0.0212
 1881SOL    HW2 6543   1.943   2.038   1.268  0.2274  1.2300  0.5669
 1882SOL     OW 6544   2.922   4.927   0.301 -0.0499 -0.4122  0.1324
 1882SOL    HW1 6545   2.990   4.898   0.234  0.9038  0.4481  0.7063
 1882SOL    HW2 6546   2.912   5.026   0.299 -3.0877 -0.6205 -1.6199
 1883SOL     OW 6547   0.591   2.571   3.781 -0.0916  0.4716  0.3736
 1883SOL    HW1 6548   0.614   2.612   3.870  1.6849  1.7404 -0.6023
 1883SOL    HW2 6549   0.571   2.474   3.793 -0.1534  0.6704  2.1755
 1884SOL     OW 6550   4.807   0.002   5.890 -0.0304  0.5128 -0.8130
 1884SOL    HW1 6551   4.900   0.038   5.894  0.2065 -0.0932 -0.8284
 1884SOL    HW2 6552   4.785  -0.026   5.797 -0.5650  1.5174 -1.0010
 1885SOL     OW 6553   5.861   1.547   1.678 -0.2946 -0.7203 -0.1966
 1885SOL    HW1 6554   5.862   1.612   1.754  0.2633  2.6613 -2.8693
 1885SOL    HW2 6555   5.954   1.533   1.645 -0.4764 -2.5160 -0.0352
 1886SOL     OW 6556   2.590   3.886   5.316 -0.3294 -0.4056 -0.3012
 1886SOL    HW1 6557   2.523   3.917   5.248 -0.5904  1.7835  0.8603
 1886SOL    HW2 6558   2.674   3.940   5.307 -0.3096 -0.1933  0.9788
 1887SOL     OW 6559   2.904   5.289   4.896  0.7588 -0.3659 -0.2946
 1887SOL    HW1 6560   2.840   5.232   4.948 -0.1803  0.7013 -0.2310
 1887SOL    HW2 6561   2.854   5.366   4.856  1.8838  0.0716 -0.8934
 1888SOL     OW 6562   1.841   0.917   5.311 -0.1674  0.5274 -0.2399
 1888SOL    HW1 6563   1.922   0.907   5.369 -0.6957  0.9336  0.5788
 1888SOL    HW2 6564   1.869   0.948   5.220  0.6371  0.2047 -0.1121
 1889SOL     OW 6565   2.133   4.972   0.478  0.0670 -0.2086  0.0008
 1889SOL    HW1 6566   2.213   4.996   0.423  1.4296 -2.5744  0.7898
 1889SOL    HW2 6567   2.064   4.930   0.419  0.5587 -0.6262 -0.2858
 1890SOL     OW 6568   5.947   5.769   6.789 -0.1944  0.3343 -0.4531
 1890SOL    HW1 6569   5.868   5.777   6.849  0.1021  1.1288 -0.1573
 1890SOL    HW2 6570   5.916   5.771   6.694 -0.3939  3.3235 -0.4343
 1891SOL     OW 6571   6.338   2.397   6.232  0.4558 -0.0018  0.1081
 1891SOL    HW1 6572   6.293   2.451   6.160  0.7023  0.3753  0.2313
 1891SOL    HW2 6573   6.351   2.303   6.200  0.4740  0.1375 -0.3014
 1892SOL     OW 6574   4.777   1.657   3.428 -0.2351  0.1182 -0.0371
 1892SOL    HW1 6575   4.863   1.707   3.434 -0.2166  0.0189  0.5456
 1892SOL    HW2 6576   4.738   1.669   3.337  1.7838 -2.1464 -1.3035
 1893SOL     OW 6577   4.067   4.180   0.338  0.0353  0.4436 -0.0387
 1893SOL    HW1 6578   3.992   4.146   0.394 -0.4087  1.2669 -0.1235
 1893SOL    HW2 6579   4.154   4.163   0.385 -0.0354 -1.8586 -0.5837
 1894SOL     OW 6580   5.206   3.162   0.389  0.8077  0.2791  0.0695
 1894SOL    HW1 6581   5.230   3.108   0.470  2.4538  1.1697  0.2191
 1894SOL    HW2 6582   5.124   3.215   0.408 -0.8130 -2.0082 -0.0472
 1895SOL     OW 6583   5.966   4.971   3.686 -0.3185 -0.2601 -0.1440
 1895SOL    HW1 6584   5.893   4.903   3.676 -0.8471  0.3127 -0.2155
 1895SOL    HW2 6585   5.934   5.060   3.653  0.2662  0.0919  0.2219
 1896SOL     OW 6586   6.597   6.558   6.035  0.3510  0.2504 -0.4169
 1896SOL    HW1 6587   6.619   6.645   6.080 -1.1351  0.2371  0.3973
 1896SOL    HW2 6588   6.540   6.575   5.954  2.6864  0.2405 -2.1700
 1897SOL     OW 6589   6.733   4.691   1.850  0.4414 -0.1142 -0.0560
 1897SOL    HW1 6590   6.796   4.760   1.814  0.1180  0.5306  0.6112
 1897SOL    HW2 6591   6.713   4.624   1.778  2.4078 -0.7156 -0.0981
 1898SOL     OW 6592   4.633   6.358   1.202 -0.0744 -0.2455 -0.4194
 1898SOL    HW1 6593   4.646   6.407   1.116  0.9545 -0.3955 -0.3531
 1898SOL    HW2 6594   4.583   6.273   1.185 -1.8464  0.7663 -0.5400
 1899SOL     OW 6595   0.640   3.232   4.265 -0.0670 -0.0048 -0.2449
 1899SOL    HW1 6596   0.673   3.203   4.175 -0.8098 -0.9019 -0.2388
 1899SOL    HW2 6597   0.594   3.155   4.309 -1.3157  0.9532  0.1518
 1900SOL     OW 6598   2.393   5.521   1.765 -0.3880  0.0869 -0.1187
 1900SOL    HW1 6599   2.310   5.550   1.813 -1.3916 -1.9954 -0.4674
 1900SOL    HW2 6600   2.409   5.423   1.782 -0.1301 -0.4556 -2.9857
 1901SOL     OW 6601   6.299   2.541   6.816  0.1038  0.1938  0.1351
 1901SOL    HW1 6602   6.360   2.560   6.738 -0.7855 -0.2520 -0.6853
 1901SOL    HW2 6603   6.204   2.539   6.784 -0.1552 -1.7467  0.8982
 1902SOL     OW 6604   1.459   3.088   4.506  0.2002 -0.7041 -0.0483
 1902SOL    HW1 6605   1.445   3.044   4.417 -1.9131  0.5411 -0.3977
 1902SOL    HW2 6606   1.371   3.103   4.550  1.1725 -0.8670  2.0906
 1903SOL     OW 6607   0.431   5.857   5.124  0.3149 -0.3431  0.2931
 1903SOL    HW1 6608   0.445   5.813   5.212  0.7816  2.0118  1.4729
 1903SOL    HW2 6609   0.510   5.916   5.103 -0.3175  0.0392 -1.1297
 1904SOL     OW 6610   0.783   0.634   3.699 -0.0109  0.3200 -0.1345
 1904SOL    HW1 6611   0.860   0.643   3.762 -1.1155  2.2235  1.0635
 1904SOL    HW2 6612   0.728   0.554   3.724  1.7173 -1.2766 -1.2392
 1905SOL     OW 6613   6.356   3.902   3.541 -0.3911  0.3238 -0.2020
 1905SOL    HW1 6614   6.374   3.983   3.486 -0.3837  1.2396  1.1155
 1905SOL    HW2 6615   6.291   3.924   3.614 -1.5787 -1.2358 -0.7357
 1906SOL     OW 6616   1.349   0.150   0.911  0.2539  0.6691 -0.5260
 1906SOL    HW1 6617   1.389   0.061   0.933  1.4266  1.1594 -0.6291
 1906SOL    HW2 6618   1.270   0.137   0.850  0.9632 -0.2400 -1.2756
 1907SOL     OW 6619   3.552   6.401   2.836  0.5097  0.3169  0.6940
 1907SOL    HW1 6620   3.496   6.368   2.760  0.1798  0.5117  0.8477
 1907SOL    HW2 6621   3.505   6.478   2.880  0.8558  0.4176  0.8846
 1908SOL     OW 6622   4.741   5.356   1.064 -0.2594  0.0934  0.1301
 1908SOL    HW1 6623   4.676   5.430   1.074 -1.3434 -0.8383  0.2232
 1908SOL    HW2 6624   4.695   5.268   1.079  1.2265 -0.5534  1.2016
 1909SOL     OW 6625   3.689   5.176   3.961  0.1945 -0.3920 -0.2390
 1909SOL    HW1 6626   3.744   5.253   3.992 -3.1903  1.9508  0.5709
 1909SOL    HW2 6627   3.650   5.196   3.871 -1.0423 -0.9319  0.1413
 1910SOL     OW 6628   5.482   2.956   3.622 -0.3856 -0.1862 -0.4221
 1910SOL    HW1 6629   5.554   2.987   3.684 -1.4296  0.3237  0.6001
 1910SOL    HW2 6630   5.513   2.877   3.570  0.8015 -0.1392  0.1923
 1911SOL     OW 6631   1.869   3.009   5.346  0.1569  0.6551 -0.1788
 1911SOL    HW1 6632   1.919   3.079   5.294 -0.9624 -0.7748 -3.4608
 1911SOL    HW2 6633   1.772   3.014   5.323 -0.2656 -0.5727  1.2334
 1912SOL     OW 6634   5.050   0.348   1.582  0.4648 -0.1384 -0.0314
 1912SOL    HW1 6635   4.977   0.279   1.577 -0.6385  0.9598  0.2979
 1912SOL    HW2 6636   5.071   0.367   1.678  0.9724 -0.2287 -0.1249
 1913SOL     OW 6637   1.494   4.536   6.415  0.4118 -0.5163  0.4059
 1913SOL    HW1 6638   1.436   4.523   6.496 -0.1548  1.2163  0.3158
 1913SOL    HW2 6639   1.508   4.447   6.370 -2.4211 -1.0055  0.2788
 1914SOL     OW 6640   2.795   2.291   4.041  0.4430  0.2722 -0.5037
 1914SOL    HW1 6641   2.732   2.343   4.099  0.1292 -1.2163  0.5542
 1914SOL    HW2 6642   2.772   2.306   3.945 -1.2442  0.1141 -0.1527
 1915SOL     OW 6643   2.368   6.622   3.777  0.3664 -0.4032  0.3641
 1915SOL    HW1 6644   2.358   6.717   3.807  0.2980 -0.5426  0.7904
 1915SOL    HW2 6645   2.297   6.602   3.709 -0.0037 -0.3293  0.7268
 1916SOL     OW 6646   2.852   6.005   2.646  0.3564  0.1165 -0.0488
 1916SOL    HW1 6647   2.941   6.051   2.646  0.5395 -0.1827  1.7734
 1916SOL    HW2 6648   2.862   5.914   2.608  1.4545 -0.9388  2.5441
 1917SOL     OW 6649   4.118   3.725   3.368 -0.0172  0.1332 -0.5160
 1917SOL    HW1 6650   4.216   3.731   3.383  0.4586 -2.4887 -1.9118
 1917SOL    HW2 6651   4.089   3.630   3.377 -2.5435  0.9013  0.3169
 1918SOL     OW 6652   1.218   6.851   4.301  0.0923  0.0185 -0.2927
 1918SOL    HW1 6653   1.178   6.768   4.341  0.2520  0.6346  1.2372
 1918SOL    HW2 6654   1.317   6.845   4.302  0.5972  2.3481  5.3282
 1919SOL     OW 6655   5.929   0.044   2.666 -0.3931 -0.1298 -0.2981
 1919SOL    HW1 6656   6.022   0.066   2.695 -0.1363 -1.1071 -0.3457
 1919SOL    HW2 6657   5.865   0.065   2.740  0.1758 -1.8841  0.7488
 1920SOL     OW 6658   1.705   6.460   4.554  0.2691  0.1503 -0.2007
 1920SOL    HW1 6659   1.695   6.387   4.487  1.5449 -0.1160 -0.1303
 1920SOL    HW2 6660   1.756   6.426   4.633  0.5941  1.0169 -0.0239
 1921SOL     OW 6661   2.816   0.375   6.688 -0.1635 -0.2249  0.3028
 1921SOL    HW1 6662   2.749   0.342   6.622  0.2114 -1.3272  0.4589
 1921SOL    HW2 6663   2.890   0.308   6.697  0.3601  0.4290  1.0151
 1922SOL     OW 6664   3.942   4.501   5.299  0.1257 -0.6932 -0.4249
 1922SOL    HW1 6665   3.992   4.415   5.290  0.1018 -0.8809  1.0126
 1922SOL    HW2 6666   4.007   4.577   5.309  0.1332 -0.8150  0.4636
 1923SOL     OW 6667   0.500   2.940   1.837  0.0806 -0.1611 -0.5724
 1923SOL    HW1 6668   0.490   2.972   1.743  2.3931  0.0647 -0.8126
 1923SOL    HW2 6669   0.460   2.849   1.845 -0.5374 -0.0036 -1.6583
 1924SOL     OW 6670   6.690   2.301   3.013 -0.2021 -0.6541  0.5451
 1924SOL    HW1 6671   6.727   2.320   2.922  0.8675  0.1681  1.1208
 1924SOL    HW2 6672   6.609   2.359   3.028 -0.0802 -0.4149  0.3019
 1925SOL     OW 6673   1.492   4.581   0.209 -0.0408 -0.5951  0.4929
 1925SOL    HW1 6674   1.479   4.484   0.189 -0.4022 -0.9585  2.2576
 1925SOL    HW2 6675   1.530   4.590   0.302 -1.2302  0.9834  0.8566
 1926SOL     OW 6676   0.611   0.132   3.615  0.5464  0.2298  0.3531
 1926SOL    HW1 6677   0.543   0.074   3.659  1.4134 -0.8710  0.2819
 1926SOL    HW2 6678   0.566   0.192   3.549 -0.2068 -1.4607 -0.7262
 1927SOL     OW 6679   4.589   2.909   0.815 -0.7384 -0.1668  0.4280
 1927SOL    HW1 6680   4.595   2.939   0.910 -0.0833  0.0986  0.3150
 1927SOL    HW2 6681   4.631   2.819   0.805 -0.2937  0.0453  0.3037
 1928SOL     OW 6682   0.900   2.965   5.266 -0.5449  0.1791  0.1085
 1928SOL    HW1 6683   0.960   3.013   5.201 -0.6879 -0.4665 -0.5085
 1928SOL    HW2 6684   0.881   3.025   5.343 -1.3469  1.4221 -1.0089
 1929SOL     OW 6685   1.724   3.446   2.727 -0.0327 -0.2741  0.1783
 1929SOL    HW1 6686   1.793   3.376   2.709  0.0169 -0.6530  1.7305
 1929SOL    HW2 6687   1.639   3.402   2.756 -1.8496 -0.0090 -4.0118
 1930SOL     OW 6688   5.868   5.750   6.068 -0.4687  0.3318 -0.4329
 1930SOL    HW1 6689   5.895   5.682   6.000 -1.0383  1.9554 -2.3869
 1930SOL    HW2 6690   5.771   5.769   6.060 -0.2565  1.6103 -0.1578
 1931SOL     OW 6691   0.036   4.003   1.417  0.0525 -0.3030  0.4760
 1931SOL    HW1 6692  -0.039   3.947   1.453 -0.0967 -0.4935 -0.1128
 1931SOL    HW2 6693   0.022   4.098   1.443  0.1410 -0.4874  1.2225
 1932SOL     OW 6694   0.618   2.048   2.460  0.0161  0.5485 -0.3392
 1932SOL    HW1 6695   0.612   2.112   2.536 -0.4962  0.4188 -0.2707
 1932SOL    HW2 6696   0.548   2.071   2.392 -1.1731 -0.8524  0.3726
 1933SOL     OW 6697   1.711   6.107   1.407 -0.3423 -0.2444 -0.4897
 1933SOL    HW1 6698   1.649   6.099   1.329 -0.3680 -2.0372 -0.3255
 1933SOL    HW2 6699   1.658   6.106   1.492 -0.2448  0.6924 -0.4119
 1934SOL     OW 6700   0.371   6.717   3.037  0.1424  0.0471  0.3351
 1934SOL    HW1 6701   0.401   6.629   3.072  0.5112 -0.5320 -1.3130
 1934SOL    HW2 6702   0.451   6.777   3.025  0.1075  0.0315 -0.0054
 1935SOL     OW 6703   2.494   1.660   2.870  0.1159  0.2012  0.2911
 1935SOL    HW1 6704   2.554   1.740   2.876  1.1984 -0.4484 -1.2749
 1935SOL    HW2 6705   2.550   1.577   2.871 -0.8856 -0.4866  0.3630
 1936SOL     OW 6706   1.294   5.659   5.299 -0.0089  0.6992 -0.2571
 1936SOL    HW1 6707   1.343   5.596   5.238 -1.4377 -0.5002 -0.2194
 1936SOL    HW2 6708   1.360   5.710   5.354  1.3301  1.5262 -2.4799
 1937SOL     OW 6709   4.887   2.262   1.926  0.1443 -0.0032  0.4560
 1937SOL    HW1 6710   4.875   2.318   1.843 -0.6883 -0.7817  0.0243
 1937SOL    HW2 6711   4.801   2.261   1.977  0.5335  0.1295  1.1168
 1938SOL     OW 6712   0.723   6.113   3.515 -0.0647 -0.1045  0.3901
 1938SOL    HW1 6713   0.688   6.024   3.484  2.3054 -0.0021 -3.1062
 1938SOL    HW2 6714   0.693   6.185   3.453  1.4448  0.8748  0.7437
 1939SOL     OW 6715   4.216   0.698   4.480 -0.4117 -0.2295 -0.0291
 1939SOL    HW1 6716   4.208   0.663   4.574 -1.4291 -0.5017 -0.2091
 1939SOL    HW2 6717   4.297   0.757   4.474  0.9355 -1.9443  0.4522
 1940SOL     OW 6718   4.611   6.234   0.427  0.0975 -0.5169  0.1868
 1940SOL    HW1 6719   4.524   6.226   0.377  0.6335  0.3764 -0.9395
 1940SOL    HW2 6720   4.665   6.308   0.388  2.4014 -2.5208 -0.7114
 1941SOL     OW 6721   4.379   6.038   3.100  0.2580 -0.5935 -0.6533
 1941SOL    HW1 6722   4.395   5.998   3.190  0.5466  0.8449 -0.0297
 1941SOL    HW2 6723   4.445   6.001   3.035  0.1604 -1.5135 -0.2455
 1942SOL     OW 6724   6.268   4.440   2.805 -0.7483  0.1330  0.2977
 1942SOL    HW1 6725   6.306   4.367   2.861  2.0515  1.0336 -0.2575
 1942SOL    HW2 6726   6.292   4.425   2.709 -1.1333  1.1736  0.0212
 1943SOL     OW 6727   3.369   5.318   5.310 -0.2118 -0.7097  0.5323
 1943SOL    HW1 6728   3.357   5.225   5.344 -1.3273 -0.6002  0.4755
 1943SOL    HW2 6729   3.452   5.322   5.255 -1.8210 -2.5879 -2.3803
 1944SOL     OW 6730   0.555   5.651   3.011  0.7623  0.2773  0.5764
 1944SOL    HW1 6731   0.564   5.626   2.915  0.1160  1.8394  0.0776
 1944SOL    HW2 6732   0.464   5.627   3.044  0.1137  1.8913  0.0755
 1945SOL     OW 6733   4.353   4.666   3.417 -0.1521  0.5138  0.0685
 1945SOL    HW1 6734   4.448   4.696   3.425 -0.2022  0.3385  1.5174
 1945SOL    HW2 6735   4.297   4.714   3.483 -0.7753 -0.5887  0.3682
 1946SOL     OW 6736   1.463   1.565   0.035  0.0104  0.7402  0.3088
 1946SOL    HW1 6737   1.438   1.468   0.033 -1.4696  1.1048 -0.9520
 1946SOL    HW2 6738   1.560   1.574   0.057 -0.2692 -0.9049  2.6263
 1947SOL     OW 6739   6.440   2.189   4.229 -0.1576  0.0837 -0.7699
 1947SOL    HW1 6740   6.381   2.225   4.157  0.1813  1.9899 -0.1420
 1947SOL    HW2 6741   6.447   2.090   4.219 -1.4601  0.1017 -2.3325
 1948SOL     OW 6742   6.705   3.446   4.486  0.2538  0.1481 -0.1042
 1948SOL    HW1 6743   6.768   3.446   4.409  1.2324 -0.5957  0.6695
 1948SOL    HW2 6744   6.716   3.362   4.539 -0.6866  0.4551  0.6180
 1949SOL     OW 6745   3.100   2.602   0.849  0.2341 -0.0607  0.1439
 1949SOL    HW1 6746   3.134   2.696   0.848  0.8827 -0.2960  0.0146
 1949SOL    HW2 6747   3.078   2.575   0.943  0.5456  0.0410  0.2467
 1950SOL     OW 6748   2.161   6.027   2.531  0.0261  0.4714  0.0805
 1950SOL    HW1 6749   2.154   5.977   2.617  0.5096 -0.5816 -0.4808
 1950SOL    HW2 6750   2.227   5.982   2.471  0.0093  1.4334 -0.6848
 1951SOL     OW 6751   5.418   1.586   6.035 -0.1509 -0.2329 -0.3996
 1951SOL    HW1 6752   5.456   1.641   6.108 -3.1000 -0.2301  1.2910
 1951SOL    HW2 6753   5.401   1.643   5.955  0.3978  0.4298 -0.0484
 1952SOL     OW 6754   3.041   3.226   3.443  0.1174  0.5722  0.2003
 1952SOL    HW1 6755   2.996   3.315   3.446 -0.7156  0.1456  1.3004
 1952SOL    HW2 6756   3.093   3.213   3.528  0.7783  0.2802 -0.2464
 1953SOL     OW 6757   0.133   1.836   4.377  0.7402  0.2438 -0.1233
 1953SOL    HW1 6758   0.111   1.740   4.390  1.0559  0.2699  0.6747
 1953SOL    HW2 6759   0.109   1.887   4.459 -1.9153  1.3286 -1.4534
 1954SOL     OW 6760   2.054   2.401   3.616 -0.2536  0.0455  0.3671
 1954SOL    HW1 6761   2.035   2.480   3.557  0.2315 -0.1767 -0.0958
 1954SOL    HW2 6762   1.981   2.333   3.606 -1.0670  0.7344  1.3242
 1955SOL     OW 6763   6.519   3.816   2.465 -0.1754 -0.0479  0.2950
 1955SOL    HW1 6764   6.513   3.752   2.388  1.8506 -0.2906  0.2757
 1955SOL    HW2 6765   6.457   3.893   2.450 -1.0597 -0.9358 -0.7357
 1956SOL     OW 6766   3.070   5.888   4.017  0.0608  0.8903 -0.0488
 1956SOL    HW1 6767   3.071   5.803   3.965 -0.4905  0.1175  1.1467
 1956SOL    HW2 6768   3.154   5.895   4.071 -0.4018  0.4805  0.7611
 1957SOL     OW 6769   1.941   6.644   4.877 -0.1136  0.3651  0.0650
 1957SOL    HW1 6770   1.974   6.736   4.855 -1.0319  1.5545  3.1472
 1957SOL    HW2 6771   2.019   6.581   4.882  0.8362  1.5311  0.3713
 1958SOL     OW 6772   4.764   3.880   5.579 -0.0727 -0.2578  0.1068
 1958SOL    HW1 6773   4.740   3.972   5.609  1.1733 -1.0372  4.0831
 1958SOL    HW2 6774   4.696   3.815   5.611  1.0904 -1.1156  0.9296
 1959SOL     OW 6775   3.658   0.756   2.157 -0.3320 -0.3564  0.6919
 1959SOL    HW1 6776   3.646   0.714   2.247 -1.0865  1.4089  1.4598
 1959SOL    HW2 6777   3.756   0.767   2.138 -0.1416 -1.6279  0.8332
 1960SOL     OW 6778   5.115   4.898   2.437  0.1058  0.4238 -0.6953
 1960SOL    HW1 6779   5.062   4.926   2.357  1.1797 -2.6425 -2.6276
 1960SOL    HW2 6780   5.169   4.817   2.416  0.9386 -0.1916  3.0051
 1961SOL     OW 6781   3.889   5.829   6.776  0.2131  0.1554  0.6404
 1961SOL    HW1 6782   3.825   5.906   6.774  1.4372  1.3664  3.1596
 1961SOL    HW2 6783   3.965   5.848   6.714 -1.9210 -1.5586 -2.8413
 1962SOL     OW 6784   6.416   6.445   3.874  0.0768 -0.0904  0.4114
 1962SOL    HW1 6785   6.490   6.380   3.889  0.1239 -0.5578 -1.6187
 1962SOL    HW2 6786   6.377   6.472   3.962  2.4248 -0.0708  1.5161
 1963SOL     OW 6787   2.527   1.622   3.533 -0.4906 -0.3654 -0.5141
 1963SOL    HW1 6788   2.566   1.538   3.570 -0.8728  0.0083  0.7850
 1963SOL    HW2 6789   2.583   1.700   3.563 -1.7771  0.1070  0.7540
 1964SOL     OW 6790   5.239   3.119   1.439 -0.2454  0.7662  0.1331
 1964SOL    HW1 6791   5.252   3.216   1.460 -1.4566  1.3215 -1.4007
 1964SOL    HW2 6792   5.296   3.094   1.361 -0.8242  0.5836 -0.2397
 1965SOL     OW 6793   1.611   5.714   2.726 -0.4841  0.1036  0.0317
 1965SOL    HW1 6794   1.660   5.652   2.664 -0.6407 -1.0673  1.0484
 1965SOL    HW2 6795   1.513   5.694   2.723 -0.4326 -0.3557  1.0746
 1966SOL     OW 6796   5.637   0.194   6.959 -0.2696  0.1511 -0.2990
 1966SOL    HW1 6797   5.614   0.148   6.873  0.0534  0.2211 -0.4236
 1966SOL    HW2 6798   5.554   0.204   7.014 -0.0733 -2.2999  0.5718
 1967SOL     OW 6799   6.565   1.375   3.454  0.0477  0.4808 -0.1404
 1967SOL    HW1 6800   6.593   1.356   3.359 -0.3986  0.1943 -0.2173
 1967SOL    HW2 6801   6.507   1.301   3.486 -0.4027  0.9409  0.1112
 1968SOL     OW 6802   5.335   4.911   4.656  0.1180 -0.4900  0.0245
 1968SOL    HW1 6803   5.296   4.821   4.635 -1.2056  0.2862 -1.1258
 1968SOL    HW2 6804   5.274   4.959   4.720 -0.8003  0.6620 -1.6289
 1969SOL     OW 6805   0.407   6.369   2.515  1.0012 -0.3549 -0.0756
 1969SOL    HW1 6806   0.498   6.374   2.474  0.6047  0.8080 -0.8607
 1969SOL    HW2 6807   0.347   6.435   2.471 -0.4345 -1.6000 -0.0902
 1970SOL     OW 6808   4.297   1.125   3.832 -0.2470 -0.3317  0.3737
 1970SOL    HW1 6809   4.374   1.188   3.823 -0.0522 -0.6131  0.0810
 1970SOL    HW2 6810   4.213   1.178   3.845 -0.0588 -0.0148  0.3196
 1971SOL     OW 6811   1.774   0.281   4.478  0.3302 -0.2032 -0.1313
 1971SOL    HW1 6812   1.734   0.193   4.452  0.4255 -0.2627 -0.0773
 1971SOL    HW2 6813   1.712   0.329   4.541  0.1223 -0.0811 -0.4284
 1972SOL     OW 6814   2.761   0.198   3.473  0.4452  0.7590 -0.6431
 1972SOL    HW1 6815   2.803   0.117   3.432 -3.1421 -0.9430 -1.3076
 1972SOL    HW2 6816   2.793   0.208   3.567  3.0767  0.2945 -1.4207
 1973SOL     OW 6817   2.252   3.313   0.006 -0.2376  0.3169 -0.1226
 1973SOL    HW1 6818   2.333   3.354  -0.035 -0.4812 -0.7816 -1.8239
 1973SOL    HW2 6819   2.230   3.228  -0.042 -0.2731 -1.3629  2.6805
 1974SOL     OW 6820   6.469   6.441   5.780  0.2045  0.5242  0.1912
 1974SOL    HW1 6821   6.438   6.381   5.855 -2.1017  0.6717 -0.5725
 1974SOL    HW2 6822   6.456   6.394   5.693 -0.5573  1.7065 -0.3473
 1975SOL     OW 6823   2.651   6.263   3.309  0.4825  0.6659 -0.1302
 1975SOL    HW1 6824   2.703   6.278   3.392  0.6417 -0.2049 -0.0635
 1975SOL    HW2 6825   2.615   6.170   3.308 -1.8313  1.4947  0.2421
 1976SOL     OW 6826   5.572   4.274   5.224  0.4785  0.1107  0.4091
 1976SOL    HW1 6827   5.561   4.227   5.136 -0.5458  0.9409  0.0698
 1976SOL    HW2 6828   5.647   4.232   5.275  0.7699 -0.7040 -0.6479
 1977SOL     OW 6829   3.247   3.087   4.692  0.2719  0.2885 -0.1513
 1977SOL    HW1 6830   3.279   3.170   4.647  0.8049  0.2727  0.1832
 1977SOL    HW2 6831   3.246   3.012   4.627 -0.6086  0.6441 -0.5603
 1978SOL     OW 6832   6.398   3.398   4.303 -1.0060  0.4579 -0.2175
 1978SOL    HW1 6833   6.477   3.339   4.286 -0.0853  1.7119 -0.4538
 1978SOL    HW2 6834   6.319   3.342   4.328 -0.7306 -1.0111 -2.4234
 1979SOL     OW 6835   0.338   3.837   3.247  0.3243 -0.1725  0.5075
 1979SOL    HW1 6836   0.313   3.872   3.156  2.3930  0.5000  0.1391
 1979SOL    HW2 6837   0.434   3.856   3.264  0.8352 -3.2090  1.5127
 1980SOL     OW 6838   3.335   6.724   0.745  0.2108  0.3258  0.6979
 1980SOL    HW1 6839   3.286   6.801   0.784  0.6572  1.1210 -0.2521
 1980SOL    HW2 6840   3.271   6.650   0.724 -0.0722 -0.0010  2.5878
 1981SOL     OW 6841   5.682   4.384   1.788 -0.1478 -0.3152  0.8121
 1981SOL    HW1 6842   5.622   4.460   1.765 -0.2597 -0.2686  1.2423
 1981SOL    HW2 6843   5.708   4.335   1.705 -2.2648 -1.4713  0.7469
 1982SOL     OW 6844   1.627   0.533   6.450 -0.1408  0.4642 -0.2134
 1982SOL    HW1 6845   1.533   0.538   6.416  0.3487 -0.0775 -1.7677
 1982SOL    HW2 6846   1.688   0.575   6.384  0.9234 -1.0875 -0.2795
 1983SOL     OW 6847   5.751   6.101   0.579 -0.3535 -0.9130  0.5009
 1983SOL    HW1 6848   5.791   6.131   0.665 -0.5521 -0.0405  0.3032
 1983SOL    HW2 6849   5.765   6.172   0.509 -0.5427 -1.4340 -0.0762
 1984SOL     OW 6850   3.386   5.949   6.692  0.9091 -0.3568 -0.3533
 1984SOL    HW1 6851   3.401   5.991   6.603 -1.5426  0.9704 -0.2275
 1984SOL    HW2 6852   3.422   6.008   6.764  2.2671 -1.1042 -0.3791
 1985SOL     OW 6853   2.361   4.687   1.488  0.0800  0.0360 -0.5816
 1985SOL    HW1 6854   2.414   4.649   1.565 -0.7889 -1.0030 -0.4646
 1985SOL    HW2 6855   2.322   4.612   1.435 -0.8703  0.7633 -0.9420
 1986SOL     OW 6856   6.067   2.417   1.897 -0.4485  0.1435 -0.0759
 1986SOL    HW1 6857   6.068   2.381   1.990 -0.0312 -1.4384 -0.6544
 1986SOL    HW2 6858   6.160   2.433   1.865 -0.6219  1.7822  0.1489
 1987SOL     OW 6859   3.153   4.501   6.649  0.0330 -0.1860  0.4054
 1987SOL    HW1 6860   3.088   4.429   6.673  0.2324 -0.8252 -0.8771
 1987SOL    HW2 6861   3.106   4.573   6.599  0.0338  0.0492  0.7464
 1988SOL     OW 6862   3.956   1.663   1.050 -0.2152 -0.5879 -0.2563
 1988SOL    HW1 6863   4.032   1.605   1.078  0.4212  0.0857 -0.5689
 1988SOL    HW2 6864   3.897   1.681   1.129  1.3983  1.0497  0.6304
 1989SOL     OW 6865   3.056   1.921   2.358 -0.5231 -0.6612 -0.6460
 1989SOL    HW1 6866   3.086   1.827   2.339  0.6381 -0.5850  0.6195
 1989SOL    HW2 6867   3.127   1.985   2.329  0.3098 -0.4237  1.7310
 1990SOL     OW 6868   0.456   2.382   0.397  0.6479  0.0788  0.4973
 1990SOL    HW1 6869   0.478   2.463   0.342  0.0501 -0.7861 -1.0812
 1990SOL    HW2 6870   0.477   2.400   0.493 -1.2713  2.8208  0.5127
 1991SOL     OW 6871   5.558   5.575   2.262 -0.2422 -0.0221  0.2597
 1991SOL    HW1 6872   5.621   5.517   2.209  0.3785  2.0776 -1.4421
 1991SOL    HW2 6873   5.606   5.610   2.342  0.4309  0.6669 -0.4250
 1992SOL     OW 6874   2.821   5.605   5.417 -0.1952 -0.2630 -0.3453
 1992SOL    HW1 6875   2.793   5.543   5.491  0.9803 -0.7793 -0.3222
 1992SOL    HW2 6876   2.761   5.593   5.338  0.3511 -1.8370 -0.5418
 1993SOL     OW 6877   3.854   3.649   4.630  0.0719  0.4479 -0.0097
 1993SOL    HW1 6878   3.917   3.709   4.582  0.5271  0.4857  0.6259
 1993SOL    HW2 6879   3.782   3.704   4.672 -2.0604  0.2457 -3.0326
 1994SOL     OW 6880   5.997   0.701   2.901 -0.6968 -0.0067 -0.1367
 1994SOL    HW1 6881   5.980   0.609   2.936 -0.8373  0.4228  0.9800
 1994SOL    HW2 6882   6.004   0.698   2.801 -1.5977 -1.0829 -0.1881
 1995SOL     OW 6883   4.083   1.279   1.839  0.5386 -0.4662  0.1274
 1995SOL    HW1 6884   4.099   1.181   1.828 -0.7617 -0.6712 -0.0572
 1995SOL    HW2 6885   4.139   1.330   1.774  1.0483 -1.0941  0.0699
 1996SOL     OW 6886   1.157   5.401   5.632  0.5719 -0.2830  0.0520
 1996SOL    HW1 6887   1.091   5.401   5.707  0.4408 -2.7081  0.0065
 1996SOL    HW2 6888   1.137   5.478   5.570 -1.7550 -0.5295  0.4105
 1997SOL     OW 6889   5.779   0.233   4.689  0.0893  0.7655  0.3802
 1997SOL    HW1 6890   5.872   0.255   4.716 -0.7448  3.0218  1.6532
 1997SOL    HW2 6891   5.781   0.171   4.610  2.6154 -0.0523  0.9950
 1998SOL     OW 6892   3.745   4.279   6.230  0.6102  0.7941  0.1845
 1998SOL    HW1 6893   3.769   4.275   6.133 -0.8169  0.9752 -0.1994
 1998SOL    HW2 6894   3.809   4.223   6.282  0.7123 -0.2372 -1.0024
 1999SOL     OW 6895   3.094   0.224   2.054 -0.0826 -0.2960  0.1230
 1999SOL    HW1 6896   3.180   0.272   2.072 -0.8229  1.0753  0.1560
 1999SOL    HW2 6897   3.109   0.153   1.985  1.6677 -2.0594  2.1383
 2000SOL     OW 6898   4.614   1.640   3.805  0.1248 -0.1012  0.1960
 2000SOL    HW1 6899   4.605   1.551   3.760 -1.6882  0.4141 -0.5908
 2000SOL    HW2 6900   4.690   1.690   3.764 -0.3844 -0.3456 -1.1055
 2001SOL     OW 6901   2.433   2.848   5.355  0.8961  0.3833 -0.2509
 2001SOL    HW1 6902   2.348   2.804   5.327  1.1443 -0.2410 -0.0550
 2001SOL    HW2 6903   2.449   2.929   5.298  0.4011  0.2512 -0.5883
 2002SOL     OW 6904   1.729   4.262   5.176  0.7041  0.1643  0.4672
 2002SOL    HW1 6905   1.665   4.254   5.252  0.3160 -1.0376  0.0377
 2002SOL    HW2 6906   1.679   4.293   5.095  0.6651 -0.6813  0.1562
 2003SOL     OW 6907   6.330   2.538   2.250 -0.8653  0.0318  0.4822
 2003SOL    HW1 6908   6.404   2.529   2.316  2.3628  0.4910 -2.7936
 2003SOL    HW2 6909   6.305   2.635   2.241 -0.4396  0.1150  0.1745
 2004SOL     OW 6910   5.909   6.215   0.799  0.2408 -0.0463  0.2460
 2004SOL    HW1 6911   6.004   6.245   0.802  0.6518 -1.3890  1.5888
 2004SOL    HW2 6912   5.850   6.289   0.832  0.9701  0.2597  0.9006
 2005SOL     OW 6913   1.905   2.160   4.651  0.1528 -0.2994  0.2708
 2005SOL    HW1 6914   1.848   2.078   4.647  0.7920 -0.8007  1.1903
 2005SOL    HW2 6915   1.907   2.203   4.561  0.2336 -1.5781 -0.3588
 2006SOL     OW 6916   4.919   1.349   3.582 -0.5842 -0.5933 -0.0470
 2006SOL    HW1 6917   4.864   1.300   3.515 -1.3994  1.3151 -0.8307
 2006SOL    HW2 6918   4.969   1.423   3.537  0.5436 -0.6148  1.1118
 2007SOL     OW 6919   0.635   0.379   6.827 -0.2754  0.3398  0.3232
 2007SOL    HW1 6920   0.663   0.370   6.731  0.0956  1.3230  0.3311
 2007SOL    HW2 6921   0.715   0.373   6.886 -0.7024 -2.3819  0.7631
 2008SOL     OW 6922   1.609   6.741   6.547  0.3747  0.0261  0.1125
 2008SOL    HW1 6923   1.544   6.688   6.601  0.2164 -0.1864 -0.2832
 2008SOL    HW2 6924   1.666   6.796   6.608 -2.9035  3.5038  0.4458
 2009SOL     OW 6925   1.546   6.757   1.077  0.5629  0.4892 -0.1925
 2009SOL    HW1 6926   1.474   6.700   1.039 -0.1405  1.2444 -0.0090
 2009SOL    HW2 6927   1.543   6.752   1.177 -0.7919  2.3797 -0.1031
 2010SOL     OW 6928   6.975   1.581   2.267  0.1721  0.0938  0.5021
 2010SOL    HW1 6929   6.893   1.613   2.219 -0.6014 -1.3140  0.8231
 2010SOL    HW2 6930   7.048   1.565   2.200 -0.4028 -0.3881 -0.0296
 2011SOL     OW 6931   0.138   1.127   5.397  0.2367 -0.6396  0.0424
 2011SOL    HW1 6932   0.073   1.083   5.458 -1.2670  0.4631 -0.6969
 2011SOL    HW2 6933   0.089   1.173   5.323  1.9446 -1.3393 -1.6350
 2012SOL     OW 6934   6.524   3.345   1.732  0.1048 -0.2708 -0.0701
 2012SOL    HW1 6935   6.491   3.414   1.667  1.2533 -1.5472 -2.0870
 2012SOL    HW2 6936   6.485   3.364   1.822 -1.6460  1.5064 -1.1156
 2013SOL     OW 6937   4.676   2.903   1.448  0.8533 -1.0527 -0.0308
 2013SOL    HW1 6938   4.690   2.891   1.546  0.0939 -1.4393  0.0381
 2013SOL    HW2 6939   4.757   2.947   1.408  1.4755 -1.5533  0.6362
 2014SOL     OW 6940   3.509   5.330   4.207  0.1442 -1.0349 -0.3149
 2014SOL    HW1 6941   3.549   5.253   4.158  3.2052  0.4550 -0.3742
 2014SOL    HW2 6942   3.447   5.379   4.147  1.5189 -0.9837 -1.7475
 2015SOL     OW 6943   1.333   4.227   1.812 -0.4240  0.8160 -0.0087
 2015SOL    HW1 6944   1.398   4.269   1.875  1.7361 -2.1669 -0.0348
 2015SOL    HW2 6945   1.371   4.228   1.719 -0.5237 -0.6343 -0.0910
 2016SOL     OW 6946   4.988   5.741   4.697 -0.4755  0.2529 -0.7950
 2016SOL    HW1 6947   4.955   5.731   4.792 -0.6514 -1.1235 -0.9694
 2016SOL    HW2 6948   5.079   5.780   4.698 -0.3191 -0.0977 -0.0172
 2017SOL     OW 6949   2.787   5.037   0.950  0.4999  0.1474 -0.1583
 2017SOL    HW1 6950   2.757   4.946   0.921  1.3710 -0.1721 -0.0819
 2017SOL    HW2 6951   2.708   5.089   0.984 -0.2531 -0.0603 -1.5319
 2018SOL     OW 6952   1.128   3.870   5.959  0.2246  0.0309 -0.4099
 2018SOL    HW1 6953   1.093   3.926   6.034  1.8678 -1.7125  1.8052
 2018SOL    HW2 6954   1.213   3.826   5.987 -0.0842 -2.2355 -2.6316
 2019SOL     OW 6955   4.761   1.408   2.530  0.6171 -0.2467 -0.7495
 2019SOL    HW1 6956   4.839   1.369   2.578  1.3946  0.8185 -1.1045
 2019SOL    HW2 6957   4.711   1.336   2.482  0.4640 -1.1589  0.7437
 2020SOL     OW 6958   0.877   3.454   2.763  0.0111  0.9018  0.3433
 2020SOL    HW1 6959   0.897   3.473   2.859  0.0273  0.8898  0.3422
 2020SOL    HW2 6960   0.779   3.434   2.753  0.1585  0.0614  0.4935
 2021SOL     OW 6961   1.889   5.998   1.919 -0.1831 -0.2509  0.7067
 2021SOL    HW1 6962   1.808   6.020   1.973 -0.8253 -1.4152  0.2472
 2021SOL    HW2 6963   1.942   5.928   1.966 -0.1080 -0.3960  0.4078
 2022SOL     OW 6964   2.298   4.826   2.649 -0.5939  0.3327  0.6970
 2022SOL    HW1 6965   2.211   4.804   2.605  0.8443 -0.9119 -1.7359
 2022SOL    HW2 6966   2.330   4.915   2.616 -0.2157  0.0737  0.3609
 2023SOL     OW 6967   6.032   1.925   6.262  0.3446  0.3684 -0.0229
 2023SOL    HW1 6968   6.082   1.952   6.180  2.5486  1.2162  1.4958
 2023SOL    HW2 6969   5.984   1.839   6.246  1.5506 -0.0078 -1.8834
 2024SOL     OW 6970   6.192   0.957   4.190 -0.1294  0.1133  0.0165
 2024SOL    HW1 6971   6.288   0.983   4.193 -0.3440  1.0394 -0.7037
 2024SOL    HW2 6972   6.177   0.892   4.116  0.2670 -1.5515  1.3374
 2025SOL     OW 6973   6.915   6.715   1.368  0.5087  0.6617 -0.2246
 2025SOL    HW1 6974   6.948   6.699   1.275  1.2385  0.4638  0.0582
 2025SOL    HW2 6975   6.982   6.770   1.418  0.6566 -0.1823  0.5241
 2026SOL     OW 6976   2.074   2.664   4.081  0.6602 -1.0677 -1.0157
 2026SOL    HW1 6977   2.012   2.631   4.153 -1.0477  2.4626 -0.6612
 2026SOL    HW2 6978   2.057   2.613   3.997 -1.3580 -1.5465 -0.3902
 2027SOL     OW 6979   1.433   6.235   1.653  0.2841  0.1629  0.2578
 2027SOL    HW1 6980   1.422   6.318   1.599  0.7924  0.0511 -0.0225
 2027SOL    HW2 6981   1.523   6.195   1.636  0.0833 -0.3946  0.4609
 2028SOL     OW 6982   3.718   3.416   4.643  0.5174 -0.3442 -0.5254
 2028SOL    HW1 6983   3.687   3.412   4.548 -0.3497  0.9027 -0.3157
 2028SOL    HW2 6984   3.794   3.480   4.650 -0.9936  1.4549 -0.0040
 2029SOL     OW 6985   2.668   0.819   6.474  0.3668 -0.2710  0.9386
 2029SOL    HW1 6986   2.751   0.816   6.419  0.3289  0.5483  0.8215
 2029SOL    HW2 6987   2.687   0.864   6.561 -0.3763  1.8377  0.0913
 2030SOL     OW 6988   0.471   2.300   1.661 -0.0336  0.2371  0.2291
 2030SOL    HW1 6989   0.416   2.219   1.641 -0.3396  1.0687 -2.9421
 2030SOL    HW2 6990   0.535   2.279   1.735  0.1831 -3.0430 -0.6979
 2031SOL     OW 6991   5.186   6.572   0.349 -0.5012 -0.3417 -0.1742
 2031SOL    HW1 6992   5.121   6.499   0.329 -2.5139  0.5606  2.4453
 2031SOL    HW2 6993   5.152   6.658   0.313  0.4631 -0.1850 -0.7752
 2032SOL     OW 6994   2.950   5.061   2.672 -0.4664  0.3578 -0.3898
 2032SOL    HW1 6995   3.013   5.085   2.598  0.8469  0.4156  0.7004
 2032SOL    HW2 6996   2.976   5.111   2.755 -1.1802 -0.5754  0.4253
 2033SOL     OW 6997   6.755   0.063   0.287 -0.7836 -0.2278 -0.0720
 2033SOL    HW1 6998   6.747   0.161   0.306 -0.7280 -0.3421  0.5812
 2033SOL    HW2 6999   6.673   0.016   0.322 -0.4832 -0.5011  0.2759
 2034SOL     OW 7000   2.249   4.799   3.322 -0.3308 -0.0848  0.6527
 2034SOL    HW1 7001   2.255   4.837   3.230  0.2599  1.6906  1.3919
 2034SOL    HW2 7002   2.166   4.742   3.329 -1.5873  1.5309 -0.3395
 2035SOL     OW 7003   1.167   2.034   2.732 -0.4927 -0.5977  0.2640
 2035SOL    HW1 7004   1.252   2.028   2.784 -1.1647 -2.2309  1.2825
 2035SOL    HW2 7005   1.180   1.997   2.640 -0.3753 -2.0423  0.8376
 2036SOL     OW 7006   1.922   6.258   6.724  0.7903 -0.2681  0.1554
 2036SOL    HW1 7007   1.880   6.192   6.787  0.0457  1.5793  1.6865
 2036SOL    HW2 7008   2.015   6.279   6.756  0.0167  1.5131  1.3667
 2037SOL     OW 7009   6.693   2.720   0.964 -0.4188 -0.0121  0.0644
 2037SOL    HW1 7010   6.667   2.716   0.867  0.1569 -1.9486 -0.0482
 2037SOL    HW2 7011   6.712   2.815   0.989 -1.5755  0.6642 -1.4350
 2038SOL     OW 7012   1.498   1.294   4.371  0.2837  0.3734 -0.4171
 2038SOL    HW1 7013   1.537   1.210   4.409 -0.4954  0.1498 -0.0998
 2038SOL    HW2 7014   1.494   1.364   4.442  1.3847  0.8549 -0.8007
 2039SOL     OW 7015   0.245   5.103   2.289  0.1887  0.4499 -0.4692
 2039SOL    HW1 7016   0.147   5.112   2.273 -0.2791 -0.2361  1.6858
 2039SOL    HW2 7017   0.276   5.014   2.255 -0.2829  0.0036  0.2370
 2040SOL     OW 7018   3.408   3.593   3.959  0.5906 -0.6114  0.0128
 2040SOL    HW1 7019   3.394   3.535   3.879 -0.4512 -0.2264 -0.1029
 2040SOL    HW2 7020   3.475   3.550   4.019  1.3155 -0.9536 -1.0097
 2041SOL     OW 7021   2.621   2.317   2.078 -0.1774  0.2547  0.0022
 2041SOL    HW1 7022   2.584   2.380   2.146 -0.5781  0.2327 -0.1965
 2041SOL    HW2 7023   2.720   2.334   2.069  0.0577 -0.3514  1.2324
 2042SOL     OW 7024   3.626   5.842   6.344 -0.4154  0.2187  0.6893
 2042SOL    HW1 7025   3.538   5.799   6.360 -0.1906 -0.0040  1.3962
 2042SOL    HW2 7026   3.659   5.820   6.252 -0.5492 -0.6907  0.8531
 2043SOL     OW 7027   4.490   6.113   2.598  0.1707  0.0959  0.0641
 2043SOL    HW1 7028   4.578   6.115   2.552 -1.4747 -0.6252 -3.3863
 2043SOL    HW2 7029   4.416   6.107   2.531 -2.5628  0.3351  2.7922
 2044SOL     OW 7030   4.236   1.085   2.529 -0.1340 -0.3023 -0.3672
 2044SOL    HW1 7031   4.158   1.066   2.588  1.2457 -0.5567  1.4570
 2044SOL    HW2 7032   4.255   1.183   2.529  1.5383 -0.5728  1.9088
 2045SOL     OW 7033   3.029   5.954   6.216  0.0570 -0.5570 -0.2882
 2045SOL    HW1 7034   3.087   6.012   6.159  1.3452  0.1733  1.6738
 2045SOL    HW2 7035   3.019   5.864   6.174 -0.2544  0.3840 -2.3487
 2046SOL     OW 7036   4.660   5.583   6.224  0.1196  0.0219 -0.0340
 2046SOL    HW1 7037   4.659   5.505   6.162 -0.4700 -0.5916  0.7243
 2046SOL    HW2 7038   4.658   5.551   6.319  1.0471  0.9433  0.3198
 2047SOL     OW 7039   5.547   3.920   6.968 -0.3398  0.4321 -0.1052
 2047SOL    HW1 7040   5.542   3.954   6.874 -2.2193 -1.1194 -0.6206
 2047SOL    HW2 7041   5.631   3.955   7.011  1.4714 -0.1350 -2.8758
 2048SOL     OW 7042   3.940   0.798   5.713  0.4105 -0.4694  0.8412
 2048SOL    HW1 7043   4.025   0.745   5.705  0.2357 -0.9327  1.8967
 2048SOL    HW2 7044   3.903   0.788   5.806 -0.1296  0.7473  0.7768
 2049SOL     OW 7045   5.429   3.530   6.197 -0.1227 -0.5263 -0.2982
 2049SOL    HW1 7046   5.409   3.602   6.130  1.3095 -0.1736 -0.3949
 2049SOL    HW2 7047   5.520   3.492   6.177 -0.1388 -1.1676  0.8015
 2050SOL     OW 7048   6.955   2.697   3.942 -0.0727 -0.8114  0.1331
 2050SOL    HW1 7049   6.963   2.620   3.880  1.3271 -1.1773  0.7184
 2050SOL    HW2 7050   6.889   2.675   4.014 -0.2783 -1.1377 -0.1521
 2051SOL     OW 7051   2.868   6.362   0.872 -0.5929 -0.4391 -0.5683
 2051SOL    HW1 7052   2.879   6.305   0.954 -0.8775  0.4957  0.1394
 2051SOL    HW2 7053   2.887   6.457   0.895 -0.9444 -0.1256 -1.5339
 2052SOL     OW 7054   2.578   4.115   0.172 -0.6508  0.0689  0.6376
 2052SOL    HW1 7055   2.504   4.159   0.224 -0.4451  0.4347  0.6234
 2052SOL    HW2 7056   2.665   4.133   0.217 -0.6131 -0.7274  0.8960
 2053SOL     OW 7057   4.318   0.872   6.521 -0.1649  0.3409 -0.8993
 2053SOL    HW1 7058   4.393   0.867   6.455 -0.7688 -2.1230 -1.4763
 2053SOL    HW2 7059   4.231   0.862   6.474 -0.6605 -0.6156  0.1686
 2054SOL     OW 7060   0.444   3.711   1.597 -0.0714 -0.3388  0.0766
 2054SOL    HW1 7061   0.496   3.793   1.623  0.0812 -0.5740  0.5268
 2054SOL    HW2 7062   0.499   3.655   1.535  0.5775 -1.0298  1.2549
 2055SOL     OW 7063   6.898   2.665   4.778 -0.6384  0.7986 -0.2992
 2055SOL    HW1 7064   6.921   2.666   4.876  1.1315 -0.2681 -0.6537
 2055SOL    HW2 7065   6.856   2.577   4.755 -0.3587  0.7495 -0.6296
 2056SOL     OW 7066   6.658   0.178   2.212  0.1877  0.1654 -0.2729
 2056SOL    HW1 7067   6.568   0.140   2.234  0.6603 -0.9433 -0.1751
 2056SOL    HW2 7068   6.671   0.177   2.113 -0.7214  2.2971 -0.4589
 2057SOL     OW 7069   5.543   4.297   4.130 -0.6869 -0.8113  0.2086
 2057SOL    HW1 7070   5.615   4.229   4.142  1.5977  1.4497  0.0826
 2057SOL    HW2 7071   5.505   4.290   4.038 -0.7473 -2.0778  0.3051
 2058SOL     OW 7072   0.557   6.157   1.720 -0.7152 -0.4045  1.0205
 2058SOL    HW1 7073   0.649   6.127   1.693 -1.2575 -1.1880 -0.0288
 2058SOL    HW2 7074   0.564   6.244   1.769  0.5030  0.0335  0.1375
 2059SOL     OW 7075   2.156   2.214   6.793  0.0733  0.2275 -0.2202
 2059SOL    HW1 7076   2.076   2.153   6.799  1.0485 -1.3032 -1.7723
 2059SOL    HW2 7077   2.131   2.297   6.743 -0.0953 -1.2251 -2.7216
 2060SOL     OW 7078   0.407   5.906   1.371 -0.3318  0.0399 -0.3312
 2060SOL    HW1 7079   0.345   5.981   1.348 -1.5003 -1.1734 -1.3402
 2060SOL    HW2 7080   0.366   5.850   1.444 -1.3636 -1.7942 -2.2111
 2061SOL     OW 7081   2.297   0.491   0.586 -0.2753 -0.1517 -0.3721
 2061SOL    HW1 7082   2.320   0.419   0.522  1.9424  0.9090 -0.8626
 2061SOL    HW2 7083   2.378   0.517   0.638 -1.2770  1.2164  0.5956
 2062SOL     OW 7084   3.958   1.911   1.685 -0.2024  0.0089 -0.4362
 2062SOL    HW1 7085   3.939   1.983   1.619 -1.6122  0.7365  0.7011
 2062SOL    HW2 7086   4.027   1.943   1.750 -0.4852  0.1706 -0.2117
 2063SOL     OW 7087   1.173   6.757   2.425 -0.0754 -0.4676 -0.6274
 2063SOL    HW1 7088   1.242   6.685   2.434 -0.5224 -0.8427 -0.1597
 2063SOL    HW2 7089   1.159   6.800   2.514 -2.2275 -2.0526 -0.1356
 2064SOL     OW 7090   6.541   2.618   2.791  0.6733  0.1918 -0.4541
 2064SOL    HW1 7091   6.523   2.565   2.874  1.4125 -2.3646 -1.8068
 2064SOL    HW2 7092   6.640   2.632   2.781  0.6190  0.2189 -1.0214
 2065SOL     OW 7093   6.410   3.857   2.823 -0.3980  0.4527 -0.1364
 2065SOL    HW1 7094   6.415   3.758   2.815 -1.3061  0.4135 -0.3707
 2065SOL    HW2 7095   6.435   3.885   2.916  0.1674  0.0318 -0.1624
 2066SOL     OW 7096   2.009   5.889   3.401  0.1227 -0.5832 -0.3340
 2066SOL    HW1 7097   2.008   5.870   3.499 -1.4418 -1.3115 -0.4726
 2066SOL    HW2 7098   1.946   5.828   3.354 -0.5383  0.9836 -1.5687
 2067SOL     OW 7099   6.974   0.783   1.283  0.4719  0.4037  0.1532
 2067SOL    HW1 7100   6.984   0.733   1.197  2.1690  0.7822  0.1060
 2067SOL    HW2 7101   6.997   0.879   1.268 -1.8260  1.0566  0.4565
 2068SOL     OW 7102   1.076   0.759   4.818 -0.4123 -0.0132 -0.4869
 2068SOL    HW1 7103   1.022   0.759   4.734 -1.6636 -0.9276  0.2855
 2068SOL    HW2 7104   1.062   0.673   4.867  0.9943  0.1334  0.2398
 2069SOL     OW 7105   3.388   1.529   3.095 -0.6345  0.4239  0.1441
 2069SOL    HW1 7106   3.358   1.563   3.006  0.2685 -1.4827 -0.9517
 2069SOL    HW2 7107   3.470   1.578   3.125 -1.3305  1.5411  0.2981
 2070SOL     OW 7108   1.215   2.735   1.552 -0.2320  0.5311  0.0285
 2070SOL    HW1 7109   1.141   2.688   1.599 -0.1892  1.5764  1.1933
 2070SOL    HW2 7110   1.208   2.834   1.568  0.0574  0.8841 -1.7942
 2071SOL     OW 7111   2.685   5.282   0.129 -0.4902 -0.7796  0.4140
 2071SOL    HW1 7112   2.674   5.183   0.112  0.1239 -0.4278 -2.7071
 2071SOL    HW2 7113   2.652   5.332   0.049 -0.8005  1.6034  1.9499
 2072SOL     OW 7114   3.894   5.364   1.617  0.2758  0.1326  0.0285
 2072SOL    HW1 7115   3.978   5.393   1.571  0.4042 -1.5963 -0.9063
 2072SOL    HW2 7116   3.879   5.267   1.601 -1.1518  0.0844  1.4031
 2073SOL     OW 7117   2.669   0.283   3.987  0.4272  0.4196 -0.0509
 2073SOL    HW1 7118   2.615   0.367   3.996 -0.6038 -0.1007 -1.0727
 2073SOL    HW2 7119   2.617   0.207   4.024 -0.2299 -0.3333 -2.3663
 2074SOL     OW 7120   5.658   2.363   3.575 -0.4809  0.1720 -0.2166
 2074SOL    HW1 7121   5.701   2.281   3.613  0.0655 -0.1479 -1.4887
 2074SOL    HW2 7122   5.717   2.442   3.592 -0.8971  0.2863  0.8005
 2075SOL     OW 7123   3.626   2.612   5.646  0.1449 -0.1656  0.0141
 2075SOL    HW1 7124   3.576   2.696   5.666 -1.2171 -0.8698 -0.3133
 2075SOL    HW2 7125   3.642   2.561   5.731  1.4259  0.6357  0.2835
 2076SOL     OW 7126   5.795   6.309   0.397 -0.9010  0.0693 -0.3327
 2076SOL    HW1 7127   5.759   6.375   0.463 -1.8354 -1.0506  0.3096
 2076SOL    HW2 7128   5.894   6.322   0.387 -1.0547  1.5112 -0.1914
 2077SOL     OW 7129   4.928   1.392   3.197 -0.0603 -0.2573 -0.0339
 2077SOL    HW1 7130   4.929   1.481   3.151  0.6394 -0.2200  0.0465
 2077SOL    HW2 7131   4.882   1.326   3.138  0.4002 -0.0977 -0.5877
 2078SOL     OW 7132   5.723   0.936   4.855 -0.2640 -0.4738 -0.2205
 2078SOL    HW1 7133   5.819   0.909   4.845 -0.0060 -0.4931  1.8295
 2078SOL    HW2 7134   5.705   1.016   4.799  1.5307  0.7866  0.9158
 2079SOL     OW 7135   6.344   4.953   3.471  0.2439  0.5042  0.4987
 2079SOL    HW1 7136   6.355   4.863   3.513 -1.0566  1.2121  2.5250
 2079SOL    HW2 7137   6.253   4.960   3.429  1.1277  0.1879 -1.5792
 2080SOL     OW 7138   3.961   1.857   3.099  0.4937  0.1460 -0.1218
 2080SOL    HW1 7139   3.902   1.933   3.127  1.4550  1.2022 -0.8970
 2080SOL    HW2 7140   4.041   1.853   3.160 -0.4072 -1.3783  1.0249
 2081SOL     OW 7141   1.503   5.307   3.951  0.0264 -0.6091  0.2793
 2081SOL    HW1 7142   1.467   5.217   3.926 -0.5164 -0.8764  1.8838
 2081SOL    HW2 7143   1.594   5.296   3.992 -0.3948 -0.5505  1.2698
 2082SOL     OW 7144   5.713   1.286   2.027 -0.7286 -0.3494 -0.1275
 2082SOL    HW1 7145   5.734   1.303   1.930 -0.2647  0.6343  0.1305
 2082SOL    HW2 7146   5.731   1.190   2.048 -0.7243 -0.5511 -0.9870
 2083SOL     OW 7147   2.462   5.225   0.280 -0.2125 -0.7780 -0.0941
 2083SOL    HW1 7148   2.417   5.240   0.191 -2.0875  1.0896  1.0726
 2083SOL    HW2 7149   2.558   5.253   0.274 -0.2806 -0.7865 -1.5452
 2084SOL     OW 7150   6.384   2.103   2.880  0.6204 -0.4599  0.6799
 2084SOL    HW1 7151   6.382   2.042   2.801  1.2640 -0.2926  0.5235
 2084SOL    HW2 7152   6.408   2.195   2.850  0.3128 -0.2724  1.0010
 2085SOL     OW 7153   5.684   0.262   0.694 -0.3499 -0.1780  0.4179
 2085SOL    HW1 7154   5.661   0.283   0.599 -0.1494 -2.6793 -0.2519
 2085SOL    HW2 7155   5.783   0.255   0.704 -0.3460  0.5047  0.9351
 2086SOL     OW 7156   1.134   4.306   6.674 -0.0169  0.3147 -0.8305
 2086SOL    HW1 7157   1.124   4.209   6.696  2.2178 -0.1489 -1.6114
 2086SOL    HW2 7158   1.082   4.327   6.591 -0.2567 -0.2948 -0.8384
 2087SOL     OW 7159   6.631   4.688   4.271 -0.2851  0.5043 -0.2117
 2087SOL    HW1 7160   6.654   4.785   4.260 -0.8683  1.1496  3.1199
 2087SOL    HW2 7161   6.540   4.680   4.312 -0.2698 -1.4828 -0.4786
 2088SOL     OW 7162   2.316   1.095   1.516 -0.2789 -0.4265  0.3934
 2088SOL    HW1 7163   2.280   1.152   1.590 -1.1450 -0.5490  0.0710
 2088SOL    HW2 7164   2.243   1.036   1.480 -0.0854  0.2226 -1.1143
 2089SOL     OW 7165   2.335   1.072   6.321 -0.0132  0.2996  0.1680
 2089SOL    HW1 7166   2.396   0.999   6.289  0.3495  1.7455 -2.7397
 2089SOL    HW2 7167   2.387   1.134   6.379  0.3033 -0.4447  0.7063
 2090SOL     OW 7168   3.381   2.954   3.721  0.1450 -0.1445  0.4115
 2090SOL    HW1 7169   3.311   2.964   3.792 -0.3415  0.8820 -0.1934
 2090SOL    HW2 7170   3.339   2.966   3.631  1.3533  2.2462  0.0881
 2091SOL     OW 7171   1.147   4.364   0.660 -0.0263  0.5328  0.1464
 2091SOL    HW1 7172   1.071   4.311   0.697 -0.8852  0.8839 -1.0829
 2091SOL    HW2 7173   1.120   4.460   0.650  0.1922  0.4551 -1.3444
 2092SOL     OW 7174   4.814   6.855   6.937  0.4169  0.2792 -0.1146
 2092SOL    HW1 7175   4.824   6.762   6.973 -1.2335  1.2237  3.1908
 2092SOL    HW2 7176   4.861   6.862   6.849  0.0953 -3.8044 -0.8025
 2093SOL     OW 7177   6.968   1.705   1.224  0.0830  0.5578  0.6551
 2093SOL    HW1 7178   6.897   1.745   1.166 -1.2770  1.8585  3.0633
 2093SOL    HW2 7179   6.972   1.606   1.208  0.8977  0.9971 -2.7027
 2094SOL     OW 7180   6.430   6.830   2.162 -0.5812 -0.1886  0.3259
 2094SOL    HW1 7181   6.520   6.795   2.190 -0.3280 -0.7114 -1.0538
 2094SOL    HW2 7182   6.417   6.922   2.198  0.3464 -0.2588  0.8622
 2095SOL     OW 7183   5.330   4.962   5.584  0.7295 -0.0776 -0.3483
 2095SOL    HW1 7184   5.322   4.908   5.668  1.2642 -0.3941 -0.4950
 2095SOL    HW2 7185   5.424   4.960   5.552  0.6692  0.6104 -0.5873
 2096SOL     OW 7186   6.402   5.556   4.273  0.0199  0.5047  0.1308
 2096SOL    HW1 7187   6.339   5.603   4.334 -1.4917 -0.6659 -0.4653
 2096SOL    HW2 7188   6.364   5.554   4.181  0.4645 -1.0564 -0.0449
 2097SOL     OW 7189   2.186   2.747   6.629 -0.0590  0.5340  0.8440
 2097SOL    HW1 7190   2.093   2.724   6.600 -1.0068  1.4189  2.9441
 2097SOL    HW2 7191   2.206   2.842   6.606  0.0385  0.5598  1.0302
 2098SOL     OW 7192   5.617   1.774   3.868 -0.1474 -0.4063 -0.1833
 2098SOL    HW1 7193   5.674   1.730   3.799  0.4258 -1.5902  1.0058
 2098SOL    HW2 7194   5.574   1.856   3.828 -0.2948 -1.3535 -2.0972
 2099SOL     OW 7195   3.615   1.009   4.823 -0.4358 -0.1919 -0.5965
 2099SOL    HW1 7196   3.527   0.972   4.850 -0.9694  0.0890 -1.8774
 2099SOL    HW2 7197   3.645   0.964   4.738 -1.0112  2.0992 -2.1026
 2100SOL     OW 7198   5.192   5.073   6.018  0.2834  0.0912  0.0009
 2100SOL    HW1 7199   5.267   5.017   5.985 -0.2228 -0.3540 -0.4047
 2100SOL    HW2 7200   5.107   5.020   6.016 -0.1741  0.8214 -0.2487
 2101SOL     OW 7201   4.754   0.426   1.350  0.2331 -0.2755 -0.0747
 2101SOL    HW1 7202   4.733   0.511   1.398 -1.2059  1.2918 -3.2012
 2101SOL    HW2 7203   4.792   0.360   1.415 -0.9775  1.8139  3.0076
 2102SOL     OW 7204   0.660   0.143   0.937  0.2648 -0.0088  0.5573
 2102SOL    HW1 7205   0.614   0.203   0.871  0.8664 -0.3782 -0.2131
 2102SOL    HW2 7206   0.714   0.199   1.000 -0.0432  0.3267  0.5290
 2103SOL     OW 7207   3.258   4.146   6.014 -0.2419  0.6446 -0.0143
 2103SOL    HW1 7208   3.218   4.207   5.945  1.3762  1.9454  0.1420
 2103SOL    HW2 7209   3.257   4.192   6.103  0.7205  0.3194  0.1725
 2104SOL     OW 7210   1.488   4.551   5.801  0.8755 -0.3031 -0.2784
 2104SOL    HW1 7211   1.426   4.584   5.730  0.4543 -1.9416 -0.7218
 2104SOL    HW2 7212   1.538   4.628   5.840 -0.7263  0.9482 -0.5827
 2105SOL     OW 7213   0.602   5.918   2.133 -0.1603 -0.4339  0.1714
 2105SOL    HW1 7214   0.574   5.860   2.057  0.2606  0.3330 -0.5890
 2105SOL    HW2 7215   0.568   6.011   2.117 -0.8424 -0.4529  1.3730
 2106SOL     OW 7216   0.340   5.801   6.529 -0.5101 -0.3179 -0.1550
 2106SOL    HW1 7217   0.267   5.736   6.504 -0.4255  0.0188 -1.3540
 2106SOL    HW2 7218   0.355   5.864   6.453  1.9532 -1.2069 -0.4665
 2107SOL     OW 7219   3.137   4.886   2.236 -0.1207  0.0002 -0.4706
 2107SOL    HW1 7220   3.102   4.839   2.317 -0.5147 -2.0356 -1.7536
 2107SOL    HW2 7221   3.064   4.898   2.170  0.7932 -1.0023 -1.7050
 2108SOL     OW 7222   5.756   5.186   6.011 -0.3067  0.4187 -0.0784
 2108SOL    HW1 7223   5.660   5.160   6.004  0.0871 -0.7929 -1.2760
 2108SOL    HW2 7224   5.765   5.263   6.074 -1.8337 -0.6790  1.5772
 2109SOL     OW 7225   4.878   6.579   3.447  0.4513 -0.0633  0.1841
 2109SOL    HW1 7226   4.872   6.480   3.453  2.2330 -0.2230 -0.1270
 2109SOL    HW2 7227   4.972   6.608   3.463 -0.1131  1.6311  0.7269
 2110SOL     OW 7228   0.539   4.444   6.020 -0.6484 -0.3693  0.0364
 2110SOL    HW1 7229   0.620   4.472   6.072 -0.7527  0.3911 -0.2053
 2110SOL    HW2 7230   0.458   4.488   6.059 -0.7675 -0.0502 -0.5743
 2111SOL     OW 7231   1.789   2.379   5.921 -0.4041 -0.5728  0.1233
 2111SOL    HW1 7232   1.809   2.454   5.858  1.5913 -0.3866  0.8766
 2111SOL    HW2 7233   1.818   2.293   5.880  1.8801 -0.3410  1.0909
 2112SOL     OW 7234   5.941   5.243   6.592  0.0832 -0.4484  0.5600
 2112SOL    HW1 7235   5.924   5.326   6.538 -0.1984 -1.0508 -0.3037
 2112SOL    HW2 7236   6.025   5.199   6.560 -0.2916 -1.0171  0.3408
 2113SOL     OW 7237   5.800   1.342   4.699  0.3977  0.4764  0.1978
 2113SOL    HW1 7238   5.862   1.272   4.665  0.0091 -0.2210  0.8861
 2113SOL    HW2 7239   5.852   1.416   4.741  0.8429  0.9450 -1.1378
 2114SOL     OW 7240   0.913   3.816   6.662 -0.7492  0.0006 -0.2879
 2114SOL    HW1 7241   0.926   3.731   6.611 -1.2825  0.8323 -1.8817
 2114SOL    HW2 7242   0.887   3.890   6.599  1.5510  1.8273  0.7414
 2115SOL     OW 7243   5.038   5.521   1.226  0.0452  0.4006 -0.2163
 2115SOL    HW1 7244   5.116   5.460   1.231 -0.7882 -0.6713  0.0545
 2115SOL    HW2 7245   4.992   5.524   1.315 -0.2017  1.0456 -0.3599
 2116SOL     OW 7246   0.675   3.357   3.469  0.2103  0.1319 -0.4198
 2116SOL    HW1 7247   0.614   3.299   3.415  0.6000 -0.5248 -0.1577
 2116SOL    HW2 7248   0.743   3.399   3.409  0.4151 -0.3062 -0.4925
 2117SOL     OW 7249   0.237   4.552   4.248  0.3410  0.0460 -0.2760
 2117SOL    HW1 7250   0.238   4.606   4.164 -0.6356  2.4514  1.1633
 2117SOL    HW2 7251   0.235   4.455   4.225 -0.2671  0.6230 -3.0037
 2118SOL     OW 7252   6.740   3.224   2.310  0.0554 -0.5322 -0.2242
 2118SOL    HW1 7253   6.739   3.178   2.222  0.1977  0.4361 -0.7516
 2118SOL    HW2 7254   6.663   3.287   2.316  1.1803  0.9557 -0.5412
 2119SOL     OW 7255   4.817   5.505   0.325 -0.2749  0.1697 -0.0030
 2119SOL    HW1 7256   4.776   5.415   0.337 -0.5745  0.4357  1.0858
 2119SOL    HW2 7257   4.744   5.574   0.321 -0.0386  0.3925 -0.6504
 2120SOL     OW 7258   6.616   5.868   1.073  0.3175  0.0058  0.3736
 2120SOL    HW1 7259   6.698   5.823   1.039  1.0888  2.5740 -1.5408
 2120SOL    HW2 7260   6.534   5.818   1.043  1.1038 -0.0021 -1.9199
 2121SOL     OW 7261   1.581   2.731   5.359  0.6319  0.2305  0.0976
 2121SOL    HW1 7262   1.675   2.714   5.389  0.5632  1.4367  1.1075
 2121SOL    HW2 7263   1.579   2.812   5.300 -0.0059  1.6266  1.9193
 2122SOL     OW 7264   4.157   4.926   3.537  0.2544 -0.0829 -0.4823
 2122SOL    HW1 7265   4.168   4.867   3.617 -1.0370  0.0795 -0.1738
 2122SOL    HW2 7266   4.201   5.014   3.554 -0.8851  0.3262  0.4765
 2123SOL     OW 7267   4.453   4.547   4.572 -0.4028 -0.3481 -0.2234
 2123SOL    HW1 7268   4.424   4.595   4.654 -1.1732 -1.4462  0.1617
 2123SOL    HW2 7269   4.498   4.461   4.597 -1.6716 -1.2629 -0.9481
 2124SOL     OW 7270   2.226   3.348   1.486 -0.1654  0.4423 -0.1063
 2124SOL    HW1 7271   2.174   3.278   1.437 -0.6518  0.3302  0.5623
 2124SOL    HW2 7272   2.297   3.303   1.542 -0.3116  0.4963  0.1240
 2125SOL     OW 7273   3.566   6.004   1.433  0.1022 -0.7803  0.0708
 2125SOL    HW1 7274   3.515   5.918   1.425 -1.2697 -0.0376  0.4660
 2125SOL    HW2 7275   3.539   6.065   1.359  0.0360 -0.1795  0.5898
 2126SOL     OW 7276   1.867   1.795   0.421  0.4516  0.2950  0.5892
 2126SOL    HW1 7277   1.818   1.709   0.411  1.0192  0.0781 -0.4172
 2126SOL    HW2 7278   1.811   1.859   0.475  0.5946 -1.1309  2.5195
 2127SOL     OW 7279   5.500   2.892   4.819  0.0612  0.4339  0.6493
 2127SOL    HW1 7280   5.495   2.942   4.733 -1.3472 -0.4293  0.1956
 2127SOL    HW2 7281   5.596   2.871   4.840  0.3450 -2.1345 -2.3961
 2128SOL     OW 7282   0.037   2.289   2.412  0.2008  0.2156  0.0995
 2128SOL    HW1 7283   0.133   2.313   2.398  0.6485 -1.4996  0.0310
 2128SOL    HW2 7284   0.029   2.227   2.489 -0.9249  0.6874  0.3832
 2129SOL     OW 7285   4.022   1.740   5.900 -0.2136  0.1620  0.1683
 2129SOL    HW1 7286   4.101   1.797   5.877 -0.0629 -0.4827 -0.9618
 2129SOL    HW2 7287   4.005   1.746   5.999  0.7863  0.8829  0.3177
 2130SOL     OW 7288   6.106   0.202   2.441  0.0174  0.4964 -0.7757
 2130SOL    HW1 7289   6.131   0.249   2.356  0.0404  1.7030 -0.1176
 2130SOL    HW2 7290   6.157   0.116   2.447  2.3187  1.8060 -0.5721
 2131SOL     OW 7291   4.809   3.379   6.864  0.0362  0.5151  0.2883
 2131SOL    HW1 7292   4.786   3.282   6.877  1.1380  0.2249  0.1900
 2131SOL    HW2 7293   4.873   3.408   6.936  0.4312  0.9151 -0.2182
 2132SOL     OW 7294   2.201   4.505   2.386 -0.2523  0.1259 -0.2863
 2132SOL    HW1 7295   2.182   4.444   2.309  1.9664  0.1884 -0.9749
 2132SOL    HW2 7296   2.172   4.598   2.364 -3.1395 -0.4999  0.5447
 2133SOL     OW 7297   1.895   4.377   5.449  0.3847  0.1195 -0.2692
 2133SOL    HW1 7298   1.965   4.444   5.425 -0.8060  0.9989 -1.4676
 2133SOL    HW2 7299   1.888   4.308   5.377 -0.7404  0.7041 -0.7521
 2134SOL     OW 7300   5.920   1.963   6.897  0.0237  0.6464 -0.2239
 2134SOL    HW1 7301   5.957   2.002   6.813 -1.2248  0.4018 -0.9235
 2134SOL    HW2 7302   5.982   1.893   6.932  0.0897  0.0144 -1.5333
 2135SOL     OW 7303   2.226   4.545   5.074  0.2884  0.0889  0.0673
 2135SOL    HW1 7304   2.261   4.454   5.097 -0.6708 -0.2945  0.0566
 2135SOL    HW2 7305   2.298   4.613   5.086  1.9070 -0.9954 -2.5839
 2136SOL     OW 7306   0.970   5.479   5.794  0.1848  0.4936 -0.2284
 2136SOL    HW1 7307   0.972   5.492   5.894 -0.0566  0.0095 -0.1605
 2136SOL    HW2 7308   0.903   5.409   5.771 -0.4552  1.2765 -0.8097
 2137SOL     OW 7309   1.138   6.572   4.956 -0.2275  0.1610 -0.2282
 2137SOL    HW1 7310   1.181   6.546   4.870  1.0011 -2.8107  1.1515
 2137SOL    HW2 7311   1.203   6.622   5.013 -1.2521  2.7445 -1.1808
 2138SOL     OW 7312   2.944   2.031   1.386 -0.2752 -0.3422 -0.5421
 2138SOL    HW1 7313   2.986   2.118   1.412  0.5885 -1.1275  0.8051
 2138SOL    HW2 7314   2.924   2.031   1.288  1.1923  0.7599 -0.8649
 2139SOL     OW 7315   1.677   5.004   5.688  0.0259 -0.8250  0.0361
 2139SOL    HW1 7316   1.689   4.960   5.599 -0.2635  0.7317 -0.8082
 2139SOL    HW2 7317   1.662   4.934   5.758 -1.9493 -2.0126 -1.4723
 2140SOL     OW 7318   1.311   1.876   2.208  0.3853 -0.3842 -0.2272
 2140SOL    HW1 7319   1.350   1.952   2.156 -0.4548  0.2920  0.1093
 2140SOL    HW2 7320   1.372   1.797   2.202  0.6160 -0.1281 -1.7148
 2141SOL     OW 7321   6.863   3.357   1.661  0.4385  0.0127  0.3070
 2141SOL    HW1 7322   6.892   3.403   1.745  1.4263 -1.6100  0.8862
 2141SOL    HW2 7323   6.807   3.277   1.684  0.5801 -0.3551 -0.5907
 2142SOL     OW 7324   0.039   1.805   2.809  0.2409  0.5695 -0.1946
 2142SOL    HW1 7325  -0.028   1.817   2.882  0.8154 -1.0735  0.6571
 2142SOL    HW2 7326   0.130   1.795   2.849  0.7250  0.7406 -1.2129
 2143SOL     OW 7327   0.589   5.491   6.050 -0.0301 -0.3129 -0.3101
 2143SOL    HW1 7328   0.564   5.395   6.060  0.1984 -0.5260 -1.5829
 2143SOL    HW2 7329   0.652   5.517   6.123 -0.0306 -1.1407 -0.0036
 2144SOL     OW 7330   0.448   6.725   3.982 -0.1973 -0.5163 -0.1501
 2144SOL    HW1 7331   0.515   6.788   4.020 -1.8585  0.4185  1.4042
 2144SOL    HW2 7332   0.424   6.655   4.049  0.2407 -1.7000 -1.1912
 2145SOL     OW 7333   4.405   1.940   2.748  0.6009 -0.7068  0.0458
 2145SOL    HW1 7334   4.480   1.907   2.804  0.6632  0.1760  0.4970
 2145SOL    HW2 7335   4.318   1.917   2.792  0.6529  1.5922  1.5237
 2146SOL     OW 7336   1.587   1.377   5.865 -0.4777  0.8265 -0.7996
 2146SOL    HW1 7337   1.572   1.448   5.934 -2.2084 -0.2468 -0.0222
 2146SOL    HW2 7338   1.568   1.287   5.905  2.8458 -0.2780 -1.3794
 2147SOL     OW 7339   3.746   0.355   4.753 -0.1492  0.4875  0.5312
 2147SOL    HW1 7340   3.670   0.419   4.766 -0.0460  0.6674  0.2602
 2147SOL    HW2 7341   3.763   0.342   4.655 -0.4346 -0.2768  0.5821
 2148SOL     OW 7342   0.024   2.064   3.854 -0.3870 -0.0136  0.2021
 2148SOL    HW1 7343   0.026   2.138   3.921 -0.8150 -0.1861  0.4102
 2148SOL    HW2 7344  -0.062   2.066   3.804 -1.7329 -2.1080  2.2282
 2149SOL     OW 7345   0.760   1.080   6.968  0.1358 -0.0164  0.0676
 2149SOL    HW1 7346   0.666   1.115   6.963  0.0340  0.0916  2.0161
 2149SOL    HW2 7347   0.804   1.090   6.879 -1.7423 -0.2176 -0.9259
 2150SOL     OW 7348   3.007   3.822   2.751  0.2459  0.3099 -0.1396
 2150SOL    HW1 7349   2.975   3.856   2.839  0.7472  0.4268 -0.0035
 2150SOL    HW2 7350   2.946   3.748   2.721 -0.2446  0.6290  0.0414
 2151SOL     OW 7351   6.662   3.767   0.449 -0.1356  0.0101  0.3938
 2151SOL    HW1 7352   6.601   3.749   0.372 -0.3344  0.3650  0.4664
 2151SOL    HW2 7353   6.653   3.694   0.516  0.4887 -0.6168 -0.1966
 2152SOL     OW 7354   6.028   0.298   4.405 -0.4375  0.2602 -0.1428
 2152SOL    HW1 7355   6.098   0.258   4.464 -0.5433  1.3371  0.7599
 2152SOL    HW2 7356   6.042   0.268   4.311  0.2813 -0.7804  0.2770
 2153SOL     OW 7357   6.444   1.532   5.887  0.3904  0.0634 -0.4091
 2153SOL    HW1 7358   6.443   1.632   5.880 -3.2459  0.1224 -0.7658
 2153SOL    HW2 7359   6.463   1.505   5.981 -1.0124  1.2364  0.2486
 2154SOL     OW 7360   1.709   5.500   2.563  0.3426 -0.3806 -0.3356
 2154SOL    HW1 7361   1.632   5.436   2.560  0.8675 -1.1242  1.0356
 2154SOL    HW2 7362   1.783   5.461   2.618  0.7979  1.2833  0.2981
 2155SOL     OW 7363   3.477   5.810   0.493  0.2398  0.3353  0.1036
 2155SOL    HW1 7364   3.389   5.857   0.481  1.3499  2.6959  0.5976
 2155SOL    HW2 7365   3.546   5.854   0.435  1.2203 -1.2122  0.0367
 2156SOL     OW 7366   0.210   6.863   4.753  0.3161 -0.0668  0.1239
 2156SOL    HW1 7367   0.140   6.793   4.741 -0.0835  0.1164  1.2143
 2156SOL    HW2 7368   0.277   6.857   4.680 -0.1444 -1.0784 -0.2277
 2157SOL     OW 7369   4.085   0.423   3.481  0.1469  0.0210  0.1884
 2157SOL    HW1 7370   4.150   0.365   3.530 -0.7686 -0.3713  0.9911
 2157SOL    HW2 7371   4.087   0.515   3.520  1.2498  0.4089 -0.7587
 2158SOL     OW 7372   2.339   4.939   0.092  0.1089  0.3715 -0.2742
 2158SOL    HW1 7373   2.253   4.982   0.118  0.6719  1.0364  0.5267
 2158SOL    HW2 7374   2.321   4.866   0.026 -1.0826  0.3773  0.0233
 2159SOL     OW 7375   6.756   0.845   6.452 -0.5260  0.6680  0.7054
 2159SOL    HW1 7376   6.779   0.879   6.543  0.5702  1.5040  0.1341
 2159SOL    HW2 7377   6.820   0.773   6.426 -0.6238  0.6701  0.4537
 2160SOL     OW 7378   4.179   0.447   6.807  0.4866  0.7381 -0.0106
 2160SOL    HW1 7379   4.158   0.514   6.878 -1.5520  2.1804 -1.8706
 2160SOL    HW2 7380   4.230   0.491   6.733  0.2253 -0.0519 -0.6747
 2161SOL     OW 7381   1.458   2.562   6.735  0.6575 -0.3042 -0.0731
 2161SOL    HW1 7382   1.440   2.545   6.832 -2.3893 -0.8222 -0.6109
 2161SOL    HW2 7383   1.467   2.661   6.720 -1.1528 -0.0166  0.4806
 2162SOL     OW 7384   1.687   4.582   0.723 -0.2301  0.1670  0.4567
 2162SOL    HW1 7385   1.683   4.531   0.810 -0.7295  0.6135  0.7003
 2162SOL    HW2 7386   1.666   4.678   0.740 -0.1027  0.3016 -0.1320
 2163SOL     OW 7387   0.656   3.815   3.678 -0.0203 -0.6327 -0.4338
 2163SOL    HW1 7388   0.639   3.721   3.651 -1.0556 -0.2755 -1.0683
 2163SOL    HW2 7389   0.752   3.825   3.705  0.0431 -1.9013 -0.1526
 2164SOL     OW 7390   2.122   4.032   0.737 -0.5214  0.1720  0.4924
 2164SOL    HW1 7391   2.173   3.971   0.676  1.0209  0.6586  1.2158
 2164SOL    HW2 7392   2.101   4.118   0.689  0.8220  0.6161  0.6464
 2165SOL     OW 7393   0.065   0.950   5.946  0.2361  0.7023 -0.0403
 2165SOL    HW1 7394   0.117   0.947   5.861 -0.4249 -1.1897 -0.4141
 2165SOL    HW2 7395   0.036   0.858   5.972  0.2449  1.2417  2.1456
 2166SOL     OW 7396   0.963   1.969   1.157  0.2268  0.3918 -0.3458
 2166SOL    HW1 7397   0.895   2.041   1.143  0.6875  1.0532  0.7519
 2166SOL    HW2 7398   1.055   2.008   1.150  0.4932 -0.2895 -0.7461
 2167SOL     OW 7399   1.688   3.911   1.393  0.4264  0.4507  0.0284
 2167SOL    HW1 7400   1.689   3.965   1.308  1.3184  1.3965  0.6211
 2167SOL    HW2 7401   1.599   3.865   1.401 -0.0637  1.1715 -0.9038
 2168SOL     OW 7402   2.489   1.715   4.604 -0.6011 -0.2122 -0.0607
 2168SOL    HW1 7403   2.412   1.757   4.556 -0.4460  0.8411  0.5831
 2168SOL    HW2 7404   2.573   1.762   4.577  0.1642 -2.6587 -2.3460
 2169SOL     OW 7405   6.302   0.373   3.070  0.1357 -0.0822  0.9076
 2169SOL    HW1 7406   6.265   0.446   3.127 -0.4800 -0.2691  0.7530
 2169SOL    HW2 7407   6.399   0.361   3.089  0.3062  0.9632  0.7382
 2170SOL     OW 7408   1.121   2.127   5.434  0.0639  0.6303 -0.1203
 2170SOL    HW1 7409   1.173   2.154   5.353 -1.1083  2.4866 -0.2983
 2170SOL    HW2 7410   1.044   2.070   5.406  0.1536  0.5529 -0.2128
 2171SOL     OW 7411   6.319   0.240   6.821  0.3621  0.0275  0.2604
 2171SOL    HW1 7412   6.226   0.226   6.787  0.5490 -0.4287 -0.0821
 2171SOL    HW2 7413   6.325   0.205   6.915 -0.0445  0.8955  0.6193
 2172SOL     OW 7414   2.476   2.318   6.305 -0.4535  0.2493 -0.1053
 2172SOL    HW1 7415   2.389   2.332   6.352  0.4874  1.7160  1.3093
 2172SOL    HW2 7416   2.523   2.405   6.295 -0.4181 -0.0219 -3.5612
 2173SOL     OW 7417   5.321   1.685   4.660 -0.6974  0.2953  0.2120
 2173SOL    HW1 7418   5.412   1.647   4.674 -0.9317 -1.0273 -1.5301
 2173SOL    HW2 7419   5.278   1.704   4.748  1.6179  1.9338  1.0780
 2174SOL     OW 7420   3.223   6.796   5.034 -0.1476 -0.2454  0.3769
 2174SOL    HW1 7421   3.158   6.859   4.992 -0.1748 -0.1956  0.4928
 2174SOL    HW2 7422   3.172   6.726   5.085 -0.1004  0.4479  1.4229
 2175SOL     OW 7423   5.017   3.682   5.199  0.5448 -0.2664  0.0180
 2175SOL    HW1 7424   4.946   3.640   5.142  0.0412  0.8599 -0.2076
 2175SOL    HW2 7425   4.974   3.741   5.267  1.2129 -0.6137  0.7535
 2176SOL     OW 7426   0.030   0.600   1.044 -0.2220  0.1979  0.1471
 2176SOL    HW1 7427   0.096   0.539   1.089 -0.3343  0.3035  0.4591
 2176SOL    HW2 7428   0.050   0.605   0.946 -1.1893 -1.6314 -0.1910
 2177SOL     OW 7429   0.247   1.675   6.275  0.2683  0.2482 -0.0782
 2177SOL    HW1 7430   0.203   1.691   6.363  2.1656  2.2069  0.5977
 2177SOL    HW2 7431   0.226   1.750   6.213 -1.3081 -1.2653 -1.4831
 2178SOL     OW 7432   2.148   2.464   2.165 -0.1159  0.1874  0.7237
 2178SOL    HW1 7433   2.221   2.398   2.145  0.7692  1.4541 -0.3342
 2178SOL    HW2 7434   2.060   2.417   2.159  0.4351 -0.7576 -0.8400
 2179SOL     OW 7435   2.152   4.326   1.686 -0.3732 -0.2660  0.1566
 2179SOL    HW1 7436   2.184   4.363   1.599  1.6107  0.0019  0.9281
 2179SOL    HW2 7437   2.084   4.254   1.670  1.3993 -1.6413 -1.7217
 2180SOL     OW 7438   0.690   6.503   3.344 -0.5291  0.3810 -0.1184
 2180SOL    HW1 7439   0.673   6.586   3.397 -0.0837  0.9880 -0.9028
 2180SOL    HW2 7440   0.734   6.527   3.258 -0.9831 -0.6143 -0.6444
 2181SOL     OW 7441   5.359   5.175   4.618 -0.0159 -0.2346 -0.5359
 2181SOL    HW1 7442   5.355   5.075   4.608  0.1735 -0.1779 -1.2089
 2181SOL    HW2 7443   5.440   5.200   4.671 -0.7376 -0.5092  0.7349
 2182SOL     OW 7444   4.558   0.379   1.157 -0.3098  0.2298 -0.7038
 2182SOL    HW1 7445   4.582   0.296   1.105 -0.5717 -0.9937  1.0400
 2182SOL    HW2 7446   4.631   0.399   1.222 -2.0799 -1.1873  1.8670
 2183SOL     OW 7447   3.070   2.747   5.664 -0.5909 -0.2777 -0.5271
 2183SOL    HW1 7448   2.983   2.701   5.645 -0.6233 -1.1256  1.4945
 2183SOL    HW2 7449   3.136   2.681   5.697  0.2529  0.6825 -0.2469
 2184SOL     OW 7450   5.958   2.032   0.667  0.2525 -0.6229 -0.3321
 2184SOL    HW1 7451   5.977   2.031   0.569  0.3786 -1.1595 -0.3072
 2184SOL    HW2 7452   5.956   1.938   0.701  1.3254 -0.3986  0.3960
 2185SOL     OW 7453   6.476   1.390   0.739  0.0969  0.5118  0.2253
 2185SOL    HW1 7454   6.448   1.312   0.684  2.0393  0.6291 -1.0411
 2185SOL    HW2 7455   6.456   1.475   0.690  0.4952  0.6815  0.3513
 2186SOL     OW 7456   0.971   6.924   5.801  0.6259  0.2811 -0.3353
 2186SOL    HW1 7457   0.891   6.939   5.743 -0.8395 -0.8374  1.2745
 2186SOL    HW2 7458   1.013   6.836   5.778  0.7124  0.3547 -0.4545
 2187SOL     OW 7459   0.041   3.905   2.908 -0.8656  0.3024 -0.0827
 2187SOL    HW1 7460   0.003   3.850   2.833  0.2242 -1.2739  0.4761
 2187SOL    HW2 7461   0.001   3.874   2.995  2.2982 -2.2065  0.6817
 2188SOL     OW 7462   3.943   2.094   1.486 -0.0213  0.0624  0.0990
 2188SOL    HW1 7463   3.913   2.159   1.416  1.6607  1.4208  0.5837
 2188SOL    HW2 7464   4.041   2.104   1.501 -0.2366 -0.6156  2.2408
 2189SOL     OW 7465   2.898   0.621   2.255  0.7110 -0.4652  0.1285
 2189SOL    HW1 7466   2.803   0.651   2.262  0.4659 -0.5472 -2.0811
 2189SOL    HW2 7467   2.913   0.545   2.318 -1.1322 -1.4366 -0.5144
 2190SOL     OW 7468   6.495   4.683   1.968 -0.2043  0.9343  0.1294
 2190SOL    HW1 7469   6.585   4.689   1.926 -0.2755  0.8085 -0.0421
 2190SOL    HW2 7470   6.447   4.602   1.933 -1.5327  2.5363 -2.0254
 2191SOL     OW 7471   4.380   0.352   5.684  1.1240 -0.6118  0.2147
 2191SOL    HW1 7472   4.412   0.426   5.743  2.2953 -1.0781  0.1904
 2191SOL    HW2 7473   4.346   0.277   5.741 -0.4978  0.1076  0.2335
 2192SOL     OW 7474   3.437   1.435   2.589 -0.5486  0.5046  0.1219
 2192SOL    HW1 7475   3.500   1.413   2.664 -0.3766  3.1144  0.8330
 2192SOL    HW2 7476   3.490   1.454   2.506 -0.6427 -0.5848 -0.2087
 2193SOL     OW 7477   1.879   6.648   0.081 -0.2831  0.3288 -0.0826
 2193SOL    HW1 7478   1.975   6.631   0.101 -0.0239 -1.0510 -2.2215
 2193SOL    HW2 7479   1.821   6.585   0.133 -0.0987  1.4046  1.4849
 2194SOL     OW 7480   6.952   5.179   6.853  0.2652 -0.3591 -0.1407
 2194SOL    HW1 7481   6.907   5.109   6.908 -0.8064  0.4765  0.0739
 2194SOL    HW2 7482   6.999   5.243   6.914  0.5859 -0.4446 -0.2970
 2195SOL     OW 7483   0.730   3.400   5.286 -0.9903  0.8291 -0.2200
 2195SOL    HW1 7484   0.772   3.432   5.371  2.2493  1.0175 -1.7656
 2195SOL    HW2 7485   0.686   3.478   5.240 -0.9754  1.1479  0.2954
 2196SOL     OW 7486   4.056   6.798   4.975  0.2635 -0.2199  0.6255
 2196SOL    HW1 7487   4.097   6.779   4.886  0.9561  0.1025  0.8704
 2196SOL    HW2 7488   4.100   6.742   5.045  1.4257  1.2581  1.1403
 2197SOL     OW 7489   3.471   5.700   5.647 -0.2786 -0.4473 -0.1452
 2197SOL    HW1 7490   3.427   5.645   5.576 -0.0943 -0.9633  0.1346
 2197SOL    HW2 7491   3.404   5.727   5.715  0.0462 -2.3607  0.9978
 2198SOL     OW 7492   1.064   2.464   5.390  0.0633  0.7777 -0.2002
 2198SOL    HW1 7493   1.010   2.504   5.464 -1.7150 -1.3184 -0.2442
 2198SOL    HW2 7494   1.003   2.436   5.316  1.3328 -0.6469 -0.7662
 2199SOL     OW 7495   5.514   1.252   3.585  0.3744  0.0284  0.1301
 2199SOL    HW1 7496   5.528   1.248   3.684 -1.1618 -2.2581  0.3220
 2199SOL    HW2 7497   5.602   1.241   3.539  0.7590 -2.8175  1.2930
 2200SOL     OW 7498   3.023   1.780   3.169  0.2479 -0.1606  0.1827
 2200SOL    HW1 7499   3.069   1.849   3.225 -0.7698  0.4425  0.2990
 2200SOL    HW2 7500   2.944   1.744   3.219 -1.2313  1.0501 -1.1692
 2201SOL     OW 7501   0.120   3.230   4.101 -0.1884  0.4763  0.3373
 2201SOL    HW1 7502   0.168   3.294   4.041 -0.9269  1.3457  0.6697
 2201SOL    HW2 7503   0.127   3.138   4.062  0.6290  0.7860 -0.2919
 2202SOL     OW 7504   3.555   1.404   3.863  0.3113  0.2553 -0.3845
 2202SOL    HW1 7505   3.561   1.495   3.822 -0.4723  0.4409 -0.1156
 2202SOL    HW2 7506   3.475   1.400   3.924  1.5272  0.0555  1.2802
 2203SOL     OW 7507   1.401   5.409   0.135  0.2832  0.8273 -0.2864
 2203SOL    HW1 7508   1.487   5.389   0.183  0.8496  0.3595 -1.4766
 2203SOL    HW2 7509   1.326   5.408   0.201  1.0676  0.3706  0.6267
 2204SOL     OW 7510   4.872   4.620   6.353  0.1045  0.0394 -0.2571
 2204SOL    HW1 7511   4.889   4.523   6.370  1.3329  0.1554 -0.7559
 2204SOL    HW2 7512   4.915   4.674   6.425  0.7797  0.2832 -0.8404
 2205SOL     OW 7513   6.284   6.341   1.388 -0.6567 -0.0067  0.5422
 2205SOL    HW1 7514   6.253   6.247   1.400  0.4614 -0.4913 -0.2181
 2205SOL    HW2 7515   6.368   6.356   1.441  0.4504 -0.1430 -1.1029
 2206SOL     OW 7516   2.355   2.845   6.219  0.1311 -0.0804  0.4167
 2206SOL    HW1 7517   2.440   2.898   6.221 -0.0479  0.2222 -0.0198
 2206SOL    HW2 7518   2.298   2.875   6.143 -0.0412 -0.8013  0.2497
 2207SOL     OW 7519   3.620   5.213   0.302  0.2204 -0.0888 -0.0679
 2207SOL    HW1 7520   3.646   5.166   0.386 -1.0610 -0.2573  0.2579
 2207SOL    HW2 7521   3.624   5.148   0.225 -0.4274 -0.4467  0.1891
 2208SOL     OW 7522   1.067   6.641   3.170 -0.3366  0.2401  0.6918
 2208SOL    HW1 7523   1.078   6.544   3.190 -1.1281 -0.4987 -2.0213
 2208SOL    HW2 7524   1.113   6.664   3.085  0.1997  2.3848  1.4813
 2209SOL     OW 7525   2.763   5.897   3.185  0.6641 -0.5694 -0.0961
 2209SOL    HW1 7526   2.770   5.925   3.089 -1.1338 -2.0456 -0.7194
 2209SOL    HW2 7527   2.848   5.919   3.233  1.7569 -0.1747 -2.1184
 2210SOL     OW 7528   5.722   6.501   1.948  0.1839 -0.4178  0.2230
 2210SOL    HW1 7529   5.765   6.420   1.988  0.0876 -0.2101  0.7509
 2210SOL    HW2 7530   5.724   6.576   2.014  0.7865  0.1844 -0.4662
 2211SOL     OW 7531   0.218   1.126   0.515 -0.3515  0.2798  0.2173
 2211SOL    HW1 7532   0.207   1.112   0.416 -0.3261 -0.4119  0.3128
 2211SOL    HW2 7533   0.144   1.186   0.548 -0.4805  0.3456 -0.1795
 2212SOL     OW 7534   2.748   5.889   6.538 -0.1219  0.2648  0.1495
 2212SOL    HW1 7535   2.682   5.845   6.476 -0.5221  0.4224  0.4567
 2212SOL    HW2 7536   2.712   5.977   6.569 -0.4472 -0.3059  1.4866
 2213SOL     OW 7537   3.707   2.109   3.948 -0.4785  0.0425 -0.9295
 2213SOL    HW1 7538   3.643   2.079   3.876  0.1014  1.6967 -2.1822
 2213SOL    HW2 7539   3.658   2.115   4.035 -1.9793  0.9839 -1.8023
 2214SOL     OW 7540   3.659   5.129   4.520 -0.0727  0.1753  0.1432
 2214SOL    HW1 7541   3.585   5.075   4.482  0.1853 -0.2119  0.1896
 2214SOL    HW2 7542   3.628   5.176   4.602 -0.4543  0.5302 -0.2009
 2215SOL     OW 7543   5.023   5.293   6.493  0.3787 -0.4417  0.0218
 2215SOL    HW1 7544   4.958   5.274   6.419  0.9238 -2.5673  0.0227
 2215SOL    HW2 7545   5.072   5.378   6.473 -2.3663  1.2604  0.0515
 2216SOL     OW 7546   6.398   6.653   0.009  0.3435 -0.9055 -0.1189
 2216SOL    HW1 7547   6.334   6.633   0.083  0.3888 -1.9257 -0.3479
 2216SOL    HW2 7548   6.356   6.720  -0.053  0.3944  0.1196  0.9304
 2217SOL     OW 7549   5.121   2.857   2.297  0.0441  0.5960 -0.5571
 2217SOL    HW1 7550   5.147   2.889   2.206 -2.2621  0.4480 -1.3321
 2217SOL    HW2 7551   5.066   2.773   2.289 -1.6032  1.4646  0.8144
 2218SOL     OW 7552   5.773   5.878   4.972  0.5240  0.3606  0.8391
 2218SOL    HW1 7553   5.675   5.870   4.985  0.6185  0.6350  1.7961
 2218SOL    HW2 7554   5.815   5.787   4.971  0.2093  0.2165 -0.0904
 2219SOL     OW 7555   5.834   2.566   6.494  0.3766  0.0114 -0.3375
 2219SOL    HW1 7556   5.767   2.637   6.517  1.3883  0.8297  0.1547
 2219SOL    HW2 7557   5.888   2.595   6.416  1.8005  0.4846  0.7859
 2220SOL     OW 7558   6.644   5.892   5.557 -0.3103 -0.9261  0.2045
 2220SOL    HW1 7559   6.620   5.839   5.639  0.0471 -2.5179 -0.6847
 2220SOL    HW2 7560   6.566   5.892   5.494 -0.8934  1.0064  0.8496
 2221SOL     OW 7561   5.065   1.651   4.320 -0.3080 -0.0162  0.5263
 2221SOL    HW1 7562   5.085   1.610   4.409 -0.6126 -2.8441 -0.6116
 2221SOL    HW2 7563   4.990   1.601   4.277  1.6517 -0.5975 -2.4740
 2222SOL     OW 7564   4.627   2.212   5.990 -0.1665 -0.3072  0.3247
 2222SOL    HW1 7565   4.655   2.235   5.897  0.6207 -0.1303  0.5955
 2222SOL    HW2 7566   4.652   2.287   6.052 -0.6007 -0.4587  0.6898
 2223SOL     OW 7567   0.595   6.932   4.343 -0.1367 -0.7501 -0.6640
 2223SOL    HW1 7568   0.641   7.017   4.367 -0.0257 -0.7116 -1.0092
 2223SOL    HW2 7569   0.632   6.896   4.258 -2.3607  0.5837 -2.3298
 2224SOL     OW 7570   5.064   4.078   1.488  0.2610 -0.0628  0.8239
 2224SOL    HW1 7571   5.125   4.120   1.421  0.3328  1.1713  1.6491
 2224SOL    HW2 7572   4.970   4.109   1.473 -0.0613 -1.2817  0.1123
 2225SOL     OW 7573   0.120   0.735   0.308 -0.2304 -0.6236  0.0935
 2225SOL    HW1 7574   0.037   0.780   0.341 -0.4731 -0.1782 -1.1024
 2225SOL    HW2 7575   0.109   0.709   0.212  1.5563  0.8071 -0.5435
 2226SOL     OW 7576   1.764   3.043   4.970  0.0705  0.1695 -0.6741
 2226SOL    HW1 7577   1.788   3.139   4.986 -0.3626  0.3814 -1.2380
 2226SOL    HW2 7578   1.696   3.038   4.897  0.0923 -0.5725 -0.6501
 2227SOL     OW 7579   5.466   1.185   1.961 -0.6547 -0.9583 -0.5189
 2227SOL    HW1 7580   5.510   1.109   1.914 -0.7692 -0.3817 -1.5844
 2227SOL    HW2 7581   5.536   1.239   2.008 -0.5783 -1.7273  0.2858
 2228SOL     OW 7582   4.792   1.065   6.214  0.1341 -0.2349 -0.0419
 2228SOL    HW1 7583   4.881   1.021   6.227  0.6494  0.7874 -0.0904
 2228SOL    HW2 7584   4.799   1.162   6.234 -1.0115 -0.1668  0.0828
 2229SOL     OW 7585   3.185   1.622   5.441  0.4251 -0.4693 -0.7362
 2229SOL    HW1 7586   3.261   1.576   5.485 -0.2695  0.4511  1.5940
 2229SOL    HW2 7587   3.171   1.711   5.483 -1.0651 -0.0143 -2.0729
 2230SOL     OW 7588   5.616   1.984   5.602  0.0861 -0.2670 -0.3167
 2230SOL    HW1 7589   5.637   2.039   5.682 -0.6468  0.3345 -0.5298
 2230SOL    HW2 7590   5.616   2.042   5.520 -1.1130 -0.4780 -0.4896
 2231SOL     OW 7591   0.247   1.227   6.134  0.5776 -0.3370  0.2639
 2231SOL    HW1 7592   0.198   1.311   6.108  1.1281  0.2519  1.0573
 2231SOL    HW2 7593   0.181   1.154   6.150 -0.1847  0.7505  2.4479
 2232SOL     OW 7594   2.053   6.014   6.995  0.1847  0.0886 -0.1872
 2232SOL    HW1 7595   2.006   5.945   6.939 -1.7135  0.9715  0.2708
 2232SOL    HW2 7596   2.054   5.985   7.090 -1.2602  0.9707  0.1262
 2233SOL     OW 7597   4.194   5.898   1.472  0.1008  0.4506  0.4812
 2233SOL    HW1 7598   4.287   5.908   1.507  0.3331 -0.8813  0.3014
 2233SOL    HW2 7599   4.144   5.834   1.530 -0.1165 -0.2750 -0.5001
 2234SOL     OW 7600   5.015   2.271   2.184  0.6391  0.0532  0.0527
 2234SOL    HW1 7601   4.982   2.275   2.090  0.7252  0.9947  0.0548
 2234SOL    HW2 7602   4.938   2.274   2.247  0.5803 -0.5936  0.0201
 2235SOL     OW 7603   1.520   3.043   2.806 -0.1454  0.4193 -0.5653
 2235SOL    HW1 7604   1.430   3.012   2.778  0.0058 -0.7547  0.1672
 2235SOL    HW2 7605   1.588   2.972   2.787  0.6586  1.3446 -1.2497
 2236SOL     OW 7606   2.120   4.763   4.363 -0.5332 -0.1959 -1.2961
 2236SOL    HW1 7607   2.040   4.823   4.368 -0.3593 -0.0784  1.9437
 2236SOL    HW2 7608   2.199   4.816   4.331 -0.4138  1.3981  1.3592
 2237SOL     OW 7609   6.487   1.437   6.297 -0.4407  0.1322  0.6133
 2237SOL    HW1 7610   6.500   1.362   6.231 -0.4108  0.7769 -0.1270
 2237SOL    HW2 7611   6.575   1.480   6.315 -0.7899  1.5908 -0.9141
 2238SOL     OW 7612   5.848   4.844   2.869 -0.3331 -0.0466  0.2088
 2238SOL    HW1 7613   5.787   4.768   2.849  0.4668 -1.0195  1.3358
 2238SOL    HW2 7614   5.926   4.842   2.806  0.2551 -0.8522  0.9360
 2239SOL     OW 7615   4.593   1.128   4.207 -0.1923 -0.2338  0.7302
 2239SOL    HW1 7616   4.543   1.204   4.166  0.2667  0.0501  0.6957
 2239SOL    HW2 7617   4.564   1.042   4.165 -0.1455  0.0017  0.2153
 2240SOL     OW 7618   4.270   0.011   1.740  0.3234 -0.1812 -0.4013
 2240SOL    HW1 7619   4.369   0.005   1.733  0.6373  0.3664  2.4509
 2240SOL    HW2 7620   4.241   0.106   1.738 -0.2167 -0.3572 -1.6907
 2241SOL     OW 7621   0.599   0.958   3.769  0.2773 -0.0088 -0.2799
 2241SOL    HW1 7622   0.594   0.955   3.669 -0.9098  0.2233 -0.2448
 2241SOL    HW2 7623   0.549   1.037   3.803 -1.1592 -1.2307  0.5882
 2242SOL     OW 7624   0.668   2.523   3.516  0.2583 -0.7463 -0.4576
 2242SOL    HW1 7625   0.665   2.555   3.611 -2.4144 -2.0346 -0.0261
 2242SOL    HW2 7626   0.597   2.569   3.463  1.9607  0.2499 -2.0308
 2243SOL     OW 7627   1.501   6.777   0.615 -0.0754  0.2475  0.2135
 2243SOL    HW1 7628   1.574   6.782   0.683  1.5999 -0.1964 -1.4570
 2243SOL    HW2 7629   1.431   6.845   0.636  0.7466  0.6114  1.9491
 2244SOL     OW 7630   3.102   5.596   1.220 -0.1920  0.0826  0.7274
 2244SOL    HW1 7631   3.196   5.629   1.215  0.0574 -0.5458  1.1622
 2244SOL    HW2 7632   3.069   5.605   1.314 -0.9201  1.2275  0.3927
 2245SOL     OW 7633   6.477   0.605   1.427  0.1162  0.6786 -0.1237
 2245SOL    HW1 7634   6.465   0.543   1.349  1.1217  0.4602 -0.1167
 2245SOL    HW2 7635   6.455   0.698   1.400  1.2048  0.7223 -0.8953
 2246SOL     OW 7636   5.379   6.540   6.064 -0.0149 -0.7873 -0.3267
 2246SOL    HW1 7637   5.286   6.534   6.028 -0.4231  0.4916  0.4601
 2246SOL    HW2 7638   5.427   6.616   6.019  0.2679 -0.7128  0.0976
 2247SOL     OW 7639   5.096   4.557   0.129  0.5743  0.0159  0.2767
 2247SOL    HW1 7640   5.048   4.644   0.127  0.9424  0.2278  0.5377
 2247SOL    HW2 7641   5.180   4.566   0.183 -0.3590 -0.9892  1.9881
 2248SOL     OW 7642   4.642   2.511   4.326  0.4217 -0.1488 -0.2789
 2248SOL    HW1 7643   4.691   2.424   4.321  0.9135  0.1747 -1.4056
 2248SOL    HW2 7644   4.649   2.559   4.238 -2.2165 -0.2283 -0.6138
 2249SOL     OW 7645   1.941   3.814   4.241 -0.4158 -0.1663  0.5691
 2249SOL    HW1 7646   2.007   3.852   4.176 -0.9467 -0.2107 -0.0032
 2249SOL    HW2 7647   1.974   3.725   4.273 -1.2921 -1.2969 -1.5184
 2250SOL     OW 7648   5.160   4.695   5.033 -0.2181 -0.2309 -0.0228
 2250SOL    HW1 7649   5.239   4.702   5.094 -1.0802  2.1724  0.9343
 2250SOL    HW2 7650   5.096   4.626   5.068  1.0563 -1.7057 -0.4437
 2251SOL     OW 7651   3.391   0.721   3.262  0.0753  0.2860 -0.1037
 2251SOL    HW1 7652   3.371   0.731   3.164  1.1476  0.7199 -0.2897
 2251SOL    HW2 7653   3.425   0.808   3.298  1.0528 -0.2574  0.3191
 2252SOL     OW 7654   2.977   2.252   3.543  0.5030  0.0478 -0.5611
 2252SOL    HW1 7655   3.027   2.244   3.456  1.6805  0.3861  0.0610
 2252SOL    HW2 7656   2.908   2.324   3.536  0.8656  0.3459 -1.0918
 2253SOL     OW 7657   0.253   1.371   2.150  0.3141 -0.6832  0.6621
 2253SOL    HW1 7658   0.289   1.279   2.159 -2.3764 -1.7324  1.9980
 2253SOL    HW2 7659   0.263   1.419   2.238  2.7746  0.8351 -0.3367
 2254SOL     OW 7660   3.374   4.029   1.583  0.1871  0.1096  0.3848
 2254SOL    HW1 7661   3.331   3.946   1.545  1.5195  0.2566 -1.5863
 2254SOL    HW2 7662   3.400   4.012   1.678  0.3532 -1.7355  0.0598
 2255SOL     OW 7663   2.606   2.557   5.339  0.3743  0.7705 -0.6989
 2255SOL    HW1 7664   2.520   2.605   5.327 -0.0255  0.3433  0.3924
 2255SOL    HW2 7665   2.681   2.623   5.339 -0.1689  1.4199  0.8878
 2256SOL     OW 7666   4.025   0.259   2.028 -0.0711 -0.4864  0.1023
 2256SOL    HW1 7667   3.990   0.181   1.975 -0.4573  0.4784 -1.1267
 2256SOL    HW2 7668   4.116   0.284   1.995  0.0558 -0.4245  0.4945
 2257SOL     OW 7669   0.900   1.687   0.573 -0.6854  0.6095  0.3995
 2257SOL    HW1 7670   0.893   1.587   0.567 -0.0878  0.6015 -0.2530
 2257SOL    HW2 7671   0.810   1.727   0.557 -0.5021  0.2573 -1.8833
 2258SOL     OW 7672   2.180   6.780   1.019  0.2473  0.3473  0.8318
 2258SOL    HW1 7673   2.083   6.792   0.999  0.9016  4.2069 -0.9669
 2258SOL    HW2 7674   2.202   6.820   1.108  0.3032 -0.0593  1.0052
 2259SOL     OW 7675   4.266   1.003   5.022 -0.3013 -0.2237 -0.1635
 2259SOL    HW1 7676   4.281   1.065   5.099  1.3130 -0.7982  0.0305
 2259SOL    HW2 7677   4.280   1.051   4.936 -0.8712  0.1146 -0.0719
 2260SOL     OW 7678   2.325   3.576   1.399 -0.3342  0.6073 -0.3305
 2260SOL    HW1 7679   2.292   3.483   1.415 -0.8030  0.9908  1.0908
 2260SOL    HW2 7680   2.405   3.573   1.340  0.2455 -0.7953  0.4800
 2261SOL     OW 7681   4.513   5.114   0.115  0.4458  0.1997 -0.0334
 2261SOL    HW1 7682   4.599   5.164   0.127  0.1452  0.4038  1.4330
 2261SOL    HW2 7683   4.533   5.017   0.100  0.9465  0.3550 -0.4091
 2262SOL     OW 7684   6.394   0.518   4.470  0.1412 -0.3004 -0.0469
 2262SOL    HW1 7685   6.435   0.455   4.536  1.4263  0.3459 -0.2125
 2262SOL    HW2 7686   6.466   0.564   4.418 -0.7729  1.0325 -0.1896
 2263SOL     OW 7687   2.304   4.365   6.656 -0.8034 -0.2262 -0.3155
 2263SOL    HW1 7688   2.223   4.380   6.599 -0.3653  0.7078 -0.7191
 2263SOL    HW2 7689   2.365   4.299   6.611  0.2115  1.5549 -1.6835
 2264SOL     OW 7690   0.792   6.510   4.716 -0.2807 -0.0706 -0.0391
 2264SOL    HW1 7691   0.888   6.483   4.728  0.2249  1.1557 -0.9909
 2264SOL    HW2 7692   0.758   6.552   4.800  0.6809  1.2838 -0.2804
 2265SOL     OW 7693   6.086   6.333   3.273 -0.1272  0.1102 -0.0867
 2265SOL    HW1 7694   6.023   6.357   3.347 -0.8390 -0.2496 -0.5592
 2265SOL    HW2 7695   6.071   6.237   3.247 -1.2435  0.7363 -1.9725
 2266SOL     OW 7696   4.696   3.475   5.705 -0.0373  0.0110  0.2752
 2266SOL    HW1 7697   4.638   3.556   5.709  2.3057  1.9812 -1.8891
 2266SOL    HW2 7698   4.714   3.451   5.609  0.8396 -1.9361  0.8746
 2267SOL     OW 7699   6.731   3.239   5.435 -0.6087  0.4407  0.0766
 2267SOL    HW1 7700   6.821   3.206   5.407 -0.5366 -1.4323  2.2542
 2267SOL    HW2 7701   6.709   3.204   5.526 -3.7911  0.3890 -0.6012
 2268SOL     OW 7702   6.889   6.023   5.557  0.4147 -0.0188 -0.3035
 2268SOL    HW1 7703   6.809   5.966   5.542 -1.6399  2.5731  0.0757
 2268SOL    HW2 7704   6.917   6.017   5.653 -1.6533  1.7496  0.4787
 2269SOL     OW 7705   1.114   3.068   4.454  0.3994  0.3226 -0.3205
 2269SOL    HW1 7706   1.062   3.076   4.540 -1.3790  3.2635 -1.5120
 2269SOL    HW2 7707   1.173   2.988   4.459 -1.9816 -1.4888  2.3862
 2270SOL     OW 7708   5.578   3.544   0.270 -0.0475  0.3697 -0.2389
 2270SOL    HW1 7709   5.545   3.609   0.202 -0.0783 -0.1544 -0.7240
 2270SOL    HW2 7710   5.501   3.511   0.325 -0.2017 -0.1095 -0.7323
 2271SOL     OW 7711   2.750   5.865   6.126 -0.3701 -0.1309  0.1846
 2271SOL    HW1 7712   2.839   5.820   6.116  0.2150  0.7827  1.0900
 2271SOL    HW2 7713   2.697   5.820   6.198 -0.0781  0.1697  0.5903
 2272SOL     OW 7714   6.240   5.866   6.426  0.6070 -0.0860 -0.1546
 2272SOL    HW1 7715   6.309   5.935   6.449 -0.0331  0.8228 -0.8763
 2272SOL    HW2 7716   6.158   5.880   6.482  1.2519 -1.6649  1.2853
 2273SOL     OW 7717   2.213   2.831   3.745 -0.1964 -0.1860  0.5027
 2273SOL    HW1 7718   2.257   2.753   3.790 -0.9592  0.1903  1.9833
 2273SOL    HW2 7719   2.225   2.824   3.646  0.5384 -1.6881  0.6719
 2274SOL     OW 7720   0.038   1.158   6.951  0.1892 -0.4565 -0.0489
 2274SOL    HW1 7721   0.071   1.087   6.889  1.9262 -0.2507  0.5868
 2274SOL    HW2 7722  -0.062   1.153   6.957  0.1747 -1.9828 -1.0170
 2275SOL     OW 7723   5.758   4.396   4.510  0.2014  0.0225  0.3185
 2275SOL    HW1 7724   5.677   4.429   4.461  1.3516  1.0451 -0.9561
 2275SOL    HW2 7725   5.753   4.297   4.520 -0.9138  0.0069 -0.2636
 2276SOL     OW 7726   0.397   1.276   0.212  0.3270  0.3156  0.0965
 2276SOL    HW1 7727   0.456   1.229   0.278  1.2360  1.5991  0.2247
 2276SOL    HW2 7728   0.301   1.260   0.236  0.6342 -0.1077  1.1026
 2277SOL     OW 7729   3.675   3.050   1.891  0.1198 -0.1513 -0.7633
 2277SOL    HW1 7730   3.759   2.995   1.894 -0.7869 -1.5783 -0.7144
 2277SOL    HW2 7731   3.662   3.096   1.978  0.1071 -1.0944 -0.2575
 2278SOL     OW 7732   6.509   3.337   3.118  0.2624  0.0048  0.4522
 2278SOL    HW1 7733   6.487   3.251   3.164 -0.9406 -1.1088 -2.0197
 2278SOL    HW2 7734   6.436   3.403   3.134 -0.9404 -0.9039 -1.0251
 2279SOL     OW 7735   0.487   4.370   5.151  0.2355  0.1395 -0.3036
 2279SOL    HW1 7736   0.524   4.368   5.058  1.2377  1.9023  0.0150
 2279SOL    HW2 7737   0.554   4.329   5.213  0.4934  0.8643 -0.0934
 2280SOL     OW 7738   5.228   2.099   5.096 -0.1113  0.2066  0.1587
 2280SOL    HW1 7739   5.195   2.192   5.111  0.6294  0.1848  2.1160
 2280SOL    HW2 7740   5.157   2.034   5.122  0.6865  0.1975  2.5255
 2281SOL     OW 7741   4.226   1.380   2.495 -0.1273 -0.0324  0.2489
 2281SOL    HW1 7742   4.162   1.439   2.545  1.2135  0.1402  1.8650
 2281SOL    HW2 7743   4.247   1.421   2.407 -1.6961  0.2455 -0.0357
 2282SOL     OW 7744   2.228   5.061   6.436  0.0404  0.6108 -0.0577
 2282SOL    HW1 7745   2.183   5.150   6.433 -0.6835  0.2261 -0.6932
 2282SOL    HW2 7746   2.322   5.073   6.470  1.4261  2.2327 -3.9092
 2283SOL     OW 7747   0.540   1.397   5.449 -0.2186  0.1857  0.2845
 2283SOL    HW1 7748   0.622   1.340   5.449  0.3548  0.9673  1.5092
 2283SOL    HW2 7749   0.529   1.439   5.539  0.5917  3.6825 -1.0752
 2284SOL     OW 7750   1.364   4.158   5.571  0.4849 -0.5376  0.2348
 2284SOL    HW1 7751   1.420   4.187   5.648  0.6337 -0.1472 -0.0221
 2284SOL    HW2 7752   1.283   4.217   5.565 -0.7739 -2.0279  1.5426
 2285SOL     OW 7753   2.216   4.824   6.743  0.2066 -0.2401 -0.2553
 2285SOL    HW1 7754   2.260   4.786   6.824 -1.6852 -1.7269  0.1373
 2285SOL    HW2 7755   2.268   4.903   6.711  1.0205  0.3902  2.3804
 2286SOL     OW 7756   3.761   5.018   2.848 -0.4825  0.0094  0.8853
 2286SOL    HW1 7757   3.815   4.939   2.879 -0.1617 -0.1670 -0.0751
 2286SOL    HW2 7758   3.674   5.020   2.897 -0.6851 -1.2035  0.6064
 2287SOL     OW 7759   6.624   2.222   4.697  0.0198  0.1780 -0.1118
 2287SOL    HW1 7760   6.632   2.222   4.797  0.9031  0.2536 -0.1781
 2287SOL    HW2 7761   6.540   2.269   4.671  0.8176  2.0444  0.5375
 2288SOL     OW 7762   0.308   5.343   3.175 -0.3936 -0.7380  0.1252
 2288SOL    HW1 7763   0.300   5.443   3.179 -0.0162 -0.7189  3.1078
 2288SOL    HW2 7764   0.292   5.305   3.266 -1.4444 -3.5215 -1.1138
 2289SOL     OW 7765   0.198   4.399   1.600 -0.0800 -0.2613 -0.1123
 2289SOL    HW1 7766   0.107   4.440   1.610  0.3872  0.2265  3.4763
 2289SOL    HW2 7767   0.266   4.471   1.587  0.1775 -0.2870  1.0161
 2290SOL     OW 7768   1.633   6.197   6.837 -0.0651  0.4242 -0.1816
 2290SOL    HW1 7769   1.568   6.140   6.787  0.4322 -0.0434 -0.3111
 2290SOL    HW2 7770   1.635   6.288   6.797 -0.4207  0.3547 -0.3637
 2291SOL     OW 7771   1.182   1.977   0.280 -1.1911 -0.2516 -0.2188
 2291SOL    HW1 7772   1.266   1.922   0.276 -2.1986 -1.8600 -3.4439
 2291SOL    HW2 7773   1.106   1.919   0.311 -1.4631  0.6816  0.9127
 2292SOL     OW 7774   2.567   1.313   2.278  0.1483 -0.4615  0.2931
 2292SOL    HW1 7775   2.664   1.328   2.259 -0.3494  1.7654 -0.8852
 2292SOL    HW2 7776   2.525   1.264   2.202 -0.1184  0.8279 -0.4217
 2293SOL     OW 7777   6.840   3.357   3.770  0.4760 -0.5180 -0.4693
 2293SOL    HW1 7778   6.768   3.367   3.702  2.0162 -2.9974 -2.6769
 2293SOL    HW2 7779   6.820   3.279   3.830  0.4364 -0.0519  0.1301
 2294SOL     OW 7780   3.335   6.778   6.698 -0.1009  0.2002  0.4874
 2294SOL    HW1 7781   3.423   6.809   6.734  0.6445 -2.2697  0.9762
 2294SOL    HW2 7782   3.263   6.839   6.729  1.5951  3.7967 -1.9489
 2295SOL     OW 7783   1.018   6.278   3.852 -0.9991  0.5858 -0.0376
 2295SOL    HW1 7784   0.936   6.223   3.840 -0.6070  0.4603 -2.6134
 2295SOL    HW2 7785   1.018   6.354   3.786  0.9250  0.5931 -0.0894
 2296SOL     OW 7786   2.189   5.628   6.466  0.1782 -0.0426 -0.2694
 2296SOL    HW1 7787   2.271   5.579   6.496  0.3028 -1.3679 -2.5682
 2296SOL    HW2 7788   2.108   5.577   6.495  0.2953 -1.2563 -1.9357
 2297SOL     OW 7789   3.883   6.313   5.770  0.2161  0.2642 -0.3964
 2297SOL    HW1 7790   3.906   6.237   5.709 -0.8673  0.1820 -0.7082
 2297SOL    HW2 7791   3.845   6.389   5.717 -1.6685 -0.1787  0.2440
 2298SOL     OW 7792   4.852   3.579   0.156  0.1831  0.4095  0.2806
 2298SOL    HW1 7793   4.924   3.519   0.122  0.0327  1.4137 -1.9516
 2298SOL    HW2 7794   4.796   3.612   0.080 -1.1894  1.5363  1.6917
 2299SOL     OW 7795   4.546   1.369   2.254 -0.1190  0.2713  0.4571
 2299SOL    HW1 7796   4.516   1.447   2.308 -1.1189 -0.4930  1.0521
 2299SOL    HW2 7797   4.507   1.375   2.162 -0.5895  0.2396  0.6488
 2300SOL     OW 7798   3.764   4.084   6.760 -0.0761 -0.1508  0.3651
 2300SOL    HW1 7799   3.769   4.180   6.787 -1.4652  0.1821 -0.4471
 2300SOL    HW2 7800   3.787   4.075   6.663  0.4381 -0.7050  0.5283
 2301SOL     OW 7801   3.260   3.929   0.295  0.5224 -0.0064  0.2284
 2301SOL    HW1 7802   3.276   4.027   0.278  1.8225 -0.3190 -0.5829
 2301SOL    HW2 7803   3.166   3.915   0.325  0.6735  1.6368  1.6388
 2302SOL     OW 7804   4.238   5.672   2.530 -0.3818 -0.5644  0.3951
 2302SOL    HW1 7805   4.297   5.748   2.559 -0.9823  0.5034 -1.0821
 2302SOL    HW2 7806   4.146   5.705   2.513 -1.0774 -1.9564  1.2900
 2303SOL     OW 7807   5.995   3.843   5.534 -0.3113  0.1299  0.5096
 2303SOL    HW1 7808   6.053   3.762   5.544 -1.4133 -0.9898 -1.4573
 2303SOL    HW2 7809   6.002   3.878   5.440 -0.1011  2.1518  1.2406
 2304SOL     OW 7810   2.544   2.414   0.358 -0.2752  0.1571  0.3639
 2304SOL    HW1 7811   2.496   2.489   0.403 -0.6097  0.6346 -0.7479
 2304SOL    HW2 7812   2.636   2.405   0.396  0.0998  1.7428 -0.0934
 2305SOL     OW 7813   3.688   6.162   3.839  0.8221 -0.4062  0.0038
 2305SOL    HW1 7814   3.646   6.116   3.762  1.0747  0.8390 -0.9084
 2305SOL    HW2 7815   3.736   6.244   3.807 -1.2068  1.6020  1.7568
 2306SOL     OW 7816   2.830   2.894   0.404  0.0731  0.5176  0.2615
 2306SOL    HW1 7817   2.757   2.909   0.338  0.7202  1.2940 -0.3151
 2306SOL    HW2 7818   2.793   2.897   0.496 -0.4398  2.3354  0.0455
 2307SOL     OW 7819   3.633   6.916   2.780 -0.1353 -0.5589  0.1994
 2307SOL    HW1 7820   3.662   7.005   2.816 -1.8240  0.1303 -0.0175
 2307SOL    HW2 7821   3.671   6.902   2.689  0.4367 -0.2271  0.3845
 2308SOL     OW 7822   2.251   0.503   0.136  0.3264 -0.3322  0.1100
 2308SOL    HW1 7823   2.309   0.446   0.194  0.8666 -1.4957 -1.5095
 2308SOL    HW2 7824   2.173   0.449   0.103 -0.9269  0.8083  1.0961
 2309SOL     OW 7825   2.931   4.289   6.075 -0.3171 -0.0800 -0.2318
 2309SOL    HW1 7826   2.861   4.285   6.004  0.0659  0.2050 -0.6346
 2309SOL    HW2 7827   2.934   4.203   6.125 -0.8219 -0.1598 -0.3384
 2310SOL     OW 7828   4.909   2.029   4.266 -0.0788 -0.0844  0.0497
 2310SOL    HW1 7829   4.844   1.952   4.266 -0.4939  0.2499  1.0666
 2310SOL    HW2 7830   4.967   2.023   4.184 -1.7037 -0.1184 -1.1579
 2311SOL     OW 7831   6.974   6.789   1.837  0.0283  0.8292  0.1757
 2311SOL    HW1 7832   7.036   6.742   1.775 -1.4396  0.8870 -1.3882
 2311SOL    HW2 7833   7.027   6.845   1.901  1.6516 -0.6311  0.1716
 2312SOL     OW 7834   5.556   1.686   3.565 -0.2717 -0.4970  0.5987
 2312SOL    HW1 7835   5.638   1.688   3.622 -0.5855 -0.8814  1.0780
 2312SOL    HW2 7836   5.489   1.625   3.606 -1.3148  0.8222  0.9176
 2313SOL     OW 7837   5.415   3.834   1.047 -0.7824  0.6903  0.4290
 2313SOL    HW1 7838   5.456   3.765   1.107  2.1172  1.6150 -0.3242
 2313SOL    HW2 7839   5.355   3.789   0.981 -1.0095 -0.7637  1.5603
 2314SOL     OW 7840   6.564   5.825   1.672 -0.2152 -0.0747  0.1193
 2314SOL    HW1 7841   6.543   5.915   1.634  2.3947 -0.3138 -2.2053
 2314SOL    HW2 7842   6.655   5.827   1.714 -0.2950 -1.5274  0.4127
 2315SOL     OW 7843   3.880   1.180   4.444 -0.2406 -0.4189 -0.0066
 2315SOL    HW1 7844   3.814   1.255   4.440  0.0752 -0.0543  1.2819
 2315SOL    HW2 7845   3.971   1.214   4.423  0.1839 -0.0493  2.2404
 2316SOL     OW 7846   5.022   2.221   0.064  0.2850 -0.2058  0.0516
 2316SOL    HW1 7847   5.080   2.292   0.105  1.2805 -0.3905 -0.9723
 2316SOL    HW2 7848   4.958   2.263  -0.001 -0.7423 -0.0034  1.1705
 2317SOL     OW 7849   0.784   6.376   2.949  0.2561  0.1836 -0.0178
 2317SOL    HW1 7850   0.812   6.389   2.854 -0.6118  1.4128 -0.1347
 2317SOL    HW2 7851   0.766   6.279   2.966  1.5201 -0.2050 -0.7734
 2318SOL     OW 7852   1.179   4.032   5.101 -0.0806  0.0217 -0.5771
 2318SOL    HW1 7853   1.216   3.981   5.023 -0.1281  2.1905 -2.0957
 2318SOL    HW2 7854   1.250   4.093   5.137 -0.2318 -0.5562  0.7705
 2319SOL     OW 7855   3.696   5.495   4.657 -0.4141 -0.8395  0.2165
 2319SOL    HW1 7856   3.753   5.422   4.695 -1.4510 -2.7029 -1.6305
 2319SOL    HW2 7857   3.661   5.467   4.568 -1.3407  1.7095 -0.2861
 2320SOL     OW 7858   2.098   1.632   4.721  0.4537 -0.2057 -0.9391
 2320SOL    HW1 7859   2.168   1.561   4.726  0.5337 -0.1515 -1.2906
 2320SOL    HW2 7860   2.136   1.720   4.749 -0.0484 -0.5710  1.1095
 2321SOL     OW 7861   2.009   5.471   5.303 -0.3514 -0.0550 -0.3769
 2321SOL    HW1 7862   1.918   5.460   5.263 -0.3648  2.3775 -1.1573
 2321SOL    HW2 7863   2.078   5.439   5.238 -0.5694 -0.5770 -0.3587
 2322SOL     OW 7864   2.735   2.631   0.945  0.7617  0.1656 -0.5903
 2322SOL    HW1 7865   2.751   2.559   1.013  0.4085  0.3218 -0.3423
 2322SOL    HW2 7866   2.665   2.600   0.880  1.3603 -0.1332 -1.1101
 2323SOL     OW 7867   0.908   4.274   1.367  0.2650 -0.5387  0.0769
 2323SOL    HW1 7868   0.998   4.316   1.359  0.1246 -0.5961 -3.1599
 2323SOL    HW2 7869   0.837   4.343   1.350 -0.0959 -1.3028 -1.7075
 2324SOL     OW 7870   6.994   5.277   2.541 -0.0834  0.2869 -0.4163
 2324SOL    HW1 7871   7.019   5.197   2.487 -0.4412 -1.0288  1.2646
 2324SOL    HW2 7872   6.923   5.329   2.494 -0.4953 -0.8978 -1.1326
 2325SOL     OW 7873   5.430   6.987   4.376 -0.4762 -0.0724  0.0628
 2325SOL    HW1 7874   5.391   7.054   4.440 -0.1825 -1.3428  1.6369
 2325SOL    HW2 7875   5.377   6.988   4.291  0.2400  2.9530 -0.4518
 2326SOL     OW 7876   1.340   6.069   1.245  0.1677  0.1335  0.3244
 2326SOL    HW1 7877   1.316   6.034   1.335 -0.2320 -0.7681 -0.1213
 2326SOL    HW2 7878   1.296   6.159   1.232  0.8733  0.6465  1.3157
 2327SOL     OW 7879   6.135   0.287   2.166  0.3250 -0.4374  0.4598
 2327SOL    HW1 7880   6.146   0.304   2.069  1.2142 -2.2551  0.1922
 2327SOL    HW2 7881   6.044   0.315   2.195  0.1068  0.2808 -0.8426
 2328SOL     OW 7882   2.492   3.881   1.226  0.4795 -0.5373 -0.2109
 2328SOL    HW1 7883   2.392   3.881   1.230  0.4202  0.2534 -1.3377
 2328SOL    HW2 7884   2.526   3.975   1.226  1.2649 -0.8072  0.7964
 2329SOL     OW 7885   2.022   3.785   4.639 -0.1390  0.0939  0.2596
 2329SOL    HW1 7886   2.070   3.818   4.558  1.6047  0.1978  1.2778
 2329SOL    HW2 7887   2.078   3.717   4.686 -1.1887 -0.1052  1.2881
 2330SOL     OW 7888   6.961   2.938   1.241 -0.2145  0.5875 -0.5032
 2330SOL    HW1 7889   7.049   2.985   1.239  1.1493 -1.7553  0.7885
 2330SOL    HW2 7890   6.973   2.844   1.273 -3.4135  0.6697  1.4113
 2331SOL     OW 7891   6.000   5.761   1.770  0.5548  0.1398  0.6411
 2331SOL    HW1 7892   5.974   5.824   1.843  0.6694  0.9948 -0.0374
 2331SOL    HW2 7893   6.095   5.731   1.784 -0.3473 -2.1731  2.5424
 2332SOL     OW 7894   3.772   0.187   4.168  0.0250 -0.0454 -0.2663
 2332SOL    HW1 7895   3.852   0.184   4.108  1.5511 -0.5986  1.6884
 2332SOL    HW2 7896   3.734   0.095   4.178  0.9634 -0.3194  1.0633
 2333SOL     OW 7897   6.572   4.642   2.238  0.7204 -0.2596 -0.0333
 2333SOL    HW1 7898   6.559   4.668   2.142 -0.3087  1.0498  0.4219
 2333SOL    HW2 7899   6.584   4.543   2.244  2.1016 -0.2386 -1.6160
 2334SOL     OW 7900   4.531   2.237   1.958  0.2403  0.1534  0.0453
 2334SOL    HW1 7901   4.551   2.146   1.995 -2.5873 -0.3015  0.6626
 2334SOL    HW2 7902   4.515   2.230   1.859 -0.5166 -0.1370  0.1831
 2335SOL     OW 7903   1.716   1.271   3.734  0.6504  0.2118 -0.2844
 2335SOL    HW1 7904   1.710   1.297   3.637  1.9999  0.5748 -0.2827
 2335SOL    HW2 7905   1.660   1.334   3.788 -2.5043 -1.6849 -1.0528
 2336SOL     OW 7906   0.664   2.536   4.351  0.0341  0.1475  0.0734
 2336SOL    HW1 7907   0.637   2.467   4.418  2.2190 -0.3524  0.5108
 2336SOL    HW2 7908   0.724   2.603   4.394  0.4486  0.5419 -1.0721
 2337SOL     OW 7909   3.590   1.439   2.006  0.5216  0.2620  0.4274
 2337SOL    HW1 7910   3.664   1.410   1.946  0.3827  0.3672  0.2061
 2337SOL    HW2 7911   3.609   1.407   2.099  0.2138 -0.8172  0.1269
 2338SOL     OW 7912   0.798   2.505   4.706 -0.3931  0.4320 -0.2319
 2338SOL    HW1 7913   0.814   2.498   4.804 -0.5722  0.3812 -0.2058
 2338SOL    HW2 7914   0.836   2.425   4.660 -0.2928  0.4650 -0.2057
 2339SOL     OW 7915   3.355   3.847   3.939 -0.3028 -0.0162 -0.1995
 2339SOL    HW1 7916   3.278   3.871   3.999  0.0837 -0.2663  0.4078
 2339SOL    HW2 7917   3.380   3.751   3.953 -0.0196  0.0041 -0.5501
 2340SOL     OW 7918   0.989   5.357   6.447  0.2185 -0.3946 -0.1778
 2340SOL    HW1 7919   1.072   5.392   6.492  0.4854  2.2457 -2.4194
 2340SOL    HW2 7920   1.011   5.331   6.353 -1.4213  0.0353 -0.7101
 2341SOL     OW 7921   2.232   4.368   4.388 -0.1519  0.1271  0.5858
 2341SOL    HW1 7922   2.184   4.340   4.471  0.6917 -1.7946  0.4794
 2341SOL    HW2 7923   2.172   4.352   4.309  0.4469 -1.9219  0.4874
 2342SOL     OW 7924   3.714   1.760   5.921  0.6686 -0.6820 -0.1749
 2342SOL    HW1 7925   3.801   1.749   5.875  0.2025 -1.6378 -0.8603
 2342SOL    HW2 7926   3.677   1.670   5.946 -0.5704 -0.3675 -0.7675
 2343SOL     OW 7927   0.238   5.466   0.970  0.8406 -0.6941 -0.3818
 2343SOL    HW1 7928   0.184   5.381   0.976  0.2589 -0.2789  0.4861
 2343SOL    HW2 7929   0.332   5.444   0.947  0.8297 -1.6426  0.3905
 2344SOL     OW 7930   6.058   4.333   0.371 -0.0868  0.2810 -0.1526
 2344SOL    HW1 7931   6.152   4.355   0.344  0.4076  0.2726  1.4813
 2344SOL    HW2 7932   6.004   4.315   0.289  1.3575  0.1828 -1.1264
 2345SOL     OW 7933   4.811   0.316   4.103  0.5506 -0.6037 -0.2330
 2345SOL    HW1 7934   4.814   0.413   4.077 -2.8878  0.6121  2.9342
 2345SOL    HW2 7935   4.755   0.266   4.037 -2.5761  0.9710  1.0302
 2346SOL     OW 7936   4.129   3.943   0.760 -0.0674  0.0317 -0.2173
 2346SOL    HW1 7937   4.054   3.951   0.695  0.1969 -0.7884 -0.6442
 2346SOL    HW2 7938   4.122   3.856   0.809  0.3912  0.1128  0.0029
 2347SOL     OW 7939   0.813   1.145   0.808  0.1634 -0.2249 -0.0845
 2347SOL    HW1 7940   0.830   1.155   0.906 -1.4843 -0.3924  0.2565
 2347SOL    HW2 7941   0.719   1.174   0.788  0.1117 -1.2383 -1.4228
 2348SOL     OW 7942   0.523   4.935   1.222 -0.1457  0.4360 -0.0432
 2348SOL    HW1 7943   0.552   4.841   1.207 -0.1771  0.3379  0.4792
 2348SOL    HW2 7944   0.537   4.960   1.318 -1.5900  0.4438  0.2011
 2349SOL     OW 7945   2.195   5.647   5.394 -0.2686  0.0432  0.0771
 2349SOL    HW1 7946   2.108   5.606   5.365 -0.5429 -0.9751  2.0971
 2349SOL    HW2 7947   2.271   5.594   5.355 -0.5380  0.5763 -1.2169
 2350SOL     OW 7948   4.633   4.405   1.000 -0.0687  0.4794  0.2702
 2350SOL    HW1 7949   4.649   4.455   0.915  2.1513 -2.4811 -1.2325
 2350SOL    HW2 7950   4.557   4.342   0.988 -0.2393  0.5755  0.7861
 2351SOL     OW 7951   2.057   5.901   2.799 -0.9615 -0.5711 -0.5843
 2351SOL    HW1 7952   1.958   5.916   2.802 -0.9266 -0.2086 -1.1950
 2351SOL    HW2 7953   2.076   5.805   2.781 -1.1958 -0.7223 -0.0513
 2352SOL     OW 7954   1.581   0.925   5.165 -0.7270  0.2093  0.5744
 2352SOL    HW1 7955   1.637   0.979   5.103 -1.8934 -0.2058 -0.8999
 2352SOL    HW2 7956   1.633   0.847   5.199 -0.6827 -0.7447 -1.5626
 2353SOL     OW 7957   1.806   5.964   3.110  0.3926 -0.5117  0.0065
 2353SOL    HW1 7958   1.836   6.053   3.144  0.9119 -1.0348  0.9719
 2353SOL    HW2 7959   1.759   5.914   3.182  1.0532 -1.4441 -0.1786
 2354SOL     OW 7960   2.030   3.017   3.672 -0.3829 -0.3000  0.5632
 2354SOL    HW1 7961   2.074   3.043   3.586 -1.9184  0.3669 -0.0453
 2354SOL    HW2 7962   2.090   2.953   3.721  1.5911  1.0967  0.1246
 2355SOL     OW 7963   0.963   6.768   4.994  0.0346 -1.2106 -0.0155
 2355SOL    HW1 7964   1.023   6.688   4.990 -0.6153 -1.6747 -0.9841
 2355SOL    HW2 7965   1.018   6.850   5.009  0.6825 -1.8573  1.3661
 2356SOL     OW 7966   6.560   2.069   6.873 -0.2634 -0.6378 -0.0929
 2356SOL    HW1 7967   6.588   2.125   6.795  0.2205  1.9858  1.8356
 2356SOL    HW2 7968   6.640   2.052   6.932 -0.9171 -1.2160  0.6518
 2357SOL     OW 7969   3.796   5.275   2.080  0.5020  0.4573 -0.2257
 2357SOL    HW1 7970   3.710   5.295   2.032  0.5640 -1.0800 -1.0489
 2357SOL    HW2 7971   3.775   5.233   2.169  0.3674 -1.1028 -0.9660
 2358SOL     OW 7972   3.989   4.691   5.960  0.1448  0.3799 -0.4521
 2358SOL    HW1 7973   4.020   4.767   6.018 -0.3730 -0.5111  1.0556
 2358SOL    HW2 7974   3.911   4.646   6.003  0.9206 -1.4925 -0.8767
 2359SOL     OW 7975   2.653   0.846   5.470  0.4665 -0.2898  0.0357
 2359SOL    HW1 7976   2.715   0.908   5.421 -1.2347  1.8228  0.4145
 2359SOL    HW2 7977   2.567   0.838   5.418  0.0092 -0.9309  0.8777
 2360SOL     OW 7978   0.622   4.345   5.775 -0.0549 -0.6175 -0.3145
 2360SOL    HW1 7979   0.542   4.355   5.715  0.5262  0.9208 -0.8713
 2360SOL    HW2 7980   0.606   4.391   5.862  0.7127  0.9587 -0.9607
 2361SOL     OW 7981   4.204   1.503   1.103 -0.2779 -0.1841  0.4112
 2361SOL    HW1 7982   4.243   1.511   1.011 -0.5243  0.9783  0.3867
 2361SOL    HW2 7983   4.186   1.407   1.124  1.6844 -0.6635  0.0638
 2362SOL     OW 7984   2.889   5.530   4.419 -0.0772  0.2734  0.3361
 2362SOL    HW1 7985   2.835   5.540   4.336  1.6847 -0.3575 -0.9580
 2362SOL    HW2 7986   2.938   5.615   4.438  0.8504 -0.1077 -0.2828
 2363SOL     OW 7987   2.625   2.278   4.488  0.4543 -0.3691  0.1911
 2363SOL    HW1 7988   2.578   2.262   4.574  0.8529 -1.3800  0.2276
 2363SOL    HW2 7989   2.719   2.246   4.494  0.0586 -1.9110 -1.1014
 2364SOL     OW 7990   0.426   3.057   0.655  0.4249  0.2679  0.5160
 2364SOL    HW1 7991   0.518   3.079   0.623  0.6837  0.1606  1.1812
 2364SOL    HW2 7992   0.364   3.134   0.636  0.6823  0.3984  0.2055
 2365SOL     OW 7993   4.306   3.102   6.542  0.0524 -0.0278 -0.4678
 2365SOL    HW1 7994   4.303   3.159   6.624  1.0067 -1.8377  0.9019
 2365SOL    HW2 7995   4.373   3.139   6.479  0.0317  0.8437 -0.0013
 2366SOL     OW 7996   3.698   3.556   0.598  0.3319  0.1755  0.1333
 2366SOL    HW1 7997   3.757   3.489   0.642  1.3467  1.6917  1.2093
 2366SOL    HW2 7998   3.602   3.533   0.616  0.6842  0.5302  3.0045
 2367SOL     OW 7999   2.530   3.536   6.459 -0.0356 -0.1458 -0.0613
 2367SOL    HW1 8000   2.436   3.547   6.425 -0.0336  1.4741  0.3529
 2367SOL    HW2 8001   2.589   3.603   6.415  0.5382  0.0919  1.0244
 2368SOL     OW 8002   6.171   4.980   2.164 -0.2959  0.7130  0.1676
 2368SOL    HW1 8003   6.096   4.935   2.213 -1.0548  1.1493 -0.5678
 2368SOL    HW2 8004   6.136   5.060   2.115  0.6568  0.9318 -0.1854
 2369SOL     OW 8005   2.263   1.769   2.791  0.0637 -0.0184  0.1323
 2369SOL    HW1 8006   2.205   1.693   2.764  0.9370 -1.1338  1.3064
 2369SOL    HW2 8007   2.342   1.735   2.842 -0.9131  1.8429  3.1463
 2370SOL     OW 8008   6.343   3.803   5.457 -0.0709  0.4456 -0.2454
 2370SOL    HW1 8009   6.424   3.840   5.410  0.4102  2.0662  1.7233
 2370SOL    HW2 8010   6.368   3.719   5.504  0.4183  0.7739  0.0978
 2371SOL     OW 8011   3.141   6.414   1.528  0.0462  0.3837 -0.1577
 2371SOL    HW1 8012   3.155   6.322   1.492  0.3062  0.0137  0.8515
 2371SOL    HW2 8013   3.064   6.413   1.593 -0.5791  1.0889 -0.8586
 2372SOL     OW 8014   5.268   3.009   2.979 -0.5236 -0.4002 -0.0354
 2372SOL    HW1 8015   5.334   3.034   2.908 -1.4532 -0.1817 -0.8428
 2372SOL    HW2 8016   5.196   2.952   2.939 -1.1724 -0.1079  0.6903
 2373SOL     OW 8017   1.618   2.111   6.652 -0.1772 -0.2725  0.8382
 2373SOL    HW1 8018   1.526   2.098   6.614 -0.5472 -0.5210  1.8036
 2373SOL    HW2 8019   1.636   2.209   6.661 -0.5018 -0.2280  1.0170
 2374SOL     OW 8020   4.804   3.055   5.104  0.3131  0.5233  1.2372
 2374SOL    HW1 8021   4.856   3.140   5.106 -1.2271  1.5304  0.8025
 2374SOL    HW2 8022   4.809   3.014   5.012 -0.2009  0.9880  0.9958
 2375SOL     OW 8023   2.080   0.463   5.151  0.0576  0.4641  0.2622
 2375SOL    HW1 8024   2.063   0.542   5.209 -3.7197 -0.6124  0.8745
 2375SOL    HW2 8025   2.088   0.381   5.208 -2.4677 -0.4286 -0.5425
 2376SOL     OW 8026   0.419   4.198   6.327  0.0854 -0.1800  0.1006
 2376SOL    HW1 8027   0.451   4.112   6.365 -1.8388 -1.5874 -1.2384
 2376SOL    HW2 8028   0.321   4.191   6.307  0.2235  1.7403 -1.6084
 2377SOL     OW 8029   3.205   3.399   4.110  0.3304  0.5545 -0.1101
 2377SOL    HW1 8030   3.176   3.445   4.194  1.9140  0.0682  0.7505
 2377SOL    HW2 8031   3.270   3.458   4.061  2.7758 -0.7950  1.2561
 2378SOL     OW 8032   5.243   2.650   1.774 -0.5839 -0.3556 -0.2757
 2378SOL    HW1 8033   5.267   2.664   1.870 -2.2863  0.1083  0.1059
 2378SOL    HW2 8034   5.235   2.552   1.756  2.2833 -0.5949 -0.6386
 2379SOL     OW 8035   5.784   6.365   6.311  0.2315 -0.1350 -0.1902
 2379SOL    HW1 8036   5.687   6.387   6.305 -0.1334 -1.4507  0.4724
 2379SOL    HW2 8037   5.816   6.329   6.223 -0.4435 -1.7357  0.1805
 2380SOL     OW 8038   0.760   2.004   2.729  0.3170  0.1072  0.7185
 2380SOL    HW1 8039   0.717   1.924   2.687  0.2879  0.0879  0.7857
 2380SOL    HW2 8040   0.743   2.085   2.672  2.1758 -0.3133 -0.5303
 2381SOL     OW 8041   1.915   4.202   4.209  0.1077  0.2265  0.3158
 2381SOL    HW1 8042   1.918   4.283   4.268 -0.8528 -0.0581  0.7820
 2381SOL    HW2 8043   1.878   4.125   4.260  0.7900 -0.4554 -0.1939
 2382SOL     OW 8044   2.403   1.916   6.733 -0.4091 -0.1203 -0.4856
 2382SOL    HW1 8045   2.360   1.921   6.823  1.6984 -1.7021  0.7084
 2382SOL    HW2 8046   2.446   2.004   6.712  2.0099 -0.6435  1.7239
 2383SOL     OW 8047   6.279   5.202   2.653 -0.2982  0.1960  0.0261
 2383SOL    HW1 8048   6.248   5.141   2.581 -0.8976 -0.6328  0.9668
 2383SOL    HW2 8049   6.283   5.296   2.618 -2.8830  0.1954 -0.4508
 2384SOL     OW 8050   3.217   0.997   1.508  0.9676 -0.3794 -0.0575
 2384SOL    HW1 8051   3.208   1.052   1.425  0.0918  1.7376  1.3247
 2384SOL    HW2 8052   3.133   1.004   1.562  0.8683 -3.0885  0.2511
 2385SOL     OW 8053   1.066   1.702   6.166 -0.0749  0.2649  0.0474
 2385SOL    HW1 8054   1.042   1.797   6.189 -1.0593  0.2686 -0.9392
 2385SOL    HW2 8055   1.152   1.701   6.116  0.4333  0.5388  0.8899
 2386SOL     OW 8056   4.250   5.227   4.695  0.4259  0.1827  0.0231
 2386SOL    HW1 8057   4.224   5.215   4.791  1.6402  0.3929  0.3877
 2386SOL    HW2 8058   4.298   5.314   4.684  0.6799 -0.0428 -0.6959
 2387SOL     OW 8059   2.678   1.550   2.631  0.6560  0.3399  0.3908
 2387SOL    HW1 8060   2.747   1.600   2.683  2.8416 -1.8652 -0.1815
 2387SOL    HW2 8061   2.686   1.574   2.534 -0.1286  0.8577  0.4466
 2388SOL     OW 8062   6.772   1.688   5.078  0.3650 -0.6533  0.0818
 2388SOL    HW1 8063   6.762   1.675   4.980 -0.2279  0.1264  0.0239
 2388SOL    HW2 8064   6.682   1.702   5.120  0.6202 -0.8462  0.7102
 2389SOL     OW 8065   1.204   6.054   0.533 -0.1450 -0.0215 -0.0305
 2389SOL    HW1 8066   1.194   5.956   0.546 -1.4587  0.1276  0.2314
 2389SOL    HW2 8067   1.285   6.086   0.581  0.7091 -1.0824 -0.7251
 2390SOL     OW 8068   0.744   4.112   2.369 -0.0769 -0.3942 -0.5012
 2390SOL    HW1 8069   0.831   4.067   2.386  0.4120  1.0385  0.9169
 2390SOL    HW2 8070   0.671   4.064   2.418  0.5184  0.5962  1.4116
 2391SOL     OW 8071   6.203   4.912   4.568  0.1567  0.2570 -0.2046
 2391SOL    HW1 8072   6.174   4.841   4.505  0.8833 -0.8806  0.7071
 2391SOL    HW2 8073   6.291   4.950   4.538  0.3302 -0.0370 -0.0683
 2392SOL     OW 8074   2.905   6.465   6.583 -0.7766 -0.1330 -0.0589
 2392SOL    HW1 8075   2.873   6.417   6.502 -0.6881  0.8834 -0.7151
 2392SOL    HW2 8076   2.861   6.555   6.588 -0.4766 -0.0247  0.7995
 2393SOL     OW 8077   4.597   6.509   4.028 -0.0136 -0.0285  0.0350
 2393SOL    HW1 8078   4.602   6.581   3.959 -1.9468  0.3767  0.2594
 2393SOL    HW2 8079   4.592   6.419   3.984  0.4488  0.1049 -0.2910
 2394SOL     OW 8080   1.525   6.556   3.967  0.3774 -0.3295  0.3478
 2394SOL    HW1 8081   1.534   6.656   3.969  0.4602 -0.2965 -1.0101
 2394SOL    HW2 8082   1.532   6.521   4.060  1.0552  0.8721  0.7819
 2395SOL     OW 8083   3.978   5.247   5.758 -0.0429 -0.2781 -0.6476
 2395SOL    HW1 8084   4.063   5.289   5.726  0.3763 -0.0643  0.6636
 2395SOL    HW2 8085   3.988   5.222   5.854 -0.1815 -3.6805 -1.4168
 2396SOL     OW 8086   2.160   4.770   1.984  0.2476 -0.1404  0.1368
 2396SOL    HW1 8087   2.165   4.685   1.932 -0.8916 -0.6416  0.8260
 2396SOL    HW2 8088   2.108   4.756   2.067 -0.0179  1.2548  0.2357
 2397SOL     OW 8089   5.985   4.773   1.347  0.3590 -0.0190  0.1125
 2397SOL    HW1 8090   5.914   4.748   1.281 -1.1630 -0.7317  1.9352
 2397SOL    HW2 8091   5.961   4.861   1.389  0.1575 -0.5931  1.2312
 2398SOL     OW 8092   4.996   3.528   5.692  0.4644 -0.0651 -0.2003
 2398SOL    HW1 8093   5.035   3.518   5.783 -0.1824 -0.4344  0.0408
 2398SOL    HW2 8094   4.897   3.543   5.700  0.4496  0.1927 -0.8296
 2399SOL     OW 8095   3.302   1.115   0.868  0.4897 -0.5434  0.6775
 2399SOL    HW1 8096   3.399   1.142   0.871  0.7635 -1.5710  1.6881
 2399SOL    HW2 8097   3.277   1.071   0.953 -0.9989  0.0464  0.5776
 2400SOL     OW 8098   0.072   4.209   2.566  0.6334 -0.4552 -0.2212
 2400SOL    HW1 8099   0.038   4.223   2.658 -1.0320 -1.1206 -0.7026
 2400SOL    HW2 8100   0.100   4.114   2.554 -1.3400 -0.9798 -1.0361
 2401SOL     OW 8101   5.905   0.303   6.245  0.1364  0.0702  0.0432
 2401SOL    HW1 8102   5.949   0.214   6.233  0.8853  0.2833  0.9757
 2401SOL    HW2 8103   5.975   0.375   6.242 -0.5452  0.7109 -1.4117
 2402SOL     OW 8104   1.418   4.662   4.347  0.0240 -0.6217 -0.3652
 2402SOL    HW1 8105   1.458   4.700   4.430 -0.5614 -1.8406  0.5114
 2402SOL    HW2 8106   1.491   4.634   4.284  0.5690 -1.7795  0.7321
 2403SOL     OW 8107   1.243   1.155   5.577  0.4820 -0.5420  0.3371
 2403SOL    HW1 8108   1.269   1.120   5.487  2.2383 -0.0770  0.6268
 2403SOL    HW2 8109   1.311   1.222   5.608 -1.1333  0.8066  1.1584
 2404SOL     OW 8110   6.574   1.232   0.389  0.1400  0.2028  0.4279
 2404SOL    HW1 8111   6.655   1.278   0.427  0.9831 -2.2917  1.9194
 2404SOL    HW2 8112   6.521   1.191   0.464 -1.0469 -0.4470 -0.7268
 2405SOL     OW 8113   3.936   5.340   0.300 -0.0301 -0.1205  0.4094
 2405SOL    HW1 8114   3.854   5.337   0.243  0.9130  0.0178 -0.9969
 2405SOL    HW2 8115   3.920   5.288   0.384 -1.9698  0.9539  0.7528
 2406SOL     OW 8116   4.241   6.672   1.458 -0.0296 -0.6210 -0.5404
 2406SOL    HW1 8117   4.202   6.597   1.511 -0.7710  0.2697  0.2066
 2406SOL    HW2 8118   4.180   6.752   1.463  0.7175  0.0176 -1.3542
 2407SOL     OW 8119   0.161   6.301   2.058 -0.1883  0.1478 -0.0738
 2407SOL    HW1 8120   0.112   6.245   2.124 -0.2381  1.6133  1.2112
 2407SOL    HW2 8121   0.117   6.296   1.969 -0.5055 -1.3764  0.1556
 2408SOL     OW 8122   3.474   5.343   1.191  0.8617  0.0198  0.1917
 2408SOL    HW1 8123   3.375   5.332   1.189  0.7723  0.6088  0.8260
 2408SOL    HW2 8124   3.517   5.267   1.142  0.1403 -0.7809  0.7691
 2409SOL     OW 8125   6.902   3.664   0.336 -0.1010  0.2172 -0.2051
 2409SOL    HW1 8126   6.803   3.672   0.335 -0.2143 -1.0474  0.0015
 2409SOL    HW2 8127   6.933   3.618   0.253  0.4199  1.4679 -0.7442
 2410SOL     OW 8128   3.764   4.013   2.531 -0.0385  0.0162 -0.8891
 2410SOL    HW1 8129   3.732   4.053   2.445  0.6588  0.1537 -1.0935
 2410SOL    HW2 8130   3.720   3.924   2.545  0.5651 -0.4536 -1.8831
 2411SOL     OW 8131   6.032   0.241   3.800 -0.4565 -0.8378 -0.4045
 2411SOL    HW1 8132   6.028   0.210   3.706  0.2558 -1.0805 -0.3603
 2411SOL    HW2 8133   6.075   0.171   3.857 -1.0717 -0.7849  0.1436
 2412SOL     OW 8134   4.671   4.029   1.548  0.3439 -0.1012  0.2822
 2412SOL    HW1 8135   4.686   3.964   1.622  2.1940  0.9253  0.8809
 2412SOL    HW2 8136   4.673   4.123   1.584 -0.0272  0.3787 -0.8802
 2413SOL     OW 8137   4.783   1.089   3.686  0.3138 -0.0874 -0.6087
 2413SOL    HW1 8138   4.765   0.993   3.662 -0.3132  0.0065 -0.5422
 2413SOL    HW2 8139   4.798   1.142   3.603 -0.1502 -0.0907 -0.6975
 2414SOL     OW 8140   4.856   2.527   4.041  0.4067 -0.7314 -0.1492
 2414SOL    HW1 8141   4.878   2.578   3.957  0.4981  2.3166  1.5579
 2414SOL    HW2 8142   4.763   2.491   4.035 -0.4632  1.4302 -0.7444
 2415SOL     OW 8143   5.621   2.028   3.472  0.3830 -0.4800  0.2550
 2415SOL    HW1 8144   5.565   1.961   3.423 -2.7209  0.8295  1.7255
 2415SOL    HW2 8145   5.640   2.106   3.413  1.6454 -1.3672 -0.5731
 2416SOL     OW 8146   4.582   0.801   0.623 -0.7923 -0.1884 -0.3058
 2416SOL    HW1 8147   4.589   0.718   0.678 -1.0369  0.4533  0.7222
 2416SOL    HW2 8148   4.485   0.820   0.605 -1.0778  1.8697  2.6809
 2417SOL     OW 8149   4.365   5.460   4.672 -0.5028  0.0155 -0.0100
 2417SOL    HW1 8150   4.454   5.497   4.697 -0.5684 -0.2315  0.5948
 2417SOL    HW2 8151   4.300   5.536   4.660 -0.8472  0.0882  2.0465
 2418SOL     OW 8152   4.122   3.597   1.127 -0.0162  0.4106  0.2298
 2418SOL    HW1 8153   4.110   3.624   1.223 -1.2232 -0.0366  0.2226
 2418SOL    HW2 8154   4.181   3.517   1.122  1.1032  1.2019  0.4893
 2419SOL     OW 8155   0.451   1.871   3.343 -0.2681  0.2040 -0.7558
 2419SOL    HW1 8156   0.496   1.866   3.254 -0.2346  1.1143 -0.8059
 2419SOL    HW2 8157   0.499   1.938   3.400 -0.2465 -0.4257 -0.0230
 2420SOL     OW 8158   2.980   0.084   1.086 -0.1947 -0.2149 -0.1493
 2420SOL    HW1 8159   2.885   0.115   1.076 -0.8502 -1.9991  0.2041
 2420SOL    HW2 8160   3.017   0.118   1.172 -1.0321 -0.7333  0.4321
 2421SOL     OW 8161   4.295   1.799   2.521  0.0627  0.0988 -0.3978
 2421SOL    HW1 8162   4.215   1.744   2.546  1.6592 -2.2298 -0.1299
 2421SOL    HW2 8163   4.318   1.861   2.597 -0.7954 -0.0143 -0.0318
 2422SOL     OW 8164   5.146   1.692   1.006 -0.0935 -0.3340  0.6017
 2422SOL    HW1 8165   5.051   1.718   0.992 -0.1459 -1.2603 -1.0400
 2422SOL    HW2 8166   5.166   1.688   1.104 -1.8111 -0.3758  0.9742
 2423SOL     OW 8167   1.823   3.636   2.394 -0.2815 -0.1987  0.2810
 2423SOL    HW1 8168   1.803   3.597   2.484  1.0360 -0.8940  0.2995
 2423SOL    HW2 8169   1.757   3.601   2.328 -1.0540  0.0490  0.9063
 2424SOL     OW 8170   5.385   1.250   2.573 -0.1530  0.2752  0.5234
 2424SOL    HW1 8171   5.358   1.165   2.617  1.3841 -1.7710 -2.2140
 2424SOL    HW2 8172   5.483   1.264   2.584 -0.3040  1.4829  0.5389
 2425SOL     OW 8173   7.001   0.881   5.062  0.2521  0.5057 -0.3741
 2425SOL    HW1 8174   7.090   0.898   5.103 -0.6376  0.4215  1.7064
 2425SOL    HW2 8175   7.008   0.802   5.000  1.2085 -0.8350  1.3439
 2426SOL     OW 8176   2.819   5.111   3.567 -0.8239  0.3216 -0.2097
 2426SOL    HW1 8177   2.754   5.114   3.642 -1.9073 -0.1258 -1.0931
 2426SOL    HW2 8178   2.900   5.166   3.590 -0.4512 -0.9821  1.8572
 2427SOL     OW 8179   6.055   5.564   5.920  0.4799 -0.2976  0.1906
 2427SOL    HW1 8180   6.070   5.634   5.849  1.8809  0.4482  1.1633
 2427SOL    HW2 8181   6.013   5.483   5.878 -0.6116  0.8717 -1.0836
 2428SOL     OW 8182   6.098   2.287   0.719  0.1251  0.4297  0.0379
 2428SOL    HW1 8183   6.179   2.288   0.660  1.5150 -2.4314  1.7090
 2428SOL    HW2 8184   6.066   2.193   0.730 -2.3037  1.2931  0.9937
 2429SOL     OW 8185   3.211   5.309   2.079 -0.1430 -0.2038  0.1158
 2429SOL    HW1 8186   3.287   5.267   2.030  0.0619  0.4458 -0.1304
 2429SOL    HW2 8187   3.125   5.288   2.032  0.2332  2.1339 -1.7797
 2430SOL     OW 8188   4.038   1.660   2.111  0.5355  0.5390  0.0896
 2430SOL    HW1 8189   4.067   1.729   2.177 -0.7325  1.4385 -0.2463
 2430SOL    HW2 8190   3.973   1.701   2.047 -2.8435 -1.6280  1.8116
 2431SOL     OW 8191   5.140   6.202   1.918 -0.0426 -0.3491 -0.6807
 2431SOL    HW1 8192   5.230   6.247   1.925  0.4527 -1.3467 -0.4486
 2431SOL    HW2 8193   5.094   6.207   2.007  1.1798 -2.6210  0.1689
 2432SOL     OW 8194   1.804   3.661   0.474 -0.4670 -0.2692 -0.1910
 2432SOL    HW1 8195   1.774   3.740   0.421  1.1946 -0.2819 -1.2024
 2432SOL    HW2 8196   1.902   3.668   0.493 -0.7699 -0.8915  1.8401
 2433SOL     OW 8197   4.177   0.158   0.468  0.0977 -0.2454 -0.5812
 2433SOL    HW1 8198   4.219   0.070   0.487 -0.3719 -0.2043  0.7239
 2433SOL    HW2 8199   4.079   0.154   0.488  0.2712  0.8842  0.6593
 2434SOL     OW 8200   3.970   3.877   4.080 -0.1521 -0.4499  0.1054
 2434SOL    HW1 8201   3.964   3.938   4.159  1.6784  1.2400 -0.9687
 2434SOL    HW2 8202   4.022   3.795   4.105 -0.9102 -0.6659  1.0305
 2435SOL     OW 8203   4.996   6.760   5.654 -0.9773 -0.1187 -0.6112
 2435SOL    HW1 8204   4.931   6.826   5.616 -1.4078 -0.0876  0.1525
 2435SOL    HW2 8205   4.946   6.687   5.701 -0.5433 -1.5388 -2.2696
 2436SOL     OW 8206   2.816   4.644   0.188 -0.3034 -0.0143  0.5092
 2436SOL    HW1 8207   2.855   4.593   0.264 -0.4764  0.1731  0.7248
 2436SOL    HW2 8208   2.889   4.686   0.134 -0.1770 -0.2210  0.5188
 2437SOL     OW 8209   4.131   1.001   6.960  0.2072  0.0017  0.5115
 2437SOL    HW1 8210   4.190   1.069   7.004 -2.2178  1.8683  1.1245
 2437SOL    HW2 8211   4.055   0.978   7.022 -0.5453 -1.1574 -0.7852
 2438SOL     OW 8212   3.957   2.989   6.730 -0.1515  0.5192  0.6586
 2438SOL    HW1 8213   4.030   3.006   6.797  2.3353 -1.1584 -1.4396
 2438SOL    HW2 8214   3.987   3.020   6.640 -0.4026 -3.4810 -0.9756
 2439SOL     OW 8215   6.243   3.010   6.146 -0.5583  0.5629  0.4140
 2439SOL    HW1 8216   6.194   2.994   6.232  1.2228 -0.3646  1.3209
 2439SOL    HW2 8217   6.284   3.101   6.148 -0.3416  0.4616  0.6407
 2440SOL     OW 8218   5.966   4.325   6.092 -0.1085 -0.1554  0.3120
 2440SOL    HW1 8219   5.933   4.394   6.026  0.2185  0.3003  0.6200
 2440SOL    HW2 8220   5.933   4.348   6.183  0.0375 -0.3837  0.4227
 2441SOL     OW 8221   6.281   2.890   0.464 -0.1590 -0.3817 -0.5711
 2441SOL    HW1 8222   6.323   2.860   0.378  0.0231 -0.6640 -0.3846
 2441SOL    HW2 8223   6.247   2.810   0.514 -0.2033 -0.2230 -0.3454
 2442SOL     OW 8224   5.967   1.203   3.567  0.0598 -0.0510 -0.1389
 2442SOL    HW1 8225   6.053   1.243   3.598  1.3210 -2.8199  0.1936
 2442SOL    HW2 8226   5.966   1.201   3.467 -0.3878  1.4115 -0.1983
 2443SOL     OW 8227   1.309   4.066   4.724  0.2592 -0.0284 -0.4976
 2443SOL    HW1 8228   1.283   4.059   4.628  0.6195  0.6250 -0.6521
 2443SOL    HW2 8229   1.317   3.974   4.763 -3.2953 -0.3033 -0.1182
 2444SOL     OW 8230   2.842   2.175   5.364  0.0254  0.1574 -0.0023
 2444SOL    HW1 8231   2.813   2.112   5.435 -0.8871 -0.4793 -0.9208
 2444SOL    HW2 8232   2.936   2.205   5.383  0.8001 -2.1087  0.0306
 2445SOL     OW 8233   2.373   5.930   1.846  0.1414  0.1030 -1.1664
 2445SOL    HW1 8234   2.431   5.866   1.897 -0.4287 -0.1930 -0.8782
 2445SOL    HW2 8235   2.328   5.881   1.771  2.3960  0.9070 -3.1663
 2446SOL     OW 8236   3.137   1.656   0.895  0.1651  0.0083  0.1015
 2446SOL    HW1 8237   3.206   1.640   0.965  2.4285  1.5696 -1.5930
 2446SOL    HW2 8238   3.125   1.755   0.882  1.1332 -0.1289 -2.7441
 2447SOL     OW 8239   0.853   2.202   6.160  0.6060  0.5913 -0.5908
 2447SOL    HW1 8240   0.759   2.205   6.194 -0.5071 -1.1509 -3.1426
 2447SOL    HW2 8241   0.879   2.292   6.125  0.3177  1.3606  1.0982
 2448SOL     OW 8242   5.999   0.434   5.378  0.5260 -0.1594 -1.0008
 2448SOL    HW1 8243   6.056   0.367   5.426  0.6261  1.2186  0.9451
 2448SOL    HW2 8244   6.007   0.522   5.424 -1.8630  0.4948 -1.7185
 2449SOL     OW 8245   2.065   1.631   4.398 -0.5387 -0.0340 -0.3258
 2449SOL    HW1 8246   2.124   1.595   4.471  3.0654 -0.4628 -3.1561
 2449SOL    HW2 8247   2.017   1.555   4.355 -0.5218 -0.1545 -0.1375
 2450SOL     OW 8248   0.991   2.926   2.252  0.2982 -0.1882  0.0382
 2450SOL    HW1 8249   1.052   2.855   2.217  0.3212 -0.3593  0.4273
 2450SOL    HW2 8250   1.014   3.013   2.209  0.7864 -0.2594  0.1495
 2451SOL     OW 8251   0.495   4.278   3.057 -0.3495 -0.1561 -0.1853
 2451SOL    HW1 8252   0.440   4.250   3.136 -0.4747 -1.0956 -0.6044
 2451SOL    HW2 8253   0.590   4.250   3.071 -0.0145  1.1653  0.3814
 2452SOL     OW 8254   2.419   2.856   5.616  0.2211  0.3172 -0.4787
 2452SOL    HW1 8255   2.513   2.883   5.637 -0.4018  1.2225  1.3864
 2452SOL    HW2 8256   2.398   2.879   5.521  1.5950  0.9598 -0.6502
 2453SOL     OW 8257   0.620   3.987   2.608 -0.7998  0.4158 -0.0435
 2453SOL    HW1 8258   0.627   4.057   2.679 -1.7135  0.0248  0.4513
 2453SOL    HW2 8259   0.651   3.899   2.645 -1.6628  0.1244  0.0252
 2454SOL     OW 8260   0.521   1.274   3.850 -0.2402  0.0586 -0.1986
 2454SOL    HW1 8261   0.565   1.288   3.939  2.8342 -1.9420 -1.2410
 2454SOL    HW2 8262   0.553   1.344   3.786 -1.8320  1.0107 -0.0264
 2455SOL     OW 8263   4.166   5.090   0.459 -0.8481 -0.0737  0.0498
 2455SOL    HW1 8264   4.184   4.994   0.481  0.2713 -0.1489 -1.0698
 2455SOL    HW2 8265   4.207   5.148   0.529 -2.6029 -0.3907  1.4275
 2456SOL     OW 8266   2.822   0.751   0.991 -0.0901 -0.3842  0.0726
 2456SOL    HW1 8267   2.861   0.805   1.065  0.1939  0.2785 -0.5515
 2456SOL    HW2 8268   2.726   0.778   0.977  0.8787  2.2357 -2.2691
 2457SOL     OW 8269   4.900   5.849   1.579 -0.2334  0.5050 -0.3616
 2457SOL    HW1 8270   4.934   5.934   1.537 -0.7646  0.9940  0.1895
 2457SOL    HW2 8271   4.958   5.773   1.551  1.7018  1.3983  1.0036
 2458SOL     OW 8272   0.389   6.952   1.622 -0.5185 -0.5875 -0.2507
 2458SOL    HW1 8273   0.301   6.996   1.637 -0.1586 -0.2505  0.9960
 2458SOL    HW2 8274   0.399   6.930   1.525 -0.5991  2.3571 -1.0260
 2459SOL     OW 8275   1.271   1.367   6.835  0.0408  0.0596 -0.4023
 2459SOL    HW1 8276   1.266   1.422   6.752 -1.0599 -1.4493 -1.3842
 2459SOL    HW2 8277   1.237   1.421   6.912  0.0646  1.1159 -1.1011
 2460SOL     OW 8278   2.921   4.329   6.705  0.4648  0.1869  0.7988
 2460SOL    HW1 8279   2.883   4.236   6.698 -0.3094  0.5177  0.5489
 2460SOL    HW2 8280   2.859   4.387   6.757 -0.3904  1.2535 -1.3022
 2461SOL     OW 8281   4.838   3.075   4.585 -0.2806 -0.1649  0.0836
 2461SOL    HW1 8282   4.825   3.040   4.492  1.9235  0.3686 -0.4736
 2461SOL    HW2 8283   4.760   3.133   4.610 -0.5738  0.2848 -1.7330
 2462SOL     OW 8284   3.032   4.289   6.451  0.3517 -0.6324  0.0743
 2462SOL    HW1 8285   2.976   4.331   6.523  1.8421  0.2176  0.7818
 2462SOL    HW2 8286   3.050   4.194   6.475  1.8375 -0.0341  1.4925
 2463SOL     OW 8287   1.794   4.782   4.675 -0.9324 -0.2127 -0.2634
 2463SOL    HW1 8288   1.823   4.822   4.762 -0.2120 -0.7153 -0.2656
 2463SOL    HW2 8289   1.830   4.689   4.667 -1.8997 -0.5637 -0.6271
 2464SOL     OW 8290   0.678   3.892   1.735 -0.1263  0.0952 -0.4545
 2464SOL    HW1 8291   0.729   3.858   1.656  1.7309 -1.1192  1.1826
 2464SOL    HW2 8292   0.717   3.980   1.763  0.8635 -0.6125  0.5103
 2465SOL     OW 8293   5.279   4.569   3.108 -0.5879  0.1859 -0.2938
 2465SOL    HW1 8294   5.284   4.643   3.040 -1.1010  0.6047  0.1174
 2465SOL    HW2 8295   5.329   4.490   3.074 -0.6843  0.4527 -1.0811
 2466SOL     OW 8296   4.664   1.871   0.367 -0.5116  0.0907  0.3146
 2466SOL    HW1 8297   4.687   1.788   0.316 -0.5103  0.1634  0.1968
 2466SOL    HW2 8298   4.746   1.906   0.413 -0.4568  0.1767  0.1478
 2467SOL     OW 8299   6.843   0.536   4.451 -0.6568 -0.3168  0.1763
 2467SOL    HW1 8300   6.867   0.545   4.547 -2.0223  1.3397  0.3939
 2467SOL    HW2 8301   6.906   0.591   4.396  0.1666 -1.3182  0.0894
 2468SOL     OW 8302   0.183   5.047   6.553 -0.0201 -0.4878 -0.5305
 2468SOL    HW1 8303   0.102   5.076   6.604 -0.8636 -4.4308  0.6910
 2468SOL    HW2 8304   0.174   5.076   6.458 -1.9712  0.7441 -0.0343
 2469SOL     OW 8305   4.138   1.247   6.120 -0.1126  0.1685 -0.1241
 2469SOL    HW1 8306   4.232   1.231   6.152 -0.3164 -2.4635 -0.6339
 2469SOL    HW2 8307   4.141   1.297   6.033  0.6727  1.9554  0.8614
 2470SOL     OW 8308   4.440   2.821   1.409  0.1329  0.2107  0.0664
 2470SOL    HW1 8309   4.363   2.882   1.426 -0.2094 -0.3315  0.5136
 2470SOL    HW2 8310   4.526   2.871   1.421 -0.1431  0.6292  0.3350
 2471SOL     OW 8311   1.992   0.017   3.580  0.2827 -0.1989  0.0496
 2471SOL    HW1 8312   1.945  -0.055   3.631 -0.2517  0.5164  0.5870
 2471SOL    HW2 8313   1.997   0.100   3.635  0.3188  0.3772 -0.7918
 2472SOL     OW 8314   0.395   3.094   5.974  0.1513  0.5438 -0.5980
 2472SOL    HW1 8315   0.392   2.995   5.962  1.1000  0.0146  2.4636
 2472SOL    HW2 8316   0.302   3.131   5.974 -0.2652 -0.4758 -0.9262
 2473SOL     OW 8317   2.616   4.642   5.033  0.2417  0.0695  0.5363
 2473SOL    HW1 8318   2.561   4.592   5.100  0.1533  0.0185  0.4258
 2473SOL    HW2 8319   2.712   4.617   5.043 -0.0446 -1.8030 -0.9737
 2474SOL     OW 8320   5.074   6.062   5.421 -0.6122 -0.8049 -0.0673
 2474SOL    HW1 8321   5.011   5.984   5.420 -2.6904  0.7337 -2.6228
 2474SOL    HW2 8322   5.022   6.147   5.433  1.2254  0.4022 -0.2657
 2475SOL     OW 8323   4.209   3.847   5.814 -0.0129 -0.0631 -0.5330
 2475SOL    HW1 8324   4.287   3.859   5.876 -0.4924  0.5531 -0.0423
 2475SOL    HW2 8325   4.217   3.759   5.767  0.5448 -0.3752  0.1328
 2476SOL     OW 8326   2.050   0.794   4.000  0.2336 -0.4970  0.1053
 2476SOL    HW1 8327   1.982   0.796   4.074  0.5553  1.0509  0.4065
 2476SOL    HW2 8328   2.004   0.781   3.913 -0.1670 -2.2445  0.5414
 2477SOL     OW 8329   4.425   5.095   3.066 -0.7799  0.2721  0.0140
 2477SOL    HW1 8330   4.326   5.080   3.061 -0.9075  0.8116  0.7571
 2477SOL    HW2 8331   4.466   5.074   2.977 -1.1405 -2.7279  0.4754
 2478SOL     OW 8332   4.266   1.051   3.342  0.0377 -0.7604  0.4411
 2478SOL    HW1 8333   4.336   1.081   3.407 -0.1865 -1.0248  0.8134
 2478SOL    HW2 8334   4.175   1.063   3.382 -0.1546 -0.0419 -0.1996
 2479SOL     OW 8335   0.810   1.154   0.225  0.0652  0.5024 -0.2154
 2479SOL    HW1 8336   0.894   1.109   0.255 -0.9508 -0.3233  1.6074
 2479SOL    HW2 8337   0.775   1.110   0.142  1.0766  0.4266 -0.6059
 2480SOL     OW 8338   6.811   4.881   1.412  0.1016 -0.0291 -0.0480
 2480SOL    HW1 8339   6.910   4.879   1.424  0.3716  1.1576 -1.6752
 2480SOL    HW2 8340   6.780   4.792   1.378  0.5222 -0.5544  0.8972
 2481SOL     OW 8341   4.546   4.864   3.485 -0.0575  0.0124 -0.4266
 2481SOL    HW1 8342   4.628   4.832   3.437  0.6065  1.6149 -0.4248
 2481SOL    HW2 8343   4.486   4.911   3.420 -0.7948 -0.7704 -0.3370
 2482SOL     OW 8344   5.065   3.021   3.887 -0.9339  0.1561  0.2912
 2482SOL    HW1 8345   5.109   3.002   3.799 -3.2416 -2.9053 -0.3807
 2482SOL    HW2 8346   5.135   3.031   3.958  0.9181  0.7240 -1.4971
 2483SOL     OW 8347   1.298   2.997   0.964 -0.7851 -0.3702  0.1289
 2483SOL    HW1 8348   1.270   3.078   0.912 -0.8795 -0.4156  0.1082
 2483SOL    HW2 8349   1.355   3.024   1.041  2.2245 -0.4910 -1.8500
 2484SOL     OW 8350   3.724   5.156   5.371 -0.5151  0.1769 -0.0328
 2484SOL    HW1 8351   3.811   5.112   5.394 -0.3066 -0.4134 -1.7591
 2484SOL    HW2 8352   3.667   5.162   5.452 -0.0579 -2.1868  0.5451
 2485SOL     OW 8353   1.783   6.091   5.980 -0.1296 -0.0697  0.0120
 2485SOL    HW1 8354   1.825   6.047   5.900 -0.1995 -0.1007 -0.0082
 2485SOL    HW2 8355   1.683   6.091   5.969 -0.3451 -2.3275  1.2078
 2486SOL     OW 8356   1.572   3.746   3.689 -0.0478  0.3621  0.0314
 2486SOL    HW1 8357   1.477   3.720   3.709 -0.7631  3.4295  1.0457
 2486SOL    HW2 8358   1.633   3.672   3.719 -2.0177 -1.3028  0.1948
 2487SOL     OW 8359   1.792   6.961   1.627 -0.0601 -0.1115  0.0281
 2487SOL    HW1 8360   1.765   6.958   1.723  2.0001 -0.2471  0.6344
 2487SOL    HW2 8361   1.735   6.897   1.574 -0.6939 -0.6141  1.2874
 2488SOL     OW 8362   4.002   5.593   5.613  0.3687 -0.3436  0.4149
 2488SOL    HW1 8363   3.995   5.641   5.526  0.5400 -1.1423 -0.0507
 2488SOL    HW2 8364   4.052   5.507   5.600 -0.6866 -1.0755  1.0483
 2489SOL     OW 8365   6.554   5.544   4.688 -0.0683 -0.1789  0.1307
 2489SOL    HW1 8366   6.498   5.618   4.726  0.3231  1.0107 -1.4936
 2489SOL    HW2 8367   6.649   5.574   4.682  0.1074 -0.8377 -0.5064
 2490SOL     OW 8368   5.531   4.143   1.603  0.4943 -0.4318 -0.1884
 2490SOL    HW1 8369   5.535   4.047   1.575 -0.7937 -0.9565  1.2667
 2490SOL    HW2 8370   5.463   4.153   1.676  0.7872  1.5541 -0.1467
 2491SOL     OW 8371   5.560   4.915   1.785 -0.3050  0.1527  0.0139
 2491SOL    HW1 8372   5.540   4.995   1.842  0.0639  0.4922 -0.3329
 2491SOL    HW2 8373   5.515   4.925   1.697 -1.1613 -0.5320  0.3533
 2492SOL     OW 8374   3.867   1.946   0.663 -0.0520 -0.2907 -0.2961
 2492SOL    HW1 8375   3.843   1.852   0.687 -0.4309 -0.2489 -0.4932
 2492SOL    HW2 8376   3.922   1.986   0.736  1.1507 -1.0492 -0.7502
 2493SOL     OW 8377   6.166   6.935   4.943  0.0226 -0.1034 -0.0245
 2493SOL    HW1 8378   6.114   6.939   5.028  0.5320 -1.5337  0.3769
 2493SOL    HW2 8379   6.114   6.882   4.875  0.2682 -0.2329 -0.1138
 2494SOL     OW 8380   5.087   6.026   6.748  0.0253 -0.4982  0.1347
 2494SOL    HW1 8381   5.040   6.028   6.660  1.8327 -1.0799 -0.9206
 2494SOL    HW2 8382   5.078   5.935   6.788  2.2313 -1.4670 -1.3160
 2495SOL     OW 8383   1.665   6.096   1.668  0.1695 -0.4503 -0.0617
 2495SOL    HW1 8384   1.659   6.123   1.764  1.4542  2.6654 -0.7543
 2495SOL    HW2 8385   1.743   6.035   1.655  1.3002  0.8050  0.5889
 2496SOL     OW 8386   0.767   4.194   6.733  0.0855 -0.2465  0.1663
 2496SOL    HW1 8387   0.783   4.283   6.775  0.3358  0.1183 -0.6637
 2496SOL    HW2 8388   0.731   4.130   6.801  1.3217  0.0503  1.1346
 2497SOL     OW 8389   0.038   2.567   0.386  0.1289 -0.0710  0.1310
 2497SOL    HW1 8390   0.102   2.511   0.439 -1.2828  0.9521  3.1435
 2497SOL    HW2 8391  -0.051   2.523   0.383 -0.2361  0.6582 -0.0029
 2498SOL     OW 8392   1.647   2.156   5.216 -0.6206  0.4116  0.3224
 2498SOL    HW1 8393   1.746   2.155   5.233 -0.6795 -0.6976  0.6866
 2498SOL    HW2 8394   1.625   2.233   5.156  0.6261  0.0620 -0.6481
 2499SOL     OW 8395   4.467   1.152   6.870  0.0708  0.7553  0.5922
 2499SOL    HW1 8396   4.556   1.120   6.838 -0.9512 -0.5195 -1.2166
 2499SOL    HW2 8397   4.414   1.074   6.904 -0.7982  1.2820  0.4778
 2500SOL     OW 8398   5.489   3.901   4.196 -0.1682  0.6129  0.0787
 2500SOL    HW1 8399   5.549   3.964   4.147  0.9923 -0.8688 -0.4846
 2500SOL    HW2 8400   5.455   3.832   4.133 -0.3303 -0.1075  0.9397
 2501SOL     OW 8401   6.789   5.143   1.794  0.4805 -0.1898 -0.1144
 2501SOL    HW1 8402   6.694   5.132   1.824  0.0800  2.1642 -0.3219
 2501SOL    HW2 8403   6.830   5.220   1.843  1.8788 -0.3502 -0.9815
 2502SOL     OW 8404   0.871   0.996   3.899  0.1524  0.0684  0.0212
 2502SOL    HW1 8405   0.821   1.004   3.813  0.3528  1.0863 -0.0023
 2502SOL    HW2 8406   0.807   0.972   3.972 -0.2117  0.3676 -0.1948
 2503SOL     OW 8407   4.302   0.564   4.715 -0.3558 -0.1381  0.5296
 2503SOL    HW1 8408   4.375   0.581   4.782 -1.1663 -1.1123  1.6925
 2503SOL    HW2 8409   4.213   0.580   4.757 -0.8696 -0.1232 -0.5266
 2504SOL     OW 8410   2.535   4.844   3.917  0.0851  0.1577  0.4756
 2504SOL    HW1 8411   2.613   4.805   3.869 -0.0930 -0.3474  0.5894
 2504SOL    HW2 8412   2.476   4.892   3.852  0.7489  0.9738  0.4698
 2505SOL     OW 8413   4.397   4.783   3.052 -0.1587 -0.3329  0.6662
 2505SOL    HW1 8414   4.451   4.836   2.986 -2.0051 -0.5119 -1.1048
 2505SOL    HW2 8415   4.362   4.843   3.123 -1.6501  0.7902 -0.9273
 2506SOL     OW 8416   1.454   0.875   5.865  0.2591  0.1490 -0.9244
 2506SOL    HW1 8417   1.503   0.920   5.790  0.1021 -0.2526 -1.2691
 2506SOL    HW2 8418   1.487   0.782   5.876 -0.0489  0.0512 -0.8065
 2507SOL     OW 8419   6.264   6.525   6.581 -0.2365 -0.0573 -0.1957
 2507SOL    HW1 8420   6.323   6.512   6.661  1.6988  1.3744 -1.2849
 2507SOL    HW2 8421   6.297   6.604   6.529 -2.8943  0.5167 -1.1388
 2508SOL     OW 8422   2.466   1.875   1.192 -0.4960 -0.2549 -0.3487
 2508SOL    HW1 8423   2.505   1.959   1.155  0.9399  0.2077  2.0085
 2508SOL    HW2 8424   2.503   1.859   1.284 -1.3001 -3.0703 -0.4288
 2509SOL     OW 8425   4.807   1.730   2.860 -0.5178  0.5340 -0.1726
 2509SOL    HW1 8426   4.775   1.698   2.771 -0.3258  2.5245 -1.0169
 2509SOL    HW2 8427   4.749   1.805   2.891 -0.7854 -0.3511  1.5717
 2510SOL     OW 8428   3.650   6.477   2.091  0.3925 -0.1487  0.3935
 2510SOL    HW1 8429   3.728   6.434   2.136  2.0186  0.9979 -1.1863
 2510SOL    HW2 8430   3.648   6.449   1.995 -2.6170 -2.0431  0.8670
 2511SOL     OW 8431   0.869   5.874   4.165  0.8409  0.3718 -0.1510
 2511SOL    HW1 8432   0.826   5.784   4.165  1.2685  0.1530  0.5867
 2511SOL    HW2 8433   0.909   5.891   4.255  2.1508  0.6349 -0.7581
 2512SOL     OW 8434   1.571   4.470   2.686  0.2276  0.2449  0.0823
 2512SOL    HW1 8435   1.615   4.380   2.679 -0.4261  0.0418 -2.7460
 2512SOL    HW2 8436   1.478   4.464   2.651  0.1570  2.0351 -0.1368
 2513SOL     OW 8437   0.801   4.533   1.013  0.1110 -0.0241 -0.1872
 2513SOL    HW1 8438   0.734   4.583   1.069 -1.4918 -0.8914 -1.2923
 2513SOL    HW2 8439   0.870   4.598   0.979 -0.8659  1.1155 -0.0626
 2514SOL     OW 8440   2.058   3.153   5.913 -0.0501 -0.0659 -0.0488
 2514SOL    HW1 8441   2.105   3.079   5.865 -1.1772 -0.9987  0.2508
 2514SOL    HW2 8442   2.096   3.241   5.884  0.7758 -0.7144 -0.9896
 2515SOL     OW 8443   0.636   6.273   6.275  0.0392  0.0581  0.3755
 2515SOL    HW1 8444   0.726   6.261   6.235 -0.1019 -1.5511  0.4507
 2515SOL    HW2 8445   0.583   6.338   6.221  0.7830 -0.0099 -0.4539
 2516SOL     OW 8446   3.116   0.327   4.744  0.3753  0.0272 -0.5041
 2516SOL    HW1 8447   3.198   0.354   4.793 -0.6125 -1.0025  1.8620
 2516SOL    HW2 8448   3.081   0.406   4.693  1.5663  1.1053  0.2816
 2517SOL     OW 8449   1.148   5.595   6.276 -0.1828  0.1527  0.1464
 2517SOL    HW1 8450   1.204   5.670   6.240  0.9441 -1.2749 -1.2036
 2517SOL    HW2 8451   1.160   5.589   6.375  1.3905  0.4363 -0.0087
 2518SOL     OW 8452   2.140   1.694   5.119 -0.0382  0.4016  0.1822
 2518SOL    HW1 8453   2.058   1.672   5.066  1.6639  1.1637 -3.0000
 2518SOL    HW2 8454   2.129   1.783   5.162  0.4013  2.4086 -3.4939
 2519SOL     OW 8455   6.562   2.886   3.602 -0.1489 -0.2189  0.0249
 2519SOL    HW1 8456   6.649   2.852   3.637 -0.4891  0.3084  1.4283
 2519SOL    HW2 8457   6.567   2.894   3.502  0.6371 -2.3405 -0.1522
 2520SOL     OW 8458   3.598   5.444   6.529  0.6752 -0.6982 -0.6692
 2520SOL    HW1 8459   3.533   5.501   6.579  0.7743 -2.0967  1.1206
 2520SOL    HW2 8460   3.675   5.501   6.499  0.1728  0.3475 -0.0371
 2521SOL     OW 8461   4.857   5.760   4.959  0.2181  0.5558  0.4071
 2521SOL    HW1 8462   4.889   5.829   5.024 -0.8445  0.8200  0.6594
 2521SOL    HW2 8463   4.772   5.791   4.916  0.2605 -0.1544 -0.2208
 2522SOL     OW 8464   2.299   4.845   4.775  0.2518 -0.5515  0.2006
 2522SOL    HW1 8465   2.284   4.747   4.788  0.5990 -0.5306  0.7869
 2522SOL    HW2 8466   2.281   4.893   4.861 -1.1358  0.0539 -0.3923
 2523SOL     OW 8467   1.440   1.780   0.219 -0.3717 -0.2147  0.0641
 2523SOL    HW1 8468   1.451   1.714   0.144 -0.6289  0.6915 -0.7881
 2523SOL    HW2 8469   1.521   1.776   0.278  0.1217 -0.5089 -0.6129
 2524SOL     OW 8470   1.651   0.436   4.686 -0.6778  0.0667  0.3451
 2524SOL    HW1 8471   1.571   0.475   4.732  1.2202  2.6933  1.6647
 2524SOL    HW2 8472   1.664   0.341   4.716 -2.0508  0.2932  1.7756
 2525SOL     OW 8473   2.378   4.028   0.619 -1.2378  0.2134 -0.1877
 2525SOL    HW1 8474   2.476   4.033   0.598 -1.3853 -0.6821 -1.1688
 2525SOL    HW2 8475   2.366   4.028   0.718 -0.3229  1.5564 -0.0514
 2526SOL     OW 8476   1.061   1.248   5.342 -0.6737 -0.0606 -0.0204
 2526SOL    HW1 8477   1.068   1.176   5.273  1.7112  0.1546 -0.0945
 2526SOL    HW2 8478   1.109   1.218   5.425 -0.9339  0.8617  0.4714
 2527SOL     OW 8479   1.423   6.037   3.311  0.4584 -0.0157  0.2506
 2527SOL    HW1 8480   1.460   6.129   3.318 -0.0399  0.1592  0.7371
 2527SOL    HW2 8481   1.495   5.970   3.327  0.7545  0.2958  0.2262
 2528SOL     OW 8482   4.741   6.750   0.911  0.3095 -0.3560 -0.4939
 2528SOL    HW1 8483   4.816   6.742   0.845 -0.9106  1.3658 -2.2004
 2528SOL    HW2 8484   4.702   6.659   0.927  0.9211 -0.8957 -1.8364
 2529SOL     OW 8485   5.123   4.638   3.309 -0.7954  0.4136 -0.1947
 2529SOL    HW1 8486   5.203   4.609   3.256 -0.7566 -0.3688  0.2715
 2529SOL    HW2 8487   5.063   4.693   3.252 -1.4431 -1.5500 -1.5038
 2530SOL     OW 8488   1.641   5.532   3.607 -0.4044 -0.7613  0.3999
 2530SOL    HW1 8489   1.683   5.608   3.558 -0.7922 -1.2765 -0.7701
 2530SOL    HW2 8490   1.703   5.500   3.679 -0.1765  0.5474  0.8060
 2531SOL     OW 8491   4.789   1.794   4.814  0.6283 -0.4512 -0.7681
 2531SOL    HW1 8492   4.721   1.721   4.813  1.3137 -1.1640  0.8164
 2531SOL    HW2 8493   4.820   1.813   4.721 -2.0963  0.2771 -1.6283
 2532SOL     OW 8494   0.056   6.183   4.337  0.7265 -0.2577 -0.3006
 2532SOL    HW1 8495  -0.003   6.152   4.411  0.1448  1.7183  0.1302
 2532SOL    HW2 8496   0.151   6.180   4.367  0.6595 -1.1779 -0.1432
 2533SOL     OW 8497   6.028   6.462   3.038 -0.0260  0.1530 -0.9809
 2533SOL    HW1 8498   6.053   6.451   3.135  0.5057  0.5598 -1.0689
 2533SOL    HW2 8499   5.928   6.460   3.029 -0.1198 -3.4687 -0.8273
 2534SOL     OW 8500   0.913   6.825   2.143 -0.8042  0.6267 -0.8552
 2534SOL    HW1 8501   0.887   6.920   2.158  0.3232  0.9655 -0.9538
 2534SOL    HW2 8502   0.880   6.769   2.218  0.8458  1.5539  0.6415
 2535SOL     OW 8503   4.831   6.688   3.149 -0.0802  0.1800 -0.7194
 2535SOL    HW1 8504   4.894   6.627   3.099  0.1213  0.2133 -0.5086
 2535SOL    HW2 8505   4.820   6.655   3.243  0.1893  0.5817 -0.5423
 2536SOL     OW 8506   0.374   0.329   3.772 -0.1050  0.3098  0.6306
 2536SOL    HW1 8507   0.363   0.315   3.871  1.2085 -1.3823  0.5744
 2536SOL    HW2 8508   0.304   0.278   3.723 -0.0172  0.1620  0.6583
 2537SOL     OW 8509   1.765   4.335   1.781  0.1373  0.4957  0.2521
 2537SOL    HW1 8510   1.825   4.255   1.784 -0.3523  0.1483  2.2311
 2537SOL    HW2 8511   1.803   4.408   1.838 -1.2534  0.2686  1.5453
 2538SOL     OW 8512   0.136   6.427   6.740 -0.2441 -0.5434 -0.1152
 2538SOL    HW1 8513   0.205   6.486   6.782 -0.7583  0.0302 -0.0553
 2538SOL    HW2 8514   0.113   6.353   6.803 -0.7904  0.1366  0.5140
 2539SOL     OW 8515   6.739   6.726   4.907 -0.5055  0.0549 -0.2225
 2539SOL    HW1 8516   6.724   6.795   4.978 -1.8504 -1.6162  1.2199
 2539SOL    HW2 8517   6.654   6.712   4.857 -0.8922 -1.9227  0.8654
 2540SOL     OW 8518   5.012   1.958   2.038 -0.2043 -0.2776 -0.5496
 2540SOL    HW1 8519   4.928   1.928   1.992  0.7105 -0.6943 -1.9963
 2540SOL    HW2 8520   5.028   2.055   2.019 -1.7151  0.5562  1.9107
 2541SOL     OW 8521   3.384   0.436   6.507  0.1233 -0.1788  0.1673
 2541SOL    HW1 8522   3.286   0.453   6.496  0.3057  1.8818  1.0682
 2541SOL    HW2 8523   3.435   0.494   6.443  0.7588 -0.1345  0.6991
 2542SOL     OW 8524   1.857   1.984   1.909 -0.2177 -0.0797 -0.4028
 2542SOL    HW1 8525   1.902   2.050   1.850 -0.2088 -1.2561 -1.7777
 2542SOL    HW2 8526   1.858   1.894   1.866 -0.8368 -0.8550  1.0933
 2543SOL     OW 8527   5.711   6.387   5.342  0.0537 -0.8079  0.4516
 2543SOL    HW1 8528   5.776   6.312   5.338  0.0711 -0.7615 -0.4229
 2543SOL    HW2 8529   5.757   6.473   5.322 -0.6561 -1.0545 -2.9641
 2544SOL     OW 8530   2.537   6.646   0.563  0.2597 -0.9049  0.3980
 2544SOL    HW1 8531   2.573   6.638   0.656 -0.0502 -1.1169  0.5030
 2544SOL    HW2 8532   2.581   6.578   0.504  0.2834 -0.9297  0.4439
 2545SOL     OW 8533   5.556   2.005   2.561  0.3331 -0.2814 -0.1279
 2545SOL    HW1 8534   5.565   2.046   2.471 -1.8365 -0.6402 -0.5752
 2545SOL    HW2 8535   5.631   1.940   2.576  2.1605  1.6381 -0.5709
 2546SOL     OW 8536   5.779   2.655   1.423  0.1621  0.3028 -0.1633
 2546SOL    HW1 8537   5.701   2.647   1.485  0.0973 -0.0072 -0.2838
 2546SOL    HW2 8538   5.864   2.647   1.474  0.1072 -0.3905 -0.1708
 2547SOL     OW 8539   5.631   4.646   1.085  0.0041  0.2632  0.0092
 2547SOL    HW1 8540   5.592   4.616   0.997 -1.3886  0.4436  0.5441
 2547SOL    HW2 8541   5.589   4.594   1.159  1.7224 -0.4285  0.5541
 2548SOL     OW 8542   5.917   0.541   5.092  0.2563  0.7761  0.1702
 2548SOL    HW1 8543   5.872   0.455   5.115  1.3579  0.0439 -0.2946
 2548SOL    HW2 8544   5.923   0.551   4.993  0.4163  1.2389  0.2199
 2549SOL     OW 8545   1.249   4.283   4.401 -0.5761 -0.1920 -0.2701
 2549SOL    HW1 8546   1.306   4.203   4.388  2.1451  1.6821 -0.7405
 2549SOL    HW2 8547   1.168   4.278   4.342  0.2422 -1.9310 -1.2920
 2550SOL     OW 8548   3.716   6.720   0.590  0.3504  0.6744 -0.4507
 2550SOL    HW1 8549   3.762   6.808   0.583  1.6397  0.1921  1.3709
 2550SOL    HW2 8550   3.649   6.722   0.664 -0.8758  0.6260 -1.5232
 2551SOL     OW 8551   2.547   4.343   0.735  0.2315  0.5744  0.4714
 2551SOL    HW1 8552   2.451   4.364   0.715 -0.3394 -2.0654  0.0772
 2551SOL    HW2 8553   2.594   4.316   0.651  0.3089 -1.5824  1.1449
 2552SOL     OW 8554   2.429   5.951   2.760  0.3185 -0.0373 -0.0414
 2552SOL    HW1 8555   2.399   5.917   2.849 -0.7920  1.5257  0.2169
 2552SOL    HW2 8556   2.431   6.051   2.761  1.1474 -0.0076 -1.5050
 2553SOL     OW 8557   4.069   1.323   6.808 -0.6716 -0.0671  0.8767
 2553SOL    HW1 8558   4.021   1.249   6.759  0.8065  1.5598 -3.4697
 2553SOL    HW2 8559   4.137   1.283   6.870 -0.1074 -2.4151 -1.1100
 2554SOL     OW 8560   5.319   0.420   0.866 -0.4127  0.3331  0.4402
 2554SOL    HW1 8561   5.397   0.357   0.869 -0.3205  0.2204 -2.0180
 2554SOL    HW2 8562   5.234   0.367   0.873 -0.3037  0.0605 -0.1655
 2555SOL     OW 8563   1.702   4.663   5.065 -0.2271 -0.4838  0.2981
 2555SOL    HW1 8564   1.797   4.690   5.052 -0.4325  0.0790 -0.0296
 2555SOL    HW2 8565   1.689   4.570   5.031  0.5960 -1.2306  1.8783
 2556SOL     OW 8566   0.188   1.753   3.226 -0.0457  0.0643 -0.0989
 2556SOL    HW1 8567   0.272   1.771   3.276 -0.3619  0.5743  0.2564
 2556SOL    HW2 8568   0.201   1.773   3.129 -0.7872  3.8386  0.4254
 2557SOL     OW 8569   2.302   1.924   7.013 -0.3221  0.1640  0.6128
 2557SOL    HW1 8570   2.244   1.891   7.088 -1.7271  0.5922 -0.2507
 2557SOL    HW2 8571   2.319   2.022   7.024  1.3996 -0.1986  1.5798
 2558SOL     OW 8572   0.300   4.170   1.478  0.1302  0.0745  0.0309
 2558SOL    HW1 8573   0.281   4.178   1.380 -0.3795 -1.5782 -0.0370
 2558SOL    HW2 8574   0.244   4.236   1.528 -0.7653 -0.1123 -0.6884
 2559SOL     OW 8575   5.546   4.757   4.733  0.1211  0.3900 -0.1811
 2559SOL    HW1 8576   5.609   4.811   4.789 -0.1149  0.5814 -0.0999
 2559SOL    HW2 8577   5.474   4.816   4.697 -0.2341  0.0999  0.0475
 2560SOL     OW 8578   5.001   2.998   1.822 -0.0769  0.0625  0.2852
 2560SOL    HW1 8579   4.990   2.919   1.883 -1.4460 -0.5079 -0.6560
 2560SOL    HW2 8580   4.933   3.067   1.844  0.9548  0.9064  0.9363
 2561SOL     OW 8581   5.223   0.232   3.653 -0.3817  0.5423  0.0627
 2561SOL    HW1 8582   5.173   0.175   3.718  0.2857 -0.4930 -0.2926
 2561SOL    HW2 8583   5.162   0.261   3.580 -0.7554  0.3331  0.2904
 2562SOL     OW 8584   2.556   5.989   5.183 -0.6232 -0.0754 -0.1618
 2562SOL    HW1 8585   2.601   5.946   5.261  0.4281  0.9445 -0.1781
 2562SOL    HW2 8586   2.465   5.950   5.172 -0.5659 -0.6683  1.2018
 2563SOL     OW 8587   5.776   3.022   6.513 -0.8265 -0.5081  0.3603
 2563SOL    HW1 8588   5.747   2.928   6.528 -1.2005 -0.5858 -0.7790
 2563SOL    HW2 8589   5.872   3.024   6.487 -1.1879 -0.7351 -1.0993
 2564SOL     OW 8590   1.160   6.144   1.575 -0.0111 -0.2641 -0.4931
 2564SOL    HW1 8591   1.172   6.107   1.667 -1.4349  1.0554  0.2814
 2564SOL    HW2 8592   1.199   6.236   1.571  0.3523 -0.4488 -1.3183
 2565SOL     OW 8593   4.717   6.345   0.039  0.0328 -0.6193  0.7705
 2565SOL    HW1 8594   4.642   6.279   0.039  0.1172 -0.7167  0.6607
 2565SOL    HW2 8595   4.793   6.308  -0.016 -0.3915  0.1004 -0.3367
 2566SOL     OW 8596   3.579   0.867   6.056 -0.1971  0.5087 -0.7746
 2566SOL    HW1 8597   3.610   0.949   6.007  0.2206  0.9587  0.2206
 2566SOL    HW2 8598   3.523   0.894   6.134  1.0284 -0.0568  0.3552
 2567SOL     OW 8599   1.686   6.655   4.928  0.2041 -0.3447  0.3485
 2567SOL    HW1 8600   1.648   6.743   4.900 -0.6226 -1.1079 -0.9946
 2567SOL    HW2 8601   1.773   6.640   4.881 -0.2511 -0.7742 -0.3718
 2568SOL     OW 8602   4.040   6.193   0.057 -0.8731  0.3963  0.3402
 2568SOL    HW1 8603   4.062   6.119   0.121 -1.5483  1.1943  1.5321
 2568SOL    HW2 8604   4.031   6.279   0.108  1.5703  1.6698 -1.1903
 2569SOL     OW 8605   2.464   5.565   6.288 -0.0558 -0.4065 -0.2296
 2569SOL    HW1 8606   2.525   5.537   6.214  0.0169  2.2217 -1.2518
 2569SOL    HW2 8607   2.369   5.553   6.260 -0.0386 -0.7640 -0.1511
 2570SOL     OW 8608   0.645   0.422   3.329  0.1313 -0.5511  0.5868
 2570SOL    HW1 8609   0.724   0.399   3.272  1.2949  0.1758  1.8595
 2570SOL    HW2 8610   0.590   0.340   3.344  0.5370 -1.0364 -0.4366
 2571SOL     OW 8611   3.609   5.435   1.880  0.3774 -0.7112 -0.7041
 2571SOL    HW1 8612   3.666   5.514   1.859  0.2892 -0.5017 -0.1788
 2571SOL    HW2 8613   3.573   5.396   1.795  0.7093 -0.4046 -0.9886
 2572SOL     OW 8614   2.931   6.450   1.769  0.3897 -0.3002  0.2241
 2572SOL    HW1 8615   2.844   6.486   1.803  1.3956  0.7267  1.8216
 2572SOL    HW2 8616   2.968   6.385   1.836  0.9669 -0.5747 -0.3498
 2573SOL     OW 8617   6.160   0.952   2.790 -0.2526  0.1058  0.1965
 2573SOL    HW1 8618   6.253   0.953   2.756 -0.2572  1.0757  0.2008
 2573SOL    HW2 8619   6.147   0.870   2.847 -0.1220 -1.3063 -1.6871
 2574SOL     OW 8620   5.803   5.104   3.176 -0.2676 -0.0771  0.3831
 2574SOL    HW1 8621   5.728   5.067   3.230  0.2559 -0.6046  0.7657
 2574SOL    HW2 8622   5.871   5.032   3.160  1.3323  0.9675  2.0955
 2575SOL     OW 8623   3.312   4.154   4.611  0.6196 -0.0464  0.1468
 2575SOL    HW1 8624   3.237   4.104   4.569 -1.2798  0.0889  3.0971
 2575SOL    HW2 8625   3.289   4.251   4.616  1.3825  0.1353  0.3165
 2576SOL     OW 8626   6.722   6.411   3.570  0.1445 -1.1120 -0.6465
 2576SOL    HW1 8627   6.810   6.455   3.553  0.1235 -1.2837 -1.2263
 2576SOL    HW2 8628   6.650   6.480   3.569  0.3172 -0.9095  0.2660
 2577SOL     OW 8629   0.326   0.391   0.341  0.1314 -0.6917  0.6982
 2577SOL    HW1 8630   0.245   0.363   0.391 -0.2277  1.3141  1.3225
 2577SOL    HW2 8631   0.354   0.483   0.370  1.2840 -0.4047 -1.1128
 2578SOL     OW 8632   4.248   2.805   5.618  0.0010 -0.3562 -0.6775
 2578SOL    HW1 8633   4.171   2.757   5.660  0.9636 -1.4224 -0.0813
 2578SOL    HW2 8634   4.258   2.775   5.523 -1.9798  1.8226 -1.6793
 2579SOL     OW 8635   0.105   1.749   4.903  0.4582  0.0546  0.2721
 2579SOL    HW1 8636   0.141   1.802   4.980  1.4500  1.4043 -1.0643
 2579SOL    HW2 8637   0.097   1.653   4.930  0.5696  0.5194  2.1090
 2580SOL     OW 8638   0.887   3.827   6.147 -0.2330 -0.4402 -0.1858
 2580SOL    HW1 8639   0.822   3.754   6.167 -1.0055  0.1052 -0.6326
 2580SOL    HW2 8640   0.842   3.897   6.090  0.9733 -0.4504 -1.1992
 2581SOL     OW 8641   5.237   6.915   4.730 -0.4501 -0.1248 -0.1105
 2581SOL    HW1 8642   5.171   6.892   4.802  0.2124  1.2290  0.9883
 2581SOL    HW2 8643   5.188   6.955   4.652 -1.0460 -0.3553  0.1334
 2582SOL     OW 8644   1.187   4.565   3.624  0.3398 -0.2245 -0.1054
 2582SOL    HW1 8645   1.167   4.470   3.649  1.2435 -1.3615 -3.2261
 2582SOL    HW2 8646   1.102   4.613   3.603 -0.0276 -0.7608  0.1450
 2583SOL     OW 8647   1.894   6.100   2.448  0.4896  0.6811  0.0251
 2583SOL    HW1 8648   1.974   6.047   2.479 -1.9353 -2.9254  0.7039
 2583SOL    HW2 8649   1.847   6.138   2.527 -0.4426 -0.3606 -0.0113
 2584SOL     OW 8650   2.555   6.005   3.333  0.1923 -0.0620  0.0943
 2584SOL    HW1 8651   2.623   5.953   3.281 -1.1983 -1.0628 -0.7812
 2584SOL    HW2 8652   2.510   5.944   3.399  0.0462  0.5619  0.5811
 2585SOL     OW 8653   5.578   0.520   3.176 -0.1653 -0.1644  0.0102
 2585SOL    HW1 8654   5.624   0.606   3.199  0.3800 -0.0887 -1.2757
 2585SOL    HW2 8655   5.485   0.520   3.213  0.7906 -0.2887  2.6260
 2586SOL     OW 8656   1.336   2.910   5.035  0.0467  0.1064 -0.3213
 2586SOL    HW1 8657   1.355   2.915   4.937  1.3168 -1.3382 -0.1860
 2586SOL    HW2 8658   1.281   2.829   5.054  1.1626 -0.5176  0.3320
 2587SOL     OW 8659   4.690   4.762   1.956  0.4271  0.2282 -0.1092
 2587SOL    HW1 8660   4.674   4.774   2.054  1.0040  1.8051 -0.1932
 2587SOL    HW2 8661   4.767   4.699   1.942  0.4975  0.1881  0.4385
 2588SOL     OW 8662   4.012   0.961   4.361 -0.0725  0.1147 -0.4206
 2588SOL    HW1 8663   4.072   0.943   4.439 -1.6475  0.3919  0.9133
 2588SOL    HW2 8664   3.959   1.044   4.378  1.3811  1.6822 -2.9771
 2589SOL     OW 8665   3.729   4.780   1.628  0.4970 -0.4721  0.4647
 2589SOL    HW1 8666   3.789   4.840   1.682 -0.0060  1.1066 -0.6712
 2589SOL    HW2 8667   3.664   4.734   1.689 -0.1814  1.4092  1.2248
 2590SOL     OW 8668   3.858   6.499   5.559 -0.0872 -0.1704 -0.0659
 2590SOL    HW1 8669   3.823   6.481   5.467  0.1980  0.0431 -0.2184
 2590SOL    HW2 8670   3.788   6.544   5.614 -0.4124 -0.6998 -0.0403
 2591SOL     OW 8671   6.698   0.748   1.243 -0.5689 -0.1789  0.4977
 2591SOL    HW1 8672   6.618   0.785   1.290 -0.2854  1.4272 -0.2121
 2591SOL    HW2 8673   6.775   0.811   1.252 -0.0343 -0.6221 -0.7066
 2592SOL     OW 8674   2.659   4.749   2.160  0.6703 -0.2294 -0.2426
 2592SOL    HW1 8675   2.696   4.691   2.088  0.0344  0.1529 -0.8948
 2592SOL    HW2 8676   2.593   4.697   2.215  1.2221 -0.5461  0.1311
 2593SOL     OW 8677   3.207   6.185   4.341 -0.7687  0.0038  0.3910
 2593SOL    HW1 8678   3.166   6.095   4.325 -2.9637  0.9346  0.4210
 2593SOL    HW2 8679   3.284   6.198   4.278 -1.6380 -1.1465 -0.9736
 2594SOL     OW 8680   1.706   5.477   6.224  0.3186 -0.0991  0.7056
 2594SOL    HW1 8681   1.733   5.573   6.227  2.8782 -0.7880  1.4950
 2594SOL    HW2 8682   1.736   5.436   6.138  0.1071 -0.4506  0.7947
 2595SOL     OW 8683   0.051   5.237   4.457  0.3963  0.0738 -0.0680
 2595SOL    HW1 8684  -0.024   5.299   4.481 -0.7080 -0.3065 -2.2709
 2595SOL    HW2 8685   0.072   5.247   4.360 -0.1881 -3.3523 -0.6518
 2596SOL     OW 8686   5.203   2.928   6.365 -0.0217 -0.0457 -0.0451
 2596SOL    HW1 8687   5.126   2.925   6.429  0.3620  1.6486  0.5522
 2596SOL    HW2 8688   5.169   2.950   6.274 -0.4200 -1.0633 -0.1501
 2597SOL     OW 8689   3.925   2.267   0.365 -0.2907 -0.2133  0.0981
 2597SOL    HW1 8690   3.883   2.273   0.274  1.2354 -1.3340 -0.7203
 2597SOL    HW2 8691   3.859   2.229   0.429 -2.3361  3.0221  0.1805
 2598SOL     OW 8692   6.027   6.899   3.483 -0.0472  0.0592 -0.2741
 2598SOL    HW1 8693   6.017   6.948   3.396 -1.0662  0.0629 -0.1634
 2598SOL    HW2 8694   6.046   6.803   3.464 -0.3671  0.0396 -0.5046
 2599SOL     OW 8695   4.846   5.095   4.993 -0.2030  0.1440 -0.5964
 2599SOL    HW1 8696   4.763   5.144   5.018  0.2676  1.3181 -1.2789
 2599SOL    HW2 8697   4.841   5.001   5.029 -2.5086 -0.3212 -1.8991
 2600SOL     OW 8698   0.432   2.984   6.331  0.0808 -0.3388  0.1711
 2600SOL    HW1 8699   0.434   2.891   6.367 -1.6263  0.3164  2.1188
 2600SOL    HW2 8700   0.346   2.999   6.282  0.3016  0.2641 -0.0363
 2601SOL     OW 8701   3.925   3.909   6.507  0.0235 -0.1386  0.8833
 2601SOL    HW1 8702   4.022   3.887   6.506 -0.3709 -1.9868  0.1036
 2601SOL    HW2 8703   3.914   4.009   6.512  1.9581  0.1715 -0.0060
 2602SOL     OW 8704   5.111   0.277   0.915  0.4470 -0.1622  0.0766
 2602SOL    HW1 8705   5.038   0.258   0.849 -0.8328  1.3941  0.9733
 2602SOL    HW2 8706   5.077   0.337   0.986  2.1812 -0.7282  1.4610
 2603SOL     OW 8707   6.810   3.748   6.306  0.1368  0.3094 -0.5213
 2603SOL    HW1 8708   6.900   3.762   6.264  0.4518 -0.4523 -0.1256
 2603SOL    HW2 8709   6.821   3.721   6.401 -0.4645 -0.8052 -0.7482
 2604SOL     OW 8710   4.899   3.039   2.124  0.1514 -0.0241  0.0217
 2604SOL    HW1 8711   4.981   2.983   2.119  0.1184 -0.0223 -0.6108
 2604SOL    HW2 8712   4.835   3.011   2.053 -0.0489  0.5288 -0.0218
 2605SOL     OW 8713   6.505   3.881   5.934 -0.1160 -0.3529 -0.4010
 2605SOL    HW1 8714   6.583   3.828   5.968  0.4352  0.3984 -0.4582
 2605SOL    HW2 8715   6.535   3.935   5.855 -0.0404  1.8067  1.0441
 2606SOL     OW 8716   4.995   3.658   0.584 -0.0456 -0.5672 -0.1019
 2606SOL    HW1 8717   4.923   3.723   0.562 -0.8337 -1.5258 -0.4161
 2606SOL    HW2 8718   5.084   3.704   0.579 -0.4421  0.0780 -2.1027
 2607SOL     OW 8719   0.730   6.938   1.943  0.1636 -0.5173 -0.4061
 2607SOL    HW1 8720   0.780   6.878   2.005  2.3059  0.8852 -0.6653
 2607SOL    HW2 8721   0.755   6.917   1.848  0.8539  0.6486 -0.5068
 2608SOL     OW 8722   4.418   0.928   1.060  0.4429  0.3347 -0.0243
 2608SOL    HW1 8723   4.353   0.871   1.111  0.2026  0.1430 -0.5435
 2608SOL    HW2 8724   4.475   0.979   1.125  1.6880 -1.6176  0.5255
 2609SOL     OW 8725   0.992   4.235   3.342 -0.4089  0.2575 -0.7962
 2609SOL    HW1 8726   0.931   4.162   3.374 -1.2760  0.7528 -1.2864
 2609SOL    HW2 8727   1.054   4.198   3.273 -0.8640 -0.0199 -1.0643
 2610SOL     OW 8728   5.545   4.554   5.319  0.3417 -0.0307 -0.4926
 2610SOL    HW1 8729   5.565   4.466   5.275 -0.4572 -0.7880  0.6071
 2610SOL    HW2 8730   5.479   4.604   5.262  0.5267 -0.2899 -0.9460
 2611SOL     OW 8731   1.699   5.963   2.112 -0.3568 -0.1749  0.1609
 2611SOL    HW1 8732   1.631   5.901   2.074 -2.2293  2.4401 -1.0542
 2611SOL    HW2 8733   1.759   5.913   2.175  0.3597 -3.8827 -3.0711
 2612SOL     OW 8734   0.392   4.942   5.600 -0.2217 -0.0113 -0.5931
 2612SOL    HW1 8735   0.452   4.997   5.659 -0.6910 -0.3901  0.2567
 2612SOL    HW2 8736   0.420   4.846   5.605 -0.5571 -0.1122 -0.6201
 2613SOL     OW 8737   1.927   0.457   6.490 -0.1627 -0.9003 -0.7722
 2613SOL    HW1 8738   1.844   0.476   6.542  0.7362  0.3463  0.2449
 2613SOL    HW2 8739   1.924   0.507   6.403  0.5497  1.0682  0.2914
 2614SOL     OW 8740   2.135   0.247   1.041 -0.4980 -0.9762  0.5053
 2614SOL    HW1 8741   2.216   0.189   1.029  0.9457  0.6430  1.9430
 2614SOL    HW2 8742   2.124   0.305   0.960 -1.1318 -2.2256 -0.3344
 2615SOL     OW 8743   6.373   5.121   0.764  0.2362 -0.3018 -0.2694
 2615SOL    HW1 8744   6.326   5.086   0.683  2.4747 -2.1152 -0.8958
 2615SOL    HW2 8745   6.433   5.196   0.738  1.0828 -0.9960 -0.3448
 2616SOL     OW 8746   3.493   5.560   0.404  0.2045 -0.1398  0.2026
 2616SOL    HW1 8747   3.566   5.552   0.336  1.4082 -3.2650  1.6714
 2616SOL    HW2 8748   3.495   5.652   0.444  0.8273  1.0726 -2.3875
 2617SOL     OW 8749   2.930   6.628   0.723  0.1749 -0.6075  0.8128
 2617SOL    HW1 8750   2.941   6.649   0.820  1.1592 -0.8991  0.7788
 2617SOL    HW2 8751   2.845   6.578   0.709 -0.1632 -0.2233  1.4722
 2618SOL     OW 8752   1.204   5.468   6.567 -0.3480 -0.2144  0.0295
 2618SOL    HW1 8753   1.295   5.510   6.569 -0.8194  0.8363 -0.1893
 2618SOL    HW2 8754   1.172   5.454   6.661 -1.0087  1.7861  0.1525
 2619SOL     OW 8755   0.507   1.186   1.300 -0.1760  0.4645  0.4621
 2619SOL    HW1 8756   0.434   1.129   1.264  0.0233  0.7440 -0.3951
 2619SOL    HW2 8757   0.535   1.253   1.231 -0.9223  2.1147  1.6650
 2620SOL     OW 8758   0.382   5.929   3.401  0.0186  0.1298  0.0653
 2620SOL    HW1 8759   0.470   5.904   3.360  0.9745  1.6202  1.1026
 2620SOL    HW2 8760   0.390   6.019   3.445 -2.0538  0.3293  0.1307
 2621SOL     OW 8761   0.965   6.279   4.438 -0.2227 -0.2461  0.0054
 2621SOL    HW1 8762   1.025   6.234   4.503  0.1724 -1.9286 -1.4452
 2621SOL    HW2 8763   1.012   6.288   4.350 -1.0534  1.1504 -0.3305
 2622SOL     OW 8764   2.159   1.528   3.160  0.4134  0.1769 -0.4488
 2622SOL    HW1 8765   2.215   1.541   3.079 -0.4319 -2.2714 -1.5097
 2622SOL    HW2 8766   2.219   1.511   3.239  1.2373 -0.6959 -1.2267
 2623SOL     OW 8767   3.334   6.829   5.621  0.3271 -0.3660  0.1350
 2623SOL    HW1 8768   3.405   6.877   5.673  0.4883 -0.1483 -0.2830
 2623SOL    HW2 8769   3.336   6.860   5.526  0.1757 -0.9218 -0.0490
 2624SOL     OW 8770   6.138   3.583   5.589 -0.0421 -0.1825 -0.4874
 2624SOL    HW1 8771   6.128   3.496   5.540  0.2810 -1.7730  2.0727
 2624SOL    HW2 8772   6.235   3.608   5.593  0.2305 -1.2935  1.1731
 2625SOL     OW 8773   1.429   0.805   6.809  0.1153  0.1454 -0.4354
 2625SOL    HW1 8774   1.358   0.875   6.794 -0.6177 -0.3930  0.4327
 2625SOL    HW2 8775   1.486   0.798   6.727 -1.4792 -0.1400 -1.5785
 2626SOL     OW 8776   1.787   0.965   2.697 -0.1831  0.3442 -0.4496
 2626SOL    HW1 8777   1.852   0.947   2.772 -0.3543  0.5324 -0.2554
 2626SOL    HW2 8778   1.802   1.058   2.662  1.5587 -0.5396 -2.2977
 2627SOL     OW 8779   6.907   1.708   5.435 -0.1821 -0.5480  0.8361
 2627SOL    HW1 8780   6.866   1.659   5.512  0.4066 -1.8207  0.3731
 2627SOL    HW2 8781   6.837   1.722   5.364 -0.5209 -0.1175  1.2545
 2628SOL     OW 8782   4.965   5.440   6.167 -0.3223  0.3262 -0.5184
 2628SOL    HW1 8783   4.881   5.398   6.201  0.0727  0.7255  1.0180
 2628SOL    HW2 8784   5.042   5.379   6.185 -0.2258  0.0662 -1.7101
 2629SOL     OW 8785   2.944   3.476   3.428 -0.1539 -0.3287 -0.5207
 2629SOL    HW1 8786   3.021   3.513   3.481 -0.1712  1.6234 -1.7456
 2629SOL    HW2 8787   2.960   3.494   3.331 -0.3358 -3.3958 -1.2095
 2630SOL     OW 8788   1.999   1.707   1.234 -0.1954  0.3008 -0.2805
 2630SOL    HW1 8789   2.095   1.711   1.205 -0.1307 -0.9645 -0.3021
 2630SOL    HW2 8790   1.975   1.792   1.280  1.1669  0.3473  0.4034
 2631SOL     OW 8791   3.033   0.774   3.768  0.2918 -0.2256  0.0130
 2631SOL    HW1 8792   3.066   0.716   3.842  2.4030  0.3893 -0.3737
 2631SOL    HW2 8793   3.030   0.721   3.683 -0.1698 -0.3981  0.1339
 2632SOL     OW 8794   4.237   1.604   1.932 -0.2649 -0.1176  0.0747
 2632SOL    HW1 8795   4.269   1.510   1.943 -1.6804 -0.4782  1.5056
 2632SOL    HW2 8796   4.184   1.631   2.012 -0.8229  1.5359 -0.7983
 2633SOL     OW 8797   0.868   2.602   1.474 -0.5024  0.3505 -0.7600
 2633SOL    HW1 8798   0.806   2.667   1.517  0.7040  1.4257 -0.5689
 2633SOL    HW2 8799   0.816   2.537   1.419 -1.9904 -0.3130  1.3157
 2634SOL     OW 8800   2.080   5.320   6.218  0.3920 -0.4507 -0.2446
 2634SOL    HW1 8801   2.001   5.267   6.187 -1.2122  2.2173 -1.0593
 2634SOL    HW2 8802   2.087   5.314   6.317 -1.5789  0.1405 -0.0239
 2635SOL     OW 8803   0.452   4.033   3.640 -0.0811 -0.8629 -0.0609
 2635SOL    HW1 8804   0.480   4.118   3.685  0.5692 -2.0771  1.9594
 2635SOL    HW2 8805   0.517   3.961   3.661 -0.3970 -1.7968 -2.0893
 2636SOL     OW 8806   6.423   4.374   4.287  0.2204  0.2085  0.5461
 2636SOL    HW1 8807   6.493   4.372   4.215 -0.5627  0.2762 -0.2354
 2636SOL    HW2 8808   6.445   4.304   4.355  2.4937  1.9705  1.7568
 2637SOL     OW 8809   5.647   5.864   3.112 -0.0309 -0.1896  0.3465
 2637SOL    HW1 8810   5.708   5.836   3.038 -0.7472  0.2056 -0.4137
 2637SOL    HW2 8811   5.575   5.795   3.124 -0.6635  0.3613 -0.2101
 2638SOL     OW 8812   6.055   5.885   1.050  0.7045  0.0484  0.8344
 2638SOL    HW1 8813   6.064   5.786   1.065  1.8366 -0.0147 -0.1570
 2638SOL    HW2 8814   6.050   5.904   0.952 -0.7857  0.9001  1.0448
 2639SOL     OW 8815   6.033   0.410   0.481  0.2992  0.1927 -0.9969
 2639SOL    HW1 8816   6.039   0.467   0.399 -1.5767 -1.3096 -2.2675
 2639SOL    HW2 8817   6.067   0.318   0.460  0.6521  0.0260  0.2093
 2640SOL     OW 8818   5.406   0.236   0.043  0.3160 -0.1741  0.0756
 2640SOL    HW1 8819   5.336   0.193  -0.013  0.6609 -1.9159  0.8982
 2640SOL    HW2 8820   5.373   0.245   0.137  0.9271 -0.3397  0.3112
 2641SOL     OW 8821   0.982   5.377   2.338  0.3933 -0.0529 -0.3191
 2641SOL    HW1 8822   0.922   5.415   2.268 -0.2063 -0.3730  0.0068
 2641SOL    HW2 8823   0.939   5.296   2.378  0.4665  0.4259  0.7842
 2642SOL     OW 8824   0.025   0.289   6.048  0.1923 -0.1951  0.3758
 2642SOL    HW1 8825   0.029   0.191   6.067  0.2477 -0.2091  0.2943
 2642SOL    HW2 8826  -0.042   0.332   6.108 -1.1974 -0.5884 -0.8623
 2643SOL     OW 8827   1.208   5.810   2.485  0.5782 -0.0793 -0.2488
 2643SOL    HW1 8828   1.176   5.852   2.570  0.4853 -0.1386 -0.2542
 2643SOL    HW2 8829   1.130   5.798   2.423  0.4183 -1.2027  0.1465
 2644SOL     OW 8830   0.002   6.544   4.495  0.6473  0.5825 -0.5252
 2644SOL    HW1 8831   0.063   6.473   4.529 -0.9572 -0.7899 -0.3494
 2644SOL    HW2 8832  -0.078   6.502   4.452 -0.8206  2.2469  0.4007
 2645SOL     OW 8833   6.875   6.598   0.725 -0.7361  0.0682 -0.0455
 2645SOL    HW1 8834   6.844   6.659   0.797 -0.2047 -0.6604  0.8134
 2645SOL    HW2 8835   6.810   6.523   0.713 -1.5804  0.9657 -1.3543
 2646SOL     OW 8836   3.956   5.944   4.997 -0.1930  0.1577  0.1582
 2646SOL    HW1 8837   3.922   5.927   5.089 -1.6842 -0.9454 -0.5573
 2646SOL    HW2 8838   3.879   5.960   4.935  0.7909  1.1159 -0.8690
 2647SOL     OW 8839   2.653   4.558   1.141  0.1928 -0.1719  0.4779
 2647SOL    HW1 8840   2.748   4.540   1.114  0.2383  0.7711 -0.0078
 2647SOL    HW2 8841   2.639   4.528   1.236  0.9480 -0.3844  0.5268
 2648SOL     OW 8842   5.081   1.006   5.082 -0.0193 -0.4390 -0.8731
 2648SOL    HW1 8843   5.166   1.028   5.129 -0.3508  1.3820 -1.0719
 2648SOL    HW2 8844   5.004   1.047   5.131 -0.6800 -1.1055 -1.3256
 2649SOL     OW 8845   2.500   4.259   5.375 -0.1389 -0.1827  0.0248
 2649SOL    HW1 8846   2.496   4.176   5.319  1.0628 -0.0994 -0.2108
 2649SOL    HW2 8847   2.428   4.256   5.444 -2.1443  0.0338 -1.9207
 2650SOL     OW 8848   2.486   5.357   2.653  0.2161  0.1193  0.0865
 2650SOL    HW1 8849   2.429   5.398   2.725  1.8204  0.1056  1.4344
 2650SOL    HW2 8850   2.575   5.333   2.691 -0.2301 -3.7379 -0.8262
 2651SOL     OW 8851   0.494   0.882   1.928  0.0421  0.5364 -0.0091
 2651SOL    HW1 8852   0.589   0.852   1.924 -0.0285  0.3346 -0.1663
 2651SOL    HW2 8853   0.487   0.961   1.989 -0.0435 -0.7527  1.7249
 2652SOL     OW 8854   3.709   4.138   2.018 -0.2154  0.0845  0.1455
 2652SOL    HW1 8855   3.686   4.231   2.046  2.8565  1.0740 -0.1875
 2652SOL    HW2 8856   3.694   4.127   1.920 -2.0906 -0.3552  0.4421
 2653SOL     OW 8857   4.025   6.709   0.250  0.7649  0.0481  0.1506
 2653SOL    HW1 8858   3.959   6.754   0.191 -0.9260  1.1838  2.7351
 2653SOL    HW2 8859   4.091   6.659   0.194 -1.2918  0.1842 -2.6017
 2654SOL     OW 8860   0.542   2.970   6.769 -0.5125 -0.5941  0.2131
 2654SOL    HW1 8861   0.557   3.014   6.857 -2.2548 -0.1103  0.3136
 2654SOL    HW2 8862   0.624   2.978   6.713 -0.1396  1.1385  0.9415
 2655SOL     OW 8863   4.517   4.664   5.388 -0.5217  0.6806  0.4756
 2655SOL    HW1 8864   4.486   4.717   5.467 -2.6393 -1.0223  0.8841
 2655SOL    HW2 8865   4.601   4.616   5.412 -1.4972 -0.3598  1.9924
 2656SOL     OW 8866   6.843   2.719   6.678 -0.0068 -0.1285 -0.5681
 2656SOL    HW1 8867   6.939   2.727   6.654 -0.2272  0.7496 -1.2183
 2656SOL    HW2 8868   6.799   2.809   6.673 -1.0335 -0.6323 -1.0385
 2657SOL     OW 8869   4.525   2.031   6.222 -0.2902 -0.2301 -0.0881
 2657SOL    HW1 8870   4.453   2.033   6.292  0.7608  1.2483  1.0098
 2657SOL    HW2 8871   4.540   2.123   6.187 -1.7501 -1.0831 -3.3816
 2658SOL     OW 8872   1.349   4.450   4.147  0.0937  0.7060 -0.1168
 2658SOL    HW1 8873   1.331   4.391   4.226  3.7211  1.2161  1.2907
 2658SOL    HW2 8874   1.312   4.541   4.165 -1.4552  0.1307 -0.2551
 2659SOL     OW 8875   0.663   1.760   2.630  0.2136 -0.1779  0.3087
 2659SOL    HW1 8876   0.572   1.798   2.647  0.4418  0.7301 -0.4278
 2659SOL    HW2 8877   0.654   1.666   2.598 -0.3372 -1.0106  2.6808
 2660SOL     OW 8878   2.262   2.020   2.673 -0.4588  0.3384  0.0801
 2660SOL    HW1 8879   2.174   2.061   2.697 -0.5631  0.2025 -0.0723
 2660SOL    HW2 8880   2.268   1.928   2.712 -0.6736  0.0752 -0.5113
 2661SOL     OW 8881   4.829   0.908   2.941 -0.7513 -0.1654 -0.3044
 2661SOL    HW1 8882   4.856   0.841   3.011  0.1959 -0.7264 -1.1756
 2661SOL    HW2 8883   4.857   0.999   2.969  2.0164 -0.7031 -1.0895
 2662SOL     OW 8884   3.632   1.635   4.284 -0.1064  0.3206 -0.6738
 2662SOL    HW1 8885   3.638   1.714   4.345 -1.8911  0.6522 -0.8504
 2662SOL    HW2 8886   3.535   1.610   4.272  0.1976  0.0063 -3.0123
 2663SOL     OW 8887   0.663   2.954   3.369 -0.0796  0.4158  0.0762
 2663SOL    HW1 8888   0.756   2.955   3.335 -0.0418 -0.5329  0.1338
 2663SOL    HW2 8889   0.614   2.875   3.332  0.0103 -0.7484  2.2619
 2664SOL     OW 8890   5.130   5.261   3.006 -0.3421 -0.3194  0.3844
 2664SOL    HW1 8891   5.149   5.255   2.908  0.0405  2.7069  0.1850
 2664SOL    HW2 8892   5.213   5.291   3.054 -1.4458  1.7146  1.1074
 2665SOL     OW 8893   4.587   0.255   4.940 -0.6321  0.1882  0.4190
 2665SOL    HW1 8894   4.520   0.250   4.866 -0.8478  0.2330  0.6094
 2665SOL    HW2 8895   4.655   0.325   4.919  1.6748 -2.4299 -1.6854
 2666SOL     OW 8896   5.398   5.360   2.270  0.1576  0.0521  0.4295
 2666SOL    HW1 8897   5.443   5.449   2.265  2.4621 -1.0236  0.4977
 2666SOL    HW2 8898   5.363   5.345   2.362  1.4456  0.1642  0.9618
 2667SOL     OW 8899   1.901   4.522   2.633  0.8350  0.2480  0.1656
 2667SOL    HW1 8900   1.871   4.483   2.545 -1.8606 -0.7062  1.3833
 2667SOL    HW2 8901   1.940   4.449   2.689  2.3348  0.8100 -0.1186
 2668SOL     OW 8902   1.484   1.460   5.369 -0.5250 -0.2886  0.3508
 2668SOL    HW1 8903   1.472   1.389   5.300 -0.9764 -0.1087  0.2381
 2668SOL    HW2 8904   1.397   1.477   5.416 -0.5950  0.6529 -0.0850
 2669SOL     OW 8905   2.541   6.141   4.283 -0.0666  0.2429 -0.8002
 2669SOL    HW1 8906   2.592   6.130   4.198  0.1449  0.7567 -0.7432
 2669SOL    HW2 8907   2.465   6.205   4.269 -0.2313  0.0766 -0.6836
 2670SOL     OW 8908   3.509   6.213   4.463 -0.2547 -0.3984 -0.3927
 2670SOL    HW1 8909   3.600   6.185   4.496 -0.0469 -0.2257 -0.8139
 2670SOL    HW2 8910   3.441   6.148   4.494 -0.5285  1.2614  2.9264
 2671SOL     OW 8911   2.520   4.564   6.627 -0.0718  0.0894  0.3166
 2671SOL    HW1 8912   2.432   4.518   6.619  0.2694 -0.8237  1.5170
 2671SOL    HW2 8913   2.556   4.584   6.536 -0.8257 -0.8907 -0.2107
 2672SOL     OW 8914   0.055   5.694   1.993  0.2412 -0.1966 -0.1558
 2672SOL    HW1 8915   0.070   5.606   2.038 -0.6004 -0.9175 -1.2248
 2672SOL    HW2 8916   0.005   5.680   1.908  3.0570  0.9170 -2.1634
 2673SOL     OW 8917   3.228   1.689   1.629  0.0233  0.2531 -0.1212
 2673SOL    HW1 8918   3.286   1.659   1.705  0.2267 -0.1976 -0.4438
 2673SOL    HW2 8919   3.156   1.621   1.614 -1.0180  1.1457  0.7164
 2674SOL     OW 8920   5.644   0.806   5.911 -0.1704 -0.2571 -0.0913
 2674SOL    HW1 8921   5.735   0.776   5.886 -0.3960 -0.7809 -0.2846
 2674SOL    HW2 8922   5.645   0.843   6.004  0.3281  0.1683 -0.2611
 2675SOL     OW 8923   6.812   3.644   4.041  0.3310 -0.0078  0.1376
 2675SOL    HW1 8924   6.822   3.732   3.994 -0.3636  0.7686  1.3835
 2675SOL    HW2 8925   6.716   3.614   4.036  0.5323 -0.6200 -0.1405
 2676SOL     OW 8926   2.217   2.073   1.933  0.0287  0.1829  0.1477
 2676SOL    HW1 8927   2.300   2.049   1.881  0.8747  2.0937  0.5495
 2676SOL    HW2 8928   2.233   2.157   1.984 -3.1781  2.5082 -2.2754
 2677SOL     OW 8929   2.682   4.806   1.851 -0.1185  0.3870 -0.0506
 2677SOL    HW1 8930   2.598   4.764   1.819 -0.5300  1.8557 -1.0029
 2677SOL    HW2 8931   2.743   4.735   1.887 -0.5543 -1.1022 -2.0457
 2678SOL     OW 8932   6.702   6.625   6.929 -0.3493  0.6258 -0.5978
 2678SOL    HW1 8933   6.753   6.544   6.960  0.2993  1.2847  0.0782
 2678SOL    HW2 8934   6.606   6.616   6.956 -0.3591 -0.0778 -0.8383
 2679SOL     OW 8935   2.678   3.821   1.068  0.3213  0.3874  0.8715
 2679SOL    HW1 8936   2.607   3.851   1.131 -1.4351 -1.6870  0.0189
 2679SOL    HW2 8937   2.641   3.820   0.975  2.2685  1.5755  0.0166
 2680SOL     OW 8938   2.175   1.120   6.573 -0.0319  0.1499 -0.1047
 2680SOL    HW1 8939   2.162   1.099   6.476 -1.3537 -0.8376  0.2563
 2680SOL    HW2 8940   2.272   1.112   6.596  0.1799 -0.4450 -1.1629
 2681SOL     OW 8941   3.311   1.964   0.078 -0.7751 -0.2426 -0.8062
 2681SOL    HW1 8942   3.398   1.950   0.125 -1.1145  0.2084 -0.0226
 2681SOL    HW2 8943   3.241   1.907   0.119 -1.1900  0.5314 -0.4190
 2682SOL     OW 8944   1.934   2.775   3.105  0.4710 -0.2870  0.8040
 2682SOL    HW1 8945   1.859   2.729   3.057  0.3641  1.3995 -0.7579
 2682SOL    HW2 8946   1.995   2.707   3.145  0.1506 -1.7778 -1.1014
 2683SOL     OW 8947   3.402   0.751   5.444  0.4039  0.3254 -0.0678
 2683SOL    HW1 8948   3.368   0.810   5.517 -0.5392 -0.3855  0.0876
 2683SOL    HW2 8949   3.450   0.673   5.484 -0.6344 -0.3827 -0.1662
 2684SOL     OW 8950   4.520   5.793   3.742  0.5745 -0.0110  0.3020
 2684SOL    HW1 8951   4.551   5.816   3.834  0.3486  1.3963  0.0527
 2684SOL    HW2 8952   4.540   5.697   3.723  0.8655 -0.2520  1.7112
 2685SOL     OW 8953   4.034   6.279   4.598  0.0271 -0.1174  0.0514
 2685SOL    HW1 8954   3.994   6.280   4.507  1.6429  1.9885 -0.7113
 2685SOL    HW2 8955   4.110   6.214   4.601 -1.7683 -2.3123  0.8056
 2686SOL     OW 8956   0.747   2.275   4.158  0.2440 -0.4776  0.2560
 2686SOL    HW1 8957   0.714   2.191   4.200  0.5516 -0.5705  0.3183
 2686SOL    HW2 8958   0.685   2.350   4.179 -2.0259 -1.3346 -2.7077
 2687SOL     OW 8959   4.117   0.792   3.926 -0.6982  0.1710 -0.4475
 2687SOL    HW1 8960   4.109   0.863   3.996  0.6653  0.2936 -0.3812
 2687SOL    HW2 8961   4.165   0.829   3.846 -0.6289 -0.4642 -0.7070
 2688SOL     OW 8962   3.359   2.735   5.948 -0.1027 -0.1619 -0.5689
 2688SOL    HW1 8963   3.390   2.771   5.860  0.1570  0.0244 -0.4040
 2688SOL    HW2 8964   3.356   2.810   6.014 -1.2169 -0.1041 -0.6581
 2689SOL     OW 8965   6.250   0.695   3.412  0.5759 -0.3306 -0.1691
 2689SOL    HW1 8966   6.281   0.777   3.366  0.9952  0.3218  1.2142
 2689SOL    HW2 8967   6.249   0.618   3.348  0.9783  0.5636 -1.2654
 2690SOL     OW 8968   3.050   3.322   1.605 -0.2306  0.0579  0.2029
 2690SOL    HW1 8969   2.986   3.276   1.666 -0.4204 -1.7022 -1.2028
 2690SOL    HW2 8970   3.000   3.364   1.529  0.1478  0.0192 -0.0758
 2691SOL     OW 8971   0.507   5.640   0.830 -0.1521  0.4115 -0.3084
 2691SOL    HW1 8972   0.418   5.627   0.787 -0.3091 -1.6203  0.5055
 2691SOL    HW2 8973   0.504   5.719   0.892 -1.0684  0.9666 -1.0565
 2692SOL     OW 8974   0.163   4.614   4.512 -0.2111  0.1271 -0.3067
 2692SOL    HW1 8975   0.134   4.709   4.501 -0.8641 -0.2637 -2.6274
 2692SOL    HW2 8976   0.207   4.583   4.427 -0.1828 -1.7079  0.3326
 2693SOL     OW 8977   2.132   4.516   1.883 -0.0192  0.1227  0.3838
 2693SOL    HW1 8978   2.146   4.447   1.812  0.6105 -0.1663  0.7730
 2693SOL    HW2 8979   2.143   4.474   1.973 -0.3914  0.5695  0.6430
 2694SOL     OW 8980   6.456   1.837   2.432 -0.6186  0.0420 -0.2070
 2694SOL    HW1 8981   6.555   1.830   2.445 -0.8127  1.2495  2.4867
 2694SOL    HW2 8982   6.417   1.745   2.421  0.6177 -0.5697  0.3597
 2695SOL     OW 8983   3.142   2.877   0.027  0.0352 -0.8321 -0.3436
 2695SOL    HW1 8984   3.225   2.822   0.030 -0.1322 -1.0678 -0.0319
 2695SOL    HW2 8985   3.153   2.950  -0.041  1.7554  1.1273  1.8499
 2696SOL     OW 8986   3.346   2.508   5.584  0.2069 -0.4653 -0.1558
 2696SOL    HW1 8987   3.415   2.444   5.618  0.5315 -1.5629 -2.6492
 2696SOL    HW2 8988   3.390   2.591   5.550 -0.0195  0.1546  1.0042
 2697SOL     OW 8989   1.809   2.256   3.573 -0.0276  0.2235 -0.4468
 2697SOL    HW1 8990   1.817   2.325   3.501 -0.6560  0.8403  0.0541
 2697SOL    HW2 8991   1.735   2.282   3.636  0.3088 -0.4527  0.2466
 2698SOL     OW 8992   1.997   1.936   0.655  0.0827 -0.1141  0.1329
 2698SOL    HW1 8993   1.914   1.967   0.609  0.4763  4.0359  1.7054
 2698SOL    HW2 8994   1.983   1.846   0.696 -2.4184 -0.9920 -2.4065
 2699SOL     OW 8995   0.426   5.592   3.645  0.1638 -1.0682 -0.6223
 2699SOL    HW1 8996   0.474   5.643   3.715  0.2460 -3.2333  0.9953
 2699SOL    HW2 8997   0.491   5.554   3.580  0.2955 -0.9230 -0.5742
 2700SOL     OW 8998   4.577   4.554   3.029  0.3830  0.4117 -0.2600
 2700SOL    HW1 8999   4.587   4.521   2.935 -1.2955 -2.9848  0.5765
 2700SOL    HW2 9000   4.502   4.620   3.033  0.3075  0.4071 -1.2619
 2701SOL     OW 9001   2.941   0.932   4.499 -0.0165 -0.3189  0.1410
 2701SOL    HW1 9002   2.999   0.991   4.556 -1.2412  1.8855 -0.7668
 2701SOL    HW2 9003   2.969   0.941   4.403  0.0085 -1.5323  0.0261
 2702SOL     OW 9004   5.918   6.872   4.520 -0.2203  0.6644  0.1738
 2702SOL    HW1 9005   5.938   6.916   4.433 -2.2588 -0.6080 -1.0326
 2702SOL    HW2 9006   5.830   6.904   4.555 -1.0379 -1.2372  0.0169
 2703SOL     OW 9007   2.036   1.612   2.775  0.2825 -0.5509 -0.4822
 2703SOL    HW1 9008   2.030   1.682   2.846  1.3955 -0.5435 -0.3775
 2703SOL    HW2 9009   1.978   1.534   2.799  0.1263 -0.2634  0.0877
 2704SOL     OW 9010   2.329   5.323   0.542  0.4578 -0.1682 -0.4181
 2704SOL    HW1 9011   2.389   5.247   0.517  3.3545  1.7489  0.1459
 2704SOL    HW2 9012   2.351   5.403   0.486  0.2146  1.3409  1.5397
 2705SOL     OW 9013   6.737   3.171   1.300 -0.2536 -0.1992 -0.2841
 2705SOL    HW1 9014   6.743   3.118   1.385 -0.5416  1.1877  0.6426
 2705SOL    HW2 9015   6.650   3.151   1.255 -1.0000  0.4770  0.7873
 2706SOL     OW 9016   6.329   1.906   2.683 -0.3548  0.2822 -0.6508
 2706SOL    HW1 9017   6.361   1.926   2.590 -1.7012  1.3659 -0.9098
 2706SOL    HW2 9018   6.242   1.858   2.679 -0.3253  0.1583  0.0625
 2707SOL     OW 9019   4.739   2.687   6.418 -0.4263 -0.2860 -0.1213
 2707SOL    HW1 9020   4.812   2.746   6.452 -0.1740 -0.1219 -0.9185
 2707SOL    HW2 9021   4.660   2.743   6.394 -0.4872 -0.3665 -0.1096
 2708SOL     OW 9022   0.368   5.181   6.901 -0.1712  0.1333 -0.1610
 2708SOL    HW1 9023   0.391   5.106   6.963 -1.5544 -1.0414 -1.0020
 2708SOL    HW2 9024   0.287   5.229   6.935 -0.4128  0.0401 -0.5938
 2709SOL     OW 9025   3.373   6.548   2.134 -0.3398  0.3151  0.1778
 2709SOL    HW1 9026   3.450   6.484   2.135  0.1012  0.7986 -1.2103
 2709SOL    HW2 9027   3.390   6.621   2.068 -1.6717  0.8377  0.3725
 2710SOL     OW 9028   1.166   4.323   5.474 -0.2013 -0.4618 -0.2126
 2710SOL    HW1 9029   1.228   4.390   5.432  0.0426  0.4809  1.5421
 2710SOL    HW2 9030   1.108   4.282   5.404  0.3073  0.8865 -1.4733
 2711SOL     OW 9031   6.747   6.751   0.945  0.4043 -0.0673  0.3490
 2711SOL    HW1 9032   6.767   6.845   0.918  1.1975 -0.2825  0.1496
 2711SOL    HW2 9033   6.708   6.749   1.037  0.4103  0.4521  0.3614
 2712SOL     OW 9034   3.983   5.452   2.600  0.2053 -0.2228 -0.2616
 2712SOL    HW1 9035   3.951   5.509   2.525  0.1339 -0.8257 -0.7041
 2712SOL    HW2 9036   4.076   5.419   2.580  2.0694  3.0971  1.8830
 2713SOL     OW 9037   3.197   2.537   5.811  0.3113  0.2867 -0.3434
 2713SOL    HW1 9038   3.256   2.530   5.731 -0.8402 -0.2898 -1.1590
 2713SOL    HW2 9039   3.236   2.604   5.875  0.7209  1.5393 -1.8429
 2714SOL     OW 9040   0.975   6.603   2.031  0.1858  0.9624 -0.2582
 2714SOL    HW1 9041   0.931   6.692   2.039  0.2322  0.9524  0.1188
 2714SOL    HW2 9042   1.067   6.614   1.992 -0.8026  0.8064 -2.8339
 2715SOL     OW 9043   0.677   1.328   1.114  0.0166 -0.1392 -0.5131
 2715SOL    HW1 9044   0.688   1.413   1.063 -0.2306  0.2610  0.0831
 2715SOL    HW2 9045   0.766   1.282   1.123  0.8898  1.7836  2.0853
 2716SOL     OW 9046   5.431   5.742   3.230  0.1393 -0.1498  0.5470
 2716SOL    HW1 9047   5.367   5.694   3.170  0.7745  1.7133 -1.7408
 2716SOL    HW2 9048   5.380   5.788   3.303 -0.8669 -0.6621  0.1846
 2717SOL     OW 9049   0.569   0.620   4.722 -0.0800  0.3838 -0.5558
 2717SOL    HW1 9050   0.621   0.535   4.711  1.2495  0.8304  1.5243
 2717SOL    HW2 9051   0.472   0.603   4.705  0.1969 -1.4837 -0.4652
 2718SOL     OW 9052   0.206   2.339   4.464  0.4902 -0.0022  0.0750
 2718SOL    HW1 9053   0.193   2.418   4.523  2.5108  2.2587 -2.2362
 2718SOL    HW2 9054   0.154   2.352   4.379  3.3712  0.6452 -1.7517
 2719SOL     OW 9055   4.847   4.004   2.381 -0.4518 -0.0895 -0.6047
 2719SOL    HW1 9056   4.815   3.952   2.302 -0.0470 -0.5767 -0.4555
 2719SOL    HW2 9057   4.844   3.946   2.462 -0.1519  0.1706 -0.4057
 2720SOL     OW 9058   0.465   6.437   4.007  0.0140  0.0941  0.5037
 2720SOL    HW1 9059   0.376   6.460   4.046 -1.1324 -3.0470 -0.0216
 2720SOL    HW2 9060   0.452   6.382   3.924  2.4046 -2.1642  1.5019
 2721SOL     OW 9061   6.061   5.014   4.315 -0.1204 -0.7402 -0.1766
 2721SOL    HW1 9062   6.109   5.014   4.402 -0.6437  0.8645  0.1537
 2721SOL    HW2 9063   6.018   4.925   4.300  1.4535 -1.6240  0.3284
 2722SOL     OW 9064   0.933   6.060   0.913 -0.0022 -0.7523  0.1853
 2722SOL    HW1 9065   0.853   6.085   0.860 -0.3850 -0.3411  0.9370
 2722SOL    HW2 9066   1.013   6.111   0.880 -0.8674  2.1103  2.0628
 2723SOL     OW 9067   2.294   2.275   3.629 -0.0809  0.2496 -0.4469
 2723SOL    HW1 9068   2.211   2.330   3.623 -0.2536 -0.1194 -1.7814
 2723SOL    HW2 9069   2.289   2.216   3.710  0.4615  2.6742  1.4770
 2724SOL     OW 9070   5.142   3.822   7.002  0.0885 -0.0904 -0.3223
 2724SOL    HW1 9071   5.187   3.819   7.091  1.8080  0.0533 -1.1420
 2724SOL    HW2 9072   5.054   3.870   7.010 -0.4230 -1.2272  1.5144
 2725SOL     OW 9073   2.385   5.027   3.462 -0.7173  0.2775  0.2259
 2725SOL    HW1 9074   2.472   5.026   3.413 -1.4830  0.7383 -1.2063
 2725SOL    HW2 9075   2.323   4.960   3.422 -1.0173 -0.0932  1.2752
 2726SOL     OW 9076   4.341   6.326   3.152 -0.2041 -0.1640 -0.2298
 2726SOL    HW1 9077   4.257   6.357   3.196  0.6753  0.7378  0.8657
 2726SOL    HW2 9078   4.353   6.228   3.168  1.4085  0.5366  3.9844
 2727SOL     OW 9079   2.270   6.861   4.670  0.3480  0.4649  0.2025
 2727SOL    HW1 9080   2.272   6.770   4.627 -0.5588 -0.3474  1.7825
 2727SOL    HW2 9081   2.329   6.923   4.619  0.0241 -0.6723 -1.6655
 2728SOL     OW 9082   1.774   6.956   6.643 -0.6838 -0.0034 -0.2731
 2728SOL    HW1 9083   1.686   6.973   6.689 -0.3861 -1.1823  0.7725
 2728SOL    HW2 9084   1.847   6.998   6.696 -0.4825 -0.1318 -0.4511
 2729SOL     OW 9085   0.761   6.449   1.090  0.0118 -0.1107  0.5486
 2729SOL    HW1 9086   0.739   6.445   1.187  1.1066 -3.4482  0.8048
 2729SOL    HW2 9087   0.856   6.420   1.076 -0.2448 -0.1364 -1.5579
 2730SOL     OW 9088   0.431   4.098   2.819 -0.3933 -0.3910  0.6549
 2730SOL    HW1 9089   0.514   4.078   2.871  0.2918  0.0168 -0.2631
 2730SOL    HW2 9090   0.354   4.047   2.858  0.7320 -2.5989  0.1227
 2731SOL     OW 9091   2.078   2.948   0.082 -0.3702  0.1215 -0.1004
 2731SOL    HW1 9092   2.140   2.896   0.023 -0.6515  0.0969 -0.3787
 2731SOL    HW2 9093   2.128   2.983   0.161 -0.6003 -2.2985  1.1821
 2732SOL     OW 9094   6.547   4.038   4.794 -0.1493  0.2382  0.0987
 2732SOL    HW1 9095   6.483   3.977   4.748  1.1360 -2.4137  1.5658
 2732SOL    HW2 9096   6.573   4.112   4.732 -1.8604 -0.6069 -1.7531
 2733SOL     OW 9097   3.761   0.720   0.679 -0.1937  0.4204  0.3819
 2733SOL    HW1 9098   3.805   0.714   0.768 -1.1297 -1.6976  0.7759
 2733SOL    HW2 9099   3.665   0.747   0.691 -0.5116 -0.5341  0.1281
 2734SOL     OW 9100   2.475   1.606   3.937  0.0451  0.4390 -0.1002
 2734SOL    HW1 9101   2.566   1.565   3.925 -0.0086  0.4072 -0.3986
 2734SOL    HW2 9102   2.446   1.594   4.032 -0.3472 -0.9794 -0.3766
 2735SOL     OW 9103   0.713   4.482   1.350  0.1079 -0.1242  0.3983
 2735SOL    HW1 9104   0.770   4.560   1.373  0.2969  0.0846 -0.6965
 2735SOL    HW2 9105   0.619   4.512   1.334 -0.2928 -0.4420  2.0248
 2736SOL     OW 9106   4.887   6.215   6.893  0.2785  0.0348  0.1704
 2736SOL    HW1 9107   4.872   6.237   6.797  2.6376  0.7096 -0.1095
 2736SOL    HW2 9108   4.930   6.125   6.900  1.0931  0.4375  0.4873
 2737SOL     OW 9109   4.441   5.875   5.101 -0.1841  0.4637  0.0176
 2737SOL    HW1 9110   4.475   5.828   5.182 -3.1386 -0.3290  0.9404
 2737SOL    HW2 9111   4.442   5.812   5.023  0.9016  0.6315 -0.1167
 2738SOL     OW 9112   6.762   4.071   4.975 -0.3079  0.2053  0.6035
 2738SOL    HW1 9113   6.690   4.072   4.906 -0.0005  0.2493  0.2820
 2738SOL    HW2 9114   6.777   3.977   5.006  1.6427 -0.3001 -1.6063
 2739SOL     OW 9115   5.487   4.372   6.391 -0.3419 -0.0812 -0.8968
 2739SOL    HW1 9116   5.475   4.342   6.485  0.3319  0.8871 -0.4925
 2739SOL    HW2 9117   5.495   4.472   6.388  0.5578 -0.1674 -1.8763
 2740SOL     OW 9118   5.221   4.003   3.226 -0.2601  0.5602 -0.0066
 2740SOL    HW1 9119   5.264   3.989   3.315  0.0325  0.7213 -0.1197
 2740SOL    HW2 9120   5.231   4.099   3.198 -1.3609  0.7803  0.3043
 2741SOL     OW 9121   1.959   4.570   4.636  0.0652 -0.2282 -0.3130
 2741SOL    HW1 9122   1.945   4.471   4.625 -3.0730  0.1437 -0.5714
 2741SOL    HW2 9123   2.048   4.586   4.678  0.6754 -3.1562 -0.2535
 2742SOL     OW 9124   2.472   6.753   5.301 -0.0931  0.3084  0.1446
 2742SOL    HW1 9125   2.525   6.837   5.300  2.5782 -1.2562  0.3788
 2742SOL    HW2 9126   2.424   6.744   5.388 -0.3820  1.5093  0.1270
 2743SOL     OW 9127   0.513   2.927   4.070 -0.8710 -0.3515 -0.1898
 2743SOL    HW1 9128   0.557   3.012   4.098  0.7003 -1.2834  0.3007
 2743SOL    HW2 9129   0.450   2.897   4.142 -0.7320 -0.0744  0.0512
 2744SOL     OW 9130   4.552   1.508   3.517  0.8724  0.4301  0.8280
 2744SOL    HW1 9131   4.599   1.466   3.595  2.6626  0.0003 -0.4102
 2744SOL    HW2 9132   4.619   1.557   3.461 -0.3017  0.4519 -0.6183
 2745SOL     OW 9133   2.043   6.701   2.322  0.0942 -0.2614 -1.1497
 2745SOL    HW1 9134   2.004   6.763   2.254  0.6668  0.9310 -0.4257
 2745SOL    HW2 9135   2.127   6.740   2.358  1.0283 -1.9538 -1.3934
 2746SOL     OW 9136   0.582   1.327   0.685 -0.6720 -0.0845 -0.1184
 2746SOL    HW1 9137   0.547   1.234   0.676  0.5887 -0.4984 -0.9737
 2746SOL    HW2 9138   0.512   1.392   0.655 -1.8132 -0.6887  1.1275
 2747SOL     OW 9139   5.397   0.399   3.757 -0.0094 -0.8798  0.6519
 2747SOL    HW1 9140   5.337   0.326   3.724 -1.0465 -0.1615  0.9032
 2747SOL    HW2 9141   5.405   0.393   3.857 -2.1559  0.8025  1.0046
 2748SOL     OW 9142   6.353   2.757   4.079  0.2870 -0.4174 -0.1186
 2748SOL    HW1 9143   6.314   2.847   4.096 -0.4749 -0.7494 -0.0422
 2748SOL    HW2 9144   6.435   2.766   4.023 -1.1152  0.1593 -2.1810
 2749SOL     OW 9145   5.604   4.741   3.306  0.1939 -0.0822  0.0875
 2749SOL    HW1 9146   5.592   4.838   3.328 -1.6458 -0.3819  0.5461
 2749SOL    HW2 9147   5.524   4.708   3.255  0.4215 -1.5489  0.6305
 2750SOL     OW 9148   0.375   0.773   4.916 -0.4435 -0.0666  0.5015
 2750SOL    HW1 9149   0.399   0.857   4.966 -0.4201  0.9339 -1.1211
 2750SOL    HW2 9150   0.459   0.724   4.892 -0.2731  0.7448 -0.6647
 2751SOL     OW 9151   1.227   0.694   6.095  0.6401 -0.2759  0.2257
 2751SOL    HW1 9152   1.245   0.730   6.187 -1.4486  0.5944  0.3590
 2751SOL    HW2 9153   1.308   0.706   6.037  1.5046  0.4754  1.5474
 2752SOL     OW 9154   0.851   0.006   4.137  0.3605  0.1768  0.2592
 2752SOL    HW1 9155   0.922   0.053   4.085  0.7133 -1.4416 -0.7995
 2752SOL    HW2 9156   0.888  -0.077   4.178 -0.4895  0.2487  1.2345
 2753SOL     OW 9157   2.688   0.677   3.649 -0.6080  0.0773 -0.2164
 2753SOL    HW1 9158   2.605   0.665   3.703 -0.6114  0.7882 -0.0515
 2753SOL    HW2 9159   2.689   0.770   3.611 -0.5585 -0.3713 -1.3495
 2754SOL     OW 9160   1.504   4.750   4.577 -0.5805 -0.0263  0.3977
 2754SOL    HW1 9161   1.466   4.687   4.644  0.8965 -1.0196  0.3382
 2754SOL    HW2 9162   1.591   4.787   4.611 -0.6202  0.7281 -0.2747
 2755SOL     OW 9163   4.962   6.499   3.006  0.2189 -0.4168  0.6481
 2755SOL    HW1 9164   5.060   6.514   3.017 -0.0566  0.2927  2.6021
 2755SOL    HW2 9165   4.940   6.403   3.024  0.2897 -0.0582  3.0379
 2756SOL     OW 9166   0.165   4.773   4.765 -0.2785 -0.2077 -0.0144
 2756SOL    HW1 9167   0.126   4.822   4.687 -0.6212 -0.4375  0.0122
 2756SOL    HW2 9168   0.092   4.740   4.824 -0.0227 -0.0140  0.4214
 2757SOL     OW 9169   4.718   3.425   6.276  0.5653  0.1771  0.3438
 2757SOL    HW1 9170   4.803   3.378   6.252 -0.3498 -0.2481 -2.3894
 2757SOL    HW2 9171   4.711   3.510   6.225 -0.9797 -0.1558 -0.0623
 2758SOL     OW 9172   6.908   0.198   0.564  0.5586  0.1719 -0.1332
 2758SOL    HW1 9173   6.910   0.098   0.567 -0.2865  0.1638  0.4554
 2758SOL    HW2 9174   6.885   0.234   0.654 -1.5040  0.8046 -0.8418
 2759SOL     OW 9175   2.493   2.560   6.590  0.1068 -0.4245  0.0165
 2759SOL    HW1 9176   2.573   2.509   6.558  0.3565 -0.7802  1.1561
 2759SOL    HW2 9177   2.498   2.572   6.689 -0.8491  0.2708  0.0039
 2760SOL     OW 9178   6.279   0.011   1.926 -0.2652  0.5617  0.2615
 2760SOL    HW1 9179   6.292  -0.043   2.009 -1.2398  0.8956  0.6429
 2760SOL    HW2 9180   6.186  -0.002   1.892 -0.6427  2.2674  0.5703
 2761SOL     OW 9181   1.479   4.512   3.909  0.2073  0.6353  0.2262
 2761SOL    HW1 9182   1.450   4.606   3.891 -1.1109 -0.0748 -1.7129
 2761SOL    HW2 9183   1.463   4.489   4.005  1.2655  2.5842  0.9195
 2762SOL     OW 9184   4.465   1.552   1.172  0.0605  0.4852  0.3327
 2762SOL    HW1 9185   4.468   1.635   1.229  0.7335  0.3896  0.4445
 2762SOL    HW2 9186   4.373   1.540   1.135  0.2850  2.0439 -0.8134
 2763SOL     OW 9187   5.743   2.149   4.909 -0.1025 -0.1198 -0.2256
 2763SOL    HW1 9188   5.679   2.117   4.838 -1.5601 -0.3234  1.1325
 2763SOL    HW2 9189   5.719   2.108   4.996  0.1697  1.9300  0.8763
 2764SOL     OW 9190   0.907   2.138   2.188  0.0943 -0.2798 -0.1890
 2764SOL    HW1 9191   0.996   2.148   2.232 -0.4459 -0.3903  0.9602
 2764SOL    HW2 9192   0.863   2.055   2.221 -0.0734 -0.6927 -1.4138
 2765SOL     OW 9193   6.114   1.444   0.760  0.5799  0.2005  0.5354
 2765SOL    HW1 9194   6.084   1.500   0.682 -0.4335 -2.5750 -1.2180
 2765SOL    HW2 9195   6.082   1.486   0.845  1.4987  3.2091 -0.4591
 2766SOL     OW 9196   5.978   1.875   0.901  0.0608 -0.3923 -0.4271
 2766SOL    HW1 9197   6.030   1.961   0.909  1.1859 -0.9420 -1.4030
 2766SOL    HW2 9198   5.978   1.827   0.988 -1.9569  1.3095  0.6046
 2767SOL     OW 9199   1.111   0.351   1.124  0.0628 -0.3865  0.2780
 2767SOL    HW1 9200   1.173   0.378   1.050 -0.1969 -0.4362  0.0408
 2767SOL    HW2 9201   1.163   0.335   1.207  0.2428  0.8567  0.4358
 2768SOL     OW 9202   2.661   0.213   6.369  0.3545 -0.3437 -0.1838
 2768SOL    HW1 9203   2.665   0.313   6.373  2.4054 -0.3724 -0.3675
 2768SOL    HW2 9204   2.593   0.185   6.302 -0.3986  0.9302  0.0233
 2769SOL     OW 9205   0.415   0.555   6.847 -0.0451  0.4981  0.2637
 2769SOL    HW1 9206   0.500   0.595   6.879 -0.6898  1.6516  0.6116
 2769SOL    HW2 9207   0.427   0.457   6.830  1.3210  0.6464  0.3329
 2770SOL     OW 9208   2.662   6.551   5.283  0.3300  0.5672  0.2134
 2770SOL    HW1 9209   2.622   6.510   5.365 -1.4795 -0.5750 -1.1828
 2770SOL    HW2 9210   2.616   6.637   5.263  0.0004  0.2892 -0.2273
 2771SOL     OW 9211   4.066   6.349   5.244 -0.1559  0.2944  0.2915
 2771SOL    HW1 9212   4.044   6.345   5.147 -2.4724 -0.2019  0.7832
 2771SOL    HW2 9213   4.088   6.256   5.276 -0.2996  0.3080  0.4292
 2772SOL     OW 9214   0.331   0.886   2.317 -0.0447 -0.1971 -0.0457
 2772SOL    HW1 9215   0.320   0.898   2.415 -0.4852  0.1214 -0.1336
 2772SOL    HW2 9216   0.390   0.807   2.300 -1.0138 -1.0499  0.4506
 2773SOL     OW 9217   5.306   1.704   5.782 -1.0180  0.2207  0.2887
 2773SOL    HW1 9218   5.213   1.670   5.770 -1.3590  0.9301  0.8585
 2773SOL    HW2 9219   5.305   1.787   5.838 -0.1690  0.9026 -0.6502
 2774SOL     OW 9220   6.171   0.516   4.311 -1.1265  0.0495  0.1178
 2774SOL    HW1 9221   6.108   0.438   4.322  2.3344 -3.1599 -0.7499
 2774SOL    HW2 9222   6.227   0.525   4.393 -1.4262  1.7190  0.1808
 2775SOL     OW 9223   0.545   1.692   4.748 -0.0325  0.4867 -0.0851
 2775SOL    HW1 9224   0.617   1.761   4.757 -0.7392  1.5175 -1.8380
 2775SOL    HW2 9225   0.586   1.604   4.726  0.7497  0.7862  0.1340
 2776SOL     OW 9226   5.371   4.478   5.789  0.5513  0.7552  0.6688
 2776SOL    HW1 9227   5.313   4.402   5.758  0.5394  0.1181  2.1543
 2776SOL    HW2 9228   5.465   4.463   5.758  0.3783  0.5821  0.2201
 2777SOL     OW 9229   1.073   2.159   3.305 -0.8525 -0.7524 -0.4159
 2777SOL    HW1 9230   0.991   2.171   3.250 -0.3697  0.9842 -0.8192
 2777SOL    HW2 9231   1.153   2.156   3.246 -0.4466 -0.2376  0.0961
 2778SOL     OW 9232   3.027   0.995   6.690  0.0424  0.2392 -0.1090
 2778SOL    HW1 9233   3.054   1.091   6.695  0.0926  0.3115 -1.4500
 2778SOL    HW2 9234   3.104   0.937   6.716  0.2671  0.5323 -0.1211
 2779SOL     OW 9235   6.229   2.244   4.042 -0.0739 -0.1546 -0.0254
 2779SOL    HW1 9236   6.200   2.337   4.020  0.9422 -0.1371 -1.3937
 2779SOL    HW2 9237   6.152   2.194   4.082 -1.5673  0.3590 -2.0792
 2780SOL     OW 9238   2.169   1.430   4.194  0.3203 -0.2515  0.1107
 2780SOL    HW1 9239   2.185   1.440   4.096  1.2929 -2.4786 -0.0048
 2780SOL    HW2 9240   2.106   1.354   4.211 -0.6769  0.7616  1.2009
 2781SOL     OW 9241   0.019   6.659   2.228 -0.6721  0.6575 -0.0066
 2781SOL    HW1 9242   0.079   6.739   2.239  1.0444 -0.6902  1.0942
 2781SOL    HW2 9243  -0.018   6.656   2.135  0.8761  1.6331 -0.6865
 2782SOL     OW 9244   4.624   5.877   6.404 -0.1870  0.2412 -0.1777
 2782SOL    HW1 9245   4.704   5.935   6.420 -1.1310  1.7994 -0.8056
 2782SOL    HW2 9246   4.605   5.872   6.306  0.1504 -1.5758 -0.1792
 2783SOL     OW 9247   6.928   6.967   3.265  0.3787  0.1875  0.8243
 2783SOL    HW1 9248   7.011   6.974   3.208 -0.2617 -0.4073 -0.2156
 2783SOL    HW2 9249   6.953   6.937   3.357  1.1891 -1.4505  0.1124
 2784SOL     OW 9250   0.179   1.453   0.752  0.4876  0.0471  0.3893
 2784SOL    HW1 9251   0.155   1.368   0.800  0.9739  0.1888  0.9020
 2784SOL    HW2 9252   0.257   1.435   0.692  0.5089  0.0999  0.4016
 2785SOL     OW 9253   5.350   2.261   3.635  0.0631  0.3500  0.5268
 2785SOL    HW1 9254   5.332   2.227   3.542 -0.5077  1.2555  0.2923
 2785SOL    HW2 9255   5.438   2.309   3.636 -0.3529  1.1309  0.2272
 2786SOL     OW 9256   6.227   4.808   0.963 -0.3200  1.2462  0.0288
 2786SOL    HW1 9257   6.154   4.808   0.894 -1.4312  0.5916  1.1671
 2786SOL    HW2 9258   6.196   4.856   1.045  0.2819  0.3953  0.7776
 2787SOL     OW 9259   1.370   6.226   6.648  0.2427 -0.0527  0.0910
 2787SOL    HW1 9260   1.388   6.230   6.549 -1.0080 -0.8246 -0.1817
 2787SOL    HW2 9261   1.385   6.317   6.688  1.5825  0.0845 -0.6431
 2788SOL     OW 9262   2.485   6.157   1.612  0.6763  0.3093  0.4999
 2788SOL    HW1 9263   2.420   6.142   1.538  0.9821  1.3263  0.0076
 2788SOL    HW2 9264   2.454   6.108   1.694 -0.0652 -0.1998 -0.0704
 2789SOL     OW 9265   1.387   2.067   5.896 -0.1937 -0.6885 -0.1538
 2789SOL    HW1 9266   1.323   2.098   5.826 -1.2764 -1.3221  0.5329
 2789SOL    HW2 9267   1.341   2.062   5.984  0.7938 -1.1957  0.3546
 2790SOL     OW 9268   1.920   3.247   3.771  0.1097  0.4712  0.0844
 2790SOL    HW1 9269   1.974   3.316   3.722 -0.7091  1.2226  0.2142
 2790SOL    HW2 9270   1.959   3.156   3.755  0.9691  0.9154 -0.4152
 2791SOL     OW 9271   6.295   6.136   5.744 -0.5461 -0.3271  0.1094
 2791SOL    HW1 9272   6.322   6.152   5.838 -0.9710 -0.1963  0.2116
 2791SOL    HW2 9273   6.339   6.203   5.684 -1.1466  0.2973  0.3533
 2792SOL     OW 9274   3.074   1.477   1.593 -0.0313  0.3209 -0.6047
 2792SOL    HW1 9275   3.011   1.453   1.667  0.3274 -0.5436 -0.5669
 2792SOL    HW2 9276   3.047   1.429   1.509 -0.2537  1.0541 -0.9620
 2793SOL     OW 9277   3.580   5.510   0.792  0.0194 -0.2854  0.2235
 2793SOL    HW1 9278   3.664   5.489   0.742 -0.2297 -0.6981 -0.0254
 2793SOL    HW2 9279   3.501   5.499   0.732 -0.1031  2.2373 -0.2146
 2794SOL     OW 9280   1.011   0.592   6.890  0.3996  0.1669 -0.6373
 2794SOL    HW1 9281   1.043   0.636   6.806  0.7094  0.0292 -0.5906
 2794SOL    HW2 9282   1.024   0.654   6.967  0.5525  0.1138 -0.6193
 2795SOL     OW 9283   1.463   0.801   2.005  0.0404 -0.3181 -0.3706
 2795SOL    HW1 9284   1.374   0.845   2.020 -0.7180 -0.8445 -2.8551
 2795SOL    HW2 9285   1.479   0.733   2.076 -0.4554  1.3580  1.4234
 2796SOL     OW 9286   4.206   5.612   0.775  0.0641  0.0332 -0.0629
 2796SOL    HW1 9287   4.173   5.636   0.866  0.0202  3.3004 -0.8427
 2796SOL    HW2 9288   4.131   5.573   0.721 -0.2386 -0.6631  0.8240
 2797SOL     OW 9289   5.321   4.596   4.301 -0.1742 -0.4564 -0.5122
 2797SOL    HW1 9290   5.304   4.688   4.266 -1.5727  0.0269  1.2481
 2797SOL    HW2 9291   5.249   4.534   4.268  0.7315 -0.9487 -1.6459
 2798SOL     OW 9292   4.618   3.144   0.312  0.0138 -0.2499 -0.1957
 2798SOL    HW1 9293   4.673   3.138   0.395 -0.5837  1.4886  0.3709
 2798SOL    HW2 9294   4.590   3.052   0.285  0.2666 -0.8765  1.4964
 2799SOL     OW 9295   4.011   5.929   4.560  0.0478  0.5017 -0.0990
 2799SOL    HW1 9296   3.960   5.844   4.572 -0.4621  0.7675 -0.3876
 2799SOL    HW2 9297   4.072   5.942   4.638 -0.5093  0.3112  0.3746
 2800SOL     OW 9298   5.268   2.351   6.457  0.3205  0.5499  0.3445
 2800SOL    HW1 9299   5.213   2.414   6.512  2.3660  2.0218  0.8079
 2800SOL    HW2 9300   5.225   2.261   6.457 -0.5562  0.8828  3.0761
 2801SOL     OW 9301   6.638   3.350   3.594  0.1042 -0.1564  0.3024
 2801SOL    HW1 9302   6.563   3.284   3.591 -1.6179  1.7157 -2.2377
 2801SOL    HW2 9303   6.700   3.334   3.517  0.1598  0.6117  0.1756
 2802SOL     OW 9304   0.733   4.018   4.291 -1.2832 -0.1187  0.5991
 2802SOL    HW1 9305   0.656   4.023   4.354 -0.1177  0.4275  2.0431
 2802SOL    HW2 9306   0.714   4.075   4.211 -2.8687 -0.9881  0.3174
 2803SOL     OW 9307   5.192   2.695   0.211  0.0739 -0.5528 -0.7292
 2803SOL    HW1 9308   5.093   2.703   0.196 -0.1557  0.6521  1.1909
 2803SOL    HW2 9309   5.240   2.763   0.155 -0.2305 -0.7107 -1.1840
 2804SOL     OW 9310   4.854   2.320   4.335 -0.1122  0.1127 -0.0234
 2804SOL    HW1 9311   4.880   2.238   4.284 -0.6833  0.2553 -0.5641
 2804SOL    HW2 9312   4.920   2.393   4.317 -1.4025  0.8185 -2.2647
 2805SOL     OW 9313   3.560   6.928   1.825 -0.7991  0.1422  0.1937
 2805SOL    HW1 9314   3.479   6.986   1.815 -0.0231  0.9339 -2.1742
 2805SOL    HW2 9315   3.578   6.882   1.738  0.2575 -1.4782  1.2234
 2806SOL     OW 9316   1.408   2.280   3.330 -0.0894  0.2998 -0.5954
 2806SOL    HW1 9317   1.354   2.311   3.408  0.3550  0.1567 -0.2244
 2806SOL    HW2 9318   1.364   2.310   3.245 -0.9904 -0.1937 -0.3240
 2807SOL     OW 9319   4.937   3.006   4.854  0.3912  0.1844 -0.2296
 2807SOL    HW1 9320   4.913   3.016   4.758 -0.7027 -0.3331 -0.0224
 2807SOL    HW2 9321   4.981   3.090   4.887 -1.2937  1.2549 -0.5889
 2808SOL     OW 9322   6.587   0.673   5.960  0.5375  0.1355  0.4267
 2808SOL    HW1 9323   6.497   0.667   5.916  1.1747 -2.4007 -0.6698
 2808SOL    HW2 9324   6.592   0.607   6.035  1.3111  0.6811  0.8662
 2809SOL     OW 9325   3.948   5.231   6.077 -0.4782  0.1434  0.3074
 2809SOL    HW1 9326   3.943   5.151   6.136 -1.9339  0.1421  0.2048
 2809SOL    HW2 9327   3.870   5.290   6.093  0.3994  1.3939  0.1347
 2810SOL     OW 9328   1.484   6.101   2.545 -0.2209  0.0833  0.3372
 2810SOL    HW1 9329   1.473   6.023   2.484  2.6768  0.0136 -0.2513
 2810SOL    HW2 9330   1.458   6.185   2.498 -0.5088 -0.2321 -0.0653
 2811SOL     OW 9331   1.373   0.456   0.080 -0.7145  0.3929  0.1598
 2811SOL    HW1 9332   1.299   0.437   0.145 -1.1343  1.2856 -0.0340
 2811SOL    HW2 9333   1.394   0.554   0.083 -0.1624  0.2954 -0.4533
 2812SOL     OW 9334   6.693   2.278   0.908  0.2244  0.3289 -0.2992
 2812SOL    HW1 9335   6.791   2.284   0.890  0.1435  2.8599 -0.2580
 2812SOL    HW2 9336   6.643   2.276   0.822  0.2835  0.2336 -0.3305
 2813SOL     OW 9337   0.302   6.522   2.002 -0.0103 -0.0270 -0.1276
 2813SOL    HW1 9338   0.256   6.604   2.037 -1.1480 -0.1300 -1.3083
 2813SOL    HW2 9339   0.263   6.441   2.045 -0.3173 -0.0594 -0.4613
 2814SOL     OW 9340   1.614   4.838   5.908  0.3979 -0.1291 -0.6497
 2814SOL    HW1 9341   1.638   4.917   5.964  0.3047 -0.3267 -0.3349
 2814SOL    HW2 9342   1.521   4.849   5.872 -0.5609 -1.2260  1.3765
 2815SOL     OW 9343   1.367   6.233   4.874 -0.1139  0.0851  0.4116
 2815SOL    HW1 9344   1.316   6.317   4.893  0.5859  0.6345 -0.0637
 2815SOL    HW2 9345   1.458   6.240   4.917 -1.1634 -1.8251  3.2497
 2816SOL     OW 9346   0.634   6.158   5.567 -0.3466  0.2923 -0.1835
 2816SOL    HW1 9347   0.666   6.227   5.632  0.0102  0.3421 -0.4111
 2816SOL    HW2 9348   0.593   6.081   5.617  1.4889 -0.4737  0.1950
 2817SOL     OW 9349   1.892   1.462   1.055 -0.1855  0.4376  0.0701
 2817SOL    HW1 9350   1.904   1.539   1.118 -2.9726  0.3617  0.7948
 2817SOL    HW2 9351   1.852   1.385   1.104 -1.6797  0.0884 -1.5992
 2818SOL     OW 9352   2.445   1.456   0.075  0.4667  0.2067  0.5851
 2818SOL    HW1 9353   2.359   1.486   0.035  1.2450  1.6461 -0.0451
 2818SOL    HW2 9354   2.460   1.359   0.053  0.0686  0.5199 -1.1942
 2819SOL     OW 9355   5.828   0.259   6.527 -0.6734 -0.0301  0.2074
 2819SOL    HW1 9356   5.839   0.160   6.534 -2.9512 -0.4144 -0.6941
 2819SOL    HW2 9357   5.858   0.289   6.436  2.5121  0.6106  1.3281
 2820SOL     OW 9358   0.897   1.305   6.139 -0.2151  0.4827  0.1281
 2820SOL    HW1 9359   0.859   1.363   6.211 -1.0938 -0.6747  0.6257
 2820SOL    HW2 9360   0.904   1.211   6.172  0.5470  0.1614 -0.8940
 2821SOL     OW 9361   3.202   2.431   6.147  0.0068 -0.2631  0.2384
 2821SOL    HW1 9362   3.287   2.482   6.142 -1.4746  2.2631 -1.2096
 2821SOL    HW2 9363   3.140   2.476   6.211 -1.0798 -0.6736 -0.5014
 2822SOL     OW 9364   3.445   0.508   0.794 -0.2764  0.1665 -0.1555
 2822SOL    HW1 9365   3.532   0.512   0.843 -0.1152  2.6905 -0.5178
 2822SOL    HW2 9366   3.458   0.537   0.699 -1.5920  1.2047 -0.0510
 2823SOL     OW 9367   5.897   4.704   1.800  0.2480  0.0548  0.4744
 2823SOL    HW1 9368   5.914   4.615   1.756  0.5420 -0.4841  1.6381
 2823SOL    HW2 9369   5.799   4.718   1.809  0.0652  1.1366 -2.2027
 2824SOL     OW 9370   2.240   3.103   5.385  0.9272  0.4709  0.3602
 2824SOL    HW1 9371   2.311   3.083   5.318  0.8996 -1.6499  0.8903
 2824SOL    HW2 9372   2.151   3.108   5.340  1.0411  0.1219  0.0989
 2825SOL     OW 9373   5.559   2.552   3.843  0.0131 -0.0940 -0.3095
 2825SOL    HW1 9374   5.595   2.611   3.914 -0.6164  0.4951 -0.4653
 2825SOL    HW2 9375   5.554   2.603   3.757 -0.2480 -0.4657 -0.5174
 2826SOL     OW 9376   4.221   4.113   6.335  0.3148  0.1594 -0.0675
 2826SOL    HW1 9377   4.140   4.116   6.392  0.5797  0.2232  0.3121
 2826SOL    HW2 9378   4.207   4.050   6.259  0.7131 -1.6067  1.2461
 2827SOL     OW 9379   5.248   3.785   0.258 -0.2176 -0.0459 -0.7462
 2827SOL    HW1 9380   5.189   3.710   0.288  0.6147 -0.6558 -0.6098
 2827SOL    HW2 9381   5.320   3.750   0.198  1.7887  0.1613  1.3888
 2828SOL     OW 9382   2.272   4.763   6.260  0.1606  0.1678 -0.4183
 2828SOL    HW1 9383   2.261   4.822   6.340  1.0919  0.2741 -0.3555
 2828SOL    HW2 9384   2.358   4.785   6.214 -0.2111 -0.1107 -1.2725
 2829SOL     OW 9385   5.227   5.986   1.083 -0.0827 -0.1951 -0.0084
 2829SOL    HW1 9386   5.258   5.974   1.177  0.9629  0.5265 -0.2367
 2829SOL    HW2 9387   5.183   5.902   1.051  1.1443 -1.0855  0.5426
 2830SOL     OW 9388   2.096   6.193   3.716 -0.6902 -0.0070 -0.3683
 2830SOL    HW1 9389   2.089   6.140   3.800 -0.5149  0.5927  0.0290
 2830SOL    HW2 9390   2.138   6.137   3.644  2.3190  0.4914  0.8609
 2831SOL     OW 9391   5.387   6.643   2.503  0.0626  0.0773 -0.0858
 2831SOL    HW1 9392   5.405   6.545   2.508 -0.2463 -0.1658 -2.4987
 2831SOL    HW2 9393   5.470   6.692   2.479 -0.3517  0.0492 -1.6784
 2832SOL     OW 9394   1.401   3.073   0.276  0.3313  0.1366 -0.4713
 2832SOL    HW1 9395   1.340   3.152   0.286  1.4399  0.9225  0.3012
 2832SOL    HW2 9396   1.386   3.009   0.352 -0.8305 -0.6118 -1.2974
 2833SOL     OW 9397   6.494   1.998   3.346 -1.2102  0.0993 -0.1568
 2833SOL    HW1 9398   6.556   2.016   3.423 -1.1387  1.9546 -0.6037
 2833SOL    HW2 9399   6.402   1.983   3.381 -0.9782 -0.1280  0.3654
 2834SOL     OW 9400   3.407   6.585   5.044 -0.5674  0.1587  1.0264
 2834SOL    HW1 9401   3.501   6.619   5.046 -0.1034 -1.0612  2.6332
 2834SOL    HW2 9402   3.344   6.662   5.034  0.5676  1.0780  0.7173
 2835SOL     OW 9403   5.847   0.943   1.483 -0.8676  0.1341 -0.0374
 2835SOL    HW1 9404   5.815   0.895   1.565 -0.3328 -0.1579  0.0034
 2835SOL    HW2 9405   5.897   0.879   1.425  0.2048  0.7219  0.2122
 2836SOL     OW 9406   2.300   4.010   6.966  0.3166 -0.2511  0.0284
 2836SOL    HW1 9407   2.254   4.016   7.055 -2.0518  0.5918 -1.1471
 2836SOL    HW2 9408   2.278   3.922   6.923 -1.9552  0.8939 -1.3462
 2837SOL     OW 9409   6.509   5.392   4.453  0.2653  0.4262 -0.2908
 2837SOL    HW1 9410   6.473   5.451   4.381  0.4064  0.7379 -0.1095
 2837SOL    HW2 9411   6.518   5.445   4.538 -0.1007  0.0111  0.0125
 2838SOL     OW 9412   1.825   3.867   6.936 -0.1817 -0.3795 -0.2097
 2838SOL    HW1 9413   1.859   3.790   6.991  0.9237  1.0278  1.1559
 2838SOL    HW2 9414   1.892   3.890   6.866 -0.2393 -0.2721 -0.2301
 2839SOL     OW 9415   6.014   3.820   6.514 -0.1083  0.0905 -0.0025
 2839SOL    HW1 9416   5.966   3.901   6.479 -0.8607  0.0196  0.8286
 2839SOL    HW2 9417   6.020   3.752   6.441 -1.1685  0.1581 -0.1768
 2840SOL     OW 9418   5.964   6.283   5.036  0.3300 -0.5066  0.1373
 2840SOL    HW1 9419   5.864   6.279   5.040  0.2730  0.2969 -0.4006
 2840SOL    HW2 9420   6.001   6.288   5.129 -0.1433 -0.4160  0.3209
 2841SOL     OW 9421   5.080   2.563   2.955  0.1575 -0.2751  0.1156
 2841SOL    HW1 9422   5.020   2.504   2.901  1.0305 -0.1843 -0.9694
 2841SOL    HW2 9423   5.162   2.513   2.980  0.0543 -0.1063  0.8206
 2842SOL     OW 9424   1.711   6.653   3.203 -0.3700  0.3148 -0.0411
 2842SOL    HW1 9425   1.646   6.728   3.191  1.7429  2.3009  0.2707
 2842SOL    HW2 9426   1.775   6.675   3.276 -0.4592 -2.4482  1.0103
 2843SOL     OW 9427   0.566   3.330   2.940 -0.6812 -0.5232 -0.1133
 2843SOL    HW1 9428   0.511   3.388   3.000  0.1940  0.0933  0.1194
 2843SOL    HW2 9429   0.559   3.362   2.846  1.0864  1.0522  0.2248
 2844SOL     OW 9430   5.448   4.762   1.428 -0.0002 -0.7476 -0.1295
 2844SOL    HW1 9431   5.533   4.803   1.464  0.0250 -1.4356  0.6347
 2844SOL    HW2 9432   5.374   4.779   1.492 -0.2772 -0.7895 -0.4396
 2845SOL     OW 9433   4.241   0.560   0.704 -0.0859 -0.0091 -0.1705
 2845SOL    HW1 9434   4.176   0.485   0.690  0.0770  0.1206 -1.7748
 2845SOL    HW2 9435   4.190   0.644   0.726 -0.3211 -0.3385  0.6020
 2846SOL     OW 9436   4.356   1.586   5.578 -0.1285  0.5618 -0.3524
 2846SOL    HW1 9437   4.453   1.592   5.602  0.2001  1.8874 -1.8187
 2846SOL    HW2 9438   4.302   1.638   5.644  0.2682  0.5980 -0.0534
 2847SOL     OW 9439   6.071   3.715   2.181 -0.1965 -0.0075 -0.1670
 2847SOL    HW1 9440   6.090   3.633   2.236  0.3648  0.1288 -0.1483
 2847SOL    HW2 9441   6.138   3.721   2.107 -2.3366 -1.4876 -2.3611
 2848SOL     OW 9442   1.072   3.543   6.986 -0.0232 -0.8078  0.2992
 2848SOL    HW1 9443   0.993   3.512   6.934  0.3058  0.0865 -0.7818
 2848SOL    HW2 9444   1.156   3.509   6.944  0.3095  0.9728 -0.5538
 2849SOL     OW 9445   4.746   1.010   0.700  0.4871 -0.7798  0.2546
 2849SOL    HW1 9446   4.751   1.066   0.617 -0.6568  0.8142  1.2047
 2849SOL    HW2 9447   4.680   0.936   0.686 -0.1376 -0.1793 -0.0898
 2850SOL     OW 9448   5.877   6.612   6.592  0.5974 -0.4176 -0.0893
 2850SOL    HW1 9449   5.893   6.581   6.498 -0.9717 -0.8569 -0.2327
 2850SOL    HW2 9450   5.798   6.673   6.594  0.5439 -0.5039  0.9700
 2851SOL     OW 9451   3.477   3.753   1.981 -0.1270  0.5995 -0.2225
 2851SOL    HW1 9452   3.435   3.702   1.906  0.1295  0.2201 -0.1117
 2851SOL    HW2 9453   3.406   3.781   2.045 -0.1593 -0.5644  0.2746
 2852SOL     OW 9454   2.632   5.383   2.986  0.5890 -0.5571 -0.9285
 2852SOL    HW1 9455   2.628   5.460   3.050  1.5226 -1.6178  0.4729
 2852SOL    HW2 9456   2.544   5.335   2.986 -0.2782  0.9140 -2.4153
 2853SOL     OW 9457   0.772   3.838   5.245 -0.5885 -0.2002  0.0307
 2853SOL    HW1 9458   0.866   3.857   5.273 -0.5289 -1.0839  0.4481
 2853SOL    HW2 9459   0.756   3.740   5.246 -1.5749 -0.0489  0.1469
 2854SOL     OW 9460   3.476   2.277   5.666  0.0276  0.6369  0.7476
 2854SOL    HW1 9461   3.528   2.199   5.630  0.5858  1.6449 -0.6998
 2854SOL    HW2 9462   3.438   2.253   5.755  0.4114 -1.1978  0.4566
 2855SOL     OW 9463   2.559   1.747   5.795  0.3822  0.3775  0.3568
 2855SOL    HW1 9464   2.607   1.723   5.879 -1.1243 -0.2222  1.0826
 2855SOL    HW2 9465   2.563   1.846   5.781  0.0483  0.5745  1.5274
 2856SOL     OW 9466   1.719   6.174   4.020  0.0328 -0.0387  0.2794
 2856SOL    HW1 9467   1.629   6.210   4.044 -0.1918 -0.2179 -0.2756
 2856SOL    HW2 9468   1.787   6.246   4.028  0.2124 -0.3749  2.7088
 2857SOL     OW 9469   1.422   4.077   0.719 -0.2200  0.5399 -0.1039
 2857SOL    HW1 9470   1.480   4.014   0.668 -0.2543  2.3744 -2.6044
 2857SOL    HW2 9471   1.326   4.050   0.709 -0.1986  0.6890 -0.7425
 2858SOL     OW 9472   5.563   4.463   4.343  0.2280  0.1217 -0.2369
 2858SOL    HW1 9473   5.487   4.527   4.353  0.2653  0.2376 -0.7016
 2858SOL    HW2 9474   5.560   4.420   4.253 -0.1659 -1.0190  0.2977
 2859SOL     OW 9475   0.001   5.178   2.000  0.1008 -0.5506  0.1532
 2859SOL    HW1 9476  -0.013   5.103   1.935  1.0771 -1.1041  0.5603
 2859SOL    HW2 9477   0.017   5.140   2.092 -1.6082  0.2212  0.8169
 2860SOL     OW 9478   2.672   6.007   3.626  0.0051 -1.2172 -0.4560
 2860SOL    HW1 9479   2.659   5.912   3.655  1.6728 -0.7450  2.1586
 2860SOL    HW2 9480   2.759   6.041   3.660 -1.5846  2.0038  0.8914
 2861SOL     OW 9481   6.196   4.333   4.131 -0.0570  0.6035  0.4389
 2861SOL    HW1 9482   6.274   4.346   4.193 -0.1242  0.5770  0.5289
 2861SOL    HW2 9483   6.121   4.393   4.158 -0.1666  0.4336  0.5187
 2862SOL     OW 9484   6.281   2.818   6.515 -0.0845  0.2942  0.1895
 2862SOL    HW1 9485   6.200   2.830   6.573  0.2756  0.1593  0.7346
 2862SOL    HW2 9486   6.284   2.723   6.482 -1.0206  0.7229 -1.1874
 2863SOL     OW 9487   0.140   0.956   1.040 -0.0380  1.1243  0.5311
 2863SOL    HW1 9488   0.054   0.946   1.091 -0.5489  0.1943 -0.4931
 2863SOL    HW2 9489   0.128   1.023   0.967  0.1114  0.9697  0.3660
 2864SOL     OW 9490   5.070   4.494   1.069  0.2739 -0.1357 -0.2927
 2864SOL    HW1 9491   4.986   4.452   1.035  2.3969 -2.4210 -3.3487
 2864SOL    HW2 9492   5.096   4.451   1.156 -1.1070 -0.1642  0.1350
 2865SOL     OW 9493   5.765   3.724   4.584  0.1404  0.0540  0.0733
 2865SOL    HW1 9494   5.688   3.764   4.634  0.6773  0.3612  0.6697
 2865SOL    HW2 9495   5.801   3.646   4.635  0.9839  0.6488  0.4050
 2866SOL     OW 9496   4.358   5.732   1.811  0.3996  0.0459 -0.1770
 2866SOL    HW1 9497   4.397   5.700   1.897  1.0737  0.6438 -0.2522
 2866SOL    HW2 9498   4.329   5.654   1.756  0.3139 -0.3549  0.4273
 2867SOL     OW 9499   6.829   5.577   4.729  0.0916  0.9246  0.1069
 2867SOL    HW1 9500   6.858   5.499   4.673  0.8237  1.1900  0.1164
 2867SOL    HW2 9501   6.855   5.561   4.824  0.1053  1.1122  0.1352
 2868SOL     OW 9502   0.087   6.218   6.052  0.0979  0.5130  0.6765
 2868SOL    HW1 9503   0.167   6.276   6.037 -0.2710  1.0286  0.6712
 2868SOL    HW2 9504   0.116   6.126   6.078  0.6996  1.2718  2.9063
 2869SOL     OW 9505   4.700   5.514   5.249 -0.4578 -0.1545  0.3108
 2869SOL    HW1 9506   4.782   5.549   5.205 -1.1527  0.3843 -0.5784
 2869SOL    HW2 9507   4.673   5.428   5.206  0.0473 -0.7337  1.1041
 2870SOL     OW 9508   6.985   2.192   0.456 -0.3960 -0.1492 -0.5204
 2870SOL    HW1 9509   6.917   2.126   0.488  0.2078 -0.0711  0.9954
 2870SOL    HW2 9510   6.938   2.271   0.415 -1.2563  0.1259  0.9331
 2871SOL     OW 9511   5.038   4.014   4.352  0.0801  0.2210  0.3736
 2871SOL    HW1 9512   5.134   4.008   4.326 -0.4527 -0.3759 -1.6632
 2871SOL    HW2 9513   5.016   3.941   4.417  1.4336  1.6721  2.5862
 2872SOL     OW 9514   4.499   2.153   3.847 -0.0302 -0.1748 -0.0540
 2872SOL    HW1 9515   4.493   2.128   3.750  1.3312  2.4730 -0.8966
 2872SOL    HW2 9516   4.419   2.207   3.873 -0.6821 -1.3582  0.5219
 2873SOL     OW 9517   6.640   6.996   1.250 -0.2233 -0.2858 -0.2181
 2873SOL    HW1 9518   6.662   7.092   1.269  0.0793 -0.6508  1.4388
 2873SOL    HW2 9519   6.716   6.953   1.201  0.0212  0.0946 -0.1731
 2874SOL     OW 9520   1.078   1.124   1.974 -0.4608  0.2666  0.6056
 2874SOL    HW1 9521   1.133   1.207   1.975 -0.6845  0.4138  1.2391
 2874SOL    HW2 9522   1.072   1.088   1.881 -0.1996  0.8460  0.3654
 2875SOL     OW 9523   3.237   7.017   2.214  0.0928 -0.4834  0.4364
 2875SOL    HW1 9524   3.282   7.018   2.303 -0.0334  0.5659  0.5060
 2875SOL    HW2 9525   3.241   7.109   2.174 -0.9345 -0.6481 -0.0869
 2876SOL     OW 9526   6.975   6.396   2.781 -0.0471 -0.5453 -0.1280
 2876SOL    HW1 9527   7.037   6.454   2.834  0.3089 -0.3751 -0.7212
 2876SOL    HW2 9528   7.015   6.377   2.691 -1.6900  1.1987 -1.3086
 2877SOL     OW 9529   1.974   3.372   0.849 -0.2446  0.1089  0.6176
 2877SOL    HW1 9530   1.897   3.429   0.878 -1.3096  0.1281 -1.9956
 2877SOL    HW2 9531   1.940   3.283   0.820  0.5975  0.3101 -1.1039
 2878SOL     OW 9532   3.698   3.304   4.380 -0.3749 -0.1859 -0.2371
 2878SOL    HW1 9533   3.680   3.284   4.283 -1.3712  0.5353 -0.2177
 2878SOL    HW2 9534   3.796   3.317   4.394 -0.0727 -1.5989 -0.8904
 2879SOL     OW 9535   6.041   6.840   5.697 -0.3798 -0.1760 -0.4194
 2879SOL    HW1 9536   6.119   6.871   5.643  2.2539 -1.9867  2.0300
 2879SOL    HW2 9537   6.005   6.916   5.751  0.0010  0.5788 -1.2131
 2880SOL     OW 9538   2.736   1.706   1.344  0.6356  0.6932 -0.6575
 2880SOL    HW1 9539   2.743   1.672   1.438  0.0453 -0.3362 -0.9622
 2880SOL    HW2 9540   2.714   1.803   1.345  2.1029  1.0590  0.2590
 2881SOL     OW 9541   4.598   5.779   6.678  0.0946 -0.0985 -0.0234
 2881SOL    HW1 9542   4.601   5.792   6.579  0.4350 -0.4538 -0.0614
 2881SOL    HW2 9543   4.521   5.720   6.702 -0.5338  0.7162  0.0113
 2882SOL     OW 9544   4.178   5.807   0.482 -0.5426 -0.2036  0.1675
 2882SOL    HW1 9545   4.270   5.837   0.458 -1.6786  2.5820 -1.0655
 2882SOL    HW2 9546   4.157   5.723   0.431  2.0418 -2.3850  2.2950
 2883SOL     OW 9547   5.162   6.177   1.649  0.4129  0.1954 -0.5960
 2883SOL    HW1 9548   5.131   6.207   1.738  0.7413  1.9829 -1.0506
 2883SOL    HW2 9549   5.262   6.170   1.649  0.5126  1.3443 -1.1212
 2884SOL     OW 9550   0.198   3.403   5.470  0.1653  0.2044  0.2963
 2884SOL    HW1 9551   0.147   3.392   5.555 -2.3401  1.3540 -0.9636
 2884SOL    HW2 9552   0.177   3.492   5.429  0.5729 -0.6629 -1.9774
 2885SOL     OW 9553   0.248   3.131   2.979  0.2195 -0.0494  0.1593
 2885SOL    HW1 9554   0.347   3.121   2.981  0.4057  1.3771 -0.4736
 2885SOL    HW2 9555   0.208   3.061   2.920  1.0050  0.2375 -0.7473
 2886SOL     OW 9556   3.526   3.699   6.078 -0.3476 -0.0073  0.2454
 2886SOL    HW1 9557   3.554   3.795   6.065  0.4730 -0.3782 -0.9033
 2886SOL    HW2 9558   3.605   3.640   6.064 -0.9222 -0.8773  0.6418
 2887SOL     OW 9559   0.516   6.103   2.807 -0.1785 -0.2260 -0.4228
 2887SOL    HW1 9560   0.542   6.101   2.903  1.4026 -1.0714 -0.8329
 2887SOL    HW2 9561   0.445   6.033   2.790  1.2236 -1.7420 -0.2864
 2888SOL     OW 9562   4.720   3.845   1.774  0.0095 -0.1228  0.4532
 2888SOL    HW1 9563   4.620   3.836   1.769  0.0854 -0.2976 -1.1475
 2888SOL    HW2 9564   4.743   3.916   1.840 -1.2587  1.4064 -0.6798
 2889SOL     OW 9565   4.278   6.512   2.973 -0.5133  0.3882 -0.3239
 2889SOL    HW1 9566   4.274   6.605   3.008  0.9914 -0.2031  1.6017
 2889SOL    HW2 9567   4.304   6.449   3.047 -1.3745 -1.5684 -1.5815
 2890SOL     OW 9568   2.109   1.680   0.443 -0.4549  0.1134  0.2468
 2890SOL    HW1 9569   2.157   1.757   0.486 -0.7384 -0.2350  1.2224
 2890SOL    HW2 9570   2.022   1.711   0.404 -0.5003  0.3155  0.5118
 2891SOL     OW 9571   1.975   0.082   4.623  0.0502  0.2557 -0.1010
 2891SOL    HW1 9572   2.009   0.050   4.711 -2.1659 -0.0789  0.6968
 2891SOL    HW2 9573   1.898   0.144   4.637 -2.7285 -2.5362 -1.7611
 2892SOL     OW 9574   6.784   3.894   3.483  0.4930  0.2590 -0.2342
 2892SOL    HW1 9575   6.718   3.827   3.451  0.6571  0.3066 -0.6712
 2892SOL    HW2 9576   6.863   3.897   3.421 -0.4964  2.4066 -1.4992
 2893SOL     OW 9577   6.924   5.335   4.905  0.0217 -0.7051  0.1687
 2893SOL    HW1 9578   7.014   5.347   4.863 -0.7133 -1.9203 -1.9048
 2893SOL    HW2 9579   6.907   5.409   4.970  2.9802 -1.0711  1.5582
 2894SOL     OW 9580   2.453   6.040   1.195  0.3558  0.1377  0.6003
 2894SOL    HW1 9581   2.466   5.955   1.247 -2.6339  0.2132  1.6476
 2894SOL    HW2 9582   2.542   6.082   1.178  1.9700 -3.2715 -0.1742
 2895SOL     OW 9583   3.963   4.986   4.383  0.0920 -0.2329  0.2080
 2895SOL    HW1 9584   4.046   5.002   4.437  0.3779 -0.1396 -0.2502
 2895SOL    HW2 9585   3.889   5.042   4.420  0.2983 -0.1252  0.4700
 2896SOL     OW 9586   6.086   5.326   5.492  0.2589  0.0146  0.1991
 2896SOL    HW1 9587   6.068   5.234   5.457 -1.7007  0.5285 -0.2753
 2896SOL    HW2 9588   6.118   5.385   5.417  0.1172  0.0680  0.1796
 2897SOL     OW 9589   2.676   6.151   4.037  0.1030 -0.6561  0.7494
 2897SOL    HW1 9590   2.601   6.161   3.971  0.3835 -1.3027  0.3212
 2897SOL    HW2 9591   2.737   6.229   4.031  0.2089 -0.7843  0.1338
 2898SOL     OW 9592   5.554   1.911   3.118 -0.1834 -0.1751 -0.1002
 2898SOL    HW1 9593   5.564   1.886   3.022 -1.1182  0.4416 -0.3708
 2898SOL    HW2 9594   5.521   1.831   3.169 -1.7301  0.0522 -0.6898
 2899SOL     OW 9595   5.374   2.166   2.142 -0.0692  0.4449 -0.3243
 2899SOL    HW1 9596   5.338   2.225   2.215 -1.9759 -1.7779  0.6345
 2899SOL    HW2 9597   5.417   2.086   2.183  0.8084  0.2213 -1.6394
 2900SOL     OW 9598   3.895   3.401   4.060  0.1005  0.6892 -0.2029
 2900SOL    HW1 9599   3.975   3.346   4.037  0.3137  1.0762 -0.4111
 2900SOL    HW2 9600   3.822   3.342   4.093  0.8631  0.4302  1.1050
 2901SOL     OW 9601   6.352   3.536   1.612 -0.0930 -0.0219 -0.2519
 2901SOL    HW1 9602   6.268   3.503   1.654  0.4794 -0.4710  0.5778
 2901SOL    HW2 9603   6.377   3.624   1.650  0.1410 -0.1801 -0.0334
 2902SOL     OW 9604   4.607   4.979   1.778 -0.2015 -1.0226 -0.2009
 2902SOL    HW1 9605   4.582   4.955   1.684  0.4266  1.4266 -1.0520
 2902SOL    HW2 9606   4.624   4.895   1.830 -3.6960 -2.5859 -1.3112
 2903SOL     OW 9607   0.434   5.202   2.946  0.2291  0.2904 -0.2763
 2903SOL    HW1 9608   0.426   5.108   2.980  0.8590  0.1083 -0.6213
 2903SOL    HW2 9609   0.381   5.263   3.005 -1.4020 -0.4698 -0.8645
 2904SOL     OW 9610   1.527   3.316   4.317 -0.1331  0.0954 -0.3992
 2904SOL    HW1 9611   1.464   3.258   4.265 -1.0299  1.3371 -0.7371
 2904SOL    HW2 9612   1.503   3.312   4.414  0.9965 -1.5409 -0.1468
 2905SOL     OW 9613   2.648   5.203   1.687  0.3093 -0.2150 -0.2060
 2905SOL    HW1 9614   2.639   5.107   1.661 -0.1424  0.3242 -2.2112
 2905SOL    HW2 9615   2.707   5.250   1.621  3.1216  0.2924  2.4372
 2906SOL     OW 9616   5.247   6.765   5.452 -0.2382  0.0960 -0.0588
 2906SOL    HW1 9617   5.273   6.835   5.519  1.7012 -0.2074 -0.4360
 2906SOL    HW2 9618   5.231   6.678   5.499 -1.0260  0.3803  0.2226
 2907SOL     OW 9619   5.990   2.128   6.447  0.1919  0.2114 -0.4635
 2907SOL    HW1 9620   6.004   2.100   6.542 -0.5240  2.1027  0.2404
 2907SOL    HW2 9621   5.985   2.047   6.389 -1.5466 -1.1182  1.3966
 2908SOL     OW 9622   2.983   5.951   3.342 -0.0291 -0.4891 -0.0531
 2908SOL    HW1 9623   2.992   6.044   3.376 -1.2808 -0.2797 -0.2288
 2908SOL    HW2 9624   3.051   5.934   3.271  1.1820 -0.2156  1.0157
 2909SOL     OW 9625   6.952   0.012   6.872 -0.0035 -0.3174 -0.3149
 2909SOL    HW1 9626   6.855   0.035   6.868 -0.0719 -0.6940 -0.7989
 2909SOL    HW2 9627   6.998   0.076   6.934 -0.3516  0.5689 -0.9555
 2910SOL     OW 9628   1.562   0.659   4.203  0.0378 -0.2284  0.1688
 2910SOL    HW1 9629   1.580   0.577   4.149 -1.6360 -0.8163  0.4423
 2910SOL    HW2 9630   1.573   0.639   4.300  0.5022  0.1167  0.1884
 2911SOL     OW 9631   5.352   2.442   3.005 -0.1236 -0.0804  0.4734
 2911SOL    HW1 9632   5.410   2.364   2.981 -0.7918 -0.5234  0.2864
 2911SOL    HW2 9633   5.402   2.502   3.068  0.1681 -0.9862  1.1266
 2912SOL     OW 9634   6.411   1.536   3.615 -0.5527 -0.2503  0.8272
 2912SOL    HW1 9635   6.436   1.587   3.697 -0.9491 -0.9325  1.3887
 2912SOL    HW2 9636   6.492   1.491   3.578 -0.3997 -0.0723  0.9438
 2913SOL     OW 9637   1.681   6.637   4.341  0.0243 -0.3631 -0.3586
 2913SOL    HW1 9638   1.768   6.628   4.294  0.8266 -1.8023  1.2895
 2913SOL    HW2 9639   1.684   6.586   4.427 -1.3628  2.1452  1.2825
 2914SOL     OW 9640   2.369   3.867   6.587  0.0672 -0.4620  0.6924
 2914SOL    HW1 9641   2.287   3.912   6.552  0.9086 -0.4602 -1.4293
 2914SOL    HW2 9642   2.446   3.886   6.526  0.8009 -3.5310  0.4998
 2915SOL     OW 9643   1.463   0.868   4.384 -0.4142 -0.3266  1.0763
 2915SOL    HW1 9644   1.484   0.783   4.336  0.2517  0.2751  0.2564
 2915SOL    HW2 9645   1.403   0.849   4.462 -1.7206 -1.3121 -0.1178
 2916SOL     OW 9646   1.863   4.763   6.162 -0.5359 -0.8697 -0.5986
 2916SOL    HW1 9647   1.807   4.804   6.234 -1.9166 -1.6195 -1.2300
 2916SOL    HW2 9648   1.894   4.673   6.191 -0.4500 -0.8537 -0.6401
 2917SOL     OW 9649   2.349   1.381   2.968  0.5388 -0.1261  0.3357
 2917SOL    HW1 9650   2.307   1.367   2.879  0.3636 -3.4176  0.7952
 2917SOL    HW2 9651   2.447   1.396   2.957  0.7747 -2.0070 -0.4100
 2918SOL     OW 9652   4.194   1.162   1.421 -0.1419  0.6105  0.1617
 2918SOL    HW1 9653   4.203   1.202   1.330 -2.0796  3.6438  1.1509
 2918SOL    HW2 9654   4.193   1.235   1.490  1.5251 -1.5658  2.7180
 2919SOL     OW 9655   0.273   5.303   4.821 -0.4094  0.2203  0.0377
 2919SOL    HW1 9656   0.296   5.374   4.755  0.3637 -0.3481 -0.3257
 2919SOL    HW2 9657   0.345   5.232   4.820 -1.1117 -0.5127  0.4533
 2920SOL     OW 9658   1.535   2.622   2.712 -0.2124 -0.0343 -0.0005
 2920SOL    HW1 9659   1.590   2.541   2.733  0.8291  0.0031 -2.3569
 2920SOL    HW2 9660   1.438   2.598   2.719  0.0691 -1.2156  0.2265
 2921SOL     OW 9661   1.207   6.192   4.544  0.0097 -0.1413  0.0814
 2921SOL    HW1 9662   1.252   6.272   4.504 -0.3978 -0.3690 -0.8704
 2921SOL    HW2 9663   1.243   6.109   4.502  0.4332 -0.4753  1.0665
 2922SOL     OW 9664   4.562   5.099   1.514  0.5108  0.1757 -0.0492
 2922SOL    HW1 9665   4.620   5.165   1.562  0.4572 -0.0007  0.2605
 2922SOL    HW2 9666   4.581   5.103   1.416  2.8518 -1.5924  0.2361
 2923SOL     OW 9667   1.518   4.399   3.092 -0.3763 -0.4524  0.4135
 2923SOL    HW1 9668   1.540   4.323   3.030 -2.9818 -0.3179 -0.8136
 2923SOL    HW2 9669   1.576   4.478   3.070  0.9737 -1.4193  0.3716
 2924SOL     OW 9670   3.825   2.592   0.403 -0.2818 -0.3833 -0.4338
 2924SOL    HW1 9671   3.744   2.539   0.426  0.5480 -1.0483  1.1005
 2924SOL    HW2 9672   3.844   2.584   0.305 -2.6288  0.6408 -1.0260
 2925SOL     OW 9673   5.695   1.731   4.948  0.4249  0.6979  0.2974
 2925SOL    HW1 9674   5.619   1.771   4.998  0.5760 -0.3638  1.4144
 2925SOL    HW2 9675   5.748   1.672   5.009  0.7324 -0.4795 -1.0539
 2926SOL     OW 9676   0.720   1.655   6.587  0.0679  0.0012 -0.0808
 2926SOL    HW1 9677   0.670   1.722   6.642 -2.6204 -1.3885 -0.6603
 2926SOL    HW2 9678   0.744   1.697   6.499  0.5859  0.9146  0.4765
 2927SOL     OW 9679   0.184   4.050   1.799  0.3768 -0.1809 -0.2197
 2927SOL    HW1 9680   0.195   4.025   1.702  1.2912 -3.3822  0.5940
 2927SOL    HW2 9681   0.263   4.019   1.851 -0.4259  0.8252  1.6889
 2928SOL     OW 9682   6.433   4.528   0.858  0.3642 -0.4494 -0.0703
 2928SOL    HW1 9683   6.435   4.625   0.835 -1.0223 -0.1339  1.0080
 2928SOL    HW2 9684   6.437   4.474   0.774 -0.2029  0.5573 -0.7683
 2929SOL     OW 9685   1.519   2.032   1.790 -0.1164  0.3365 -0.5649
 2929SOL    HW1 9686   1.567   2.093   1.728  0.3160 -0.0456 -0.6154
 2929SOL    HW2 9687   1.423   2.026   1.765  0.2893 -0.7980 -1.9999
 2930SOL     OW 9688   0.253   3.977   3.466 -0.1480 -0.7015  0.3216
 2930SOL    HW1 9689   0.290   3.906   3.407  3.1246  2.5317 -1.9281
 2930SOL    HW2 9690   0.319   3.998   3.538  0.6518  2.2476 -1.1351
 2931SOL     OW 9691   6.095   2.384   6.365  0.2332  0.8641 -0.1571
 2931SOL    HW1 9692   6.074   2.292   6.399  2.2581 -0.0597 -1.2247
 2931SOL    HW2 9693   6.188   2.386   6.330  0.2011  3.3293 -0.2923
 2932SOL     OW 9694   6.820   0.512   1.184  0.1980  0.2648  0.1971
 2932SOL    HW1 9695   6.771   0.593   1.217  0.1952 -0.0851  1.0837
 2932SOL    HW2 9696   6.897   0.541   1.127 -0.5390  0.8426 -0.5412
 2933SOL     OW 9697   1.218   6.759   1.142  0.5005 -0.0987  0.0085
 2933SOL    HW1 9698   1.171   6.706   1.071 -1.7523 -0.0584  1.3640
 2933SOL    HW2 9699   1.190   6.855   1.136  1.5184  0.2043 -0.0046
 2934SOL     OW 9700   6.461   5.493   2.971  0.0363 -0.4022 -0.1907
 2934SOL    HW1 9701   6.435   5.415   3.029 -0.3452 -0.4268 -0.3946
 2934SOL    HW2 9702   6.379   5.542   2.943  0.1072 -1.0991 -1.7110
 2935SOL     OW 9703   1.012   4.986   5.110  0.3063 -0.0769  0.0070
 2935SOL    HW1 9704   0.981   4.947   5.023  0.4728 -0.2712  0.0349
 2935SOL    HW2 9705   1.110   5.002   5.106  0.1330  1.0104 -0.2638
 2936SOL     OW 9706   5.489   5.829   1.821 -0.5897 -0.0311  0.0531
 2936SOL    HW1 9707   5.537   5.742   1.809 -0.3406  0.0162  0.6491
 2936SOL    HW2 9708   5.555   5.904   1.812 -0.1615 -0.0099  2.4533
 2937SOL     OW 9709   5.961   3.807   3.690  0.1266 -0.3251 -0.3114
 2937SOL    HW1 9710   5.978   3.887   3.631  1.1090  0.8954  1.5162
 2937SOL    HW2 9711   5.951   3.837   3.784  1.3754 -2.4487  0.5689
 2938SOL     OW 9712   0.486   4.939   0.025  0.3164  0.4638 -0.2035
 2938SOL    HW1 9713   0.545   4.891  -0.040 -1.0930 -2.4035  0.4816
 2938SOL    HW2 9714   0.543   4.982   0.095  1.6811  0.4185 -1.2246
 2939SOL     OW 9715   4.794   6.949   5.604 -0.2354 -0.3534  0.1128
 2939SOL    HW1 9716   4.728   6.876   5.618  0.1210 -0.3999  1.7610
 2939SOL    HW2 9717   4.748   7.030   5.570 -0.8864 -0.8532 -0.2157
 2940SOL     OW 9718   5.814   5.882   3.942  0.4632 -0.0977 -0.4104
 2940SOL    HW1 9719   5.842   5.939   4.019  0.8143  0.2515 -0.7898
 2940SOL    HW2 9720   5.715   5.887   3.930  0.3435 -0.5761  0.3432
 2941SOL     OW 9721   2.039   4.377   3.973  0.5806 -0.2671 -0.1298
 2941SOL    HW1 9722   2.065   4.334   3.886  0.4623 -0.1385 -0.2273
 2941SOL    HW2 9723   1.977   4.316   4.023 -1.1838  0.6266 -1.1524
 2942SOL     OW 9724   2.583   3.126   0.871  0.1650 -0.4591  0.1847
 2942SOL    HW1 9725   2.675   3.155   0.844  0.1702 -0.5431  0.1121
 2942SOL    HW2 9726   2.589   3.065   0.949  0.0902  0.5469  1.0001
 2943SOL     OW 9727   0.758   4.793   3.112  0.2361 -0.0188  0.2251
 2943SOL    HW1 9728   0.830   4.734   3.077  0.2023 -1.7620  2.7925
 2943SOL    HW2 9729   0.795   4.884   3.130  0.4987  0.6285 -3.0015
 2944SOL     OW 9730   1.205   3.178   2.945  0.5227 -0.1710  0.2716
 2944SOL    HW1 9731   1.132   3.138   2.999  0.4418 -0.8784 -0.3351
 2944SOL    HW2 9732   1.289   3.181   2.999  0.4529 -0.9103  0.4307
 2945SOL     OW 9733   5.599   3.118   5.876  0.7202  0.2805 -0.0191
 2945SOL    HW1 9734   5.617   3.205   5.830  2.5732  0.1136  0.3037
 2945SOL    HW2 9735   5.640   3.043   5.823 -2.0336 -0.6557 -1.0512
 2946SOL     OW 9736   4.090   3.736   4.790  0.7656 -0.5147  0.0511
 2946SOL    HW1 9737   4.004   3.720   4.740 -1.4612  0.8072  3.1396
 2946SOL    HW2 9738   4.166   3.742   4.725 -1.8121  0.8484 -3.0969
 2947SOL     OW 9739   0.474   0.327   6.286 -0.5399  0.1004  0.7811
 2947SOL    HW1 9740   0.566   0.366   6.289 -1.4555  2.4464  0.6331
 2947SOL    HW2 9741   0.452   0.288   6.375  1.2010 -2.1551  0.3150
 2948SOL     OW 9742   0.140   5.586   6.796  0.1149 -0.1103  0.2764
 2948SOL    HW1 9743   0.240   5.591   6.802  0.0853  0.7287  0.2442
 2948SOL    HW2 9744   0.113   5.506   6.743  0.7304 -1.1298  1.4703
 2949SOL     OW 9745   6.886   4.721   6.653  0.5757  0.2094 -0.6894
 2949SOL    HW1 9746   6.821   4.647   6.673  1.9059 -1.2210 -1.4620
 2949SOL    HW2 9747   6.836   4.806   6.640 -0.9908 -0.4931  0.4465
 2950SOL     OW 9748   5.968   5.349   3.023  0.0231  0.6929 -0.1577
 2950SOL    HW1 9749   5.936   5.295   3.101  2.9453  0.5457  1.0330
 2950SOL    HW2 9750   6.041   5.301   2.976  1.1281  2.5878 -0.4697
 2951SOL     OW 9751   0.332   1.765   1.577  0.3531 -0.5160 -0.0290
 2951SOL    HW1 9752   0.265   1.814   1.521 -0.4325 -1.1538  0.3430
 2951SOL    HW2 9753   0.400   1.723   1.517 -0.5906 -1.3550 -0.5439
 2952SOL     OW 9754   0.533   2.091   0.296  0.3608  0.5627 -0.3742
 2952SOL    HW1 9755   0.513   2.186   0.319 -2.4347 -0.4190  1.8581
 2952SOL    HW2 9756   0.614   2.061   0.347  0.9999  1.6015 -0.7559
 2953SOL     OW 9757   1.016   6.738   5.339 -0.1232 -0.3120 -0.1004
 2953SOL    HW1 9758   1.098   6.786   5.371 -1.9759  2.7661  0.3912
 2953SOL    HW2 9759   0.955   6.802   5.295 -2.2545 -2.5486 -0.6181
 2954SOL     OW 9760   6.801   5.108   0.194 -0.2921 -0.1324  0.3356
 2954SOL    HW1 9761   6.830   5.185   0.137  1.0718 -0.3063  0.7711
 2954SOL    HW2 9762   6.734   5.140   0.261 -1.0521  0.3055 -0.6036
 2955SOL     OW 9763   2.126   6.317   5.617  0.1760  0.1929  0.5214
 2955SOL    HW1 9764   2.135   6.295   5.714 -0.1967  0.1395  0.5461
 2955SOL    HW2 9765   2.209   6.289   5.569  0.3415  0.1700  0.8138
 2956SOL     OW 9766   5.912   4.429   4.256  0.2365 -0.5415  0.2177
 2956SOL    HW1 9767   5.826   4.457   4.299  0.0798 -0.1294 -0.3548
 2956SOL    HW2 9768   5.949   4.349   4.304 -1.2322 -1.6787 -0.4822
 2957SOL     OW 9769   1.270   5.098   1.619  0.1854 -0.1585  0.5136
 2957SOL    HW1 9770   1.287   5.016   1.674 -0.1329  1.0092  2.4282
 2957SOL    HW2 9771   1.181   5.090   1.574  0.5323 -1.2084 -0.0277
 2958SOL     OW 9772   6.561   4.365   2.275  0.2018  0.0294  0.6504
 2958SOL    HW1 9773   6.647   4.342   2.321 -0.1448  0.0521  1.3346
 2958SOL    HW2 9774   6.493   4.294   2.294  0.5868 -0.9881 -1.4530
 2959SOL     OW 9775   6.868   6.313   5.194 -0.1167 -0.1233 -0.2529
 2959SOL    HW1 9776   6.824   6.289   5.108  0.2365 -2.0037  0.0563
 2959SOL    HW2 9777   6.965   6.288   5.190  0.1601  0.8144  0.2937
 2960SOL     OW 9778   5.533   6.375   0.565  0.1718  0.0481 -0.5300
 2960SOL    HW1 9779   5.510   6.299   0.504  1.5243  0.6730 -1.8921
 2960SOL    HW2 9780   5.506   6.462   0.522 -0.2463  0.4259  0.4632
 2961SOL     OW 9781   5.748   2.364   2.011 -0.5137 -0.6555 -0.0859
 2961SOL    HW1 9782   5.810   2.392   2.083 -0.3530 -0.7508 -0.1862
 2961SOL    HW2 9783   5.776   2.404   1.924 -0.4677 -0.8672 -0.1703
 2962SOL     OW 9784   0.837   0.490   4.483 -0.3802 -0.1599 -0.0057
 2962SOL    HW1 9785   0.798   0.491   4.391 -1.6187 -1.5477  0.4802
 2962SOL    HW2 9786   0.919   0.433   4.484  1.5409  2.3855 -0.9175
 2963SOL     OW 9787   1.245   1.370   6.083 -0.2416 -0.2424 -0.2800
 2963SOL    HW1 9788   1.258   1.272   6.074  0.3114 -0.2561  0.5400
 2963SOL    HW2 9789   1.204   1.391   6.172 -0.3319  0.2701 -0.4356
 2964SOL     OW 9790   6.455   0.280   6.350  0.1280  0.1849  0.4550
 2964SOL    HW1 9791   6.451   0.208   6.419  0.1471 -0.4105 -0.1547
 2964SOL    HW2 9792   6.542   0.276   6.301  0.5186  1.2147  1.0353
 2965SOL     OW 9793   5.163   1.527   6.095  0.2617 -0.0740 -0.4094
 2965SOL    HW1 9794   5.255   1.510   6.058  0.7369 -1.4638  1.2835
 2965SOL    HW2 9795   5.099   1.461   6.057  0.4482 -0.5594  0.1020
 2966SOL     OW 9796   2.722   6.507   1.937 -0.4901 -0.0422  0.3254
 2966SOL    HW1 9797   2.632   6.474   1.966 -0.4784  0.8793  1.5121
 2966SOL    HW2 9798   2.737   6.599   1.973 -0.3255  1.1081 -2.4477
 2967SOL     OW 9799   6.650   6.029   6.249  0.0761 -0.3695  0.1747
 2967SOL    HW1 9800   6.643   5.946   6.305 -2.5050  0.9922  2.1268
 2967SOL    HW2 9801   6.693   6.101   6.303  0.7217  0.0533 -0.8821
 2968SOL     OW 9802   2.641   4.083   0.561 -0.2122  0.3468 -0.3845
 2968SOL    HW1 9803   2.682   4.033   0.637  0.5873 -0.2684 -1.1891
 2968SOL    HW2 9804   2.712   4.105   0.494 -1.2990 -1.4995 -2.2425
 2969SOL     OW 9805   3.692   1.739   5.063 -0.2882  0.5474  0.2410
 2969SOL    HW1 9806   3.698   1.640   5.057  2.3461  0.6824 -0.2883
 2969SOL    HW2 9807   3.645   1.774   4.982  0.6043 -0.1620 -0.6065
 2970SOL     OW 9808   0.544   2.336   0.066  0.0852  0.6554 -0.0201
 2970SOL    HW1 9809   0.604   2.373   0.137  0.6718  1.7943 -1.0815
 2970SOL    HW2 9810   0.450   2.366   0.082 -0.0206 -0.1510  0.9762
 2971SOL     OW 9811   4.459   3.411   5.494  0.1948  0.4515 -0.1731
 2971SOL    HW1 9812   4.462   3.462   5.580  1.6931 -0.0659  0.1129
 2971SOL    HW2 9813   4.434   3.472   5.420  0.8822  1.3773  0.3275
 2972SOL     OW 9814   0.934   6.223   6.582 -0.4472 -0.3512  0.1754
 2972SOL    HW1 9815   1.004   6.213   6.652  0.6314  1.4887 -0.5611
 2972SOL    HW2 9816   0.936   6.316   6.545 -2.3661 -0.6542 -0.8623
 2973SOL     OW 9817   0.192   5.683   3.531  0.3363 -0.1848  0.7357
 2973SOL    HW1 9818   0.247   5.760   3.497  1.6211 -0.4507  2.1150
 2973SOL    HW2 9819   0.252   5.615   3.572 -0.9949 -0.7520  1.8027
 2974SOL     OW 9820   4.906   0.392   3.369 -0.2054 -0.0682 -0.2765
 2974SOL    HW1 9821   4.956   0.416   3.285  0.3491 -1.5149 -0.3887
 2974SOL    HW2 9822   4.960   0.418   3.449 -0.0272 -0.1024 -0.3848
 2975SOL     OW 9823   6.392   5.593   5.958  0.2620 -0.2763 -0.2661
 2975SOL    HW1 9824   6.383   5.521   6.027  0.0098  0.3120  0.3288
 2975SOL    HW2 9825   6.317   5.586   5.893 -0.8256  0.5689  0.8649
 2976SOL     OW 9826   4.772   1.294   6.417  0.0841 -0.0692  0.1502
 2976SOL    HW1 9827   4.765   1.391   6.395  0.0954 -0.2088 -0.4833
 2976SOL    HW2 9828   4.688   1.265   6.463 -0.4381 -0.0237 -0.7353
 2977SOL     OW 9829   2.664   0.372   2.376  0.3006  0.6649 -0.3913
 2977SOL    HW1 9830   2.679   0.274   2.387 -0.7208  0.4643 -0.6760
 2977SOL    HW2 9831   2.726   0.422   2.436 -0.2023 -0.1996  0.8901
 2978SOL     OW 9832   4.405   5.915   0.132  0.2235 -0.4214  0.4128
 2978SOL    HW1 9833   4.454   5.830   0.155 -0.9730 -0.7289  2.0526
 2978SOL    HW2 9834   4.470   5.989   0.122  1.1858 -1.2212  0.5595
 2979SOL     OW 9835   0.124   1.056   4.635 -0.8509  0.0533  0.0760
 2979SOL    HW1 9836   0.052   1.122   4.615 -0.3936  0.5596  0.0876
 2979SOL    HW2 9837   0.188   1.095   4.701 -0.5673 -0.3919  0.0671
 2980SOL     OW 9838   2.952   3.544   3.168  0.0281 -0.0588 -0.4567
 2980SOL    HW1 9839   2.935   3.450   3.138 -0.6759  0.3855 -1.5314
 2980SOL    HW2 9840   3.011   3.590   3.102  0.8034  0.1030  0.3406
 2981SOL     OW 9841   2.848   3.922   0.790  0.2365  0.6807 -0.4933
 2981SOL    HW1 9842   2.786   3.855   0.751  1.7238 -0.3582 -1.1797
 2981SOL    HW2 9843   2.889   3.885   0.874  0.2063  1.2059 -0.2405
 2982SOL     OW 9844   1.335   6.546   2.491 -0.0823  0.2425 -0.1911
 2982SOL    HW1 9845   1.256   6.486   2.508 -0.6510  0.5667 -1.5121
 2982SOL    HW2 9846   1.404   6.496   2.439 -1.2292  1.0792 -2.7075
 2983SOL     OW 9847   5.049   3.388   0.030  0.1928  0.0794  0.1716
 2983SOL    HW1 9848   5.147   3.400   0.045  0.2602 -1.4653  1.1751
 2983SOL    HW2 9849   5.032   3.301  -0.015 -0.7833 -0.1989  1.0345
 2984SOL     OW 9850   0.789   4.953   2.741  0.0271  0.4916 -0.6249
 2984SOL    HW1 9851   0.773   5.030   2.802 -0.2945  0.2721 -0.4293
 2984SOL    HW2 9852   0.712   4.889   2.746  0.5932 -0.1813 -0.2727
 2985SOL     OW 9853   5.313   3.207   5.743  0.0841  0.5581 -0.2201
 2985SOL    HW1 9854   5.317   3.304   5.719  0.8071  0.9002  1.1991
 2985SOL    HW2 9855   5.374   3.189   5.820  0.2700 -1.1095 -0.7155
 2986SOL     OW 9856   3.462   4.063   3.450 -0.7404  0.4039 -0.5829
 2986SOL    HW1 9857   3.527   4.124   3.496 -1.1388 -0.0334  0.6028
 2986SOL    HW2 9858   3.499   4.034   3.362  0.3482  0.7372 -0.2442
 2987SOL     OW 9859   3.574   1.854   4.446  0.2179  0.5694 -0.0607
 2987SOL    HW1 9860   3.477   1.846   4.470  0.3436  0.7884  0.5315
 2987SOL    HW2 9861   3.614   1.931   4.495  0.9765 -0.2488  0.6170
 2988SOL     OW 9862   2.274   3.127   6.838 -0.5356 -0.0383 -0.1180
 2988SOL    HW1 9863   2.292   3.033   6.867 -2.4054 -0.4701 -0.2449
 2988SOL    HW2 9864   2.347   3.157   6.776  0.7535 -0.9277  0.9023
 2989SOL     OW 9865   3.960   3.699   5.881  0.4175  0.4702  0.5125
 2989SOL    HW1 9866   3.959   3.722   5.783 -0.9614 -0.5310  0.2609
 2989SOL    HW2 9867   3.898   3.760   5.930  0.8600  0.7598  0.7153
 2990SOL     OW 9868   5.858   0.593   4.823 -0.0704 -0.2318  0.0039
 2990SOL    HW1 9869   5.845   0.557   4.731  0.6890 -1.8874  0.5144
 2990SOL    HW2 9870   5.771   0.589   4.873  0.0999 -2.0002  0.2338
 2991SOL     OW 9871   1.011   1.955   0.709 -0.0831  0.4668 -0.4032
 2991SOL    HW1 9872   0.962   1.927   0.626  0.2133  0.2646 -0.5125
 2991SOL    HW2 9873   1.029   1.874   0.765  0.3345  0.5047 -0.4789
 2992SOL     OW 9874   2.179   3.369   5.807 -0.2532 -0.3079  0.1392
 2992SOL    HW1 9875   2.261   3.359   5.750 -0.1407  1.4463 -0.0705
 2992SOL    HW2 9876   2.105   3.409   5.752 -0.2170  1.1878  1.1265
 2993SOL     OW 9877   2.681   3.537   0.176 -0.0617 -0.0170 -0.2526
 2993SOL    HW1 9878   2.778   3.513   0.164 -0.2648 -0.4861 -1.0588
 2993SOL    HW2 9879   2.661   3.621   0.125  0.0669  0.4770  0.4865
 2994SOL     OW 9880   3.130   4.291   5.293 -0.4674 -0.2828  0.4662
 2994SOL    HW1 9881   3.041   4.335   5.280 -0.2731  0.4509  1.4872
 2994SOL    HW2 9882   3.200   4.362   5.300 -0.0063 -0.8045  1.1629
 2995SOL     OW 9883   4.207   2.266   1.877 -0.0495 -0.2763  0.3285
 2995SOL    HW1 9884   4.262   2.330   1.823 -0.3698 -1.4327 -1.4755
 2995SOL    HW2 9885   4.111   2.293   1.874  0.0893  0.4086  1.4906
 2996SOL     OW 9886   0.706   0.394   4.704  0.1397 -0.4931 -0.4781
 2996SOL    HW1 9887   0.656   0.309   4.684 -0.4348 -0.3727  0.4069
 2996SOL    HW2 9888   0.747   0.429   4.619 -1.0516 -0.7367 -1.1807
 2997SOL     OW 9889   3.304   5.588   2.929  0.2240 -0.0222  0.0566
 2997SOL    HW1 9890   3.242   5.593   3.007 -2.0635 -1.3629 -1.5285
 2997SOL    HW2 9891   3.398   5.579   2.961  0.1546  5.0294  2.6047
 2998SOL     OW 9892   0.490   0.740   1.576 -0.8185  0.1803 -0.0460
 2998SOL    HW1 9893   0.540   0.684   1.643  1.4066  1.9193 -0.1188
 2998SOL    HW2 9894   0.453   0.681   1.504 -0.5960 -1.4037  1.0779
 2999SOL     OW 9895   1.966   4.026   2.017 -0.4665 -0.0776  0.2348
 2999SOL    HW1 9896   1.903   3.959   2.056 -0.6557 -1.6503 -2.5570
 2999SOL    HW2 9897   2.058   3.989   2.015  0.4063  1.6435  2.9071
 3000SOL     OW 9898   1.484   4.894   6.673 -0.0277 -0.0049  0.1570
 3000SOL    HW1 9899   1.567   4.918   6.723 -0.4311  1.9564 -0.0405
 3000SOL    HW2 9900   1.406   4.893   6.736 -0.2795  0.8970 -0.1227
 3001SOL     OW 9901   1.644   5.649   1.002  0.2235  0.8318  0.6296
 3001SOL    HW1 9902   1.696   5.567   1.027  0.9385  0.9489 -0.4235
 3001SOL    HW2 9903   1.589   5.630   0.921 -2.8179  0.1526  2.6544
 3002SOL     OW 9904   1.727   3.182   1.419 -0.1851  0.4165 -0.1008
 3002SOL    HW1 9905   1.684   3.120   1.485  1.9912 -1.2250 -0.0985
 3002SOL    HW2 9906   1.785   3.129   1.356 -1.0726  2.1007 -2.4663
 3003SOL     OW 9907   0.835   0.280   1.103  0.5490  0.1243 -0.1140
 3003SOL    HW1 9908   0.783   0.365   1.110 -0.4912 -0.6506  2.7957
 3003SOL    HW2 9909   0.933   0.301   1.099  0.3163  1.4722  0.7509
 3004SOL     OW 9910   3.684   1.462   3.439 -0.4652 -0.4634 -0.6772
 3004SOL    HW1 9911   3.778   1.461   3.473 -1.0305 -0.8495  0.9634
 3004SOL    HW2 9912   3.649   1.369   3.435 -1.0116 -0.2660 -0.5876
 3005SOL     OW 9913   2.380   2.004   1.719  0.6634  0.7465 -0.0948
 3005SOL    HW1 9914   2.413   1.916   1.753  0.7284  0.9776  0.4466
 3005SOL    HW2 9915   2.284   1.996   1.694  0.1878  0.9437  1.5559
 3006SOL     OW 9916   6.428   1.097   4.199 -0.0681 -0.7924  0.1059
 3006SOL    HW1 9917   6.526   1.097   4.180 -0.3341  0.2370 -1.4810
 3006SOL    HW2 9918   6.410   1.152   4.280  0.6514 -0.8781  0.3345
 3007SOL     OW 9919   5.287   6.240   5.226 -0.4060 -0.1211 -0.1658
 3007SOL    HW1 9920   5.189   6.259   5.233 -0.3167 -0.2362  2.1186
 3007SOL    HW2 9921   5.326   6.229   5.317  2.2226  2.2248 -0.8377
 3008SOL     OW 9922   5.846   3.475   4.358  0.1789  0.2707  0.3056
 3008SOL    HW1 9923   5.805   3.550   4.308 -1.2227  0.8837  2.2588
 3008SOL    HW2 9924   5.780   3.401   4.368  0.8832 -0.4015  0.1165
 3009SOL     OW 9925   6.144   2.843   2.300  0.3244 -0.0703  0.4236
 3009SOL    HW1 9926   6.061   2.799   2.266  0.1391 -0.4786  1.3714
 3009SOL    HW2 9927   6.194   2.882   2.223  0.2954 -1.5964 -0.4161
 3010SOL     OW 9928   5.278   4.137   0.889 -0.8031 -0.0835 -0.0118
 3010SOL    HW1 9929   5.281   4.236   0.874  0.3199  0.0904  1.1860
 3010SOL    HW2 9930   5.310   4.090   0.807  0.2362  0.6241 -0.0315
 3011SOL     OW 9931   3.848   0.726   3.597 -0.0552 -0.7572 -0.2576
 3011SOL    HW1 9932   3.788   0.786   3.651  1.5855  0.0030  0.8142
 3011SOL    HW2 9933   3.833   0.631   3.623  1.1626 -0.3650  2.1381
 3012SOL     OW 9934   2.060   1.288   2.495  0.2479  0.4472 -0.1297
 3012SOL    HW1 9935   2.045   1.193   2.466 -0.7654 -0.1323  2.1018
 3012SOL    HW2 9936   2.156   1.302   2.517  0.3341 -0.1629 -0.1189
 3013SOL     OW 9937   0.249   4.133   4.842 -0.0365 -0.4268  0.0357
 3013SOL    HW1 9938   0.292   4.046   4.866 -2.5106 -1.2548  1.8920
 3013SOL    HW2 9939   0.239   4.189   4.924  0.0500  0.9434 -0.8561
 3014SOL     OW 9940   5.501   6.397   1.833  0.1647 -0.8426 -0.5139
 3014SOL    HW1 9941   5.578   6.447   1.872 -0.3381 -0.6386  0.2455
 3014SOL    HW2 9942   5.524   6.367   1.741  0.2118  1.4191 -1.2978
 3015SOL     OW 9943   2.239   0.084   0.378 -0.0120 -0.2268  0.1380
 3015SOL    HW1 9944   2.329   0.107   0.415  0.9487 -0.4368 -1.9040
 3015SOL    HW2 9945   2.168   0.128   0.432  1.3381  0.4052  1.4684
 3016SOL     OW 9946   3.980   1.950   4.568  0.6548  0.3145 -0.1755
 3016SOL    HW1 9947   4.052   1.929   4.502 -0.7941 -0.4243 -1.5798
 3016SOL    HW2 9948   3.981   2.048   4.588  0.8042  0.6348 -1.6942
 3017SOL     OW 9949   0.430   6.648   1.418 -0.2306 -0.3855 -0.3386
 3017SOL    HW1 9950   0.369   6.575   1.388 -1.5541  1.0070 -1.1824
 3017SOL    HW2 9951   0.458   6.631   1.512  0.3175 -2.4822 -0.8235
 3018SOL     OW 9952   1.603   3.260   1.002 -0.0848 -0.1997 -0.2234
 3018SOL    HW1 9953   1.663   3.271   1.081  0.8656 -0.7881 -0.8473
 3018SOL    HW2 9954   1.657   3.237   0.921 -1.1842 -1.3072 -0.6808
 3019SOL     OW 9955   1.210   1.488   5.444 -0.4865 -0.4257 -0.1324
 3019SOL    HW1 9956   1.164   1.413   5.396 -0.4144 -0.7785  0.3443
 3019SOL    HW2 9957   1.170   1.498   5.535  2.2986 -2.7354  1.5224
 3020SOL     OW 9958   4.874   4.000   6.013 -0.5721 -0.2451 -0.2658
 3020SOL    HW1 9959   4.918   4.086   5.988 -0.1269  0.1616  1.7886
 3020SOL    HW2 9960   4.779   4.017   6.038 -0.6727 -0.4577 -0.4997
 3021SOL     OW 9961   2.088   6.840   3.986  0.0631  0.1160 -0.4568
 3021SOL    HW1 9962   2.103   6.840   4.085  0.1960  0.9057 -0.4730
 3021SOL    HW2 9963   2.175   6.849   3.938 -0.0874  0.7420 -0.6225
 3022SOL     OW 9964   4.532   0.752   1.413 -0.2419 -0.0472 -0.2241
 3022SOL    HW1 9965   4.575   0.685   1.472  1.6263  0.5478 -0.8379
 3022SOL    HW2 9966   4.482   0.705   1.340 -0.0463 -0.7576  0.0889
 3023SOL     OW 9967   6.611   3.907   4.296  0.4932 -0.0424  0.3829
 3023SOL    HW1 9968   6.686   3.861   4.342  1.6264 -1.6317 -2.7044
 3023SOL    HW2 9969   6.646   3.964   4.222 -1.1974  2.3374  1.2978
 3024SOL     OW 9970   4.906   1.115   6.602 -0.4757  0.9248  0.2931
 3024SOL    HW1 9971   4.989   1.088   6.554  1.0076  2.9272  1.5724
 3024SOL    HW2 9972   4.841   1.154   6.537 -0.4536 -0.6284 -0.7209
 3025SOL     OW 9973   2.264   3.359   0.275  0.3076 -0.7490  0.5734
 3025SOL    HW1 9974   2.355   3.338   0.312  1.0750  2.1550  0.6221
 3025SOL    HW2 9975   2.257   3.325   0.182  2.2007  0.5027 -0.1006
 3026SOL     OW 9976   1.748   5.837   4.458  0.9352 -0.5358  0.0461
 3026SOL    HW1 9977   1.717   5.887   4.378  1.2957  0.8079  0.7179
 3026SOL    HW2 9978   1.831   5.787   4.437  0.4192 -1.0936 -0.7124
 3027SOL     OW 9979   4.215   0.190   0.159  0.4508  0.2487  0.1872
 3027SOL    HW1 9980   4.123   0.228   0.172 -0.3631 -1.9976  1.5331
 3027SOL    HW2 9981   4.257   0.175   0.248  1.3484 -0.5389 -0.3584
 3028SOL     OW 9982   4.181   3.463   2.927  0.3284  0.1251  0.2614
 3028SOL    HW1 9983   4.231   3.500   2.849  0.9242 -1.8098 -0.3426
 3028SOL    HW2 9984   4.128   3.383   2.898  0.8782 -0.8955  1.8981
 3029SOL     OW 9985   6.394   2.716   4.333  0.4736  0.4448  0.3117
 3029SOL    HW1 9986   6.313   2.743   4.385 -0.2986 -0.0837 -0.5874
 3029SOL    HW2 9987   6.370   2.706   4.236  1.5031 -0.1655  0.1027
 3030SOL     OW 9988   1.284   3.079   6.058  0.1164  0.1275 -0.4765
 3030SOL    HW1 9989   1.327   3.122   6.137 -1.3357 -0.4406  0.6703
 3030SOL    HW2 9990   1.346   3.084   5.980  1.4134  1.1006  0.5616
 3031SOL     OW 9991   1.661   4.099   1.162 -0.2422  0.4971 -0.2644
 3031SOL    HW1 9992   1.726   4.097   1.087  1.7026  0.3665  1.3563
 3031SOL    HW2 9993   1.621   4.191   1.168  2.5689  1.7560  0.9043
 3032SOL     OW 9994   4.031   0.918   2.948  0.5381  0.2643  0.2568
 3032SOL    HW1 9995   4.024   0.851   2.874 -0.7316  2.6538 -1.9451
 3032SOL    HW2 9996   4.099   0.987   2.924  0.2571  0.9610  1.4171
 3033SOL     OW 9997   1.249   2.343   6.079 -0.3913 -0.4699 -0.3046
 3033SOL    HW1 9998   1.342   2.357   6.045  0.6759 -0.0253  2.4704
 3033SOL    HW2 9999   1.189   2.416   6.045  1.1681  1.3621  0.6640
 3034SOL     OW10000   4.300   5.447   2.745 -0.7946  0.0166 -0.2041
 3034SOL    HW110001   4.287   5.360   2.698  0.1530 -0.1011 -0.2657
 3034SOL    HW210002   4.297   5.521   2.678 -1.6377  0.0506 -0.1475
 3035SOL     OW10003   0.073   6.688   5.494 -0.0730 -0.0405 -0.0057
 3035SOL    HW110004   0.058   6.647   5.583  0.4274 -1.0661 -0.3903
 3035SOL    HW210005  -0.010   6.678   5.438  0.2301 -1.0076 -0.2851
 3036SOL     OW10006   3.550   3.381   5.623  0.1280 -0.5310  0.5746
 3036SOL    HW110007   3.466   3.421   5.587  1.4021  2.0572  0.2716
 3036SOL    HW210008   3.564   3.291   5.582 -1.0787  0.1714 -1.5457
 3037SOL     OW10009   6.460   6.814   5.329 -0.1834  0.0739 -0.1857
 3037SOL    HW110010   6.547   6.862   5.322 -0.9711  2.0664  2.1977
 3037SOL    HW210011   6.466   6.726   5.282  3.1342  0.1111 -0.0315
 3038SOL     OW10012   0.050   5.067   0.732  0.2057  0.8702  0.3137
 3038SOL    HW110013  -0.040   5.035   0.759 -0.7653  2.4286 -0.8781
 3038SOL    HW210014   0.046   5.101   0.638  1.5882  2.6416  0.8410
 3039SOL     OW10015   5.862   2.089   6.057 -0.5649 -0.0298  0.1530
 3039SOL    HW110016   5.894   2.124   6.145 -0.7669 -1.6909  0.9099
 3039SOL    HW210017   5.887   1.993   6.048 -3.1693 -0.7340 -0.2847
 3040SOL     OW10018   3.446   5.284   6.202  0.4542  0.0305 -0.1198
 3040SOL    HW110019   3.352   5.319   6.200 -0.2836 -1.7199 -3.3618
 3040SOL    HW210020   3.457   5.219   6.276  0.2585  2.7903  2.5180
 3041SOL     OW10021   2.359   5.074   6.090 -0.1215  0.4786 -0.1277
 3041SOL    HW110022   2.361   5.000   6.023  1.3168 -0.1650  0.5686
 3041SOL    HW210023   2.388   5.039   6.179  1.6634  2.0616 -0.0114
 3042SOL     OW10024   1.207   5.768   3.961 -0.1849  0.2963  0.0082
 3042SOL    HW110025   1.244   5.749   3.870  3.6238  1.9893  0.9975
 3042SOL    HW210026   1.210   5.684   4.016  1.5189  0.1688 -0.2299
 3043SOL     OW10027   2.667   3.800   0.074  0.0248 -0.1914  0.2909
 3043SOL    HW110028   2.632   3.884   0.116 -0.5905  0.0939 -0.7528
 3043SOL    HW210029   2.611   3.778  -0.006 -3.1554 -4.3490  3.2182
 3044SOL     OW10030   3.712   4.207   5.202 -0.0744 -0.6028  0.1976
 3044SOL    HW110031   3.755   4.251   5.281  2.1605 -3.1145  0.5216
 3044SOL    HW210032   3.648   4.137   5.233  0.0321 -0.8882 -0.2171
 3045SOL     OW10033   6.980   0.937   3.126 -0.3674 -0.5537 -0.2721
 3045SOL    HW110034   6.902   0.891   3.168 -0.3391 -0.3648 -0.0120
 3045SOL    HW210035   7.060   0.929   3.185 -0.3041 -0.3621 -0.3299
 3046SOL     OW10036   6.407   5.768   0.913 -0.2920 -0.4181 -0.3345
 3046SOL    HW110037   6.377   5.862   0.928  1.2880  0.3395 -1.5645
 3046SOL    HW210038   6.332   5.714   0.875 -0.9310  0.6109 -0.5630
 3047SOL     OW10039   3.939   0.666   5.151  0.2048 -0.5324 -0.2395
 3047SOL    HW110040   3.988   0.701   5.231 -1.0708 -0.6279  0.6234
 3047SOL    HW210041   3.967   0.716   5.069 -1.1544  2.2254  0.8579
 3048SOL     OW10042   3.729   4.315   1.041 -0.0710  0.0236 -0.4018
 3048SOL    HW110043   3.719   4.233   1.097 -0.5218  0.4282  0.1213
 3048SOL    HW210044   3.826   4.327   1.017  0.1665 -0.0328  0.4866
 3049SOL     OW10045   6.927   6.988   0.885  0.1051  0.3782 -0.3056
 3049SOL    HW110046   6.890   6.978   0.792 -1.4435  0.8254  0.2270
 3049SOL    HW210047   7.026   7.001   0.881  0.2225 -0.7352 -1.8181
 3050SOL     OW10048   3.713   2.236   6.933  0.2065 -0.8325 -0.1545
 3050SOL    HW110049   3.672   2.145   6.924 -0.1992 -0.9636  2.2933
 3050SOL    HW210050   3.784   2.234   7.003 -0.5465  0.9369  0.7246
 3051SOL     OW10051   2.130   2.641   5.602  0.0103  0.0633 -0.5287
 3051SOL    HW110052   2.224   2.607   5.610 -0.4646 -1.3488 -0.6056
 3051SOL    HW210053   2.130   2.728   5.554  1.0601 -1.2403 -3.1031
 3052SOL     OW10054   5.950   4.537   5.877  0.5762 -0.4093 -0.4017
 3052SOL    HW110055   5.856   4.524   5.906 -0.0703 -0.4012 -2.3734
 3052SOL    HW210056   5.971   4.635   5.873  0.5765 -0.4041 -0.2788
 3053SOL     OW10057   0.491   6.890   6.684  0.7588  0.4640  0.1992
 3053SOL    HW110058   0.536   6.955   6.622  0.4186 -0.0723 -0.6409
 3053SOL    HW210059   0.406   6.857   6.641  0.1356  0.6306  1.2826
 3054SOL     OW10060   4.441   6.572   4.302  0.1798 -0.7120  0.0249
 3054SOL    HW110061   4.506   6.522   4.245  0.1892 -1.6446  0.8247
 3054SOL    HW210062   4.381   6.507   4.350 -1.0288  0.1094 -0.3209
 3055SOL     OW10063   6.900   0.484   0.733  0.5714 -0.0127 -0.2846
 3055SOL    HW110064   6.950   0.536   0.802 -0.6891 -0.0857  0.7210
 3055SOL    HW210065   6.881   0.392   0.768  0.4036 -0.2433 -0.9588
 3056SOL     OW10066   2.507   0.404   0.015 -1.0212 -0.6619  0.5439
 3056SOL    HW110067   2.587   0.408  -0.045 -0.6618 -2.9260  0.7594
 3056SOL    HW210068   2.530   0.444   0.104 -0.0416 -1.4327  0.6569
 3057SOL     OW10069   5.243   1.096   2.071 -0.1278 -0.1827 -0.0487
 3057SOL    HW110070   5.217   1.114   2.166  1.2614  0.1290  0.3005
 3057SOL    HW210071   5.337   1.128   2.056 -0.1312 -0.7401 -1.3826
 3058SOL     OW10072   0.072   1.989   6.514  0.0047  0.0753 -0.1636
 3058SOL    HW110073   0.044   2.082   6.538  0.1281 -0.2387  1.3515
 3058SOL    HW210074  -0.008   1.929   6.512 -0.1265  0.2619 -1.5206
 3059SOL     OW10075   0.779   2.662   1.942 -0.4697  0.1063  0.4772
 3059SOL    HW110076   0.743   2.696   2.029 -2.1577  0.0875 -0.1759
 3059SOL    HW210077   0.772   2.733   1.872 -1.0235 -0.5257 -0.1256
 3060SOL     OW10078   4.970   4.331   4.697  0.9345 -0.4317 -1.3832
 3060SOL    HW110079   4.908   4.281   4.759 -0.6190  2.2726 -0.5844
 3060SOL    HW210080   5.052   4.358   4.747  1.4348 -1.4898 -1.6103
 3061SOL     OW10081   5.042   4.760   4.241  0.5013 -0.3858  0.5926
 3061SOL    HW110082   5.108   4.775   4.167 -1.1894  0.0606 -0.9076
 3061SOL    HW210083   5.012   4.665   4.240  0.5686 -0.4082  0.7778
 3062SOL     OW10084   3.519   5.750   1.392  0.2850  0.1947 -0.7330
 3062SOL    HW110085   3.520   5.657   1.430 -1.7272  0.6681  0.6127
 3062SOL    HW210086   3.447   5.757   1.323 -1.2471  1.3289  0.8900
 3063SOL     OW10087   5.346   5.728   0.133 -0.0623  0.5053  0.1944
 3063SOL    HW110088   5.431   5.780   0.136  0.3522 -0.1103 -0.6946
 3063SOL    HW210089   5.366   5.630   0.139 -0.6192  0.2907 -1.1506
 3064SOL     OW10090   4.551   1.704   4.454  0.0794 -0.3358  0.3770
 3064SOL    HW110091   4.618   1.656   4.510  1.0525  0.6298  0.0855
 3064SOL    HW210092   4.462   1.702   4.499  0.3248 -1.5371  0.8317
 3065SOL     OW10093   4.521   0.341   0.420  0.0382 -0.6674  0.1133
 3065SOL    HW110094   4.517   0.244   0.397 -2.4005 -0.3848 -1.0051
 3065SOL    HW210095   4.473   0.357   0.506  2.1561 -0.6441  1.3621
 3066SOL     OW10096   3.440   4.891   5.056  0.7443 -0.0050  0.0613
 3066SOL    HW110097   3.515   4.907   5.120  0.3719  0.0683  0.4901
 3066SOL    HW210098   3.466   4.922   4.965  1.1204  0.2999  0.2711
 3067SOL     OW10099   1.760   1.921   4.654 -0.4439  0.2046 -0.6760
 3067SOL    HW110100   1.720   1.837   4.693 -2.1317  0.5003 -1.6445
 3067SOL    HW210101   1.734   1.927   4.557  1.8542  0.5566 -1.3205
 3068SOL     OW10102   6.193   6.785   2.671 -0.2161  0.6964 -0.2582
 3068SOL    HW110103   6.186   6.755   2.767 -1.6010  0.5387 -0.3833
 3068SOL    HW210104   6.288   6.779   2.641 -0.1235 -1.8616  0.2900
 3069SOL     OW10105   6.559   5.242   2.774 -0.5232  0.1668  0.0200
 3069SOL    HW110106   6.474   5.193   2.751 -1.8472  2.5544 -0.5545
 3069SOL    HW210107   6.536   5.328   2.820  1.6760  0.4043  0.7815
 3070SOL     OW10108   2.551   0.562   0.757 -0.2805  0.1932 -0.2672
 3070SOL    HW110109   2.501   0.600   0.835  1.0665  0.9088  0.2737
 3070SOL    HW210110   2.583   0.636   0.699  2.0531 -0.0490  0.5975
 3071SOL     OW10111   6.942   4.723   4.029  0.0133  0.1680 -0.2044
 3071SOL    HW110112   6.868   4.749   3.967 -0.1743 -1.5877 -0.7757
 3071SOL    HW210113   6.904   4.701   4.119 -0.0113  0.3415 -0.1713
 3072SOL     OW10114   3.590   0.291   2.254 -0.2760  0.1132 -0.5902
 3072SOL    HW110115   3.682   0.329   2.242  0.1513 -0.4438  0.7160
 3072SOL    HW210116   3.525   0.366   2.271  0.3567  0.3823  0.8120
 3073SOL     OW10117   0.840   3.990   4.741  0.7098  0.2739  0.0446
 3073SOL    HW110118   0.775   4.038   4.681  0.8276  0.4423  0.0516
 3073SOL    HW210119   0.796   3.968   4.828  0.3419 -0.5173 -0.3292
 3074SOL     OW10120   2.998   2.254   1.710 -0.1879 -0.2456  0.3497
 3074SOL    HW110121   3.095   2.232   1.712  0.2922  1.7233  0.5956
 3074SOL    HW210122   2.975   2.314   1.787 -0.9440  1.6610 -1.2694
 3075SOL     OW10123   2.976   6.185   5.034  0.1582 -0.8781 -0.3181
 3075SOL    HW110124   3.013   6.092   5.039 -0.4055 -1.0395  1.3800
 3075SOL    HW210125   2.882   6.181   4.999  1.0917 -0.6128 -3.1180
 3076SOL     OW10126   1.439   1.466   3.583  0.1664 -0.0829  0.4153
 3076SOL    HW110127   1.358   1.412   3.604  0.5234 -0.2950  1.3101
 3076SOL    HW210128   1.493   1.478   3.666  0.9389  0.2403 -0.1223
 3077SOL     OW10129   5.521   3.625   1.512  0.2322 -0.1877  0.8278
 3077SOL    HW110130   5.491   3.695   1.576 -0.0491 -1.4197  2.0821
 3077SOL    HW210131   5.620   3.617   1.514  0.2282 -0.1655  1.0463
 3078SOL     OW10132   6.398   4.426   6.344 -0.1770  0.2412  0.4706
 3078SOL    HW110133   6.348   4.373   6.276 -1.1827  0.8143  0.7467
 3078SOL    HW210134   6.489   4.387   6.356 -0.8478 -1.3622  0.5878
 3079SOL     OW10135   6.932   5.156   3.491 -0.1720  0.2680  0.4222
 3079SOL    HW110136   6.976   5.114   3.411 -1.3089 -1.8953  0.8645
 3079SOL    HW210137   7.002   5.197   3.549  1.0694 -1.1522  0.0067
 3080SOL     OW10138   4.259   4.865   2.610 -0.4322 -0.0953  0.1002
 3080SOL    HW110139   4.233   4.793   2.675 -2.6264 -1.8136 -2.4453
 3080SOL    HW210140   4.233   4.954   2.646 -1.3022 -0.9610  1.6978
 3081SOL     OW10141   1.894   3.302   6.548 -0.4247  0.2444  0.1168
 3081SOL    HW110142   1.947   3.225   6.581 -3.6476 -0.6494  3.9267
 3081SOL    HW210143   1.835   3.273   6.473  0.0203 -0.3072 -0.0262
 3082SOL     OW10144   5.031   4.483   5.152 -0.2564  0.7342 -0.5714
 3082SOL    HW110145   4.938   4.450   5.135 -0.8868  1.6214  0.8780
 3082SOL    HW210146   5.052   4.472   5.249  1.2909  0.2729 -0.9399
 3083SOL     OW10147   5.217   6.473   2.097  0.7771  0.0113  0.5419
 3083SOL    HW110148   5.210   6.553   2.038 -0.3502  0.5117  1.3287
 3083SOL    HW210149   5.294   6.416   2.067  0.1477  0.1696 -1.4699
 3084SOL     OW10150   0.542   4.358   3.724 -0.0982 -0.5452 -0.8538
 3084SOL    HW110151   0.535   4.392   3.818 -2.5791 -0.2228 -1.0877
 3084SOL    HW210152   0.631   4.383   3.686  0.5902  0.1270  1.0818
 3085SOL     OW10153   6.060   6.332   5.367  0.0331 -0.2259 -0.4768
 3085SOL    HW110154   6.009   6.252   5.399 -0.6093  0.2628 -0.2732
 3085SOL    HW210155   6.038   6.411   5.424  0.7017  0.0965 -0.6476
 3086SOL     OW10156   0.242   6.429   6.265 -0.3963 -0.4611 -0.2516
 3086SOL    HW110157   0.171   6.376   6.312 -0.5763 -0.6390 -0.7161
 3086SOL    HW210158   0.200   6.507   6.219  0.2177  2.0470  3.0760
 3087SOL     OW10159   4.233   1.069   2.898 -0.6118  0.4219 -0.5271
 3087SOL    HW110160   4.163   1.137   2.876  0.9050  1.9924 -0.7305
 3087SOL    HW210161   4.292   1.104   2.970 -0.0898 -0.9231 -0.2641
 3088SOL     OW10162   2.231   4.161   6.027  0.4108 -0.2968  0.3937
 3088SOL    HW110163   2.165   4.204   6.088  1.1189  0.3604  0.7022
 3088SOL    HW210164   2.182   4.101   5.963 -0.4120 -0.3934  1.0859
 3089SOL     OW10165   4.624   6.377   1.488  0.1162  0.5281 -0.3566
 3089SOL    HW110166   4.531   6.356   1.517 -0.1575 -0.3319 -1.7368
 3089SOL    HW210167   4.635   6.352   1.392  1.7067  0.8650 -0.2919
 3090SOL     OW10168   1.593   0.768   3.873 -0.1605 -0.7615 -0.3205
 3090SOL    HW110169   1.606   0.852   3.925  1.0857 -0.9376 -0.3140
 3090SOL    HW210170   1.619   0.783   3.778 -1.4306 -0.7276 -0.6787
 3091SOL     OW10171   0.298   1.986   6.336  0.3615 -0.1436  0.2030
 3091SOL    HW110172   0.286   2.016   6.241 -1.3015  0.0305  0.4405
 3091SOL    HW210173   0.209   1.982   6.381  1.3340  2.9257  2.7530
 3092SOL     OW10174   5.821   2.143   3.646  0.3893 -0.8546  0.1038
 3092SOL    HW110175   5.759   2.074   3.610 -3.0099  1.8222  0.3881
 3092SOL    HW210176   5.833   2.129   3.744  0.2752 -1.4282  0.0370
 3093SOL     OW10177   5.152   6.546   6.665  0.1918 -0.0165  0.8204
 3093SOL    HW110178   5.070   6.581   6.709 -0.3275  0.0075 -0.1538
 3093SOL    HW210179   5.157   6.447   6.676  0.2513  0.0311  1.2314
 3094SOL     OW10180   1.351   1.818   4.712 -0.0928  0.1488  0.4313
 3094SOL    HW110181   1.377   1.891   4.648 -0.3473  0.3825  0.5941
 3094SOL    HW210182   1.434   1.782   4.756 -0.0439  0.9652  1.0260
 3095SOL     OW10183   1.109   2.533   5.926  0.0922  0.1458 -0.0889
 3095SOL    HW110184   1.052   2.613   5.942  1.8439  1.2604  0.7808
 3095SOL    HW210185   1.061   2.471   5.862 -1.5486  1.5568 -0.3113
 3096SOL     OW10186   2.187   2.349   3.231 -0.3747 -0.1916  0.1347
 3096SOL    HW110187   2.168   2.287   3.308 -1.6439  2.4018  2.0658
 3096SOL    HW210188   2.138   2.317   3.150 -2.9848 -0.4885  1.7117
 3097SOL     OW10189   5.538   4.219   0.327 -0.0319 -0.1237  0.5344
 3097SOL    HW110190   5.551   4.205   0.425 -1.3123  0.4386  0.8026
 3097SOL    HW210191   5.471   4.154   0.293 -1.2578  1.1248  0.5013
 3098SOL     OW10192   6.041   2.916   2.701 -0.3830  0.5453  0.2298
 3098SOL    HW110193   5.975   2.873   2.640 -1.2409 -0.1452  1.5930
 3098SOL    HW210194   6.053   2.859   2.783  1.0649  1.2153  0.5099
 3099SOL     OW10195   5.524   6.434   6.248  0.1618  0.8243  0.3449
 3099SOL    HW110196   5.471   6.470   6.170 -1.0482 -1.3258  0.0954
 3099SOL    HW210197   5.470   6.445   6.332 -1.0225 -1.8333  0.0178
 3100SOL     OW10198   6.442   2.389   4.606  0.4475  0.1556 -0.2192
 3100SOL    HW110199   6.394   2.468   4.644  2.2509  0.5087  1.4576
 3100SOL    HW210200   6.384   2.345   4.537 -1.3782  1.7773  0.1977
 3101SOL     OW10201   5.798   0.222   4.093  0.4297  0.4992  0.0057
 3101SOL    HW110202   5.857   0.156   4.046  1.5391  0.2883  1.5938
 3101SOL    HW210203   5.852   0.304   4.116  0.2643  0.1092  1.9080
 3102SOL     OW10204   5.380   4.140   2.610  0.3910 -0.2831 -0.3056
 3102SOL    HW110205   5.424   4.054   2.586 -0.9548 -1.0899  0.0054
 3102SOL    HW210206   5.298   4.152   2.554 -0.9880 -0.6038  1.5718
 3103SOL     OW10207   2.435   2.086   2.934  0.1580 -0.0884 -0.4172
 3103SOL    HW110208   2.520   2.034   2.941  0.4576  0.3227 -0.8894
 3103SOL    HW210209   2.374   2.043   2.867  0.7132  0.5536 -1.3735
 3104SOL     OW10210   5.081   0.168   6.010 -0.0612 -0.2562  0.1058
 3104SOL    HW110211   5.040   0.108   6.078  0.7860 -0.1221  0.7599
 3104SOL    HW210212   5.160   0.124   5.969 -0.1622 -0.0660 -0.3024
 3105SOL     OW10213   0.648   5.890   6.609  0.0040  0.5948 -0.3292
 3105SOL    HW110214   0.570   5.838   6.576  0.5870 -0.1549 -0.5682
 3105SOL    HW210215   0.661   5.971   6.553 -0.1479  0.3205 -0.7664
 3106SOL     OW10216   4.075   2.642   5.743 -0.3144 -0.0018  0.9189
 3106SOL    HW110217   4.050   2.613   5.835 -2.8060  2.6003  1.2124
 3106SOL    HW210218   3.995   2.684   5.699  1.2253  0.2468 -1.8673
 3107SOL     OW10219   3.430   2.737   5.455 -0.1643 -0.5541  0.7195
 3107SOL    HW110220   3.344   2.733   5.405 -0.6424  1.7646  1.2486
 3107SOL    HW210221   3.506   2.745   5.390 -0.5113 -0.7922  0.2827
 3108SOL     OW10222   3.720   5.178   2.379  0.1597 -0.4195 -0.0100
 3108SOL    HW110223   3.623   5.186   2.360 -0.3922 -0.9061  2.2170
 3108SOL    HW210224   3.738   5.090   2.423  1.4253  0.0544  0.4802
 3109SOL     OW10225   6.880   6.162   2.409  0.4526  0.5889  0.0805
 3109SOL    HW110226   6.976   6.146   2.387  0.3214  2.5963 -2.3272
 3109SOL    HW210227   6.873   6.224   2.486  1.1842  1.9351 -0.8889
 3110SOL     OW10228   1.922   6.778   3.013 -0.0694  0.7405  0.0097
 3110SOL    HW110229   1.839   6.736   3.049  0.3138  0.3953  0.5088
 3110SOL    HW210230   1.928   6.873   3.046 -0.7135  1.0679 -0.7658
 3111SOL     OW10231   6.177   5.046   5.635 -0.4210 -0.0834 -0.0964
 3111SOL    HW110232   6.233   5.116   5.679  0.1729  0.2154 -1.2728
 3111SOL    HW210233   6.086   5.083   5.617 -0.1475  0.3644 -0.6055
 3112SOL     OW10234   4.130   6.907   5.339 -0.1606 -0.5374 -0.0117
 3112SOL    HW110235   4.077   6.979   5.296 -0.3945 -0.3935  0.5052
 3112SOL    HW210236   4.096   6.817   5.310 -0.1593 -0.4423 -0.3072
 3113SOL     OW10237   3.446   0.032   3.275 -0.3465 -0.0735  0.4114
 3113SOL    HW110238   3.390  -0.040   3.315  0.1257  0.7331  2.6617
 3113SOL    HW210239   3.391   0.087   3.213 -1.5174 -0.5247  1.0207
 3114SOL     OW10240   6.727   5.785   6.437 -0.2821 -0.3492  0.3850
 3114SOL    HW110241   6.664   5.758   6.364  0.4723  0.6423 -0.6838
 3114SOL    HW210242   6.807   5.724   6.435  0.6898  0.8836 -1.0045
 3115SOL     OW10243   4.879   4.289   4.145 -0.7049  0.0527 -0.3347
 3115SOL    HW110244   4.857   4.210   4.088  1.2163  0.0898 -1.2201
 3115SOL    HW210245   4.823   4.367   4.116 -0.8834 -0.3524 -1.1210
 3116SOL     OW10246   1.529   2.781   0.977 -0.6073 -0.2906 -0.3416
 3116SOL    HW110247   1.441   2.828   0.984 -0.8407 -0.8461  0.8271
 3116SOL    HW210248   1.591   2.833   0.919 -1.5702  0.3194 -0.8454
 3117SOL     OW10249   4.685   6.279   2.211  0.0475 -0.2028 -0.6297
 3117SOL    HW110250   4.705   6.256   2.116  0.2774 -0.4173 -0.5334
 3117SOL    HW210251   4.636   6.366   2.216  1.2600  0.5165 -0.8563
 3118SOL     OW10252   6.149   2.106   1.782 -0.1162 -0.0938 -0.2018
 3118SOL    HW110253   6.190   2.099   1.691  1.0490 -0.2077  0.3113
 3118SOL    HW210254   6.154   2.201   1.813 -2.6830  0.4298 -1.2061
 3119SOL     OW10255   5.322   0.251   4.503  0.4495 -0.3108  0.2441
 3119SOL    HW110256   5.397   0.252   4.570  1.6883  0.3144 -1.1013
 3119SOL    HW210257   5.289   0.344   4.489  0.8695 -0.3005 -0.7250
 3120SOL     OW10258   2.967   5.985   5.388 -0.5656  0.0505 -0.5000
 3120SOL    HW110259   2.960   6.017   5.483  1.5115  0.0311 -0.2898
 3120SOL    HW210260   3.008   6.057   5.332  0.2181 -0.6925 -0.9069
 3121SOL     OW10261   2.743   0.070   2.364 -0.8305  0.0283 -0.4874
 3121SOL    HW110262   2.824   0.018   2.339 -0.0498  0.4815  0.9692
 3121SOL    HW210263   2.742   0.086   2.463 -1.5246  1.9475 -0.7455
 3122SOL     OW10264   6.643   3.126   6.225 -0.0495 -0.1446  0.4449
 3122SOL    HW110265   6.665   3.214   6.267 -1.9582  0.7781 -0.3081
 3122SOL    HW210266   6.593   3.069   6.290 -1.3166  0.5101  0.0768
 3123SOL     OW10267   2.009   2.546   2.841  0.0234 -0.6715 -0.0435
 3123SOL    HW110268   2.097   2.592   2.853 -0.2459 -0.5845  1.7839
 3123SOL    HW210269   1.935   2.603   2.877 -0.7473 -0.9578 -1.1097
 3124SOL     OW10270   5.192   6.829   5.843  0.8440 -0.3785 -0.4232
 3124SOL    HW110271   5.135   6.821   5.925  1.1907  2.3627  0.1816
 3124SOL    HW210272   5.135   6.826   5.762  0.3206 -1.5876 -0.0291
 3125SOL     OW10273   2.993   6.047   4.764  0.1176  0.6254  0.3892
 3125SOL    HW110274   2.934   5.970   4.740  0.3496  0.1361  1.3344
 3125SOL    HW210275   3.039   6.027   4.850  1.0500  1.3458  0.0687
 3126SOL     OW10276   5.345   4.617   6.848 -1.0171  0.3610 -0.4581
 3126SOL    HW110277   5.283   4.622   6.770 -0.0102  0.0895 -1.2941
 3126SOL    HW210278   5.316   4.682   6.918 -2.2586  0.2069 -0.8044
 3127SOL     OW10279   6.861   2.854   6.251 -0.3954 -0.4949 -0.0515
 3127SOL    HW110280   6.895   2.761   6.257  3.1390  0.6055 -0.6987
 3127SOL    HW210281   6.761   2.853   6.249 -0.4963 -4.3031 -1.2391
 3128SOL     OW10282   5.079   1.330   1.449 -0.0247  0.5203 -0.0202
 3128SOL    HW110283   5.015   1.390   1.401 -0.1644  1.1286  0.8956
 3128SOL    HW210284   5.167   1.377   1.458 -0.2596  0.7798  1.0735
 3129SOL     OW10285   5.653   5.030   0.596  0.2824  0.6631  0.0437
 3129SOL    HW110286   5.622   5.125   0.595 -0.0222  0.5650 -1.1566
 3129SOL    HW210287   5.641   4.992   0.688  0.5384  1.8209  0.5700
 3130SOL     OW10288   0.450   5.195   1.907 -0.8122  0.3042  0.6698
 3130SOL    HW110289   0.431   5.177   2.003 -4.5380  0.4487  0.1356
 3130SOL    HW210290   0.424   5.114   1.853 -2.8967  1.6296 -0.4629
 3131SOL     OW10291   6.757   1.886   2.689  0.0259  0.1208  0.5286
 3131SOL    HW110292   6.677   1.857   2.742 -0.2059  2.0208  1.2830
 3131SOL    HW210293   6.774   1.820   2.616 -2.0797 -0.4637  0.5002
 3132SOL     OW10294   4.422   2.540   6.451 -0.4088 -0.7526 -0.6907
 3132SOL    HW110295   4.349   2.583   6.503 -0.3032 -0.4081 -0.8189
 3132SOL    HW210296   4.463   2.608   6.390  1.1866 -0.4647  0.6295
 3133SOL     OW10297   5.833   6.054   4.581  0.3245 -0.3819 -0.5560
 3133SOL    HW110298   5.765   6.109   4.534  2.3180  1.0516 -1.9156
 3133SOL    HW210299   5.843   6.086   4.675  0.3117  0.5279 -0.8563
 3134SOL     OW10300   4.120   5.497   4.242 -0.0165 -0.0429 -0.1582
 3134SOL    HW110301   4.149   5.461   4.331 -1.9371 -2.0489 -0.2485
 3134SOL    HW210302   4.187   5.472   4.172  2.4614  3.1151  0.8789
 3135SOL     OW10303   3.313   5.846   6.061 -0.0141  0.7064  0.1101
 3135SOL    HW110304   3.342   5.786   5.986 -0.1323  0.4753  0.2489
 3135SOL    HW210305   3.358   5.819   6.146  0.3336  1.1444  0.0702
 3136SOL     OW10306   6.668   6.824   2.326  0.0981  0.4218  0.6543
 3136SOL    HW110307   6.726   6.905   2.336  1.5790 -0.8738  4.1462
 3136SOL    HW210308   6.722   6.742   2.343 -1.6477 -1.3180 -1.5024
 3137SOL     OW10309   4.313   5.429   1.097  0.0030  0.3569 -0.1739
 3137SOL    HW110310   4.215   5.447   1.104  0.4506  2.3223  2.2684
 3137SOL    HW210311   4.335   5.344   1.146 -0.8435 -2.3322 -3.9545
 3138SOL     OW10312   1.082   6.465   5.298 -0.5937  0.2244  0.6409
 3138SOL    HW110313   1.074   6.564   5.289 -0.9452  0.0126 -2.3590
 3138SOL    HW210314   1.059   6.422   5.211 -2.4214 -2.6568  2.4004
 3139SOL     OW10315   2.268   4.173   2.329  0.7525  0.2898 -0.0859
 3139SOL    HW110316   2.198   4.228   2.283  0.8703 -0.5289 -1.2889
 3139SOL    HW210317   2.343   4.154   2.266  0.4436 -1.7270  0.0811
 3140SOL     OW10318   4.522   5.468   6.905 -0.0112 -0.1756 -0.0610
 3140SOL    HW110319   4.617   5.462   6.876 -0.8121  0.7627 -3.3757
 3140SOL    HW210320   4.481   5.376   6.905  0.7050 -0.4974  0.6546
 3141SOL     OW10321   6.785   3.237   5.971 -0.2509  0.4082 -0.2618
 3141SOL    HW110322   6.690   3.254   5.999 -0.6659 -0.9868 -0.6966
 3141SOL    HW210323   6.807   3.295   5.892 -0.4734  1.3075  0.3243
 3142SOL     OW10324   5.288   0.912   3.651  0.5486  0.8089  0.2184
 3142SOL    HW110325   5.280   0.982   3.722  0.8291  1.8512 -0.7562
 3142SOL    HW210326   5.384   0.900   3.626  0.4426  0.5246 -0.0566
 3143SOL     OW10327   5.800   1.605   0.191  0.5814  0.5150  0.0426
 3143SOL    HW110328   5.782   1.690   0.142  0.4026  0.8509  0.6746
 3143SOL    HW210329   5.828   1.534   0.127  0.1607  0.8908 -0.5626
 3144SOL     OW10330   3.030   6.064   0.684 -0.2303  0.0514  0.5742
 3144SOL    HW110331   2.943   6.022   0.660  0.6545 -0.9920 -0.9617
 3144SOL    HW210332   3.085   6.000   0.738 -0.3575  0.6565  1.4337
 3145SOL     OW10333   0.831   6.252   6.095 -0.0201 -0.5384 -0.0547
 3145SOL    HW110334   0.921   6.296   6.089 -1.4037  2.3313 -2.3807
 3145SOL    HW210335   0.828   6.174   6.032  1.2704 -1.7237  1.2686
 3146SOL     OW10336   6.974   2.463   6.417 -1.0026 -0.1943  0.6540
 3146SOL    HW110337   7.041   2.521   6.463 -1.6051 -0.5210  2.0025
 3146SOL    HW210338   6.942   2.508   6.334  1.2236 -0.2455 -0.3020
 3147SOL     OW10339   5.890   0.399   2.905 -0.0430 -0.5111 -0.5107
 3147SOL    HW110340   5.828   0.323   2.925 -0.6244  0.0010 -0.3375
 3147SOL    HW210341   5.932   0.385   2.816  1.8748 -2.3651  0.5938
 3148SOL     OW10342   5.247   5.323   1.166  0.0647  0.1267  0.9341
 3148SOL    HW110343   5.265   5.343   1.070 -1.0524 -1.4566  0.3540
 3148SOL    HW210344   5.334   5.313   1.215  0.6501  2.2438  0.4124
 3149SOL     OW10345   2.295   4.278   6.922  0.3134  0.0356  0.0549
 3149SOL    HW110346   2.316   4.316   6.832  3.3510  2.1623  1.4496
 3149SOL    HW210347   2.311   4.179   6.922 -0.9954 -0.2239 -1.9903
 3150SOL     OW10348   0.788   5.406   4.975  0.2489 -0.1940 -0.1328
 3150SOL    HW110349   0.688   5.410   4.975  0.2254 -0.4408  0.7359
 3150SOL    HW210350   0.823   5.436   4.887 -0.5569  0.9074 -0.0924
 3151SOL     OW10351   0.747   2.854   5.650  0.3259 -0.3956 -0.2843
 3151SOL    HW110352   0.842   2.851   5.619  0.5439  0.1344  0.3193
 3151SOL    HW210353   0.744   2.887   5.744 -0.4408 -0.6468 -0.2176
 3152SOL     OW10354   2.962   2.631   0.457  0.1736 -0.3439 -0.1913
 3152SOL    HW110355   2.954   2.731   0.462 -1.2642 -0.4997  3.1244
 3152SOL    HW210356   3.048   2.602   0.498 -0.0861 -0.5183  0.2364
 3153SOL     OW10357   6.901   5.474   2.345 -0.2416 -0.2519  0.5089
 3153SOL    HW110358   6.870   5.451   2.253  2.5822  1.4437 -1.0284
 3153SOL    HW210359   6.860   5.560   2.374 -0.9889 -0.6906  0.7562
 3154SOL     OW10360   3.087   1.692   6.159  0.0223  0.0833 -0.3170
 3154SOL    HW110361   3.157   1.641   6.109 -0.5418 -1.5050  0.4646
 3154SOL    HW210362   3.129   1.739   6.237  0.2197 -0.9097  0.1826
 3155SOL     OW10363   0.390   6.941   4.563  0.4880  0.2092  0.2001
 3155SOL    HW110364   0.451   6.928   4.486  1.5128 -0.7787  1.1406
 3155SOL    HW210365   0.406   7.030   4.605 -0.4578  0.9838 -1.0252
 3156SOL     OW10366   2.928   4.532   0.408 -0.2558 -0.2484 -0.0126
 3156SOL    HW110367   2.933   4.615   0.464 -1.4913 -0.6024  0.6582
 3156SOL    HW210368   2.932   4.451   0.468 -1.8746 -0.6333 -0.3639
 3157SOL     OW10369   1.431   2.580   3.576  0.0817 -0.0172 -0.2081
 3157SOL    HW110370   1.379   2.495   3.566 -0.6937  0.4658 -0.4221
 3157SOL    HW210371   1.505   2.566   3.642 -1.7203 -0.1357  1.9314
 3158SOL     OW10372   3.441   0.854   6.552 -0.6135 -0.4685 -0.0827
 3158SOL    HW110373   3.371   0.867   6.623  0.3602 -2.9429  1.4625
 3158SOL    HW210374   3.529   0.889   6.585 -0.3956 -0.5539 -0.5577
 3159SOL     OW10375   2.620   5.015   0.082 -0.1605 -0.0912  0.5122
 3159SOL    HW110376   2.521   5.023   0.085 -0.1792  0.0576 -0.1842
 3159SOL    HW210377   2.646   4.920   0.066 -0.2301  0.0203 -0.3190
 3160SOL     OW10378   3.019   1.123   6.016  0.3940  0.0942 -0.1923
 3160SOL    HW110379   3.018   1.077   5.927  0.4816 -0.3754  0.0485
 3160SOL    HW210380   3.108   1.109   6.059  0.1936 -0.0576  0.1683
 3161SOL     OW10381   0.502   2.506   1.011  0.6295 -0.3864  0.0056
 3161SOL    HW110382   0.477   2.411   0.995 -0.2489 -0.7347  2.7861
 3161SOL    HW210383   0.598   2.512   1.039  0.5318 -0.5631  0.3919
 3162SOL     OW10384   2.565   4.852   2.501 -0.2128  0.2215 -0.2606
 3162SOL    HW110385   2.526   4.826   2.590  1.5144 -1.5191  0.0664
 3162SOL    HW210386   2.505   4.819   2.428 -2.0235  2.2866  0.1710
 3163SOL     OW10387   4.776   4.254   2.524 -0.3443 -0.8774  0.0637
 3163SOL    HW110388   4.821   4.181   2.473  0.4354 -0.1583 -0.2918
 3163SOL    HW210389   4.717   4.307   2.462 -0.0764 -0.5452  0.0918
 3164SOL     OW10390   2.014   0.055   1.534 -0.3745  0.4724 -0.5831
 3164SOL    HW110391   2.044  -0.021   1.476  0.7222 -0.5879  1.2856
 3164SOL    HW210392   1.920   0.038   1.565  0.3513 -0.9433  1.0058
 3165SOL     OW10393   1.074   5.877   0.140  0.1308  0.0912 -0.8652
 3165SOL    HW110394   1.043   5.960   0.094  1.6805  2.2982  1.7227
 3165SOL    HW210395   1.002   5.845   0.202  0.3017  0.8404 -0.2624
 3166SOL     OW10396   4.131   2.225   2.819 -0.1502 -0.0180 -0.0794
 3166SOL    HW110397   4.150   2.162   2.744  2.8806  1.2198 -0.5161
 3166SOL    HW210398   4.064   2.293   2.789  1.3261  0.7118 -1.8900
 3167SOL     OW10399   6.722   2.277   1.717  0.4484  0.4415 -0.0032
 3167SOL    HW110400   6.740   2.372   1.742  1.4408  0.2811 -0.0774
 3167SOL    HW210401   6.628   2.253   1.743  1.1348  0.5261  2.8107
 3168SOL     OW10402   2.877   3.098   6.046  0.2565  0.2330  0.0267
 3168SOL    HW110403   2.814   3.106   5.969 -0.9281 -0.1040  0.9388
 3168SOL    HW210404   2.874   3.182   6.101  0.0824 -0.0510  0.4567
 3169SOL     OW10405   0.069   4.363   0.575  0.4293  0.0437 -0.2477
 3169SOL    HW110406   0.061   4.298   0.650  0.8173 -0.4359 -0.6184
 3169SOL    HW210407  -0.018   4.413   0.565 -0.5155 -1.6765 -1.0955
 3170SOL     OW10408   2.330   4.195   3.952  0.0031 -0.1469 -0.4590
 3170SOL    HW110409   2.327   4.180   3.854  1.6400  0.8468 -0.6995
 3170SOL    HW210410   2.313   4.292   3.972 -1.5382 -0.5421  0.3640
 3171SOL     OW10411   0.355   0.683   5.311 -0.2259  0.1250 -0.8907
 3171SOL    HW110412   0.396   0.623   5.243 -0.2870 -0.1278 -0.7057
 3171SOL    HW210413   0.411   0.683   5.394 -1.5014 -1.6161  0.0357
 3172SOL     OW10414   6.038   3.137   1.627  0.5040 -0.4698  0.5627
 3172SOL    HW110415   6.011   3.181   1.542  0.0341 -0.1467  0.8758
 3172SOL    HW210416   6.025   3.200   1.703 -2.2268 -1.7912  1.3089
 3173SOL     OW10417   4.044   4.206   6.740 -0.1380  0.1658 -0.3884
 3173SOL    HW110418   4.037   4.133   6.808 -3.0953 -0.7250 -1.4939
 3173SOL    HW210419   4.139   4.238   6.734  0.6618 -1.4271  2.3092
 3174SOL     OW10420   3.762   3.459   5.833  0.2053 -0.4169 -1.0069
 3174SOL    HW110421   3.858   3.473   5.809  0.2341 -0.3169 -0.8383
 3174SOL    HW210422   3.715   3.413   5.758  0.3137 -0.1895 -1.2165
 3175SOL     OW10423   6.852   6.098   6.002 -0.2106 -0.1056  0.6168
 3175SOL    HW110424   6.780   6.164   5.981 -0.4369  0.1613  2.1548
 3175SOL    HW210425   6.929   6.144   6.044 -0.2613 -0.7709  1.4657
 3176SOL     OW10426   0.849   5.910   2.838  0.4035 -0.2031  0.0043
 3176SOL    HW110427   0.772   5.915   2.901 -0.5158 -2.2559 -0.8568
 3176SOL    HW210428   0.913   5.985   2.856 -0.3795 -0.0730  2.5905
 3177SOL     OW10429   4.954   3.511   3.097 -0.1782 -0.6527 -0.8064
 3177SOL    HW110430   5.040   3.514   3.046  0.3302 -1.2798 -0.0170
 3177SOL    HW210431   4.907   3.425   3.079  0.7478 -1.5735  0.8991
 3178SOL     OW10432   2.911   1.146   3.367  0.3216 -0.4193  0.1519
 3178SOL    HW110433   2.987   1.121   3.308  0.5200  0.3220  0.0791
 3178SOL    HW210434   2.855   1.065   3.386  0.6587 -0.8049 -0.4633
 3179SOL     OW10435   0.531   2.749   2.972  0.0273 -0.1174  0.6895
 3179SOL    HW110436   0.614   2.697   2.992 -0.2234 -1.4960 -1.5594
 3179SOL    HW210437   0.546   2.806   2.892 -0.0192  2.6874  2.5401
 3180SOL     OW10438   0.033   6.456   0.544  0.0694 -0.4195  0.3093
 3180SOL    HW110439   0.065   6.531   0.487 -1.8836 -0.5385 -1.0178
 3180SOL    HW210440  -0.027   6.492   0.616 -1.3817 -0.7182 -0.7122
 3181SOL     OW10441   6.938   5.326   6.360 -0.0544 -0.1757 -0.3355
 3181SOL    HW110442   6.929   5.236   6.403 -0.3247 -0.8728 -1.7525
 3181SOL    HW210443   6.870   5.334   6.286 -0.7284  1.6100  0.4180
 3182SOL     OW10444   1.724   5.063   1.393 -0.1043  0.6239 -0.0445
 3182SOL    HW110445   1.754   5.014   1.475 -1.3573 -1.1446 -0.5749
 3182SOL    HW210446   1.651   5.127   1.417  0.6369  1.2982  0.4521
 3183SOL     OW10447   3.246   4.320   6.241  0.1736  0.4900  0.9958
 3183SOL    HW110448   3.157   4.326   6.285 -1.6105 -2.0828 -1.8934
 3183SOL    HW210449   3.297   4.242   6.278  0.5007  0.8966  1.4154
 3184SOL     OW10450   5.532   6.738   4.450  0.6533  0.5381  0.7374
 3184SOL    HW110451   5.542   6.665   4.384  0.8586 -0.9874  2.3767
 3184SOL    HW210452   5.510   6.823   4.403 -1.2110 -0.8843 -1.1302
 3185SOL     OW10453   2.310   1.236   0.409 -0.2669  0.0368 -0.3342
 3185SOL    HW110454   2.302   1.214   0.311 -0.7828  1.8923 -0.7522
 3185SOL    HW210455   2.251   1.176   0.462 -0.4535 -0.5915 -1.2372
 3186SOL     OW10456   2.005   1.102   5.098  0.6317  0.0584  0.4528
 3186SOL    HW110457   2.015   1.187   5.047  3.0526 -0.3141  0.1709
 3186SOL    HW210458   2.072   1.100   5.173 -1.3432 -0.3751  2.3110
 3187SOL     OW10459   5.071   0.735   2.691 -0.2961  0.1716 -0.1306
 3187SOL    HW110460   5.093   0.679   2.611  1.8425  0.0081  0.5313
 3187SOL    HW210461   5.098   0.830   2.674 -0.4919  0.2770  0.1369
 3188SOL     OW10462   2.282   5.313   0.052 -0.0347  0.3369 -0.7233
 3188SOL    HW110463   2.222   5.381   0.095 -0.2435  1.3952 -2.5925
 3188SOL    HW210464   2.226   5.237   0.017 -0.1624  0.7868 -1.4962
 3189SOL     OW10465   3.266   0.572   4.540  0.4157  0.4334 -0.0385
 3189SOL    HW110466   3.172   0.539   4.548  0.5251  0.3704  1.2517
 3189SOL    HW210467   3.300   0.555   4.448 -0.8607  0.5376 -0.5477
 3190SOL     OW10468   5.295   0.950   4.934 -0.0356  0.2700  0.2078
 3190SOL    HW110469   5.202   0.984   4.922 -0.4212 -1.3320 -1.8932
 3190SOL    HW210470   5.360   1.026   4.925 -1.0663  1.2417  0.7276
 3191SOL     OW10471   4.098   4.782   1.527  0.0326  0.1862 -0.2689
 3191SOL    HW110472   4.047   4.697   1.538  0.3728  0.2188  1.9878
 3191SOL    HW210473   4.181   4.779   1.583  1.4491  0.9886 -2.2044
 3192SOL     OW10474   5.378   1.050   2.773  0.0535 -0.0713 -0.7388
 3192SOL    HW110475   5.456   1.112   2.769 -0.7313  1.0272  0.3075
 3192SOL    HW210476   5.399   0.974   2.834  0.5769 -0.1831 -1.0546
 3193SOL     OW10477   4.011   0.084   3.982  0.0380  0.2580 -0.6311
 3193SOL    HW110478   4.019  -0.010   4.014  1.5498 -0.1347 -2.0493
 3193SOL    HW210479   4.099   0.115   3.948 -0.9054  1.4893 -2.0701
 3194SOL     OW10480   1.789   0.215   5.342  0.2377  0.2636 -0.1521
 3194SOL    HW110481   1.870   0.218   5.283  0.1562 -0.3212 -0.3056
 3194SOL    HW210482   1.787   0.128   5.391 -1.9701 -1.2124 -2.5871
 3195SOL     OW10483   0.449   4.285   1.795  0.2997  0.1479 -0.0247
 3195SOL    HW110484   0.368   4.249   1.749 -0.4458 -0.8686  1.9488
 3195SOL    HW210485   0.426   4.307   1.890  1.8641  1.7343  0.0304
 3196SOL     OW10486   6.635   6.015   2.422  0.3561  0.0579 -0.5760
 3196SOL    HW110487   6.720   6.068   2.428 -1.1941  2.5420  0.9956
 3196SOL    HW210488   6.558   6.076   2.406 -1.4856 -1.7612  0.7225
 3197SOL     OW10489   3.845   2.552   0.124 -0.2271  0.4177  0.5474
 3197SOL    HW110490   3.934   2.571   0.082 -0.0189  0.5540  1.0425
 3197SOL    HW210491   3.814   2.461   0.096 -0.3875  0.7492 -0.3973
 3198SOL     OW10492   6.945   4.830   5.170 -0.1685 -0.7729  0.3230
 3198SOL    HW110493   6.887   4.768   5.224  0.6891 -2.4695 -0.6173
 3198SOL    HW210494   6.983   4.900   5.230 -4.6392  1.7136  0.7025
 3199SOL     OW10495   6.532   5.126   4.205 -0.3705 -0.4836 -0.2530
 3199SOL    HW110496   6.450   5.156   4.156 -0.7716 -1.5210 -0.2274
 3199SOL    HW210497   6.582   5.058   4.150  1.3426  1.2443 -0.9786
 3200SOL     OW10498   0.097   2.510   4.643  0.4038 -0.4597 -0.3184
 3200SOL    HW110499   0.007   2.467   4.635  0.8170 -1.3784 -0.1850
 3200SOL    HW210500   0.086   2.610   4.643 -0.5287 -0.5403 -1.2040
 3201SOL     OW10501   5.242   3.142   1.887 -0.5252  0.0710  0.2856
 3201SOL    HW110502   5.150   3.120   1.854  0.2410  1.3288 -3.0435
 3201SOL    HW210503   5.304   3.067   1.863 -0.2848  0.1747  0.5849
 3202SOL     OW10504   4.620   2.395   6.703  0.8121 -0.1289  0.4778
 3202SOL    HW110505   4.705   2.387   6.651 -0.5634 -1.3040 -1.7601
 3202SOL    HW210506   4.594   2.491   6.710  0.4330  0.0455 -2.2061
 3203SOL     OW10507   3.406   5.948   2.070  0.4650 -0.3488 -0.4675
 3203SOL    HW110508   3.417   5.988   2.161  0.1684  1.7629 -1.2945
 3203SOL    HW210509   3.442   5.855   2.070  1.5090 -0.0074  1.4961
 3204SOL     OW10510   5.893   2.272   4.426  0.3624  0.7569 -0.2374
 3204SOL    HW110511   5.825   2.261   4.353 -0.2807  0.2366  0.4292
 3204SOL    HW210512   5.883   2.197   4.492  1.7463  0.5317 -0.2517
 3205SOL     OW10513   4.651   4.597   0.776  0.2792  0.4746  0.1537
 3205SOL    HW110514   4.560   4.632   0.753  1.0756  3.3064  0.8136
 3205SOL    HW210515   4.710   4.602   0.696  0.2684  0.1149  0.1214
 3206SOL     OW10516   2.699   4.156   5.955 -0.6129  0.0534 -0.1067
 3206SOL    HW110517   2.754   4.076   5.930 -2.3201 -1.0753 -0.4325
 3206SOL    HW210518   2.708   4.226   5.884 -0.2430 -0.4463 -0.5619
 3207SOL     OW10519   2.819   0.259   3.766  0.3655 -0.7601  0.2391
 3207SOL    HW110520   2.757   0.252   3.844 -0.0172 -0.0434  0.0037
 3207SOL    HW210521   2.854   0.353   3.760 -1.5697 -0.0930 -1.9208
 3208SOL     OW10522   1.644   2.395   6.656  0.1802 -0.2538 -0.1938
 3208SOL    HW110523   1.574   2.462   6.682 -0.2242 -0.7794  0.1090
 3208SOL    HW210524   1.716   2.440   6.604 -0.2493  0.3536 -0.2763
 3209SOL     OW10525   2.918   0.285   4.090 -0.2827 -0.4367  0.3857
 3209SOL    HW110526   2.914   0.199   4.141 -0.6007 -1.1782 -0.8636
 3209SOL    HW210527   2.832   0.300   4.043 -0.6702  1.1796  1.5114
 3210SOL     OW10528   5.641   5.183   2.469  0.4048  0.2528  0.6130
 3210SOL    HW110529   5.551   5.141   2.480  0.4739  0.1825  0.9200
 3210SOL    HW210530   5.634   5.281   2.489  0.1728  0.4664 -0.4357
 3211SOL     OW10531   2.579   1.586   1.123  0.2842 -0.4200  0.1286
 3211SOL    HW110532   2.625   1.596   1.211  2.8889  1.0840 -1.2745
 3211SOL    HW210533   2.538   1.673   1.097 -0.6440 -0.9096 -0.0740
 3212SOL     OW10534   3.931   1.354   0.920 -0.2431  0.1346  0.0215
 3212SOL    HW110535   3.969   1.441   0.890 -0.2952  0.0531 -0.2873
 3212SOL    HW210536   3.855   1.370   0.983  0.1263  0.3018  0.4330
 3213SOL     OW10537   1.810   6.781   4.587  0.1678 -0.5541  0.4240
 3213SOL    HW110538   1.866   6.699   4.597  1.3060  0.0844 -0.4070
 3213SOL    HW210539   1.788   6.794   4.490 -0.5083 -0.2045  0.6204
 3214SOL     OW10540   1.490   1.307   0.904  0.7555 -0.7576 -0.1334
 3214SOL    HW110541   1.587   1.284   0.900  1.1395  0.6385  0.5209
 3214SOL    HW210542   1.478   1.404   0.881 -0.5616 -1.0613 -0.8377
 3215SOL     OW10543   2.100   3.031   0.675 -0.3871  0.6228  0.4454
 3215SOL    HW110544   2.150   3.103   0.626 -0.6481  0.7601  0.3775
 3215SOL    HW210545   2.031   3.072   0.733 -0.1601  0.4504  0.8415
 3216SOL     OW10546   5.408   4.308   1.085  0.3409 -0.5491 -0.3555
 3216SOL    HW110547   5.404   4.346   0.993 -0.4431 -0.0391 -0.1270
 3216SOL    HW210548   5.360   4.370   1.148  0.3168 -1.2053  0.2820
 3217SOL     OW10549   0.341   5.672   2.499  1.1278  0.2869 -0.0361
 3217SOL    HW110550   0.310   5.714   2.413  0.8492  1.1722  0.4878
 3217SOL    HW210551   0.367   5.577   2.482 -0.1532  0.0664 -0.8450
 3218SOL     OW10552   0.581   2.297   3.816 -0.2215 -0.3246 -0.3554
 3218SOL    HW110553   0.645   2.284   3.740 -2.8312 -0.9909 -2.6240
 3218SOL    HW210554   0.620   2.260   3.900  2.2690 -0.8057 -1.6447
 3219SOL     OW10555   0.028   1.464   4.716  0.1001  0.7191 -0.2068
 3219SOL    HW110556  -0.042   1.533   4.734 -0.2540  0.6324 -1.1595
 3219SOL    HW210557   0.086   1.453   4.796 -0.1626  1.7486  0.1374
 3220SOL     OW10558   5.407   3.687   5.438 -0.3011  0.4020  0.4051
 3220SOL    HW110559   5.473   3.641   5.498  0.9068 -1.0841 -1.9122
 3220SOL    HW210560   5.329   3.627   5.421 -1.7249  1.6570  2.0969
 3221SOL     OW10561   4.312   2.347   2.312 -0.1159  0.2731  0.5869
 3221SOL    HW110562   4.306   2.253   2.277  0.9150 -0.0738  1.3127
 3221SOL    HW210563   4.224   2.373   2.352 -0.9516  0.2441 -1.1301
 3222SOL     OW10564   4.052   0.835   4.940  0.5790  0.3898  0.0494
 3222SOL    HW110565   3.992   0.910   4.911  0.0495 -0.4149 -0.9865
 3222SOL    HW210566   4.129   0.873   4.991  0.6236  1.7112 -0.9384
 3223SOL     OW10567   3.998   6.074   2.038 -0.0756 -0.2667  0.4156
 3223SOL    HW110568   3.904   6.092   2.008 -0.0876  0.7209  1.0092
 3223SOL    HW210569   4.062   6.117   1.974 -0.0514 -0.1627  0.5095
 3224SOL     OW10570   4.531   1.898   4.006 -0.0203 -0.3543  0.4435
 3224SOL    HW110571   4.508   1.994   3.991  0.9937 -0.0750  0.6376
 3224SOL    HW210572   4.629   1.889   4.024 -0.2890 -1.2921  1.5549
 3225SOL     OW10573   5.495   1.314   6.357  0.5736 -0.1235  0.5784
 3225SOL    HW110574   5.475   1.218   6.335 -0.5248  0.3377 -0.5761
 3225SOL    HW210575   5.456   1.337   6.446 -0.8424 -0.2566  0.0136
 3226SOL     OW10576   1.494   1.423   2.745  0.3448  0.3585 -0.2058
 3226SOL    HW110577   1.458   1.516   2.741 -2.4959 -0.6709 -0.6944
 3226SOL    HW210578   1.461   1.378   2.828  1.4590 -0.3217 -0.1144
 3227SOL     OW10579   5.959   4.293   3.937  0.0673  0.0914  0.0498
 3227SOL    HW110580   5.985   4.340   3.853  0.1392 -1.0946 -0.6042
 3227SOL    HW210581   6.001   4.339   4.015  1.6321  0.0219 -0.7311
 3228SOL     OW10582   2.951   4.512   1.404  0.3523  0.1747 -0.0317
 3228SOL    HW110583   2.905   4.442   1.350 -0.4847 -0.2650  1.2092
 3228SOL    HW210584   3.050   4.501   1.395  0.2269 -0.4129 -0.7950
 3229SOL     OW10585   0.433   6.988   1.005 -0.1497  1.1009 -0.2035
 3229SOL    HW110586   0.448   6.897   1.044 -0.7102  0.0224 -2.3416
 3229SOL    HW210587   0.521   7.034   0.993  0.3570 -0.0443 -1.0590
 3230SOL     OW10588   2.110   5.324   3.035  0.1648  0.1345  0.1346
 3230SOL    HW110589   2.099   5.341   3.133 -0.0866  0.0101  0.1305
 3230SOL    HW210590   2.077   5.232   3.014  0.0835  0.2138 -0.0896
 3231SOL     OW10591   2.834   0.901   3.961  0.3814  0.0330  0.6962
 3231SOL    HW110592   2.910   0.861   3.910 -1.0629  0.5925 -2.1019
 3231SOL    HW210593   2.855   0.996   3.982 -0.8872  1.5732 -3.7362
 3232SOL     OW10594   5.303   4.975   3.703  0.1713 -0.6648  0.4648
 3232SOL    HW110595   5.393   4.966   3.747  0.5108 -1.7923 -0.4175
 3232SOL    HW210596   5.282   4.892   3.653 -1.4320 -0.4433  0.7277
 3233SOL     OW10597   2.981   0.040   5.199 -0.1564 -0.3041 -0.0965
 3233SOL    HW110598   2.989  -0.059   5.213  0.1063 -0.3926 -0.8424
 3233SOL    HW210599   2.890   0.061   5.165 -0.1674 -0.2995 -0.0649
 3234SOL     OW10600   2.334   2.726   0.991  0.5470  0.2294  0.3771
 3234SOL    HW110601   2.382   2.733   0.903  0.3580 -1.6029  0.0695
 3234SOL    HW210602   2.399   2.701   1.062  0.4707  0.2638  0.4583
 3235SOL     OW10603   6.286   1.212   1.977  0.0551  0.0561 -0.5732
 3235SOL    HW110604   6.262   1.309   1.987 -1.0130 -0.3913  2.6233
 3235SOL    HW210605   6.373   1.195   2.023 -0.3744 -0.6518  0.0184
 3236SOL     OW10606   5.765   6.763   0.321 -0.1425 -0.2810 -0.2793
 3236SOL    HW110607   5.774   6.826   0.244 -1.4948 -1.3868 -1.3849
 3236SOL    HW210608   5.704   6.804   0.390 -1.1075 -0.4154 -1.0406
 3237SOL     OW10609   7.021   0.519   5.220 -0.5860 -0.1183 -0.0530
 3237SOL    HW110610   7.104   0.511   5.166 -0.2164 -4.0680  0.7719
 3237SOL    HW210611   6.943   0.487   5.166 -1.0228  0.4762  0.2179
 3238SOL     OW10612   6.091   0.340   0.119  0.3913  0.0817  0.1771
 3238SOL    HW110613   6.067   0.403   0.192  0.7299 -0.3163  0.6337
 3238SOL    HW210614   6.009   0.318   0.066  0.3516  1.3073 -0.3223
 3239SOL     OW10615   4.753   0.032   4.771 -0.2042 -0.1205 -0.5577
 3239SOL    HW110616   4.818   0.038   4.847 -0.6134 -0.1961 -0.1989
 3239SOL    HW210617   4.714  -0.060   4.768 -2.4447  0.7067  1.0408
 3240SOL     OW10618   0.137   1.183   0.235 -0.2039 -0.1665 -0.1364
 3240SOL    HW110619   0.084   1.267   0.226 -0.1707 -0.0718  0.4900
 3240SOL    HW210620   0.127   1.127   0.153  0.7274  0.9947 -1.0778
 3241SOL     OW10621   0.164   4.626   5.977 -0.2751  0.2734 -0.1647
 3241SOL    HW110622   0.168   4.565   5.897  0.9792 -0.6990  0.5999
 3241SOL    HW210623   0.231   4.698   5.967 -1.4822  1.3495 -0.8762
 3242SOL     OW10624   0.158   5.014   5.701  0.0032 -0.6661  0.1528
 3242SOL    HW110625   0.085   4.953   5.668 -1.2669  1.4776 -1.2501
 3242SOL    HW210626   0.237   5.008   5.640 -0.9428  0.5768 -1.2845
 3243SOL     OW10627   2.510   0.224   3.358  0.4078  0.1348 -0.5735
 3243SOL    HW110628   2.603   0.218   3.394 -0.1640 -0.4693  0.8842
 3243SOL    HW210629   2.513   0.255   3.264  2.1524 -0.7433 -0.8554
 3244SOL     OW10630   3.943   2.341   5.653 -0.4206 -0.3055 -0.7623
 3244SOL    HW110631   3.856   2.384   5.677  0.7859  1.4128  0.8462
 3244SOL    HW210632   4.007   2.410   5.620  1.3681 -0.8659  1.2609
 3245SOL     OW10633   4.360   5.554   3.480 -0.0141  0.0559  0.3234
 3245SOL    HW110634   4.263   5.580   3.481 -0.9146 -2.9034  0.4978
 3245SOL    HW210635   4.389   5.537   3.386  0.6442  1.8569  0.1823
 3246SOL     OW10636   6.216   5.326   1.315  0.5524  0.4178  0.1493
 3246SOL    HW110637   6.264   5.264   1.252 -0.1527  0.2407 -0.2179
 3246SOL    HW210638   6.219   5.287   1.407 -0.8274 -0.7390 -0.2615
 3247SOL     OW10639   1.289   5.019   5.076  1.0807 -0.4863 -0.6085
 3247SOL    HW110640   1.260   5.085   5.006 -1.2537  0.7843  1.4214
 3247SOL    HW210641   1.367   5.056   5.126 -0.2704  0.9349  0.5863
 3248SOL     OW10642   4.868   3.702   2.366  0.0807  0.1635  0.2409
 3248SOL    HW110643   4.779   3.658   2.382  1.0632 -1.5157  1.4731
 3248SOL    HW210644   4.899   3.745   2.450 -0.0780  1.8072 -0.5114
 3249SOL     OW10645   3.883   3.350   5.483 -0.2863  0.1490  0.1832
 3249SOL    HW110646   3.896   3.322   5.388  1.2576  0.6404  0.2184
 3249SOL    HW210647   3.861   3.270   5.539  1.1427 -0.5602 -0.2136
 3250SOL     OW10648   5.624   0.020   4.112 -0.5239  0.3989  0.5064
 3250SOL    HW110649   5.543   0.052   4.063 -0.4255  0.7949  0.5979
 3250SOL    HW210650   5.681   0.098   4.136 -0.3175  0.1584  0.8031
 3251SOL     OW10651   2.730   1.671   2.341 -0.3729  0.0840 -0.4347
 3251SOL    HW110652   2.638   1.662   2.305 -0.2856 -0.0432 -0.6254
 3251SOL    HW210653   2.739   1.759   2.388 -0.0974  0.8621 -1.8748
 3252SOL     OW10654   1.802   0.101   3.381  0.0396 -0.6709  0.2132
 3252SOL    HW110655   1.802   0.200   3.390  0.4357 -0.5771 -0.7332
 3252SOL    HW210656   1.860   0.061   3.453  0.8532 -0.1308 -0.1276
 3253SOL     OW10657   6.219   2.773   1.533 -0.6457  0.3727  0.2710
 3253SOL    HW110658   6.129   2.808   1.555 -0.3778  1.4895 -0.3089
 3253SOL    HW210659   6.247   2.808   1.443  0.4898  0.3182  0.5833
 3254SOL     OW10660   5.828   0.615   1.149  0.1463  0.2213  0.3453
 3254SOL    HW110661   5.894   0.674   1.102 -0.6910 -0.2091 -1.4937
 3254SOL    HW210662   5.757   0.588   1.084 -1.0081 -0.5590  1.8803
 3255SOL     OW10663   3.699   5.784   2.495 -0.2483 -0.5578  0.2507
 3255SOL    HW110664   3.721   5.874   2.533 -1.9509 -0.3503  0.8515
 3255SOL    HW210665   3.684   5.719   2.569 -2.8765 -0.3374  0.0158
 3256SOL     OW10666   6.531   4.241   0.884  0.0971  0.5058  0.4554
 3256SOL    HW110667   6.529   4.340   0.900  0.1169  0.6710 -0.5053
 3256SOL    HW210668   6.457   4.216   0.821  1.1893  0.1845 -0.7335
 3257SOL     OW10669   2.975   0.212   1.700  0.1316  0.2610 -0.2239
 3257SOL    HW110670   3.041   0.280   1.731  1.2496 -0.4043 -1.0262
 3257SOL    HW210671   2.921   0.250   1.624 -0.2357  0.7249  0.2667
 3258SOL     OW10672   1.540   4.333   3.705  0.0810 -0.3700 -0.0416
 3258SOL    HW110673   1.635   4.354   3.680  0.1362 -2.5328 -2.0416
 3258SOL    HW210674   1.515   4.385   3.786  2.6738  0.9390  0.0479
 3259SOL     OW10675   6.128   6.259   2.062 -0.1545  0.1813  0.2649
 3259SOL    HW110676   6.135   6.215   1.972 -1.4951  0.3649  0.0573
 3259SOL    HW210677   6.207   6.232   2.118 -0.2393 -1.4002 -0.3193
 3260SOL     OW10678   2.379   4.974   3.724 -0.5851 -0.2622  0.5422
 3260SOL    HW110679   2.284   4.954   3.749 -0.7431  0.2600  0.3868
 3260SOL    HW210680   2.384   4.996   3.627 -0.3491 -0.0334  0.6050
 3261SOL     OW10681   6.247   0.156   4.005 -0.0454 -0.1852 -0.6003
 3261SOL    HW110682   6.327   0.097   4.002  1.2397  1.4429  0.1478
 3261SOL    HW210683   6.274   0.251   3.988 -1.9125  0.3339 -0.9364
 3262SOL     OW10684   2.059   0.439   3.545  0.0662  0.3764 -0.4113
 3262SOL    HW110685   2.123   0.422   3.470  1.4859 -3.0076  1.3530
 3262SOL    HW210686   2.108   0.486   3.619  0.1703 -0.9267  0.3721
 3263SOL     OW10687   4.648   1.254   1.516 -0.2792  0.2843  0.0784
 3263SOL    HW110688   4.630   1.308   1.433 -1.5172 -0.7178 -0.3363
 3263SOL    HW210689   4.616   1.160   1.502  0.6027 -0.2176  1.2767
 3264SOL     OW10690   1.983   5.160   6.742  0.4698 -0.0236 -0.2346
 3264SOL    HW110691   2.080   5.182   6.755  0.7043 -0.8633 -0.5042
 3264SOL    HW210692   1.968   5.130   6.648 -0.1258  0.4492 -0.2930
 3265SOL     OW10693   1.629   0.798   6.608 -0.0905 -0.6977 -0.1936
 3265SOL    HW110694   1.718   0.796   6.653  0.6147  3.1135 -1.0810
 3265SOL    HW210695   1.625   0.726   6.539  2.8258 -0.3139 -0.9069
 3266SOL     OW10696   2.210   5.607   5.047  0.1862  0.3127  0.2272
 3266SOL    HW110697   2.276   5.544   5.005  0.8481  1.6413 -0.7974
 3266SOL    HW210698   2.121   5.596   5.004  0.8770  1.7234 -1.7171
 3267SOL     OW10699   5.141   6.330   6.984  0.1392  0.1828 -0.3338
 3267SOL    HW110700   5.088   6.330   6.900 -0.0058  0.5141 -0.2434
 3267SOL    HW210701   5.238   6.344   6.962  0.1877 -0.3536 -0.4906
 3268SOL     OW10702   6.798   5.732   2.432  0.2744  0.0983  0.0109
 3268SOL    HW110703   6.746   5.817   2.419  1.6689  0.9034 -0.6238
 3268SOL    HW210704   6.814   5.718   2.530  1.2154  1.3593  0.0690
 3269SOL     OW10705   0.765   0.194   1.960 -0.2450 -0.5438 -0.3559
 3269SOL    HW110706   0.678   0.228   1.924 -0.1621  0.3774  0.2751
 3269SOL    HW210707   0.769   0.095   1.950 -1.6423 -0.6733  0.1681
 3270SOL     OW10708   1.576   2.385   6.373 -0.3437  1.0298 -0.0712
 3270SOL    HW110709   1.610   2.456   6.312  0.4317  0.7703  0.0414
 3270SOL    HW210710   1.593   2.411   6.468  2.1047 -0.2753 -0.0509
 3271SOL     OW10711   1.592   2.691   1.232 -0.1582 -0.1144 -0.1419
 3271SOL    HW110712   1.526   2.618   1.242 -0.0314 -0.1689  0.2966
 3271SOL    HW210713   1.605   2.711   1.134 -1.0438  0.1052 -0.2199
 3272SOL     OW10714   3.650   0.389   3.296 -0.4132  0.1283  0.1035
 3272SOL    HW110715   3.668   0.302   3.250 -0.5264  0.5502 -0.7541
 3272SOL    HW210716   3.704   0.393   3.381 -0.4198 -0.7756  0.1627
 3273SOL     OW10717   4.502   2.769   6.280  0.5485 -0.2264 -0.1440
 3273SOL    HW110718   4.532   2.858   6.244  1.4004 -1.1811 -1.9369
 3273SOL    HW210719   4.450   2.721   6.210 -0.0635 -1.0797  0.8736
 3274SOL     OW10720   4.562   0.907   2.810 -0.6718  0.3755  0.7807
 3274SOL    HW110721   4.572   0.987   2.752  1.5052 -1.4434 -1.5894
 3274SOL    HW210722   4.648   0.891   2.860 -0.6284 -1.0813  0.3059
 3275SOL     OW10723   4.384   0.830   2.571  0.4277 -0.1735  0.0057
 3275SOL    HW110724   4.434   0.838   2.658 -1.0562  1.5849  0.7691
 3275SOL    HW210725   4.365   0.921   2.535 -0.7067 -0.8360 -1.1458
 3276SOL     OW10726   6.784   0.782   6.715 -0.9240 -0.1946 -0.3458
 3276SOL    HW110727   6.686   0.798   6.718 -1.2675 -2.2274  1.9565
 3276SOL    HW210728   6.804   0.686   6.732  1.4764  0.1396 -0.8278
 3277SOL     OW10729   3.911   6.911   2.287 -0.2891 -0.0465  0.1774
 3277SOL    HW110730   3.903   6.946   2.194  0.3257  0.2270  0.2180
 3277SOL    HW210731   3.860   6.970   2.350  0.6531  0.7299  0.2297
 3278SOL     OW10732   6.170   2.855   6.852 -0.5456 -0.1320  0.4513
 3278SOL    HW110733   6.131   2.894   6.769 -1.0505  1.6310  1.4580
 3278SOL    HW210734   6.269   2.866   6.851 -0.5331 -0.2985 -0.0157
 3279SOL     OW10735   4.869   1.076   1.532 -1.0484  0.2249 -0.1833
 3279SOL    HW110736   4.816   1.075   1.617 -2.4743 -0.3393 -1.0521
 3279SOL    HW210737   4.870   1.168   1.494  0.3545  0.6895  0.8573
 3280SOL     OW10738   6.691   2.432   4.989  0.1663  0.6037  0.2661
 3280SOL    HW110739   6.752   2.353   4.989  0.0044  0.4341 -1.6322
 3280SOL    HW210740   6.745   2.515   5.004  1.2779  0.6486 -3.0833
 3281SOL     OW10741   5.852   1.958   2.313  0.4585 -0.0125  0.4514
 3281SOL    HW110742   5.893   2.042   2.348  0.4622 -1.3198  3.9833
 3281SOL    HW210743   5.907   1.879   2.342 -1.3910 -1.4454  0.2293
 3282SOL     OW10744   6.172   5.284   5.934  0.0306 -0.2310 -0.8307
 3282SOL    HW110745   6.111   5.322   5.864  0.1433 -0.0452 -0.8283
 3282SOL    HW210746   6.258   5.256   5.892  0.0229 -0.3019 -0.7993
 3283SOL     OW10747   2.574   0.244   1.347 -0.4392 -0.1682  0.1488
 3283SOL    HW110748   2.530   0.315   1.292 -0.1396 -0.1171 -0.0276
 3283SOL    HW210749   2.570   0.157   1.298  2.5326  0.4596 -1.4064
 3284SOL     OW10750   3.257   1.158   6.158 -1.0274  0.1748 -0.4441
 3284SOL    HW110751   3.317   1.080   6.171  0.2370  1.1361 -0.3170
 3284SOL    HW210752   3.286   1.233   6.218  0.0554  1.9954 -3.0412
 3285SOL     OW10753   2.645   1.905   5.193 -0.2592  0.4343  0.2423
 3285SOL    HW110754   2.597   1.992   5.189  0.7521  1.0123  0.3295
 3285SOL    HW210755   2.597   1.843   5.255  0.1964  1.6850  1.9165
 3286SOL     OW10756   2.182   3.333   3.521 -0.3841 -0.3779  0.4842
 3286SOL    HW110757   2.183   3.395   3.443  0.8491  0.4938  1.1606
 3286SOL    HW210758   2.210   3.382   3.604  0.7535 -1.8366  1.0129
 3287SOL     OW10759   2.062   3.626   0.485 -0.1542  0.6820 -0.1753
 3287SOL    HW110760   2.126   3.560   0.526 -0.6613  0.2764 -0.0273
 3287SOL    HW210761   2.096   3.653   0.395 -0.5683 -0.7537 -0.7859
 3288SOL     OW10762   3.778   5.113   1.442  0.6020  0.0460 -0.5457
 3288SOL    HW110763   3.678   5.107   1.437  0.5476  0.3582  0.0209
 3288SOL    HW210764   3.818   5.071   1.361  0.0506 -1.3077 -0.1431
 3289SOL     OW10765   4.434   6.244   0.043 -0.1462 -0.0349 -0.3374
 3289SOL    HW110766   4.441   6.342   0.026 -0.2919 -0.1878 -1.3541
 3289SOL    HW210767   4.401   6.228   0.136 -1.9794  0.9066 -0.7978
 3290SOL     OW10768   1.055   5.570   0.099 -0.0372  0.2098  0.0383
 3290SOL    HW110769   1.002   5.507   0.156  1.2856 -0.9030  0.0899
 3290SOL    HW210770   1.108   5.631   0.157 -1.4960  1.5698 -0.0099
 3291SOL     OW10771   4.598   6.761   5.717 -0.3438  0.5064 -0.5972
 3291SOL    HW110772   4.568   6.675   5.675  1.2741 -0.3476 -0.1031
 3291SOL    HW210773   4.613   6.746   5.815 -0.8775  1.5990 -0.3378
 3292SOL     OW10774   6.836   3.756   6.588  0.4099  0.1819 -0.0867
 3292SOL    HW110775   6.752   3.710   6.561  0.4482 -0.1678  0.3804
 3292SOL    HW210776   6.831   3.782   6.684  0.8135  0.2147 -0.0701
 3293SOL     OW10777   0.957   3.554   3.001 -0.2263 -0.2380 -0.0791
 3293SOL    HW110778   1.052   3.560   3.032  0.0855 -0.3354 -0.9992
 3293SOL    HW210779   0.899   3.525   3.078  0.4453  0.0451  0.5480
 3294SOL     OW10780   3.737   3.644   5.021 -0.0435  0.0834  0.3620
 3294SOL    HW110781   3.820   3.590   5.032 -1.3552 -1.9309  1.0609
 3294SOL    HW210782   3.734   3.683   4.929  1.3978 -0.2746  0.1484
 3295SOL     OW10783   2.290   0.894   3.086  0.0243  0.1774 -0.3944
 3295SOL    HW110784   2.364   0.827   3.088 -0.5901 -0.4925  0.4226
 3295SOL    HW210785   2.207   0.853   3.123 -1.3841  0.1952 -3.2305
 3296SOL     OW10786   3.777   0.968   3.038 -0.0002  0.2984 -0.6217
 3296SOL    HW110787   3.759   1.056   3.082  0.5561 -0.0985  0.4360
 3296SOL    HW210788   3.874   0.963   3.013 -0.0795  0.0721 -0.8863
 3297SOL     OW10789   4.160   0.612   5.525  0.2036  0.5855  0.3783
 3297SOL    HW110790   4.118   0.528   5.492  0.5983  0.5762 -0.1189
 3297SOL    HW210791   4.255   0.616   5.495 -0.7608  2.9821 -3.0429
 3298SOL     OW10792   3.633   5.709   5.123  0.2955  0.0409  0.0075
 3298SOL    HW110793   3.549   5.720   5.177  1.0286  0.2256  1.1422
 3298SOL    HW210794   3.677   5.798   5.111  1.6382 -0.3505  1.6214
 3299SOL     OW10795   4.026   0.213   5.328 -0.1698 -0.2169 -0.2565
 3299SOL    HW110796   4.002   0.276   5.254  1.4464  0.7773  0.0175
 3299SOL    HW210797   4.101   0.153   5.299  0.3499  0.0504  0.4937
 3300SOL     OW10798   0.976   7.004   3.340  0.2281 -0.6472  0.1554
 3300SOL    HW110799   0.973   7.035   3.245 -1.5772  0.7446  0.6045
 3300SOL    HW210800   1.019   6.914   3.345 -0.3265 -1.0849 -2.0814
 3301SOL     OW10801   0.701   1.316   1.911  0.0334  0.1863  0.0130
 3301SOL    HW110802   0.780   1.360   1.953 -0.4028 -0.5374  1.6866
 3301SOL    HW210803   0.731   1.241   1.853  0.5699 -0.9592  1.7022
 3302SOL     OW10804   1.486   3.662   5.018  0.1498 -0.3275  0.5918
 3302SOL    HW110805   1.575   3.670   4.973  0.7093 -0.3843  1.6362
 3302SOL    HW210806   1.494   3.600   5.097 -0.7705 -0.1935  0.8066
 3303SOL     OW10807   4.068   2.386   1.013 -0.2992  0.0321  0.0575
 3303SOL    HW110808   4.153   2.420   1.053 -0.5554  0.4224  0.2829
 3303SOL    HW210809   4.058   2.288   1.034  0.2276 -0.0824 -0.2146
 3304SOL     OW10810   1.193   4.666   0.458  0.8087 -0.5101  0.3457
 3304SOL    HW110811   1.115   4.623   0.503 -0.5384 -0.2014 -1.5817
 3304SOL    HW210812   1.168   4.758   0.429  1.3904 -0.9125 -1.5447
 3305SOL     OW10813   2.394   2.646   5.998  0.1701 -0.2213  0.4014
 3305SOL    HW110814   2.450   2.721   5.961  2.3671 -0.6844  2.5492
 3305SOL    HW210815   2.399   2.568   5.936  0.9601  0.1350 -0.0003
 3306SOL     OW10816   3.206   1.486   3.276  0.2488  0.3737  0.2107
 3306SOL    HW110817   3.116   1.491   3.233  0.7736 -2.1897 -1.3958
 3306SOL    HW210818   3.277   1.492   3.205  1.2516 -0.3522  1.1157
 3307SOL     OW10819   0.196   4.210   4.374 -0.0191  0.5095  0.1482
 3307SOL    HW110820   0.169   4.172   4.462  0.9343 -0.8479 -0.1186
 3307SOL    HW210821   0.269   4.155   4.334  0.6856  2.0198 -0.7697
 3308SOL     OW10822   3.285   5.256   5.641 -0.1633  0.3969 -0.0925
 3308SOL    HW110823   3.261   5.351   5.620 -1.3357 -0.4275 -2.9663
 3308SOL    HW210824   3.206   5.198   5.622  1.1382 -1.3686 -0.2661
 3309SOL     OW10825   5.464   3.314   3.318  0.2544  0.1203 -0.0098
 3309SOL    HW110826   5.523   3.352   3.246 -0.1344 -0.1239 -0.4571
 3309SOL    HW210827   5.483   3.217   3.328  1.0167  0.3545  0.9111
 3310SOL     OW10828   5.949   5.837   5.323 -0.0637  0.5792 -0.7196
 3310SOL    HW110829   5.953   5.756   5.381 -0.8457  1.6655  0.9145
 3310SOL    HW210830   6.039   5.881   5.321 -0.1165  0.7317 -0.0202
 3311SOL     OW10831   1.190   0.218   5.335 -0.5774  0.0797  0.0456
 3311SOL    HW110832   1.280   0.176   5.317 -0.3068  0.5585  0.2638
 3311SOL    HW210833   1.157   0.189   5.425 -0.2674  0.5417  0.3106
 3312SOL     OW10834   4.692   2.863   1.722 -0.0709 -0.8218 -0.1967
 3312SOL    HW110835   4.684   2.939   1.787  0.4347 -0.9259 -0.0114
 3312SOL    HW210836   4.637   2.786   1.755 -0.0846 -0.7565 -0.0660
 3313SOL     OW10837   1.582   1.739   4.837  0.4903  0.3348  0.5281
 3313SOL    HW110838   1.609   1.777   4.925 -1.8700 -0.7009  1.8070
 3313SOL    HW210839   1.569   1.640   4.845 -1.1303  0.4129 -0.5592
 3314SOL     OW10840   2.829   5.443   2.551  0.5101  1.0000  0.1145
 3314SOL    HW110841   2.761   5.516   2.546  0.2113  0.7713  0.7763
 3314SOL    HW210842   2.905   5.465   2.490 -0.7475  0.6149 -1.6791
 3315SOL     OW10843   1.536   6.360   2.793 -0.1606  0.0285  0.6321
 3315SOL    HW110844   1.588   6.352   2.878 -1.1826  0.0882  1.2839
 3315SOL    HW210845   1.455   6.302   2.798 -0.4190  0.3067 -0.1622
 3316SOL     OW10846   3.044   0.768   5.628 -0.0206  0.4263 -0.0084
 3316SOL    HW110847   3.039   0.671   5.653 -0.4822  0.7104  1.0715
 3316SOL    HW210848   3.090   0.777   5.540 -2.1683 -0.9447 -1.3547
 3317SOL     OW10849   5.672   0.657   1.946  0.0895 -0.0390 -0.1055
 3317SOL    HW110850   5.725   0.640   2.028  0.6129  0.5698 -0.3106
 3317SOL    HW210851   5.670   0.574   1.889  0.9717 -0.0103 -0.1843
 3318SOL     OW10852   3.460   0.692   0.530  0.0249 -0.6348  0.1812
 3318SOL    HW110853   3.547   0.662   0.492  0.6793  1.1726  0.1880
 3318SOL    HW210854   3.475   0.766   0.595 -1.5747  0.2583 -0.4118
 3319SOL     OW10855   1.671   4.619   3.032  0.1197  0.3385  0.2205
 3319SOL    HW110856   1.720   4.671   3.102 -0.3806  2.3065 -0.8427
 3319SOL    HW210857   1.727   4.613   2.950  0.1850 -0.8851  0.3324
 3320SOL     OW10858   5.733   0.872   2.488  0.4210  0.0634  0.2111
 3320SOL    HW110859   5.687   0.951   2.448 -0.8216 -0.4746  0.5245
 3320SOL    HW210860   5.831   0.875   2.466  0.4125  1.7042  0.2611
 3321SOL     OW10861   5.576   1.588   4.767  0.6279  0.1762  0.3432
 3321SOL    HW110862   5.609   1.494   4.758 -0.0619 -0.0683  0.3543
 3321SOL    HW210863   5.639   1.639   4.825  2.2551  0.3583 -1.4776
 3322SOL     OW10864   4.738   3.268   1.086 -0.2489  0.2659  0.3997
 3322SOL    HW110865   4.759   3.303   1.177 -0.1604  0.4435  0.3123
 3322SOL    HW210866   4.693   3.340   1.033  0.8713  0.5987 -0.1344
 3323SOL     OW10867   1.737   2.001   0.572 -0.2736  0.3053  0.3691
 3323SOL    HW110868   1.661   1.989   0.636 -1.9277 -0.4750 -1.5989
 3323SOL    HW210869   1.712   2.068   0.503  1.3700  0.9697  0.3715
 3324SOL     OW10870   5.279   0.381   5.110  0.5218  0.0344  0.0886
 3324SOL    HW110871   5.375   0.405   5.123  0.4265  0.5670 -0.1618
 3324SOL    HW210872   5.227   0.403   5.192  0.3542  1.1461 -0.2910
 3325SOL     OW10873   1.480   4.282   6.307  0.0790 -0.1079 -0.0828
 3325SOL    HW110874   1.395   4.253   6.351  0.7310  1.2592  2.2760
 3325SOL    HW210875   1.546   4.207   6.311 -0.3441 -0.4870 -0.0482
 3326SOL     OW10876   3.291   2.548   1.120 -0.0424  0.0527  0.0019
 3326SOL    HW110877   3.218   2.611   1.146  0.7841  0.3762  1.6476
 3326SOL    HW210878   3.336   2.514   1.202  2.3350  0.6697 -0.9685
 3327SOL     OW10879   1.608   0.866   4.768  0.6018 -0.0427  0.0898
 3327SOL    HW110880   1.694   0.829   4.802  0.0016 -2.3985 -0.8056
 3327SOL    HW210881   1.626   0.933   4.696  1.6712 -0.4711 -0.0493
 3328SOL     OW10882   4.679   1.910   5.202  0.1967 -0.3499 -0.2470
 3328SOL    HW110883   4.685   1.810   5.194  1.4578 -0.3429  0.3830
 3328SOL    HW210884   4.719   1.939   5.288 -1.4390  0.6159  0.2273
 3329SOL     OW10885   5.984   0.827   4.852 -0.0391  0.6916  0.5497
 3329SOL    HW110886   5.934   0.741   4.850  0.5701  0.3426 -1.0731
 3329SOL    HW210887   6.068   0.816   4.904 -0.7815  0.8053  1.8113
 3330SOL     OW10888   6.639   3.014   4.228  0.5219 -0.2525 -0.3345
 3330SOL    HW110889   6.658   2.968   4.315  0.1820  0.1428 -0.0497
 3330SOL    HW210890   6.541   3.014   4.211  0.2708  2.1985  0.7060
 3331SOL     OW10891   3.182   2.536   0.594  0.1383 -0.7755  0.4555
 3331SOL    HW110892   3.144   2.552   0.685  1.0928 -1.5877  1.0160
 3331SOL    HW210893   3.232   2.449   0.593  0.6040 -0.5177 -0.6954
 3332SOL     OW10894   0.372   4.998   3.413  0.0883 -0.1208 -0.3674
 3332SOL    HW110895   0.426   4.944   3.477 -0.7680 -0.2525  0.2698
 3332SOL    HW210896   0.431   5.035   3.342  0.8229 -1.2177 -0.3532
 3333SOL     OW10897   1.958   5.301   4.426 -0.0953  0.3058 -0.7556
 3333SOL    HW110898   2.014   5.284   4.507  0.1169  0.4073 -0.8811
 3333SOL    HW210899   2.000   5.257   4.346  0.1741  0.9665 -0.9799
 3334SOL     OW10900   1.116   3.355   0.860  0.2748  0.4417  0.5853
 3334SOL    HW110901   1.027   3.344   0.816  0.2692  2.1014  0.1062
 3334SOL    HW210902   1.103   3.398   0.950  0.6625  2.6102 -0.3181
 3335SOL     OW10903   0.362   3.893   4.960 -0.2203  0.0328  0.9302
 3335SOL    HW110904   0.415   3.965   5.004  0.5485  1.0544 -1.5001
 3335SOL    HW210905   0.415   3.809   4.956  1.2392  0.9691 -1.2323
 3336SOL     OW10906   3.696   6.254   5.036  0.0045 -0.0211  0.5405
 3336SOL    HW110907   3.633   6.313   5.087 -0.2864  0.6032 -0.4945
 3336SOL    HW210908   3.695   6.281   4.940  0.4805 -1.2105  0.1846
 3337SOL     OW10909   2.794   1.487   7.012  0.2076  0.0006  0.2508
 3337SOL    HW110910   2.883   1.486   7.057  0.2382 -0.8361  0.1984
 3337SOL    HW210911   2.793   1.419   6.939 -0.4968 -0.0555  0.3046
 3338SOL     OW10912   0.766   5.897   0.681  0.3277  0.4316  0.1238
 3338SOL    HW110913   0.789   5.821   0.743 -1.1686  0.3990  0.6800
 3338SOL    HW210914   0.672   5.927   0.699 -0.1856  0.3699 -2.2040
 3339SOL     OW10915   0.089   5.064   0.164 -0.0280 -0.0122 -0.5905
 3339SOL    HW110916   0.130   5.150   0.195  0.7943  0.0936 -1.8982
 3339SOL    HW210917   0.019   5.034   0.230  1.9046 -0.0244  1.5887
 3340SOL     OW10918   4.075   0.178   2.297 -0.3781 -0.4347 -0.1316
 3340SOL    HW110919   4.065   0.142   2.204 -0.9011  0.0095 -0.2526
 3340SOL    HW210920   4.047   0.274   2.298 -0.9453 -0.6025  0.6135
 3341SOL     OW10921   3.221   1.314   0.674  0.4259  0.0003 -0.1878
 3341SOL    HW110922   3.286   1.311   0.597  0.4418  0.7368 -0.2061
 3341SOL    HW210923   3.249   1.247   0.743  0.8999 -0.0657 -0.4388
 3342SOL     OW10924   3.752   1.482   5.063 -0.0289 -0.3050  0.0943
 3342SOL    HW110925   3.727   1.412   4.996 -0.4946 -1.2391  1.2200
 3342SOL    HW210926   3.801   1.440   5.139  2.1662  1.0142 -0.5004
 3343SOL     OW10927   0.142   1.341   6.556 -0.0145 -0.2779 -0.0875
 3343SOL    HW110928   0.232   1.380   6.573 -0.0452  0.2882 -1.1394
 3343SOL    HW210929   0.151   1.247   6.524  0.1963 -0.2735 -0.0384
 3344SOL     OW10930   1.388   2.531   0.248 -0.3117  0.2845 -0.1431
 3344SOL    HW110931   1.440   2.467   0.304 -0.3387  0.5669  0.2148
 3344SOL    HW210932   1.438   2.550   0.163 -1.2792 -1.8377 -1.2610
 3345SOL     OW10933   3.321   3.513   5.522  0.3677  0.0899 -0.7742
 3345SOL    HW110934   3.301   3.438   5.459 -1.2337  0.6908 -1.0348
 3345SOL    HW210935   3.324   3.599   5.470 -0.6670  0.5549 -0.1042
 3346SOL     OW10936   2.160   3.192   2.636  0.3943 -0.2985  0.3776
 3346SOL    HW110937   2.186   3.106   2.593 -0.5142 -0.2752 -0.2576
 3346SOL    HW210938   2.156   3.264   2.566  2.0002  0.4895  1.0282
 3347SOL     OW10939   4.801   4.349   5.039 -0.3572  0.3515  0.0079
 3347SOL    HW110940   4.816   4.265   4.987 -2.2264 -0.1698  0.2452
 3347SOL    HW210941   4.721   4.396   5.004 -0.0103  1.4390  0.6355
 3348SOL     OW10942   3.210   3.801   4.644  0.0339 -0.1212  0.2376
 3348SOL    HW110943   3.241   3.747   4.565  1.0795  1.3574 -0.4171
 3348SOL    HW210944   3.232   3.752   4.728 -0.5394 -1.4501 -0.3483
 3349SOL     OW10945   3.676   3.094   0.747  0.0678 -0.2221  0.5481
 3349SOL    HW110946   3.625   3.013   0.779 -1.4491 -0.0156 -1.2020
 3349SOL    HW210947   3.622   3.176   0.765  1.0648  0.3185  1.1956
 3350SOL     OW10948   0.458   1.791   1.240 -0.5896 -0.1705  0.5998
 3350SOL    HW110949   0.507   1.736   1.306  0.3948  1.1535  1.0188
 3350SOL    HW210950   0.505   1.790   1.152 -0.0145  0.7422  0.8783
 3351SOL     OW10951   6.206   2.733   6.145  0.9842  0.2283  0.3339
 3351SOL    HW110952   6.272   2.668   6.108  0.6535  0.7007 -1.1354
 3351SOL    HW210953   6.240   2.826   6.134  0.6368  0.4034  0.7235
 3352SOL     OW10954   5.940   5.044   1.441 -0.0468 -0.1526 -0.1863
 3352SOL    HW110955   5.857   5.097   1.420  0.3608 -0.0880 -1.7757
 3352SOL    HW210956   6.002   5.099   1.496 -0.4940  0.2727 -0.0967
 3353SOL     OW10957   0.924   0.784   6.289 -0.3074  0.0381  0.2427
 3353SOL    HW110958   0.828   0.756   6.292 -0.1509 -0.4632  0.8724
 3353SOL    HW210959   0.932   0.873   6.244 -1.1897  0.5661  1.0937
 3354SOL     OW10960   2.162   0.515   1.902 -0.1060 -0.0891  0.4966
 3354SOL    HW110961   2.179   0.600   1.851 -2.7131  0.1298 -0.1360
 3354SOL    HW210962   2.195   0.438   1.848 -1.4993  0.2533 -0.9533
 3355SOL     OW10963   6.414   6.661   2.846 -0.1680 -0.5214 -0.1955
 3355SOL    HW110964   6.486   6.600   2.879  1.0707 -0.1671 -2.0848
 3355SOL    HW210965   6.338   6.661   2.911  1.1631 -1.5554  1.4491
 3356SOL     OW10966   0.975   1.154   0.584 -0.2285  0.5862 -0.6208
 3356SOL    HW110967   0.939   1.158   0.677  2.3959  0.5013  0.4679
 3356SOL    HW210968   1.003   1.246   0.556 -1.0493  0.6198 -1.3872
 3357SOL     OW10969   1.691   6.633   2.445  0.0817  0.1151  0.0884
 3357SOL    HW110970   1.638   6.676   2.518  0.5074 -0.4894  0.7651
 3357SOL    HW210971   1.767   6.582   2.484 -1.2365 -2.5106 -0.5183
 3358SOL     OW10972   6.560   3.656   4.886 -0.0809  0.2828 -0.2956
 3358SOL    HW110973   6.519   3.569   4.914  1.1193 -0.5518 -1.0706
 3358SOL    HW210974   6.492   3.729   4.896 -0.5094 -0.3782  2.2578
 3359SOL     OW10975   3.307   6.573   1.280 -0.4546  0.2809  0.1704
 3359SOL    HW110976   3.251   6.547   1.359 -0.3222 -0.1184  0.1363
 3359SOL    HW210977   3.401   6.544   1.295 -0.5398 -0.3060 -0.3684
 3360SOL     OW10978   1.966   1.277   6.361  0.3536  0.9340 -0.4289
 3360SOL    HW110979   1.911   1.271   6.444  1.0656 -0.4691 -0.0090
 3360SOL    HW210980   2.051   1.326   6.381 -0.0126  1.6758 -0.6600
 3361SOL     OW10981   4.989   1.216   3.809  0.0181  0.5768  0.2871
 3361SOL    HW110982   4.914   1.151   3.797 -0.5536  1.3449 -0.4612
 3361SOL    HW210983   5.000   1.268   3.724  2.9009 -1.0546 -0.4643
 3362SOL     OW10984   3.137   2.177   5.360  0.4291 -0.3238 -0.7778
 3362SOL    HW110985   3.204   2.112   5.323  2.6722  1.8252 -0.7866
 3362SOL    HW210986   3.139   2.261   5.306 -2.1482 -0.0764 -0.5851
 3363SOL     OW10987   5.932   1.017   6.450 -0.5116  0.1036  0.4587
 3363SOL    HW110988   5.982   1.086   6.502  0.8694 -0.2904 -0.2879
 3363SOL    HW210989   5.846   1.055   6.416 -0.0287  1.2808  0.5283
 3364SOL     OW10990   1.625   5.145   5.428 -0.1429 -0.3893  0.4823
 3364SOL    HW110991   1.560   5.214   5.460  0.2334  0.6943 -0.9627
 3364SOL    HW210992   1.715   5.163   5.467  0.0741  0.2760 -0.3073
 3365SOL     OW10993   0.055   2.779   4.603 -0.0806 -0.4560  0.7897
 3365SOL    HW110994  -0.017   2.767   4.671 -1.7495 -0.3895 -0.8525
 3365SOL    HW210995   0.049   2.872   4.565  0.8782 -0.4541  0.6199
 3366SOL     OW10996   4.389   0.637   1.218  1.2481  0.0115  0.6360
 3366SOL    HW110997   4.425   0.584   1.142  1.8063 -0.7234  1.3916
 3366SOL    HW210998   4.303   0.681   1.191  1.1421 -0.7038 -0.2220
 3367SOL     OW10999   1.194   6.271   1.851 -0.2247 -0.4846  0.6139
 3367SOL    HW111000   1.114   6.218   1.823 -0.7836  1.1737 -1.1650
 3367SOL    HW211001   1.277   6.226   1.817 -0.5508 -1.0896  0.5997
 3368SOL     OW11002   5.699   1.862   6.187  0.1576 -0.3675 -0.7027
 3368SOL    HW111003   5.752   1.795   6.239 -0.5696 -0.9506 -0.6939
 3368SOL    HW211004   5.675   1.939   6.247 -1.2919 -1.3695  0.0688
 3369SOL     OW11005   5.381   5.724   6.225  0.0476 -0.7062 -0.4584
 3369SOL    HW111006   5.318   5.800   6.241  0.5652 -0.0207 -1.5135
 3369SOL    HW211007   5.330   5.640   6.211 -0.5010 -0.9118  2.2818
 3370SOL     OW11008   3.555   0.166   4.516  0.2191 -0.3889  0.2009
 3370SOL    HW111009   3.650   0.191   4.529  1.0254 -0.9976 -3.3181
 3370SOL    HW211010   3.513   0.228   4.449 -0.8964 -1.9281 -0.6064
 3371SOL     OW11011   1.235   5.460   0.371  0.6461 -0.3623 -0.1192
 3371SOL    HW111012   1.271   5.448   0.463 -1.1828 -0.7444  0.6039
 3371SOL    HW211013   1.247   5.555   0.342 -0.4213  0.2509  1.3230
 3372SOL     OW11014   0.219   1.954   2.410 -0.4473 -0.1423  0.0817
 3372SOL    HW111015   0.316   1.942   2.387 -0.8304  0.5867 -2.2177
 3372SOL    HW211016   0.165   1.949   2.326 -2.1984  1.4761  1.0441
 3373SOL     OW11017   0.004   2.184   6.256 -0.2574 -0.2308 -0.1412
 3373SOL    HW111018  -0.021   2.276   6.226 -1.4790 -0.5414 -0.1514
 3373SOL    HW211019   0.006   2.182   6.356 -0.4535 -0.2366 -0.1354
 3374SOL     OW11020   3.807   6.338   2.959  0.4312  0.2686  0.0417
 3374SOL    HW111021   3.883   6.324   2.896  0.1917  1.8664 -0.6470
 3374SOL    HW211022   3.736   6.392   2.915  0.6974  2.3438  1.9405
 3375SOL     OW11023   2.963   3.802   4.165  0.2556 -0.3445  0.7001
 3375SOL    HW111024   3.059   3.775   4.173  0.1874 -0.6521  0.5015
 3375SOL    HW211025   2.916   3.782   4.250  0.2749 -0.5749  0.6565
 3376SOL     OW11026   3.728   3.719   2.055 -0.5398  0.2164  0.5190
 3376SOL    HW111027   3.633   3.688   2.044 -0.6577 -0.9302  3.7067
 3376SOL    HW211028   3.728   3.810   2.095 -0.2828  0.3565  0.2015
 3377SOL     OW11029   2.970   5.701   5.687  0.6723  0.7499 -0.1052
 3377SOL    HW111030   2.947   5.640   5.612 -0.2076 -0.7202  1.2930
 3377SOL    HW211031   2.951   5.796   5.660 -1.2774  0.1159 -1.1506
 3378SOL     OW11032   6.987   6.688   1.100 -0.3723 -0.0185 -0.4128
 3378SOL    HW111033   6.921   6.659   1.030  0.4334 -0.9002 -0.8249
 3378SOL    HW211034   7.078   6.692   1.060  0.2717 -1.4813  0.7835
 3379SOL     OW11035   6.744   6.073   6.911  0.3093 -0.2439  0.3155
 3379SOL    HW111036   6.709   6.026   6.831  0.3775 -0.0187  0.1527
 3379SOL    HW211037   6.807   6.013   6.960  0.1837 -0.4207  0.2626
 3380SOL     OW11038   6.840   4.685   6.171 -0.8672  0.1175 -0.4136
 3380SOL    HW111039   6.745   4.656   6.165 -1.0442  0.6989 -0.5649
 3380SOL    HW211040   6.877   4.697   6.078 -0.2508 -1.3187 -0.3773
 3381SOL     OW11041   4.087   3.500   2.547  0.4834 -0.6957  0.0650
 3381SOL    HW111042   4.047   3.429   2.489 -0.4161  0.3753 -0.6780
 3381SOL    HW211043   4.172   3.533   2.506 -0.9938  1.2325 -1.6265
 3382SOL     OW11044   0.736   0.190   0.158 -0.0108  0.5753  0.0847
 3382SOL    HW111045   0.785   0.243   0.089  1.1860  1.4987  1.5816
 3382SOL    HW211046   0.660   0.244   0.194  0.7626  1.0494  1.0815
 3383SOL     OW11047   6.542   4.473   0.148  0.0481  0.0000  0.3655
 3383SOL    HW111048   6.594   4.424   0.077 -3.3569  0.5742 -2.8024
 3383SOL    HW211049   6.577   4.566   0.156  0.4545 -0.0498 -0.6268
 3384SOL     OW11050   3.598   2.983   2.805  0.0797  0.4676 -0.1082
 3384SOL    HW111051   3.578   2.920   2.729 -2.1439  1.8428 -0.7601
 3384SOL    HW211052   3.642   3.065   2.770  1.0733  0.1822  0.4396
 3385SOL     OW11053   0.535   4.047   5.737 -0.2752  0.0773 -0.2015
 3385SOL    HW111054   0.445   4.031   5.777 -1.0870  1.1774 -1.4809
 3385SOL    HW211055   0.605   4.044   5.809 -1.0472 -2.6744  0.5355
 3386SOL     OW11056   4.611   3.551   6.500 -0.2697 -0.3767 -0.3130
 3386SOL    HW111057   4.566   3.635   6.467  0.6706 -0.1996 -1.1897
 3386SOL    HW211058   4.659   3.508   6.424  0.0159 -1.2303  0.3468
 3387SOL     OW11059   4.646   2.563   3.808 -0.1391 -0.2067  0.1415
 3387SOL    HW111060   4.636   2.653   3.851  0.1100  0.0335 -0.2919
 3387SOL    HW211061   4.622   2.492   3.874 -2.1518  0.2309 -0.0638
 3388SOL     OW11062   5.868   0.053   2.091  0.1948  0.3934 -0.1456
 3388SOL    HW111063   5.783   0.057   2.038 -0.5875  0.1971  1.0500
 3388SOL    HW211064   5.848   0.072   2.187  1.8859  3.0104 -0.1938
 3389SOL     OW11065   2.163   4.938   1.771  0.2259 -0.1349  0.2607
 3389SOL    HW111066   2.173   4.893   1.860  0.8432 -3.1212 -1.1995
 3389SOL    HW211067   2.247   4.928   1.719 -0.7144 -0.0456 -1.3327
 3390SOL     OW11068   5.109   2.439   6.650  0.2160 -0.1197 -0.5371
 3390SOL    HW111069   5.138   2.415   6.742  0.3732  2.2955  0.1219
 3390SOL    HW211070   5.009   2.443   6.646  0.2228  0.3503 -0.2935
 3391SOL     OW11071   2.197   1.437   6.377 -0.3818  0.3098 -0.2495
 3391SOL    HW111072   2.181   1.493   6.458 -0.8336  0.5298 -0.4863
 3391SOL    HW211073   2.293   1.411   6.372 -0.6348 -1.0391  1.2242
 3392SOL     OW11074   5.013   6.065   3.922  0.0631  0.0060  0.1136
 3392SOL    HW111075   5.034   6.154   3.961  0.9099 -0.6436  1.1904
 3392SOL    HW211076   4.973   6.006   3.993  0.4488 -0.7959 -0.3239
 3393SOL     OW11077   5.605   5.724   5.235  0.3757 -0.1408 -0.3023
 3393SOL    HW111078   5.628   5.783   5.313 -0.8673 -0.1490  0.0982
 3393SOL    HW211079   5.560   5.779   5.164  0.8296 -0.2764 -0.7022
 3394SOL     OW11080   5.771   1.601   0.948 -0.0104 -0.5798  0.2029
 3394SOL    HW111081   5.739   1.633   1.037  0.6764 -2.2893  1.0982
 3394SOL    HW211082   5.748   1.669   0.878 -3.0423 -0.4509  1.2056
 3395SOL     OW11083   0.197   2.538   3.845  0.2366  0.6795 -0.1189
 3395SOL    HW111084   0.243   2.552   3.933  0.9077  2.0910 -0.6727
 3395SOL    HW211085   0.232   2.454   3.803 -0.6938 -0.4777  1.3009
 3396SOL     OW11086   5.243   3.693   2.523  0.4352  0.2040 -0.0591
 3396SOL    HW111087   5.328   3.707   2.472  1.3835 -1.1761  1.0336
 3396SOL    HW211088   5.263   3.695   2.621 -0.9139  0.4492  0.2245
 3397SOL     OW11089   4.080   6.771   6.829  0.1758  0.4347 -0.2640
 3397SOL    HW111090   4.159   6.798   6.885  0.6176 -1.0881 -0.1271
 3397SOL    HW211091   4.111   6.713   6.754 -1.0043 -1.8753  0.9254
 3398SOL     OW11092   2.980   1.204   3.030  0.1927 -0.0587  0.0995
 3398SOL    HW111093   3.050   1.200   2.958  0.2637  0.4664  0.1334
 3398SOL    HW211094   2.893   1.173   2.993  0.1837  0.3993 -0.2692
 3399SOL     OW11095   5.673   0.531   4.395  0.2672  0.3972 -0.3770
 3399SOL    HW111096   5.607   0.457   4.384  0.1008 -0.0716  2.8151
 3399SOL    HW211097   5.632   0.617   4.365 -1.4480 -0.0693  0.5055
 3400SOL     OW11098   0.020   1.731   0.093 -0.0290 -0.1220  0.4671
 3400SOL    HW111099  -0.068   1.716   0.048 -0.6635  1.9993  0.9015
 3400SOL    HW211100   0.066   1.809   0.049  0.8962 -0.1945  1.2906
 3401SOL     OW11101   6.170   4.543   0.051 -0.6495  0.1871  0.1278
 3401SOL    HW111102   6.248   4.581   0.001  1.5946 -1.8388  1.8081
 3401SOL    HW211103   6.153   4.450   0.018 -1.8238  0.3079  0.3732
 3402SOL     OW11104   3.354   3.930   0.913  0.1766 -0.1455  0.3480
 3402SOL    HW111105   3.454   3.928   0.905  0.2655  1.5675  0.6101
 3402SOL    HW211106   3.325   4.020   0.946 -1.5035 -0.3610 -0.4303
 3403SOL     OW11107   5.513   2.270   6.127  0.0063 -0.3186 -0.1570
 3403SOL    HW111108   5.424   2.313   6.134  0.7233  1.3360 -0.7222
 3403SOL    HW211109   5.550   2.282   6.035  0.9280 -0.7437  0.1354
 3404SOL     OW11110   3.230   6.157   1.450  0.2011 -0.0584  0.1909
 3404SOL    HW111111   3.301   6.157   1.381 -0.6890 -0.7014 -0.7529
 3404SOL    HW211112   3.258   6.098   1.527  0.9330  0.1808  0.1144
 3405SOL     OW11113   6.451   5.513   6.598 -0.5491  0.3968  0.2783
 3405SOL    HW111114   6.412   5.539   6.509 -0.2768  2.6338  0.7483
 3405SOL    HW211115   6.544   5.548   6.605  0.0473 -1.2505  0.8041
 3406SOL     OW11116   2.425   3.798   0.898  0.6548  0.7274 -0.3187
 3406SOL    HW111117   2.398   3.758   0.810  1.1278  0.4026 -0.3208
 3406SOL    HW211118   2.464   3.889   0.882 -0.8448  1.4109 -0.2687
 3407SOL     OW11119   0.931   5.146   2.481  0.2226 -0.0335 -0.0644
 3407SOL    HW111120   0.846   5.136   2.533  1.5025 -1.6377  1.8503
 3407SOL    HW211121   0.936   5.075   2.411  0.1516 -0.1640  0.0628
 3408SOL     OW11122   5.676   2.848   3.178 -0.2874  0.2638 -0.1488
 3408SOL    HW111123   5.614   2.925   3.197 -0.0801  0.3034  0.3759
 3408SOL    HW211124   5.770   2.882   3.173 -0.2198  0.0789 -0.1345
 3409SOL     OW11125   3.674   1.470   5.866  0.0888  0.3675 -0.4895
 3409SOL    HW111126   3.577   1.463   5.844  0.4385  0.7146 -2.2228
 3409SOL    HW211127   3.717   1.380   5.859 -0.2928 -0.0065  1.3881
 3410SOL     OW11128   0.284   1.973   0.357  0.0033  0.0690 -0.4042
 3410SOL    HW111129   0.232   1.925   0.287 -0.3005  0.8854 -0.7476
 3410SOL    HW211130   0.363   2.018   0.315  0.2695 -0.0995 -0.0920
 3411SOL     OW11131   5.729   2.261   1.669 -0.6569  0.9110  0.0747
 3411SOL    HW111132   5.637   2.245   1.705 -0.5001  1.3468  0.6776
 3411SOL    HW211133   5.772   2.173   1.649  0.0911  0.4683  3.1189
 3412SOL     OW11134   5.387   5.356   0.053 -0.6528 -0.2761 -0.1487
 3412SOL    HW111135   5.325   5.330   0.127 -2.3331  2.0445 -0.6199
 3412SOL    HW211136   5.452   5.282   0.036 -0.8869 -1.3155  2.8868
 3413SOL     OW11137   5.922   3.139   2.871  0.4302  0.5436  0.1355
 3413SOL    HW111138   5.898   3.078   2.947  1.1105  0.6776  0.4670
 3413SOL    HW211139   5.979   3.090   2.805  2.5132  1.2643  1.2947
 3414SOL     OW11140   4.599   1.202   5.365  0.0642  0.4351  0.0744
 3414SOL    HW111141   4.522   1.263   5.349 -0.7800 -0.7953 -0.6495
 3414SOL    HW211142   4.683   1.257   5.371 -0.7588  1.7353  0.3237
 3415SOL     OW11143   2.464   6.345   5.743 -0.1435  0.4332 -0.0239
 3415SOL    HW111144   2.509   6.358   5.654  1.1566 -0.2373  0.5039
 3415SOL    HW211145   2.438   6.434   5.781  2.4622  1.0485  0.4851
 3416SOL     OW11146   0.983   3.282   5.203  0.4040 -0.2923  0.0823
 3416SOL    HW111147   0.886   3.305   5.194  0.7573  1.2840 -0.0681
 3416SOL    HW211148   1.021   3.328   5.284  1.1461 -0.4315 -0.1786
 3417SOL     OW11149   6.320   0.343   0.464  0.4916 -0.2318 -0.3972
 3417SOL    HW111150   6.348   0.417   0.403  0.4326  0.6367  0.5938
 3417SOL    HW211151   6.234   0.367   0.509  0.5268 -0.8523  0.0176
 3418SOL     OW11152   3.729   1.679   6.312  0.3022  0.2690 -0.6604
 3418SOL    HW111153   3.797   1.643   6.376 -0.3517  0.2318  0.0206
 3418SOL    HW211154   3.776   1.719   6.233  1.1105  0.1626 -0.2436
 3419SOL     OW11155   3.519   3.757   6.466 -0.2919 -0.2263 -0.0186
 3419SOL    HW111156   3.445   3.753   6.533 -0.1068  0.9435  0.2686
 3419SOL    HW211157   3.482   3.781   6.377 -0.1469  1.4380  0.3462
 3420SOL     OW11158   3.752   2.102   4.482  0.0598  0.3296 -0.1897
 3420SOL    HW111159   3.795   2.139   4.400 -0.4692  0.0781 -0.5832
 3420SOL    HW211160   3.818   2.045   4.531  0.5138  0.8367 -0.2006
 3421SOL     OW11161   1.945   5.275   3.384 -0.4716  0.3592  0.4676
 3421SOL    HW111162   2.006   5.345   3.345 -0.5269  0.1912  0.0704
 3421SOL    HW211163   1.953   5.276   3.483  1.2127 -0.5813  0.3916
 3422SOL     OW11164   3.906   1.778   0.325 -0.1145 -0.3367 -0.3902
 3422SOL    HW111165   3.821   1.771   0.376  0.2419  0.6033  0.3765
 3422SOL    HW211166   3.983   1.788   0.389  0.5747 -1.1223 -1.0627
 3423SOL     OW11167   2.312   0.693   2.286  0.3669  0.0474 -0.0683
 3423SOL    HW111168   2.237   0.718   2.347  0.5882  0.3612  0.0737
 3423SOL    HW211169   2.348   0.603   2.313  2.6295  1.5348  2.3894
 3424SOL     OW11170   4.850   7.004   1.332 -0.0007  0.7922 -0.4839
 3424SOL    HW111171   4.927   6.944   1.355  0.4767  2.2373  2.0402
 3424SOL    HW211172   4.778   6.950   1.289  1.3932 -1.0937 -0.5907
 3425SOL     OW11173   4.267   3.376   1.141 -0.5696 -0.0258  0.1780
 3425SOL    HW111174   4.345   3.365   1.202 -0.1231  2.0825  0.0768
 3425SOL    HW211175   4.260   3.297   1.081  1.1175 -0.5420  0.6069
 3426SOL     OW11176   3.898   4.808   6.752  0.2903  0.3027  0.1187
 3426SOL    HW111177   3.892   4.709   6.759  1.4601  0.3235  1.8866
 3426SOL    HW211178   3.981   4.840   6.798 -0.9590  2.2536  1.1422
 3427SOL     OW11179   2.751   0.464   6.956  0.0689 -0.3301 -0.1129
 3427SOL    HW111180   2.785   0.454   6.862 -2.2254 -0.4975 -0.9733
 3427SOL    HW211181   2.820   0.512   7.011  1.2689  0.2098 -1.9814
 3428SOL     OW11182   4.911   4.430   3.792 -0.0444  0.3868  0.3846
 3428SOL    HW111183   4.856   4.394   3.717  1.0630  0.3037 -0.3990
 3428SOL    HW211184   4.994   4.376   3.801 -0.7072 -0.3841  2.4845
 3429SOL     OW11185   1.211   1.695   6.495  0.1401  0.1748  0.1134
 3429SOL    HW111186   1.296   1.712   6.544 -0.5786  1.6845  0.8788
 3429SOL    HW211187   1.205   1.757   6.416 -1.2512  1.7339  1.3672
 3430SOL     OW11188   1.668   5.074   6.048 -0.3121 -0.2523  0.0938
 3430SOL    HW111189   1.752   5.104   6.002  0.7948 -1.6350  1.1190
 3430SOL    HW211190   1.614   5.154   6.074  1.6256  0.8068  1.1047
 3431SOL     OW11191   1.528   0.622   5.985  0.2593  0.3806 -0.7170
 3431SOL    HW111192   1.510   0.534   5.942 -1.2955 -0.8139  2.0787
 3431SOL    HW211193   1.627   0.638   5.987  0.6004 -1.4211 -1.1291
 3432SOL     OW11194   4.162   0.215   5.070 -0.4035 -0.2334 -0.2561
 3432SOL    HW111195   4.241   0.259   5.114 -1.3106 -0.1149  1.3390
 3432SOL    HW211196   4.117   0.280   5.009  0.9618 -0.4421 -1.5439
 3433SOL     OW11197   3.949   1.701   5.655  0.5785 -0.3130  0.5142
 3433SOL    HW111198   3.989   1.664   5.739 -1.0724 -0.1733  1.4145
 3433SOL    HW211199   4.019   1.750   5.603  1.7616 -0.8632  1.5344
 3434SOL     OW11200   5.757   1.504   4.378  0.8577  0.2604  0.6804
 3434SOL    HW111201   5.738   1.409   4.401  0.9296  0.3178  0.9912
 3434SOL    HW211202   5.678   1.560   4.402  0.1748  0.0591 -1.0237
 3435SOL     OW11203   0.591   3.749   6.267  0.2356  0.2469 -0.3152
 3435SOL    HW111204   0.528   3.818   6.302  2.5801  2.6992 -0.5697
 3435SOL    HW211205   0.544   3.692   6.199 -2.1151  0.7666  0.7745
 3436SOL     OW11206   2.841   1.355   2.157 -0.2041  0.3328 -0.7054
 3436SOL    HW111207   2.935   1.386   2.175  0.1093 -0.9452 -0.0333
 3436SOL    HW211208   2.795   1.422   2.098  0.6830  1.6544  0.0518
 3437SOL     OW11209   5.321   0.798   6.160 -0.1658 -0.0759  0.4050
 3437SOL    HW111210   5.224   0.799   6.184 -0.2157  0.0351  0.1972
 3437SOL    HW211211   5.331   0.784   6.062  0.0167  0.4405  0.3514
 3438SOL     OW11212   0.619   6.472   6.606 -0.0574 -0.4528 -0.0859
 3438SOL    HW111213   0.588   6.380   6.581  0.4713 -0.8627  0.7011
 3438SOL    HW211214   0.718   6.470   6.623  0.1237  0.4768 -0.9846
 3439SOL     OW11215   0.985   2.524   3.854  0.0616 -0.3175 -0.4872
 3439SOL    HW111216   1.036   2.458   3.798  1.4933 -0.8472  1.3534
 3439SOL    HW211217   0.985   2.494   3.949 -0.8853  1.3985  0.0901
 3440SOL     OW11218   3.008   1.178   0.212  0.0893 -0.1173 -0.5738
 3440SOL    HW111219   2.972   1.172   0.305 -1.2663 -0.6910 -1.1062
 3440SOL    HW211220   3.065   1.099   0.192 -0.5034 -0.5520 -0.5737
 3441SOL     OW11221   6.012   0.279   4.779 -0.4838 -0.0745 -0.0970
 3441SOL    HW111222   6.012   0.348   4.851  0.3170  0.4168 -0.5544
 3441SOL    HW211223   6.093   0.221   4.788  0.0932  0.5491 -1.1169
 3442SOL     OW11224   2.518   4.697   2.746  0.1061  0.1626  0.0593
 3442SOL    HW111225   2.485   4.605   2.766 -0.8514  0.9341  2.3335
 3442SOL    HW211226   2.442   4.757   2.723  0.5509  0.7298  0.0216
 3443SOL     OW11227   6.006   6.797   3.186  0.2374  0.1842  0.1654
 3443SOL    HW111228   5.988   6.890   3.220  1.1256  0.4296 -0.0148
 3443SOL    HW211229   5.920   6.746   3.184  0.0386  0.3613  2.1684
 3444SOL     OW11230   2.037   4.720   5.713 -0.5925 -0.1273 -0.3881
 3444SOL    HW111231   2.079   4.809   5.731 -0.1438 -0.0523 -1.7166
 3444SOL    HW211232   1.975   4.698   5.787 -0.3134  1.0512  0.2310
 3445SOL     OW11233   0.673   5.059   4.321  0.4616  0.1467 -0.3975
 3445SOL    HW111234   0.757   5.048   4.268  1.2635 -1.8644  1.1577
 3445SOL    HW211235   0.689   5.031   4.416 -1.6225  1.0573  0.2971
 3446SOL     OW11236   2.506   1.041   2.707 -0.0002 -0.0324 -0.1609
 3446SOL    HW111237   2.534   1.086   2.622  0.0520 -0.6206 -0.4576
 3446SOL    HW211238   2.530   0.944   2.703 -1.0542 -0.3063  0.0554
 3447SOL     OW11239   4.479   6.501   5.733  0.4114 -0.2622 -0.3564
 3447SOL    HW111240   4.499   6.404   5.719 -0.9633 -0.7507  0.8952
 3447SOL    HW211241   4.405   6.511   5.799 -0.4242  1.6052 -1.4833
 3448SOL     OW11242   3.836   2.878   0.375  0.2709 -0.0615  0.2527
 3448SOL    HW111243   3.836   2.915   0.468 -3.0715  0.5997  0.1060
 3448SOL    HW211244   3.825   2.778   0.379 -2.1002  0.1675  0.6305
 3449SOL     OW11245   6.156   6.721   2.974 -0.2234  0.1298 -0.0643
 3449SOL    HW111246   6.110   6.637   3.004  2.1495 -1.2721 -0.1048
 3449SOL    HW211247   6.127   6.798   3.032 -0.2107 -1.3278  1.9984
 3450SOL     OW11248   1.286   1.047   1.603 -0.1638 -0.0892 -0.3421
 3450SOL    HW111249   1.269   0.985   1.680 -0.7537 -1.0674 -1.2232
 3450SOL    HW211250   1.257   1.139   1.627 -2.4494 -0.7979 -0.1113
 3451SOL     OW11251   1.950   4.560   3.565 -1.0848 -0.5395 -0.6499
 3451SOL    HW111252   2.039   4.538   3.604 -1.1698 -0.1708 -0.2370
 3451SOL    HW211253   1.880   4.499   3.602 -1.7123  1.6506  2.1780
 3452SOL     OW11254   0.048   4.290   1.223 -0.6320  0.2504 -0.5227
 3452SOL    HW111255   0.011   4.255   1.309 -0.8789  1.3430 -0.1722
 3452SOL    HW211256   0.141   4.256   1.211 -0.9797 -0.7992 -0.3730
 3453SOL     OW11257   5.641   5.295   6.458  0.2034 -0.3584  0.0972
 3453SOL    HW111258   5.725   5.346   6.439  0.2060  0.0463  1.1464
 3453SOL    HW211259   5.563   5.357   6.453  0.2011 -0.2365  1.3153
 3454SOL     OW11260   0.542   1.590   0.185 -0.6065  0.4320  0.1787
 3454SOL    HW111261   0.526   1.608   0.088  2.8192 -0.5060 -0.7177
 3454SOL    HW211262   0.500   1.502   0.210 -0.6156  0.1553 -0.7555
 3455SOL     OW11263   1.126   3.169   1.313 -0.0077  0.1968  0.2656
 3455SOL    HW111264   1.044   3.116   1.294  1.6741 -2.4376 -0.1571
 3455SOL    HW211265   1.156   3.153   1.407  0.0862  1.0384  0.3850
 3456SOL     OW11266   5.967   0.815   2.054  0.8835  0.0150 -0.1258
 3456SOL    HW111267   6.055   0.862   2.051  1.4483 -0.9894  0.5292
 3456SOL    HW211268   5.980   0.718   2.070 -0.2382 -0.5399 -2.1761
 3457SOL     OW11269   1.821   4.820   3.707 -0.5524  0.8548  0.3240
 3457SOL    HW111270   1.855   4.747   3.648  0.2187  0.6706  0.9831
 3457SOL    HW211271   1.809   4.785   3.800  2.6713  2.2264  1.4034
 3458SOL     OW11272   5.309   6.051   6.040 -0.8060  0.0560 -0.5059
 3458SOL    HW111273   5.262   5.964   6.030 -0.6852 -0.0947  0.1885
 3458SOL    HW211274   5.324   6.092   5.950 -2.6578  0.3217 -0.7370
 3459SOL     OW11275   1.802   0.140   2.910 -0.1966  0.0846 -0.3455
 3459SOL    HW111276   1.852   0.085   2.977  0.1798  1.2424  0.3541
 3459SOL    HW211277   1.867   0.187   2.850 -0.5144 -0.1131 -0.8570
 3460SOL     OW11278   3.492   3.274   5.097  0.0143  0.5286 -0.7458
 3460SOL    HW111279   3.547   3.282   5.014  2.2560 -1.0604  0.5103
 3460SOL    HW211280   3.449   3.184   5.100  1.8512 -0.3513  0.8674
 3461SOL     OW11281   1.544   5.306   2.587  0.0438 -0.1344  0.0518
 3461SOL    HW111282   1.466   5.251   2.557 -1.3662  1.1557  1.1794
 3461SOL    HW211283   1.535   5.325   2.685  0.9650  1.3459 -0.1245
 3462SOL     OW11284   5.196   3.673   2.042 -0.3586  0.1927 -0.4391
 3462SOL    HW111285   5.121   3.613   2.012  0.7427 -1.4860  0.0287
 3462SOL    HW211286   5.274   3.663   1.980 -0.2282  1.3137 -0.4638
 3463SOL     OW11287   0.767   4.218   0.559 -0.4567  0.1858  0.3084
 3463SOL    HW111288   0.670   4.239   0.550 -0.1463  1.8683  0.4387
 3463SOL    HW211289   0.799   4.168   0.479 -1.1317  0.8876 -0.4071
 3464SOL     OW11290   6.074   1.544   5.520 -0.5106 -0.9138 -0.2596
 3464SOL    HW111291   6.128   1.488   5.457  0.5564  0.5449 -0.7044
 3464SOL    HW211292   6.131   1.618   5.556 -2.0744  0.4494 -0.4371
 3465SOL     OW11293   3.354   5.687   3.578  0.3967 -0.1176  0.2787
 3465SOL    HW111294   3.415   5.755   3.619  0.4376 -0.1653  0.2970
 3465SOL    HW211295   3.360   5.693   3.478  0.2563  0.0348  0.2806
 3466SOL     OW11296   5.246   4.275   5.655 -0.0675  0.3060  0.1243
 3466SOL    HW111297   5.261   4.225   5.569 -2.8543  1.8447 -1.3963
 3466SOL    HW211298   5.163   4.242   5.698  1.6908 -0.9878  2.8020
 3467SOL     OW11299   3.907   2.211   0.092  0.2210 -0.2508  0.4427
 3467SOL    HW111300   3.992   2.263   0.087 -1.1407  1.9769 -2.1802
 3467SOL    HW211301   3.926   2.115   0.072  2.0131  0.4206 -1.4726
 3468SOL     OW11302   4.209   6.958   1.473  0.5200  0.0246 -0.1820
 3468SOL    HW111303   4.300   6.960   1.432  0.1426  0.7792 -1.0078
 3468SOL    HW211304   4.213   6.999   1.564  0.7497  1.4621 -0.8009
 3469SOL     OW11305   3.163   0.215   4.453  0.2776 -0.2254 -0.6019
 3469SOL    HW111306   3.075   0.251   4.483 -0.0722 -1.3181 -0.2771
 3469SOL    HW211307   3.210   0.173   4.530  1.5676  1.2283 -0.5302
 3470SOL     OW11308   6.551   0.818   1.688 -0.2227 -0.5997 -0.6348
 3470SOL    HW111309   6.493   0.744   1.721 -2.0749  0.1149 -2.0800
 3470SOL    HW211310   6.602   0.858   1.764 -2.0861 -0.8999  0.8401
 3471SOL     OW11311   6.124   4.695   4.399  0.2742  0.2182 -0.1886
 3471SOL    HW111312   6.091   4.685   4.305 -0.1573  2.9980 -0.4295
 3471SOL    HW211313   6.082   4.626   4.457 -0.1928 -0.9569 -1.8468
 3472SOL     OW11314   4.677   1.754   2.325 -0.2245  0.1589 -0.1768
 3472SOL    HW111315   4.697   1.832   2.384 -0.1597 -1.1215  1.5903
 3472SOL    HW211316   4.751   1.687   2.333 -0.3510 -0.1729 -1.5502
 3473SOL     OW11317   5.590   5.159   1.323  0.7650 -0.3633 -0.1670
 3473SOL    HW111318   5.596   5.255   1.294  1.6265 -0.9061 -1.9585
 3473SOL    HW211319   5.502   5.122   1.295 -0.7542  0.5748  2.9592
 3474SOL     OW11320   5.961   3.600   2.762 -0.8002 -0.3317  0.4063
 3474SOL    HW111321   6.046   3.558   2.793 -2.0210 -3.8832 -0.5001
 3474SOL    HW211322   5.974   3.640   2.672  0.4394  1.4430  1.3215
 3475SOL     OW11323   0.886   3.155   5.534  0.4986  0.0440  0.2504
 3475SOL    HW111324   0.899   3.173   5.632 -0.5355  2.5385  0.0173
 3475SOL    HW211325   0.968   3.182   5.484  0.9184 -0.9645  0.3575
 3476SOL     OW11326   3.144   1.638   3.663 -0.4627  0.0061  0.4685
 3476SOL    HW111327   3.066   1.682   3.619 -0.9764 -0.9557  0.3871
 3476SOL    HW211328   3.223   1.699   3.660 -0.9046  0.5505 -0.4460
 3477SOL     OW11329   6.989   4.733   2.325  0.2425 -1.0596  0.0882
 3477SOL    HW111330   6.892   4.713   2.342 -0.2751 -0.2460 -1.6652
 3477SOL    HW211331   7.015   4.817   2.373 -0.5496 -0.0719 -1.1517
 3478SOL     OW11332   2.247   1.528   1.342  0.0764 -0.4043  0.7769
 3478SOL    HW111333   2.264   1.576   1.428  0.2427 -0.2516  0.6587
 3478SOL    HW211334   2.251   1.593   1.266  0.6806 -0.6663  0.5767
 3479SOL     OW11335   1.477   2.868   4.313 -0.7394  0.0965  0.1106
 3479SOL    HW111336   1.573   2.846   4.331  0.0993  1.0794 -2.6064
 3479SOL    HW211337   1.462   2.871   4.214 -3.0427  2.2201  0.4345
 3480SOL     OW11338   0.690   4.084   0.872 -1.1183  0.2899 -0.2542
 3480SOL    HW111339   0.624   4.150   0.836 -1.9438 -0.4365 -0.1049
 3480SOL    HW211340   0.663   4.056   0.964 -0.2866  0.4041  0.0321
 3481SOL     OW11341   4.304   0.508   5.249 -0.2739 -0.5880  0.0308
 3481SOL    HW111342   4.334   0.418   5.219  0.3257 -0.3702 -0.0355
 3481SOL    HW211343   4.345   0.578   5.191 -1.6355 -0.3166 -0.6556
 3482SOL     OW11344   5.976   2.878   1.588 -0.3965 -0.1249 -0.0353
 3482SOL    HW111345   5.904   2.846   1.526  0.5887  0.2704 -1.4383
 3482SOL    HW211346   5.971   2.978   1.596 -0.1000 -0.1114 -0.0206
 3483SOL     OW11347   6.858   2.615   6.966 -0.2077  0.2605  0.3797
 3483SOL    HW111348   6.847   2.682   6.893 -2.6124  1.0743  1.3984
 3483SOL    HW211349   6.861   2.523   6.926 -0.0064  0.7784 -0.8340
 3484SOL     OW11350   6.984   4.642   4.288  0.2198 -0.2611  0.5126
 3484SOL    HW111351   6.994   4.608   4.381 -0.1263 -0.9734  0.3037
 3484SOL    HW211352   7.074   4.655   4.247  0.4512  2.1769  1.6592
 3485SOL     OW11353   5.654   4.522   6.765  0.2900  0.2481  0.7452
 3485SOL    HW111354   5.746   4.556   6.786  0.8540 -0.9701  0.3644
 3485SOL    HW211355   5.611   4.580   6.697  1.1984  0.2498  0.1611
 3486SOL     OW11356   1.293   6.723   4.578 -0.6238 -0.1486 -0.4072
 3486SOL    HW111357   1.201   6.684   4.586 -0.3371 -0.8001 -0.3111
 3486SOL    HW211358   1.359   6.662   4.620 -0.0907  0.1416 -0.8211
 3487SOL     OW11359   5.568   2.887   0.580 -0.3035 -0.1045  0.2456
 3487SOL    HW111360   5.468   2.891   0.583 -0.2675  1.6891 -0.2480
 3487SOL    HW211361   5.597   2.792   0.568 -1.9540 -0.6117  0.1091
 3488SOL     OW11362   5.223   4.621   4.561  0.3286 -0.2692  0.0670
 3488SOL    HW111363   5.133   4.581   4.576 -0.2553  0.7145 -0.6664
 3488SOL    HW211364   5.251   4.606   4.467  0.6474 -0.0216  0.1207
 3489SOL     OW11365   3.943   5.860   0.222 -0.5140  0.9334  0.5502
 3489SOL    HW111366   3.944   5.794   0.297 -2.6684  1.5038  1.1536
 3489SOL    HW211367   3.936   5.812   0.135 -3.2395  0.2888  1.0319
 3490SOL     OW11368   2.054   6.775   6.444 -0.1639  0.4824  0.2413
 3490SOL    HW111369   1.961   6.754   6.415 -0.9346  3.0220  0.5924
 3490SOL    HW211370   2.072   6.731   6.532 -0.5909 -0.9607 -0.3720
 3491SOL     OW11371   3.536   4.777   5.466  0.1078  0.2320  0.0221
 3491SOL    HW111372   3.442   4.752   5.488 -0.0423  0.8395  0.0913
 3491SOL    HW211373   3.596   4.699   5.483  0.0379  0.6944  2.7131
 3492SOL     OW11374   6.902   5.090   4.180  0.1080 -0.0512 -0.2530
 3492SOL    HW111375   6.993   5.132   4.177 -0.0484  0.2769 -0.5093
 3492SOL    HW211376   6.846   5.138   4.248  0.4061 -0.8321  0.5554
 3493SOL     OW11377   1.040   1.465   6.660 -0.8191 -0.2589 -0.3132
 3493SOL    HW111378   1.061   1.515   6.745  2.3641  0.1082 -1.1709
 3493SOL    HW211379   1.060   1.524   6.582 -0.1232 -1.7681 -1.3197
 3494SOL     OW11380   5.241   0.644   1.232 -0.1457  0.1141  0.3868
 3494SOL    HW111381   5.278   0.553   1.246 -0.6641 -0.1369  0.1649
 3494SOL    HW211382   5.167   0.661   1.297  0.2718  0.5641  0.7498
 3495SOL     OW11383   1.435   3.246   5.268 -0.1142 -0.4613 -0.3536
 3495SOL    HW111384   1.508   3.178   5.263 -0.0699 -0.3380 -1.8328
 3495SOL    HW211385   1.350   3.202   5.295  0.2499 -0.8240  0.2035
 3496SOL     OW11386   5.270   0.568   0.079 -0.6079  0.3129  0.6088
 3496SOL    HW111387   5.347   0.511   0.110 -0.6702  1.1537  2.4629
 3496SOL    HW211388   5.189   0.511   0.067 -0.2317 -0.2644  0.7572
 3497SOL     OW11389   4.235   6.349   1.299  0.1352  0.6232 -0.2241
 3497SOL    HW111390   4.180   6.426   1.268  0.7232  0.9340 -0.5236
 3497SOL    HW211391   4.274   6.369   1.389  0.4170  0.7515 -0.3709
 3498SOL     OW11392   0.592   1.971   0.758  0.0761 -0.5688  0.6413
 3498SOL    HW111393   0.500   1.948   0.725 -0.4336  1.2085  0.6778
 3498SOL    HW211394   0.654   1.894   0.743 -1.0254 -1.1874 -0.9701
 3499SOL     OW11395   4.184   6.762   5.577 -0.3415  0.1874 -0.3601
 3499SOL    HW111396   4.153   6.818   5.499 -1.5634 -2.1714 -1.6776
 3499SOL    HW211397   4.187   6.666   5.550  0.0103 -0.6272  2.2991
 3500SOL     OW11398   2.152   2.125   4.750 -0.1669  0.5334 -0.0912
 3500SOL    HW111399   2.065   2.145   4.706  0.2067  0.0245 -1.0923
 3500SOL    HW211400   2.142   2.134   4.849 -1.8535 -1.2975 -0.0275
 3501SOL     OW11401   1.873   6.601   6.644  0.0048 -0.0175 -0.0659
 3501SOL    HW111402   1.970   6.587   6.664 -0.3502 -1.0516  1.0683
 3501SOL    HW211403   1.862   6.627   6.548  1.5244  1.9149  0.2229
 3502SOL     OW11404   3.492   3.492   1.544 -0.3184  0.2995  0.1471
 3502SOL    HW111405   3.466   3.396   1.556 -1.5220  0.9037  2.9293
 3502SOL    HW211406   3.579   3.509   1.589  0.0227  0.5025 -0.5629
 3503SOL     OW11407   1.104   6.448   6.285 -0.2274 -0.1631  0.3854
 3503SOL    HW111408   1.065   6.517   6.224  0.4143  0.3670  0.5592
 3503SOL    HW211409   1.083   6.357   6.250  0.0254  0.1291 -0.5707
 3504SOL     OW11410   1.854   0.435   0.678  0.0996  0.1138  0.4139
 3504SOL    HW111411   1.808   0.513   0.634 -0.3378 -0.2318  0.2481
 3504SOL    HW211412   1.815   0.350   0.643 -0.1594 -0.1755  1.3758
 3505SOL     OW11413   4.661   4.339   5.988 -0.4907  0.4152 -0.2664
 3505SOL    HW111414   4.667   4.415   6.052  1.6520  0.0148  0.0878
 3505SOL    HW211415   4.696   4.367   5.898  2.0686 -0.5340  0.3317
 3506SOL     OW11416   3.813   4.030   5.458 -0.0146 -0.2626  0.2801
 3506SOL    HW111417   3.868   4.007   5.377 -0.7041  0.6722 -0.4757
 3506SOL    HW211418   3.870   4.027   5.540  1.9798  3.4719 -0.7496
 3507SOL     OW11419   2.934   2.687   6.977 -0.0559  0.7198 -0.3954
 3507SOL    HW111420   2.976   2.769   7.015 -0.7898  0.0223  2.1165
 3507SOL    HW211421   2.998   2.610   6.982 -0.8179  0.1620  1.4010
 3508SOL     OW11422   3.043   0.205   6.695  0.7511 -0.2159 -0.4816
 3508SOL    HW111423   2.992   0.126   6.661 -2.6428  1.1121  1.0534
 3508SOL    HW211424   3.090   0.180   6.780 -2.5884 -0.0891  1.5651
 3509SOL     OW11425   4.156   4.931   6.787  0.5814  0.0358  0.6291
 3509SOL    HW111426   4.149   4.938   6.687  0.2515  1.4493  0.7336
 3509SOL    HW211427   4.108   5.007   6.829 -2.0114 -2.1539  1.9827
 3510SOL     OW11428   2.964   1.657   2.065  0.1056  0.7149 -0.1224
 3510SOL    HW111429   2.921   1.743   2.091  0.4170  0.2558  2.0519
 3510SOL    HW211430   3.062   1.661   2.082  0.3379  0.3516 -1.2456
 3511SOL     OW11431   3.068   4.283   1.709  0.6959 -0.1161 -0.1949
 3511SOL    HW111432   3.166   4.299   1.715  0.7098 -0.5884  1.4350
 3511SOL    HW211433   3.019   4.368   1.733  0.6633  0.4604 -2.1483
 3512SOL     OW11434   0.475   4.992   0.960  0.9687 -0.5352 -0.4736
 3512SOL    HW111435   0.489   4.959   1.054  1.1199 -2.5858 -1.1799
 3512SOL    HW211436   0.383   4.969   0.929  1.4643 -1.3454 -1.3872
 3513SOL     OW11437   4.802   1.860   1.891 -0.0962 -0.1143  0.2067
 3513SOL    HW111438   4.712   1.815   1.888 -0.7916  1.2249  0.0583
 3513SOL    HW211439   4.870   1.801   1.848 -1.4741 -0.0145 -2.3497
 3514SOL     OW11440   3.330   1.438   2.056 -0.3507 -0.4838 -0.2922
 3514SOL    HW111441   3.277   1.523   2.050 -0.3544 -0.3435  1.3339
 3514SOL    HW211442   3.425   1.456   2.031 -0.2024  0.1663  0.7015
 3515SOL     OW11443   6.880   3.319   2.928  0.1760 -0.7817 -0.0226
 3515SOL    HW111444   6.797   3.371   2.906 -0.3745 -1.2861  0.7916
 3515SOL    HW211445   6.909   3.268   2.848  0.1548  0.0041 -0.5445
 3516SOL     OW11446   4.481   0.378   2.014 -0.4063  0.0739  0.2922
 3516SOL    HW111447   4.461   0.294   2.065 -2.6222 -0.0650 -0.6892
 3516SOL    HW211448   4.556   0.426   2.059  0.5524 -2.1117  1.2206
 3517SOL     OW11449   2.874   0.021   0.480  0.0666  0.0134 -0.2662
 3517SOL    HW111450   2.900   0.101   0.535 -0.5859 -0.0590  0.1637
 3517SOL    HW211451   2.805  -0.032   0.529 -0.0153 -0.4375 -0.8571
 3518SOL     OW11452   4.797   2.629   5.172  0.0399 -0.3708  0.3842
 3518SOL    HW111453   4.703   2.652   5.147  0.7463  2.0196 -0.3754
 3518SOL    HW211454   4.860   2.665   5.103  1.4949 -3.3022  0.0125
 3519SOL     OW11455   5.061   1.540   0.664 -0.3735 -0.1704 -0.2474
 3519SOL    HW111456   5.094   1.603   0.734  0.7536 -0.7469 -0.2395
 3519SOL    HW211457   5.073   1.580   0.573 -2.1961  0.7428 -0.1408
 3520SOL     OW11458   1.872   6.535   2.864 -0.2744 -0.6726 -0.2778
 3520SOL    HW111459   1.803   6.573   2.802 -0.5885 -2.2781 -0.9753
 3520SOL    HW211460   1.953   6.594   2.865 -0.8467  0.1473 -1.0777
 3521SOL     OW11461   1.612   4.045   6.204 -0.0980 -0.4181 -0.2390
 3521SOL    HW111462   1.596   4.095   6.118  0.1778  1.6695  0.8634
 3521SOL    HW211463   1.706   4.059   6.234  0.2921 -2.4654 -0.3627
 3522SOL     OW11464   6.351   6.888   6.032 -0.3931  0.5191  0.0963
 3522SOL    HW111465   6.381   6.978   6.001 -0.7621  0.7515  0.4123
 3522SOL    HW211466   6.372   6.820   5.962  0.6501  0.7149  0.1981
 3523SOL     OW11467   2.189   5.416   5.718 -0.0357 -0.6531  0.3067
 3523SOL    HW111468   2.110   5.461   5.675 -1.6686 -0.4513  3.2444
 3523SOL    HW211469   2.241   5.484   5.770  0.1469 -1.3429  1.0420
 3524SOL     OW11470   3.864   0.775   4.220  0.1363 -0.4122 -0.1596
 3524SOL    HW111471   3.918   0.843   4.270 -0.8877  1.4250 -1.4456
 3524SOL    HW211472   3.891   0.776   4.124 -0.1114 -1.6524 -0.2598
 3525SOL     OW11473   0.124   3.134   3.216 -1.0432 -0.0422  0.3573
 3525SOL    HW111474   0.162   3.136   3.124  0.0864 -1.7339  0.7596
 3525SOL    HW211475   0.159   3.212   3.268 -3.4653  2.3242 -1.2148
 3526SOL     OW11476   6.938   0.120   2.591  0.0704 -0.1528  0.2349
 3526SOL    HW111477   6.971   0.214   2.592 -0.7454  0.1457 -0.0352
 3526SOL    HW211478   6.991   0.065   2.655  0.9005  0.3676  0.0049
 3527SOL     OW11479   1.084   1.467   5.690  0.2876 -0.2740  0.2277
 3527SOL    HW111480   1.101   1.416   5.774  1.1335 -0.9856 -0.3533
 3527SOL    HW211481   1.000   1.520   5.699 -0.2130 -1.1958  1.1161
 3528SOL     OW11482   2.375   5.639   4.170  0.0302  0.0582  0.0529
 3528SOL    HW111483   2.428   5.665   4.251  1.8372 -1.5918 -0.5468
 3528SOL    HW211484   2.361   5.540   4.169 -1.7484  0.2700 -0.6424
 3529SOL     OW11485   4.116   3.084   6.935  0.7276  0.2800  0.1733
 3529SOL    HW111486   4.202   3.127   6.963 -0.0683  1.6924  0.5346
 3529SOL    HW211487   4.041   3.149   6.946  0.0799  0.3537 -3.6031
 3530SOL     OW11488   1.402   1.516   1.608  0.1384 -0.3565  0.3835
 3530SOL    HW111489   1.410   1.564   1.522  1.2365 -0.2718  0.5117
 3530SOL    HW211490   1.416   1.579   1.684 -0.2880 -0.5269  0.6085
 3531SOL     OW11491   2.431   1.812   0.626 -0.2452  0.5800  0.7989
 3531SOL    HW111492   2.363   1.874   0.587 -1.0022 -1.1359 -0.7821
 3531SOL    HW211493   2.470   1.852   0.709 -1.5180  2.6110  0.4780
 3532SOL     OW11494   2.433   5.838   2.503  0.0908 -0.2453 -0.1518
 3532SOL    HW111495   2.425   5.874   2.596 -0.3508  0.9416 -0.6208
 3532SOL    HW211496   2.433   5.915   2.438  1.9427 -0.9401 -1.0550
 3533SOL     OW11497   1.664   1.985   3.546  0.2108 -0.0692  0.4546
 3533SOL    HW111498   1.615   2.002   3.460 -0.5258  1.6211  1.1628
 3533SOL    HW211499   1.711   2.068   3.575  2.5054 -1.2827  0.4867
 3534SOL     OW11500   6.330   1.702   1.014 -0.3968  0.0642 -0.4563
 3534SOL    HW111501   6.316   1.740   0.923 -2.4960  3.8190  1.2035
 3534SOL    HW211502   6.279   1.617   1.024 -1.5371  0.5020 -2.2392
 3535SOL     OW11503   2.954   5.682   4.151  0.0255 -0.2044  0.7409
 3535SOL    HW111504   2.988   5.775   4.135 -0.0484 -0.1843  0.7017
 3535SOL    HW211505   3.016   5.617   4.108 -0.4280 -0.1289 -0.0694
 3536SOL     OW11506   5.238   2.229   3.906  0.0943 -0.3543 -0.1155
 3536SOL    HW111507   5.142   2.228   3.881  0.1073 -3.5681 -0.4409
 3536SOL    HW211508   5.294   2.247   3.825 -0.1701 -0.3327 -0.2922
 3537SOL     OW11509   1.092   0.604   4.144  0.4020 -0.2709  0.0708
 3537SOL    HW111510   1.021   0.637   4.081  0.6512 -1.5301 -0.9182
 3537SOL    HW211511   1.182   0.624   4.107  0.5809  0.7003  0.9902
 3538SOL     OW11512   2.258   6.027   2.099  0.9277 -0.4136 -0.0932
 3538SOL    HW111513   2.308   6.034   2.185  0.8128  0.9010 -0.1005
 3538SOL    HW211514   2.321   6.006   2.025  1.2499 -0.1778  0.1117
 3539SOL     OW11515   3.807   3.496   3.811 -0.1904  0.4478 -0.0096
 3539SOL    HW111516   3.717   3.463   3.784  0.6575 -0.9850 -1.3385
 3539SOL    HW211517   3.825   3.472   3.906 -1.1444  0.5932  0.2102
 3540SOL     OW11518   2.036   2.111   3.399 -0.0536  0.2903  0.2675
 3540SOL    HW111519   2.090   2.079   3.477 -0.8833 -0.7633  0.4356
 3540SOL    HW211520   1.943   2.130   3.429 -0.6072 -0.8985 -0.6005
 3541SOL     OW11521   5.028   2.398   0.405 -0.1752  0.6554 -0.3371
 3541SOL    HW111522   5.112   2.413   0.352  0.2251  0.5951  0.2817
 3541SOL    HW211523   5.018   2.301   0.425 -1.0128  0.4969 -1.4181
 3542SOL     OW11524   0.268   6.547   0.085  0.4839 -0.2048 -0.2535
 3542SOL    HW111525   0.265   6.642   0.116 -1.7647  0.0289 -1.0025
 3542SOL    HW211526   0.307   6.543  -0.007  0.5127  0.0187 -0.2511
 3543SOL     OW11527   6.078   2.364   5.650 -0.0143  0.4457 -0.3480
 3543SOL    HW111528   6.065   2.295   5.578 -1.7728  1.1861 -0.7848
 3543SOL    HW211529   6.075   2.319   5.739 -0.9797 -0.0991 -0.6301
 3544SOL     OW11530   4.207   1.375   1.618  0.0049  0.1698  0.6105
 3544SOL    HW111531   4.306   1.360   1.617 -0.1318 -1.3474 -2.2198
 3544SOL    HW211532   4.184   1.452   1.559 -0.4727  1.1712  2.0622
 3545SOL     OW11533   3.797   5.243   6.548  0.1519 -0.1186 -0.2315
 3545SOL    HW111534   3.731   5.317   6.559  1.8448  1.2562  1.5244
 3545SOL    HW211535   3.789   5.179   6.623  0.8489  0.1122  0.0493
 3546SOL     OW11536   6.734   3.346   0.589  0.5192 -0.3175  0.0262
 3546SOL    HW111537   6.812   3.301   0.547 -0.1714 -0.5100 -1.1103
 3546SOL    HW211538   6.759   3.439   0.616  0.7905  0.1060 -1.5830
 3547SOL     OW11539   6.108   4.893   3.912 -0.0531  0.2323 -0.2662
 3547SOL    HW111540   6.067   4.913   3.823  1.4035  1.3061 -0.7255
 3547SOL    HW211541   6.117   4.978   3.964 -1.7184 -0.4914  1.3221
 3548SOL     OW11542   6.377   4.720   6.646  0.5135 -0.0909  0.3859
 3548SOL    HW111543   6.308   4.654   6.618  0.5626 -0.7905  1.8100
 3548SOL    HW211544   6.358   4.809   6.604  0.0760 -0.8330 -1.0430
 3549SOL     OW11545   5.212   3.782   2.863 -0.2291  0.7211 -0.6159
 3549SOL    HW111546   5.183   3.725   2.940  1.6209 -0.6603 -0.8755
 3549SOL    HW211547   5.311   3.796   2.868 -0.2441  1.4984 -2.1629
 3550SOL     OW11548   4.359   2.340   4.168 -0.1928  0.0486 -0.4122
 3550SOL    HW111549   4.348   2.404   4.245  0.3206  1.0456 -1.1348
 3550SOL    HW211550   4.415   2.262   4.198  1.1097  1.0631 -0.0944
 3551SOL     OW11551   1.136   5.294   1.241 -0.2791 -0.3706  0.1899
 3551SOL    HW111552   1.164   5.365   1.306 -3.4602  1.0912  0.1201
 3551SOL    HW211553   1.176   5.314   1.151  2.2922 -1.1431  1.0701
 3552SOL     OW11554   0.691   5.563   1.439  0.1012  0.3173  0.4261
 3552SOL    HW111555   0.685   5.662   1.426 -0.0708  0.2714  0.1395
 3552SOL    HW211556   0.606   5.520   1.409  0.4665  0.0099 -0.2056
 3553SOL     OW11557   6.130   1.198   3.879 -0.4307  0.0111 -0.1465
 3553SOL    HW111558   6.135   1.204   3.780  0.6857  1.0312 -0.0637
 3553SOL    HW211559   6.207   1.144   3.913 -2.2908 -2.6899  0.0459
 3554SOL     OW11560   3.381   6.312   0.308 -0.5566 -0.4479  0.2947
 3554SOL    HW111561   3.393   6.351   0.217 -0.0095  1.0992  1.0023
 3554SOL    HW211562   3.321   6.232   0.302 -1.3728  0.2349 -1.2641
 3555SOL     OW11563   0.906   2.427   4.963 -0.7543 -0.7041  0.1546
 3555SOL    HW111564   0.887   2.406   5.059 -0.3252  0.5843  0.5413
 3555SOL    HW211565   0.998   2.394   4.940  0.7501  2.3141  1.3332
 3556SOL     OW11566   4.991   2.894   0.458  0.4169 -0.4861 -0.0100
 3556SOL    HW111567   4.928   2.816   0.455  0.6124 -0.6303 -0.3687
 3556SOL    HW211568   5.049   2.893   0.378  0.8732 -0.3473  0.3153
 3557SOL     OW11569   0.553   6.252   4.249  0.3942 -0.1304 -0.2909
 3557SOL    HW111570   0.474   6.203   4.213 -0.1486 -0.5467  1.3692
 3557SOL    HW211571   0.637   6.208   4.219  0.0168  0.2770 -2.0224
 3558SOL     OW11572   0.520   6.753   0.771 -0.4956 -0.2811  0.1001
 3558SOL    HW111573   0.531   6.687   0.696  2.1368  0.3282 -0.1694
 3558SOL    HW211574   0.471   6.833   0.737  0.6694 -0.0078 -1.0468
 3559SOL     OW11575   1.822   1.153   0.303  0.6178 -0.6298  0.4232
 3559SOL    HW111576   1.833   1.159   0.203  1.2648  0.4174  0.5363
 3559SOL    HW211577   1.761   1.078   0.325 -2.0299  0.9602 -0.9418
 3560SOL     OW11578   6.402   5.748   2.019 -0.0164 -0.3719 -0.5176
 3560SOL    HW111579   6.408   5.847   2.033  2.4841 -0.5047 -0.1271
 3560SOL    HW211580   6.383   5.729   1.923  0.5932  0.5099 -0.8322
 3561SOL     OW11581   6.742   4.649   4.563  0.2768 -0.0076  0.3283
 3561SOL    HW111582   6.743   4.551   4.580  0.0949  0.0644  0.7511
 3561SOL    HW211583   6.730   4.666   4.465  2.4088 -0.4302 -0.0511
 3562SOL     OW11584   2.662   1.607   3.201  0.3786 -0.4224 -0.2743
 3562SOL    HW111585   2.713   1.635   3.283  0.8348 -1.6149 -0.1359
 3562SOL    HW211586   2.592   1.676   3.181  0.8013  0.3021  0.6280
 3563SOL     OW11587   4.415   6.665   1.229 -0.2887  0.1165  0.4412
 3563SOL    HW111588   4.470   6.582   1.218 -0.8712 -0.1704 -0.4747
 3563SOL    HW211589   4.332   6.643   1.280 -0.8726 -0.0734 -0.5742
 3564SOL     OW11590   7.000   4.663   1.111 -0.8125 -0.1136 -0.3427
 3564SOL    HW111591   6.995   4.693   1.207  0.7327 -1.0489  0.0722
 3564SOL    HW211592   7.030   4.739   1.054 -1.7293  0.4488 -0.0881
 3565SOL     OW11593   6.788   6.458   4.391  0.4545 -0.1392  0.4931
 3565SOL    HW111594   6.779   6.419   4.299 -0.3213  0.6236  0.2322
 3565SOL    HW211595   6.774   6.557   4.386 -0.5647 -0.2127  1.5775
 3566SOL     OW11596   1.278   3.627   5.483  0.2270  0.1373 -0.0973
 3566SOL    HW111597   1.272   3.725   5.502  0.5646 -0.2968  2.5511
 3566SOL    HW211598   1.366   3.592   5.514 -0.4288 -1.2484  0.2932
 3567SOL     OW11599   6.988   4.539   1.624  0.1349 -0.3305  0.3714
 3567SOL    HW111600   6.896   4.565   1.654 -0.2439 -0.2830 -0.7886
 3567SOL    HW211601   7.051   4.614   1.642  0.1377 -0.6733  1.9471
 3568SOL     OW11602   4.403   4.579   3.685 -0.7064  0.4632  0.3336
 3568SOL    HW111603   4.389   4.515   3.610 -0.5838  1.6307 -0.7298
 3568SOL    HW211604   4.427   4.529   3.769  1.8266 -0.7843 -1.0160
 3569SOL     OW11605   3.773   3.510   2.818  0.2093  0.2005  0.3965
 3569SOL    HW111606   3.839   3.469   2.881  0.0982 -1.9618 -0.8063
 3569SOL    HW211607   3.693   3.451   2.810 -0.2633  0.9831 -0.9297
 3570SOL     OW11608   0.609   1.893   6.688 -0.3120  0.1868  0.0942
 3570SOL    HW111609   0.510   1.882   6.676 -0.4747  0.9452  0.6636
 3570SOL    HW211610   0.626   1.965   6.755  0.6130 -0.5263  0.6550
 3571SOL     OW11611   4.979   1.300   4.262 -0.0057  0.0066  0.2724
 3571SOL    HW111612   4.969   1.207   4.226  0.0441 -0.2098  0.8205
 3571SOL    HW211613   5.065   1.339   4.230  0.1589 -0.2809  0.3634
 3572SOL     OW11614   6.739   5.187   1.337  0.0936 -0.0317  0.2638
 3572SOL    HW111615   6.776   5.241   1.413  0.0130 -0.2218  0.4410
 3572SOL    HW211616   6.752   5.090   1.356  1.5173 -0.0601 -0.7107
 3573SOL     OW11617   6.985   3.338   6.280  0.1886 -0.0207 -0.0409
 3573SOL    HW111618   6.995   3.250   6.234  2.7598  0.0677  0.1763
 3573SOL    HW211619   6.970   3.322   6.378  0.4429 -0.2192 -0.0322
 3574SOL     OW11620   1.086   0.937   5.988  0.2242  0.2461  0.1864
 3574SOL    HW111621   1.109   0.840   6.000 -3.5336 -0.6511  1.1916
 3574SOL    HW211622   1.077   0.957   5.891  1.5545 -0.1963 -0.0590
 3575SOL     OW11623   3.444   1.508   6.566  0.1281 -0.0727  0.1089
 3575SOL    HW111624   3.537   1.474   6.581 -0.4229 -1.2802  1.0449
 3575SOL    HW211625   3.380   1.455   6.623 -1.1137  0.8288 -0.4017
 3576SOL     OW11626   0.689   2.628   0.605 -0.2440 -0.0708  0.2057
 3576SOL    HW111627   0.714   2.642   0.509 -0.3548  2.1856  0.4567
 3576SOL    HW211628   0.751   2.681   0.663 -1.4247  0.2213  1.2419
 3577SOL     OW11629   2.895   1.767   3.625  0.2461  0.7285  0.0428
 3577SOL    HW111630   2.855   1.857   3.608 -0.0772  0.8988  1.5955
 3577SOL    HW211631   2.854   1.726   3.706  0.8634 -0.5438 -0.2548
 3578SOL     OW11632   3.942   2.594   6.241  0.2453 -0.1387  0.1165
 3578SOL    HW111633   3.993   2.629   6.319  0.3323 -2.1409  1.0093
 3578SOL    HW211634   3.953   2.495   6.235 -1.4000 -0.2954 -1.2556
 3579SOL     OW11635   0.400   2.766   2.481 -0.1315  0.0636  0.0045
 3579SOL    HW111636   0.333   2.732   2.415  0.0281  0.5163 -0.3915
 3579SOL    HW211637   0.355   2.827   2.545 -0.3283 -0.5325  0.4469
 3580SOL     OW11638   5.237   4.723   0.991 -0.6173 -0.4290 -0.1804
 3580SOL    HW111639   5.208   4.652   1.055  1.1191 -2.0875 -1.1197
 3580SOL    HW211640   5.177   4.723   0.912 -0.1413 -1.4962 -0.5671
 3581SOL     OW11641   1.197   0.892   2.019  0.4282 -0.0162  0.1376
 3581SOL    HW111642   1.143   0.808   2.014 -0.3158  0.5255 -1.8269
 3581SOL    HW211643   1.137   0.971   2.011  1.2715  0.6673  0.4327
 3582SOL     OW11644   2.999   6.070   1.307 -0.0348  0.2000  0.3751
 3582SOL    HW111645   3.078   6.102   1.359  0.2828 -0.1040  0.0849
 3582SOL    HW211646   2.937   6.019   1.367  1.7735 -2.7481 -0.0907
 3583SOL     OW11647   6.538   4.259   3.238  0.1128 -0.2882 -0.5380
 3583SOL    HW111648   6.522   4.330   3.170  0.3331  0.2850 -0.0092
 3583SOL    HW211649   6.605   4.194   3.204 -0.7190 -0.7344 -1.3688
 3584SOL     OW11650   1.328   3.944   0.357 -0.3510  0.1595  0.2513
 3584SOL    HW111651   1.366   3.863   0.314  2.1103  0.2646  2.0632
 3584SOL    HW211652   1.298   3.923   0.450  1.0619  1.4205  1.0471
 3585SOL     OW11653   5.548   1.638   2.471  0.1968 -0.6725  0.1281
 3585SOL    HW111654   5.496   1.600   2.548  0.8379 -1.7236  0.0596
 3585SOL    HW211655   5.632   1.679   2.506 -0.6181  0.9819  0.2339
 3586SOL     OW11656   5.914   0.705   4.349  0.3347  0.3156  0.3768
 3586SOL    HW111657   5.921   0.615   4.392 -0.7486 -0.6084 -1.2790
 3586SOL    HW211658   5.993   0.760   4.376  0.7814 -0.9302  1.8108
 3587SOL     OW11659   2.882   0.487   6.060 -0.4198 -0.2337  0.6768
 3587SOL    HW111660   2.785   0.486   6.086 -0.7295  1.7264 -0.2527
 3587SOL    HW211661   2.938   0.467   6.141 -1.5432 -0.1259  1.5119
 3588SOL     OW11662   5.701   4.417   4.812 -0.0293  0.1516  0.4673
 3588SOL    HW111663   5.721   4.411   4.714  0.7495 -2.1722  0.6926
 3588SOL    HW211664   5.620   4.362   4.832  1.5135 -1.8614  1.4856
 3589SOL     OW11665   1.235   1.221   5.841  0.2563 -0.3579 -0.1571
 3589SOL    HW111666   1.334   1.211   5.855 -0.0915 -4.4687  0.5390
 3589SOL    HW211667   1.213   1.198   5.746 -0.0288  0.8397 -0.3888
 3590SOL     OW11668   6.688   4.549   5.069 -0.4239  0.0431 -0.6103
 3590SOL    HW111669   6.630   4.601   5.007 -0.6142  0.3779 -0.1524
 3590SOL    HW211670   6.642   4.539   5.158  0.0432 -0.0354 -0.3733
 3591SOL     OW11671   4.881   1.591   2.335 -0.1293  0.4631  1.2397
 3591SOL    HW111672   4.967   1.643   2.334  0.8290 -1.0236 -1.3859
 3591SOL    HW211673   4.891   1.512   2.396  0.8535 -0.3992 -0.0021
 3592SOL     OW11674   1.395   4.958   1.316 -0.0640 -0.0696 -0.1702
 3592SOL    HW111675   1.456   5.029   1.281 -0.6931  1.0333  0.9018
 3592SOL    HW211676   1.442   4.907   1.388 -0.0961  0.2197  0.0605
 3593SOL     OW11677   5.127   3.143   6.586 -0.3536  0.5067  0.4685
 3593SOL    HW111678   5.206   3.183   6.541 -0.2734  0.1289  0.2666
 3593SOL    HW211679   5.043   3.174   6.541 -0.2422 -0.6603 -0.6206
 3594SOL     OW11680   4.858   4.966   3.896  0.1729 -0.2967  0.1775
 3594SOL    HW111681   4.858   4.868   3.876  0.8171 -0.7447  2.1244
 3594SOL    HW211682   4.764   4.997   3.911 -0.1026 -0.4332 -1.1899
 3595SOL     OW11683   3.853   0.661   3.912  0.3299 -0.5177 -0.3570
 3595SOL    HW111684   3.934   0.698   3.868 -0.5256  1.2820 -0.5174
 3595SOL    HW211685   3.802   0.605   3.847  2.1581 -2.9870  0.1752
 3596SOL     OW11686   3.784   1.501   1.504 -0.1818 -0.8243 -0.4402
 3596SOL    HW111687   3.850   1.431   1.477 -0.5318 -1.4490  0.2837
 3596SOL    HW211688   3.698   1.487   1.455  0.2393  0.0765 -1.4936
 3597SOL     OW11689   3.170   3.895   6.046 -0.3945  0.0621  0.1131
 3597SOL    HW111690   3.169   3.853   5.955 -0.6680  1.2604 -0.4510
 3597SOL    HW211691   3.201   3.990   6.039 -1.1942  0.4190  1.1600
 3598SOL     OW11692   2.158   6.944   5.116  0.0620  0.1685  0.0885
 3598SOL    HW111693   2.229   6.993   5.066  0.3359  0.6112  0.8822
 3598SOL    HW211694   2.174   6.846   5.111 -1.5978 -0.0788 -3.2187
 3599SOL     OW11695   3.785   6.267   4.734  0.2743 -0.1794  0.0061
 3599SOL    HW111696   3.757   6.172   4.751 -1.4201  0.4914  1.1477
 3599SOL    HW211697   3.877   6.267   4.694 -0.5067 -2.3965 -2.0744
 3600SOL     OW11698   2.659   3.618   1.520  0.3129  0.2377  0.7906
 3600SOL    HW111699   2.643   3.556   1.597 -1.8228 -0.1791  0.0782
 3600SOL    HW211700   2.645   3.712   1.551 -1.3009  0.0331  0.8088
 3601SOL     OW11701   4.419   6.984   6.376  0.3466 -0.0971  0.4399
 3601SOL    HW111702   4.421   7.075   6.417 -1.1709 -0.0073  0.3700
 3601SOL    HW211703   4.425   6.914   6.447 -3.9718  0.0218  1.1859
 3602SOL     OW11704   2.987   2.382   6.774  0.1532 -0.3635  0.2181
 3602SOL    HW111705   2.985   2.420   6.867 -0.9650  1.6669 -0.5658
 3602SOL    HW211706   2.976   2.283   6.778 -1.9924 -0.1263  2.1657
 3603SOL     OW11707   0.880   0.316   6.965  0.2788  0.0265  0.5159
 3603SOL    HW111708   0.930   0.245   6.914 -1.8973  0.1848 -2.0166
 3603SOL    HW211709   0.920   0.405   6.944 -1.1120  0.1914 -1.7675
 3604SOL     OW11710   6.908   0.616   4.722 -0.0771  0.2248  0.5957
 3604SOL    HW111711   6.968   0.696   4.730  0.0599  0.0465  1.3736
 3604SOL    HW211712   6.925   0.554   4.798 -1.0556  0.0363  0.6646
 3605SOL     OW11713   0.769   6.798   4.816  0.2742  0.0396  0.7211
 3605SOL    HW111714   0.845   6.799   4.880  1.2622 -0.1418 -0.4128
 3605SOL    HW211715   0.803   6.781   4.723 -0.7395  3.1623 -0.3499
 3606SOL     OW11716   1.702   0.557   1.266 -0.7622  0.8049 -0.0383
 3606SOL    HW111717   1.698   0.475   1.208  0.8819  0.2509  0.5780
 3606SOL    HW211718   1.700   0.529   1.362  3.4352  1.0637  0.3081
 3607SOL     OW11719   6.859   2.399   4.656  0.3897 -0.0088 -0.1641
 3607SOL    HW111720   6.835   2.440   4.568 -0.8268  0.6408  0.4395
 3607SOL    HW211721   6.792   2.328   4.680 -1.0157  1.7371  1.4838
 3608SOL     OW11722   4.124   2.423   6.713 -0.7295 -0.1075  0.5380
 3608SOL    HW111723   4.145   2.519   6.693 -0.7474 -0.0224  0.9111
 3608SOL    HW211724   4.025   2.411   6.716 -0.7319 -0.2693 -0.1102
 3609SOL     OW11725   3.961   6.871   4.411  0.3265 -0.5951  0.4703
 3609SOL    HW111726   3.944   6.929   4.491  1.0283  0.2408  0.0326
 3609SOL    HW211727   4.041   6.813   4.428  0.0519 -0.9202  0.6431
 3610SOL     OW11728   2.511   0.883   6.250 -0.3042 -0.7150  0.0226
 3610SOL    HW111729   2.552   0.842   6.168  0.8568  0.4514 -0.0169
 3610SOL    HW211730   2.578   0.883   6.324 -0.7447 -0.1271  0.4320
 3611SOL     OW11731   6.368   4.436   4.681  0.6688  0.1420  0.5966
 3611SOL    HW111732   6.275   4.403   4.699  0.7890  0.5231  2.0034
 3611SOL    HW211733   6.363   4.522   4.630  0.2301  0.3894  1.0472
 3612SOL     OW11734   6.148   4.242   6.947 -0.3072 -0.1041  0.0966
 3612SOL    HW111735   6.228   4.183   6.934 -0.0115  0.0557  1.0790
 3612SOL    HW211736   6.096   4.248   6.862  1.2098  0.4993 -0.8266
 3613SOL     OW11737   5.022   1.816   2.700  0.1005 -0.2542 -0.9191
 3613SOL    HW111738   4.978   1.767   2.775 -1.0385  0.4856 -1.0714
 3613SOL    HW211739   5.058   1.751   2.633 -0.4462 -0.8989 -0.5968
 3614SOL     OW11740   3.951   5.813   5.333 -0.3326  0.1872 -0.3992
 3614SOL    HW111741   3.921   5.735   5.278  0.3452 -0.5623  0.2533
 3614SOL    HW211742   3.883   5.832   5.404 -0.3823  0.0143 -0.3992
 3615SOL     OW11743   5.717   3.176   5.039 -0.6587  1.3502 -0.1158
 3615SOL    HW111744   5.685   3.090   5.078 -2.6329  0.8443 -2.5273
 3615SOL    HW211745   5.668   3.252   5.082  0.2675  1.2203  1.2300
 3616SOL     OW11746   0.390   1.450   0.567  0.2849 -0.3299  0.0533
 3616SOL    HW111747   0.381   1.524   0.501  0.0417 -0.1901  0.2417
 3616SOL    HW211748   0.427   1.369   0.522  3.0307  0.6486  0.3560
 3617SOL     OW11749   3.765   6.602   4.545 -0.3414 -0.4273  1.0785
 3617SOL    HW111750   3.703   6.641   4.478 -0.0297 -0.2312  0.9046
 3617SOL    HW211751   3.716   6.534   4.600 -0.8542  0.1081  1.2981
 3618SOL     OW11752   6.991   5.556   5.060  0.1078 -0.2030  0.7184
 3618SOL    HW111753   6.979   5.504   5.144 -0.8822 -0.6029  0.3482
 3618SOL    HW211754   6.984   5.654   5.080  3.3975 -0.0345  1.6647
 3619SOL     OW11755   6.180   0.070   2.785  0.1375  0.0617  0.7007
 3619SOL    HW111756   6.229   0.156   2.801 -0.1759  0.0471  1.8420
 3619SOL    HW211757   6.221  -0.002   2.842 -0.1354 -0.3421  0.3884
 3620SOL     OW11758   5.017   6.747   4.288  0.3220 -0.8634 -0.3133
 3620SOL    HW111759   5.089   6.709   4.346 -0.6132 -2.0468  0.1263
 3620SOL    HW211760   4.970   6.821   4.336  2.3513  1.1873 -1.2867
 3621SOL     OW11761   3.355   3.451   3.368 -0.1005 -0.1646  0.9959
 3621SOL    HW111762   3.340   3.516   3.293 -1.0028 -1.2749  0.1883
 3621SOL    HW211763   3.301   3.480   3.447  0.0430  0.4475  0.8787
 3622SOL     OW11764   2.182   5.109   5.419  0.4199  0.5958  0.0845
 3622SOL    HW111765   2.140   5.019   5.423 -0.0407  0.8477  3.4646
 3622SOL    HW211766   2.131   5.167   5.355 -3.7707  0.4703  2.8861
 3623SOL     OW11767   2.946   1.918   6.593 -0.7669  0.6435 -0.1530
 3623SOL    HW111768   2.920   1.948   6.501  0.0975  0.0796 -0.5904
 3623SOL    HW211769   2.976   1.823   6.590 -2.2510  0.1019  0.9994
 3624SOL     OW11770   2.715   2.294   1.795 -0.4916  0.6145  0.2604
 3624SOL    HW111771   2.668   2.300   1.882 -0.5784 -1.7223  0.4453
 3624SOL    HW211772   2.814   2.301   1.810 -0.4234 -0.9117  0.7602
 3625SOL     OW11773   5.464   3.620   1.222 -0.1396 -0.2565  0.4536
 3625SOL    HW111774   5.479   3.620   1.321  0.7853 -0.9359  0.3209
 3625SOL    HW211775   5.511   3.542   1.181 -4.2851 -2.8285  0.0182
 3626SOL     OW11776   6.488   3.607   6.858  0.3187  0.2041 -0.0628
 3626SOL    HW111777   6.389   3.619   6.856  0.4909  1.9105  0.4306
 3626SOL    HW211778   6.533   3.696   6.868  1.9518 -0.4133 -1.3267
 3627SOL     OW11779   2.688   1.296   1.312  0.6740 -0.0504 -0.2234
 3627SOL    HW111780   2.680   1.237   1.231  2.3031  1.4129 -1.5535
 3627SOL    HW211781   2.597   1.312   1.351 -0.4684  0.6982 -2.9391
 3628SOL     OW11782   6.834   5.798   1.579  0.6301  0.3068 -0.3196
 3628SOL    HW111783   6.825   5.760   1.672  1.2062  0.4028 -0.2215
 3628SOL    HW211784   6.855   5.723   1.515  3.0956  0.5698  0.0726
 3629SOL     OW11785   1.722   7.020   2.486  0.0907 -0.1610 -0.6846
 3629SOL    HW111786   1.726   7.083   2.563  3.3650 -1.8692  0.7394
 3629SOL    HW211787   1.778   7.055   2.411 -0.1081 -0.2318 -0.8693
 3630SOL     OW11788   0.619   0.951   3.498 -0.6449 -0.3044 -0.1890
 3630SOL    HW111789   0.649   0.857   3.483  0.8436  0.1972 -0.5388
 3630SOL    HW211790   0.681   1.014   3.450 -0.6065  0.9314  1.3960
 3631SOL     OW11791   1.891   4.741   2.791  0.2799  0.9713  0.6583
 3631SOL    HW111792   1.891   4.659   2.733  0.3311  0.2860  1.6095
 3631SOL    HW211793   1.942   4.723   2.875 -0.4955  1.6761  1.3015
 3632SOL     OW11794   5.681   5.651   4.080 -0.3582  0.2643 -0.2598
 3632SOL    HW111795   5.765   5.636   4.028 -0.5084  0.4269 -0.5499
 3632SOL    HW211796   5.616   5.702   4.024 -0.9288 -0.4903 -0.3038
 3633SOL     OW11797   4.123   4.986   0.186  0.6347  0.3588  0.0869
 3633SOL    HW111798   4.145   5.055   0.255 -1.7611  1.4318 -0.1273
 3633SOL    HW211799   4.140   4.895   0.224  2.4020  0.9935  0.9231
 3634SOL     OW11800   3.035   4.538   5.457 -0.6420 -1.2485  0.5815
 3634SOL    HW111801   2.990   4.476   5.392 -2.6337 -1.6597  2.2404
 3634SOL    HW211802   3.134   4.524   5.453 -0.8733 -2.8823 -0.7349
 3635SOL     OW11803   1.668   6.334   3.163 -0.2410  0.0057 -0.0085
 3635SOL    HW111804   1.722   6.303   3.085  0.6790 -2.4874  1.5124
 3635SOL    HW211805   1.685   6.431   3.179 -1.7679  1.0841 -3.8454
 3636SOL     OW11806   0.848   3.767   5.573  0.5411  0.6503  0.0268
 3636SOL    HW111807   0.866   3.830   5.498  0.8066  0.7816  0.1968
 3636SOL    HW211808   0.913   3.784   5.647  0.4416  0.3577  0.1848
 3637SOL     OW11809   5.463   4.638   6.384 -0.2742 -0.2879  0.3217
 3637SOL    HW111810   5.404   4.716   6.401  0.2001  0.5881 -1.7335
 3637SOL    HW211811   5.559   4.667   6.388 -0.1132 -0.3282 -2.0839
 3638SOL     OW11812   6.476   1.856   3.118 -0.5631  0.1975  0.1079
 3638SOL    HW111813   6.488   1.927   3.188  2.9181  0.9310 -1.0611
 3638SOL    HW211814   6.500   1.767   3.157 -2.7891 -0.1322  0.9290
 3639SOL     OW11815   3.552   3.241   3.394 -0.4066 -0.4663  0.1652
 3639SOL    HW111816   3.524   3.145   3.387 -0.1034 -0.5086 -0.4846
 3639SOL    HW211817   3.474   3.300   3.372 -0.1856 -0.5775 -0.9381
 3640SOL     OW11818   2.579   2.957   1.363  0.3741  0.1067 -0.2288
 3640SOL    HW111819   2.572   3.050   1.328 -0.3589 -0.0219 -0.4437
 3640SOL    HW211820   2.487   2.920   1.378  0.6195 -1.0144 -1.3201
 3641SOL     OW11821   5.916   3.388   2.220 -0.1975  0.1427  0.2842
 3641SOL    HW111822   5.867   3.410   2.304 -0.5212  1.2283 -0.1709
 3641SOL    HW211823   6.015   3.401   2.234 -0.3562  1.7429  0.1074
 3642SOL     OW11824   5.063   3.690   6.429 -0.1978  0.1460  0.3678
 3642SOL    HW111825   5.020   3.669   6.516  0.3088 -2.1662  0.1040
 3642SOL    HW211826   5.152   3.734   6.445 -1.1603  2.0161  0.9274
 3643SOL     OW11827   4.805   1.588   4.555  0.3285 -0.4432 -0.3438
 3643SOL    HW111828   4.820   1.554   4.462  0.5721  0.3087 -0.5811
 3643SOL    HW211829   4.870   1.660   4.575  1.5441 -1.8869  1.1079
 3644SOL     OW11830   2.882   1.367   1.777 -0.1193  0.2894 -0.1525
 3644SOL    HW111831   2.929   1.311   1.845  0.8691  2.2683  0.8888
 3644SOL    HW211832   2.793   1.395   1.812  0.3841  1.2973  0.3652
 3645SOL     OW11833   1.995   4.948   3.478 -0.4113 -0.3353  0.1640
 3645SOL    HW111834   2.051   4.920   3.556  1.0029  1.6697 -0.0519
 3645SOL    HW211835   2.051   5.000   3.414 -1.8634 -0.8028 -1.5677
 3646SOL     OW11836   3.268   4.755   6.783  0.0819 -0.4073 -0.6742
 3646SOL    HW111837   3.217   4.672   6.757  0.7938 -1.4467  1.0889
 3646SOL    HW211838   3.210   4.835   6.767 -1.9318 -1.5043  0.7129
 3647SOL     OW11839   4.661   1.377   1.238  0.1714  0.8716 -0.2356
 3647SOL    HW111840   4.593   1.450   1.235  0.2838  1.0725  1.2834
 3647SOL    HW211841   4.752   1.415   1.221 -0.0625  0.5850 -2.3801
 3648SOL     OW11842   4.943   4.214   3.610 -0.0074 -0.5188 -0.2932
 3648SOL    HW111843   4.916   4.141   3.547  0.6626 -1.2828  0.2992
 3648SOL    HW211844   4.994   4.284   3.560  1.3534 -1.5907 -0.4330
 3649SOL     OW11845   5.870   3.939   6.314 -0.0744 -0.4235 -0.0571
 3649SOL    HW111846   5.909   3.861   6.265 -0.9032 -1.0068  0.1881
 3649SOL    HW211847   5.778   3.958   6.280 -0.3303 -0.2951  0.6739
 3650SOL     OW11848   6.509   4.890   1.140 -0.2746  0.4264 -0.3896
 3650SOL    HW111849   6.487   4.932   1.227 -3.0900 -0.4691 -0.5659
 3650SOL    HW211850   6.433   4.903   1.076  1.1291 -0.1249 -2.2603
 3651SOL     OW11851   1.500   2.382   0.645 -0.2341 -0.4948  0.1860
 3651SOL    HW111852   1.450   2.428   0.719  0.5900 -0.6572  0.8532
 3651SOL    HW211853   1.502   2.284   0.662 -2.1996 -0.8466 -1.3675
 3652SOL     OW11854   6.930   3.158   2.714  0.2845  0.7580 -0.3743
 3652SOL    HW111855   6.865   3.082   2.716  0.7288  0.3821  1.0966
 3652SOL    HW211856   6.918   3.210   2.629 -0.9770 -0.1163 -0.7632
 3653SOL     OW11857   1.633   3.532   1.553 -0.0241  0.0891  0.1649
 3653SOL    HW111858   1.702   3.460   1.542 -0.7048 -0.2717 -2.5255
 3653SOL    HW211859   1.677   3.616   1.585  1.1759 -0.8481  1.0659
 3654SOL     OW11860   4.097   4.727   0.336 -0.0082  0.6469 -0.0022
 3654SOL    HW111861   4.050   4.717   0.424 -0.4119  0.2513 -0.2653
 3654SOL    HW211862   4.151   4.645   0.317 -0.0903  0.6446 -0.2269
 3655SOL     OW11863   1.031   6.036   4.014  1.1286  0.6839  0.1252
 3655SOL    HW111864   1.044   6.010   3.919  2.3344 -0.6624  0.6142
 3655SOL    HW211865   0.981   5.964   4.062  0.6200  1.3052  0.5456
 3656SOL     OW11866   6.164   0.279   0.855  0.0065  0.1863 -0.1654
 3656SOL    HW111867   6.193   0.192   0.815 -1.3061 -0.4309  0.1854
 3656SOL    HW211868   6.142   0.266   0.951 -0.1693  0.9188 -0.0976
 3657SOL     OW11869   0.523   3.981   6.478 -0.2328 -1.3938  0.4871
 3657SOL    HW111870   0.517   3.894   6.527  1.8115 -1.8895 -0.0588
 3657SOL    HW211871   0.615   3.992   6.441 -0.1680  1.4122  1.2794
 3658SOL     OW11872   1.096   4.031   6.709 -0.2036  0.1138  0.0362
 3658SOL    HW111873   1.186   3.990   6.690 -0.0499 -0.1740  1.3007
 3658SOL    HW211874   1.024   3.967   6.681 -0.0574  0.6796 -1.7434
 3659SOL     OW11875   1.296   1.649   6.037 -0.1208  0.6889  0.0886
 3659SOL    HW111876   1.369   1.673   5.973  0.3384  0.9426  0.6967
 3659SOL    HW211877   1.289   1.549   6.043  1.6465  0.6067  1.6239
 3660SOL     OW11878   3.655   5.020   4.895  0.4590  0.1583 -0.0377
 3660SOL    HW111879   3.693   5.006   4.987 -0.0424 -1.0320  0.0096
 3660SOL    HW211880   3.729   5.019   4.828  0.8706  1.4025  0.3684
 3661SOL     OW11881   1.550   6.009   5.335 -0.3489  0.3510 -0.3415
 3661SOL    HW111882   1.622   5.977   5.273 -0.8821  0.6548 -1.1392
 3661SOL    HW211883   1.471   6.038   5.281 -1.2886 -0.4999  0.5372
 3662SOL     OW11884   4.382   2.385   4.734 -0.7062  0.4442  0.2880
 3662SOL    HW111885   4.289   2.392   4.770 -1.0472 -1.3041 -0.1453
 3662SOL    HW211886   4.422   2.299   4.764  0.4151  0.7270 -0.3645
 3663SOL     OW11887   2.014   1.364   5.035 -0.2534  0.2725  0.0952
 3663SOL    HW111888   1.994   1.358   5.133  2.4112  1.1811  0.7719
 3663SOL    HW211889   1.989   1.454   5.002  0.7504  0.7075  0.4721
 3664SOL     OW11890   0.112   2.530   1.742  0.4642 -0.1461  0.5325
 3664SOL    HW111891   0.049   2.455   1.722 -0.3102 -0.2417  3.0268
 3664SOL    HW211892   0.190   2.495   1.793 -1.1331  0.9752  4.0171
 3665SOL     OW11893   5.375   0.867   5.205  0.2413 -0.0312  0.2823
 3665SOL    HW111894   5.391   0.923   5.124  0.0508 -0.2459  0.0923
 3665SOL    HW211895   5.412   0.776   5.191 -2.8016 -1.2083 -1.0036
 3666SOL     OW11896   1.508   3.549   6.886  0.4100 -0.2966  0.4568
 3666SOL    HW111897   1.509   3.500   6.799  4.2073  1.1157 -0.4770
 3666SOL    HW211898   1.595   3.535   6.933  0.7522  3.5040  1.2494
 3667SOL     OW11899   2.659   5.499   6.953 -0.5820 -0.2706 -0.7401
 3667SOL    HW111900   2.740   5.558   6.960 -0.9516  0.4980 -2.4292
 3667SOL    HW211901   2.601   5.513   7.033  1.6392 -2.0011  1.3395
 3668SOL     OW11902   4.419   1.690   6.097 -0.5140 -0.0060  0.0669
 3668SOL    HW111903   4.440   1.597   6.065  1.5073  0.2558  0.5474
 3668SOL    HW211904   4.469   1.756   6.043  1.2002  0.5669  2.1980
 3669SOL     OW11905   0.298   2.487   1.282  0.3157 -0.3316  0.4983
 3669SOL    HW111906   0.297   2.527   1.373  0.3680 -0.5958  0.6149
 3669SOL    HW211907   0.338   2.552   1.217  1.2481 -0.5413  0.8485
 3670SOL     OW11908   1.058   0.650   1.998 -0.3190 -0.5572 -0.2422
 3670SOL    HW111909   0.994   0.626   2.072  0.9223 -0.8036  0.7866
 3670SOL    HW211910   1.111   0.570   1.972  1.3929  0.1838  0.7684
 3671SOL     OW11911   2.090   0.662   5.659 -0.2305 -0.1000  0.4785
 3671SOL    HW111912   2.184   0.694   5.674  0.0386 -1.0693  0.9451
 3671SOL    HW211913   2.088   0.562   5.660 -1.2100 -0.0984  0.0629
 3672SOL     OW11914   2.613   2.046   2.114 -0.1897 -0.4231  0.8524
 3672SOL    HW111915   2.604   2.145   2.103 -3.9595 -0.5249  1.5706
 3672SOL    HW211916   2.617   2.024   2.212  0.0585 -1.0041  0.7148
 3673SOL     OW11917   4.687   1.203   0.245  0.2718 -0.2616 -0.1758
 3673SOL    HW111918   4.621   1.218   0.171  0.9394  1.2072 -0.5024
 3673SOL    HW211919   4.645   1.146   0.316 -0.7066 -0.8801 -1.2138
 3674SOL     OW11920   6.487   4.892   5.924  0.2681 -0.0921  0.0458
 3674SOL    HW111921   6.436   4.944   5.993  0.1227 -1.0103  0.6474
 3674SOL    HW211922   6.427   4.876   5.845  0.2198  0.3898 -0.0209
 3675SOL     OW11923   6.604   0.978   5.938  0.0548 -0.0490 -0.3880
 3675SOL    HW111924   6.652   0.972   6.026  0.1379  0.7026 -0.3775
 3675SOL    HW211925   6.545   1.058   5.937 -0.0721 -0.1432 -0.9586
 3676SOL     OW11926   3.499   1.586   0.216 -0.3439  0.0298  0.0271
 3676SOL    HW111927   3.570   1.532   0.171 -0.8851 -1.7821  1.2597
 3676SOL    HW211928   3.413   1.536   0.216 -0.6957  0.5468  1.8388
 3677SOL     OW11929   1.202   1.362   4.970 -0.1999 -0.0046  0.9400
 3677SOL    HW111930   1.223   1.267   4.991  1.3037  0.3759  1.3008
 3677SOL    HW211931   1.236   1.384   4.878  1.6551  0.7704  1.7407
 3678SOL     OW11932   1.427   5.531   1.892 -0.0165 -0.3225  0.1205
 3678SOL    HW111933   1.376   5.516   1.978  2.1179 -1.6623  1.2279
 3678SOL    HW211934   1.390   5.471   1.821 -0.8688 -0.2447  0.4753
 3679SOL     OW11935   4.806   5.940   2.870 -0.7806  0.4288 -0.0149
 3679SOL    HW111936   4.849   5.853   2.895 -1.9391 -0.3375 -0.6379
 3679SOL    HW211937   4.877   6.010   2.858  0.0778 -0.0861  1.7555
 3680SOL     OW11938   4.286   1.970   4.774 -1.0922 -0.0772  0.6332
 3680SOL    HW111939   4.370   2.025   4.781 -1.1495  0.0492  0.3515
 3680SOL    HW211940   4.206   2.031   4.780 -1.1597  0.1184 -1.3821
 3681SOL     OW11941   2.655   5.043   3.356 -0.0687  0.1428 -0.0417
 3681SOL    HW111942   2.706   5.081   3.433  1.2863 -0.5901 -0.5393
 3681SOL    HW211943   2.661   5.105   3.278  0.7172 -0.3005 -0.3362
 3682SOL     OW11944   5.226   6.465   3.089 -0.0708 -0.0049 -0.5312
 3682SOL    HW111945   5.205   6.368   3.082 -1.6217  0.2837 -0.1071
 3682SOL    HW211946   5.267   6.483   3.179  0.3055 -0.2742 -0.6456
 3683SOL     OW11947   6.649   6.928   1.892  0.5375 -0.1467  0.0697
 3683SOL    HW111948   6.713   6.852   1.885  1.0150  0.3256 -0.8393
 3683SOL    HW211949   6.609   6.946   1.802  0.5247  0.7566  0.2510
 3684SOL     OW11950   2.151   5.787   6.735 -0.0059  0.2495  0.4788
 3684SOL    HW111951   2.248   5.787   6.712  0.1807  0.7237  1.2279
 3684SOL    HW211952   2.096   5.786   6.651  0.6307 -1.4272  0.0508
 3685SOL     OW11953   2.559   0.038   2.047  0.1830 -0.0963  0.0427
 3685SOL    HW111954   2.513   0.095   2.115  1.4972  1.3551 -0.2294
 3685SOL    HW211955   2.493  -0.023   2.004 -0.7688 -0.7176  2.2508
 3686SOL     OW11956   3.829   5.804   1.684  0.4150 -0.1151 -0.4704
 3686SOL    HW111957   3.807   5.829   1.778 -0.8187 -0.5807 -0.6231
 3686SOL    HW211958   3.789   5.714   1.663  3.8996 -1.9320 -0.2124
 3687SOL     OW11959   2.090   5.907   5.312  0.1932  0.0487  0.2932
 3687SOL    HW111960   2.148   5.952   5.381  0.9042 -0.3751 -0.0213
 3687SOL    HW211961   2.100   5.808   5.319  1.3869  0.0223 -1.3409
 3688SOL     OW11962   6.527   2.731   1.368  0.1046 -0.0746  0.3076
 3688SOL    HW111963   6.546   2.811   1.426 -1.1340  1.2723 -1.0237
 3688SOL    HW211964   6.599   2.721   1.300 -0.1766  0.5164 -0.0968
 3689SOL     OW11965   3.369   2.659   6.339  0.7298  0.6395  0.3802
 3689SOL    HW111966   3.406   2.580   6.291 -1.9860 -0.2741 -0.4039
 3689SOL    HW211967   3.398   2.743   6.293  0.1115 -0.1274 -1.4765
 3690SOL     OW11968   1.303   6.943   3.216 -0.1272  1.0361 -0.1080
 3690SOL    HW111969   1.235   6.961   3.145 -0.4262 -0.2789 -0.1788
 3690SOL    HW211970   1.259   6.896   3.293  0.9805 -1.3846 -0.8598
 3691SOL     OW11971   1.456   1.807   0.547 -0.3966 -0.0843  0.3137
 3691SOL    HW111972   1.531   1.757   0.589 -0.9434 -0.4439  0.8787
 3691SOL    HW211973   1.419   1.873   0.613  0.8481  1.6878 -0.6694
 3692SOL     OW11974   1.208   3.474   6.454 -0.1036 -0.1624 -0.4748
 3692SOL    HW111975   1.244   3.389   6.493  1.7003 -0.0120 -1.7011
 3692SOL    HW211976   1.282   3.526   6.413 -1.4772  1.0920 -1.4780
 3693SOL     OW11977   1.362   1.148   4.989  0.0065  0.2019 -0.2271
 3693SOL    HW111978   1.412   1.169   4.905 -3.4446  0.8101 -2.3347
 3693SOL    HW211979   1.299   1.072   4.972 -2.8716  2.1974  0.8403
 3694SOL     OW11980   3.996   0.713   1.660  0.3581  0.5526  0.1912
 3694SOL    HW111981   4.004   0.620   1.697  2.4248  1.5101  2.3453
 3694SOL    HW211982   3.948   0.771   1.725 -0.3803  1.1593 -0.8726
 3695SOL     OW11983   4.974   3.596   3.724 -0.1931  0.2555 -0.0698
 3695SOL    HW111984   4.974   3.663   3.649  1.2663  1.4316  0.9275
 3695SOL    HW211985   5.014   3.638   3.806 -2.6391 -0.6570  1.7115
 3696SOL     OW11986   6.092   1.684   4.244  0.4030  0.2576  0.3734
 3696SOL    HW111987   6.016   1.661   4.183  0.3072  0.3238  0.4674
 3696SOL    HW211988   6.134   1.770   4.214  0.2908  0.3437  0.4609
 3697SOL     OW11989   0.526   3.886   4.003  0.5293 -0.2250  0.3465
 3697SOL    HW111990   0.440   3.855   3.963 -0.1996  0.4830  1.2919
 3697SOL    HW211991   0.600   3.824   3.977  0.2313  0.4428 -2.4676
 3698SOL     OW11992   0.097   0.648   5.435 -0.2373  0.2071  0.1154
 3698SOL    HW111993   0.191   0.673   5.409 -0.4020 -0.2133 -0.9408
 3698SOL    HW211994   0.047   0.619   5.353 -0.2398 -2.9512  1.1188
 3699SOL     OW11995   3.379   1.509   4.632 -0.4785  0.4957  0.2398
 3699SOL    HW111996   3.473   1.512   4.666 -0.2863  0.1090 -0.2535
 3699SOL    HW211997   3.356   1.416   4.603 -0.0128  1.1145 -2.4091
 3700SOL     OW11998   0.702   5.343   5.781  0.6319 -0.7643  0.2833
 3700SOL    HW111999   0.641   5.421   5.768 -1.7084 -2.7826 -2.1367
 3700SOL    HW212000   0.674   5.292   5.862  0.1549 -0.7672  0.1203
 3701SOL     OW12001   6.796   0.078   1.582  0.4371 -0.6010  0.2054
 3701SOL    HW112002   6.864   0.137   1.627  0.0653  0.3130 -0.3884
 3701SOL    HW212003   6.840  -0.006   1.550  1.5383  0.4024 -1.0479
 3702SOL     OW12004   0.729   5.179   2.949  0.3150  0.1091  0.4772
 3702SOL    HW112005   0.637   5.151   2.925  0.1098  0.0512  1.3019
 3702SOL    HW212006   0.726   5.263   3.004  0.9136  1.7739 -1.8647
 3703SOL     OW12007   1.959   0.875   1.522 -0.1574 -0.5695  0.0658
 3703SOL    HW112008   1.964   0.777   1.507  2.3857 -0.5777  0.5206
 3703SOL    HW212009   2.025   0.922   1.463 -0.8876  0.8084  0.2952
 3704SOL     OW12010   5.875   6.255   2.366 -0.0008  0.2687 -0.3655
 3704SOL    HW112011   5.903   6.324   2.432  1.6632  1.4612 -2.2099
 3704SOL    HW212012   5.829   6.299   2.289 -1.4123 -1.0186 -0.3031
 3705SOL     OW12013   0.426   3.698   5.449  0.3342  0.2396  0.0266
 3705SOL    HW112014   0.439   3.677   5.546  1.2299  3.2960  0.6695
 3705SOL    HW212015   0.331   3.680   5.423  0.0804 -0.6093  1.4583
 3706SOL     OW12016   0.682   4.964   6.296  0.0473 -0.3125 -0.1156
 3706SOL    HW112017   0.656   4.930   6.205 -1.4960 -0.2960  0.2847
 3706SOL    HW212018   0.764   4.917   6.327  1.0396  0.1998 -1.8167
 3707SOL     OW12019   6.363   3.199   3.604 -0.1786 -0.3918  0.0369
 3707SOL    HW112020   6.275   3.163   3.636  0.6525 -1.1619  1.5871
 3707SOL    HW212021   6.384   3.160   3.514 -0.7377 -1.3967  0.3178
 3708SOL     OW12022   0.745   6.051   5.923 -0.0624  0.1260 -0.0389
 3708SOL    HW112023   0.838   6.035   5.890 -0.2222 -0.0872 -0.3986
 3708SOL    HW212024   0.680   6.009   5.859 -0.4134  0.5024  0.0687
 3709SOL     OW12025   0.008   1.959   1.902  0.9617 -0.2143 -0.2675
 3709SOL    HW112026  -0.033   1.934   1.990 -0.1808 -0.0983 -0.7460
 3709SOL    HW212027   0.067   1.884   1.870 -1.1138 -1.6895 -0.8982
 3710SOL     OW12028   1.242   4.046   2.717 -0.3470  0.0336  0.6261
 3710SOL    HW112029   1.208   4.138   2.698 -0.6810  0.0612  1.3244
 3710SOL    HW212030   1.167   3.990   2.754  0.1447 -0.1485  1.3803
 3711SOL     OW12031   6.317   4.566   0.286 -0.1723 -0.0697 -0.1190
 3711SOL    HW112032   6.239   4.575   0.224 -1.0077 -3.6946  0.1731
 3711SOL    HW212033   6.388   4.511   0.242  0.4472 -0.2691  1.0855
 3712SOL     OW12034   2.219   5.827   4.503 -0.4775  0.2409  0.1960
 3712SOL    HW112035   2.213   5.910   4.559  2.0756 -0.1671  1.1967
 3712SOL    HW212036   2.302   5.829   4.448 -1.0680 -1.0794 -0.8126
 3713SOL     OW12037   6.165   1.747   6.013  1.1650 -0.1319 -0.2249
 3713SOL    HW112038   6.213   1.684   6.073  3.7449  2.4442  0.5982
 3713SOL    HW212039   6.221   1.765   5.932  1.6996  2.8604  0.6962
 3714SOL     OW12040   5.966   5.364   1.173 -0.2419 -0.8218  0.4249
 3714SOL    HW112041   5.894   5.380   1.240  0.9402 -0.7443  1.7199
 3714SOL    HW212042   6.054   5.350   1.220  0.6986 -0.3923 -1.1174
 3715SOL     OW12043   6.337   5.312   4.110 -0.6128 -0.2065 -0.1037
 3715SOL    HW112044   6.372   5.375   4.179 -0.7947 -0.5723  0.3309
 3715SOL    HW212045   6.362   5.345   4.019  0.9942 -0.5293  0.1877
 3716SOL     OW12046   5.870   5.756   4.293  0.8228 -0.3559 -0.4287
 3716SOL    HW112047   5.929   5.834   4.272  0.0444  0.2655 -0.3773
 3716SOL    HW212048   5.811   5.738   4.215  0.0365  0.0015  0.0731
 3717SOL     OW12049   4.504   6.626   1.824 -0.3907 -0.1554  1.0683
 3717SOL    HW112050   4.442   6.704   1.835  1.3656  1.5618 -0.4600
 3717SOL    HW212051   4.507   6.599   1.728 -0.8279 -2.0616  1.5465
 3718SOL     OW12052   6.277   5.902   4.322  0.0268  0.3793  0.6756
 3718SOL    HW112053   6.258   5.906   4.224  0.5291  0.6544  0.5845
 3718SOL    HW212054   6.239   5.818   4.360  1.6832 -0.8357 -0.1817
 3719SOL     OW12055   0.340   5.696   6.082 -0.6004 -0.0672  0.1897
 3719SOL    HW112056   0.395   5.614   6.065  0.4076  0.0230  2.5180
 3719SOL    HW212057   0.385   5.751   6.153 -2.8882  0.8398  1.0235
 3720SOL     OW12058   1.910   0.870   0.594 -0.2400  0.7598  0.3038
 3720SOL    HW112059   1.848   0.838   0.665 -1.9101  0.8251 -1.0443
 3720SOL    HW212060   1.962   0.792   0.558 -1.1550  0.2718 -0.0189
 3721SOL     OW12061   5.778   0.078   5.072 -0.3844 -0.3224 -0.5239
 3721SOL    HW112062   5.700   0.061   5.131 -0.4208  1.8649  0.1582
 3721SOL    HW212063   5.774   0.018   4.992 -2.2616 -0.8526 -0.0685
 3722SOL     OW12064   5.230   6.165   3.017  0.0932  0.1836  0.4946
 3722SOL    HW112065   5.329   6.168   3.025  0.1784 -2.1142  1.0522
 3722SOL    HW212066   5.197   6.075   3.044 -2.0046  0.2914 -1.3746
 3723SOL     OW12067   5.578   6.138   6.157  0.2370 -0.6804  0.2568
 3723SOL    HW112068   5.495   6.084   6.138 -0.3631  0.0974  0.6022
 3723SOL    HW212069   5.596   6.200   6.081 -1.2446  1.2848  1.4076
 3724SOL     OW12070   6.942   4.129   4.296  0.3992  0.2443 -0.2339
 3724SOL    HW112071   7.025   4.182   4.317 -0.7997  1.6300  1.3421
 3724SOL    HW212072   6.925   4.065   4.371 -0.8444  1.1802  0.3109
 3725SOL     OW12073   6.866   6.776   5.905  0.1778 -0.3172  0.1100
 3725SOL    HW112074   6.879   6.711   5.830 -2.3542  1.5020 -2.1024
 3725SOL    HW212075   6.915   6.861   5.883 -0.6314  0.2490  0.4479
 3726SOL     OW12076   6.595   3.933   5.466  0.1218  0.4612 -0.0253
 3726SOL    HW112077   6.546   3.959   5.549 -2.5017 -0.4273 -1.1924
 3726SOL    HW212078   6.659   3.859   5.487  0.9483  1.5712  1.5296
 3727SOL     OW12079   1.810   1.778   2.129 -0.1919 -0.0784 -0.6002
 3727SOL    HW112080   1.893   1.830   2.108 -2.2983  3.0114 -2.0933
 3727SOL    HW212081   1.769   1.813   2.213 -0.6585 -0.6755 -0.5723
 3728SOL     OW12082   1.277   4.716   6.003  0.4592  0.2525 -0.5682
 3728SOL    HW112083   1.318   4.625   6.008  0.4557  0.2861  0.0823
 3728SOL    HW212084   1.334   4.781   6.054  0.6693  0.6950 -1.3482
 3729SOL     OW12085   6.100   0.483   5.771 -0.1982 -0.2034  0.1751
 3729SOL    HW112086   6.024   0.538   5.805 -1.2724 -1.1774 -0.5527
 3729SOL    HW212087   6.097   0.480   5.671 -0.1700 -1.5547  0.1919
 3730SOL     OW12088   4.878   4.043   4.022 -0.1167 -0.2910  0.6738
 3730SOL    HW112089   4.832   3.965   4.064 -0.1428 -0.5999  0.0773
 3730SOL    HW212090   4.977   4.027   4.020 -0.2444 -1.0223 -0.8756
 3731SOL     OW12091   4.672   2.381   1.704 -0.0723  0.1730  0.3279
 3731SOL    HW112092   4.688   2.287   1.676 -0.3400  0.3289 -0.3868
 3731SOL    HW212093   4.578   2.407   1.679  0.0524  0.6775  0.3754
 3732SOL     OW12094   4.781   3.108   5.641  0.4655  0.6744 -0.0934
 3732SOL    HW112095   4.876   3.106   5.673  0.0053  0.3598  1.3768
 3732SOL    HW212096   4.720   3.108   5.721 -0.7687  0.6180 -1.0134
 3733SOL     OW12097   0.123   2.187   4.653 -0.7730  0.1770  0.2918
 3733SOL    HW112098   0.147   2.252   4.581  1.8296  0.9021  1.7038
 3733SOL    HW212099   0.039   2.217   4.698 -0.3896  1.7971 -0.0072
 3734SOL     OW12100   4.376   0.669   1.664 -0.3840 -0.5376  0.1573
 3734SOL    HW112101   4.312   0.731   1.618  0.3905  1.0599  1.1477
 3734SOL    HW212102   4.410   0.602   1.597  0.6972  1.6914 -1.6884
 3735SOL     OW12103   3.851   2.531   1.098 -0.7260 -0.4715 -0.2563
 3735SOL    HW112104   3.910   2.595   1.147 -0.2684 -0.5873 -0.6465
 3735SOL    HW212105   3.908   2.463   1.052 -1.2285 -1.7474  0.9444
 3736SOL     OW12106   0.335   0.660   0.449  0.0693 -0.0012  0.1008
 3736SOL    HW112107   0.268   0.697   0.385 -1.5065 -2.2412  0.3053
 3736SOL    HW212108   0.288   0.609   0.521  1.9685 -0.8066  0.8547
 3737SOL     OW12109   6.409   1.314   5.108 -0.0064  0.0308 -0.1197
 3737SOL    HW112110   6.347   1.239   5.084 -0.2312  0.0977  0.2429
 3737SOL    HW212111   6.497   1.276   5.136  0.3133 -0.0413 -1.1845
 3738SOL     OW12112   0.059   6.948   0.459 -0.1780  0.0647 -0.0634
 3738SOL    HW112113   0.015   7.001   0.387 -0.0014 -1.1946 -1.1328
 3738SOL    HW212114   0.000   6.871   0.484 -0.0228  0.2218  0.8043
 3739SOL     OW12115   2.415   5.028   6.704 -0.3893 -0.1481  0.3866
 3739SOL    HW112116   2.480   4.956   6.680 -1.2609 -0.0184 -2.8419
 3739SOL    HW212117   2.465   5.109   6.735  0.6838 -1.4741  2.2933
 3740SOL     OW12118   6.374   6.668   0.435 -0.1195  0.2901  0.4817
 3740SOL    HW112119   6.306   6.706   0.372  1.1464 -1.2496 -1.9948
 3740SOL    HW212120   6.337   6.587   0.479  0.0213 -0.5060 -0.8088
 3741SOL     OW12121   5.725   5.821   0.112 -0.0428 -0.3889  0.2715
 3741SOL    HW112122   5.748   5.919   0.113  1.0691 -0.6075  2.7187
 3741SOL    HW212123   5.709   5.792   0.018  3.2752  1.3331 -1.0118
 3742SOL     OW12124   3.732   6.474   3.536  0.2618 -0.2990  0.2400
 3742SOL    HW112125   3.698   6.438   3.449 -0.6403 -0.5622  0.6945
 3742SOL    HW212126   3.744   6.398   3.600 -1.2583  0.1247  1.0712
 3743SOL     OW12127   0.136   3.903   2.175  0.1144  0.0781 -0.0203
 3743SOL    HW112128   0.075   3.963   2.227 -0.5015 -1.8411  1.6353
 3743SOL    HW212129   0.216   3.880   2.231  0.6177 -0.1837 -0.8365
 3744SOL     OW12130   1.451   6.324   3.641 -0.0550 -0.0033  0.0980
 3744SOL    HW112131   1.433   6.418   3.670 -1.0777 -0.8950  2.6295
 3744SOL    HW212132   1.535   6.291   3.684 -1.3502 -1.2109  1.8225
 3745SOL     OW12133   4.182   0.356   2.929 -0.1837 -0.0617  0.2631
 3745SOL    HW112134   4.186   0.451   2.961  1.0827 -0.1053  0.2495
 3745SOL    HW212135   4.269   0.331   2.887 -1.0969 -0.6705 -1.3635
 3746SOL     OW12136   4.859   0.731   5.146  0.3089 -0.2122 -0.0945
 3746SOL    HW112137   4.876   0.633   5.159 -1.0208 -0.4101  0.3505
 3746SOL    HW212138   4.945   0.781   5.153  1.0001 -1.3390 -0.2524
 3747SOL     OW12139   1.759   6.508   6.171  0.0006  0.4473  0.0149
 3747SOL    HW112140   1.672   6.464   6.147  0.1268 -0.3425  0.9503
 3747SOL    HW212141   1.824   6.495   6.096 -0.1273 -0.5252  0.0554
 3748SOL     OW12142   6.203   1.981   3.683  0.1663 -0.5621  0.8905
 3748SOL    HW112143   6.156   1.995   3.771  0.3202  1.8595  0.6327
 3748SOL    HW212144   6.296   2.016   3.689  0.1476 -0.2967 -0.2650
 3749SOL     OW12145   4.931   5.528   1.489 -0.0471 -0.1362 -0.2197
 3749SOL    HW112146   5.013   5.496   1.536  0.3388 -0.4359 -1.0866
 3749SOL    HW212147   4.852   5.518   1.549  0.2901 -1.4127  0.0255
 3750SOL     OW12148   5.574   4.085   0.851  0.2993 -0.0326 -0.4362
 3750SOL    HW112149   5.642   4.159   0.847  0.5737 -0.3280 -1.4125
 3750SOL    HW212150   5.602   4.010   0.791 -0.2552 -0.7047  0.1303
 3751SOL     OW12151   1.072   4.394   0.247  0.4652 -0.3351 -0.5414
 3751SOL    HW112152   1.089   4.298   0.270  2.7684  0.2539  0.5382
 3751SOL    HW212153   1.028   4.439   0.324 -2.0512 -0.7860 -1.6081
 3752SOL     OW12154   1.098   1.572   6.917  0.2146  0.3421  0.4431
 3752SOL    HW112155   1.112   1.667   6.889  0.1218  0.1874 -0.1523
 3752SOL    HW212156   1.026   1.567   6.986 -0.8584  0.5562 -0.6263
 3753SOL     OW12157   0.496   0.002   5.946  0.3420 -0.2094  0.0505
 3753SOL    HW112158   0.418  -0.007   6.007 -0.2262 -1.4679 -0.8331
 3753SOL    HW212159   0.491   0.090   5.899 -1.0908 -0.6790 -0.7197
 3754SOL     OW12160   6.593   3.507   3.353 -0.0596 -0.2971  0.4911
 3754SOL    HW112161   6.646   3.481   3.433  0.5756  1.3641  0.6474
 3754SOL    HW212162   6.619   3.449   3.275  1.4766  0.0082  0.7441
 3755SOL     OW12163   5.103   3.208   4.599 -0.0736 -0.0165 -0.3752
 3755SOL    HW112164   5.063   3.299   4.612 -1.7757 -0.0115 -4.2397
 3755SOL    HW212165   5.029   3.140   4.596  1.0587 -1.3747  0.9452
 3756SOL     OW12166   5.206   0.323   0.239  0.3153  0.2773 -0.1561
 3756SOL    HW112167   5.155   0.395   0.288 -0.9457  1.1004 -2.5334
 3756SOL    HW212168   5.159   0.236   0.252  0.4370  0.3243  0.7011
 3757SOL     OW12169   2.544   4.337   5.768 -0.1302 -0.1712 -0.3710
 3757SOL    HW112170   2.537   4.374   5.676  0.8635 -1.5519 -1.0388
 3757SOL    HW212171   2.496   4.249   5.772 -1.3566  0.5099  0.8257
 3758SOL     OW12172   6.830   0.712   2.828  0.5476  0.0726 -0.7352
 3758SOL    HW112173   6.874   0.638   2.880 -0.1973 -0.5604 -0.9793
 3758SOL    HW212174   6.781   0.673   2.750 -1.8034  0.5107  0.4023
 3759SOL     OW12175   4.707   5.023   0.372  0.0465 -0.1134  0.0961
 3759SOL    HW112176   4.704   4.962   0.452  2.2132 -0.7869 -0.2670
 3759SOL    HW212177   4.667   4.976   0.293 -0.1732 -0.2715  0.3003
 3760SOL     OW12178   2.804   2.057   6.799 -0.1395  0.2764  0.4680
 3760SOL    HW112179   2.883   2.021   6.750 -0.6890  0.2730 -0.4389
 3760SOL    HW212180   2.728   2.069   6.735 -0.3084  2.0318  0.9551
 3761SOL     OW12181   1.281   6.481   5.562  0.7039  0.1339 -0.0536
 3761SOL    HW112182   1.198   6.530   5.533  0.7491  0.6537  0.6605
 3761SOL    HW212183   1.297   6.404   5.500 -1.6729 -1.4644  1.1627
 3762SOL     OW12184   6.776   3.678   2.312 -0.3692  0.2924 -0.7121
 3762SOL    HW112185   6.855   3.626   2.281  0.2372  1.1803 -0.6953
 3762SOL    HW212186   6.806   3.766   2.349 -1.2350  0.0564  0.6491
 3763SOL     OW12187   6.391   1.892   4.216 -0.0216  0.0426 -0.5295
 3763SOL    HW112188   6.483   1.854   4.225 -0.3772 -0.3564  2.2010
 3763SOL    HW212189   6.346   1.852   4.136  0.8226 -2.7616  0.2927
 3764SOL     OW12190   6.774   0.645   1.835 -0.2760  0.1325 -0.2810
 3764SOL    HW112191   6.824   0.724   1.871 -1.3339  1.3722 -1.4290
 3764SOL    HW212192   6.721   0.602   1.909  1.0010 -0.0820  0.5405
 3765SOL     OW12193   6.192   6.644   3.787  0.4047  0.4440 -0.1227
 3765SOL    HW112194   6.171   6.610   3.695  0.5927 -2.5806  0.8509
 3765SOL    HW212195   6.275   6.600   3.820  0.5856  1.8231  1.3531
 3766SOL     OW12196   1.567   1.954   5.727 -0.1425  0.6223  0.3692
 3766SOL    HW112197   1.530   2.022   5.790 -0.6953 -0.2280  0.9767
 3766SOL    HW212198   1.565   1.864   5.770  0.1962  0.1500 -0.5786
 3767SOL     OW12199   6.047   4.326   1.741  0.3130 -0.5144 -0.3549
 3767SOL    HW112200   6.019   4.393   1.671  0.5172  0.5038  0.5139
 3767SOL    HW212201   6.037   4.367   1.832 -0.5483 -2.0441  0.2600
 3768SOL     OW12202   5.769   5.841   2.728  0.0085  0.9469  0.9557
 3768SOL    HW112203   5.677   5.872   2.749  0.3645  2.1895  0.7793
 3768SOL    HW212204   5.807   5.897   2.654  0.2284 -0.7531 -0.2891
 3769SOL     OW12205   4.592   6.245   3.021 -0.6331 -0.3595 -0.1551
 3769SOL    HW112206   4.565   6.179   2.950 -0.2932 -0.9794  0.2814
 3769SOL    HW212207   4.509   6.284   3.062 -0.8772  2.1126 -2.7596
 3770SOL     OW12208   1.828   2.795   1.346 -0.3750  0.5859 -0.6245
 3770SOL    HW112209   1.736   2.756   1.350 -0.5018  0.8248 -1.1359
 3770SOL    HW212210   1.894   2.728   1.381 -0.5654 -0.1717 -1.6687
 3771SOL     OW12211   6.394   3.495   6.302  0.1798 -0.4756 -0.6123
 3771SOL    HW112212   6.371   3.487   6.399  4.1301  0.0950  0.5641
 3771SOL    HW212213   6.383   3.590   6.273  0.5050 -0.3232 -0.2463
 3772SOL     OW12214   0.407   2.412   4.255  0.1309  0.6916 -0.0533
 3772SOL    HW112215   0.473   2.474   4.296  0.5433  0.8870 -0.9972
 3772SOL    HW212216   0.361   2.458   4.179  1.2886 -0.5295 -1.5336
 3773SOL     OW12217   6.727   1.326   0.869 -1.0874  0.2612 -0.0345
 3773SOL    HW112218   6.766   1.410   0.905 -0.6956 -0.3860  1.0935
 3773SOL    HW212219   6.635   1.343   0.836 -0.9207  1.1816 -0.0536
 3774SOL     OW12220   1.521   6.586   1.761  0.5663 -0.3866 -0.4638
 3774SOL    HW112221   1.502   6.677   1.796  0.2434 -0.4188 -0.5563
 3774SOL    HW212222   1.491   6.517   1.827 -0.7682 -0.4705 -1.1217
 3775SOL     OW12223   4.485   1.288   2.877  0.8312  0.0567 -0.6739
 3775SOL    HW112224   4.435   1.280   2.963 -0.3903 -1.7892 -1.4902
 3775SOL    HW212225   4.443   1.358   2.820  1.7254  1.3840  0.2169
 3776SOL     OW12226   3.375   2.463   0.873 -0.0235 -0.7089 -0.2746
 3776SOL    HW112227   3.341   2.492   0.963 -1.1787  0.1874 -0.9795
 3776SOL    HW212228   3.299   2.457   0.809  0.7770 -1.4519 -1.1851
 3777SOL     OW12229   1.083   3.553   2.331  0.0814 -0.1252 -0.4326
 3777SOL    HW112230   1.024   3.628   2.361 -1.8786 -1.9618  0.5531
 3777SOL    HW212231   1.073   3.475   2.393  3.3258 -0.7029 -0.4274
 3778SOL     OW12232   2.220   6.259   1.428  0.1199 -0.2708 -0.2024
 3778SOL    HW112233   2.167   6.248   1.344 -0.3954 -0.0935  0.0957
 3778SOL    HW212234   2.240   6.356   1.442  0.6504 -0.3515 -0.3903
 3779SOL     OW12235   1.633   5.912   0.680 -0.2312  0.1228 -0.2786
 3779SOL    HW112236   1.538   5.926   0.651 -0.6812 -1.3507  0.4208
 3779SOL    HW212237   1.683   5.866   0.607 -0.0808  0.7574 -0.5847
 3780SOL     OW12238   2.301   0.781   4.120  0.1768 -0.6332 -0.1243
 3780SOL    HW112239   2.354   0.837   4.057 -0.0072 -1.8697 -1.4235
 3780SOL    HW212240   2.211   0.761   4.080 -0.7535  0.2252  1.4215
 3781SOL     OW12241   2.832   6.622   4.973 -0.2184 -0.1086  0.2855
 3781SOL    HW112242   2.886   6.640   5.055  0.3739 -1.7135  0.2952
 3781SOL    HW212243   2.848   6.528   4.943 -0.3669  0.4609 -1.7243
 3782SOL     OW12244   3.721   1.231   3.124 -0.2653  0.3088  0.0895
 3782SOL    HW112245   3.624   1.222   3.146 -0.1473 -1.9481 -0.1417
 3782SOL    HW212246   3.732   1.239   3.025 -0.2243  1.0800  0.1488
 3783SOL     OW12247   6.468   5.077   5.373 -0.1887  0.5607 -0.5429
 3783SOL    HW112248   6.515   5.006   5.425  1.0532  1.0010 -1.0323
 3783SOL    HW212249   6.513   5.090   5.285 -1.3085  0.9242 -1.0842
 3784SOL     OW12250   5.946   3.283   3.440  0.7194 -0.8794 -0.1614
 3784SOL    HW112251   5.909   3.289   3.533 -1.6911  2.2753 -1.1520
 3784SOL    HW212252   6.007   3.360   3.423 -1.1664  0.3373 -1.9782
 3785SOL     OW12253   7.017   5.797   4.225  0.0984 -0.4986 -0.0852
 3785SOL    HW112254   6.976   5.740   4.297  0.5307 -1.7032 -0.7532
 3785SOL    HW212255   7.104   5.834   4.258  0.8622 -1.9696 -0.3153
 3786SOL     OW12256   4.230   6.306   0.755 -0.1821  0.1707  0.2562
 3786SOL    HW112257   4.262   6.293   0.661 -0.0397  0.3176  0.2833
 3786SOL    HW212258   4.179   6.225   0.784  0.5429 -0.2633  0.3637
 3787SOL     OW12259   6.172   0.963   3.552  0.0345  0.2071 -0.0333
 3787SOL    HW112260   6.108   0.944   3.626 -0.5348  0.7817 -0.3649
 3787SOL    HW212261   6.166   0.891   3.483  0.6699 -0.4054  0.5366
 3788SOL     OW12262   6.799   4.222   2.150 -0.4201 -0.3570  0.2647
 3788SOL    HW112263   6.876   4.176   2.106  0.3388  0.8117  0.3311
 3788SOL    HW212264   6.758   4.288   2.087 -0.0159  0.5365  0.9078
 3789SOL     OW12265   1.955   6.543   2.534 -0.4985  1.2773  0.2907
 3789SOL    HW112266   2.022   6.542   2.608 -1.1123 -0.7079  0.8890
 3789SOL    HW212267   1.982   6.611   2.465  0.8515  2.1528  1.6242
 3790SOL     OW12268   2.044   2.302   2.979  0.1422 -0.4829  0.2518
 3790SOL    HW112269   2.079   2.218   2.937  1.4975 -0.3616  1.0833
 3790SOL    HW212270   2.035   2.373   2.909 -2.5740 -1.7245 -0.7941
 3791SOL     OW12271   6.742   0.148   3.277  0.2863  0.0984 -0.0943
 3791SOL    HW112272   6.829   0.119   3.236  0.7044  0.9618  0.1373
 3791SOL    HW212273   6.690   0.068   3.306  0.4822 -0.4748 -1.2872
 3792SOL     OW12274   3.713   6.081   5.444 -0.1832  0.2849 -0.2816
 3792SOL    HW112275   3.633   6.052   5.497  0.1359  2.4512  1.5445
 3792SOL    HW212276   3.736   6.175   5.467  2.2082  0.1217 -1.6284
 3793SOL     OW12277   5.805   3.606   1.815  0.1447  0.0594 -0.2567
 3793SOL    HW112278   5.790   3.548   1.894  1.9489  2.7745  2.3081
 3793SOL    HW212279   5.754   3.691   1.825  1.1162  0.8527 -1.5515
 3794SOL     OW12280   5.403   0.260   2.839 -0.4246  0.2796 -0.2662
 3794SOL    HW112281   5.408   0.240   2.937 -1.5657 -0.0822 -0.2728
 3794SOL    HW212282   5.354   0.346   2.825  1.9297  1.6840 -0.4057
 3795SOL     OW12283   5.459   6.867   3.815  0.1136  1.0572 -0.2356
 3795SOL    HW112284   5.555   6.870   3.842  0.0279 -1.3757  0.5445
 3795SOL    HW212285   5.453   6.860   3.715  0.7089  1.6668 -0.3221
 3796SOL     OW12286   5.443   0.735   2.445 -0.6680 -0.3124  0.3161
 3796SOL    HW112287   5.463   0.778   2.533 -0.3449  0.9066 -0.3353
 3796SOL    HW212288   5.467   0.798   2.371 -1.0617 -1.2693 -0.6433
 3797SOL     OW12289   6.082   5.632   1.129  0.0560  0.3147 -0.0854
 3797SOL    HW112290   6.012   5.563   1.146  1.3252 -1.1075 -0.4299
 3797SOL    HW212291   6.135   5.648   1.212  0.0889  0.5230 -0.1443
 3798SOL     OW12292   0.500   4.193   0.524 -0.1428 -0.1480 -0.7639
 3798SOL    HW112293   0.430   4.230   0.464 -0.5262  1.5495  0.6482
 3798SOL    HW212294   0.474   4.209   0.619  2.5524  1.5024 -0.1803
 3799SOL     OW12295   1.614   1.030   5.685 -0.3118  1.0677  0.0828
 3799SOL    HW112296   1.710   1.034   5.710 -0.1657  0.5575 -0.3882
 3799SOL    HW212297   1.584   1.120   5.654 -0.4840  1.7207  1.9907
 3800SOL     OW12298   2.522   2.006   3.963  0.6223 -0.0963  0.0861
 3800SOL    HW112299   2.460   1.964   4.029  1.1241  0.8595  1.2105
 3800SOL    HW212300   2.610   2.025   4.007  0.4101  2.1248 -0.3183
 3801SOL     OW12301   0.208   0.809   6.206  0.1805 -0.5064  0.0207
 3801SOL    HW112302   0.273   0.859   6.150  0.2242 -1.4928 -0.8485
 3801SOL    HW212303   0.127   0.787   6.152 -0.9345  0.7658  1.1095
 3802SOL     OW12304   1.504   2.796   2.996 -0.3270  0.4069 -0.2248
 3802SOL    HW112305   1.583   2.809   2.937 -0.1259  1.3367  0.2339
 3802SOL    HW212306   1.528   2.819   3.091 -1.1808  0.8668 -0.1080
 3803SOL     OW12307   5.218   6.925   3.174 -0.3111 -0.1087  0.7487
 3803SOL    HW112308   5.197   6.941   3.271 -0.2866  1.5562  0.5039
 3803SOL    HW212309   5.231   7.013   3.128 -0.1739 -0.8858 -0.7419
 3804SOL     OW12310   6.211   3.206   3.885  0.2570  0.7730 -0.0913
 3804SOL    HW112311   6.276   3.282   3.877 -0.9519  1.8547 -0.0927
 3804SOL    HW212312   6.118   3.241   3.869 -0.5071 -0.3730  1.6210
 3805SOL     OW12313   2.608   4.196   1.522 -0.1283  0.0150  0.1043
 3805SOL    HW112314   2.684   4.135   1.543 -1.8826 -2.0079  0.9096
 3805SOL    HW212315   2.558   4.217   1.606 -0.5956  1.1544 -0.4384
 3806SOL     OW12316   3.900   6.949   0.583 -0.9903  0.4161  0.3471
 3806SOL    HW112317   3.891   6.995   0.494 -1.1677 -0.1328  0.0756
 3806SOL    HW212318   3.990   6.905   0.589 -1.2601 -0.1772  0.1296
 3807SOL     OW12319   1.195   0.425   1.904  0.4775  0.1113 -0.2124
 3807SOL    HW112320   1.192   0.341   1.849 -0.1575 -1.5015  2.1410
 3807SOL    HW212321   1.290   0.448   1.924  0.6865 -2.7084  2.7878
 3808SOL     OW12322   4.090   0.676   0.281  0.2762  0.0174 -0.5722
 3808SOL    HW112323   4.178   0.695   0.238 -0.0274  0.7277 -0.8992
 3808SOL    HW212324   4.095   0.590   0.331  1.1267  0.0112 -0.6583
 3809SOL     OW12325   4.011   1.367   0.173 -0.4820  0.5189  0.1860
 3809SOL    HW112326   4.019   1.421   0.090 -0.2628 -1.0239 -0.8357
 3809SOL    HW212327   3.979   1.275   0.150 -0.6782  0.1432  1.8424
 3810SOL     OW12328   4.046   3.052   6.129  0.3760  0.7741  0.1522
 3810SOL    HW112329   3.972   3.119   6.119  0.3745  1.0881  1.9466
 3810SOL    HW212330   4.075   3.021   6.039 -0.9202  1.7684 -0.6446
 3811SOL     OW12331   6.333   0.986   6.164  0.4198  0.3060 -0.6572
 3811SOL    HW112332   6.333   0.888   6.181 -1.1011  0.2462 -0.8228
 3811SOL    HW212333   6.248   1.012   6.119 -0.4041  2.0811  1.6792
 3812SOL     OW12334   4.086   0.836   5.334 -0.0854  0.1227  0.3191
 3812SOL    HW112335   4.121   0.754   5.380  0.1658 -0.0613 -0.1906
 3812SOL    HW212336   4.096   0.915   5.395  0.8682  0.0051  0.3325
 3813SOL     OW12337   3.997   4.800   2.520  0.7376  0.9489 -0.0486
 3813SOL    HW112338   4.081   4.836   2.560  1.6978 -1.4308  0.2431
 3813SOL    HW212339   3.999   4.700   2.521 -2.5945  0.7429  1.0061
 3814SOL     OW12340   1.885   5.737   0.938  0.2181  0.4068  0.3070
 3814SOL    HW112341   1.797   5.694   0.957  0.2175  0.1158 -0.3225
 3814SOL    HW212342   1.916   5.787   1.019 -0.1826 -0.0816  0.7728
 3815SOL     OW12343   5.518   1.720   2.868 -0.3896 -0.0350 -0.2059
 3815SOL    HW112344   5.594   1.664   2.899 -0.0385  0.7611  0.4191
 3815SOL    HW212345   5.526   1.735   2.769  0.0744 -0.2503 -0.2046
 3816SOL     OW12346   6.862   5.397   1.906 -0.5039  0.5969 -0.4985
 3816SOL    HW112347   6.945   5.342   1.915 -1.6569 -1.3369 -1.1348
 3816SOL    HW212348   6.814   5.401   1.994 -0.9379 -0.3511 -0.6717
 3817SOL     OW12349   4.869   1.040   5.674 -0.5990 -0.3941  0.5458
 3817SOL    HW112350   4.909   0.964   5.622  1.4643 -0.7214  2.4383
 3817SOL    HW212351   4.891   1.028   5.771 -1.0435  2.1392  1.0144
 3818SOL     OW12352   3.555   6.386   3.324 -0.3486 -0.2080  0.0404
 3818SOL    HW112353   3.511   6.324   3.260  0.6877 -0.5386 -0.3648
 3818SOL    HW212354   3.592   6.465   3.275  0.7421 -0.6254  0.1620
 3819SOL     OW12355   6.665   5.043   6.397 -0.9154 -0.5689 -0.0406
 3819SOL    HW112356   6.612   4.964   6.367  0.0534 -0.8283 -1.1099
 3819SOL    HW212357   6.750   5.049   6.345 -0.7428  0.9058  0.3505
 3820SOL     OW12358   5.685   0.148   3.229  0.0427  0.3303  0.5552
 3820SOL    HW112359   5.647   0.224   3.281  1.4084 -0.5003  2.9995
 3820SOL    HW212360   5.652   0.062   3.268  1.0372 -0.3291 -0.0003
 3821SOL     OW12361   6.155   5.027   0.563  0.3215  0.2821 -0.2918
 3821SOL    HW112362   6.097   5.059   0.638  1.6566  0.5121  0.6790
 3821SOL    HW212363   6.160   4.927   0.565  0.6707  0.3050  0.1851
 3822SOL     OW12364   2.070   3.086   2.306 -0.1025 -0.2423 -0.0557
 3822SOL    HW112365   1.980   3.044   2.297  0.0084 -0.0260 -2.9945
 3822SOL    HW212366   2.068   3.177   2.265  1.0576  0.4727  1.3829
 3823SOL     OW12367   2.899   4.554   6.285  0.1692 -0.4874  0.1069
 3823SOL    HW112368   2.908   4.599   6.196 -3.3604 -0.6507 -0.4478
 3823SOL    HW212369   2.882   4.456   6.271 -1.1538 -0.3887  0.9031
 3824SOL     OW12370   5.943   3.234   5.506  0.1688  0.4680 -0.0726
 3824SOL    HW112371   5.906   3.256   5.596  1.9158  0.9673  0.5444
 3824SOL    HW212372   5.915   3.141   5.481  1.0037 -0.3062  1.7104
 3825SOL     OW12373   0.361   6.746   5.534 -0.2948  0.1467 -0.5305
 3825SOL    HW112374   0.265   6.727   5.511 -1.4283  0.8117  3.0848
 3825SOL    HW212375   0.368   6.833   5.581  1.4579 -1.4050  2.3991
 3826SOL     OW12376   4.453   0.313   2.835  0.1434  0.1119  0.3770
 3826SOL    HW112377   4.505   0.395   2.811 -0.8446  0.6788  0.1516
 3826SOL    HW212378   4.440   0.257   2.753 -0.5536  0.5161  0.2104
 3827SOL     OW12379   5.523   0.835   2.172 -0.3175 -0.3216 -0.1005
 3827SOL    HW112380   5.541   0.869   2.079 -0.8862 -0.2639 -0.1921
 3827SOL    HW212381   5.480   0.745   2.167 -2.0256  0.4444  0.0408
 3828SOL     OW12382   4.632   1.609   0.968 -0.1173  0.2643  0.0607
 3828SOL    HW112383   4.562   1.576   1.031  0.3805 -0.9975 -0.0237
 3828SOL    HW212384   4.651   1.539   0.899  2.1032  0.0551  0.8026
 3829SOL     OW12385   1.731   5.122   3.707  0.1575  0.9781 -0.0360
 3829SOL    HW112386   1.769   5.030   3.697 -0.7925  0.3473  1.7337
 3829SOL    HW212387   1.632   5.118   3.700  0.1571  2.0101 -0.7897
 3830SOL     OW12388   2.387   6.867   6.063 -0.2723 -1.1522  0.0197
 3830SOL    HW112389   2.306   6.890   6.010 -1.7208  0.8940  2.8394
 3830SOL    HW212390   2.366   6.795   6.129 -0.3205  0.3527  1.7297
 3831SOL     OW12391   3.103   0.772   2.630 -1.0173 -0.5941  0.1602
 3831SOL    HW112392   3.013   0.733   2.609 -0.5488 -2.8676  1.9826
 3831SOL    HW212393   3.172   0.731   2.571 -0.8662 -0.4806  0.2570
 3832SOL     OW12394   0.886   6.216   1.541 -0.0376  0.2780  0.2268
 3832SOL    HW112395   0.984   6.197   1.538 -0.5741 -3.0370  0.6741
 3832SOL    HW212396   0.840   6.147   1.595 -2.8827  0.6799 -1.4833
 3833SOL     OW12397   1.721   0.035   3.911  0.1292 -0.5108  0.2822
 3833SOL    HW112398   1.635   0.086   3.916 -0.9214 -2.0317 -1.2897
 3833SOL    HW212399   1.790   0.082   3.967 -1.1326  1.8390  0.0265
 3834SOL     OW12400   3.234   2.831   0.845 -0.1026 -0.3734  0.1955
 3834SOL    HW112401   3.217   2.866   0.753  1.1240 -1.1631 -0.3525
 3834SOL    HW212402   3.327   2.853   0.873 -0.6028  0.2618  1.4575
 3835SOL     OW12403   3.345   5.234   3.486 -0.2724  0.4648  0.0032
 3835SOL    HW112404   3.388   5.309   3.435  0.0374 -0.0131 -0.4367
 3835SOL    HW212405   3.399   5.151   3.476 -0.5699  0.2007  0.5659
 3836SOL     OW12406   1.056   3.062   0.280 -0.1373  0.6314  0.1659
 3836SOL    HW112407   0.975   3.120   0.264  0.7267  1.2920 -2.2227
 3836SOL    HW212408   1.120   3.074   0.205  1.0505 -1.8707  0.6999
 3837SOL     OW12409   2.873   5.019   6.805  0.4045 -0.2425  0.2223
 3837SOL    HW112410   2.848   5.090   6.739  0.8790 -1.6865 -1.5957
 3837SOL    HW212411   2.798   4.953   6.813  0.6309 -0.4584  0.6226
 3838SOL     OW12412   6.951   1.910   5.149  0.4243 -0.1221 -0.1824
 3838SOL    HW112413   6.895   1.836   5.114 -0.2306 -0.0046  0.5942
 3838SOL    HW212414   7.048   1.890   5.131  0.4574 -2.2052  1.8687
 3839SOL     OW12415   0.617   1.095   5.620 -0.2129  0.3840 -0.0231
 3839SOL    HW112416   0.665   1.072   5.535  0.0499  0.4339  0.1113
 3839SOL    HW212417   0.650   1.035   5.693 -3.2501 -2.5213 -0.7621
 3840SOL     OW12418   1.631   1.126   2.395  0.5913 -0.1433 -0.0550
 3840SOL    HW112419   1.542   1.162   2.421 -0.0195 -1.7930  0.3050
 3840SOL    HW212420   1.650   1.150   2.300 -0.8342 -0.8267 -0.5463
 3841SOL     OW12421   1.528   3.719   3.319  0.3692 -0.2010 -0.3841
 3841SOL    HW112422   1.522   3.662   3.237  0.2336  0.1597 -0.6277
 3841SOL    HW212423   1.621   3.717   3.355  0.4274 -0.3648 -0.5427
 3842SOL     OW12424   0.547   3.245   1.805  0.2048 -0.6062  0.2310
 3842SOL    HW112425   0.552   3.163   1.748 -2.0144 -1.3542  1.0136
 3842SOL    HW212426   0.614   3.312   1.772  3.4558 -3.3354  0.7365
 3843SOL     OW12427   6.663   6.738   6.231 -0.1289  0.0519  0.0803
 3843SOL    HW112428   6.585   6.772   6.283  1.3658  1.6174  1.4285
 3843SOL    HW212429   6.746   6.748   6.285  1.2146 -0.3414 -1.7989
 3844SOL     OW12430   2.746   5.057   6.440  0.2083 -0.1101 -0.1798
 3844SOL    HW112431   2.726   5.118   6.363 -1.6126 -0.8221 -0.3207
 3844SOL    HW212432   2.835   5.014   6.426  0.0930  0.0857 -1.6837
 3845SOL     OW12433   3.590   3.275   4.836  0.2009  0.3568 -0.0319
 3845SOL    HW112434   3.511   3.248   4.781 -2.2100  2.7735  1.9235
 3845SOL    HW212435   3.648   3.337   4.783 -1.3495  1.5973 -0.3663
 3846SOL     OW12436   6.283   5.516   5.599  0.6041  0.1389 -0.6357
 3846SOL    HW112437   6.247   5.423   5.590 -1.0454  0.5429  1.1884
 3846SOL    HW212438   6.383   5.513   5.603  0.5552 -1.6183  0.0184
 3847SOL     OW12439   6.940   0.440   1.459 -0.1750  0.4181 -0.2896
 3847SOL    HW112440   6.866   0.466   1.521 -0.8957 -0.1242 -0.8982
 3847SOL    HW212441   6.932   0.491   1.374 -0.0457  0.1318 -0.4754
 3848SOL     OW12442   2.645   5.893   0.980 -0.1785 -0.3421  0.3354
 3848SOL    HW112443   2.603   5.883   1.070  0.7551  0.2167  0.8537
 3848SOL    HW212444   2.702   5.976   0.979 -0.0341 -0.4436 -0.7079
 3849SOL     OW12445   2.818   6.114   6.090 -0.2524 -0.1466 -0.0808
 3849SOL    HW112446   2.761   6.032   6.098  0.2792 -0.4719  0.4771
 3849SOL    HW212447   2.899   6.104   6.149  0.6130  0.1145 -1.2026
 3850SOL     OW12448   0.875   4.329   0.071 -0.0231 -0.3441 -0.1151
 3850SOL    HW112449   0.956   4.372   0.109  0.3696  0.1921 -1.4898
 3850SOL    HW212450   0.802   4.328   0.139  1.1454 -0.9016  1.1596
 3851SOL     OW12451   1.812   2.357   0.573 -0.2565 -0.6130 -0.1961
 3851SOL    HW112452   1.810   2.284   0.641  0.1788 -0.9120 -0.5005
 3851SOL    HW212453   1.723   2.402   0.569 -0.5138 -1.1032  0.0172
 3852SOL     OW12454   5.866   1.709   5.404  0.2070 -0.1392 -0.8461
 3852SOL    HW112455   5.832   1.770   5.475  0.7031 -0.3089 -0.4544
 3852SOL    HW212456   5.945   1.659   5.438  0.8613  0.2528 -1.7396
 3853SOL     OW12457   6.325   1.666   3.384  0.5547  0.0641  0.2382
 3853SOL    HW112458   6.388   1.718   3.441  0.9143 -0.4125  0.2825
 3853SOL    HW212459   6.305   1.579   3.429 -0.7590  0.5340  0.6106
 3854SOL     OW12460   1.030   3.420   4.221 -0.2526  0.0204 -0.1393
 3854SOL    HW112461   1.108   3.403   4.281 -0.1409  1.4652  0.1778
 3854SOL    HW212462   1.025   3.349   4.151  0.6573 -0.7227  0.5251
 3855SOL     OW12463   0.074   2.569   5.938 -0.1845 -0.2777  0.1485
 3855SOL    HW112464   0.155   2.589   5.993 -1.4227  3.0561  0.9835
 3855SOL    HW212465   0.090   2.486   5.885  3.3596 -0.3251  1.0272
 3856SOL     OW12466   6.914   6.480   6.325 -0.3388  0.6119 -0.1636
 3856SOL    HW112467   6.971   6.414   6.374  0.2757  1.5594  0.4355
 3856SOL    HW212468   6.818   6.456   6.336 -0.0919 -0.9937 -1.1516
 3857SOL     OW12469   4.095   0.609   6.995  0.1643  0.1514 -0.1531
 3857SOL    HW112470   4.184   0.653   7.008  0.2931 -0.2019  0.1874
 3857SOL    HW212471   4.046   0.608   7.082 -1.1303  2.3645 -0.7900
 3858SOL     OW12472   3.720   4.304   0.204  0.9704  0.0042 -0.5038
 3858SOL    HW112473   3.794   4.322   0.139  0.1599 -0.9238 -1.7458
 3858SOL    HW212474   3.719   4.207   0.228  1.4658  0.3988  1.1971
 3859SOL     OW12475   6.005   1.266   2.656  0.3073 -0.2693  0.0185
 3859SOL    HW112476   5.913   1.260   2.617  0.5049 -1.2706 -0.3165
 3859SOL    HW212477   6.023   1.186   2.713  0.0605  1.1249  2.1659
 3860SOL     OW12478   1.736   5.162   4.362  0.2962  0.4971  0.6258
 3860SOL    HW112479   1.807   5.228   4.388  1.2650 -0.6136  0.8428
 3860SOL    HW212480   1.764   5.070   4.387 -1.0825 -0.0162  0.3952
 3861SOL     OW12481   1.379   4.782   0.056  0.1138  0.1649  0.1077
 3861SOL    HW112482   1.427   4.707   0.100 -1.2140 -0.1395  1.1034
 3861SOL    HW212483   1.402   4.868   0.102  1.2555  0.3306 -0.7247
 3862SOL     OW12484   2.307   5.791   5.585 -0.0188 -0.1385  0.1049
 3862SOL    HW112485   2.371   5.861   5.554  1.3138 -1.3180  0.0715
 3862SOL    HW212486   2.272   5.740   5.507  0.0101 -0.3359  0.2197
 3863SOL     OW12487   1.680   2.207   5.585 -0.1540 -0.1206  0.5357
 3863SOL    HW112488   1.644   2.115   5.604  0.5960 -0.4871  0.2073
 3863SOL    HW212489   1.604   2.272   5.584 -0.8106 -0.8702 -0.0839
 3864SOL     OW12490   4.270   1.891   0.696  0.7628  0.3151  0.6329
 3864SOL    HW112491   4.305   1.873   0.788 -0.0027  0.1087  0.8846
 3864SOL    HW212492   4.225   1.980   0.693 -0.3144 -0.2098  0.7841
 3865SOL     OW12493   2.454   1.617   1.927 -0.0078  0.1146 -0.5641
 3865SOL    HW112494   2.484   1.712   1.918 -0.7767  0.4420  0.1570
 3865SOL    HW212495   2.392   1.595   1.851  0.8972 -0.1151 -1.2514
 3866SOL     OW12496   3.501   5.103   1.381 -0.0146 -0.0563  0.0817
 3866SOL    HW112497   3.486   5.005   1.372  0.6871 -0.0808 -1.1401
 3866SOL    HW212498   3.413   5.150   1.394 -0.2920 -0.8814  1.3114
 3867SOL     OW12499   0.795   5.279   4.093 -0.6997 -0.0163  0.3633
 3867SOL    HW112500   0.782   5.180   4.085  0.8768 -0.3173  1.1337
 3867SOL    HW212501   0.883   5.298   4.136 -1.1020  1.7338  0.5066
 3868SOL     OW12502   1.055   3.897   4.048 -0.3026 -0.0556 -0.2850
 3868SOL    HW112503   1.124   3.853   4.106 -0.7668 -1.3426 -0.6634
 3868SOL    HW212504   1.093   3.910   3.956  0.4026  1.9010  0.2526
 3869SOL     OW12505   2.626   6.999   3.757 -0.1721  0.7225  0.5871
 3869SOL    HW112506   2.535   7.006   3.717  0.0672  0.1147 -0.0936
 3869SOL    HW212507   2.670   7.090   3.756 -0.3588  0.8117 -0.0927
 3870SOL     OW12508   1.584   2.532   0.056  0.4567  0.0510 -0.1516
 3870SOL    HW112509   1.639   2.590  -0.004 -0.4334  0.2041 -0.8478
 3870SOL    HW212510   1.627   2.443   0.066  1.1039  0.3493 -0.2333
 3871SOL     OW12511   3.093   1.550   4.199 -0.9050 -0.3471  0.0110
 3871SOL    HW112512   3.130   1.525   4.110  0.1414 -0.4851  0.4599
 3871SOL    HW212513   3.095   1.650   4.209 -1.9527 -0.2665 -0.4923
 3872SOL     OW12514   3.598   3.202   0.283  0.6308 -0.1636 -0.2763
 3872SOL    HW112515   3.563   3.249   0.202 -0.5354  0.7377  0.7283
 3872SOL    HW212516   3.574   3.105   0.278 -2.4810  0.4449  0.5204
 3873SOL     OW12517   5.669   6.092   6.778  0.1179  0.5673 -0.3539
 3873SOL    HW112518   5.692   6.130   6.688 -0.5369  0.3834 -0.6037
 3873SOL    HW212519   5.583   6.043   6.772 -0.3993  1.3376  0.5939
 3874SOL     OW12520   5.101   1.153   6.261 -0.3114 -0.6404  0.1162
 3874SOL    HW112521   5.090   1.076   6.325 -0.1472  0.7073  1.8474
 3874SOL    HW212522   5.135   1.233   6.311 -1.7769  0.9753 -1.3231
 3875SOL     OW12523   3.295   3.182   0.524 -0.2247  0.2554 -0.2654
 3875SOL    HW112524   3.337   3.225   0.605 -1.9760  1.3995  0.0999
 3875SOL    HW212525   3.365   3.162   0.457  1.0618  0.9132  0.8311
 3876SOL     OW12526   5.403   4.108   2.214  0.5254  0.1003 -0.2218
 3876SOL    HW112527   5.343   4.177   2.174  0.0666 -1.0389 -1.5865
 3876SOL    HW212528   5.352   4.023   2.229  0.6210  0.5087  3.0823
 3877SOL     OW12529   4.562   2.655   1.814 -0.1054  0.1330 -0.0702
 3877SOL    HW112530   4.599   2.566   1.789 -1.0655 -0.0324 -0.9379
 3877SOL    HW212531   4.472   2.667   1.773  0.1156  1.6128 -0.1681
 3878SOL     OW12532   4.898   6.723   5.280 -0.0268 -0.0946 -0.4526
 3878SOL    HW112533   4.833   6.793   5.251 -0.2137  0.2629  0.8052
 3878SOL    HW212534   4.986   6.765   5.300  0.1133 -0.3449 -0.5396
 3879SOL     OW12535   3.167   5.744   6.514 -0.2279 -0.3840  0.3160
 3879SOL    HW112536   3.130   5.837   6.514 -1.4724 -0.8550 -0.9498
 3879SOL    HW212537   3.137   5.696   6.596 -0.5133 -0.0211  0.4258
 3880SOL     OW12538   6.048   0.682   5.521  0.5359  0.3078 -0.0594
 3880SOL    HW112539   6.147   0.694   5.526  0.7017 -1.1331  0.6677
 3880SOL    HW212540   6.007   0.763   5.480  2.0799  0.6452 -1.0374
 3881SOL     OW12541   0.901   6.446   5.628  0.0611 -0.8253 -0.1491
 3881SOL    HW112542   0.837   6.390   5.679  0.7339 -2.2289 -0.8002
 3881SOL    HW212543   0.850   6.500   5.560 -0.4443 -1.9486 -0.6894
 3882SOL     OW12544   5.707   0.789   6.915 -0.0107 -0.4194  0.2908
 3882SOL    HW112545   5.649   0.711   6.889  1.8234 -2.2690  1.4636
 3882SOL    HW212546   5.769   0.811   6.840 -0.3276 -0.2713  0.0692
 3883SOL     OW12547   4.594   2.429   1.164 -0.0702  0.3032  0.1261
 3883SOL    HW112548   4.630   2.506   1.111  0.9994  0.9113  1.6514
 3883SOL    HW212549   4.608   2.447   1.261  0.7032 -2.0662  0.5010
 3884SOL     OW12550   2.514   5.768   0.735 -0.0537  0.2362  0.3306
 3884SOL    HW112551   2.576   5.802   0.806  0.8076  0.6186 -0.5846
 3884SOL    HW212552   2.522   5.668   0.729  0.1639  0.2421  0.5016
 3885SOL     OW12553   0.249   0.139   5.095  0.7968 -0.8492  0.1070
 3885SOL    HW112554   0.181   0.090   5.040  1.5620  0.1091 -1.7805
 3885SOL    HW212555   0.202   0.197   5.161 -0.1496 -2.3669  0.8195
 3886SOL     OW12556   5.726   0.502   6.620 -0.2084 -0.5717 -0.1131
 3886SOL    HW112557   5.776   0.419   6.594  2.7311  0.2206  2.4472
 3886SOL    HW212558   5.687   0.490   6.711 -0.8359  0.4246 -0.2397
 3887SOL     OW12559   6.130   4.473   5.645  0.2298  0.8418  0.7507
 3887SOL    HW112560   6.224   4.454   5.675  0.5629  0.5314 -0.4266
 3887SOL    HW212561   6.072   4.486   5.725  1.3025  1.1777  1.5012
 3888SOL     OW12562   4.736   2.805   3.141 -0.2036  0.0636  0.7436
 3888SOL    HW112563   4.712   2.711   3.116 -1.5058  0.5204  0.1714
 3888SOL    HW212564   4.718   2.865   3.063 -1.3586  1.0660  1.7460
 3889SOL     OW12565   4.841   5.959   0.972 -0.0193  0.5212  0.2333
 3889SOL    HW112566   4.778   6.032   0.945 -0.3233  0.6096  1.1542
 3889SOL    HW212567   4.790   5.875   0.988  0.3033  0.1606 -0.5963
 3890SOL     OW12568   5.129   3.727   1.730 -0.4406 -0.3709  0.1507
 3890SOL    HW112569   5.161   3.684   1.814 -0.5435  0.5073  0.6536
 3890SOL    HW212570   5.097   3.819   1.750 -0.4337 -0.1338 -0.8649
 3891SOL     OW12571   2.930   3.822   6.196  0.3849  0.2272 -0.5213
 3891SOL    HW112572   3.020   3.844   6.159 -0.0620  1.3544 -0.9593
 3891SOL    HW212573   2.881   3.764   6.131  1.4125 -1.8759  0.4654
 3892SOL     OW12574   4.537   6.098   4.195  0.4356  0.4553 -0.3767
 3892SOL    HW112575   4.481   6.082   4.277 -0.1252 -2.2342 -1.2069
 3892SOL    HW212576   4.627   6.132   4.223 -0.6396  2.2978  1.1385
 3893SOL     OW12577   2.763   6.668   3.339 -0.0387  0.6051  0.1235
 3893SOL    HW112578   2.706   6.719   3.275  0.5815  0.6231 -0.4297
 3893SOL    HW212579   2.718   6.663   3.428 -1.1390  0.1521 -0.4516
 3894SOL     OW12580   5.566   4.891   5.227  0.6571 -0.0453 -0.7623
 3894SOL    HW112581   5.652   4.851   5.261  0.8152  0.2146 -0.8567
 3894SOL    HW212582   5.489   4.837   5.261  0.6468  1.6088  2.1275
 3895SOL     OW12583   0.169   0.753   6.495  0.4961  0.0101 -0.0012
 3895SOL    HW112584   0.165   0.736   6.397 -1.0050  1.7885 -0.3178
 3895SOL    HW212585   0.262   0.738   6.529  0.9740 -0.8783 -1.6141
 3896SOL     OW12586   6.002   2.535   0.758  0.6990  0.3944 -0.4641
 3896SOL    HW112587   6.044   2.449   0.731  0.3066 -0.5418  1.6927
 3896SOL    HW212588   5.980   2.532   0.856  0.1731  2.7430 -0.4539
 3897SOL     OW12589   2.628   1.394   3.611  0.7295 -0.5466  0.3477
 3897SOL    HW112590   2.727   1.401   3.625  0.9151 -1.8729 -0.1061
 3897SOL    HW212591   2.610   1.341   3.528 -0.3604 -0.3424  0.4409
 3898SOL     OW12592   4.077   3.456   3.405 -0.1161 -0.7776  0.7561
 3898SOL    HW112593   4.100   3.385   3.338  0.2707 -0.8518  0.9661
 3898SOL    HW212594   4.035   3.413   3.485 -3.0143 -0.4854 -0.4602
 3899SOL     OW12595   5.346   2.908   5.714  0.2634  0.3771  0.0394
 3899SOL    HW112596   5.374   3.004   5.719 -0.8912  0.6885  0.7657
 3899SOL    HW212597   5.409   2.852   5.768 -0.3563  1.0431  1.5003
 3900SOL     OW12598   6.537   3.014   2.542  0.0042 -0.3947  0.3223
 3900SOL    HW112599   6.459   2.983   2.597  1.4376 -0.2351  2.5990
 3900SOL    HW212600   6.516   3.102   2.501 -1.1098 -0.4720  0.6838
 3901SOL     OW12601   2.965   5.694   3.412  0.2077  0.1886 -0.3410
 3901SOL    HW112602   2.978   5.786   3.374  0.3020  0.4798  0.3709
 3901SOL    HW212603   2.868   5.674   3.419  0.1918  0.0564 -0.9042
 3902SOL     OW12604   2.323   0.488   2.902  0.0013  0.6432  0.4993
 3902SOL    HW112605   2.350   0.391   2.903 -1.7646  0.1184  0.7102
 3902SOL    HW212606   2.225   0.495   2.922  0.0827  2.4805  0.3648
 3903SOL     OW12607   3.177   4.193   0.348  0.5877  0.2825  0.1602
 3903SOL    HW112608   3.134   4.176   0.436  1.3152  1.3320  0.7326
 3903SOL    HW212609   3.212   4.286   0.345  1.1963  0.0357 -0.9786
 3904SOL     OW12610   3.117   6.943   1.641 -0.2479 -0.6536  0.3654
 3904SOL    HW112611   3.068   7.029   1.654  0.2731 -0.4552  1.0731
 3904SOL    HW212612   3.055   6.867   1.660 -0.4004 -0.4136  0.8310
 3905SOL     OW12613   5.362   6.151   4.121  0.0661  0.0821  0.1814
 3905SOL    HW112614   5.421   6.082   4.163 -0.4854 -0.7695 -0.4142
 3905SOL    HW212615   5.266   6.127   4.136 -0.1568  1.2966  0.8798
 3906SOL     OW12616   6.491   6.047   3.827 -0.2514 -0.3211  0.0701
 3906SOL    HW112617   6.584   6.034   3.863 -0.3767 -0.7710  0.2350
 3906SOL    HW212618   6.426   6.050   3.902 -0.0808  3.0222  0.2111
 3907SOL     OW12619   3.143   1.933   3.375  0.0519 -0.1494  0.1896
 3907SOL    HW112620   3.192   2.014   3.406  1.9844 -0.6170 -1.3687
 3907SOL    HW212621   3.191   1.851   3.407 -0.0666 -0.6413 -0.8420
 3908SOL     OW12622   3.075   1.399   6.618 -0.6143 -0.3471 -0.3107
 3908SOL    HW112623   3.163   1.406   6.664 -0.3547 -0.5532 -0.7724
 3908SOL    HW212624   3.088   1.362   6.526 -1.0337  0.8563 -0.8729
 3909SOL     OW12625   5.847   4.132   1.624  0.3536  0.6812  0.0910
 3909SOL    HW112626   5.861   4.195   1.547 -1.1521  0.5893 -0.2895
 3909SOL    HW212627   5.882   4.173   1.708 -0.3691  1.9406 -0.1929
 3910SOL     OW12628   2.002   1.234   6.101 -0.6535 -0.1391 -0.4847
 3910SOL    HW112629   1.988   1.235   6.200 -0.0178  0.0403 -0.3970
 3910SOL    HW212630   1.921   1.195   6.057 -0.1345 -2.1779  0.2370
 3911SOL     OW12631   5.447   0.811   2.937 -0.2817  0.2985  0.4115
 3911SOL    HW112632   5.466   0.812   3.036 -1.2330  0.5960  0.6029
 3911SOL    HW212633   5.507   0.745   2.892  1.5289  1.5297  0.8953
 3912SOL     OW12634   3.073   2.953   6.441  0.6151 -0.3453 -0.3847
 3912SOL    HW112635   3.152   3.013   6.427  1.2443 -1.1995 -0.6095
 3912SOL    HW212636   3.103   2.868   6.485 -0.2665 -0.4721 -0.0100
 3913SOL     OW12637   4.012   2.983   1.061 -0.0931  0.3018  0.0125
 3913SOL    HW112638   4.018   3.081   1.080  0.9989 -0.0748  1.8511
 3913SOL    HW212639   4.050   2.932   1.138 -0.6268 -1.5827 -0.9168
 3914SOL     OW12640   0.686   0.637   0.294 -0.0001  0.0031  0.0714
 3914SOL    HW112641   0.697   0.658   0.391 -2.2784 -0.4861  0.5137
 3914SOL    HW212642   0.692   0.538   0.281 -0.3859  0.0083 -0.1633
 3915SOL     OW12643   5.238   0.016   4.178  0.4867  0.7984 -0.0420
 3915SOL    HW112644   5.266  -0.061   4.121 -2.6021 -1.2327  0.9143
 3915SOL    HW212645   5.141   0.036   4.163 -0.0359  1.3031  3.1510
 3916SOL     OW12646   1.680   2.910   0.791  0.3557  0.5655  0.0669
 3916SOL    HW112647   1.621   2.991   0.780 -0.5702 -0.1894 -0.7708
 3916SOL    HW212648   1.682   2.859   0.704  0.8424 -0.3638  0.6117
 3917SOL     OW12649   3.782   6.129   0.693 -0.0351  0.4519  0.7692
 3917SOL    HW112650   3.749   6.189   0.621  1.0923  1.3808  0.9914
 3917SOL    HW212651   3.875   6.099   0.672 -0.5635 -1.2236  0.6796
 3918SOL     OW12652   5.705   1.032   0.574 -0.0250 -0.9192 -0.1570
 3918SOL    HW112653   5.683   0.997   0.483  1.3687 -0.0514 -0.8622
 3918SOL    HW212654   5.763   0.967   0.621 -0.1498 -1.0407 -0.1692
 3919SOL     OW12655   4.375   6.103   3.839 -0.8855 -0.5474  0.2321
 3919SOL    HW112656   4.391   6.059   3.750  0.0611  2.0130 -0.9652
 3919SOL    HW212657   4.376   6.034   3.911  2.7728 -2.2821 -1.2289
 3920SOL     OW12658   5.134   1.386   6.454  0.0116 -0.2470  0.7010
 3920SOL    HW112659   5.094   1.470   6.417 -2.6357 -1.0678  1.5013
 3920SOL    HW212660   5.120   1.384   6.553 -1.2445 -2.2226  0.5306
 3921SOL     OW12661   6.482   2.947   4.833  0.4378 -0.0197  0.5735
 3921SOL    HW112662   6.384   2.929   4.825  0.6942 -0.9038 -0.8614
 3921SOL    HW212663   6.499   3.001   4.916 -1.5853  2.7443 -0.6864
 3922SOL     OW12664   6.309   2.878   5.630  0.0832  0.0156  0.1429
 3922SOL    HW112665   6.299   2.910   5.536 -1.7782 -3.5376 -1.0525
 3922SOL    HW212666   6.279   2.949   5.694 -1.0760  1.5985 -2.0613
 3923SOL     OW12667   5.732   0.589   0.720  0.1134  0.3816  0.1105
 3923SOL    HW112668   5.819   0.542   0.735  0.4371  0.9507  0.0575
 3923SOL    HW212669   5.659   0.541   0.769  0.0527 -1.3734 -1.5759
 3924SOL     OW12670   4.315   5.905   3.626 -0.0857  0.3374 -0.2086
 3924SOL    HW112671   4.396   5.854   3.656  0.5387 -0.2430 -2.6582
 3924SOL    HW212672   4.233   5.858   3.659  0.5379 -0.6798 -0.0478
 3925SOL     OW12673   3.339   5.198   0.341 -0.0511 -0.4436 -0.4001
 3925SOL    HW112674   3.438   5.188   0.349 -0.0660 -0.2922  0.0247
 3925SOL    HW212675   3.294   5.124   0.391 -0.1517  0.7361  1.3487
 3926SOL     OW12676   6.961   5.721   5.643  0.6794  0.5519 -0.3166
 3926SOL    HW112677   6.936   5.791   5.710  1.5069  0.0722  0.5129
 3926SOL    HW212678   6.908   5.735   5.559  0.5430  1.9178 -0.0243
 3927SOL     OW12679   6.451   1.249   5.912  0.6146  0.0273 -0.0931
 3927SOL    HW112680   6.425   1.334   5.865  0.2927 -0.4236 -0.7356
 3927SOL    HW212681   6.483   1.271   6.004  2.5973  1.0876 -0.9488
 3928SOL     OW12682   6.152   5.227   2.026  0.0096 -0.2545 -0.2483
 3928SOL    HW112683   6.147   5.290   2.104 -0.2436 -0.0394 -0.4346
 3928SOL    HW212684   6.245   5.227   1.989  0.5445 -1.5191  0.9967
 3929SOL     OW12685   2.887   2.088   5.763 -0.1376  0.3225 -0.6221
 3929SOL    HW112686   2.980   2.104   5.731 -0.0186 -0.1584 -0.5137
 3929SOL    HW212687   2.878   1.995   5.797 -1.0698 -0.1725 -2.1216
 3930SOL     OW12688   4.147   5.069   2.773  0.2333 -0.5125 -0.0418
 3930SOL    HW112689   4.049   5.055   2.759  0.0133  1.2639 -0.4520
 3930SOL    HW212690   4.171   5.042   2.867 -1.3028  1.9504  1.1592
 3931SOL     OW12691   6.854   2.259   5.681  0.4462 -0.3668  0.0497
 3931SOL    HW112692   6.926   2.195   5.707 -0.4274 -0.9131  1.2528
 3931SOL    HW212693   6.766   2.223   5.711 -0.3902  0.1211 -1.6691
 3932SOL     OW12694   2.021   4.258   1.079  0.0346  0.1012 -0.3168
 3932SOL    HW112695   2.047   4.162   1.065  1.0664  0.2883  0.2388
 3932SOL    HW212696   2.024   4.279   1.177 -0.1088  0.7258 -0.4442
 3933SOL     OW12697   6.206   6.744   2.066  0.0948 -0.3367  0.1531
 3933SOL    HW112698   6.298   6.756   2.105  1.0117  0.6448 -2.1582
 3933SOL    HW212699   6.145   6.812   2.105  0.8721  0.3736  0.1675
 3934SOL     OW12700   0.841   6.852   1.700  1.3104  0.1799  0.1775
 3934SOL    HW112701   0.941   6.860   1.701  1.2563  0.9058  0.3678
 3934SOL    HW212702   0.806   6.888   1.614  1.2286 -0.3431 -0.0103
 3935SOL     OW12703   0.448   2.783   4.499  0.5538 -0.2893  0.0480
 3935SOL    HW112704   0.484   2.703   4.546  0.4822 -0.1601  0.3243
 3935SOL    HW212705   0.404   2.844   4.565 -1.1933 -0.9841 -0.4053
 3936SOL     OW12706   1.312   2.369   5.368 -0.0495 -0.5563 -0.4466
 3936SOL    HW112707   1.388   2.378   5.433  0.0374 -1.8914 -0.3367
 3936SOL    HW212708   1.234   2.423   5.400  0.5440  0.0993 -0.0880
 3937SOL     OW12709   1.007   5.604   1.830 -0.1792 -0.6899 -0.0626
 3937SOL    HW112710   1.037   5.520   1.874 -1.3006 -0.0564  2.0590
 3937SOL    HW212711   0.964   5.582   1.742  0.7196 -2.1732 -0.1603
 3938SOL     OW12712   1.429   3.845   6.031  0.1540 -0.5723  0.0682
 3938SOL    HW112713   1.468   3.923   5.982 -1.2403  0.2944  0.2627
 3938SOL    HW212714   1.431   3.863   6.129 -1.4346 -0.1255  0.0463
 3939SOL     OW12715   2.373   6.966   4.141  0.1233  0.1407 -0.1998
 3939SOL    HW112716   2.427   6.882   4.145  0.0833  0.1051 -0.4246
 3939SOL    HW212717   2.435   7.045   4.150  0.6211  0.2216 -3.3036
 3940SOL     OW12718   3.343   0.171   6.126  0.5612  0.0425 -0.3232
 3940SOL    HW112719   3.373   0.122   6.044  1.3255  0.4501 -0.3020
 3940SOL    HW212720   3.323   0.266   6.102 -2.9019 -0.6922 -0.7843
 3941SOL     OW12721   6.727   5.708   2.142  0.3634 -0.3539 -0.2074
 3941SOL    HW112722   6.630   5.712   2.166  0.3441 -1.6492 -0.0147
 3941SOL    HW212723   6.774   5.786   2.182 -0.8953  1.2918 -1.7910
 3942SOL     OW12724   0.825   0.891   6.546  0.2493 -0.2514 -0.4143
 3942SOL    HW112725   0.796   0.916   6.638  0.3070  0.8075 -0.6693
 3942SOL    HW212726   0.780   0.806   6.519  0.0893 -0.4688  0.5181
 3943SOL     OW12727   1.758   5.684   0.142  0.3308  0.6984  0.0508
 3943SOL    HW112728   1.837   5.626   0.161  0.8290  1.1791 -0.5275
 3943SOL    HW212729   1.766   5.770   0.192  0.4408  0.9686 -0.4287
 3944SOL     OW12730   5.039   3.266   1.108 -0.4101  0.1830  0.3449
 3944SOL    HW112731   5.051   3.288   1.205  0.0988 -0.4434  0.4320
 3944SOL    HW212732   4.965   3.199   1.098  0.5277 -0.9020  0.4658
 3945SOL     OW12733   6.222   0.288   1.893  0.3405  0.3801  0.1640
 3945SOL    HW112734   6.245   0.191   1.901  1.9441  0.7893  1.0655
 3945SOL    HW212735   6.197   0.308   1.799 -0.3209 -0.9588  0.0286
 3946SOL     OW12736   3.057   1.441   0.098  0.2616  0.0365 -0.2096
 3946SOL    HW112737   3.057   1.370   0.169 -0.0047 -0.5690 -0.8042
 3946SOL    HW212738   3.143   1.437   0.047 -0.5324 -1.1904 -1.5283
 3947SOL     OW12739   4.417   6.401   0.972 -0.1932  0.1755  0.7534
 3947SOL    HW112740   4.384   6.340   1.044  1.9542 -1.4397  0.4984
 3947SOL    HW212741   4.354   6.399   0.895 -0.9043 -0.5874  1.3323
 3948SOL     OW12742   2.607   1.655   5.402  0.2193  0.2786 -0.1455
 3948SOL    HW112743   2.683   1.720   5.396 -1.5748  2.4421 -0.9062
 3948SOL    HW212744   2.537   1.691   5.464 -0.6079 -1.2005 -0.1688
 3949SOL     OW12745   5.282   6.080   4.579 -0.4206  0.1669  0.1754
 3949SOL    HW112746   5.247   6.161   4.626  1.5916 -0.9771  4.0431
 3949SOL    HW212747   5.258   5.998   4.631  0.2384 -1.4972 -1.9675
 3950SOL     OW12748   3.839   3.328   1.581  0.1216  0.5586 -0.1728
 3950SOL    HW112749   3.822   3.426   1.580 -2.1937  0.2109 -0.0152
 3950SOL    HW212750   3.766   3.281   1.630  1.5960 -1.2025  0.4687
 3951SOL     OW12751   5.689   3.150   2.261 -0.5056  0.5704  0.4004
 3951SOL    HW112752   5.731   3.079   2.203 -1.1918  1.6105 -1.4633
 3951SOL    HW212753   5.689   3.120   2.356  1.9572 -0.6352  0.0944
 3952SOL     OW12754   6.206   5.853   0.652  0.0742  0.9286  0.6936
 3952SOL    HW112755   6.280   5.837   0.717 -0.6424  1.1314  1.5658
 3952SOL    HW212756   6.127   5.891   0.699  0.2639  3.1202 -0.6344
 3953SOL     OW12757   3.573   2.862   3.897 -0.0845  0.1576 -0.0234
 3953SOL    HW112758   3.534   2.870   3.988  0.6789 -1.4207  0.4832
 3953SOL    HW212759   3.502   2.877   3.828 -0.9658  0.0359  0.8478
 3954SOL     OW12760   1.289   3.780   0.599 -0.1151 -0.4240  0.1298
 3954SOL    HW112761   1.220   3.710   0.616 -1.8281  1.3055  0.6476
 3954SOL    HW212762   1.364   3.768   0.664 -0.2749 -1.8628  0.0879
 3955SOL     OW12763   1.176   3.766   0.107  0.1991 -0.8764 -0.0952
 3955SOL    HW112764   1.130   3.695   0.054  0.7693 -0.4310 -1.2080
 3955SOL    HW212765   1.148   3.856   0.074  1.6637 -0.5951 -0.6444
 3956SOL     OW12766   0.490   3.337   6.133  0.5959  0.3350  0.6623
 3956SOL    HW112767   0.462   3.245   6.107  0.0775  1.4811 -3.4053
 3956SOL    HW212768   0.451   3.359   6.223 -0.9055 -2.6274  0.8630
 3957SOL     OW12769   1.322   3.001   2.381  0.7532 -0.7015 -0.2957
 3957SOL    HW112770   1.393   3.065   2.352  1.4599  0.3573  3.3085
 3957SOL    HW212771   1.361   2.934   2.444 -1.2662 -0.4904  1.2975
 3958SOL     OW12772   6.809   5.792   1.887  0.1996  0.2975  0.2204
 3958SOL    HW112773   6.898   5.792   1.933  0.6569 -4.1885 -0.2617
 3958SOL    HW212774   6.741   5.748   1.946  0.2355 -3.3269 -2.1297
 3959SOL     OW12775   2.553   4.731   0.179  0.2235  0.4039 -0.1675
 3959SOL    HW112776   2.652   4.722   0.189  0.1243  0.6952  1.4025
 3959SOL    HW212777   2.526   4.824   0.203 -0.4608  0.2438 -0.2975
 3960SOL     OW12778   6.330   3.941   0.131 -0.0959  0.2003  0.6321
 3960SOL    HW112779   6.244   3.909   0.093  1.5859 -1.2115 -2.3391
 3960SOL    HW212780   6.351   4.031   0.093  0.0905  0.2151  0.7694
 3961SOL     OW12781   0.226   0.504   0.640 -0.0989  0.3017  0.4744
 3961SOL    HW112782   0.163   0.436   0.602 -1.3604  1.9852 -0.5863
 3961SOL    HW212783   0.186   0.545   0.721  1.1392 -0.9087  1.7655
 3962SOL     OW12784   5.990   0.495   0.756 -0.5979  0.0247  0.5656
 3962SOL    HW112785   6.005   0.466   0.661 -1.6805 -0.1071  0.4174
 3962SOL    HW212786   6.026   0.426   0.818  1.6586  0.8708  0.3136
 3963SOL     OW12787   4.351   4.398   5.412  0.5896 -0.6008 -0.4188
 3963SOL    HW112788   4.273   4.389   5.473 -0.1083  1.7316 -0.8552
 3963SOL    HW212789   4.319   4.414   5.318  1.6085 -0.7230 -0.8057
 3964SOL     OW12790   6.870   5.613   6.762  0.1779 -0.4737  0.5585
 3964SOL    HW112791   6.858   5.635   6.665 -0.7799  0.1014  0.7980
 3964SOL    HW212792   6.948   5.552   6.772  0.0702 -0.8336 -0.6129
 3965SOL     OW12793   2.069   2.742   1.040  0.3751  0.5346  0.1622
 3965SOL    HW112794   2.162   2.727   1.006  0.4084  0.3422  0.3326
 3965SOL    HW212795   2.040   2.836   1.019  0.7191  0.6899  0.3673
 3966SOL     OW12796   5.939   4.534   5.254 -0.2204 -0.3152  0.1153
 3966SOL    HW112797   6.037   4.541   5.274 -0.2614 -1.7749  0.8607
 3966SOL    HW212798   5.922   4.453   5.198 -0.8316  0.7682 -1.3648
 3967SOL     OW12799   2.490   0.576   1.850  0.7945  0.2776 -0.0091
 3967SOL    HW112800   2.443   0.641   1.910 -0.5488 -1.2550  0.6403
 3967SOL    HW212801   2.566   0.534   1.899  0.5290  0.0129  0.1757
 3968SOL     OW12802   4.841   2.330   0.993 -0.6590  0.3984  0.4613
 3968SOL    HW112803   4.849   2.430   0.996  0.5371  0.3396 -0.2351
 3968SOL    HW212804   4.848   2.299   0.898 -3.1727 -0.2254  0.3935
 3969SOL     OW12805   6.079   6.293   0.330 -0.6284 -0.2743  0.2477
 3969SOL    HW112806   6.118   6.211   0.373  2.1174  0.9955  0.4130
 3969SOL    HW212807   6.119   6.374   0.373 -2.3663  1.1519 -0.7304
 3970SOL     OW12808   0.015   3.844   4.102  0.0938  0.2806 -0.5110
 3970SOL    HW112809   0.025   3.905   4.181 -0.5210  0.4376 -0.5498
 3970SOL    HW212810   0.025   3.896   4.018 -0.4948  0.3504 -0.5445
 3971SOL     OW12811   1.483   5.736   5.595  0.8224  0.2995 -0.5275
 3971SOL    HW112812   1.420   5.691   5.658  1.4942  0.4096  0.2443
 3971SOL    HW212813   1.508   5.826   5.631  2.6863 -0.3969  0.0369
 3972SOL     OW12814   6.538   1.913   6.611 -0.2052  1.0224 -0.1962
 3972SOL    HW112815   6.472   1.872   6.674  0.0618 -0.4215 -0.8213
 3972SOL    HW212816   6.516   1.887   6.517  1.7629 -0.2889 -0.3578
 3973SOL     OW12817   3.398   2.821   1.356 -0.4213 -0.0239 -0.0294
 3973SOL    HW112818   3.478   2.853   1.305  0.5938  2.2094  2.6595
 3973SOL    HW212819   3.417   2.731   1.394 -0.0588 -0.4406 -1.1716
 3974SOL     OW12820   4.335   6.310   1.580 -0.1317  0.2540  0.3121
 3974SOL    HW112821   4.327   6.221   1.625  1.0094  0.7559  1.5888
 3974SOL    HW212822   4.282   6.378   1.630  2.1658  1.0881  1.7816
 3975SOL     OW12823   5.688   5.519   4.994 -0.7052  0.0795 -0.6574
 3975SOL    HW112824   5.731   5.429   5.001 -1.2762 -0.1136  0.4986
 3975SOL    HW212825   5.757   5.590   5.008 -0.7526 -0.2308  1.4020
 3976SOL     OW12826   0.526   2.353   4.505  0.0273  0.0329 -0.2610
 3976SOL    HW112827   0.547   2.268   4.554  1.7780 -0.0257 -1.0031
 3976SOL    HW212828   0.441   2.342   4.453 -0.0481 -1.0842  0.0752
 3977SOL     OW12829   1.494   3.663   5.832 -0.3479  0.1157 -0.1249
 3977SOL    HW112830   1.577   3.621   5.868  0.2106  1.8542  0.7724
 3977SOL    HW212831   1.454   3.723   5.902  0.4275  3.1583 -2.0688
 3978SOL     OW12832   4.510   2.684   0.094  0.3629  0.2361  0.2891
 3978SOL    HW112833   4.587   2.660   0.035 -0.3387  1.2324 -1.0867
 3978SOL    HW212834   4.451   2.604   0.107  0.7711 -0.1158  0.0074
 3979SOL     OW12835   0.685   4.507   2.578  0.9123 -0.4609 -0.2612
 3979SOL    HW112836   0.708   4.482   2.484  1.0245  0.4293 -0.4767
 3979SOL    HW212837   0.587   4.522   2.584  1.0275  0.3814 -0.4537
 3980SOL     OW12838   6.092   5.574   3.272  0.2010  0.1131 -0.8481
 3980SOL    HW112839   6.138   5.532   3.194  0.2222 -1.2058 -0.1604
 3980SOL    HW212840   6.158   5.591   3.345  0.5882  3.2084 -1.7818
 3981SOL     OW12841   0.109   6.193   6.925  0.1964 -0.1992  0.5407
 3981SOL    HW112842   0.118   6.130   6.848 -0.3351  0.4837 -0.0971
 3981SOL    HW212843   0.140   6.148   7.009 -0.2619 -1.3292  0.1239
 3982SOL     OW12844   2.006   2.645   4.768  0.5929 -0.6667 -0.3426
 3982SOL    HW112845   1.915   2.641   4.810  1.1336 -0.3188  0.8947
 3982SOL    HW212846   2.012   2.576   4.695 -0.9256 -0.1337 -1.0179
 3983SOL     OW12847   2.133   0.491   2.578  0.0111 -0.0321  0.2520
 3983SOL    HW112848   2.043   0.500   2.620 -0.0057  0.3091  0.1458
 3983SOL    HW212849   2.181   0.579   2.582 -0.4659  0.3573 -1.5102
 3984SOL     OW12850   6.797   4.456   1.995  0.3111  0.3956 -0.2075
 3984SOL    HW112851   6.789   4.555   1.996 -2.3152  0.2350  0.9962
 3984SOL    HW212852   6.716   4.416   1.953  1.1694 -1.2809 -0.3757
 3985SOL     OW12853   0.519   0.709   1.104  0.6208  0.3384 -0.5515
 3985SOL    HW112854   0.589   0.653   1.060 -0.3326  0.0777 -1.8249
 3985SOL    HW212855   0.507   0.681   1.199 -0.3632 -2.2283 -1.3360
 3986SOL     OW12856   1.402   0.553   3.853 -0.0975 -0.4020 -0.0695
 3986SOL    HW112857   1.429   0.467   3.896  0.1884  0.1821  0.9522
 3986SOL    HW212858   1.473   0.622   3.871 -1.4507  0.7078  1.2565
 3987SOL     OW12859   1.608   3.410   4.845  0.2438  0.6588  0.4211
 3987SOL    HW112860   1.605   3.510   4.848  1.8032  0.7515 -0.1698
 3987SOL    HW212861   1.635   3.380   4.754 -0.2568 -0.3067  0.5829
 3988SOL     OW12862   5.021   6.190   4.457  0.2198  0.0369  0.5192
 3988SOL    HW112863   5.098   6.235   4.411  0.1414 -0.6644 -0.3315
 3988SOL    HW212864   4.962   6.259   4.499  0.0415  0.7562 -0.8434
 3989SOL     OW12865   3.585   1.176   1.610  0.5108  0.7606  0.0693
 3989SOL    HW112866   3.560   1.267   1.578 -0.9253  0.3777  0.0416
 3989SOL    HW212867   3.514   1.140   1.670  0.9995 -0.3911 -0.0011
 3990SOL     OW12868   5.922   0.053   5.533 -0.1081  0.1959 -0.1073
 3990SOL    HW112869   5.961   0.140   5.503  1.4590 -0.4918 -0.1110
 3990SOL    HW212870   5.971  -0.023   5.491 -1.5374 -0.7179 -0.2021
 3991SOL     OW12871   0.132   2.861   4.944  0.1043 -0.2313 -0.0331
 3991SOL    HW112872   0.103   2.803   4.868  0.8964  0.2625 -0.7343
 3991SOL    HW212873   0.179   2.805   5.012 -1.5260 -0.8576  0.6202
 3992SOL     OW12874   5.452   5.598   4.871  0.2840 -0.1922 -0.3865
 3992SOL    HW112875   5.477   5.612   4.775  0.1929 -1.4785 -0.6141
 3992SOL    HW212876   5.526   5.553   4.919 -0.1034 -0.5612 -0.1279
 3993SOL     OW12877   2.758   6.741   3.853 -0.1180 -0.2191  0.2840
 3993SOL    HW112878   2.833   6.753   3.918  0.7548 -0.1630 -0.7145
 3993SOL    HW212879   2.717   6.829   3.832 -2.0253 -0.4556  2.5753
 3994SOL     OW12880   3.611   2.125   3.518 -0.0981  0.0451  0.0833
 3994SOL    HW112881   3.563   2.101   3.602 -0.3656 -1.3537 -0.4482
 3994SOL    HW212882   3.705   2.154   3.540 -0.0376 -0.6908  0.8215
 3995SOL     OW12883   1.278   3.719   2.995  0.6216  0.0021  0.6550
 3995SOL    HW112884   1.321   3.807   3.017 -4.1029  3.1023 -0.7631
 3995SOL    HW212885   1.215   3.693   3.068  1.0971 -1.6130  0.5196
 3996SOL     OW12886   6.299   5.936   6.151 -0.3764  0.2029 -0.1859
 3996SOL    HW112887   6.303   5.911   6.248  0.0356 -0.5853 -0.4012
 3996SOL    HW212888   6.390   5.965   6.120  0.3209 -2.6758 -1.1311
 3997SOL     OW12889   5.432   2.499   4.999 -0.2233 -0.2019  0.4470
 3997SOL    HW112890   5.348   2.451   4.973  0.0406 -0.8133  0.7121
 3997SOL    HW212891   5.444   2.579   4.939 -0.5870 -0.5478 -0.1022
 3998SOL     OW12892   3.641   2.545   1.708  0.1951  0.4805  0.5368
 3998SOL    HW112893   3.671   2.474   1.771 -0.9156 -0.2510  0.2804
 3998SOL    HW212894   3.594   2.617   1.760 -1.2577 -0.4156  0.5288
 3999SOL     OW12895   5.147   2.957   2.564 -0.4294 -0.7378 -0.2815
 3999SOL    HW112896   5.194   2.869   2.554 -0.1152 -0.6300  0.2443
 3999SOL    HW212897   5.153   3.007   2.477  2.3355  0.2054  0.3537
 4000SOL     OW12898   2.118   3.703   3.425 -0.1423  0.5074  0.3302
 4000SOL    HW112899   2.049   3.764   3.385  0.0380  0.0794 -0.6610
 4000SOL    HW212900   2.078   3.651   3.500 -0.3494  1.6981  1.0738
 4001SOL     OW12901   1.812   5.788   4.800  0.3305 -0.0781 -0.1352
 4001SOL    HW112902   1.740   5.719   4.811  0.7623 -0.3070  1.4785
 4001SOL    HW212903   1.795   5.840   4.716  0.0316 -2.1573 -1.4333
 4002SOL     OW12904   3.773   4.271   5.930  0.5306 -0.4254  0.3763
 4002SOL    HW112905   3.681   4.310   5.937  0.2645 -1.0525  0.4225
 4002SOL    HW212906   3.772   4.195   5.865  0.6932 -1.3700  1.4479
 4003SOL     OW12907   4.429   1.797   3.049 -0.1121 -0.0433 -0.0308
 4003SOL    HW112908   4.481   1.851   2.983 -1.3658  0.3981 -0.7035
 4003SOL    HW212909   4.342   1.844   3.069 -0.8389 -1.3670  0.0419
 4004SOL     OW12910   1.811   2.767   5.816  0.3930 -0.7890 -0.0605
 4004SOL    HW112911   1.780   2.839   5.753 -0.9571 -1.5544 -0.2967
 4004SOL    HW212912   1.823   2.807   5.907  1.6586  0.1676 -0.6101
 4005SOL     OW12913   4.532   3.429   0.452  0.1086 -0.5552 -0.0918
 4005SOL    HW112914   4.436   3.451   0.435  0.1080 -0.3104  0.2154
 4005SOL    HW212915   4.553   3.339   0.414 -0.1939 -0.5263 -0.3270
 4006SOL     OW12916   6.330   5.450   0.167 -0.6067 -0.1199  0.6092
 4006SOL    HW112917   6.336   5.370   0.226 -2.0994 -0.9124 -0.2493
 4006SOL    HW212918   6.286   5.525   0.216 -0.9028 -0.4428  0.8436
 4007SOL     OW12919   0.647   1.936   1.535  0.1610 -0.1801 -0.1873
 4007SOL    HW112920   0.729   1.933   1.592  1.6483 -1.4484 -2.2826
 4007SOL    HW212921   0.602   1.847   1.536 -0.2792  0.0383 -0.3395
 4008SOL     OW12922   4.334   2.128   1.119 -0.0503 -0.2286 -0.7992
 4008SOL    HW112923   4.296   2.039   1.095  0.5756 -0.2795 -1.6499
 4008SOL    HW212924   4.434   2.123   1.119  0.0602 -0.4237  2.6171
 4009SOL     OW12925   4.023   1.262   2.965  0.1969 -0.4582  0.1096
 4009SOL    HW112926   4.021   1.310   3.053 -2.1643 -1.1458  0.4899
 4009SOL    HW212927   3.950   1.295   2.906  1.6155 -0.1641 -1.5675
 4010SOL     OW12928   0.456   5.813   0.263  0.3007  0.5655 -0.1424
 4010SOL    HW112929   0.472   5.903   0.221 -2.0451  0.8064 -0.6548
 4010SOL    HW212930   0.535   5.754   0.245  0.7924  1.6997 -2.0796
 4011SOL     OW12931   4.598   6.019   0.592  0.3648  0.5632 -0.0399
 4011SOL    HW112932   4.567   6.045   0.683 -2.7827  2.4429 -1.4869
 4011SOL    HW212933   4.601   6.100   0.533  1.9802 -0.6508 -1.7493
 4012SOL     OW12934   3.364   5.145   0.693 -0.0312 -0.3579 -0.6363
 4012SOL    HW112935   3.333   5.101   0.609  0.6874  0.1887 -1.1933
 4012SOL    HW212936   3.349   5.244   0.686 -1.1310 -0.4286  0.3855
 4013SOL     OW12937   6.672   3.197   0.214  0.0037 -0.2862  0.0571
 4013SOL    HW112938   6.688   3.279   0.158 -1.4199  1.0240  1.4561
 4013SOL    HW212939   6.753   3.139   0.213  1.6171  1.8587  0.1795
 4014SOL     OW12940   3.097   6.479   3.466 -0.1445  0.9451 -0.1145
 4014SOL    HW112941   3.071   6.473   3.562 -1.5002 -1.6736 -0.5550
 4014SOL    HW212942   3.197   6.483   3.459  0.0947 -0.8708  1.3923
 4015SOL     OW12943   3.734   5.964   4.830 -0.0859  0.3626 -0.6388
 4015SOL    HW112944   3.722   5.876   4.785  1.6505 -0.6704  0.7771
 4015SOL    HW212945   3.651   5.987   4.880 -0.8757 -0.0120 -1.7356
 4016SOL     OW12946   4.505   0.888   4.146 -0.0910 -0.3558  0.1237
 4016SOL    HW112947   4.449   0.840   4.078  1.2774 -0.2094 -1.1679
 4016SOL    HW212948   4.569   0.823   4.188  0.4083 -0.0585 -0.1721
 4017SOL     OW12949   1.344   6.656   0.129  0.3018  0.0821 -0.6353
 4017SOL    HW112950   1.388   6.723   0.189  0.8416  0.4960 -1.4811
 4017SOL    HW212951   1.244   6.665   0.138  0.3186  2.0066 -1.7668
 4018SOL     OW12952   5.241   3.725   0.877 -0.2143  0.4463  0.5521
 4018SOL    HW112953   5.253   3.755   0.783 -1.1200 -0.0097  0.2840
 4018SOL    HW212954   5.144   3.728   0.901  0.0813  1.2621  1.7074
 4019SOL     OW12955   0.028   3.067   4.557  0.3873 -0.0981  0.1362
 4019SOL    HW112956   0.023   3.094   4.653 -0.5024 -0.6719  0.2644
 4019SOL    HW212957  -0.059   3.085   4.512 -0.1737 -2.4211  0.1676
 4020SOL     OW12958   0.998   6.355   5.044  0.0393  0.2848  0.3409
 4020SOL    HW112959   1.053   6.434   5.017 -0.4200  0.5996  0.3200
 4020SOL    HW212960   0.901   6.379   5.041 -0.0411  0.8082  3.6154
 4021SOL     OW12961   3.872   6.690   6.637  0.1931  0.6753  0.5140
 4021SOL    HW112962   3.883   6.691   6.737  1.9073 -0.8749  0.3841
 4021SOL    HW212963   3.937   6.626   6.597 -2.3429 -0.8869 -1.3965
 4022SOL     OW12964   1.655   5.334   3.387 -0.1877  0.2809  0.3738
 4022SOL    HW112965   1.752   5.311   3.382 -0.5985 -1.6135  0.5790
 4022SOL    HW212966   1.631   5.355   3.482 -0.4475 -1.6464  0.7770
 4023SOL     OW12967   0.473   2.798   5.009  0.4536 -0.0773  0.0390
 4023SOL    HW112968   0.419   2.870   5.052 -1.2392 -0.8864 -0.6454
 4023SOL    HW212969   0.552   2.777   5.067  1.0696  2.3543  0.1989
 4024SOL     OW12970   0.288   0.104   6.120  0.3419  0.6654  0.1044
 4024SOL    HW112971   0.269   0.073   6.213 -0.0173 -0.4862 -0.3377
 4024SOL    HW212972   0.305   0.202   6.120  0.2956  0.6796  1.3758
 4025SOL     OW12973   6.957   3.692   4.372 -0.3998 -0.2984  0.4196
 4025SOL    HW112974   7.027   3.701   4.443 -1.4889 -0.7694  1.6123
 4025SOL    HW212975   6.874   3.740   4.402 -1.7206 -2.5474  0.6554
 4026SOL     OW12976   1.634   1.068   3.919  0.1512  0.3569  0.1937
 4026SOL    HW112977   1.543   1.099   3.892  0.0193 -1.3963 -1.5664
 4026SOL    HW212978   1.700   1.091   3.848  1.1562  1.6929  1.4972
 4027SOL     OW12979   2.512   0.178   4.773 -0.0974  0.0561 -0.2735
 4027SOL    HW112980   2.581   0.106   4.782 -0.8239 -0.8172 -1.3788
 4027SOL    HW212981   2.557   0.264   4.750  0.6801 -0.3510 -0.3193
 4028SOL     OW12982   5.386   1.293   5.583  0.5235  0.2453  0.5175
 4028SOL    HW112983   5.469   1.238   5.580  1.1033  1.1170 -0.3388
 4028SOL    HW212984   5.411   1.389   5.595 -0.1133  0.9026 -2.5827
 4029SOL     OW12985   2.753   6.074   0.553 -0.5098  0.4591  0.1526
 4029SOL    HW112986   2.740   6.082   0.652 -1.4477  0.4930  0.0353
 4029SOL    HW212987   2.718   6.156   0.508 -1.3672 -0.1365 -0.3058
 4030SOL     OW12988   2.135   0.344   0.776 -0.2552 -0.4737  0.5733
 4030SOL    HW112989   2.043   0.363   0.742 -0.3006 -0.3024  0.7905
 4030SOL    HW212990   2.202   0.393   0.719 -0.4267  1.2150  1.7473
 4031SOL     OW12991   5.182   6.103   0.099  0.3218 -0.2396  0.2212
 4031SOL    HW112992   5.153   6.113   0.194  1.7214  0.0043  0.6560
 4031SOL    HW212993   5.142   6.175   0.044 -2.3913 -1.7114  0.1050
 4032SOL     OW12994   5.400   0.849   6.783 -0.3715 -0.0847 -0.5302
 4032SOL    HW112995   5.340   0.801   6.719 -0.8822  0.9321 -0.8264
 4032SOL    HW212996   5.353   0.858   6.871  0.1734 -1.1218 -0.1082
 4033SOL     OW12997   0.814   1.612   1.281  0.0938  0.1007  0.6432
 4033SOL    HW112998   0.787   1.518   1.260 -1.8067  1.0933 -1.9087
 4033SOL    HW212999   0.865   1.650   1.205  1.7384  0.8962  2.0689
 4034SOL     OW13000   2.200   3.262   6.363  0.2710 -0.2160  0.2446
 4034SOL    HW113001   2.288   3.224   6.392 -0.2101 -1.0852  0.6049
 4034SOL    HW213002   2.198   3.360   6.382  1.6782  0.1038 -1.0401
 4035SOL     OW13003   3.228   2.875   1.622  0.4204 -0.2019  0.0613
 4035SOL    HW113004   3.172   2.850   1.700  1.0985 -1.5113  0.1549
 4035SOL    HW213005   3.187   2.841   1.538  0.1469  0.4350 -0.0693
 4036SOL     OW13006   4.935   0.989   3.225  0.5682  0.7064 -0.1565
 4036SOL    HW113007   4.911   0.892   3.229  0.1706  0.7995 -0.2000
 4036SOL    HW213008   4.993   1.013   3.303 -1.5364  1.0249  1.3985
 4037SOL     OW13009   2.756   6.837   6.443  0.0411  0.3213 -0.3507
 4037SOL    HW113010   2.799   6.784   6.370 -0.6647 -2.2856  1.0342
 4037SOL    HW213011   2.670   6.876   6.411  1.1620  1.7728 -1.7593
 4038SOL     OW13012   5.698   3.594   6.757 -0.4923 -0.3526 -0.2021
 4038SOL    HW113013   5.656   3.640   6.679 -2.6715 -0.8303  0.6400
 4038SOL    HW213014   5.647   3.615   6.840  1.7608  0.1408  1.1703
 4039SOL     OW13015   6.817   6.200   1.395 -0.6909  0.5982 -0.0443
 4039SOL    HW113016   6.728   6.242   1.376 -0.6899 -0.1298 -1.8077
 4039SOL    HW213017   6.862   6.178   1.308 -0.2795 -2.1795  0.8079
 4040SOL     OW13018   3.050   0.489   5.637  0.3259  0.2988 -0.3542
 4040SOL    HW113019   3.045   0.405   5.691 -1.6913  1.2443  1.0587
 4040SOL    HW213020   3.031   0.468   5.541 -0.1587 -0.8763 -0.0215
 4041SOL     OW13021   1.322   5.281   2.292 -0.4532 -0.5513  0.5890
 4041SOL    HW113022   1.296   5.338   2.370  1.7322  0.1341  0.8876
 4041SOL    HW213023   1.365   5.197   2.325 -1.8087 -1.4537  0.1222
 4042SOL     OW13024   1.223   0.955   3.887 -0.4545 -0.1177 -0.4115
 4042SOL    HW113025   1.257   0.904   3.807 -1.3557 -0.2816 -0.7015
 4042SOL    HW213026   1.222   0.894   3.966  2.7533  0.6715  0.3770
 4043SOL     OW13027   2.217   2.819   5.198  0.4260  0.9835 -0.0638
 4043SOL    HW113028   2.161   2.755   5.145 -0.8268  2.6375 -0.8032
 4043SOL    HW213029   2.263   2.883   5.137  0.2239  1.9259  0.7415
 4044SOL     OW13030   4.610   4.373   2.355  0.1636 -0.2025  0.2107
 4044SOL    HW113031   4.588   4.376   2.258 -0.1490  1.9478  0.2841
 4044SOL    HW213032   4.545   4.430   2.405  0.7970 -0.6372  1.5723
 4045SOL     OW13033   6.216   2.202   0.293 -0.8300  0.1818  0.0888
 4045SOL    HW113034   6.247   2.107   0.298  1.2870  0.8609  0.6979
 4045SOL    HW213035   6.179   2.230   0.382 -1.4130 -0.0298 -0.0785
 4046SOL     OW13036   5.267   2.162   2.874  0.6543 -0.2160  0.0829
 4046SOL    HW113037   5.276   2.201   2.783  0.6448 -1.3799 -0.4440
 4046SOL    HW213038   5.264   2.062   2.867  1.6910 -0.3861  1.4342
 4047SOL     OW13039   3.729   3.581   5.542 -0.3483  0.4346 -0.0206
 4047SOL    HW113040   3.661   3.512   5.566  0.5882 -0.4077  0.3248
 4047SOL    HW213041   3.820   3.539   5.543  0.4076  1.9619  1.5115
 4048SOL     OW13042   5.569   2.264   2.718  1.0057  0.1619 -0.0971
 4048SOL    HW113043   5.613   2.264   2.808 -1.8771  0.8939  1.4543
 4048SOL    HW213044   5.580   2.175   2.675  0.3841 -1.0954  2.1599
 4049SOL     OW13045   4.397   3.809   1.387  0.0188  0.5017  0.5984
 4049SOL    HW113046   4.485   3.763   1.404  0.2401  0.7677  0.1879
 4049SOL    HW213047   4.398   3.899   1.429 -0.0449  0.5168  0.5667
 4050SOL     OW13048   6.677   5.152   5.667  0.6547  0.2684  0.4540
 4050SOL    HW113049   6.694   5.140   5.764 -3.3725  1.7621  1.5351
 4050SOL    HW213050   6.684   5.250   5.644  0.4472  0.0747 -0.4780
 4051SOL     OW13051   5.963   0.827   3.743 -0.1004  0.0183  0.0353
 4051SOL    HW113052   5.952   0.789   3.835  0.5637 -1.5243 -0.4703
 4051SOL    HW213053   5.953   0.753   3.676  1.2479  0.7418 -1.0136
 4052SOL     OW13054   6.099   2.205   3.562 -0.7618  0.1493  0.0536
 4052SOL    HW113055   6.136   2.114   3.583 -2.3749 -0.7064 -0.5861
 4052SOL    HW213056   6.006   2.211   3.597 -1.0384  1.1858 -0.8196
 4053SOL     OW13057   1.730   5.254   4.118 -0.6195  0.3119 -0.0174
 4053SOL    HW113058   1.775   5.184   4.064 -0.0534  0.4297  0.2963
 4053SOL    HW213059   1.725   5.225   4.213 -2.8521 -0.5088 -0.3344
 4054SOL     OW13060   3.617   2.617   0.914 -0.2652  0.3655  0.4292
 4054SOL    HW113061   3.698   2.564   0.941  0.6904  1.0935 -0.8700
 4054SOL    HW213062   3.541   2.555   0.896  0.7749 -0.5975 -0.8854
 4055SOL     OW13063   6.502   3.665   0.245 -0.4910 -0.1675  0.1751
 4055SOL    HW113064   6.416   3.709   0.218  0.9636  1.3225 -2.4970
 4055SOL    HW213065   6.504   3.572   0.210 -1.0228 -0.2215  0.2757
 4056SOL     OW13066   4.594   3.394   0.064  0.4595  0.1438 -0.2109
 4056SOL    HW113067   4.542   3.479   0.064  2.9867  1.8028  1.1592
 4056SOL    HW213068   4.668   3.401  -0.003  0.0284 -1.4836 -0.9023
 4057SOL     OW13069   6.051   4.791   6.893  0.0717  0.3325 -0.1213
 4057SOL    HW113070   6.007   4.809   6.981 -1.1072 -1.1116 -0.3793
 4057SOL    HW213071   6.145   4.762   6.908 -0.6524 -1.7250  0.8414
 4058SOL     OW13072   4.552   1.576   4.868 -0.1116  0.1852 -1.1858
 4058SOL    HW113073   4.462   1.615   4.852 -0.9534 -0.5682  1.2754
 4058SOL    HW213074   4.563   1.494   4.812 -1.3799 -0.3098 -0.7378
 4059SOL     OW13075   2.985   1.440   5.369 -0.8871 -0.8284  0.6126
 4059SOL    HW113076   2.950   1.470   5.280  0.5809 -0.2935  0.1858
 4059SOL    HW213077   3.034   1.516   5.413 -0.9689 -1.3048  1.5583
 4060SOL     OW13078   0.238   5.884   4.283 -0.2121  0.3166 -0.0934
 4060SOL    HW113079   0.258   5.968   4.333  0.8631  0.5491 -0.8687
 4060SOL    HW213080   0.242   5.806   4.346  0.3201  0.6913  0.3495
 4061SOL     OW13081   1.570   4.041   2.296  0.4632 -0.2584  0.0699
 4061SOL    HW113082   1.638   4.112   2.308  1.4025 -0.8507 -1.5338
 4061SOL    HW213083   1.527   4.049   2.206 -2.1188  0.5112  1.2671
 4062SOL     OW13084   0.624   5.588   0.138 -0.2852 -0.0742  0.4945
 4062SOL    HW113085   0.679   5.653   0.086 -0.5366 -0.4145 -0.2243
 4062SOL    HW213086   0.682   5.513   0.170 -0.3774 -0.6967 -0.6968
 4063SOL     OW13087   5.300   6.910   2.067  0.1267 -0.0677 -0.3960
 4063SOL    HW113088   5.394   6.904   2.101  0.2149  0.3608 -0.5426
 4063SOL    HW213089   5.238   6.930   2.142  0.1414 -0.4357 -0.2856
 4064SOL     OW13090   3.252   0.944   3.763  0.1947 -0.0866 -0.2372
 4064SOL    HW113091   3.261   1.008   3.687 -1.2994 -0.3407 -0.6615
 4064SOL    HW213092   3.162   0.901   3.760  0.9182 -1.7270  0.4326
 4065SOL     OW13093   2.361   1.331   1.801 -0.2918 -0.4352 -0.0497
 4065SOL    HW113094   2.300   1.411   1.800 -0.0192 -0.2257 -0.6896
 4065SOL    HW213095   2.452   1.359   1.770  0.1980 -0.7003  1.0777
 4066SOL     OW13096   0.690   3.162   3.994  0.1440 -0.0790  0.0596
 4066SOL    HW113097   0.652   3.231   3.933  2.0967  0.6824 -0.3784
 4066SOL    HW213098   0.725   3.085   3.940  0.1945 -0.2702  0.3627
 4067SOL     OW13099   6.317   5.167   1.044 -0.1504  0.1232  0.0677
 4067SOL    HW113100   6.353   5.136   0.956  2.4882  2.3351  0.2316
 4067SOL    HW213101   6.386   5.155   1.115 -1.9402 -0.8732  1.7551
 4068SOL     OW13102   3.312   3.991   6.680  0.0407 -0.0999  0.0598
 4068SOL    HW113103   3.386   3.992   6.746 -1.4171 -2.8728  1.9309
 4068SOL    HW213104   3.289   3.896   6.656 -1.5220  0.7301 -2.0959
 4069SOL     OW13105   4.195   0.027   4.346  0.2369 -0.0379  0.0707
 4069SOL    HW113106   4.242  -0.061   4.353 -0.9641 -1.0949 -3.1420
 4069SOL    HW213107   4.098   0.011   4.326  0.2884  1.9201 -2.1717
 4070SOL     OW13108   1.175   3.429   4.785 -0.0628  0.8152 -0.2597
 4070SOL    HW113109   1.135   3.406   4.873 -3.1745  0.6138 -1.6219
 4070SOL    HW213110   1.252   3.367   4.766  0.4839  0.6698  2.0953
 4071SOL     OW13111   0.904   0.405   3.910 -0.1480  0.4050  0.3359
 4071SOL    HW113112   0.984   0.421   3.852 -0.4887 -2.8886 -1.2592
 4071SOL    HW213113   0.821   0.417   3.857 -0.4955 -1.5086  0.3704
 4072SOL     OW13114   2.638   6.734   1.086  0.0647  0.1187 -0.4359
 4072SOL    HW113115   2.660   6.660   1.150 -1.2106 -0.3819 -0.5539
 4072SOL    HW213116   2.722   6.784   1.063  0.5332  0.4130  1.7187
 4073SOL     OW13117   1.797   4.344   6.562 -0.2048 -0.3530  0.9150
 4073SOL    HW113118   1.778   4.423   6.503  0.4806 -1.8073 -1.3871
 4073SOL    HW213119   1.735   4.347   6.641 -2.4980  0.7441 -0.7732
 4074SOL     OW13120   2.575   5.732   1.801  0.0434 -0.0000 -1.2086
 4074SOL    HW113121   2.500   5.666   1.793 -0.0141 -0.0679 -0.2353
 4074SOL    HW213122   2.593   5.772   1.711 -1.8009  0.7086 -1.3202
 4075SOL     OW13123   5.285   1.613   0.071 -0.4671  0.3092  0.2995
 4075SOL    HW113124   5.356   1.551   0.036 -1.2788 -0.8310  0.6001
 4075SOL    HW213125   5.295   1.622   0.170  0.8232  2.2321  0.0451
 4076SOL     OW13126   1.755   6.419   2.128 -0.6036  0.2619 -0.0137
 4076SOL    HW113127   1.780   6.489   2.195  1.7500  0.5180 -1.0890
 4076SOL    HW213128   1.750   6.330   2.174  0.4031  0.5212  0.6375
 4077SOL     OW13129   1.184   2.757   1.125 -0.5537  0.1821  0.0407
 4077SOL    HW113130   1.208   2.837   1.070 -2.9433  0.8602 -0.1317
 4077SOL    HW213131   1.184   2.675   1.067  0.1426  0.3507 -0.2002
 4078SOL     OW13132   2.467   5.787   1.314 -0.0257 -0.0352 -0.3301
 4078SOL    HW113133   2.373   5.752   1.307 -0.3240  0.6306  0.2400
 4078SOL    HW213134   2.530   5.721   1.274 -0.8200 -0.1047 -1.5147
 4079SOL     OW13135   0.654   3.333   4.977 -0.0751 -0.0871 -0.9529
 4079SOL    HW113136   0.710   3.252   4.993  2.0413  1.3290 -0.8353
 4079SOL    HW213137   0.644   3.347   4.878  1.1505  0.4991 -1.0181
 4080SOL     OW13138   6.461   0.189   5.032  0.9657  0.0257 -0.1740
 4080SOL    HW113139   6.382   0.152   5.081  0.5364  1.8224  0.5777
 4080SOL    HW213140   6.532   0.118   5.026 -0.1051 -1.1550  0.4603
 4081SOL     OW13141   0.183   4.774   0.933  0.3498 -0.3281 -0.1092
 4081SOL    HW113142   0.204   4.853   0.875  1.6203 -0.3900  0.2464
 4081SOL    HW213143   0.145   4.701   0.877 -1.1037  0.6171 -0.4046
 4082SOL     OW13144   1.281   2.465   6.964  0.5279 -0.2893  0.5999
 4082SOL    HW113145   1.314   2.370   6.960  1.4760 -0.1116  2.6817
 4082SOL    HW213146   1.215   2.474   7.039  0.7806  0.7845  0.7040
 4083SOL     OW13147   1.007   3.142   4.692  0.0136 -0.3883 -0.5092
 4083SOL    HW113148   0.996   3.104   4.784  1.4272 -0.9933 -0.5696
 4083SOL    HW213149   0.917   3.158   4.652 -0.6838  1.2947  1.5332
 4084SOL     OW13150   4.516   2.506   2.463 -0.0496  0.3485 -0.0275
 4084SOL    HW113151   4.436   2.485   2.406  0.9707 -1.8657 -0.7567
 4084SOL    HW213152   4.587   2.548   2.406  0.5621 -0.8468 -0.1582
 4085SOL     OW13153   4.078   5.619   1.026  0.3425  0.8902 -0.1174
 4085SOL    HW113154   4.015   5.542   1.032  0.0359  1.0802 -0.8245
 4085SOL    HW213155   4.039   5.698   1.073  0.0471  1.0062 -0.5502
 4086SOL     OW13156   6.992   2.149   1.235 -0.3153 -0.3949  0.3851
 4086SOL    HW113157   7.051   2.222   1.201 -1.1316  0.4240  0.6739
 4086SOL    HW213158   6.955   2.176   1.324  0.1914 -1.6222  0.9864
 4087SOL     OW13159   3.081   6.725   3.103  0.3030  0.2833  0.3862
 4087SOL    HW113160   3.072   6.756   3.197  1.8302  0.1313  0.6108
 4087SOL    HW213161   3.105   6.627   3.102 -1.6722 -0.2365 -0.2351
 4088SOL     OW13162   0.437   1.649   6.947 -0.2365  0.2531  0.5278
 4088SOL    HW113163   0.343   1.621   6.932  0.0729 -0.8786  0.6559
 4088SOL    HW213164   0.445   1.748   6.935 -1.4205  0.3433  0.4569
 4089SOL     OW13165   6.395   1.506   5.605 -0.1357 -0.2872 -0.2120
 4089SOL    HW113166   6.419   1.512   5.701  1.3797  2.1965 -0.6814
 4089SOL    HW213167   6.476   1.480   5.552 -0.9498 -1.6113 -0.8630
 4090SOL     OW13168   2.552   4.868   6.230 -0.2903 -0.0717 -0.1132
 4090SOL    HW113169   2.638   4.907   6.264 -1.0025  1.0766  0.4481
 4090SOL    HW213170   2.559   4.853   6.132  0.6113 -0.1503 -0.0477
 4091SOL     OW13171   3.509   6.672   1.900  0.5285 -0.1135  0.5458
 4091SOL    HW113172   3.535   6.756   1.853 -0.2641  0.2341  0.7215
 4091SOL    HW213173   3.591   6.617   1.916  1.0312  0.5354  0.2689
 4092SOL     OW13174   0.983   1.007   1.732 -0.4730 -0.0464  0.0322
 4092SOL    HW113175   0.970   0.909   1.714  0.1359 -0.5334  2.0281
 4092SOL    HW213176   0.894   1.051   1.744 -0.7068 -0.7137  0.8119
 4093SOL     OW13177   4.417   1.470   4.262  0.0407 -0.4889  0.5299
 4093SOL    HW113178   4.464   1.455   4.349 -0.1474  0.4755  0.8054
 4093SOL    HW213179   4.363   1.554   4.267 -0.3313 -0.6646 -0.3692
 4094SOL     OW13180   3.637   5.226   5.995 -0.0762  0.3022  0.0471
 4094SOL    HW113181   3.570   5.263   6.059  1.1150  0.3358  1.3180
 4094SOL    HW213182   3.671   5.139   6.029  0.7022  0.3981 -0.4565
 4095SOL     OW13183   2.839   5.335   5.196  0.2727 -0.1398 -0.6437
 4095SOL    HW113184   2.933   5.370   5.207 -0.2942  0.9695  1.2057
 4095SOL    HW213185   2.833   5.243   5.235 -0.0346  0.9930  2.2836
 4096SOL     OW13186   4.685   4.779   2.220 -0.0263 -0.5730  0.4077
 4096SOL    HW113187   4.748   4.705   2.243 -0.1517 -1.2568 -1.2999
 4096SOL    HW213188   4.611   4.783   2.288  1.8866  0.3775  2.5639
 4097SOL     OW13189   3.749   4.059   3.427  0.5218 -0.1010  0.5199
 4097SOL    HW113190   3.690   3.984   3.397  0.0391  0.8860 -1.1161
 4097SOL    HW213191   3.834   4.059   3.374  0.0346  1.1509 -0.3154
 4098SOL     OW13192   0.011   3.224   1.473 -0.5491 -0.8575  0.2904
 4098SOL    HW113193  -0.013   3.208   1.377 -1.5622 -1.0797  0.5691
 4098SOL    HW213194  -0.068   3.260   1.522  0.0331 -0.5124  0.9964
 4099SOL     OW13195   2.359   0.417   2.119  0.3265  0.4877 -0.1265
 4099SOL    HW113196   2.279   0.404   2.177  1.2219  0.0095  1.0382
 4099SOL    HW213197   2.338   0.485   2.048 -0.6548  1.4038  0.9988
 4100SOL     OW13198   2.970   6.695   1.676 -0.3029 -0.1975 -0.2421
 4100SOL    HW113199   2.983   6.604   1.716  0.8405  0.3262  0.6257
 4100SOL    HW213200   2.892   6.740   1.720  0.7424  0.2458  1.2129
 4101SOL     OW13201   4.845   0.453   5.213  0.1266 -0.3250  0.0210
 4101SOL    HW113202   4.842   0.365   5.260 -1.6544  0.5100  1.6519
 4101SOL    HW213203   4.808   0.443   5.121  0.5782 -1.3819 -0.0643
 4102SOL     OW13204   5.162   1.897   0.049  0.1653 -0.0499 -0.3480
 4102SOL    HW113205   5.202   1.806   0.052 -0.7343 -0.4331  1.5783
 4102SOL    HW213206   5.099   1.903  -0.029 -0.7003 -1.5287  0.1932
 4103SOL     OW13207   5.480   6.407   1.556  0.2002  0.0783 -0.2212
 4103SOL    HW113208   5.453   6.500   1.531  0.1877  0.7038  1.9833
 4103SOL    HW213209   5.420   6.342   1.510 -1.4605  1.2470  0.2072
 4104SOL     OW13210   1.669   3.212   2.011 -0.3204  0.1234 -0.1039
 4104SOL    HW113211   1.642   3.131   1.959 -0.5796  0.6773 -0.8550
 4104SOL    HW213212   1.671   3.190   2.109 -1.3336 -0.5236 -0.2119
 4105SOL     OW13213   4.794   1.111   0.940  0.4894  0.1982  0.0863
 4105SOL    HW113214   4.859   1.054   0.990  0.5612 -0.3231 -0.5955
 4105SOL    HW213215   4.777   1.072   0.849  1.1624  1.6849 -0.7087
 4106SOL     OW13216   1.221   3.389   3.273  0.3029  0.5377 -0.7913
 4106SOL    HW113217   1.192   3.483   3.257  0.5152  0.6694 -0.3886
 4106SOL    HW213218   1.221   3.369   3.371 -1.7467 -0.5166 -0.9459
 4107SOL     OW13219   5.718   0.727   0.270 -0.1323 -0.3771 -0.1705
 4107SOL    HW113220   5.812   0.695   0.275 -0.2645 -0.6379  0.9027
 4107SOL    HW213221   5.665   0.685   0.344 -0.5082  1.6743  0.7794
 4108SOL     OW13222   6.805   2.705   5.603  0.6220  0.0570 -0.1272
 4108SOL    HW113223   6.852   2.752   5.528 -0.2318  0.0746 -0.6658
 4108SOL    HW213224   6.707   2.724   5.597  0.4279 -0.7658  0.4007
 4109SOL     OW13225   2.350   6.875   3.843 -0.1782 -0.5479  0.4737
 4109SOL    HW113226   2.315   6.967   3.825 -2.3009 -1.5004 -0.7252
 4109SOL    HW213227   2.436   6.881   3.894 -0.8108  2.0442  1.3956
 4110SOL     OW13228   5.737   2.967   5.690  0.1285  0.1076 -0.8215
 4110SOL    HW113229   5.748   2.877   5.732 -1.4847  0.0067 -0.5726
 4110SOL    HW213230   5.820   3.020   5.704  1.2850 -1.4646 -1.3333
 4111SOL     OW13231   4.076   2.767   6.977  0.3516 -0.3218 -0.4808
 4111SOL    HW113232   4.083   2.860   7.013  0.1092 -0.8839  1.1397
 4111SOL    HW213233   3.994   2.759   6.921  0.5674  0.5157 -0.9380
 4112SOL     OW13234   4.244   0.682   4.201 -0.2771 -0.4655 -0.2363
 4112SOL    HW113235   4.244   0.728   4.290 -1.2779  0.1180 -0.5160
 4112SOL    HW213236   4.165   0.712   4.148  1.4679  0.9607 -2.2383
 4113SOL     OW13237   4.912   6.138   4.816 -0.7277  0.3971 -0.2401
 4113SOL    HW113238   4.910   6.075   4.894 -0.5566 -1.8392 -1.9320
 4113SOL    HW213239   4.858   6.220   4.838 -0.9395 -0.2815  2.0738
 4114SOL     OW13240   4.828   2.389   2.857 -0.1449 -0.1040 -0.4263
 4114SOL    HW113241   4.815   2.368   2.760  0.5984  0.6427 -0.6999
 4114SOL    HW213242   4.889   2.321   2.898  1.8344  1.1412 -1.1846
 4115SOL     OW13243   5.172   3.107   3.414 -0.1912 -0.3238  0.1288
 4115SOL    HW113244   5.132   3.182   3.362  1.1874  0.6529  0.4363
 4115SOL    HW213245   5.196   3.032   3.352 -1.6452 -0.5696 -0.1686
 4116SOL     OW13246   2.147   1.980   1.566  0.4727 -0.1434 -1.0855
 4116SOL    HW113247   2.050   1.985   1.589  0.7868 -0.4576  0.4132
 4116SOL    HW213248   2.172   2.059   1.510 -0.3529  0.6688 -0.3429
 4117SOL     OW13249   2.500   6.143   0.806 -0.1365 -0.1384  0.0431
 4117SOL    HW113250   2.594   6.116   0.828 -0.4078 -0.9629  0.2537
 4117SOL    HW213251   2.441   6.061   0.805 -0.6665  0.2283 -1.0619
 4118SOL     OW13252   6.575   0.335   6.834  0.2659  0.2189  0.0918
 4118SOL    HW113253   6.479   0.307   6.830  0.3281  0.1070 -1.2172
 4118SOL    HW213254   6.599   0.359   6.928 -0.0323 -3.2750  1.2361
 4119SOL     OW13255   6.225   1.950   4.969  0.5741 -0.5040  0.0660
 4119SOL    HW113256   6.268   2.031   5.008 -0.4511  1.9650 -3.5212
 4119SOL    HW213257   6.293   1.896   4.919  0.3941  1.1270 -2.0484
 4120SOL     OW13258   6.333   0.652   2.554  0.8276  0.1935  0.4468
 4120SOL    HW113259   6.386   0.581   2.599 -1.2011 -0.6899  1.5652
 4120SOL    HW213260   6.297   0.616   2.467  0.5929  0.1623  0.5551
 4121SOL     OW13261   5.196   2.435   4.902  0.3170 -0.3697  0.0891
 4121SOL    HW113262   5.145   2.411   4.985 -1.3262  1.8369 -0.1925
 4121SOL    HW213263   5.132   2.458   4.829  1.7315  0.4500 -0.9386
 4122SOL     OW13264   0.942   3.306   6.623  0.3480  0.6587 -0.0453
 4122SOL    HW113265   0.888   3.375   6.672 -2.4383  0.3221 -2.3682
 4122SOL    HW213266   0.986   3.348   6.544 -0.0498  0.1269 -0.5632
 4123SOL     OW13267   3.251   4.253   6.842 -0.4739  0.5034 -0.4671
 4123SOL    HW113268   3.154   4.274   6.851  0.0462  2.9640  0.1378
 4123SOL    HW213269   3.263   4.176   6.779 -2.7379  1.0925 -1.7259
 4124SOL     OW13270   5.650   5.466   2.568  0.3753  0.1870  0.5463
 4124SOL    HW113271   5.583   5.540   2.562 -0.5255 -0.5413  1.2578
 4124SOL    HW213272   5.647   5.426   2.660 -0.6430 -2.0805 -0.3925
 4125SOL     OW13273   5.541   2.384   1.324  0.1586 -0.4558  0.2502
 4125SOL    HW113274   5.586   2.340   1.402 -0.3231  0.0062  0.8028
 4125SOL    HW213275   5.609   2.431   1.268  0.3345  0.6205  1.3228
 4126SOL     OW13276   6.668   4.343   6.311 -0.8187  0.0105  0.2140
 4126SOL    HW113277   6.751   4.397   6.327 -0.7009 -0.2659  0.5527
 4126SOL    HW213278   6.676   4.296   6.223  0.3904 -1.7999  1.2164
 4127SOL     OW13279   6.356   4.785   5.696  0.2980  0.1683  0.3043
 4127SOL    HW113280   6.323   4.719   5.763 -0.6146  0.2157 -0.0838
 4127SOL    HW213281   6.290   4.793   5.622  1.3921 -0.0611 -0.7334
 4128SOL     OW13282   6.836   1.845   2.969  0.8464  0.1804 -0.5896
 4128SOL    HW113283   6.762   1.856   3.035  1.6488 -0.2719  0.3931
 4128SOL    HW213284   6.804   1.875   2.879 -0.2316  0.8604  0.0023
 4129SOL     OW13285   6.122   4.696   6.253 -0.2645  0.4463  0.1302
 4129SOL    HW113286   6.034   4.707   6.207 -0.5170 -0.7404  0.2794
 4129SOL    HW213287   6.117   4.738   6.344 -1.2708 -1.0186  0.8085
 4130SOL     OW13288   5.134   1.920   2.292  0.2152 -0.7286  0.4608
 4130SOL    HW113289   5.072   1.901   2.216 -1.2936 -1.7749  1.8868
 4130SOL    HW213290   5.095   1.991   2.350  0.5699 -1.0713  1.1255
 4131SOL     OW13291   5.921   2.695   2.272  0.0754  0.5293 -0.4687
 4131SOL    HW113292   5.834   2.724   2.230  0.5364  0.8775 -1.2148
 4131SOL    HW213293   5.937   2.599   2.250  0.4844  0.7999 -1.4267
 4132SOL     OW13294   4.449   2.071   5.173  0.2620  0.6714 -0.3616
 4132SOL    HW113295   4.483   2.127   5.097  0.3268  0.7090 -0.3053
 4132SOL    HW213296   4.523   2.013   5.207  1.1638  2.8635  1.7128
 4133SOL     OW13297   1.810   2.387   1.181  0.2917  0.6105 -0.6243
 4133SOL    HW113298   1.851   2.455   1.120  0.3478 -0.7032 -2.1163
 4133SOL    HW213299   1.718   2.365   1.150  0.9831 -1.4213 -1.3932
 4134SOL     OW13300   1.693   2.637   1.673 -0.0029  1.1797  0.2766
 4134SOL    HW113301   1.753   2.717   1.668  1.7500 -0.1338 -1.0735
 4134SOL    HW213302   1.741   2.562   1.719 -1.3383  0.6569  0.8632
 4135SOL     OW13303   0.088   6.199   1.797 -0.4832 -0.3380  0.1766
 4135SOL    HW113304   0.145   6.121   1.821  2.3538  1.3061 -0.7236
 4135SOL    HW213305   0.011   6.169   1.741  0.1850 -2.5341  0.3549
 4136SOL     OW13306   2.770   1.314   4.371  0.2896 -0.1540 -0.0022
 4136SOL    HW113307   2.762   1.404   4.327 -3.9431 -0.8834 -1.1931
 4136SOL    HW213308   2.728   1.318   4.462  1.8125 -0.5623  0.7566
 4137SOL     OW13309   4.186   5.418   5.217 -0.2825 -0.1444 -0.2469
 4137SOL    HW113310   4.193   5.335   5.273 -0.0346 -0.8269 -1.2596
 4137SOL    HW213311   4.241   5.407   5.134  1.1326  1.7246  0.3985
 4138SOL     OW13312   5.609   5.183   2.162  0.1332 -0.2305  0.0782
 4138SOL    HW113313   5.536   5.241   2.198  0.0933 -0.9864  1.2793
 4138SOL    HW213314   5.586   5.087   2.177  0.7578 -0.5273 -0.7693
 4139SOL     OW13315   3.099   2.265   1.338  0.9843  0.0607 -0.0850
 4139SOL    HW113316   3.143   2.354   1.347  0.4673  0.4221 -0.9665
 4139SOL    HW213317   3.150   2.208   1.274  1.7112 -0.5559  1.0091
 4140SOL     OW13318   5.210   2.668   4.541 -0.0893  0.1091 -0.4562
 4140SOL    HW113319   5.179   2.619   4.622  0.9866 -2.0281 -1.2601
 4140SOL    HW213320   5.132   2.687   4.482 -0.5434 -0.6288 -0.1095
 4141SOL     OW13321   4.106   6.631   1.960 -0.5093 -0.5687  0.0809
 4141SOL    HW113322   4.119   6.627   2.059  0.9488 -1.2631 -0.0993
 4141SOL    HW213323   4.191   6.661   1.916 -0.9634 -0.7778 -0.9913
 4142SOL     OW13324   6.551   4.677   2.521 -0.3125  0.0337 -0.3564
 4142SOL    HW113325   6.601   4.593   2.543  0.2060  0.2008 -0.8853
 4142SOL    HW213326   6.537   4.682   2.422 -0.0350  0.7489 -0.3584
 4143SOL     OW13327   0.992   3.594   1.909  0.0066 -0.3013  0.0037
 4143SOL    HW113328   0.972   3.679   1.959  1.6900 -0.4878  1.1001
 4143SOL    HW213329   1.004   3.614   1.812 -4.0576 -0.0287 -0.6115
 4144SOL     OW13330   5.752   2.218   2.928 -0.5945  0.0982 -0.6540
 4144SOL    HW113331   5.787   2.149   2.992 -2.3903 -1.8362 -1.6143
 4144SOL    HW213332   5.829   2.260   2.880  0.6125 -0.8690  0.3480
 4145SOL     OW13333   3.241   0.649   2.430 -0.4552  0.1127  0.7320
 4145SOL    HW113334   3.220   0.614   2.339 -0.5684  1.4792  0.2114
 4145SOL    HW213335   3.336   0.629   2.453  0.8057  3.0226 -1.3296
 4146SOL     OW13336   4.080   2.888   0.263  0.0639 -0.1101 -0.5100
 4146SOL    HW113337   3.998   2.902   0.318  0.6093  1.9025 -0.1258
 4146SOL    HW213338   4.121   2.977   0.242  1.1894 -0.9806 -2.1666
 4147SOL     OW13339   3.600   3.157   6.374  0.1110 -0.2651  0.1105
 4147SOL    HW113340   3.653   3.175   6.457 -0.4812 -1.1084  0.6869
 4147SOL    HW213341   3.502   3.163   6.395 -0.0466  0.5106 -0.7653
 4148SOL     OW13342   6.685   4.604   3.529  0.4457  0.2491  0.1727
 4148SOL    HW113343   6.628   4.523   3.515  1.3346 -0.3487 -0.0824
 4148SOL    HW213344   6.761   4.581   3.591 -0.7272  1.5823  2.2389
 4149SOL     OW13345   5.020   4.361   2.082  0.6329 -0.3317  0.3704
 4149SOL    HW113346   4.931   4.347   2.038 -0.7998  0.3652  2.8664
 4149SOL    HW213347   5.060   4.273   2.105  0.1198 -0.6342  0.1258
 4150SOL     OW13348   4.774   6.291   4.327 -0.1139 -0.0525  0.4268
 4150SOL    HW113349   4.788   6.379   4.281  1.5402 -0.1102  0.7881
 4150SOL    HW213350   4.741   6.307   4.420  0.6846  0.2248  0.6730
 4151SOL     OW13351   0.101   5.137   0.481 -0.0660 -0.5272 -0.0820
 4151SOL    HW113352   0.145   5.219   0.444 -0.2663  0.4437  1.7325
 4151SOL    HW213353   0.169   5.065   0.494  0.4365 -0.0461 -0.0389
 4152SOL     OW13354   3.112   3.401   0.768 -0.4002 -0.0162  0.1664
 4152SOL    HW113355   3.035   3.401   0.704  0.7831  0.6738 -1.3170
 4152SOL    HW213356   3.123   3.493   0.806  0.5441  0.2653 -0.7381
 4153SOL     OW13357   0.069   6.677   6.405  0.2747  0.3472  0.2109
 4153SOL    HW113358   0.000   6.617   6.365  0.0518  0.5714  0.2577
 4153SOL    HW213359   0.135   6.704   6.334 -0.9542  1.9443 -0.3827
 4154SOL     OW13360   5.008   2.765   3.603 -0.4167  0.1798 -0.7911
 4154SOL    HW113361   4.955   2.792   3.523  0.0562 -0.4453 -1.3320
 4154SOL    HW213362   5.095   2.814   3.604  0.3755 -1.1245 -1.6900
 4155SOL     OW13363   1.785   2.689   6.953  0.0074 -0.4182 -0.0365
 4155SOL    HW113364   1.824   2.667   6.863 -0.9528 -0.2396 -0.5043
 4155SOL    HW213365   1.855   2.676   7.023  1.3006  1.1220 -0.9788
 4156SOL     OW13366   6.257   0.144   4.816 -0.0669 -0.0915  0.0745
 4156SOL    HW113367   6.234   0.048   4.833 -1.8298  0.2053 -0.3634
 4156SOL    HW213368   6.297   0.184   4.898 -0.5688 -0.8682  0.7145
 4157SOL     OW13369   5.145   1.131   2.344  0.1450  0.0775  0.0010
 4157SOL    HW113370   5.061   1.092   2.307  0.2570 -0.2811  0.1250
 4157SOL    HW213371   5.172   1.081   2.427  0.8125 -0.2036 -0.3783
 4158SOL     OW13372   3.085   0.330   3.468  0.2122  0.8037  0.1212
 4158SOL    HW113373   3.078   0.248   3.411 -0.4577  0.7904  0.2190
 4158SOL    HW213374   3.127   0.306   3.556  0.9160  0.7579 -0.2185
 4159SOL     OW13375   1.454   5.243   4.789 -0.3902 -0.1098  0.0562
 4159SOL    HW113376   1.436   5.195   4.703 -0.8045  2.5156 -1.4070
 4159SOL    HW213377   1.377   5.229   4.852 -0.0366 -2.1359  0.1023
 4160SOL     OW13378   1.225   0.816   1.455  0.2420  0.1209 -0.3035
 4160SOL    HW113379   1.203   0.741   1.519 -2.2002  0.5773 -0.4848
 4160SOL    HW213380   1.222   0.903   1.504  0.2222  0.3252 -0.6663
 4161SOL     OW13381   4.937   1.904   0.529  0.1873  0.7101 -0.7597
 4161SOL    HW113382   4.987   1.989   0.543  0.9232  0.3389 -1.0917
 4161SOL    HW213383   4.972   1.857   0.448  1.1757 -0.8737  0.5171
 4162SOL     OW13384   1.408   6.867   0.282  0.9017 -0.1595 -0.4479
 4162SOL    HW113385   1.310   6.888   0.285  0.8119 -0.4235 -1.3447
 4162SOL    HW213386   1.458   6.933   0.338  0.3444  0.7899 -1.0509
 4163SOL     OW13387   5.720   0.469   6.115 -0.2544 -0.4170 -0.0988
 4163SOL    HW113388   5.786   0.410   6.163  0.5713 -0.2361 -0.9772
 4163SOL    HW213389   5.691   0.543   6.175  0.6256 -0.2992  0.1893
 4164SOL     OW13390   3.409   6.156   3.753 -0.2607 -0.0474 -0.2786
 4164SOL    HW113391   3.336   6.119   3.811 -0.5213 -0.6855 -0.9912
 4164SOL    HW213392   3.390   6.252   3.732  0.3068  0.4734  1.4147
 4165SOL     OW13393   1.102   6.682   1.543 -0.3081 -0.4251  0.8668
 4165SOL    HW113394   1.109   6.730   1.631 -0.4549  1.7702 -0.2628
 4165SOL    HW213395   1.008   6.653   1.529 -0.4942  0.0831  1.0179
 4166SOL     OW13396   5.797   1.024   2.078  0.2423  0.1734  0.2117
 4166SOL    HW113397   5.715   0.987   2.033  0.1163  0.1552  0.4532
 4166SOL    HW213398   5.865   0.951   2.089  0.2761  0.1797  0.0442
 4167SOL     OW13399   2.520   1.080   0.867 -0.2677  0.0376 -0.1483
 4167SOL    HW113400   2.557   1.128   0.788 -0.6867  1.1799  0.3357
 4167SOL    HW213401   2.422   1.063   0.854 -0.3200  0.1491  0.0876
 4168SOL     OW13402   1.726   4.477   1.321  0.2234 -0.2979  0.4009
 4168SOL    HW113403   1.692   4.490   1.228  1.1057 -2.4776 -0.2728
 4168SOL    HW213404   1.812   4.526   1.332 -1.4141  2.6636  1.1597
 4169SOL     OW13405   6.138   3.475   6.139  0.0213 -0.4237  0.1235
 4169SOL    HW113406   6.078   3.396   6.149 -0.1919 -0.2813 -0.0211
 4169SOL    HW213407   6.221   3.462   6.194 -0.6853 -0.0869  1.3181
 4170SOL     OW13408   2.866   2.145   4.544  0.1678  0.1813 -0.1154
 4170SOL    HW113409   2.897   2.153   4.639 -0.6299  0.4045  0.1325
 4170SOL    HW213410   2.943   2.116   4.487  0.6461 -0.0059  0.6032
 4171SOL     OW13411   5.743   3.269   1.549 -0.5234 -0.0044 -0.6266
 4171SOL    HW113412   5.750   3.368   1.537 -1.3017  0.0915 -0.3477
 4171SOL    HW213413   5.654   3.238   1.516 -0.8933 -0.3813  0.6810
 4172SOL     OW13414   5.279   1.283   0.932 -0.3286 -0.2458 -0.7510
 4172SOL    HW113415   5.213   1.229   0.879  0.4919 -1.0665 -0.9627
 4172SOL    HW213416   5.270   1.260   1.029  0.9424 -1.8361 -0.9713
 4173SOL     OW13417   4.176   3.827   6.512  0.3552 -0.2642  0.5697
 4173SOL    HW113418   4.189   3.750   6.575  2.0803  0.8103  1.5681
 4173SOL    HW213419   4.261   3.847   6.465 -0.5711 -0.1708 -1.1444
 4174SOL     OW13420   5.911   1.141   3.296 -0.0821  0.4116  0.8105
 4174SOL    HW113421   5.850   1.220   3.301  0.2962  0.7898 -0.3336
 4174SOL    HW213422   5.909   1.103   3.204 -0.9727 -1.5116  1.5600
 4175SOL     OW13423   4.121   0.128   2.564 -0.2621 -0.4646 -0.3667
 4175SOL    HW113424   4.109   0.160   2.470 -1.3645  0.5682  0.0849
 4175SOL    HW213425   4.208   0.080   2.572  0.1319 -0.0564 -1.7749
 4176SOL     OW13426   7.021   6.149   2.902  0.6219 -0.1324  0.0054
 4176SOL    HW113427   7.028   6.246   2.878  0.0130 -0.3154 -0.9741
 4176SOL    HW213428   7.062   6.093   2.830  2.2485 -0.5714  1.2205
 4177SOL     OW13429   0.269   4.356   2.429  0.0505 -0.5171  0.4797
 4177SOL    HW113430   0.350   4.303   2.404  0.6937  0.1101  1.2009
 4177SOL    HW213431   0.211   4.300   2.488  0.4644 -0.6075  0.8081
 4178SOL     OW13432   4.899   2.419   5.597  0.2763 -0.0875  0.2330
 4178SOL    HW113433   4.994   2.428   5.626  0.3613 -0.2467  0.0087
 4178SOL    HW213434   4.889   2.454   5.503  0.5471 -1.9689 -0.5373
 4179SOL     OW13435   5.567   2.726   1.842 -0.3154  0.3794 -0.1214
 4179SOL    HW113436   5.659   2.700   1.872 -0.4352  1.1262  0.9176
 4179SOL    HW213437   5.558   2.707   1.744  0.2915 -1.5286  0.1481
 4180SOL     OW13438   4.788   3.121   1.340  0.1209 -0.3778  0.5176
 4180SOL    HW113439   4.706   3.157   1.385 -0.1815  0.1941 -0.4640
 4180SOL    HW213440   4.767   3.102   1.245  1.3199  0.4355  0.0719
 4181SOL     OW13441   0.218   1.810   1.125 -0.4351  0.5767  0.4007
 4181SOL    HW113442   0.304   1.794   1.174  0.7085  0.9943 -1.3313
 4181SOL    HW213443   0.142   1.773   1.177  0.2863  3.3301  3.8008
 4182SOL     OW13444   4.399   1.048   2.307 -0.0558 -0.3358  0.3807
 4182SOL    HW113445   4.330   1.065   2.236  0.4028  1.9515  0.3913
 4182SOL    HW213446   4.353   1.034   2.395 -0.5688 -0.8957  0.0273
 4183SOL     OW13447   1.069   1.943   2.975  0.3042 -0.2221 -0.6134
 4183SOL    HW113448   1.079   1.962   2.877  0.1632  0.5146 -0.4889
 4183SOL    HW213449   1.023   2.020   3.019  3.7692  1.2739  0.7288
 4184SOL     OW13450   3.897   5.310   5.230 -0.0669  0.5108  0.2721
 4184SOL    HW113451   3.987   5.305   5.272  0.3622 -0.5576 -0.7186
 4184SOL    HW213452   3.829   5.270   5.291  0.2585  0.6049  0.6970
 4185SOL     OW13453   1.161   0.413   4.593  0.7332  0.1709  0.1108
 4185SOL    HW113454   1.117   0.351   4.528  2.2618 -0.2651 -0.5759
 4185SOL    HW213455   1.166   0.504   4.553  2.6607 -0.3352 -0.9354
 4186SOL     OW13456   4.870   4.295   1.012  0.8842  0.2866 -0.3435
 4186SOL    HW113457   4.785   4.347   1.012  0.4284 -0.4310 -1.4990
 4186SOL    HW213458   4.863   4.221   1.079  0.8093  0.5370 -0.0692
 4187SOL     OW13459   4.596   5.349   6.088  0.4680  0.2022 -0.0190
 4187SOL    HW113460   4.624   5.270   6.034  1.0342  0.9216 -0.8009
 4187SOL    HW213461   4.527   5.401   6.037 -0.5226 -0.2161  0.8431
 4188SOL     OW13462   4.650   1.149   4.476 -0.0548 -0.0535  0.0055
 4188SOL    HW113463   4.640   1.129   4.378  1.6305 -0.0086 -0.2066
 4188SOL    HW213464   4.747   1.152   4.500 -0.4184 -2.0835  2.1096
 4189SOL     OW13465   0.266   3.705   1.133  0.2229 -0.2774 -0.4170
 4189SOL    HW113466   0.276   3.785   1.075 -0.3821 -0.2826 -0.5384
 4189SOL    HW213467   0.303   3.625   1.085 -0.2311 -0.2740 -0.7848
 4190SOL     OW13468   1.241   5.678   1.665 -0.0609  0.3771  0.6408
 4190SOL    HW113469   1.182   5.651   1.741  0.2857  0.2054  0.8545
 4190SOL    HW213470   1.319   5.729   1.701  1.0685 -1.2546  0.6152
 4191SOL     OW13471   1.992   2.027   2.797 -0.0324  0.0171 -0.3368
 4191SOL    HW113472   1.933   1.972   2.737 -0.2243 -1.0056  0.7588
 4191SOL    HW213473   2.010   1.977   2.882 -0.7573  1.9007  0.9975
 4192SOL     OW13474   0.944   6.506   3.658 -0.6229 -0.0211 -0.5597
 4192SOL    HW113475   0.892   6.456   3.588 -0.3081 -0.2509 -0.6294
 4192SOL    HW213476   0.928   6.604   3.645 -0.0872 -0.0268 -1.3442
 4193SOL     OW13477   2.092   0.496   3.204  0.5284  0.1968 -0.2384
 4193SOL    HW113478   1.998   0.491   3.237  0.6011  0.0585 -0.0494
 4193SOL    HW213479   2.154   0.468   3.277  0.5614 -3.0458 -1.3501
 4194SOL     OW13480   6.245   5.573   4.061 -0.5241  0.3238 -0.5565
 4194SOL    HW113481   6.232   5.583   3.963 -0.7221  1.0240 -0.4642
 4194SOL    HW213482   6.156   5.563   4.106 -0.3874 -0.8880 -0.5347
 4195SOL     OW13483   2.851   6.349   2.419  0.3158  0.2113 -0.4058
 4195SOL    HW113484   2.948   6.332   2.402  1.0340  1.2999  2.0820
 4195SOL    HW213485   2.821   6.429   2.367  2.0359  2.6260  2.0475
 4196SOL     OW13486   6.758   4.013   1.715 -0.6654  0.5931 -0.7426
 4196SOL    HW113487   6.665   3.976   1.705 -0.7173 -0.0931  1.6060
 4196SOL    HW213488   6.810   3.954   1.777  1.3257  1.0631 -1.8860
 4197SOL     OW13489   5.294   2.287   2.585  0.1144  0.0444  0.0754
 4197SOL    HW113490   5.387   2.283   2.621  0.4878  2.3542 -0.4788
 4197SOL    HW213491   5.296   2.286   2.486 -0.3875  0.7462  0.0460
 4198SOL     OW13492   0.009   5.557   6.107  0.0132 -0.3209 -0.3230
 4198SOL    HW113493  -0.089   5.557   6.088  0.0693 -0.3256 -0.6159
 4198SOL    HW213494   0.054   5.626   6.050  0.1188 -0.0055  0.1326
 4199SOL     OW13495   3.239   5.132   1.521  0.0626 -0.0253  0.3543
 4199SOL    HW113496   3.148   5.103   1.550 -0.1721 -0.9264 -1.1469
 4199SOL    HW213497   3.306   5.107   1.590 -0.8271  0.8193  1.5690
 4200SOL     OW13498   4.387   3.138   5.295  0.3054  0.2189 -0.3552
 4200SOL    HW113499   4.429   3.047   5.297 -0.6871 -0.2563  1.1976
 4200SOL    HW213500   4.375   3.171   5.389  1.2371  2.2656 -0.8979
 4201SOL     OW13501   5.810   6.924   4.853 -0.5884  0.0593  0.1046
 4201SOL    HW113502   5.752   6.855   4.895 -0.3293  0.2438  0.7712
 4201SOL    HW213503   5.755   6.984   4.794 -1.3282  1.0588  1.7442
 4202SOL     OW13504   5.470   4.256   4.490 -0.8475  0.4238  0.8654
 4202SOL    HW113505   5.487   4.330   4.426 -1.9265  0.1037  0.1834
 4202SOL    HW213506   5.549   4.195   4.493 -0.3630  1.0434  0.6605
 4203SOL     OW13507   2.593   5.450   2.215 -0.3908  0.0321 -0.1521
 4203SOL    HW113508   2.540   5.442   2.299  0.7541 -0.4288  0.5296
 4203SOL    HW213509   2.559   5.528   2.162 -2.5847 -0.9768 -0.3496
 4204SOL     OW13510   1.209   3.883   1.348  0.1950  0.1384  0.1815
 4204SOL    HW113511   1.309   3.880   1.339  0.2960  0.9241  0.8601
 4204SOL    HW213512   1.169   3.922   1.265  0.3240 -1.4657 -0.6749
 4205SOL     OW13513   1.709   5.260   2.093 -0.1494  0.3637 -0.4780
 4205SOL    HW113514   1.646   5.187   2.119  1.5463 -0.8932  0.2028
 4205SOL    HW213515   1.670   5.348   2.120 -1.4288 -0.4077  0.2846
 4206SOL     OW13516   5.619   0.378   3.400 -0.1149  0.2563 -0.3496
 4206SOL    HW113517   5.544   0.406   3.460 -0.8868 -0.7985 -0.7916
 4206SOL    HW213518   5.620   0.435   3.318  1.7186  2.5585  1.1194
 4207SOL     OW13519   0.719   5.978   0.143  0.2957 -0.0071 -0.3478
 4207SOL    HW113520   0.762   6.056   0.187  0.7574 -0.8343  0.7079
 4207SOL    HW213521   0.705   5.998   0.046 -1.1045  1.9995  0.2123
 4208SOL     OW13522   1.270   3.656   2.143  0.3638 -0.0967 -0.0041
 4208SOL    HW113523   1.210   3.611   2.209 -1.5523  2.1425 -0.0531
 4208SOL    HW213524   1.279   3.599   2.061 -2.8663 -0.0558 -0.5315
 4209SOL     OW13525   4.506   1.289   6.019 -0.5821 -0.3129 -0.3699
 4209SOL    HW113526   4.537   1.197   5.995 -0.1536 -0.3291  0.2186
 4209SOL    HW213527   4.585   1.344   6.048 -0.9188  0.0555 -0.1459
 4210SOL     OW13528   4.006   2.280   6.159  0.1723 -0.9010  0.1430
 4210SOL    HW113529   4.106   2.283   6.171  0.4526 -1.9450 -1.5635
 4210SOL    HW213530   3.985   2.248   6.067 -1.7656 -0.1243  0.2757
 4211SOL     OW13531   6.469   3.559   4.588 -0.3781  0.3179  0.3965
 4211SOL    HW113532   6.548   3.521   4.540  0.6812  4.4046 -1.5433
 4211SOL    HW213533   6.393   3.570   4.524 -0.2837  2.2581  0.5499
 4212SOL     OW13534   5.648   6.038   3.318  0.1815  0.9200  0.6223
 4212SOL    HW113535   5.570   6.053   3.379 -0.6776  1.8474 -0.6436
 4212SOL    HW213536   5.646   5.944   3.284  1.2545  0.0592  2.7498
 4213SOL     OW13537   2.000   6.294   2.849 -0.4553  0.3433 -0.1119
 4213SOL    HW113538   2.050   6.293   2.763 -1.2139  0.4281 -0.5641
 4213SOL    HW213539   1.950   6.381   2.857  1.4109  1.3480  1.4902
 4214SOL     OW13540   2.301   6.328   4.215  0.1273  0.5508  0.4790
 4214SOL    HW113541   2.231   6.257   4.216  1.5799 -0.9977 -0.8971
 4214SOL    HW213542   2.277   6.398   4.147 -1.2101  1.3424  1.7042
 4215SOL     OW13543   0.278   6.807   0.164 -0.0202  0.2369  0.3886
 4215SOL    HW113544   0.316   6.864   0.091 -0.7004  0.3449  0.1073
 4215SOL    HW213545   0.221   6.863   0.224 -1.9517 -0.3730 -0.7678
 4216SOL     OW13546   3.310   3.359   4.677  0.3491  0.2126 -0.0185
 4216SOL    HW113547   3.240   3.410   4.726 -1.8843 -0.3756 -2.3332
 4216SOL    HW213548   3.367   3.422   4.624  0.4658  0.5930  0.5593
 4217SOL     OW13549   6.286   2.084   3.126 -0.0214  0.5769  0.4564
 4217SOL    HW113550   6.249   1.996   3.154 -2.2846  1.3921  0.1964
 4217SOL    HW213551   6.328   2.075   3.035  0.4817 -0.3713  0.7664
 4218SOL     OW13552   2.668   5.686   2.530 -0.2222  0.9798 -0.3030
 4218SOL    HW113553   2.583   5.731   2.503  0.1687  1.3739 -0.8813
 4218SOL    HW213554   2.746   5.733   2.490  0.1533 -0.8332 -1.8375
 4219SOL     OW13555   5.598   0.542   2.886  0.2766  0.6324  0.0901
 4219SOL    HW113556   5.541   0.538   2.968 -0.4114  0.3069 -0.4022
 4219SOL    HW213557   5.695   0.539   2.913  0.0594  0.8976  0.9070
 4220SOL     OW13558   6.520   4.048   2.176 -0.4915 -0.3514 -0.0326
 4220SOL    HW113559   6.544   3.952   2.173 -1.4212 -0.5925 -3.3079
 4220SOL    HW213560   6.602   4.103   2.189  0.5121 -1.5056 -1.2526
 4221SOL     OW13561   5.389   5.252   6.656  0.0433  0.4948 -0.0111
 4221SOL    HW113562   5.397   5.319   6.730 -0.8027 -1.4690  1.9790
 4221SOL    HW213563   5.470   5.194   6.655 -1.3873 -1.6709  1.7458
 4222SOL     OW13564   2.076   2.416   0.481  0.0757  0.6297  0.1085
 4222SOL    HW113565   2.120   2.479   0.545 -0.3764  2.4322 -1.2408
 4222SOL    HW213566   1.981   2.401   0.509  0.6572 -0.8456  1.3646
 4223SOL     OW13567   2.909   3.301   4.679  0.0946  0.3409  0.1425
 4223SOL    HW113568   2.828   3.259   4.720  0.9295 -1.3360  0.1496
 4223SOL    HW213569   2.884   3.389   4.639 -1.3288  0.7533  1.7878
 4224SOL     OW13570   4.866   2.564   5.922 -0.0056  0.8601  0.1060
 4224SOL    HW113571   4.785   2.610   5.885 -0.7175 -0.4608 -0.0278
 4224SOL    HW213572   4.876   2.588   6.019 -1.1542  0.2710  0.3931
 4225SOL     OW13573   5.692   1.110   6.398  0.7059 -0.3685 -0.2205
 4225SOL    HW113574   5.599   1.099   6.362  0.5686 -0.6874  0.2146
 4225SOL    HW213575   5.696   1.192   6.455  0.9504  0.1960 -1.0362
 4226SOL     OW13576   2.235   1.998   2.359  0.0831 -0.3857  0.3129
 4226SOL    HW113577   2.198   2.021   2.449  0.1007  0.1336  0.1879
 4226SOL    HW213578   2.310   2.060   2.337  0.1520 -0.5830 -0.0163
 4227SOL     OW13579   5.083   4.939   0.371 -0.4846 -0.2351  0.6679
 4227SOL    HW113580   5.075   5.002   0.448 -1.0038  0.3452  0.1456
 4227SOL    HW213581   5.180   4.926   0.349 -0.4146  1.9769 -0.5111
 4228SOL     OW13582   3.447   5.769   2.767  0.6299 -0.2573 -0.1213
 4228SOL    HW113583   3.540   5.740   2.789  0.4584 -0.1351  0.8539
 4228SOL    HW213584   3.383   5.725   2.830  0.3928  2.3762  1.6417
 4229SOL     OW13585   5.912   4.308   5.101  0.3563  0.1884  0.2759
 4229SOL    HW113586   5.871   4.230   5.054  0.4792  0.1218  0.2805
 4229SOL    HW213587   5.967   4.361   5.037  0.2634  0.2776  0.2703
 4230SOL     OW13588   2.979   0.445   5.362  0.5233 -0.1636 -0.2351
 4230SOL    HW113589   3.008   0.352   5.386 -0.7641 -0.3973  0.5483
 4230SOL    HW213590   2.883   0.456   5.386 -0.3876  0.2364 -3.5394
 4231SOL     OW13591   5.368   6.506   5.261 -0.1981  0.0379  0.5169
 4231SOL    HW113592   5.360   6.407   5.254 -1.2327 -0.1706  3.4602
 4231SOL    HW213593   5.287   6.544   5.305 -0.2894  2.3810 -1.4050
 4232SOL     OW13594   1.438   2.744   2.028  0.1142  0.6319 -0.0747
 4232SOL    HW113595   1.372   2.678   1.992 -1.4454  1.2837  1.4175
 4232SOL    HW213596   1.478   2.796   1.953 -1.6068  0.6936 -0.9896
 4233SOL     OW13597   5.039   6.240   0.672 -0.1796 -0.1553 -0.1083
 4233SOL    HW113598   5.124   6.285   0.698 -0.8750  0.4124  1.3190
 4233SOL    HW213599   5.048   6.141   0.685  0.1180 -0.0554  0.4811
 4234SOL     OW13600   3.503   2.477   6.171  0.2027 -0.2591  0.0466
 4234SOL    HW113601   3.549   2.557   6.133 -2.4219  1.2151 -0.2356
 4234SOL    HW213602   3.552   2.394   6.143  1.5941  1.0946 -1.7647
 4235SOL     OW13603   0.922   3.232   5.802  0.1385 -0.1675  0.0356
 4235SOL    HW113604   1.003   3.253   5.856  0.2840 -1.6690  0.4438
 4235SOL    HW213605   0.856   3.308   5.809  1.2450  0.8114  0.1512
 4236SOL     OW13606   2.219   2.816   3.473  0.0132 -0.0608  0.3716
 4236SOL    HW113607   2.189   2.911   3.462  0.6257 -0.0741 -1.9673
 4236SOL    HW213608   2.251   2.781   3.385  0.5588 -2.1971  1.3577
 4237SOL     OW13609   0.055   5.694   0.114 -0.6844 -0.0411  0.0732
 4237SOL    HW113610   0.062   5.794   0.106  0.7739 -0.0323  1.0205
 4237SOL    HW213611   0.145   5.654   0.095 -1.2168 -1.1727 -0.1104
 4238SOL     OW13612   5.472   3.995   5.817  0.1513 -0.0316  0.3102
 4238SOL    HW113613   5.512   4.041   5.738 -0.2833 -0.2884 -0.0701
 4238SOL    HW213614   5.541   3.983   5.888  0.2668  1.2054  0.4186
 4239SOL     OW13615   4.872   6.574   5.036 -0.4543 -0.3534 -0.3308
 4239SOL    HW113616   4.847   6.619   5.122 -0.8760 -2.1012  0.5191
 4239SOL    HW213617   4.901   6.642   4.969  0.6410  0.9827  1.4430
 4240SOL     OW13618   1.167   5.213   5.957 -0.0256  0.0630 -0.3340
 4240SOL    HW113619   1.140   5.162   5.875  1.4908 -0.2000 -0.7054
 4240SOL    HW213620   1.257   5.254   5.943 -0.5425  1.5844  0.5393
 4241SOL     OW13621   3.112   1.494   0.376 -0.3001  0.0970 -0.5416
 4241SOL    HW113622   3.164   1.536   0.450 -0.0619  0.4124 -0.8906
 4241SOL    HW213623   3.021   1.468   0.411 -0.4009  0.7710 -0.2918
 4242SOL     OW13624   3.340   0.450   3.068 -0.6231 -0.2701  0.3725
 4242SOL    HW113625   3.403   0.382   3.030 -1.5331  0.1571 -2.0828
 4242SOL    HW213626   3.342   0.445   3.168  3.6553  0.1089  0.4672
 4243SOL     OW13627   3.320   6.697   2.376 -0.0963  0.4195 -0.0697
 4243SOL    HW113628   3.345   6.639   2.299  1.1759  1.7345 -0.6781
 4243SOL    HW213629   3.290   6.786   2.342 -2.8736 -0.0770  0.7925
 4244SOL     OW13630   3.228   6.727   6.982 -0.1329 -0.1990 -0.6216
 4244SOL    HW113631   3.206   6.631   6.965  1.4962 -0.6525 -0.2938
 4244SOL    HW213632   3.298   6.733   7.053  0.9250  1.1558 -1.7380
 4245SOL     OW13633   0.132   1.012   1.482  0.5761  0.3273 -0.5574
 4245SOL    HW113634   0.158   1.095   1.531 -0.3607  0.5072 -0.3359
 4245SOL    HW213635   0.163   0.932   1.534  0.6968  0.5298 -0.3162
 4246SOL     OW13636   3.499   2.064   2.895 -0.1647  0.4990 -0.2203
 4246SOL    HW113637   3.587   2.035   2.856  0.2212  0.3559  0.7271
 4246SOL    HW213638   3.485   2.018   2.983 -1.7646 -0.4274 -0.9093
 4247SOL     OW13639   3.552   4.381   5.965 -0.0816 -0.1678 -0.3772
 4247SOL    HW113640   3.455   4.404   5.980  0.0270 -0.4647  0.8561
 4247SOL    HW213641   3.602   4.464   5.942  0.1359  0.8296  3.1279
 4248SOL     OW13642   2.321   5.243   2.167  0.3421 -0.0224  0.1485
 4248SOL    HW113643   2.349   5.147   2.159  2.5826  0.6527 -0.9489
 4248SOL    HW213644   2.348   5.278   2.256 -2.0797 -0.8251  1.2731
 4249SOL     OW13645   6.381   0.743   5.489  0.5045 -0.2220  0.3308
 4249SOL    HW113646   6.387   0.786   5.399  0.4516  0.6768  0.7369
 4249SOL    HW213647   6.440   0.792   5.553  0.7373 -1.0047  0.7312
 4250SOL     OW13648   1.396   6.613   5.784  0.6289 -0.3277 -0.4830
 4250SOL    HW113649   1.395   6.712   5.767 -0.8675 -0.4341 -1.1631
 4250SOL    HW213650   1.362   6.565   5.703 -1.3347 -1.2136  0.8102
 4251SOL     OW13651   3.710   1.772   5.332 -0.2546 -0.1181 -0.0175
 4251SOL    HW113652   3.791   1.741   5.381 -0.6050 -1.5436 -0.2882
 4251SOL    HW213653   3.715   1.742   5.237 -0.4808  0.9560 -0.3842
 4252SOL     OW13654   1.081   6.925   6.562  0.5118  1.1606  0.4389
 4252SOL    HW113655   1.048   6.882   6.646 -2.0162  0.5292 -0.7992
 4252SOL    HW213656   1.179   6.942   6.570  1.3826 -3.2926  1.6806
 4253SOL     OW13657   3.778   0.465   2.711 -0.3535 -0.5573  0.2835
 4253SOL    HW113658   3.799   0.482   2.807 -0.9918 -2.1670  0.7590
 4253SOL    HW213659   3.685   0.498   2.691  0.5663  1.7812 -0.4110
 4254SOL     OW13660   0.870   1.158   6.545 -0.3430 -0.6061 -0.2037
 4254SOL    HW113661   0.855   1.059   6.544  0.8027 -0.8061  1.0664
 4254SOL    HW213662   0.875   1.191   6.639  0.0678  0.5508 -0.6115
 4255SOL     OW13663   1.124   3.956   3.356 -0.0133  0.1777  0.2833
 4255SOL    HW113664   1.030   3.921   3.349  0.1379 -0.4242  1.1207
 4255SOL    HW213665   1.151   3.995   3.269 -1.4065  1.2883  0.3031
 4256SOL     OW13666   5.038   0.818   0.854  0.3581 -0.2389 -0.0483
 4256SOL    HW113667   5.004   0.725   0.862  0.9818 -0.3934  1.1036
 4256SOL    HW213668   5.137   0.820   0.873  0.0123  0.8871  2.0257
 4257SOL     OW13669   1.023   0.998   1.261  0.3790 -0.6322  0.0950
 4257SOL    HW113670   1.052   1.060   1.333 -1.6288 -1.8960  2.1464
 4257SOL    HW213671   1.092   0.927   1.248  0.9300 -0.1856  0.5178
 4258SOL     OW13672   3.461   4.836   1.502  0.0780 -0.3163  0.6328
 4258SOL    HW113673   3.544   4.871   1.545 -1.1304  1.5877  1.5143
 4258SOL    HW213674   3.387   4.831   1.569 -0.4218 -2.5109 -0.0010
 4259SOL     OW13675   2.479   6.697   1.307  0.3419 -0.0113 -0.2687
 4259SOL    HW113676   2.394   6.748   1.319  0.8473  0.5956  0.8856
 4259SOL    HW213677   2.527   6.690   1.395  0.3137 -2.4792 -0.3660
 4260SOL     OW13678   0.519   7.005   5.313  0.0782  0.5874  0.5590
 4260SOL    HW113679   0.496   6.996   5.216  1.0358  3.7153 -0.0847
 4260SOL    HW213680   0.618   7.003   5.323  0.0156  1.3243  1.3347
 4261SOL     OW13681   1.885   6.183   5.315 -0.1181  0.0036  0.0583
 4261SOL    HW113682   1.867   6.185   5.413 -1.2934  0.5907 -0.1490
 4261SOL    HW213683   1.850   6.097   5.277 -1.8547  0.7893 -0.2089
 4262SOL     OW13684   0.374   3.337   5.012  0.0523  0.4602  0.0015
 4262SOL    HW113685   0.329   3.305   4.928  0.0335  0.7796 -0.1134
 4262SOL    HW213686   0.473   3.322   5.004  0.2727  2.0569 -0.8199
 4263SOL     OW13687   4.104   2.158   2.117 -0.5691  0.5591  0.0210
 4263SOL    HW113688   4.066   2.089   2.056 -0.0160  0.6963 -0.4815
 4263SOL    HW213689   4.166   2.217   2.067  1.6695 -0.7088  1.1231
 4264SOL     OW13690   5.902   3.065   5.919 -0.2094 -0.0806 -0.3989
 4264SOL    HW113691   5.914   2.966   5.920 -0.5846 -0.1541  1.8373
 4264SOL    HW213692   5.856   3.094   6.003  0.0113  2.0185 -0.9432
 4265SOL     OW13693   2.942   6.517   0.003  0.8627 -0.5602 -0.1410
 4265SOL    HW113694   2.982   6.503   0.093  2.1147 -1.5571 -0.8134
 4265SOL    HW213695   2.866   6.454  -0.010 -0.9844  1.2712  1.1028
 4266SOL     OW13696   2.875   4.083   1.580 -0.1460  0.5242  0.0840
 4266SOL    HW113697   2.936   4.142   1.633  0.5946  0.6508 -0.8753
 4266SOL    HW213698   2.930   4.016   1.530 -0.9786 -1.2676  1.4542
 4267SOL     OW13699   1.030   0.843   2.723  0.2428 -0.0369  0.7167
 4267SOL    HW113700   1.007   0.766   2.782  0.8824 -0.0999  0.8800
 4267SOL    HW213701   1.112   0.822   2.670 -1.6609 -1.0357 -2.0968
 4268SOL     OW13702   0.008   4.603   0.407  0.6007 -0.0319  0.2126
 4268SOL    HW113703  -0.074   4.552   0.431  1.2226 -0.7082  0.9718
 4268SOL    HW213704  -0.016   4.699   0.390 -0.3933 -0.3012  0.0282
 4269SOL     OW13705   2.444   1.391   5.060 -0.1333 -0.2736  0.1252
 4269SOL    HW113706   2.453   1.435   4.971  0.0849  0.5204  0.5353
 4269SOL    HW213707   2.500   1.439   5.127 -0.4012 -0.7858  0.7271
 4270SOL     OW13708   3.687   5.948   0.056  0.0615 -0.3773 -0.2963
 4270SOL    HW113709   3.722   5.998  -0.023 -0.7870 -1.2264 -1.2327
 4270SOL    HW213710   3.697   6.004   0.138  0.8693  0.5541 -1.0088
 4271SOL     OW13711   5.522   0.209   1.753  0.3994 -0.2634 -0.9865
 4271SOL    HW113712   5.462   0.151   1.697 -0.2337 -0.0859 -0.4963
 4271SOL    HW213713   5.618   0.190   1.729  0.2604 -2.3254 -0.0592
 4272SOL     OW13714   5.994   6.842   5.354 -0.7548 -0.4775  0.1040
 4272SOL    HW113715   6.077   6.827   5.409 -0.7898 -1.5344 -0.1164
 4272SOL    HW213716   5.945   6.756   5.344 -1.6281  0.0455 -0.1927
 4273SOL     OW13717   3.067   0.023   2.712 -0.1157 -0.5424  0.1025
 4273SOL    HW113718   3.131  -0.023   2.774 -0.0799 -0.4693  0.1198
 4273SOL    HW213719   2.995   0.067   2.764  1.1618  1.4849  0.2711
 4274SOL     OW13720   6.825   6.625   2.407 -0.3183  0.2442  0.2944
 4274SOL    HW113721   6.791   6.538   2.371 -1.6362  0.8697 -0.0096
 4274SOL    HW213722   6.912   6.647   2.363 -0.7418 -0.1521 -0.7692
 4275SOL     OW13723   5.999   3.105   5.091  0.0979  0.6910 -0.5287
 4275SOL    HW113724   5.922   3.125   5.029  0.9955  2.8646 -0.9996
 4275SOL    HW213725   5.964   3.057   5.171 -1.8248  1.8762 -0.5789
 4276SOL     OW13726   2.304   0.752   2.827 -0.2860  0.2480 -0.1301
 4276SOL    HW113727   2.306   0.824   2.896 -0.5102 -0.3054  0.4653
 4276SOL    HW213728   2.295   0.663   2.871 -0.0476 -0.1516 -0.8563
 4277SOL     OW13729   5.536   5.796   3.579  0.0429 -0.3962 -0.2349
 4277SOL    HW113730   5.466   5.792   3.650 -1.0925  1.2704 -1.1688
 4277SOL    HW213731   5.510   5.866   3.512  0.9904 -1.9903 -2.3665
 4278SOL     OW13732   6.411   0.884   2.701  0.2719 -0.1533  0.5251
 4278SOL    HW113733   6.439   0.963   2.647 -0.7662 -0.5375 -0.6299
 4278SOL    HW213734   6.386   0.809   2.640  0.0578 -0.9692  1.5757
 4279SOL     OW13735   1.252   2.399   1.610 -0.3446 -0.3395  0.0904
 4279SOL    HW113736   1.182   2.465   1.638  0.5798  0.6849  0.0418
 4279SOL    HW213737   1.330   2.448   1.573 -0.5437 -1.5673 -2.0626
 4280SOL     OW13738   3.904   7.005   5.151  0.0832  0.1744 -0.2916
 4280SOL    HW113739   3.811   7.020   5.117  0.2464  0.3936 -0.6511
 4280SOL    HW213740   3.965   6.987   5.074 -0.2718 -3.6038  0.1370
 4281SOL     OW13741   1.068   0.213   4.779 -0.0736 -0.4917 -0.2352
 4281SOL    HW113742   1.053   0.286   4.845 -0.5963 -0.6259 -0.2031
 4281SOL    HW213743   1.162   0.217   4.746 -0.4515  1.0312 -1.2279
 4282SOL     OW13744   6.081   4.533   3.218 -0.9046 -0.7191 -0.0944
 4282SOL    HW113745   6.082   4.515   3.120 -0.0409  0.2574 -0.2823
 4282SOL    HW213746   5.989   4.560   3.247 -1.0783 -0.6571 -0.7012
 4283SOL     OW13747   0.179   0.579   5.679  0.2972  0.2744 -0.2826
 4283SOL    HW113748   0.278   0.594   5.674  0.2427  0.3947 -1.3377
 4283SOL    HW213749   0.138   0.602   5.590 -0.6151 -0.2090  0.0048
 4284SOL     OW13750   4.207   6.347   6.373 -0.1215 -0.8808  0.2975
 4284SOL    HW113751   4.237   6.294   6.452 -0.4384  1.2588  1.9510
 4284SOL    HW213752   4.286   6.389   6.328  0.0881 -2.3396 -0.7586
 4285SOL     OW13753   2.884   0.758   6.713 -0.4022  0.1987  0.2619
 4285SOL    HW113754   2.951   0.831   6.701  1.3416 -1.3609  0.0285
 4285SOL    HW213755   2.925   0.685   6.768 -2.3609 -0.2927  1.1483
 4286SOL     OW13756   3.719   6.001   5.156  0.0546 -0.1405  0.2141
 4286SOL    HW113757   3.718   5.994   5.255 -1.6375  0.7066  0.3060
 4286SOL    HW213758   3.709   6.097   5.129 -1.2642 -0.5060 -0.7405
 4287SOL     OW13759   2.423   6.231   2.783 -0.3707 -0.2806  0.5197
 4287SOL    HW113760   2.351   6.277   2.731 -0.7925 -0.7127  0.7120
 4287SOL    HW213761   2.509   6.235   2.731 -0.7827 -0.6966 -0.2244
 4288SOL     OW13762   2.248   5.891   3.236 -0.4490  0.1489 -0.5148
 4288SOL    HW113763   2.282   5.984   3.228 -1.1416  0.3004 -2.1822
 4288SOL    HW213764   2.178   5.886   3.308  0.4427  0.6211  0.4093
 4289SOL     OW13765   6.439   5.754   4.829 -0.4112  0.4495 -0.3555
 4289SOL    HW113766   6.437   5.750   4.929  0.0564  0.0751 -0.3545
 4289SOL    HW213767   6.358   5.802   4.795 -0.9860 -0.1412  0.1649
 4290SOL     OW13768   6.765   6.109   1.905 -0.6959  0.3313  0.0809
 4290SOL    HW113769   6.779   6.020   1.950  3.2324  0.7360  0.0035
 4290SOL    HW213770   6.791   6.102   1.809 -0.6731  1.5012 -0.0080
 4291SOL     OW13771   4.803   4.362   6.896  0.8514 -0.0616 -0.3370
 4291SOL    HW113772   4.821   4.412   6.811 -0.3142  0.8144 -0.1055
 4291SOL    HW213773   4.839   4.414   6.973 -1.8987  1.4603  0.0812
 4292SOL     OW13774   6.607   0.362   0.075 -0.0550 -0.0510  0.3711
 4292SOL    HW113775   6.509   0.379   0.076 -0.1206 -0.3868  1.8498
 4292SOL    HW213776   6.639   0.343   0.168  1.2998 -0.5939 -0.1741
 4293SOL     OW13777   3.169   0.710   6.230  0.2750 -0.3583  0.2631
 4293SOL    HW113778   3.095   0.776   6.218  1.0952  0.1384 -2.7653
 4293SOL    HW213779   3.130   0.618   6.240 -0.7661  0.1216  0.8425
 4294SOL     OW13780   4.889   1.323   0.737  0.1636 -0.1636  0.7423
 4294SOL    HW113781   4.803   1.334   0.787 -0.3230 -1.4703  0.2395
 4294SOL    HW213782   4.937   1.411   0.732 -1.0491  0.5400  1.1784
 4295SOL     OW13783   4.732   0.803   3.604  0.6203  0.1896  0.1288
 4295SOL    HW113784   4.702   0.765   3.692 -2.7397  0.4134 -0.7879
 4295SOL    HW213785   4.741   0.729   3.537  1.9058  0.1764  0.2893
 4296SOL     OW13786   1.599   5.608   6.796 -0.1850  0.2346 -1.0323
 4296SOL    HW113787   1.597   5.696   6.843 -2.0129 -0.3340  0.0731
 4296SOL    HW213788   1.685   5.561   6.817 -0.7607  0.1507  1.5921
 4297SOL     OW13789   4.177   4.965   0.842  0.1686  0.6008  0.4592
 4297SOL    HW113790   4.217   5.056   0.830  0.2822  0.5180  0.1979
 4297SOL    HW213791   4.083   4.973   0.875  0.1509  0.8144  0.3559
 4298SOL     OW13792   1.785   0.397   5.530  0.1824  0.0666 -0.7605
 4298SOL    HW113793   1.773   0.342   5.447 -0.8425  0.0958 -0.6422
 4298SOL    HW213794   1.726   0.478   5.525 -0.8524 -0.5753  0.5532
 4299SOL     OW13795   0.378   3.436   5.834  0.3118  0.0678  0.2358
 4299SOL    HW113796   0.311   3.403   5.900 -1.1834 -0.4490 -1.4662
 4299SOL    HW213797   0.400   3.363   5.769 -0.3892  1.3189 -1.4960
 4300SOL     OW13798   4.372   2.378   1.602  0.3078 -0.3517 -0.0838
 4300SOL    HW113799   4.412   2.468   1.584 -2.0965  1.0184  1.0687
 4300SOL    HW213800   4.414   2.311   1.540  1.8917  1.5933 -1.2559
 4301SOL     OW13801   2.401   5.236   2.960  0.5012 -0.3162 -0.2438
 4301SOL    HW113802   2.302   5.255   2.966  0.5482 -0.2145  0.2393
 4301SOL    HW213803   2.416   5.138   2.952  0.3789 -0.3703  0.1689
 4302SOL     OW13804   4.511   3.855   6.746  0.4125  0.1060  0.0568
 4302SOL    HW113805   4.537   3.811   6.660  1.5768 -0.9200  0.9002
 4302SOL    HW213806   4.420   3.823   6.773 -0.8364  1.8955 -1.7108
 4303SOL     OW13807   4.402   5.799   3.287 -0.1812 -0.1919 -0.0711
 4303SOL    HW113808   4.494   5.760   3.288  0.7135  1.7787 -0.6703
 4303SOL    HW213809   4.381   5.840   3.376  0.2560  0.9038 -0.4528
 4304SOL     OW13810   2.347   3.670   0.671 -0.0296 -0.1937 -0.0372
 4304SOL    HW113811   2.370   3.684   0.575 -0.3846 -1.2031 -0.2831
 4304SOL    HW213812   2.277   3.599   0.678 -1.5777  1.3442  0.8199
 4305SOL     OW13813   3.465   1.318   5.828 -0.1356 -0.2401  0.7918
 4305SOL    HW113814   3.503   1.318   5.736 -2.5433  1.8022 -0.3094
 4305SOL    HW213815   3.366   1.309   5.824 -0.3092 -0.1401  3.2121
 4306SOL     OW13816   6.120   4.805   5.557  0.4764  0.2828 -0.7162
 4306SOL    HW113817   6.147   4.899   5.579  1.5892  0.0822 -1.1706
 4306SOL    HW213818   6.030   4.786   5.597  0.7857  1.1347  0.4350
 4307SOL     OW13819   5.948   2.457   4.817 -0.0418 -0.3304  0.2307
 4307SOL    HW113820   5.990   2.368   4.836 -0.5920 -0.6359  0.0125
 4307SOL    HW213821   5.857   2.460   4.857 -0.0420  0.1253  0.2029
 4308SOL     OW13822   4.231   4.516   5.696  0.2584 -0.4038 -0.3365
 4308SOL    HW113823   4.151   4.576   5.696 -0.3012 -1.1403 -0.9054
 4308SOL    HW213824   4.203   4.423   5.672  0.9292 -1.1507  1.5442
 4309SOL     OW13825   3.453   0.831   1.499  0.5171  0.6605  0.0576
 4309SOL    HW113826   3.410   0.920   1.484  0.7223  0.4970 -1.6414
 4309SOL    HW213827   3.386   0.758   1.484  0.8239  0.4728 -0.4139
 4310SOL     OW13828   6.041   2.574   3.124 -0.4647 -0.4269 -0.7424
 4310SOL    HW113829   6.068   2.505   3.191  0.1431  1.5270  1.1358
 4310SOL    HW213830   5.942   2.568   3.109 -0.3238 -2.1120 -1.1314
 4311SOL     OW13831   1.431   0.314   1.600 -0.0222  0.2190  0.3013
 4311SOL    HW113832   1.372   0.295   1.679  0.2379 -0.1816  0.3989
 4311SOL    HW213833   1.430   0.412   1.582 -0.0565  0.3210  0.8243
 4312SOL     OW13834   6.746   1.721   1.566 -0.1742 -0.2073 -0.1597
 4312SOL    HW113835   6.777   1.646   1.625 -0.2807 -0.4956 -0.4652
 4312SOL    HW213836   6.790   1.806   1.594  0.9059 -0.6083 -0.5975
 4313SOL     OW13837   2.332   2.445   1.262  0.5964 -0.3077  0.8202
 4313SOL    HW113838   2.379   2.404   1.340  1.1216 -0.9312  0.1928
 4313SOL    HW213839   2.314   2.375   1.193  1.0536  0.4005 -0.0598
 4314SOL     OW13840   1.879   0.571   6.226  0.3782  0.2508 -0.6326
 4314SOL    HW113841   1.861   0.545   6.131 -0.7650  0.5124 -0.5043
 4314SOL    HW213842   1.830   0.656   6.247  1.3798  0.7026 -0.0780
 4315SOL     OW13843   2.245   6.252   4.982  0.3776  0.1549  0.3846
 4315SOL    HW113844   2.289   6.262   5.072  0.7153  1.7566  0.0744
 4315SOL    HW213845   2.156   6.298   4.984  0.1528 -0.2594  0.0373
 4316SOL     OW13846   4.153   3.633   6.074  0.3041  0.4050 -0.7696
 4316SOL    HW113847   4.106   3.693   6.009  1.8693  2.0794 -0.4365
 4316SOL    HW213848   4.112   3.644   6.165  1.1425  1.7142 -0.5187
 4317SOL     OW13849   4.874   6.936   3.276 -0.0421 -0.2631  0.2593
 4317SOL    HW113850   4.866   6.857   3.216 -0.5347  0.2459 -0.3684
 4317SOL    HW213851   4.920   7.010   3.227  2.1217 -0.7429  1.4350
 4318SOL     OW13852   2.209   6.007   3.908 -0.0096 -0.0369 -0.2447
 4318SOL    HW113853   2.292   5.961   3.937 -0.1821  0.2005  0.6635
 4318SOL    HW213854   2.129   5.954   3.937 -0.2764  1.6571  2.4981
 4319SOL     OW13855   2.740   5.087   1.955 -0.2110 -0.2958  0.0972
 4319SOL    HW113856   2.707   5.115   2.045 -0.5687  0.5217 -0.2848
 4319SOL    HW213857   2.677   5.021   1.915  0.3191 -1.2171  0.7393
 4320SOL     OW13858   3.229   1.850   1.169  0.1401 -0.2446 -1.0271
 4320SOL    HW113859   3.267   1.759   1.150  0.4543 -0.1449 -0.8651
 4320SOL    HW213860   3.219   1.862   1.268  0.7111  0.1519 -1.0201
 4321SOL     OW13861   1.205   6.564   3.568 -0.1867 -0.5252 -0.1541
 4321SOL    HW113862   1.229   6.492   3.502 -1.5396  0.3752 -1.7057
 4321SOL    HW213863   1.125   6.534   3.621  0.6663 -1.0901  0.8411
 4322SOL     OW13864   1.822   1.807   4.214  0.1851  0.0614  0.1890
 4322SOL    HW113865   1.826   1.750   4.132 -1.9146  0.4271 -0.2219
 4322SOL    HW213866   1.906   1.795   4.267  1.8208  0.1548 -2.2099
 4323SOL     OW13867   5.984   4.535   1.585 -0.0519 -0.0329 -0.2092
 4323SOL    HW113868   5.990   4.463   1.516  1.3551  0.4645 -0.6615
 4323SOL    HW213869   5.984   4.624   1.539 -0.6758  0.2753  0.3820
 4324SOL     OW13870   0.403   4.877   4.387 -0.0038 -0.9918 -0.4858
 4324SOL    HW113871   0.464   4.797   4.391 -0.4281 -1.2733  1.1631
 4324SOL    HW213872   0.424   4.938   4.463 -0.4727 -0.1057 -1.0602
 4325SOL     OW13873   1.244   5.871   1.465 -0.6240 -0.3210 -0.3931
 4325SOL    HW113874   1.213   5.957   1.505  0.4550  0.4157 -1.0837
 4325SOL    HW213875   1.249   5.801   1.536 -0.4453  0.4747  0.3949
 4326SOL     OW13876   6.095   2.112   0.955 -0.3025 -0.0720 -0.1182
 4326SOL    HW113877   6.155   2.159   0.889 -1.1596  0.2254 -0.6998
 4326SOL    HW213878   6.110   2.151   1.046  0.7480 -0.3496 -0.1534
 4327SOL     OW13879   1.379   0.309   3.998 -0.0684  0.2027 -0.7522
 4327SOL    HW113880   1.472   0.314   4.034 -0.2766 -0.6495 -0.0565
 4327SOL    HW213881   1.373   0.236   3.930 -0.4132 -0.3378 -0.1589
 4328SOL     OW13882   1.588   5.688   2.354  0.0734  0.6778 -0.2408
 4328SOL    HW113883   1.666   5.750   2.354  0.0585  0.7921  2.3298
 4328SOL    HW213884   1.588   5.633   2.437 -2.7153  0.8631 -0.0101
 4329SOL     OW13885   0.493   5.186   0.247  0.2404 -0.0484 -0.2296
 4329SOL    HW113886   0.402   5.212   0.279 -0.4338 -1.0675 -1.2253
 4329SOL    HW213887   0.554   5.175   0.326 -1.0775 -1.4529  0.6706
 4330SOL     OW13888   4.139   6.259   5.577  0.0446 -0.0968  0.3627
 4330SOL    HW113889   4.128   6.357   5.560 -0.2787 -0.0236  0.9444
 4330SOL    HW213890   4.194   6.246   5.660 -2.8138 -0.3100  2.3669
 4331SOL     OW13891   5.884   1.574   2.805  0.3428 -0.7618  0.0348
 4331SOL    HW113892   5.975   1.615   2.817  0.2578  0.0920 -1.9041
 4331SOL    HW213893   5.879   1.489   2.858  1.1171  0.7765  2.7895
 4332SOL     OW13894   6.494   5.974   0.608 -0.2332  0.0415 -0.6171
 4332SOL    HW113895   6.558   5.930   0.670  1.0149  0.9723 -1.2033
 4332SOL    HW213896   6.447   6.048   0.655 -2.1303 -1.6431  0.2887
 4333SOL     OW13897   2.787   3.174   5.590  0.2766  0.1581 -0.6761
 4333SOL    HW113898   2.886   3.183   5.584  0.2387 -0.0949 -1.7807
 4333SOL    HW213899   2.750   3.147   5.501 -0.7548 -0.0369 -0.2023
 4334SOL     OW13900   1.151   3.202   2.467 -0.3119  1.0164 -1.0350
 4334SOL    HW113901   1.175   3.255   2.548  0.8164  3.3406 -2.7485
 4334SOL    HW213902   1.230   3.147   2.438 -1.0032 -0.5174 -0.1007
 4335SOL     OW13903   1.399   2.059   2.903 -0.4651  0.2634 -0.1110
 4335SOL    HW113904   1.440   1.972   2.931 -0.9203 -0.4402 -1.5240
 4335SOL    HW213905   1.467   2.131   2.908  0.2887 -0.4337 -0.1616
 4336SOL     OW13906   3.248   5.823   5.780 -0.3920  0.4161  0.2739
 4336SOL    HW113907   3.165   5.767   5.788  0.1289 -0.8261 -2.0164
 4336SOL    HW213908   3.222   5.916   5.756 -1.1846 -0.1945 -1.4573
 4337SOL     OW13909   0.859   4.708   5.130 -0.0610  0.6637  0.1837
 4337SOL    HW113910   0.833   4.753   5.215 -2.6721 -1.8038  0.8188
 4337SOL    HW213911   0.785   4.715   5.064  0.0704 -1.2369 -0.2407
 4338SOL     OW13912   3.950   3.837   6.852  0.1511 -0.0707  0.5433
 4338SOL    HW113913   3.943   3.905   6.780  0.5249 -0.5297  0.0639
 4338SOL    HW213914   3.993   3.877   6.933 -1.7843  0.9257  1.1493
 4339SOL     OW13915   4.521   3.680   5.655  0.4533  0.3611  0.1588
 4339SOL    HW113916   4.438   3.640   5.693  1.6728 -1.1787  1.3622
 4339SOL    HW213917   4.504   3.711   5.561 -1.2600 -0.5996  0.1143
 4340SOL     OW13918   0.630   4.657   0.188 -0.1277 -0.0869  0.4247
 4340SOL    HW113919   0.550   4.615   0.145 -0.5629  0.5796  0.5685
 4340SOL    HW213920   0.629   4.756   0.172  0.7264 -0.0862  0.3367
 4341SOL     OW13921   5.980   6.991   1.368  0.1497  0.4041 -0.4545
 4341SOL    HW113922   6.050   7.037   1.313  0.4775 -0.7972 -1.0986
 4341SOL    HW213923   5.892   6.995   1.320  0.4600 -0.7433 -1.1745
 4342SOL     OW13924   4.990   3.513   1.951 -0.0404  0.0067  0.1897
 4342SOL    HW113925   4.903   3.531   1.905 -0.4927 -1.7422  0.2881
 4342SOL    HW213926   4.980   3.433   2.010  1.0329  1.1072  1.9395
 4343SOL     OW13927   4.039   0.505   0.997 -0.1872 -0.0294  0.2914
 4343SOL    HW113928   4.059   0.458   0.911 -0.9736 -0.3160  0.2618
 4343SOL    HW213929   4.072   0.450   1.073  1.3379  0.6426  0.1599
 4344SOL     OW13930   6.016   3.928   2.792 -0.0852  0.2754  0.1453
 4344SOL    HW113931   5.922   3.899   2.809 -0.3837  1.6903  1.0774
 4344SOL    HW213932   6.075   3.847   2.783 -1.1346 -0.6152  1.0270
 4345SOL     OW13933   2.914   3.222   2.358  0.0886  0.4382 -0.9293
 4345SOL    HW113934   2.933   3.317   2.334  1.3204  0.2428 -0.8136
 4345SOL    HW213935   2.816   3.204   2.349 -0.5752  2.3904  1.5274
 4346SOL     OW13936   1.466   2.436   2.151  0.1618 -0.1631 -0.1714
 4346SOL    HW113937   1.420   2.393   2.073 -0.3538 -0.0872  0.0886
 4346SOL    HW213938   1.551   2.478   2.120 -0.5779  0.8401 -0.9046
 4347SOL     OW13939   5.185   6.697   2.327  0.2301  0.2260  0.1835
 4347SOL    HW113940   5.265   6.674   2.383 -1.6622 -3.0540  1.8384
 4347SOL    HW213941   5.182   6.636   2.248 -0.0137  1.1805 -0.5580
 4348SOL     OW13942   6.522   4.059   5.711  0.3402  0.6045 -0.6478
 4348SOL    HW113943   6.423   4.050   5.724  0.6420 -0.2774  1.4696
 4348SOL    HW213944   6.548   4.155   5.723 -0.2882  0.9147 -1.6469
 4349SOL     OW13945   6.974   3.771   2.691 -0.5069 -0.3844  0.1538
 4349SOL    HW113946   6.991   3.680   2.652 -1.0059 -0.1967 -0.5083
 4349SOL    HW213947   6.885   3.804   2.662 -0.2881  0.3653  0.3106
 4350SOL     OW13948   3.840   6.735   1.880 -0.4529  0.0433  1.1465
 4350SOL    HW113949   3.825   6.817   1.935  0.9711  0.6386  0.6822
 4350SOL    HW213950   3.935   6.706   1.888 -0.5894 -0.7234  0.1633
 4351SOL     OW13951   6.119   6.969   2.164 -0.3975 -0.3144  0.5168
 4351SOL    HW113952   6.127   7.021   2.248  0.5938  1.3745 -0.5719
 4351SOL    HW213953   6.033   6.991   2.118  0.4136  1.0992 -0.3798
 4352SOL     OW13954   2.970   5.252   1.934  0.1164  0.2477  0.2885
 4352SOL    HW113955   2.884   5.203   1.951 -0.5690  1.6804  1.0985
 4352SOL    HW213956   2.976   5.275   1.837 -0.0636 -0.4850  0.0943
 4353SOL     OW13957   1.670   3.304   5.891 -0.1636 -0.0106 -0.4830
 4353SOL    HW113958   1.651   3.390   5.938  0.2806 -0.3544  0.3326
 4353SOL    HW213959   1.700   3.324   5.797  0.7039  0.7721 -0.0593
 4354SOL     OW13960   4.480   4.876   2.408 -0.3927 -0.1619  0.6844
 4354SOL    HW113961   4.567   4.911   2.441 -1.0907  0.0087  2.5185
 4354SOL    HW213962   4.413   4.880   2.482 -0.7603 -4.7013  0.9244
 4355SOL     OW13963   1.981   4.503   4.281 -0.0038  0.4043 -0.4628
 4355SOL    HW113964   2.031   4.566   4.340  1.1799 -0.5661 -0.3785
 4355SOL    HW213965   1.986   4.535   4.187  0.3229  0.6147 -0.3795
 4356SOL     OW13966   5.539   6.691   5.909 -0.6032 -0.1469 -0.1378
 4356SOL    HW113967   5.611   6.654   5.969 -0.2266 -1.2086 -1.2079
 4356SOL    HW213968   5.580   6.750   5.840 -1.1686  2.1505  1.3580
 4357SOL     OW13969   3.359   5.603   2.542 -0.0721 -0.1070  0.3332
 4357SOL    HW113970   3.409   5.667   2.601 -0.7377  2.2486 -1.5159
 4357SOL    HW213971   3.420   5.569   2.470 -0.4379  0.7999 -0.4272
 4358SOL     OW13972   3.825   1.055   1.537  0.1579  0.2814  0.0510
 4358SOL    HW113973   3.804   0.958   1.528  2.1941 -0.2071  0.1529
 4358SOL    HW213974   3.745   1.103   1.574 -0.1929 -1.7258  2.1378
 4359SOL     OW13975   2.131   2.637   2.375  0.2831 -0.0715  0.3000
 4359SOL    HW113976   2.163   2.579   2.301  1.0828  1.8637 -0.9597
 4359SOL    HW213977   2.102   2.581   2.452  3.4808 -2.0480  0.1996
 4360SOL     OW13978   3.288   0.006   4.292 -0.5626 -0.0162 -0.1425
 4360SOL    HW113979   3.330  -0.067   4.345 -1.6780 -1.1939 -0.8089
 4360SOL    HW213980   3.225   0.058   4.350 -2.3833 -1.7936 -0.3998
 4361SOL     OW13981   2.438   0.992   6.833 -0.5399 -0.1540  0.3315
 4361SOL    HW113982   2.356   0.947   6.798  0.4602 -0.3678 -1.9066
 4361SOL    HW213983   2.507   0.923   6.854  0.1152  0.1595 -0.7179
 4362SOL     OW13984   5.807   4.423   3.343 -0.5907 -0.4273 -0.8687
 4362SOL    HW113985   5.741   4.422   3.418  1.3641  0.1313  0.9782
 4362SOL    HW213986   5.798   4.509   3.292 -0.4822  0.2189  0.1657
 4363SOL     OW13987   2.618   6.794   2.209 -0.0246 -0.1356 -0.1362
 4363SOL    HW113988   2.565   6.765   2.129 -0.7219  2.4521 -0.7011
 4363SOL    HW213989   2.641   6.891   2.200  1.8357 -0.3342  1.7776
 4364SOL     OW13990   3.478   3.941   4.555  0.0063 -0.7781  0.2336
 4364SOL    HW113991   3.386   3.978   4.562  0.4920  0.8297 -1.2772
 4364SOL    HW213992   3.544   4.008   4.589  0.6258 -2.2109  2.0385
 4365SOL     OW13993   3.259   0.499   0.284 -0.1754 -0.6273  0.3115
 4365SOL    HW113994   3.275   0.481   0.382  0.5967 -0.2203  0.2685
 4365SOL    HW213995   3.194   0.432   0.248 -0.7552 -0.5594  1.1891
 4366SOL     OW13996   4.632   4.295   3.383  0.6265  0.3626  0.1622
 4366SOL    HW113997   4.648   4.296   3.284 -1.2725  0.1104 -0.1803
 4366SOL    HW213998   4.542   4.258   3.402  1.1420 -0.0285  2.0488
 4367SOL     OW13999   0.663   3.882   3.267  0.2869 -0.0161 -0.2457
 4367SOL    HW114000   0.679   3.783   3.263 -1.4670 -0.3245 -0.3549
 4367SOL    HW214001   0.716   3.921   3.342 -0.2872 -1.3337  0.8920
 4368SOL     OW14002   5.310   4.732   5.311  0.4271  0.5103 -0.3135
 4368SOL    HW114003   5.269   4.648   5.347  0.1319  0.3828 -0.9416
 4368SOL    HW214004   5.246   4.808   5.322 -0.0916  0.2663 -1.5038
 4369SOL     OW14005   2.133   3.072   4.638 -0.1653  0.1512  0.1512
 4369SOL    HW114006   2.172   3.100   4.551 -0.8552 -0.6836 -0.4441
 4369SOL    HW214007   2.190   3.001   4.680  0.8723  1.4627  1.0282
 4370SOL     OW14008   5.503   4.270   1.980 -0.4415  0.6878  0.4185
 4370SOL    HW114009   5.513   4.343   2.048 -0.7921  0.3634  0.8236
 4370SOL    HW214010   5.556   4.293   1.898 -0.0269  1.0924  0.7940
 4371SOL     OW14011   3.903   0.380   5.128  0.3152 -0.4413  0.1678
 4371SOL    HW114012   3.911   0.480   5.122 -0.0381 -0.3891  0.5327
 4371SOL    HW214013   3.919   0.340   5.038 -1.6364  0.0890 -0.4569
 4372SOL     OW14014   1.226   3.698   5.222  0.0926 -0.4885 -0.4672
 4372SOL    HW114015   1.246   3.654   5.309  0.8195 -0.0389 -0.4037
 4372SOL    HW214016   1.292   3.670   5.154 -0.6177 -1.0265 -0.9509
 4373SOL     OW14017   5.281   0.080   6.806  0.2601 -0.2101 -0.0447
 4373SOL    HW114018   5.305  -0.016   6.787 -0.1144 -0.1511 -0.8363
 4373SOL    HW214019   5.353   0.139   6.770  1.6456 -0.2539  2.4054
 4374SOL     OW14020   2.566   2.063   6.224  0.4227 -0.5114 -0.0157
 4374SOL    HW114021   2.527   2.155   6.231  0.4967 -0.4850  0.0542
 4374SOL    HW214022   2.494   1.996   6.242  0.6535 -0.4390  1.3509
 4375SOL     OW14023   4.344   2.258   6.658 -0.0290 -0.5903  0.0116
 4375SOL    HW114024   4.267   2.319   6.680 -1.4256 -1.7181 -1.5055
 4375SOL    HW214025   4.429   2.310   6.661 -0.6361  0.4565  2.8748
 4376SOL     OW14026   2.542   4.392   0.355  0.0382  0.3792 -0.1586
 4376SOL    HW114027   2.628   4.340   0.349 -0.1012  0.0968  0.2426
 4376SOL    HW214028   2.552   4.464   0.424 -0.5578 -0.6673  1.0603
 4377SOL     OW14029   4.577   0.946   6.398 -0.4088  0.5234  0.5195
 4377SOL    HW114030   4.620   0.966   6.310 -1.3074  0.2733  0.0119
 4377SOL    HW214031   4.646   0.913   6.462  0.1686  0.2234 -0.2429
 4378SOL     OW14032   2.434   5.010   1.283  0.4553  0.0762 -0.5524
 4378SOL    HW114033   2.383   5.025   1.198 -0.4915  2.8820  0.3907
 4378SOL    HW214034   2.372   5.015   1.361  1.7763  0.9853  0.4920
 4379SOL     OW14035   6.358   1.081   1.352  0.2012 -0.0657  0.1782
 4379SOL    HW114036   6.269   1.082   1.399  0.4472  0.3682  0.6512
 4379SOL    HW214037   6.366   1.163   1.296  0.8443  0.6011  1.2032
 4380SOL     OW14038   1.044   6.849   6.858  0.2274  0.1716 -0.9711
 4380SOL    HW114039   0.973   6.841   6.928  0.5613  1.5945 -0.4289
 4380SOL    HW214040   1.129   6.879   6.901  0.4050  1.1962 -1.9890
 4381SOL     OW14041   5.126   0.817   4.185  0.4463 -0.3166 -0.5054
 4381SOL    HW114042   5.182   0.886   4.140 -3.0597  1.8200 -2.0049
 4381SOL    HW214043   5.104   0.744   4.119  1.1166 -0.9500 -0.0402
 4382SOL     OW14044   5.193   3.488   2.974  0.8355 -0.1390 -0.0015
 4382SOL    HW114045   5.192   3.401   3.023  1.2660  0.9753  2.0936
 4382SOL    HW214046   5.260   3.550   3.015 -1.3038  2.1411  0.3558
 4383SOL     OW14047   0.848   0.837   1.420 -0.1625 -0.1354 -0.2960
 4383SOL    HW114048   0.792   0.910   1.460  2.3147  1.0559  1.2932
 4383SOL    HW214049   0.902   0.874   1.345  0.2487 -0.6386 -0.2530
 4384SOL     OW14050   5.247   5.771   1.943 -0.0983  0.3899  0.2558
 4384SOL    HW114051   5.328   5.821   1.914  0.6209  0.1319  1.7367
 4384SOL    HW214052   5.165   5.822   1.916  0.5346  0.7854 -1.0145
 4385SOL     OW14053   6.878   2.255   3.321  0.0765 -0.6625  0.8076
 4385SOL    HW114054   6.975   2.241   3.300 -0.1727  0.8223 -1.6783
 4385SOL    HW214055   6.824   2.186   3.273 -0.1996 -0.4031  0.7434
 4386SOL     OW14056   1.462   4.814   6.382  0.1564  0.1587  0.3745
 4386SOL    HW114057   1.472   4.714   6.387 -0.2203  0.1487  0.9985
 4386SOL    HW214058   1.458   4.852   6.474  1.3051  0.8626  0.1494
 4387SOL     OW14059   6.214   3.960   0.865  0.3401  0.2138  0.4717
 4387SOL    HW114060   6.117   3.951   0.885  0.0114  2.3016  0.1122
 4387SOL    HW214061   6.267   3.900   0.925 -1.1441 -0.6295  0.9691
 4388SOL     OW14062   3.618   2.444   0.486  0.1298  0.0048  0.6952
 4388SOL    HW114063   3.594   2.413   0.578 -0.8562  1.7597  1.0821
 4388SOL    HW214064   3.561   2.395   0.419 -0.2610 -0.1699  1.1473
 4389SOL     OW14065   1.521   2.079   2.366  0.4279  0.4223 -0.0372
 4389SOL    HW114066   1.578   2.069   2.285  0.7308  0.7535  0.1356
 4389SOL    HW214067   1.501   2.176   2.381  0.1502  0.3393  0.1296
 4390SOL     OW14068   4.003   2.691   1.236 -0.2625  0.3172  0.6222
 4390SOL    HW114069   4.096   2.663   1.260  0.5434  1.4755 -0.9469
 4390SOL    HW214070   3.979   2.774   1.285  0.2466  1.0158 -0.2711
 4391SOL     OW14071   1.215   5.169   6.969  0.0351  0.2714  0.0041
 4391SOL    HW114072   1.199   5.208   6.878 -1.5830  0.6732  0.4420
 4391SOL    HW214073   1.260   5.236   7.027  0.5650  0.2045 -0.3220
 4392SOL     OW14074   6.043   5.643   5.108  0.2468  0.5259  0.2511
 4392SOL    HW114075   6.018   5.642   5.011  2.6165  1.9658 -0.4734
 4392SOL    HW214076   6.031   5.736   5.144  0.0265  0.1528  1.1498
 4393SOL     OW14077   5.628   5.769   2.446  0.5239  0.1832 -0.3421
 4393SOL    HW114078   5.685   5.826   2.505  1.3626 -0.3967 -0.5760
 4393SOL    HW214079   5.540   5.814   2.431  0.2478  0.2852  1.4286
 4394SOL     OW14080   3.555   1.185   1.293 -0.1073  0.2832  0.2322
 4394SOL    HW114081   3.487   1.214   1.225 -0.9348 -0.4561  0.7217
 4394SOL    HW214082   3.508   1.150   1.374  0.8641  0.0035  0.6858
 4395SOL     OW14083   5.081   3.401   0.612  0.1221  0.1669  0.0956
 4395SOL    HW114084   5.047   3.495   0.604 -0.8833 -0.0320  1.6070
 4395SOL    HW214085   5.042   3.359   0.693  0.9311 -1.4228 -0.3088
 4396SOL     OW14086   1.349   2.313   1.910 -0.1923  0.0217  0.2671
 4396SOL    HW114087   1.310   2.319   1.818 -2.1490 -0.1037  1.0369
 4396SOL    HW214088   1.394   2.224   1.920  1.5173  0.6802 -1.0715
 4397SOL     OW14089   5.535   3.263   0.147  0.0071 -0.1180  0.1488
 4397SOL    HW114090   5.540   3.327   0.224  2.2016  0.2670 -0.2645
 4397SOL    HW214091   5.448   3.214   0.151 -1.9499  3.0798  0.3151
 4398SOL     OW14092   0.727   4.004   5.975 -0.3245 -0.0724 -0.4658
 4398SOL    HW114093   0.787   4.050   5.910  0.4632 -0.5067 -0.0570
 4398SOL    HW214094   0.660   4.069   6.010  1.0473  0.8886  0.4291
 4399SOL     OW14095   2.351   7.020   6.490  0.0440  0.1525 -0.1009
 4399SOL    HW114096   2.252   7.024   6.482 -0.0234  0.6564  0.9177
 4399SOL    HW214097   2.385   7.099   6.540  1.0177  0.2401 -0.8526
 4400SOL     OW14098   3.699   5.858   2.909  0.4899  0.2374  0.1175
 4400SOL    HW114099   3.636   5.930   2.880  0.3294  0.7187  1.6101
 4400SOL    HW214100   3.781   5.861   2.851 -0.1923  0.5723 -0.8595
 4401SOL     OW14101   3.136   6.472   4.150 -0.4086  0.1521  0.4378
 4401SOL    HW114102   3.183   6.555   4.180 -0.0949 -0.1545  0.7952
 4401SOL    HW214103   3.203   6.405   4.119 -0.7414  0.6253 -1.4066
 4402SOL     OW14104   6.393   0.958   0.832  0.3269 -0.4677 -0.1511
 4402SOL    HW114105   6.345   0.994   0.911  0.7224  0.5287 -0.3387
 4402SOL    HW214106   6.487   0.933   0.858  0.2668 -0.7101 -0.1689
 4403SOL     OW14107   5.903   1.601   4.740 -0.1456 -0.0785 -0.2921
 4403SOL    HW114108   5.919   1.679   4.801  0.3474  0.4690 -1.1016
 4403SOL    HW214109   5.830   1.623   4.676 -1.9525 -1.3216  1.2100
 4404SOL     OW14110   0.393   1.845   1.975  0.3463 -0.6247  0.1805
 4404SOL    HW114111   0.427   1.858   2.068 -0.6479  1.4084  0.3097
 4404SOL    HW214112   0.420   1.923   1.918 -0.7513 -0.8554 -0.7041
 4405SOL     OW14113   0.838   4.033   6.532  0.0722 -0.4059  0.1515
 4405SOL    HW114114   0.802   4.091   6.605  1.3850  1.4560 -0.6106
 4405SOL    HW214115   0.847   4.087   6.448  2.7462 -1.2686 -0.1986
 4406SOL     OW14116   5.862   2.418   2.260 -0.3164 -0.2476 -0.4609
 4406SOL    HW114117   5.762   2.429   2.259 -0.3470 -0.1951  1.0465
 4406SOL    HW214118   5.889   2.367   2.341  1.0308  1.3487  0.1431
 4407SOL     OW14119   6.550   6.637   0.782 -0.1260  0.5371  0.3257
 4407SOL    HW114120   6.624   6.676   0.836  0.2587 -2.0303  1.8144
 4407SOL    HW214121   6.463   6.649   0.830  0.1432 -1.2859  1.3277
 4408SOL     OW14122   4.332   5.217   0.634  0.4369 -0.5133  0.5857
 4408SOL    HW114123   4.349   5.286   0.704  0.7773  1.2343 -1.1236
 4408SOL    HW214124   4.380   5.243   0.549 -3.1597 -0.3060 -1.5786
 4409SOL     OW14125   3.669   1.369   4.442  0.5040  0.0491  0.2132
 4409SOL    HW114126   3.666   1.459   4.397  1.5862 -0.1175 -0.2065
 4409SOL    HW214127   3.664   1.382   4.541  1.2624  0.6102  0.1856
 4410SOL     OW14128   2.058   5.364   1.047 -0.7016 -0.3977 -0.2015
 4410SOL    HW114129   2.052   5.265   1.034  1.6741 -0.5155 -0.7136
 4410SOL    HW214130   2.119   5.385   1.124 -0.1791  0.6832 -0.8820
 4411SOL     OW14131   3.356   3.988   2.357  0.7232  0.2224  0.6502
 4411SOL    HW114132   3.299   3.915   2.394  0.4772  0.0749 -0.0086
 4411SOL    HW214133   3.380   4.052   2.430  1.4194 -0.8166  1.3539
 4412SOL     OW14134   3.099   2.210   6.013  0.5066 -0.5624  0.1260
 4412SOL    HW114135   3.097   2.289   6.075  2.9469  1.2121 -1.8518
 4412SOL    HW214136   3.051   2.234   5.929 -1.8314 -2.5636  0.7759
 4413SOL     OW14137   3.976   6.598   3.788 -0.4676  0.0418  0.4394
 4413SOL    HW114138   4.027   6.610   3.703 -0.8165 -0.6924  0.1107
 4413SOL    HW214139   3.937   6.685   3.817  0.0878  0.3979  0.1316
 4414SOL     OW14140   4.968   5.571   2.629  0.0207  0.1657  0.2793
 4414SOL    HW114141   4.910   5.507   2.580 -0.2444 -0.1528  0.9837
 4414SOL    HW214142   5.048   5.593   2.574 -1.7393  2.2559 -1.6564
 4415SOL     OW14143   3.854   6.348   2.214 -0.3876 -0.2234  0.4342
 4415SOL    HW114144   3.913   6.333   2.293 -0.7790 -1.0567  0.5791
 4415SOL    HW214145   3.775   6.287   2.219 -0.0915 -0.7593 -0.9311
 4416SOL     OW14146   2.396   1.844   6.283 -0.1303  0.2276 -0.3553
 4416SOL    HW114147   2.339   1.797   6.215 -2.5639  1.0859  0.9698
 4416SOL    HW214148   2.446   1.777   6.337  1.0127 -0.5072 -2.2299
 4417SOL     OW14149   6.580   0.329   3.133  0.2753 -0.0348  0.1544
 4417SOL    HW114150   6.612   0.305   3.041  0.2971 -0.4215  0.2629
 4417SOL    HW214151   6.632   0.278   3.201 -0.9949 -1.1635  0.3108
 4418SOL     OW14152   5.834   2.065   4.602  0.2674  0.2630 -0.2870
 4418SOL    HW114153   5.779   2.004   4.546  0.7915  0.7032 -1.3000
 4418SOL    HW214154   5.774   2.119   4.661 -0.2651 -0.4038 -0.1967
 4419SOL     OW14155   5.739   5.559   0.251  0.0769  0.2390  0.1544
 4419SOL    HW114156   5.753   5.542   0.349  0.3994 -2.1046 -0.2429
 4419SOL    HW214157   5.723   5.657   0.237 -0.1657  0.6260  2.5531
 4420SOL     OW14158   5.978   1.140   1.915 -0.1900 -0.4054 -0.1031
 4420SOL    HW114159   5.922   1.082   1.975  0.3809  2.6844  3.7637
 4420SOL    HW214160   5.918   1.201   1.863 -0.5591 -1.1928 -0.6387
 4421SOL     OW14161   0.653   2.247   2.652  0.6925 -0.1531 -0.3289
 4421SOL    HW114162   0.637   2.319   2.584 -0.2615 -0.0826 -0.0396
 4421SOL    HW214163   0.606   2.271   2.737  1.0504 -0.7275  0.0324
 4422SOL     OW14164   6.943   3.657   5.475 -0.3045  0.3662  0.0991
 4422SOL    HW114165   6.874   3.624   5.411 -0.2501 -1.3269  0.8646
 4422SOL    HW214166   6.898   3.706   5.551 -0.5432  0.4095 -0.0697
 4423SOL     OW14167   0.183   1.425   5.807 -0.1039  0.1352 -0.3746
 4423SOL    HW114168   0.250   1.459   5.741  2.1768 -2.3833  0.4677
 4423SOL    HW214169   0.114   1.370   5.759  0.6230 -0.3821 -0.8394
 4424SOL     OW14170   1.020   5.338   4.214  0.6573  0.2496  0.0455
 4424SOL    HW114171   1.002   5.290   4.300  1.2251 -1.5603 -0.7957
 4424SOL    HW214172   1.109   5.310   4.178 -0.1684 -0.1070 -1.8226
 4425SOL     OW14173   6.026   3.690   0.379 -0.5075  0.1951  0.0001
 4425SOL    HW114174   6.038   3.623   0.452 -0.5884 -0.7202 -0.8169
 4425SOL    HW214175   6.083   3.770   0.398 -1.3983  0.4780  1.6431
 4426SOL     OW14176   0.644   5.993   6.178 -0.0707  0.3176 -0.1427
 4426SOL    HW114177   0.662   6.059   6.104  0.1504 -0.3472 -0.6925
 4426SOL    HW214178   0.691   6.023   6.261 -0.9438  1.4834 -0.0314
 4427SOL     OW14179   0.637   5.428   3.947  0.0282  0.2358  0.0834
 4427SOL    HW114180   0.708   5.383   4.001  0.7726  1.6594  0.3146
 4427SOL    HW214181   0.547   5.397   3.980  0.4994 -0.2084  1.0049
 4428SOL     OW14182   1.855   0.982   0.049  0.4492 -0.7090 -0.0927
 4428SOL    HW114183   1.793   0.923   0.101 -0.7645  1.1555  0.6708
 4428SOL    HW214184   1.932   0.928   0.015 -0.8516 -2.8029  0.1466
 4429SOL     OW14185   2.702   5.760   2.071  0.5889 -0.5414 -0.5462
 4429SOL    HW114186   2.614   5.774   2.117  0.7534 -2.9166  0.7033
 4429SOL    HW214187   2.688   5.757   1.972 -0.3595  1.1587 -0.5030
 4430SOL     OW14188   1.305   5.794   2.109  0.4257  0.2907  0.2283
 4430SOL    HW114189   1.305   5.694   2.105  1.0649  0.1491  2.4647
 4430SOL    HW214190   1.366   5.825   2.183 -1.3480  2.2266  0.9943
 4431SOL     OW14191   0.449   1.094   1.720 -0.3088  0.3997 -0.6629
 4431SOL    HW114192   0.409   1.025   1.659 -0.3833  1.1187 -1.4391
 4431SOL    HW214193   0.488   1.048   1.800  0.4985 -0.6461 -1.6200
 4432SOL     OW14194   3.595   3.186   5.348  0.4102  0.1350  0.1488
 4432SOL    HW114195   3.556   3.256   5.288  0.3393  1.0168  1.1907
 4432SOL    HW214196   3.522   3.147   5.404  0.6169 -0.0521  0.2844
 4433SOL     OW14197   0.017   5.750   3.350  0.4472 -0.4112  0.2573
 4433SOL    HW114198   0.060   5.744   3.260  0.2613  0.4552  0.1003
 4433SOL    HW214199   0.079   5.712   3.419 -0.2878 -3.1358 -0.4637
 4434SOL     OW14200   5.459   1.816   5.051 -0.6077  0.1288  0.4875
 4434SOL    HW114201   5.433   1.852   4.961 -1.6840 -0.4143  0.5537
 4434SOL    HW214202   5.406   1.732   5.069  0.6228 -0.5493  1.0287
 4435SOL     OW14203   3.578   2.504   1.452 -0.1471  0.1691  0.1651
 4435SOL    HW114204   3.595   2.506   1.551  0.3681  0.1818  0.0770
 4435SOL    HW214205   3.497   2.449   1.434  0.3294 -0.6641  0.5097
 4436SOL     OW14206   0.106   1.876   1.461  0.3833  0.3308 -0.2195
 4436SOL    HW114207   0.025   1.901   1.515 -0.9137  2.3137 -2.8180
 4436SOL    HW214208   0.078   1.820   1.383  1.1243  2.3991 -2.0877
 4437SOL     OW14209   4.466   5.232   6.320  0.0757 -0.8276  0.5729
 4437SOL    HW114210   4.402   5.240   6.396 -0.1108  1.2584  0.2387
 4437SOL    HW214211   4.424   5.265   6.236  0.9783 -1.1613 -0.0335
 4438SOL     OW14212   3.207   2.550   0.230 -0.2187  0.0458 -0.3409
 4438SOL    HW114213   3.193   2.554   0.329  0.9885 -0.3934 -0.1335
 4438SOL    HW214214   3.290   2.601   0.206 -0.9213  0.8214 -1.2364
 4439SOL     OW14215   0.152   2.257   4.049  0.4112 -0.1947 -0.7991
 4439SOL    HW114216   0.213   2.284   3.975  0.1279  1.1775 -0.5538
 4439SOL    HW214217   0.206   2.217   4.124  0.7091 -1.4471 -1.6507
 4440SOL     OW14218   0.528   1.379   1.473 -0.0007  0.3914 -0.2400
 4440SOL    HW114219   0.522   1.361   1.571 -2.0750  0.6503 -0.2720
 4440SOL    HW214220   0.511   1.294   1.423 -1.0892  0.6707 -0.3629
 4441SOL     OW14221   5.607   6.501   4.294 -0.2491  0.0452  0.3009
 4441SOL    HW114222   5.568   6.475   4.206 -0.1814  3.4108 -0.8548
 4441SOL    HW214223   5.706   6.484   4.293  0.1247  1.9826 -1.1715
 4442SOL     OW14224   2.442   5.911   0.514 -0.2634 -0.2025  0.6077
 4442SOL    HW114225   2.472   5.875   0.602  1.5692 -0.0887  0.0512
 4442SOL    HW214226   2.436   6.011   0.519 -1.1734 -0.2543  0.8763
 4443SOL     OW14227   1.502   1.338   1.213  0.3089  0.1873 -0.3569
 4443SOL    HW114228   1.455   1.290   1.140  0.2059  0.0452 -0.1985
 4443SOL    HW214229   1.462   1.428   1.225  0.2963  0.1937 -0.4449
 4444SOL     OW14230   5.527   3.327   4.449  0.8269  0.4777 -0.0337
 4444SOL    HW114231   5.521   3.269   4.531  0.4268 -0.0783 -0.4502
 4444SOL    HW214232   5.441   3.377   4.437  0.3270 -0.5513 -0.9152
 4445SOL     OW14233   6.446   2.423   1.075 -0.0022 -0.0476 -0.6596
 4445SOL    HW114234   6.513   2.434   1.148  0.8820 -0.7392 -1.3447
 4445SOL    HW214235   6.492   2.390   0.992 -1.0334  0.4345 -1.4397
 4446SOL     OW14236   0.550   3.939   5.322  1.0343  0.2639 -0.4649
 4446SOL    HW114237   0.499   3.869   5.371  1.1290  1.3979  1.3269
 4446SOL    HW214238   0.644   3.907   5.306  0.7311 -0.4913 -0.7713
 4447SOL     OW14239   4.566   2.748   5.043 -0.3378  0.6190 -0.3753
 4447SOL    HW114240   4.558   2.674   4.977 -1.1305  0.4012 -0.0481
 4447SOL    HW214241   4.542   2.835   4.999  1.1392  0.7796 -0.9109
 4448SOL     OW14242   3.119   2.069   6.747 -0.7703  0.8308 -0.3059
 4448SOL    HW114243   3.185   2.095   6.676  0.2097 -0.1947  0.1946
 4448SOL    HW214244   3.061   1.995   6.713 -0.2359  0.2725 -0.0150
 4449SOL     OW14245   5.488   1.598   6.335 -0.1657  0.0617 -0.0132
 4449SOL    HW114246   5.560   1.642   6.389 -1.3517 -0.2825  1.9815
 4449SOL    HW214247   5.481   1.502   6.361 -1.9774  0.3208  0.6459
 4450SOL     OW14248   2.963   3.806   3.342  0.6210  0.0566  0.3035
 4450SOL    HW114249   3.006   3.841   3.258 -1.0064 -1.4813 -1.2618
 4450SOL    HW214250   2.920   3.718   3.323 -1.3858  0.5219  2.2947
 4451SOL     OW14251   0.693   4.936   0.267 -0.2086  0.3537 -0.2075
 4451SOL    HW114252   0.643   5.022   0.265  1.0606  1.1263 -2.0692
 4451SOL    HW214253   0.744   4.929   0.353 -0.2020  1.5509 -0.0957
 4452SOL     OW14254   0.874   4.539   6.591  0.1746 -0.3976 -0.4563
 4452SOL    HW114255   0.961   4.587   6.606  0.2239 -0.2775 -1.1063
 4452SOL    HW214256   0.842   4.502   6.678  1.8768 -2.1540 -0.5047
 4453SOL     OW14257   4.320   0.271   4.314  0.3162 -0.6299 -0.0992
 4453SOL    HW114258   4.333   0.309   4.406  0.5618 -0.2009 -0.3120
 4453SOL    HW214259   4.274   0.182   4.322 -0.5758 -0.1447  0.3765
 4454SOL     OW14260   5.592   2.688   2.631 -0.0152  0.5051  0.4507
 4454SOL    HW114261   5.638   2.606   2.597  0.0266  0.5963  0.2838
 4454SOL    HW214262   5.601   2.693   2.730  2.0247  1.5388  0.2538
 4455SOL     OW14263   3.263   2.106   1.759  0.4008  0.1004  0.1587
 4455SOL    HW114264   3.267   2.027   1.697  1.7308  1.3730 -1.4651
 4455SOL    HW214265   3.339   2.102   1.823  1.0849  0.5920 -0.6139
 4456SOL     OW14266   6.009   6.515   2.035  0.4917 -0.1054  0.6472
 4456SOL    HW114267   6.063   6.435   2.064 -0.0202 -0.0666  1.7646
 4456SOL    HW214268   6.069   6.595   2.032  0.8884 -0.4145  0.0690
 4457SOL     OW14269   4.091   2.698   6.018  0.1806 -0.2295 -0.4328
 4457SOL    HW114270   4.041   2.676   6.101  1.9148  1.2734  1.0880
 4457SOL    HW214271   4.042   2.768   5.966 -0.1921 -0.0980  0.0990
 4458SOL     OW14272   2.912   1.936   0.295 -0.5487  0.1433  0.3233
 4458SOL    HW114273   2.925   1.994   0.215  1.4068 -0.3006  0.2691
 4458SOL    HW214274   2.815   1.930   0.317 -0.9584  1.7334 -0.9124
 4459SOL     OW14275   0.428   4.811   4.698 -0.0612  0.1680 -0.0371
 4459SOL    HW114276   0.470   4.722   4.714  0.9228  0.8394  1.2803
 4459SOL    HW214277   0.332   4.808   4.725 -0.1587 -0.6131 -0.4463
 4460SOL     OW14278   0.199   2.351   0.509  0.4910  0.3525 -0.3079
 4460SOL    HW114279   0.291   2.312   0.509  0.0758 -0.6423 -0.3344
 4460SOL    HW214280   0.132   2.280   0.490 -0.2429  1.1929 -0.9733
 4461SOL     OW14281   2.456   1.153   6.589 -0.0354 -0.4846  0.6956
 4461SOL    HW114282   2.434   1.219   6.661  1.0519 -0.2545  0.8276
 4461SOL    HW214283   2.541   1.106   6.611  0.1621 -0.6204 -0.2957
 4462SOL     OW14284   0.590   3.335   1.065  0.0248 -0.3491  0.3619
 4462SOL    HW114285   0.631   3.338   0.974  1.1244  0.4520  0.8590
 4462SOL    HW214286   0.662   3.335   1.134 -0.7934 -0.9899  1.2464
 4463SOL     OW14287   6.345   5.407   6.130  0.0247  0.1576  0.0820
 4463SOL    HW114288   6.270   5.371   6.075  1.8775 -0.8643 -1.9455
 4463SOL    HW214289   6.362   5.345   6.207 -1.9339  1.0681  1.3386
 4464SOL     OW14290   6.637   3.611   5.785 -0.9524  0.3966  0.2296
 4464SOL    HW114291   6.642   3.650   5.877 -2.5164  0.5421  0.2690
 4464SOL    HW214292   6.677   3.519   5.786  0.5663  1.0204  0.6607
 4465SOL     OW14293   6.185   5.236   2.916 -0.7301  0.4052  0.6667
 4465SOL    HW114294   6.217   5.155   2.965  2.0246  2.2641  2.2364
 4465SOL    HW214295   6.202   5.225   2.818  0.5142 -0.5349  0.9623
 4466SOL     OW14296   6.723   5.153   4.878 -0.3114 -0.6693  0.0374
 4466SOL    HW114297   6.810   5.200   4.894  0.1150 -1.6377  0.7197
 4466SOL    HW214298   6.705   5.148   4.780  0.0628  0.1404 -0.0748
 4467SOL     OW14299   1.432   0.716   4.933  0.2724 -0.0962 -0.1102
 4467SOL    HW114300   1.415   0.623   4.902  0.2693  0.1616 -0.9074
 4467SOL    HW214301   1.495   0.761   4.870  2.9727 -0.6082  2.0459
 4468SOL     OW14302   0.080   0.707   0.795  0.2646 -0.2413  0.5623
 4468SOL    HW114303   0.018   0.772   0.752  0.0911 -1.3018 -0.8677
 4468SOL    HW214304   0.163   0.755   0.824 -0.7352  0.9855  1.4977
 4469SOL     OW14305   5.138   6.283   6.655 -0.5317  0.4814 -0.0354
 4469SOL    HW114306   5.188   6.210   6.608 -1.4174  0.3211 -0.7591
 4469SOL    HW214307   5.079   6.243   6.724 -2.7099  0.2268 -1.9205
 4470SOL     OW14308   5.040   4.806   2.887  0.9006  0.0390  0.2473
 4470SOL    HW114309   5.002   4.883   2.835  1.0215  1.3257  1.9792
 4470SOL    HW214310   5.140   4.810   2.884  0.9085 -0.2174  0.1224
 4471SOL     OW14311   6.431   1.105   3.575 -0.9759 -0.6952 -0.3079
 4471SOL    HW114312   6.499   1.061   3.634 -2.2608 -0.9120  1.0836
 4471SOL    HW214313   6.360   1.039   3.551 -1.6634 -0.0139 -0.2013
 4472SOL     OW14314   0.993   5.752   2.328  0.1197  0.2445 -0.1634
 4472SOL    HW114315   1.028   5.696   2.252  1.1857  0.5806  0.0601
 4472SOL    HW214316   0.903   5.718   2.355 -1.1733  1.2804 -2.8258
 4473SOL     OW14317   5.980   5.850   2.934 -0.2854 -0.3407  0.2997
 4473SOL    HW114318   5.920   5.866   2.856 -1.8995  1.1223  1.7383
 4473SOL    HW214319   5.953   5.766   2.981  0.8566 -1.3648 -0.8102
 4474SOL     OW14320   4.749   1.069   6.836  0.1517 -0.8658  0.2163
 4474SOL    HW114321   4.822   1.083   6.769 -2.6700 -0.1603 -3.0131
 4474SOL    HW214322   4.748   0.973   6.864  1.3496 -1.2237 -0.8698
 4475SOL     OW14323   1.226   3.512   1.343 -0.6954 -0.0584  0.3746
 4475SOL    HW114324   1.307   3.488   1.290 -1.7664 -0.9683 -0.9191
 4475SOL    HW214325   1.221   3.454   1.424  0.1785  0.3331  0.7218
 4476SOL     OW14326   1.388   6.156   2.936  0.3879  0.9843 -0.0925
 4476SOL    HW114327   1.371   6.227   3.005 -0.0448  0.2495  0.5818
 4476SOL    HW214328   1.421   6.074   2.982  1.2325  0.8590 -0.9066
 4477SOL     OW14329   1.386   2.895   0.515  0.1177 -0.2783  0.2502
 4477SOL    HW114330   1.375   2.796   0.519 -1.1853 -0.2090 -0.9019
 4477SOL    HW214331   1.434   2.927   0.597 -1.1800 -1.6441  1.6040
 4478SOL     OW14332   1.809   5.144   3.152  0.6547 -1.1222  0.0639
 4478SOL    HW114333   1.839   5.225   3.203  1.9301  0.0289 -2.3720
 4478SOL    HW214334   1.787   5.071   3.216 -0.0608  0.9517  2.3499
 4479SOL     OW14335   2.064   0.016   6.531  0.2557 -0.7454 -0.7716
 4479SOL    HW114336   2.049   0.028   6.629  3.3636 -0.1633 -0.2712
 4479SOL    HW214337   2.047  -0.080   6.506 -3.0689 -0.4147 -0.2999
 4480SOL     OW14338   6.355   3.193   3.317  0.2705  0.5800  0.1141
 4480SOL    HW114339   6.290   3.270   3.313 -0.6626 -0.2180 -0.5189
 4480SOL    HW214340   6.308   3.109   3.291  1.1841 -0.2842  1.1904
 4481SOL     OW14341   0.488   0.487   5.152 -0.3826  0.0124  0.5911
 4481SOL    HW114342   0.493   0.408   5.212  0.1386 -1.8037 -1.6910
 4481SOL    HW214343   0.580   0.512   5.122 -0.7343 -0.4565 -1.0078
 4482SOL     OW14344   6.652   2.914   3.273  0.1405  0.4663 -0.8046
 4482SOL    HW114345   6.707   2.932   3.355  1.0737 -1.1345 -1.0320
 4482SOL    HW214346   6.708   2.925   3.192 -0.3502  0.4899 -1.1425
 4483SOL     OW14347   6.430   4.278   6.715 -0.2104 -0.1666 -0.0905
 4483SOL    HW114348   6.399   4.221   6.638 -2.4921 -0.2583  0.8003
 4483SOL    HW214349   6.502   4.340   6.684 -1.5336  0.2870 -2.5186
 4484SOL     OW14350   4.575   4.865   0.099 -0.0660 -0.4902 -0.2815
 4484SOL    HW114351   4.664   4.879   0.057 -0.8827  1.7792 -1.4053
 4484SOL    HW214352   4.510   4.829   0.032 -1.0432  1.9248 -0.7326
 4485SOL     OW14353   5.246   0.095   5.212  0.0677 -0.0786 -1.0363
 4485SOL    HW114354   5.224   0.184   5.171 -1.5425 -0.8292 -1.8921
 4485SOL    HW214355   5.277   0.109   5.306 -0.8328  1.3649 -0.9151
 4486SOL     OW14356   0.244   3.123   4.379 -0.1497 -0.1567 -0.2334
 4486SOL    HW114357   0.171   3.121   4.311 -0.5160 -0.2529  0.1602
 4486SOL    HW214358   0.209   3.093   4.467  0.1236  0.7385  0.1933
 4487SOL     OW14359   3.554   1.884   5.700  0.0647  0.0554 -0.4957
 4487SOL    HW114360   3.627   1.831   5.743  0.7256  0.2914 -1.3069
 4487SOL    HW214361   3.467   1.862   5.744  0.3013 -1.7644 -0.8470
 4488SOL     OW14362   6.781   2.062   2.111  0.1144  0.0250  0.3425
 4488SOL    HW114363   6.815   2.148   2.149  0.3150 -0.2820  0.8607
 4488SOL    HW214364   6.828   1.985   2.154  0.2931 -0.3365 -0.4642
 4489SOL     OW14365   0.613   6.957   3.989  0.2773  0.5001 -0.1788
 4489SOL    HW114366   0.692   6.996   4.035  0.4446 -0.6221  0.5255
 4489SOL    HW214367   0.571   7.027   3.930  1.1628  1.4071  0.2270
 4490SOL     OW14368   5.412   1.521   2.673 -0.3132  0.4368  0.1613
 4490SOL    HW114369   5.368   1.445   2.625  0.0771  0.6562 -0.5452
 4490SOL    HW214370   5.415   1.501   2.771 -0.1287 -0.5036 -0.0305
 4491SOL     OW14371   1.783   4.743   0.128 -0.0861 -0.4747 -0.0674
 4491SOL    HW114372   1.689   4.719   0.150 -0.0530  1.3916  2.5790
 4491SOL    HW214373   1.786   4.838   0.095  0.8974 -0.4596  0.0413
 4492SOL     OW14374   6.413   3.560   5.616 -0.0806  0.1609 -0.3935
 4492SOL    HW114375   6.482   3.598   5.677  0.8018 -1.3432 -0.4080
 4492SOL    HW214376   6.429   3.462   5.604 -0.1865  0.3751 -3.0630
 4493SOL     OW14377   6.114   5.133   4.058 -0.3359 -0.4901  0.2932
 4493SOL    HW114378   6.099   5.112   4.155  1.1312  1.3858  0.9917
 4493SOL    HW214379   6.205   5.173   4.046 -0.2981 -1.0901 -1.9590
 4494SOL     OW14380   4.859   0.281   2.203 -0.4481 -0.1586  1.2544
 4494SOL    HW114381   4.835   0.373   2.170 -2.5663 -1.4586 -1.1658
 4494SOL    HW214382   4.779   0.222   2.197  1.0189 -2.3468  2.1922
 4495SOL     OW14383   4.785   5.832   1.830  0.0735  0.1756  0.1836
 4495SOL    HW114384   4.812   5.816   1.735  2.1132 -0.9015  0.8913
 4495SOL    HW214385   4.733   5.754   1.864 -0.7002  0.5835 -0.0453
 4496SOL     OW14386   6.668   4.264   5.825  0.3466  0.4231 -0.2039
 4496SOL    HW114387   6.709   4.175   5.843 -1.3623 -0.2138  0.7178
 4496SOL    HW214388   6.693   4.328   5.898  0.6940  0.4112 -0.3085
 4497SOL     OW14389   4.521   6.657   1.533 -0.2385 -0.3479 -0.1481
 4497SOL    HW114390   4.572   6.595   1.473 -0.1848  1.5815 -2.2154
 4497SOL    HW214391   4.426   6.662   1.503 -0.6191 -0.5595  0.9636
 4498SOL     OW14392   0.792   3.083   6.748  0.0788 -0.1990  0.2281
 4498SOL    HW114393   0.844   3.142   6.687 -1.6529  0.1578 -0.9529
 4498SOL    HW214394   0.837   3.081   6.838  1.4708  0.9903 -0.3950
 4499SOL     OW14395   5.080   5.261   7.016 -0.1448 -0.1986 -0.6214
 4499SOL    HW114396   5.047   5.304   6.932 -0.3743 -0.1751 -0.5209
 4499SOL    HW214397   5.140   5.184   6.993 -0.4233 -0.3604 -0.8103
 4500SOL     OW14398   3.986   5.095   1.937  0.3273 -0.5468  0.1942
 4500SOL    HW114399   3.948   5.042   1.861  2.6461 -0.8131 -0.8645
 4500SOL    HW214400   3.921   5.166   1.964 -1.6476 -2.0617 -0.2593
 4501SOL     OW14401   2.250   4.594   3.733  0.3325  0.1675 -0.1392
 4501SOL    HW114402   2.213   4.686   3.738  0.1294  0.0768  0.0443
 4501SOL    HW214403   2.346   4.597   3.703  0.3022  0.4301 -0.2071
 4502SOL     OW14404   0.018   2.953   0.615  0.1335  0.6519 -0.4011
 4502SOL    HW114405  -0.049   3.027   0.617 -0.5337  0.0474 -0.0673
 4502SOL    HW214406  -0.018   2.874   0.664  0.4304 -0.2402 -1.5878
 4503SOL     OW14407   6.899   1.439   1.219  0.2938  0.3988  0.6155
 4503SOL    HW114408   6.879   1.398   1.130 -1.5043  1.3473  0.5362
 4503SOL    HW214409   6.898   1.368   1.290  1.9552 -0.3970 -0.0917
 4504SOL     OW14410   6.831   0.151   4.104  0.1689  0.4944  0.2741
 4504SOL    HW114411   6.755   0.214   4.090 -1.0137 -1.1172 -0.9498
 4504SOL    HW214412   6.917   0.199   4.088 -0.7488  1.3960 -2.5868
 4505SOL     OW14413   2.643   5.433   6.090  0.0607 -0.1498 -0.0105
 4505SOL    HW114414   2.581   5.381   6.031  1.1817 -1.2681 -0.2494
 4505SOL    HW214415   2.723   5.461   6.037  0.3590  0.1743  0.6077
 4506SOL     OW14416   4.348   1.471   5.865  0.2584  0.1683  0.0045
 4506SOL    HW114417   4.409   1.511   5.797 -1.6437  2.0613 -0.7133
 4506SOL    HW214418   4.399   1.408   5.923  2.3486 -0.0906 -1.9787
 4507SOL     OW14419   5.503   3.399   3.689 -0.5586  0.2660  0.2959
 4507SOL    HW114420   5.532   3.307   3.715  2.1000  0.5461 -1.3513
 4507SOL    HW214421   5.538   3.421   3.598  0.6042  3.6103  1.3965
 4508SOL     OW14422   1.528   4.451   1.746  0.2862  0.1762 -0.0021
 4508SOL    HW114423   1.611   4.401   1.771 -1.1400 -1.2771  2.2453
 4508SOL    HW214424   1.503   4.428   1.652  0.0903 -2.9661  0.6819
 4509SOL     OW14425   0.567   3.689   4.678  0.0448 -0.0543  0.2410
 4509SOL    HW114426   0.657   3.648   4.687 -0.2812 -1.1832 -1.1829
 4509SOL    HW214427   0.512   3.634   4.615 -1.7008  0.5128  1.2045
 4510SOL     OW14428   3.586   0.978   5.667 -0.3570 -0.3206  0.0601
 4510SOL    HW114429   3.617   0.972   5.762 -0.7099  2.6113  0.4357
 4510SOL    HW214430   3.494   1.015   5.665 -0.0863  0.3022 -1.4666
 4511SOL     OW14431   6.840   2.441   0.377 -0.0479 -0.9061 -0.1974
 4511SOL    HW114432   6.795   2.393   0.301  0.5998 -1.5889 -0.1625
 4511SOL    HW214433   6.775   2.451   0.452 -0.2476 -1.5869 -0.2720
 4512SOL     OW14434   1.976   4.696   5.092  0.4342 -0.6080  0.5277
 4512SOL    HW114435   2.046   4.624   5.100 -0.0428 -1.0648  0.6116
 4512SOL    HW214436   1.971   4.747   5.178  0.1582 -1.0397  0.7666
 4513SOL     OW14437   5.937   0.830   3.357  0.8363 -0.5054  0.3892
 4513SOL    HW114438   5.903   0.917   3.392 -0.5757 -1.1790  0.7788
 4513SOL    HW214439   6.003   0.847   3.283  0.2812  0.8764  0.1798
 4514SOL     OW14440   2.341   6.079   6.678 -0.3070  0.0792 -0.2915
 4514SOL    HW114441   2.245   6.087   6.651  0.0961 -1.2142 -2.3697
 4514SOL    HW214442   2.347   6.056   6.775 -2.0664  0.6673 -0.0095
 4515SOL     OW14443   1.359   5.305   0.699 -0.3334 -0.2925  0.2141
 4515SOL    HW114444   1.262   5.302   0.724 -0.9980 -3.6929 -1.9581
 4515SOL    HW214445   1.413   5.265   0.773 -1.1420 -2.0369 -0.0792
 4516SOL     OW14446   6.838   5.938   3.315 -0.1832  0.0666 -0.4393
 4516SOL    HW114447   6.883   5.853   3.344 -0.7163 -0.2139 -0.4289
 4516SOL    HW214448   6.771   5.965   3.384  0.1127  0.6019 -0.3527
 4517SOL     OW14449   3.634   2.019   5.954  0.2498  0.4611  0.3854
 4517SOL    HW114450   3.615   2.058   5.864  2.3444  0.8802  0.0920
 4517SOL    HW214451   3.673   1.928   5.944 -2.4142 -0.8755  1.0176
 4518SOL     OW14452   1.114   6.969   3.033  0.4653 -0.1391  0.0538
 4518SOL    HW114453   1.033   6.941   2.982  1.0784 -2.0314  0.0545
 4518SOL    HW214454   1.157   7.047   2.988 -2.0243  1.7866  0.7580
 4519SOL     OW14455   6.736   1.010   4.852  0.0702  0.3161  0.1089
 4519SOL    HW114456   6.763   0.997   4.757  0.5458  0.2343  0.2512
 4519SOL    HW214457   6.637   1.007   4.859  0.0003  1.0494 -0.4840
 4520SOL     OW14458   1.438   4.483   2.286  0.5904 -0.1795  0.0576
 4520SOL    HW114459   1.369   4.516   2.222  1.2420  0.5810 -0.2617
 4520SOL    HW214460   1.393   4.447   2.368 -0.2286 -0.7832 -0.6481
 4521SOL     OW14461   5.091   0.591   6.343 -0.0753 -0.1668  0.1381
 4521SOL    HW114462   5.108   0.520   6.275 -0.1107 -0.4859  0.4566
 4521SOL    HW214463   5.134   0.565   6.429 -2.4540 -1.2043  1.0960
 4522SOL     OW14464   5.096   1.847   3.083  0.0489 -0.0269  0.4502
 4522SOL    HW114465   5.161   1.835   3.008  0.1382 -1.2549  0.6993
 4522SOL    HW214466   5.147   1.861   3.168 -0.0541  1.9065  0.2275
 4523SOL     OW14467   5.433   2.437   0.499 -0.2516  0.2733  0.0548
 4523SOL    HW114468   5.405   2.377   0.573 -2.0497  2.1016  0.9626
 4523SOL    HW214469   5.469   2.382   0.423  1.0286 -1.6938  1.9488
 4524SOL     OW14470   5.501   2.724   5.895 -0.2586  0.0667 -0.0913
 4524SOL    HW114471   5.600   2.724   5.886 -0.3431  1.1501 -1.3404
 4524SOL    HW214472   5.469   2.631   5.917  0.9887 -0.3607 -0.0170
 4525SOL     OW14473   0.940   1.493   4.251  0.7130 -0.2132  0.3870
 4525SOL    HW114474   0.950   1.428   4.175  1.5411 -0.6996  0.8967
 4525SOL    HW214475   0.897   1.447   4.328  2.9871 -0.7454  1.4204
 4526SOL     OW14476   2.520   2.649   1.481  0.5189  0.9127  0.9849
 4526SOL    HW114477   2.434   2.699   1.470  1.0380  1.8358  0.9919
 4526SOL    HW214478   2.582   2.701   1.541  1.7271  1.1113 -0.3846
 4527SOL     OW14479   4.347   5.989   2.393  0.7597 -0.4712 -0.0565
 4527SOL    HW114480   4.420   5.933   2.352  0.1816 -1.1831 -0.1265
 4527SOL    HW214481   4.260   5.969   2.347  0.1297 -1.1254  1.3707
 4528SOL     OW14482   2.358   0.016   4.462 -0.2148  0.3695  0.3489
 4528SOL    HW114483   2.447   0.036   4.420 -0.5555 -0.6825 -0.9660
 4528SOL    HW214484   2.288   0.073   4.419 -0.1072  1.6949  1.8645
 4529SOL     OW14485   3.591   7.006   4.177  0.3390  0.6648 -0.0748
 4529SOL    HW114486   3.495   7.014   4.203  0.3027  0.0742 -0.0261
 4529SOL    HW214487   3.598   7.002   4.077  0.2706  0.1460 -0.0591
 4530SOL     OW14488   5.275   2.713   2.586 -0.2068  0.4432  0.2113
 4530SOL    HW114489   5.225   2.648   2.529 -1.6202  0.3686  1.4751
 4530SOL    HW214490   5.373   2.691   2.584 -0.4747 -0.7842 -0.5495
 4531SOL     OW14491   0.735   3.894   4.965 -0.2402 -0.0882  0.1792
 4531SOL    HW114492   0.764   3.801   4.942  2.0730  0.7137 -0.4194
 4531SOL    HW214493   0.755   3.912   5.061  1.7448  0.5711 -0.3100
 4532SOL     OW14494   6.272   1.997   6.502  0.3738 -0.2977  0.2829
 4532SOL    HW114495   6.182   1.966   6.472  0.7907 -1.8377  0.5279
 4532SOL    HW214496   6.270   2.014   6.600  0.0563  0.8003  0.0906
 4533SOL     OW14497   4.047   1.590   0.647  0.0326  0.7013 -0.4087
 4533SOL    HW114498   4.014   1.511   0.595  0.9816 -0.1206  0.2090
 4533SOL    HW214499   4.091   1.655   0.585  0.3708  0.1457 -0.7571
 4534SOL     OW14500   0.903   2.435   6.854 -0.2083  0.2133 -0.0171
 4534SOL    HW114501   0.803   2.440   6.849 -0.2415 -0.2481  0.1659
 4534SOL    HW214502   0.931   2.341   6.871  0.3818 -0.0954 -2.4616
 4535SOL     OW14503   5.004   2.232   2.986  0.5052  0.2655 -0.1466
 4535SOL    HW114504   5.094   2.222   2.944  1.1486  0.6389  1.0951
 4535SOL    HW214505   4.958   2.143   2.990  0.9388  0.0214 -0.5052
 4536SOL     OW14506   6.766   6.239   2.996  0.2500  0.1948  0.4849
 4536SOL    HW114507   6.855   6.199   2.979 -0.3476 -1.2292  0.5792
 4536SOL    HW214508   6.699   6.202   2.932 -0.5127  0.3293  1.1726
 4537SOL     OW14509   5.623   3.915   3.402  0.5650 -0.3834  1.0161
 4537SOL    HW114510   5.716   3.905   3.369  1.0633  0.5555  2.0426
 4537SOL    HW214511   5.624   3.924   3.502 -0.5779  0.0150  1.0118
 4538SOL     OW14512   4.394   1.368   0.484 -0.2208 -0.6752 -0.0209
 4538SOL    HW114513   4.415   1.444   0.546 -0.3741 -0.9388  0.3568
 4538SOL    HW214514   4.409   1.281   0.531  0.9709 -0.9040 -0.7912
 4539SOL     OW14515   2.895   2.835   0.782 -0.0133  0.0862  0.3705
 4539SOL    HW114516   2.873   2.756   0.840  2.0177 -1.6139 -1.0135
 4539SOL    HW214517   2.965   2.809   0.716 -0.5216  2.6167 -1.3052
 4540SOL     OW14518   3.692   3.819   4.777  0.0775  0.2201 -0.2813
 4540SOL    HW114519   3.650   3.858   4.859  0.4428  1.8597 -0.8442
 4540SOL    HW214520   3.695   3.888   4.704  2.1782 -0.3606 -0.8212
 4541SOL     OW14521   6.986   1.060   1.253 -0.4450 -0.7093  0.3815
 4541SOL    HW114522   7.046   1.053   1.333  0.0680  0.6934  0.1512
 4541SOL    HW214523   6.899   1.102   1.281 -0.1551  0.0504  0.1628
 4542SOL     OW14524   4.230   6.389   4.384  0.5142  0.5540 -0.1905
 4542SOL    HW114525   4.189   6.305   4.348  0.2397 -0.6471  2.7077
 4542SOL    HW214526   4.161   6.462   4.384  0.9690  1.1289 -3.4595
 4543SOL     OW14527   5.233   2.975   0.581  0.2354 -0.5894  0.1424
 4543SOL    HW114528   5.153   2.932   0.538 -0.3006 -0.7519  1.2817
 4543SOL    HW214529   5.208   3.011   0.671  1.2418  0.1201  0.1571
 4544SOL     OW14530   5.159   5.848   0.340  0.0267  0.1633  0.5549
 4544SOL    HW114531   5.108   5.776   0.387  0.0608  0.3712  0.9099
 4544SOL    HW214532   5.224   5.807   0.276 -1.8175 -0.1221 -1.2757
 4545SOL     OW14533   3.718   3.598   0.327  0.9638 -0.0235 -0.0519
 4545SOL    HW114534   3.721   3.560   0.420  0.6374 -1.7418 -0.6949
 4545SOL    HW214535   3.623   3.606   0.297  1.0272  1.3459  0.0527
 4546SOL     OW14536   1.470   0.798   0.708 -0.2257  0.0765 -0.5699
 4546SOL    HW114537   1.555   0.814   0.758 -0.8670  0.4471  0.4251
 4546SOL    HW214538   1.399   0.859   0.742 -0.6670  0.3980 -2.0073
 4547SOL     OW14539   4.240   1.874   1.302  0.9046 -0.1980 -0.0490
 4547SOL    HW114540   4.167   1.826   1.350  1.5194 -1.1605 -0.0339
 4547SOL    HW214541   4.232   1.857   1.203  3.0754 -3.3488  0.1435
 4548SOL     OW14542   0.021   2.093   3.050 -0.0632 -0.5826 -0.1360
 4548SOL    HW114543  -0.053   2.032   3.076  0.4649 -1.4094 -0.5213
 4548SOL    HW214544  -0.011   2.157   2.980 -0.7131 -0.1820  0.5136
 4549SOL     OW14545   1.212   2.562   1.975 -0.2029  0.1247 -0.3413
 4549SOL    HW114546   1.254   2.474   1.953  0.6601  0.2360  0.7774
 4549SOL    HW214547   1.119   2.547   2.009 -0.2205 -0.3200 -0.5808
 4550SOL     OW14548   2.499   6.485   3.232 -0.0644 -0.4554 -0.0297
 4550SOL    HW114549   2.551   6.419   3.287  0.3856  0.4378  0.6430
 4550SOL    HW214550   2.552   6.513   3.153  0.0729 -0.3109  0.1121
 4551SOL     OW14551   0.308   2.412   1.894 -0.7995  0.1547 -0.4960
 4551SOL    HW114552   0.292   2.325   1.848 -0.1358 -0.6029  0.6882
 4551SOL    HW214553   0.395   2.409   1.943 -1.0023  1.3098 -0.0305
 4552SOL     OW14554   5.660   3.624   3.879 -0.3062  0.0345 -0.0787
 4552SOL    HW114555   5.688   3.546   3.935  0.9507 -0.0507 -0.7968
 4552SOL    HW214556   5.697   3.614   3.787 -0.4132  1.3008 -0.2741
 4553SOL     OW14557   0.100   6.285   0.342  0.4071  0.4679 -0.1690
 4553SOL    HW114558   0.083   6.359   0.406 -1.6143 -0.3519  0.3284
 4553SOL    HW214559   0.085   6.317   0.248  1.5697  1.1962 -0.1146
 4554SOL     OW14560   0.501   1.878   5.361 -0.0241 -0.5525 -0.2353
 4554SOL    HW114561   0.564   1.951   5.331  0.2582 -0.8530 -0.3815
 4554SOL    HW214562   0.462   1.902   5.449 -0.4030  0.0687 -0.5625
 4555SOL     OW14563   2.399   1.439   0.924  0.2916  0.0343  0.4805
 4555SOL    HW114564   2.466   1.489   0.978  0.7410 -1.6174  1.5355
 4555SOL    HW214565   2.433   1.428   0.831  1.4315 -0.5891  0.9426
 4556SOL     OW14566   4.009   0.523   4.406  0.0256 -0.0898 -0.0742
 4556SOL    HW114567   4.073   0.597   4.425 -0.0157 -0.2221  0.5916
 4556SOL    HW214568   4.018   0.495   4.310 -0.1605  0.9692 -0.4220
 4557SOL     OW14569   5.794   1.589   6.033  0.2840  0.0727  0.4186
 4557SOL    HW114570   5.828   1.561   5.943 -0.5921  0.2668  0.0147
 4557SOL    HW214571   5.753   1.510   6.079  0.5195  0.0265  0.5507
 4558SOL     OW14572   0.602   2.283   6.574  0.3638  0.2753 -0.1699
 4558SOL    HW114573   0.610   2.350   6.648  0.2298 -0.1361  0.2236
 4558SOL    HW214574   0.660   2.311   6.497  1.2039  0.2460  0.4369
 4559SOL     OW14575   1.376   6.030   1.995 -0.0989  0.4268 -0.2197
 4559SOL    HW114576   1.355   5.943   2.039 -0.5845  0.9716  0.6747
 4559SOL    HW214577   1.470   6.056   2.018 -0.6735  1.2199  1.4863
 4560SOL     OW14578   6.189   3.316   4.896 -0.0600 -0.9211 -0.1276
 4560SOL    HW114579   6.098   3.324   4.938  0.6874 -0.7478  1.5570
 4560SOL    HW214580   6.187   3.354   4.803 -1.3632  0.4474  0.4150
 4561SOL     OW14581   2.397   0.244   6.622 -0.3240 -0.2105  0.4052
 4561SOL    HW114582   2.335   0.289   6.558  1.0414 -1.4980 -1.9189
 4561SOL    HW214583   2.490   0.277   6.608  0.1951 -1.4078  0.8996
 4562SOL     OW14584   2.917   4.373   5.647  0.7317  0.0512 -0.0669
 4562SOL    HW114585   2.952   4.439   5.581  0.0825 -0.5885 -1.0868
 4562SOL    HW214586   2.867   4.301   5.598 -2.1645  1.0067  1.2833
 4563SOL     OW14587   6.704   4.941   5.465 -0.4038 -0.2625 -0.2170
 4563SOL    HW114588   6.680   5.006   5.537 -0.2413  1.1866 -1.4008
 4563SOL    HW214589   6.681   4.848   5.494 -3.5582  0.5827  0.3793
 4564SOL     OW14590   0.889   5.399   0.232 -0.2657  0.2376 -0.4928
 4564SOL    HW114591   0.913   5.391   0.329  0.0995  1.4428 -0.4621
 4564SOL    HW214592   0.915   5.316   0.184  1.7065  0.5301  0.0058
 4565SOL     OW14593   4.455   1.381   4.511 -0.5861  0.1805  0.1987
 4565SOL    HW114594   4.527   1.407   4.575 -0.7482  0.8911  0.0961
 4565SOL    HW214595   4.465   1.284   4.488 -0.5170 -0.0818  1.2851
 4566SOL     OW14596   0.015   0.463   1.885  0.2369  0.4062 -0.3145
 4566SOL    HW114597   0.080   0.515   1.830 -1.2255  1.7758 -0.7905
 4566SOL    HW214598  -0.064   0.519   1.907 -0.9877 -1.3245 -0.0565
 4567SOL     OW14599   6.449   2.065   1.269 -0.4419  0.0418  0.6428
 4567SOL    HW114600   6.490   2.050   1.180 -1.7197 -0.0163  0.0471
 4567SOL    HW214601   6.441   2.163   1.286 -1.0908  0.0535  0.2705
 4568SOL     OW14602   4.599   4.740   2.668 -0.3370  0.1139  0.3958
 4568SOL    HW114603   4.633   4.816   2.613 -1.6957 -0.1248 -0.8216
 4568SOL    HW214604   4.653   4.658   2.650 -0.5574  0.1231 -0.3371
 4569SOL     OW14605   2.151   3.832   3.989  0.4567 -0.0758  0.4987
 4569SOL    HW114606   2.194   3.851   4.077  1.0199  0.4680  0.1098
 4569SOL    HW214607   2.169   3.907   3.925 -3.3815  1.5819  1.1168
 4570SOL     OW14608   5.796   4.622   4.077  0.7527 -0.5563  0.2911
 4570SOL    HW114609   5.818   4.536   4.124  2.7679  0.4306  1.2989
 4570SOL    HW214610   5.697   4.632   4.070  0.3637 -4.1308 -2.1436
 4571SOL     OW14611   3.377   3.647   2.377 -0.2461 -0.0941  0.1183
 4571SOL    HW114612   3.375   3.718   2.447 -0.3096 -0.2959  0.3211
 4571SOL    HW214613   3.330   3.565   2.411 -0.0642 -0.2753 -0.0682
 4572SOL     OW14614   1.375   4.776   0.638  0.5302 -0.1175 -0.4117
 4572SOL    HW114615   1.299   4.760   0.575 -0.8793 -0.3368  1.2487
 4572SOL    HW214616   1.399   4.874   0.638  1.7773 -0.3606 -2.5375
 4573SOL     OW14617   4.577   6.648   6.006 -0.2641 -0.3147 -0.3965
 4573SOL    HW114618   4.586   6.745   6.030 -0.2954  0.4563 -3.2209
 4573SOL    HW214619   4.481   6.628   5.985 -0.0721 -0.6661 -0.9478
 4574SOL     OW14620   6.376   6.014   2.040  0.3625 -0.3072  0.3085
 4574SOL    HW114621   6.376   6.076   2.118  2.6813 -1.4749  1.3403
 4574SOL    HW214622   6.410   6.062   1.959  1.8418 -0.1157  1.0230
 4575SOL     OW14623   1.065   5.350   1.524 -0.3543  0.0830  0.3158
 4575SOL    HW114624   1.053   5.261   1.479  1.0189 -1.0152  2.0059
 4575SOL    HW214625   1.149   5.393   1.491 -0.8491  0.6158 -0.2620
 4576SOL     OW14626   4.939   2.239   5.954  0.0082 -0.3380 -0.0295
 4576SOL    HW114627   5.006   2.210   5.886 -0.8479  0.2692 -1.1798
 4576SOL    HW214628   4.887   2.317   5.918  1.1795  1.6592  2.3157
 4577SOL     OW14629   1.849   3.815   2.138  0.4430 -0.1454 -0.2182
 4577SOL    HW114630   1.762   3.798   2.092 -1.2769  1.0597  2.3650
 4577SOL    HW214631   1.887   3.728   2.170 -2.0727 -0.4563  2.3092
 4578SOL     OW14632   6.014   6.347   3.948  0.2096 -0.1338  0.0064
 4578SOL    HW114633   6.085   6.326   4.014 -1.1645 -1.0205  1.2573
 4578SOL    HW214634   5.942   6.401   3.992 -0.5335 -0.3872 -0.8599
 4579SOL     OW14635   5.876   0.810   5.258  0.1796 -0.6356 -0.5120
 4579SOL    HW114636   5.875   0.713   5.234  1.7060 -0.8847  0.3274
 4579SOL    HW214637   5.810   0.827   5.331  0.8968 -1.3159  0.3090
 4580SOL     OW14638   0.980   4.842   6.163 -0.3210  0.2850 -0.7374
 4580SOL    HW114639   0.929   4.840   6.249  0.4574  0.3712 -0.2624
 4580SOL    HW214640   1.058   4.779   6.169  0.5802  1.3591 -0.8445
 4581SOL     OW14641   3.967   6.304   5.000 -0.2552  0.0052  0.2672
 4581SOL    HW114642   4.042   6.242   4.977 -0.5623 -0.1235 -0.4119
 4581SOL    HW214643   3.881   6.252   5.003 -0.6657  0.5422 -1.2413
 4582SOL     OW14644   5.084   0.561   3.974 -0.2968 -0.1717  0.5556
 4582SOL    HW114645   5.172   0.607   3.981  0.0199 -0.5983 -0.4701
 4582SOL    HW214646   5.081   0.486   4.040  0.5372 -0.8279 -0.1305
 4583SOL     OW14647   2.741   0.380   0.790  0.2883  0.0433 -0.3593
 4583SOL    HW114648   2.669   0.448   0.782 -1.5103 -1.8459 -1.2154
 4583SOL    HW214649   2.728   0.326   0.873 -0.1018 -1.1102 -1.1289
 4584SOL     OW14650   4.889   5.866   4.060 -0.2992  0.6040 -0.1182
 4584SOL    HW114651   4.861   5.772   4.077 -1.0291  1.0836  1.6168
 4584SOL    HW214652   4.876   5.920   4.143  2.7026  1.6512 -0.1956
 4585SOL     OW14653   1.747   6.184   2.242 -0.2234  0.5224  0.1669
 4585SOL    HW114654   1.809   6.153   2.314  0.2864 -0.6727 -0.7529
 4585SOL    HW214655   1.718   6.106   2.187 -1.8964  1.1699  0.0446
 4586SOL     OW14656   2.292   4.403   0.698 -0.6060  0.5302  0.1843
 4586SOL    HW114657   2.237   4.474   0.742 -1.7667  0.3503 -0.9039
 4586SOL    HW214658   2.236   4.321   0.683  0.3490 -0.1579  0.2573
 4587SOL     OW14659   3.386   5.408   0.606 -0.4453  0.6776 -0.1596
 4587SOL    HW114660   3.414   5.446   0.518 -1.4402 -0.9089 -1.2212
 4587SOL    HW214661   3.288   5.426   0.620 -0.5476 -0.0405  0.0797
 4588SOL     OW14662   3.110   4.059   4.477 -0.1435 -0.6421 -0.2315
 4588SOL    HW114663   3.130   3.962   4.472  0.3131 -0.6454  1.1123
 4588SOL    HW214664   3.159   4.108   4.405 -0.6556 -1.4374 -1.1339
 4589SOL     OW14665   2.115   3.651   2.939 -0.4540 -0.3611 -0.1077
 4589SOL    HW114666   2.141   3.571   2.886  0.4293 -1.2961  1.6227
 4589SOL    HW214667   2.142   3.637   3.035  0.3873  2.2914  0.1211
 4590SOL     OW14668   3.920   5.337   4.161 -0.3127  0.7706 -0.0325
 4590SOL    HW114669   4.004   5.334   4.216 -0.5242 -0.1371  0.2696
 4590SOL    HW214670   3.938   5.383   4.075  1.2220 -1.6510 -1.1232
 4591SOL     OW14671   5.868   6.383   5.711 -0.3437  0.3836 -0.6107
 4591SOL    HW114672   5.875   6.300   5.655 -1.1862 -1.4357  1.8171
 4591SOL    HW214673   5.959   6.422   5.725  0.0468 -0.0073 -1.9211
 4592SOL     OW14674   3.344   1.799   5.870 -0.1033 -0.4015  0.2682
 4592SOL    HW114675   3.294   1.713   5.884  0.6749 -0.6832  1.5144
 4592SOL    HW214676   3.368   1.838   5.959 -0.4257  1.1139 -0.2813
 4593SOL     OW14677   2.936   5.626   2.873  0.0455  0.4551 -0.2662
 4593SOL    HW114678   2.981   5.576   2.800 -0.3311 -0.8179  0.3375
 4593SOL    HW214679   2.847   5.659   2.841 -0.4144 -0.6688 -0.2309
 4594SOL     OW14680   2.910   1.988   1.663 -0.0279  0.2092 -0.0478
 4594SOL    HW114681   2.926   2.081   1.695 -3.3825  0.0725  2.5817
 4594SOL    HW214682   2.883   1.991   1.566  0.8101  1.8107 -0.2722
 4595SOL     OW14683   5.469   3.484   6.497 -0.2477  0.4499 -0.5130
 4595SOL    HW114684   5.559   3.516   6.523  0.0541 -0.2197 -0.7041
 4595SOL    HW214685   5.454   3.500   6.400 -0.6075  1.1773 -0.3438
 4596SOL     OW14686   6.263   2.871   3.574 -0.2169 -0.0844 -0.1904
 4596SOL    HW114687   6.257   2.823   3.486 -2.1599  0.7199 -0.5434
 4596SOL    HW214688   6.359   2.887   3.596  0.3441  1.7135 -3.3371
 4597SOL     OW14689   0.802   2.449   6.436  0.1145  0.5162 -0.4086
 4597SOL    HW114690   0.891   2.438   6.480 -0.0750 -0.5133 -0.2541
 4597SOL    HW214691   0.815   2.479   6.341  0.7106 -0.8785 -0.7987
 4598SOL     OW14692   1.742   4.111   5.668  0.0700 -0.0609  1.0131
 4598SOL    HW114693   1.751   4.210   5.655  0.5624 -0.1480  0.6640
 4598SOL    HW214694   1.664   4.078   5.615  0.2635  0.0512  0.6527
 4599SOL     OW14695   1.472   5.563   6.569  0.7181 -0.4239 -0.1116
 4599SOL    HW114696   1.527   5.595   6.647  0.1510  0.5403 -0.0870
 4599SOL    HW214697   1.515   5.592   6.484  1.8630 -2.3294 -0.2139
 4600SOL     OW14698   1.409   3.709   0.215 -0.4384  0.0720 -0.2683
 4600SOL    HW114699   1.328   3.735   0.163 -0.2236 -0.6795 -0.9986
 4600SOL    HW214700   1.445   3.622   0.180  1.8817  1.3683 -1.3482
 4601SOL     OW14701   2.848   6.256   4.678  0.1910  0.1423 -0.2832
 4601SOL    HW114702   2.825   6.260   4.580  1.5082 -0.5709 -0.6356
 4601SOL    HW214703   2.908   6.179   4.695 -0.1835  0.1429  1.1471
 4602SOL     OW14704   0.393   6.909   2.832 -0.3759 -0.0721 -0.9842
 4602SOL    HW114705   0.411   6.870   2.741 -0.3178 -0.5636 -0.7619
 4602SOL    HW214706   0.347   6.841   2.889  0.9052 -0.2898 -0.1591
 4603SOL     OW14707   4.584   1.644   6.771  0.0401  0.1981 -0.3935
 4603SOL    HW114708   4.616   1.660   6.864  0.8155  1.4793 -0.8576
 4603SOL    HW214709   4.610   1.552   6.742 -0.6866 -0.4099  0.8377
 4604SOL     OW14710   1.446   6.623   2.730  0.0442  0.0048 -0.2146
 4604SOL    HW114711   1.391   6.618   2.647  0.4673  0.6302 -0.5388
 4604SOL    HW214712   1.469   6.531   2.761  0.4117 -0.2197 -1.1378
 4605SOL     OW14713   5.370   6.003   5.440  0.2781  0.3610  0.3959
 4605SOL    HW114714   5.416   6.091   5.443  0.5059  0.3448 -1.4046
 4605SOL    HW214715   5.272   6.017   5.422  0.1378  0.2792  1.0826
 4606SOL     OW14716   1.343   5.406   5.144  0.2652  0.1029 -0.5138
 4606SOL    HW114717   1.272   5.401   5.074 -0.1058 -2.1462 -0.0487
 4606SOL    HW214718   1.431   5.425   5.100 -0.3131  1.0224 -1.3066
 4607SOL     OW14719   3.256   3.490   0.140 -0.0792 -0.0446  0.5467
 4607SOL    HW114720   3.242   3.589   0.130  0.1952  0.1068  1.5684
 4607SOL    HW214721   3.167   3.444   0.137 -0.1803  0.1806 -0.3516
 4608SOL     OW14722   2.616   2.406   5.687 -0.4094  0.6415 -0.4314
 4608SOL    HW114723   2.557   2.350   5.628 -0.5755  2.7667 -2.3919
 4608SOL    HW214724   2.697   2.433   5.637  0.0834  1.4624  0.7618
 4609SOL     OW14725   4.679   6.379   6.205  0.0598 -0.2223  0.2817
 4609SOL    HW114726   4.777   6.376   6.225  0.3316  1.5655 -0.5158
 4609SOL    HW214727   4.664   6.350   6.111  0.0205  0.8070 -0.0455
 4610SOL     OW14728   5.574   2.648   1.597  0.0055 -0.4578 -0.3141
 4610SOL    HW114729   5.506   2.691   1.538  1.9012 -0.5092 -2.6800
 4610SOL    HW214730   5.541   2.558   1.626 -1.2218 -0.1745 -0.7747
 4611SOL     OW14731   1.737   5.509   0.569  0.5014 -0.5162 -0.2661
 4611SOL    HW114732   1.760   5.436   0.634 -0.3614 -0.2894  0.2962
 4611SOL    HW214733   1.773   5.485   0.479 -0.9960 -2.3534 -0.4361
 4612SOL     OW14734   1.881   6.575   0.683 -0.2755 -0.1111 -0.2938
 4612SOL    HW114735   1.890   6.494   0.741 -0.8612  0.4856  0.6581
 4612SOL    HW214736   1.972   6.602   0.649 -0.0375 -0.9588 -0.3505
 4613SOL     OW14737   3.819   5.543   2.215 -0.0103  0.0724  0.1785
 4613SOL    HW114738   3.862   5.453   2.209  0.4873  0.3827 -1.8484
 4613SOL    HW214739   3.865   5.598   2.285 -0.7316 -1.4058  1.8924
 4614SOL     OW14740   2.119   3.216   1.279  0.5788 -0.3998 -0.0413
 4614SOL    HW114741   2.038   3.157   1.287  2.3334 -2.8101  1.3361
 4614SOL    HW214742   2.110   3.274   1.198 -2.0425 -1.3048 -0.4972
 4615SOL     OW14743   5.688   4.188   6.413 -0.4332 -0.3663  0.3210
 4615SOL    HW114744   5.630   4.264   6.383  0.7330  0.4412  0.0171
 4615SOL    HW214745   5.663   4.105   6.362 -0.3637  0.3153 -0.8619
 4616SOL     OW14746   6.731   7.018   6.530 -0.4344 -0.3711 -0.6899
 4616SOL    HW114747   6.759   7.010   6.625  1.9597  1.1434 -1.1971
 4616SOL    HW214748   6.758   6.935   6.480 -1.5322 -1.0891 -0.1320
 4617SOL     OW14749   6.694   4.710   1.020 -0.4555  0.5423  0.1113
 4617SOL    HW114750   6.617   4.751   1.068 -0.6579 -0.6253  0.8235
 4617SOL    HW214751   6.764   4.780   1.005  0.0928  0.7826  3.0686
 4618SOL     OW14752   1.402   3.189   6.821  0.3415 -0.0181 -0.0273
 4618SOL    HW114753   1.487   3.199   6.873  0.6369 -0.8445 -0.3361
 4618SOL    HW214754   1.377   3.093   6.816 -1.1808  0.2784  0.9429
 4619SOL     OW14755   2.403   2.204   4.813 -0.3238 -0.4378  0.2322
 4619SOL    HW114756   2.435   2.110   4.827 -0.9461 -0.6377  0.3585
 4619SOL    HW214757   2.308   2.201   4.781  0.1699  0.0914 -1.3428
 4620SOL     OW14758   1.496   6.537   1.488 -0.0480 -0.0192 -0.2559
 4620SOL    HW114759   1.581   6.494   1.457  1.1881  2.5051 -0.6061
 4620SOL    HW214760   1.503   6.557   1.585 -0.6810 -0.6891 -0.0610
 4621SOL     OW14761   5.190   1.325   0.285  0.5015  0.3898 -0.3952
 4621SOL    HW114762   5.185   1.285   0.376  0.2152  1.2497 -0.0225
 4621SOL    HW214763   5.277   1.302   0.242  1.2700  1.2069  0.6822
 4622SOL     OW14764   0.478   4.621   0.859 -0.3959  0.0915  0.2325
 4622SOL    HW114765   0.396   4.649   0.811 -1.3709 -1.8231  0.6813
 4622SOL    HW214766   0.480   4.522   0.867  2.2525  0.0369 -0.2329
 4623SOL     OW14767   5.345   2.868   4.412  0.0756  0.2675 -0.2466
 4623SOL    HW114768   5.287   2.796   4.450  1.1535 -0.6687 -0.2981
 4623SOL    HW214769   5.319   2.887   4.317  0.7373 -1.1575 -0.7372
 4624SOL     OW14770   1.872   1.042   5.748  0.4981 -0.1303  0.0911
 4624SOL    HW114771   1.947   1.106   5.731  0.0163 -0.2949 -3.2660
 4624SOL    HW214772   1.909   0.958   5.789  1.7038  0.7657  0.9323
 4625SOL     OW14773   6.627   4.617   6.736  0.4604 -0.2461  0.9880
 4625SOL    HW114774   6.644   4.531   6.688  0.9537  0.2594  0.2251
 4625SOL    HW214775   6.545   4.660   6.698  1.4795  0.6997 -0.2210
 4626SOL     OW14776   6.352   4.747   3.842 -0.9827  0.3284  0.1518
 4626SOL    HW114777   6.295   4.812   3.893 -1.0361 -0.2024  0.7864
 4626SOL    HW214778   6.295   4.676   3.802 -0.8193  0.0888  0.3434
 4627SOL     OW14779   6.094   6.628   3.453  0.7080  0.2963 -0.0333
 4627SOL    HW114780   6.010   6.582   3.427 -0.6774  0.9377  2.8740
 4627SOL    HW214781   6.170   6.563   3.452 -0.8022 -1.6679  2.0705
 4628SOL     OW14782   1.090   2.837   1.905 -0.6183  0.1550  0.0156
 4628SOL    HW114783   1.093   2.742   1.873 -0.8264  0.0315  0.3488
 4628SOL    HW214784   1.160   2.851   1.975 -2.1547 -0.4358  1.7394
 4629SOL     OW14785   2.690   5.697   4.143 -0.1535  0.5573  0.4424
 4629SOL    HW114786   2.790   5.699   4.143 -0.0394 -0.2098 -2.7275
 4629SOL    HW214787   2.658   5.678   4.236  2.6009  1.0379  1.6012
 4630SOL     OW14788   0.730   4.672   2.235  0.1452 -0.2586 -0.8262
 4630SOL    HW114789   0.688   4.737   2.172  0.1512  0.2182 -0.3440
 4630SOL    HW214790   0.728   4.709   2.327  2.3557  0.1412 -0.8952
 4631SOL     OW14791   1.586   1.717   2.283 -0.2532  0.1210 -0.1380
 4631SOL    HW114792   1.509   1.669   2.326  0.3578  1.2617  2.3789
 4631SOL    HW214793   1.646   1.650   2.238 -1.3862 -1.0396  0.0218
 4632SOL     OW14794   4.967   5.915   3.491  0.1908 -0.2295 -0.1997
 4632SOL    HW114795   4.867   5.904   3.489 -0.0762  1.9595 -0.5117
 4632SOL    HW214796   5.000   5.901   3.585 -0.4439 -0.6003 -0.0219
 4633SOL     OW14797   5.918   4.106   5.647 -0.0812 -0.6210  0.5296
 4633SOL    HW114798   5.895   4.010   5.659 -0.0081 -0.7724 -0.4729
 4633SOL    HW214799   5.972   4.137   5.725 -1.5072 -0.9308  1.6966
 4634SOL     OW14800   0.909   6.068   0.512  0.0044 -0.9985  0.2106
 4634SOL    HW114801   1.004   6.090   0.538  0.0723 -0.4169 -0.4837
 4634SOL    HW214802   0.873   5.999   0.574  0.4371 -0.2613  1.3175
 4635SOL     OW14803   6.213   3.880   0.401 -0.4508  0.2044 -0.2779
 4635SOL    HW114804   6.270   3.949   0.356 -0.8881  0.1585 -0.9250
 4635SOL    HW214805   6.257   3.849   0.485  0.0903  0.7490 -0.3565
 4636SOL     OW14806   0.725   5.495   3.705  0.1692  0.3314 -0.0478
 4636SOL    HW114807   0.679   5.482   3.792 -1.1203 -1.7513 -0.9475
 4636SOL    HW214808   0.758   5.406   3.671  1.9357  1.2890 -1.0226
 4637SOL     OW14809   4.908   6.894   4.498  0.4792 -0.3484  0.6298
 4637SOL    HW114810   4.967   6.972   4.474  0.0220 -0.7740 -2.2203
 4637SOL    HW214811   4.942   6.852   4.582  3.4402  0.2738 -0.1120
 4638SOL     OW14812   4.860   6.475   5.710  0.1198 -0.1323  0.6477
 4638SOL    HW114813   4.807   6.482   5.625 -0.9979  1.1610  1.4073
 4638SOL    HW214814   4.898   6.383   5.718  1.3867  0.0944 -1.8837
 4639SOL     OW14815   1.480   2.813   5.829  0.6971  0.2926 -0.5559
 4639SOL    HW114816   1.509   2.900   5.868  2.3386  0.7727 -2.6557
 4639SOL    HW214817   1.439   2.829   5.739  0.2784 -1.0411 -0.6253
 4640SOL     OW14818   1.472   5.885   3.054  0.0401 -0.3011 -0.2511
 4640SOL    HW114819   1.437   5.942   3.128  1.0866 -1.5153  1.2491
 4640SOL    HW214820   1.429   5.795   3.058  0.9033 -0.7301 -0.4173
 4641SOL     OW14821   2.861   4.815   4.256 -0.2869 -0.0678  0.5929
 4641SOL    HW114822   2.776   4.785   4.299 -1.0444  0.3366 -0.5736
 4641SOL    HW214823   2.939   4.781   4.308 -1.1525 -1.0519  1.2770
 4642SOL     OW14824   0.198   6.053   4.662  0.8128  0.7291  0.0087
 4642SOL    HW114825   0.267   5.996   4.708  0.0514 -2.2221 -2.1569
 4642SOL    HW214826   0.110   6.044   4.709  0.4912 -0.7016 -0.8033
 4643SOL     OW14827   4.182   5.011   2.122 -0.1957  0.0602  0.3593
 4643SOL    HW114828   4.189   4.914   2.144 -1.8577 -0.0702  0.4009
 4643SOL    HW214829   4.125   5.023   2.041 -0.1486  1.0026  0.4536
 4644SOL     OW14830   2.676   5.668   5.186  0.8341 -0.3590  0.3606
 4644SOL    HW114831   2.633   5.600   5.128  1.3262 -2.6343  2.4832
 4644SOL    HW214832   2.715   5.740   5.130 -2.8224  0.1692 -1.8352
 4645SOL     OW14833   2.113   6.610   5.306 -0.2683 -0.0505 -0.0921
 4645SOL    HW114834   2.188   6.630   5.242 -0.2942 -0.4718 -0.2569
 4645SOL    HW214835   2.132   6.524   5.354 -0.4579  0.0445  0.1542
 4646SOL     OW14836   2.549   0.752   2.682 -0.4131 -0.2555  0.4991
 4646SOL    HW114837   2.609   0.672   2.684 -1.1276 -0.7942  1.6559
 4646SOL    HW214838   2.458   0.726   2.715 -1.3949  0.4657 -1.4534
 4647SOL     OW14839   6.635   1.430   5.475 -0.1905 -0.1891  0.4650
 4647SOL    HW114840   6.673   1.355   5.421  0.5881  0.1748  0.4978
 4647SOL    HW214841   6.661   1.518   5.434  1.8173  0.1442  2.2980
 4648SOL     OW14842   1.097   5.614   3.518 -0.2587 -0.4222  0.1767
 4648SOL    HW114843   1.142   5.703   3.520 -1.4318  0.1692  1.3006
 4648SOL    HW214844   1.088   5.579   3.611 -1.3285 -0.9354 -0.1056
 4649SOL     OW14845   5.569   4.771   5.580 -0.2752  0.0414 -0.0409
 4649SOL    HW114846   5.489   4.717   5.608 -0.6138  0.1203 -0.8179
 4649SOL    HW214847   5.595   4.744   5.487  0.7230 -0.1107  0.2774
 4650SOL     OW14848   4.204   4.051   1.760  0.0372  0.3520 -0.2197
 4650SOL    HW114849   4.295   4.087   1.782  0.4231 -0.5637 -0.2566
 4650SOL    HW214850   4.202   3.953   1.778 -0.8358  0.2943 -0.5851
 4651SOL     OW14851   6.369   3.508   3.589 -0.7149 -0.2115 -0.0277
 4651SOL    HW114852   6.458   3.528   3.549  0.0373  0.2371  1.7691
 4651SOL    HW214853   6.362   3.410   3.609 -2.4769 -1.1532 -4.3104
 4652SOL     OW14854   1.495   5.697   0.041 -0.1002  0.0109  0.4716
 4652SOL    HW114855   1.578   5.686   0.096  1.6013 -0.4318 -2.0388
 4652SOL    HW214856   1.428   5.628   0.070  0.8680 -0.4512  1.7332
 4653SOL     OW14857   3.247   4.984   0.495  0.3526  0.1920 -0.3731
 4653SOL    HW114858   3.242   4.924   0.575 -0.5561  0.7468  0.0017
 4653SOL    HW214859   3.252   4.928   0.412  1.0004 -0.3918  0.0466
 4654SOL     OW14860   2.629   2.907   0.225 -0.2294  1.0395  0.0323
 4654SOL    HW114861   2.659   2.819   0.186  1.0045  0.5471  1.9617
 4654SOL    HW214862   2.639   2.979   0.157  1.8641  0.2201 -0.6047
 4655SOL     OW14863   1.631   3.802   4.273  0.7142 -0.1087  1.0132
 4655SOL    HW114864   1.716   3.801   4.325  1.5962 -1.0157 -0.3837
 4655SOL    HW214865   1.650   3.822   4.177 -0.9081  1.8250  1.0376
 4656SOL     OW14866   2.877   1.304   3.880  0.1788 -0.1444  0.4503
 4656SOL    HW114867   2.880   1.259   3.791  0.2177 -1.2728  0.9982
 4656SOL    HW214868   2.784   1.336   3.899  0.4984  1.5644 -0.6676
 4657SOL     OW14869   5.970   5.944   5.790 -0.2662 -0.0217  0.0327
 4657SOL    HW114870   5.988   5.994   5.874  0.6825  0.2159 -0.3040
 4657SOL    HW214871   6.019   5.857   5.792 -0.4298 -0.1195 -0.1789
 4658SOL     OW14872   6.797   6.958   2.860  0.3132  0.5537 -0.6749
 4658SOL    HW114873   6.803   6.893   2.935  1.1471 -0.2872 -1.4366
 4658SOL    HW214874   6.889   6.992   2.838  0.2344 -0.0531 -2.0159
 4659SOL     OW14875   1.603   4.320   4.212 -0.0548 -0.7877 -0.0438
 4659SOL    HW114876   1.532   4.297   4.146 -1.1862  0.0701  0.8249
 4659SOL    HW214877   1.577   4.285   4.302  1.1312 -1.3528  0.1000
 4660SOL     OW14878   1.294   6.309   5.363  0.1487  0.2399 -0.1985
 4660SOL    HW114879   1.282   6.240   5.293  0.8852  1.1539 -1.2632
 4660SOL    HW214880   1.244   6.392   5.339 -1.5787 -0.2118  1.5712
 4661SOL     OW14881   2.987   3.268   3.976 -0.0462 -0.0684  0.0939
 4661SOL    HW114882   3.063   3.316   4.020 -0.4630  0.0885  0.6495
 4661SOL    HW214883   2.912   3.331   3.961  0.0183 -0.1675 -0.6800
 4662SOL     OW14884   6.457   6.566   4.344 -0.2498  0.2112 -0.4021
 4662SOL    HW114885   6.434   6.651   4.392  0.1147  0.1209 -0.0650
 4662SOL    HW214886   6.497   6.501   4.408  2.4971  0.9560 -1.2265
 4663SOL     OW14887   0.759   1.914   2.267 -0.0436 -0.0165  0.0033
 4663SOL    HW114888   0.712   1.971   2.334  0.1067  0.3584 -0.2042
 4663SOL    HW214889   0.802   1.836   2.313  1.0782  0.8809  0.5223
 4664SOL     OW14890   4.636   4.306   0.705  0.2401  0.2404  0.3435
 4664SOL    HW114891   4.602   4.399   0.688  0.9869  0.4962  0.2221
 4664SOL    HW214892   4.734   4.302   0.684  0.0492 -0.7765 -0.3965
 4665SOL     OW14893   5.475   0.258   5.787 -0.2472  0.3076  0.2133
 4665SOL    HW114894   5.409   0.188   5.813  0.6730 -0.3563  0.8296
 4665SOL    HW214895   5.549   0.217   5.734 -0.2394  1.0175 -0.3546
 4666SOL     OW14896   0.651   0.934   1.179 -0.0236  0.1171  0.8049
 4666SOL    HW114897   0.629   0.989   1.260 -0.4059 -0.5701  1.1763
 4666SOL    HW214898   0.576   0.872   1.160  0.1907  0.0713  0.0830
 4667SOL     OW14899   1.157   5.034   4.340 -0.0354 -0.3755  0.4618
 4667SOL    HW114900   1.226   4.965   4.358  2.4749  1.3118 -1.8596
 4667SOL    HW214901   1.170   5.112   4.401 -1.4245 -0.9581  1.5554
 4668SOL     OW14902   3.483   6.901   4.472  0.5076  0.1874  0.3922
 4668SOL    HW114903   3.494   6.869   4.566  0.6510 -0.5429  0.1371
 4668SOL    HW214904   3.490   7.000   4.469 -0.3885  0.2967  1.2815
 4669SOL     OW14905   2.545   0.940   3.943 -0.0684 -0.1738 -0.1005
 4669SOL    HW114906   2.517   1.011   4.008 -0.4858  0.6417 -1.1357
 4669SOL    HW214907   2.643   0.924   3.952 -0.2128 -0.4886  1.1121
 4670SOL     OW14908   2.239   1.380   4.838 -0.3196 -0.1487  0.4899
 4670SOL    HW114909   2.251   1.401   4.935 -0.8043  1.9055  0.1514
 4670SOL    HW214910   2.323   1.340   4.801  0.9471  1.8581  1.0861
 4671SOL     OW14911   6.164   3.465   2.827 -0.0306  0.1818 -0.0194
 4671SOL    HW114912   6.158   3.367   2.805 -0.4717  0.3231 -0.5368
 4671SOL    HW214913   6.258   3.496   2.815 -0.2980  0.3236 -2.0447
 4672SOL     OW14914   3.570   6.100   2.917  0.6859  0.2356  0.8968
 4672SOL    HW114915   3.515   6.110   2.999  0.3739  1.0492  0.5912
 4672SOL    HW214916   3.617   6.185   2.897 -1.1110  0.8451 -1.0890
 4673SOL     OW14917   5.845   6.617   3.689  0.6646 -0.2128  0.5818
 4673SOL    HW114918   5.924   6.589   3.635  1.4013 -2.3425  2.5867
 4673SOL    HW214919   5.864   6.602   3.786 -0.7501  2.9904  1.5102
 4674SOL     OW14920   5.902   0.495   4.542 -0.0620  0.3610  0.0854
 4674SOL    HW114921   5.932   0.399   4.549  0.2842  0.3674 -1.1005
 4674SOL    HW214922   5.827   0.501   4.477  0.3955  0.9885 -0.4005
 4675SOL     OW14923   2.032   3.079   6.727  0.2757  0.2209  0.4218
 4675SOL    HW114924   1.980   3.059   6.811 -0.7150  1.3227  0.0943
 4675SOL    HW214925   2.125   3.106   6.752 -0.0505  0.6857  1.1930
 4676SOL     OW14926   1.922   6.270   4.235  0.4707  0.4106 -0.0072
 4676SOL    HW114927   1.929   6.336   4.160  0.4804  0.6806  0.2263
 4676SOL    HW214928   2.009   6.224   4.248  0.1880 -0.3697 -0.8186
 4677SOL     OW14929   0.924   3.675   0.806 -0.1671  0.3146 -0.1861
 4677SOL    HW114930   0.874   3.651   0.722  1.9051 -1.3715 -1.0285
 4677SOL    HW214931   0.936   3.775   0.810 -1.2283  0.5171 -1.3133
 4678SOL     OW14932   0.115   3.733   0.037  0.2342 -0.2179 -0.3884
 4678SOL    HW114933   0.174   3.769   0.109  0.1588 -1.2278  0.1999
 4678SOL    HW214934   0.096   3.805  -0.030  2.0981  0.1389 -0.5809
 4679SOL     OW14935   4.068   0.737   2.426 -0.2297 -0.7021 -0.0790
 4679SOL    HW114936   4.081   0.707   2.520  0.3536  0.4991  0.2359
 4679SOL    HW214937   4.156   0.732   2.377 -0.2031  0.1277 -0.1224
 4680SOL     OW14938   3.930   1.568   6.493  0.3521 -0.1172 -0.0488
 4680SOL    HW114939   3.960   1.486   6.444 -1.8947  0.4915 -2.6874
 4680SOL    HW214940   3.998   1.640   6.483  0.3148 -0.2752 -1.6480
 4681SOL     OW14941   6.380   5.277   2.233 -0.6729 -0.6087  0.1704
 4681SOL    HW114942   6.451   5.227   2.283 -0.9629  0.0098  1.2247
 4681SOL    HW214943   6.407   5.285   2.136  1.2681  0.5955  0.7528
 4682SOL     OW14944   3.279   3.221   5.345  0.4421 -0.8030 -0.0176
 4682SOL    HW114945   3.332   3.201   5.427 -0.4458  0.0979  0.8010
 4682SOL    HW214946   3.285   3.143   5.282  1.8165 -1.1611  0.5142
 4683SOL     OW14947   5.614   4.432   2.564 -0.4939 -0.8173  0.2088
 4683SOL    HW114948   5.515   4.430   2.555 -0.4037 -0.6515 -0.9186
 4683SOL    HW214949   5.655   4.363   2.505  0.1032 -0.2093 -0.1080
 4684SOL     OW14950   2.808   5.632   6.656 -0.3386  0.7174 -0.1233
 4684SOL    HW114951   2.860   5.652   6.739 -1.5807 -0.3976  0.9802
 4684SOL    HW214952   2.767   5.715   6.621  0.5649  1.2777  0.1230
 4685SOL     OW14953   3.259   2.954   3.192  0.7787  0.8671 -0.2511
 4685SOL    HW114954   3.178   3.010   3.205 -0.7052 -1.2480  0.0765
 4685SOL    HW214955   3.282   2.951   3.094 -0.1934  0.6435 -0.4809
 4686SOL     OW14956   2.169   6.356   0.902  0.4544 -0.6264  0.3860
 4686SOL    HW114957   2.188   6.293   0.978 -0.4591 -2.2697 -0.6839
 4686SOL    HW214958   2.070   6.366   0.892  0.5446  2.2361  1.4575
 4687SOL     OW14959   0.856   0.411   2.598 -0.2181  0.4862 -0.3303
 4687SOL    HW114960   0.801   0.474   2.654  1.4780  0.3858  1.5543
 4687SOL    HW214961   0.870   0.326   2.649  1.1512  0.2791 -1.0125
 4688SOL     OW14962   3.825   3.042   5.495 -0.2816 -0.1478 -0.3283
 4688SOL    HW114963   3.908   3.043   5.439 -0.3339  0.4323 -0.4060
 4688SOL    HW214964   3.760   3.108   5.459  0.2571  1.3265  1.2388
 4689SOL     OW14965   6.347   0.400   0.060  0.0992  0.0620  0.3224
 4689SOL    HW114966   6.349   0.476  -0.005 -0.9156  1.8595  2.2850
 4689SOL    HW214967   6.259   0.353   0.053 -0.0309  0.2885  0.4428
 4690SOL     OW14968   3.270   3.812   1.479 -0.1984  0.4216 -0.6554
 4690SOL    HW114969   3.274   3.712   1.481  1.6222  0.4540 -0.6529
 4690SOL    HW214970   3.228   3.842   1.393  0.6929 -0.3582 -1.3970
 4691SOL     OW14971   5.449   3.370   1.956  0.8876  0.7819 -0.1559
 4691SOL    HW114972   5.429   3.372   2.054 -0.3919 -1.3555 -0.3167
 4691SOL    HW214973   5.383   3.312   1.910  1.8198  1.2852 -2.2257
 4692SOL     OW14974   4.707   4.313   3.128 -0.7202 -0.1679 -0.4761
 4692SOL    HW114975   4.706   4.264   3.041  2.5607  1.1010 -1.3960
 4692SOL    HW214976   4.677   4.407   3.114  1.1627  0.4535 -0.6272
 4693SOL     OW14977   0.596   1.222   4.103  0.2536  0.2971 -0.3181
 4693SOL    HW114978   0.567   1.274   4.183 -2.5817 -0.7355 -0.5431
 4693SOL    HW214979   0.646   1.141   4.133 -2.4325 -1.1306  0.7056
 4694SOL     OW14980   2.119   6.320   5.311 -0.3301  0.0464 -0.3420
 4694SOL    HW114981   2.196   6.259   5.327 -0.5005 -0.4016 -1.1712
 4694SOL    HW214982   2.034   6.268   5.313 -0.4822  0.2494 -0.9857
 4695SOL     OW14983   3.231   5.112   3.141 -0.3753  0.2112  0.1990
 4695SOL    HW114984   3.220   5.020   3.178 -1.6049  0.1428 -0.3146
 4695SOL    HW214985   3.199   5.114   3.047 -1.6825  1.4846  0.6372
 4696SOL     OW14986   2.634   0.015   7.020 -0.0407  0.0343  0.8924
 4696SOL    HW114987   2.561   0.083   7.033 -0.3957 -0.2638  0.5076
 4696SOL    HW214988   2.593  -0.071   6.989  0.6197  0.3679 -1.0373
 4697SOL     OW14989   3.935   4.964   0.985 -0.6716  0.5047 -0.4735
 4697SOL    HW114990   3.894   5.046   1.024 -1.2050 -0.6054  1.4628
 4697SOL    HW214991   3.862   4.900   0.959 -0.2448  0.2519 -1.0692
 4698SOL     OW14992   6.812   1.227   5.378  1.0473 -0.3669 -0.1664
 4698SOL    HW114993   6.871   1.257   5.453  2.5651 -1.2209 -0.9605
 4698SOL    HW214994   6.865   1.224   5.293 -0.0387 -1.5641 -0.8451
 4699SOL     OW14995   0.014   2.705   1.347  0.2769 -0.1647 -0.4413
 4699SOL    HW114996   0.003   2.628   1.411 -0.7956  0.3544  0.0283
 4699SOL    HW214997   0.111   2.717   1.326  0.5425 -1.0686  0.1982
 4700SOL     OW14998   6.068   0.928   4.439 -0.1996 -0.1327  0.6873
 4700SOL    HW114999   6.132   0.888   4.504  0.9184  4.2826  2.6380
 4700SOL    HW215000   6.115   0.945   4.352  0.6088  0.7686  1.2762
 4701SOL     OW15001   2.830   2.353   1.476 -0.5082  0.0707 -0.1403
 4701SOL    HW115002   2.927   2.365   1.453 -0.8312 -0.8865 -2.2068
 4701SOL    HW215003   2.821   2.284   1.548  0.4159  1.3134  1.2020
 4702SOL     OW15004   5.701   5.215   1.647  0.1020 -0.6248 -0.4575
 4702SOL    HW115005   5.754   5.142   1.691  0.6630  0.1118  0.1044
 4702SOL    HW215006   5.763   5.287   1.615 -0.6260  1.1424  1.8220
 4703SOL     OW15007   1.177   4.188   3.930 -1.1549 -0.1348  0.1873
 4703SOL    HW115008   1.193   4.284   3.951  0.4223 -0.2504 -0.3462
 4703SOL    HW215009   1.115   4.180   3.852  0.1613  0.5146 -0.9512
 4704SOL     OW15010   4.218   4.828   3.999 -0.1250  0.3228  0.0116
 4704SOL    HW115011   4.249   4.764   4.069  2.4540  1.0056 -0.4314
 4704SOL    HW215012   4.118   4.827   3.996 -0.2338 -1.7899  1.7321
 4705SOL     OW15013   4.232   2.086   1.504  0.9167  0.2218 -0.2759
 4705SOL    HW115014   4.252   2.013   1.439 -0.9066 -1.1020  0.5632
 4705SOL    HW215015   4.316   2.139   1.522  2.0881 -1.1286 -1.5352
 4706SOL     OW15016   0.780   2.379   1.295 -0.5407  0.1857 -0.0436
 4706SOL    HW115017   0.794   2.433   1.213 -0.1120 -0.9977 -0.7706
 4706SOL    HW215018   0.768   2.282   1.271  1.3928 -0.4723  1.3874
 4707SOL     OW15019   1.737   3.768   1.649 -0.7606 -0.1455 -0.2228
 4707SOL    HW115020   1.836   3.763   1.663 -0.8964 -0.6761  0.6982
 4707SOL    HW215021   1.712   3.859   1.617  0.0801 -0.1697 -0.9803
 4708SOL     OW15022   1.717   2.555   6.189  0.1617  0.1056 -1.1360
 4708SOL    HW115023   1.741   2.511   6.102  1.4045  0.2655 -0.8978
 4708SOL    HW215024   1.800   2.592   6.231 -0.8147  2.8832 -1.4102
 4709SOL     OW15025   4.872   3.937   5.101  0.3684 -0.5106 -0.5513
 4709SOL    HW115026   4.819   3.906   5.179 -0.0096  1.0472 -0.1536
 4709SOL    HW215027   4.958   3.979   5.132 -0.1764  0.9075 -0.8748
 4710SOL     OW15028   5.973   5.081   5.435 -0.4495 -0.9873  0.2125
 4710SOL    HW115029   5.880   5.113   5.448 -0.3735  1.5861 -3.9019
 4710SOL    HW215030   5.975   5.011   5.364  0.7568 -0.8559  0.0830
 4711SOL     OW15031   0.002   3.594   3.728 -0.0464 -0.0730 -0.0754
 4711SOL    HW115032  -0.042   3.506   3.711  0.9871 -0.5993 -0.1188
 4711SOL    HW215033   0.050   3.590   3.816  1.7660 -0.2992 -1.0280
 4712SOL     OW15034   5.123   5.783   5.966  0.0999 -0.7627  0.2883
 4712SOL    HW115035   5.106   5.754   6.061 -0.0595 -2.2273 -0.1685
 4712SOL    HW215036   5.105   5.707   5.904  1.5159 -0.2292 -0.8215
 4713SOL     OW15037   5.318   0.927   0.529  0.3627  0.7325  0.1063
 4713SOL    HW115038   5.380   0.883   0.594  1.0959 -0.0226 -1.0477
 4713SOL    HW215039   5.230   0.880   0.530  0.1993  1.0425  0.8954
 4714SOL     OW15040   6.553   2.189   5.860  0.0373 -0.0356 -1.0856
 4714SOL    HW115041   6.590   2.102   5.830 -1.3881 -0.9155 -0.4050
 4714SOL    HW215042   6.494   2.227   5.789  2.8750  1.8924 -2.6251
 4715SOL     OW15043   5.530   0.134   1.413 -0.0786 -0.2993  0.9886
 4715SOL    HW115044   5.519   0.171   1.320 -0.9336 -1.5881  0.5420
 4715SOL    HW215045   5.473   0.187   1.476 -0.2287  0.0002  0.6119
 4716SOL     OW15046   1.874   4.443   5.719 -0.2813  1.1420 -0.0258
 4716SOL    HW115047   1.888   4.541   5.724 -1.7366  1.4247 -0.9126
 4716SOL    HW215048   1.876   4.414   5.623  1.6101  0.0407  0.2880
 4717SOL     OW15049   1.278   6.510   6.500  0.2837 -0.1124 -0.3925
 4717SOL    HW115050   1.220   6.553   6.569 -0.5500 -0.9676 -0.5330
 4717SOL    HW215051   1.230   6.509   6.412  1.2271  0.7243 -0.9282
 4718SOL     OW15052   4.729   4.188   3.800  0.7993 -0.7742  0.5957
 4718SOL    HW115053   4.800   4.195   3.730  1.6225 -0.6793  1.4227
 4718SOL    HW215054   4.738   4.101   3.848 -0.6002 -1.4427 -0.2828
 4719SOL     OW15055   6.141   2.697   3.395  0.0846 -0.3103 -0.1150
 4719SOL    HW115056   6.075   2.771   3.409 -0.8386 -1.3688  1.3958
 4719SOL    HW215057   6.139   2.668   3.300  0.2520  1.3850 -0.6721
 4720SOL     OW15058   1.236   2.129   4.525  0.2118 -0.2908  0.4629
 4720SOL    HW115059   1.285   2.204   4.481 -1.8884  0.9378  0.0710
 4720SOL    HW215060   1.228   2.148   4.623  0.2168 -0.3029  0.4655
 4721SOL     OW15061   5.986   0.983   2.482 -0.2298  0.3324  0.5096
 4721SOL    HW115062   6.081   0.958   2.499  0.1116 -0.4001 -2.0565
 4721SOL    HW215063   5.982   1.080   2.458  0.3785 -0.1976 -2.1005
 4722SOL     OW15064   0.057   3.923   5.163  0.1259  0.2746  0.0039
 4722SOL    HW115065   0.088   4.004   5.213  0.1917 -1.2728  2.6826
 4722SOL    HW215066  -0.039   3.907   5.184  0.0483 -0.1916 -0.7018
 4723SOL     OW15067   1.146   4.690   4.237  0.2249 -0.3265 -0.1426
 4723SOL    HW115068   1.053   4.705   4.270 -0.4586  1.9254 -2.7600
 4723SOL    HW215069   1.211   4.715   4.309 -1.1935  1.7400  0.5113
 4724SOL     OW15070   6.647   7.019   5.070 -0.3923 -0.4620  0.3592
 4724SOL    HW115071   6.702   7.025   5.153 -0.9291  0.1132  0.6903
 4724SOL    HW215072   6.697   7.060   4.993 -1.0341  1.7470  1.0384
 4725SOL     OW15073   4.391   6.396   2.142 -0.4159  0.5564 -0.7472
 4725SOL    HW115074   4.421   6.479   2.096  3.5165 -0.0664  0.3546
 4725SOL    HW215075   4.438   6.317   2.103  1.8964 -0.1914  3.0651
 4726SOL     OW15076   2.196   2.372   5.690 -0.6932  0.2574 -0.7705
 4726SOL    HW115077   2.270   2.400   5.630  0.6395 -2.9582 -0.8456
 4726SOL    HW215078   2.112   2.360   5.636 -0.1532 -0.1699 -1.5411
 4727SOL     OW15079   6.211   6.792   1.693  0.0486 -0.2126  0.0966
 4727SOL    HW115080   6.253   6.728   1.757  0.8949 -0.1192 -0.3509
 4727SOL    HW215081   6.163   6.864   1.744  0.4751 -0.2949  0.6146
 4728SOL     OW15082   5.020   1.444   2.139 -0.2018 -0.4016  0.3666
 4728SOL    HW115083   4.939   1.495   2.168  0.3369  0.8112 -0.2004
 4728SOL    HW215084   5.068   1.408   2.220 -1.5373 -1.5589  0.6865
 4729SOL     OW15085   0.692   6.837   3.035 -0.4227 -0.2010  0.1853
 4729SOL    HW115086   0.710   6.743   3.065  2.4648  0.3480  0.4149
 4729SOL    HW215087   0.616   6.874   3.089 -0.1333 -1.6607  1.7031
 4730SOL     OW15088   2.279   6.366   3.332  0.3328 -0.5853 -0.2620
 4730SOL    HW115089   2.353   6.411   3.283 -0.7959 -1.6687 -3.1942
 4730SOL    HW215090   2.245   6.426   3.404  1.4684  1.5474 -1.4124
 4731SOL     OW15091   3.592   6.736   2.235  0.8392  0.6656 -0.4406
 4731SOL    HW115092   3.579   6.638   2.217 -0.0965  0.9751 -1.5586
 4731SOL    HW215093   3.564   6.758   2.328  0.8201 -0.0812 -0.2663
 4732SOL     OW15094   5.518   6.096   4.443 -1.0072 -0.4775 -0.0702
 4732SOL    HW115095   5.579   6.175   4.452 -0.6489 -0.7274 -0.2832
 4732SOL    HW215096   5.440   6.108   4.504  0.4754 -1.2805  2.1575
 4733SOL     OW15097   2.303   2.728   3.213 -0.7084  0.0219 -0.1172
 4733SOL    HW115098   2.374   2.659   3.217  0.3153  1.0965  1.2329
 4733SOL    HW215099   2.215   2.687   3.239 -0.8734 -1.5557 -2.7963
 4734SOL     OW15100   4.799   4.902   5.863 -0.4411  0.2638  0.1823
 4734SOL    HW115101   4.755   4.812   5.872  0.6262 -0.2338  0.6724
 4734SOL    HW215102   4.734   4.973   5.889 -0.5549 -0.5435  2.3340
 4735SOL     OW15103   5.555   0.664   6.273  0.5185  0.5189 -1.0506
 4735SOL    HW115104   5.586   0.690   6.365 -1.0451 -1.4944  0.1358
 4735SOL    HW215105   5.480   0.724   6.246  1.7480  1.8794 -1.5767
 4736SOL     OW15106   6.860   2.683   3.391 -0.7285 -0.0386 -0.1240
 4736SOL    HW115107   6.884   2.618   3.319 -2.1830  0.5621 -1.1912
 4736SOL    HW215108   6.770   2.660   3.428  0.3755 -0.8823  2.1864
 4737SOL     OW15109   1.200   4.742   6.327 -0.1161 -0.1922  0.7555
 4737SOL    HW115110   1.182   4.769   6.422 -1.4092  5.2486 -0.6921
 4737SOL    HW215111   1.289   4.778   6.299 -0.4446 -0.3097 -0.5068
 4738SOL     OW15112   1.065   4.284   3.583 -0.0431  0.2863  0.1453
 4738SOL    HW115113   1.040   4.275   3.487  1.5054 -1.8603 -0.1174
 4738SOL    HW215114   1.020   4.213   3.637  1.5557 -0.5812  0.4274
 4739SOL     OW15115   5.647   5.038   3.608 -0.3253  0.1047  0.5457
 4739SOL    HW115116   5.601   5.022   3.696  0.9219  0.7707  1.3439
 4739SOL    HW215117   5.716   5.110   3.619  0.6377 -0.5888 -0.7149
 4740SOL     OW15118   1.868   5.909   1.668  0.7308 -0.1532 -0.6545
 4740SOL    HW115119   1.864   5.963   1.752  1.7455 -0.5260 -0.3655
 4740SOL    HW215120   1.932   5.951   1.604  0.0838  0.0403 -1.1981
 4741SOL     OW15121   4.241   5.594   0.039  0.2554 -0.7626 -0.0980
 4741SOL    HW115122   4.335   5.602   0.005  0.1211  1.0529 -0.1614
 4741SOL    HW215123   4.238   5.624   0.134 -0.2952 -0.4910 -0.1958
 4742SOL     OW15124   2.422   4.997   0.421  0.6322  0.6914  0.4883
 4742SOL    HW115125   2.433   5.084   0.372  2.3088  0.8187  1.0309
 4742SOL    HW215126   2.509   4.947   0.419 -0.8882 -2.2078 -2.0208
 4743SOL     OW15127   3.102   5.401   0.643  0.3814  0.0828  0.3692
 4743SOL    HW115128   3.056   5.317   0.616  1.0843 -0.2167  0.0780
 4743SOL    HW215129   3.073   5.475   0.582  0.5660 -0.1851 -0.0483
 4744SOL     OW15130   4.051   0.431   2.439 -0.3541  0.3879  0.2686
 4744SOL    HW115131   4.001   0.516   2.458  0.3100  1.7542 -3.2874
 4744SOL    HW215132   4.149   0.447   2.451 -0.1011  0.6736 -1.7236
 4745SOL     OW15133   5.353   5.006   1.273  0.5624 -0.3831  0.3029
 4745SOL    HW115134   5.254   5.023   1.279  0.1860 -1.3541 -2.1464
 4745SOL    HW215135   5.374   4.919   1.318 -0.2785 -1.8112 -1.9209
 4746SOL     OW15136   6.535   1.205   2.929  0.2373  0.4958 -0.2851
 4746SOL    HW115137   6.551   1.107   2.939 -0.0621  0.2122 -2.2061
 4746SOL    HW215138   6.590   1.240   2.854 -0.6973  1.5112 -0.5182
 4747SOL     OW15139   1.341   1.755   1.455  0.1362 -0.0079 -0.2087
 4747SOL    HW115140   1.376   1.787   1.543 -0.0464  1.5194 -0.6574
 4747SOL    HW215141   1.252   1.798   1.437  2.0735  3.3445 -3.0746
 4748SOL     OW15142   2.910   6.209   0.351 -0.1542  0.1814  0.6097
 4748SOL    HW115143   2.849   6.148   0.401  0.1994 -0.4455  0.2828
 4748SOL    HW215144   2.874   6.224   0.259  0.0137  0.0683  0.5247
 4749SOL     OW15145   3.621   1.098   5.928 -0.2611  0.0600 -0.4430
 4749SOL    HW115146   3.539   1.154   5.915  0.2755  0.6402 -1.3840
 4749SOL    HW215147   3.701   1.147   5.895  0.1346 -1.5949 -2.0865
 4750SOL     OW15148   0.205   1.521   5.428 -0.5325  0.1706 -0.9447
 4750SOL    HW115149   0.283   1.541   5.489  0.8582 -2.2419 -1.7795
 4750SOL    HW215150   0.226   1.553   5.336 -0.7907  0.0273 -1.0533
 4751SOL     OW15151   1.473   4.022   2.028  0.3064 -0.1523  0.1695
 4751SOL    HW115152   1.541   3.971   1.975  0.2574  0.1911 -0.2350
 4751SOL    HW215153   1.382   3.983   2.012  0.0354  1.0119 -1.4106
 4752SOL     OW15154   3.547   5.731   0.006  0.2350  0.1913  0.1606
 4752SOL    HW115155   3.590   5.709  -0.081 -0.3851  1.3358 -0.4626
 4752SOL    HW215156   3.580   5.820   0.038  2.2784 -1.2263  2.3291
 4753SOL     OW15157   5.936   1.161   1.134  0.1508 -0.9170 -0.3028
 4753SOL    HW115158   5.869   1.094   1.167 -0.7472 -0.1920 -0.6228
 4753SOL    HW215159   5.948   1.232   1.203 -2.5726  1.2222 -1.8564
 4754SOL     OW15160   0.117   6.856   6.869  0.2307  0.0883  0.4071
 4754SOL    HW115161   0.043   6.924   6.866 -1.7916 -1.9447 -3.3088
 4754SOL    HW215162   0.097   6.787   6.939 -0.3869  0.5823  0.7235
 4755SOL     OW15163   3.383   6.887   0.534  0.6057  0.0665  0.1603
 4755SOL    HW115164   3.367   6.839   0.620  0.8657 -1.0395 -0.3930
 4755SOL    HW215165   3.411   6.981   0.553 -2.6540  0.9467  1.2431
 4756SOL     OW15166   5.233   2.030   0.292  0.5040  0.7035  0.2150
 4756SOL    HW115167   5.265   1.942   0.325 -2.7919 -0.5099  0.5316
 4756SOL    HW215168   5.221   2.027   0.193 -1.1425  0.1603  0.3955
 4757SOL     OW15169   2.037   4.002   1.004  0.1102  0.6895  1.0080
 4757SOL    HW115170   1.943   3.977   0.982 -0.0181  2.2513 -0.4487
 4757SOL    HW215171   2.091   4.006   0.920  0.9514  1.7697  1.5661
 4758SOL     OW15172   6.752   4.663   0.194 -0.6358 -0.8994  0.6922
 4758SOL    HW115173   6.823   4.600   0.162  1.0730  0.1672  2.1804
 4758SOL    HW215174   6.795   4.738   0.244 -2.5217  1.7276 -1.3472
 4759SOL     OW15175   5.939   4.233   0.138  0.3736 -0.1922 -0.9808
 4759SOL    HW115176   6.016   4.224   0.075  1.0466 -1.1233 -0.0629
 4759SOL    HW215177   5.875   4.302   0.103  1.5491  0.5114 -1.8195
 4760SOL     OW15178   1.244   2.026   1.132  0.4197 -0.5053 -0.4123
 4760SOL    HW115179   1.220   1.991   1.222 -1.1674  1.4172 -0.0091
 4760SOL    HW215180   1.332   1.988   1.103  0.6908 -1.5884  1.6750
 4761SOL     OW15181   3.249   5.716   7.005  0.7644  0.3487  0.1947
 4761SOL    HW115182   3.349   5.718   7.015  0.7723 -1.8583  1.1970
 4761SOL    HW215183   3.212   5.642   7.060 -1.2031 -0.4851 -2.0726
 4762SOL     OW15184   3.740   6.684   1.614 -0.2523 -0.1951 -0.2406
 4762SOL    HW115185   3.784   6.704   1.702 -1.4674 -0.4706  0.4658
 4762SOL    HW215186   3.683   6.762   1.588  0.0351 -0.1511 -0.7463
 4763SOL     OW15187   5.558   3.964   3.659  0.1125  0.3567  0.3263
 4763SOL    HW115188   5.618   4.030   3.703  1.2537 -0.7352  0.4506
 4763SOL    HW215189   5.533   3.892   3.724 -1.6844  0.9830  0.3992
 4764SOL     OW15190   3.959   3.923   2.699 -0.4759 -0.0782  0.0567
 4764SOL    HW115191   3.926   3.973   2.618 -0.8311 -0.0125  0.2416
 4764SOL    HW215192   3.883   3.877   2.743 -0.4997  0.9200  1.0816
 4765SOL     OW15193   6.630   5.949   6.715  0.1873 -0.3111 -0.5296
 4765SOL    HW115194   6.632   5.907   6.624 -2.3456  1.5987 -1.6023
 4765SOL    HW215195   6.546   5.921   6.762 -0.2734  1.4756 -0.2479
 4766SOL     OW15196   2.843   1.733   2.721 -0.5625 -0.4186 -0.3890
 4766SOL    HW115197   2.855   1.795   2.643  0.2010  0.8941  0.7429
 4766SOL    HW215198   2.891   1.769   2.800 -3.4153 -0.3839  1.4651
 4767SOL     OW15199   4.467   1.918   0.184 -0.3587  0.2737  0.5548
 4767SOL    HW115200   4.424   2.008   0.175 -1.4561 -0.2637  0.2148
 4767SOL    HW215201   4.546   1.924   0.244  1.8321  2.2156 -2.3090
 4768SOL     OW15202   2.104   0.375   4.664 -0.2106 -0.0469 -0.1692
 4768SOL    HW115203   2.044   0.392   4.586 -0.9906 -0.1813  0.4006
 4768SOL    HW215204   2.199   0.372   4.632 -0.4580  0.6222 -0.9985
 4769SOL     OW15205   4.925   2.229   1.231  0.0204 -0.0122  0.1011
 4769SOL    HW115206   4.914   2.275   1.142  1.0805  1.2601  0.5951
 4769SOL    HW215207   4.910   2.131   1.220 -3.0635  0.4482 -0.8861
 4770SOL     OW15208   2.624   0.975   5.128  0.8712  0.1002 -0.0873
 4770SOL    HW115209   2.647   1.029   5.048 -0.8031 -0.1124 -0.7644
 4770SOL    HW215210   2.546   0.915   5.107  1.5233 -1.2644  1.1719
 4771SOL     OW15211   3.361   4.773   6.337 -0.0558  0.0267 -0.7660
 4771SOL    HW115212   3.393   4.745   6.427  0.8806 -0.4028 -1.2110
 4771SOL    HW215213   3.352   4.872   6.333 -1.2298 -0.0241  0.1461
 4772SOL     OW15214   3.125   2.990   0.644 -0.2048  0.2668 -0.0729
 4772SOL    HW115215   3.193   3.056   0.613  0.2587 -0.8590 -1.5475
 4772SOL    HW215216   3.057   3.037   0.701  0.9265  1.7020  0.1494
 4773SOL     OW15217   5.733   4.775   6.038 -0.4823 -0.5476 -0.0385
 4773SOL    HW115218   5.709   4.796   6.133 -0.6928  0.0376 -0.2148
 4773SOL    HW215219   5.744   4.677   6.027  0.5001 -0.5517  0.8176
 4774SOL     OW15220   1.672   4.093   0.043  0.2372 -0.7282  0.3829
 4774SOL    HW115221   1.729   4.027  -0.006 -0.0603  0.4029 -1.5664
 4774SOL    HW215222   1.690   4.185   0.009 -1.4241 -0.1302  1.0130
 4775SOL     OW15223   0.951   2.179   1.402  0.1050 -0.0314 -0.0672
 4775SOL    HW115224   0.864   2.131   1.386  0.4034  0.0833 -2.2973
 4775SOL    HW215225   0.955   2.261   1.345  1.0213  0.8672  1.2271
 4776SOL     OW15226   4.385   5.853   2.655 -0.2640 -0.1440  0.1203
 4776SOL    HW115227   4.461   5.791   2.639 -0.3546 -0.2453  0.0851
 4776SOL    HW215228   4.415   5.947   2.640  0.1638 -0.0894  1.2147
 4777SOL     OW15229   2.202   4.384   2.147  0.0116 -0.4662  0.4529
 4777SOL    HW115230   2.114   4.338   2.146 -0.1154 -0.2285 -0.7711
 4777SOL    HW215231   2.270   4.327   2.100  1.3104 -2.0440  3.8146
 4778SOL     OW15232   0.324   2.925   3.836  0.2555  0.1919  0.3637
 4778SOL    HW115233   0.392   2.913   3.908  0.4670 -0.8918 -0.0045
 4778SOL    HW215234   0.326   2.846   3.775 -0.3038  0.8438 -0.5137
 4779SOL     OW15235   5.960   6.773   2.273  0.4843 -0.6084 -0.7104
 4779SOL    HW115236   6.057   6.763   2.252  0.7990  2.2606 -1.0809
 4779SOL    HW215237   5.949   6.834   2.352 -0.9965  0.6684 -1.8112
 4780SOL     OW15238   3.488   7.011   5.434  0.5443  0.9763  0.2796
 4780SOL    HW115239   3.458   7.033   5.342  2.4092  2.8413  0.0306
 4780SOL    HW215240   3.588   7.014   5.438  0.5177  0.7212  2.3077
 4781SOL     OW15241   2.653   5.198   2.189  0.1862  0.1242 -0.0740
 4781SOL    HW115242   2.620   5.292   2.192  0.0342  0.0627  0.2325
 4781SOL    HW215243   2.686   5.171   2.280  1.9080  0.4740 -0.5543
 4782SOL     OW15244   0.646   6.567   0.233 -1.2514 -0.1011 -0.2370
 4782SOL    HW115245   0.636   6.509   0.314  0.2441  1.0708  0.8373
 4782SOL    HW215246   0.647   6.510   0.151 -0.9810 -1.4863  0.6950
 4783SOL     OW15247   6.277   4.220   2.346  0.6012  0.6199  0.3555
 4783SOL    HW115248   6.184   4.249   2.370 -0.0971  0.7168 -2.1743
 4783SOL    HW215249   6.290   4.125   2.372  0.1141  0.8476  1.4931
 4784SOL     OW15250   5.259   4.138   6.970 -0.3064 -0.1871  0.3765
 4784SOL    HW115251   5.237   4.070   6.900  2.1766  0.3708 -1.1080
 4784SOL    HW215252   5.205   4.221   6.954  0.7428  0.2111 -1.4599
 4785SOL     OW15253   5.952   6.457   2.558 -0.3641 -0.0987  0.2046
 4785SOL    HW115254   6.012   6.411   2.623 -0.1719 -0.8494 -0.4805
 4785SOL    HW215255   6.007   6.498   2.485 -0.6345 -0.2572 -0.0948
 4786SOL     OW15256   0.558   4.246   1.275  0.2600  0.5431 -0.6198
 4786SOL    HW115257   0.616   4.174   1.312  1.2576  1.3557 -0.5574
 4786SOL    HW215258   0.586   4.334   1.313  0.2969  1.2047 -2.0986
 4787SOL     OW15259   2.447   1.166   2.064 -0.3149  0.3684  0.2062
 4787SOL    HW115260   2.479   1.071   2.063 -2.6099 -0.4884  1.4348
 4787SOL    HW215261   2.468   1.208   1.976  2.0279 -0.7858  0.1298
 4788SOL     OW15262   2.233   1.498   3.951 -0.3173 -0.1266 -0.1290
 4788SOL    HW115263   2.328   1.487   3.922 -0.1992  2.5538 -1.0212
 4788SOL    HW215264   2.173   1.452   3.886  0.2735 -0.3125 -0.5501
 4789SOL     OW15265   5.022   5.980   0.741 -0.1832 -0.1150  0.1885
 4789SOL    HW115266   4.992   5.906   0.681  1.2883 -1.5175  1.0872
 4789SOL    HW215267   4.979   5.969   0.831 -1.3083  1.1639 -0.1721
 4790SOL     OW15268   5.026   1.882   6.571 -0.2056  0.0064  0.0571
 4790SOL    HW115269   4.932   1.903   6.545 -0.0536  0.1465 -0.3894
 4790SOL    HW215270   5.034   1.884   6.671 -1.1217 -1.9087  0.2051
 4791SOL     OW15271   5.287   3.455   4.759  0.2928 -0.0983 -0.3294
 4791SOL    HW115272   5.200   3.494   4.790  0.4414 -0.5533  0.7188
 4791SOL    HW215273   5.349   3.529   4.733  0.1366  0.3092  0.4389
 4792SOL     OW15274   3.943   1.939   0.951 -0.5618 -0.2659 -0.2695
 4792SOL    HW115275   3.946   1.846   0.986 -0.4220 -0.2467 -0.2282
 4792SOL    HW215276   3.975   2.002   1.022  2.3541 -0.4801 -1.2749
 4793SOL     OW15277   0.205   0.045   6.377  0.0051  0.4352 -0.4479
 4793SOL    HW115278   0.105   0.043   6.382 -0.1149  1.2344 -1.7501
 4793SOL    HW215279   0.240   0.116   6.437 -0.3818  1.4497 -1.3804
 4794SOL     OW15280   4.554   0.722   1.851 -0.6955 -0.0742 -0.1216
 4794SOL    HW115281   4.496   0.717   1.770 -0.0490 -0.2325 -0.5816
 4794SOL    HW215282   4.619   0.646   1.851 -1.3078 -0.6386  1.0413
 4795SOL     OW15283   6.478   2.161   1.729 -0.1780 -0.3679  0.4138
 4795SOL    HW115284   6.477   2.104   1.811  2.4445 -1.5478 -0.2493
 4795SOL    HW215285   6.447   2.106   1.651 -0.5016  0.0334  0.2633
 4796SOL     OW15286   2.978   3.781   6.486  0.2366  0.8542 -0.0367
 4796SOL    HW115287   2.914   3.733   6.546 -0.6253  1.5156 -0.4020
 4796SOL    HW215288   2.936   3.795   6.396  1.1016  0.8253 -0.4520
 4797SOL     OW15289   2.191   5.423   3.628  0.1325  0.3114 -0.3693
 4797SOL    HW115290   2.250   5.378   3.562  1.0507 -0.1459  0.7296
 4797SOL    HW215291   2.117   5.361   3.654  1.2092 -0.4925  0.8957
 4798SOL     OW15292   6.276   6.199   5.240 -0.4858  0.0735  0.1735
 4798SOL    HW115293   6.200   6.241   5.290 -1.4296 -0.2412 -0.9295
 4798SOL    HW215294   6.261   6.100   5.234 -0.4694  0.1261 -0.8418
 4799SOL     OW15295   0.515   0.293   4.377  0.3284  0.6528  0.4350
 4799SOL    HW115296   0.589   0.300   4.309 -0.1050 -0.7406 -0.2261
 4799SOL    HW215297   0.536   0.218   4.440 -0.7810 -0.1568 -0.1283
 4800SOL     OW15298   2.263   1.118   3.721  0.1373 -0.3283  0.0291
 4800SOL    HW115299   2.241   1.180   3.645 -0.9846 -1.5666 -0.7125
 4800SOL    HW215300   2.355   1.138   3.755  0.5739  0.4265 -1.4969
 4801SOL     OW15301   0.311   0.353   1.727 -0.2234 -0.3535  0.1341
 4801SOL    HW115302   0.307   0.256   1.703 -0.2355 -0.4802  0.6359
 4801SOL    HW215303   0.260   0.407   1.659  0.4524 -0.6107 -0.5778
 4802SOL     OW15304   0.031   0.874   2.212  0.7517  0.2112 -0.6299
 4802SOL    HW115305   0.011   0.797   2.272 -0.0020 -0.3402 -1.5496
 4802SOL    HW215306   0.113   0.854   2.158  0.1144 -0.3151 -1.4333
 4803SOL     OW15307   2.423   5.930   0.187  0.0504 -0.3617  0.7479
 4803SOL    HW115308   2.503   5.878   0.217  0.2315  0.5913  2.0293
 4803SOL    HW215309   2.422   6.019   0.233 -0.1988  0.8262 -1.4226
 4804SOL     OW15310   4.525   4.639   6.929 -0.4909 -0.1549  0.2587
 4804SOL    HW115311   4.429   4.651   6.953 -0.8809 -1.1353 -0.7614
 4804SOL    HW215312   4.534   4.567   6.861  0.8446  0.8553 -0.6785
 4805SOL     OW15313   0.055   4.637   2.712  0.5304 -0.1002 -0.3986
 4805SOL    HW115314   0.063   4.564   2.780 -1.7512 -0.1303 -0.0830
 4805SOL    HW215315   0.109   4.715   2.741  1.7903 -1.0986  0.0408
 4806SOL     OW15316   4.992   1.956   3.345  0.2919  0.8241 -0.0288
 4806SOL    HW115317   5.039   2.016   3.410  1.2590  1.2857 -1.1155
 4806SOL    HW215318   4.910   2.001   3.311  0.0116  0.7533  0.5447
 4807SOL     OW15319   1.152   5.829   2.783 -1.1222 -0.4002 -0.3973
 4807SOL    HW115320   1.102   5.798   2.864 -0.1453 -0.9241  0.0248
 4807SOL    HW215321   1.185   5.923   2.798  0.3270 -1.0100  0.4497
 4808SOL     OW15322   6.542   2.192   2.124 -0.2403 -0.1205 -0.4057
 4808SOL    HW115323   6.630   2.145   2.115  0.9023  0.9511  3.4073
 4808SOL    HW215324   6.472   2.125   2.148  0.0925 -0.6183 -0.7795
 4809SOL     OW15325   5.571   0.249   1.168  0.1753 -0.4385  0.0210
 4809SOL    HW115326   5.668   0.260   1.189  0.3889  0.4305 -1.2637
 4809SOL    HW215327   5.560   0.235   1.069 -0.9743 -1.0622  0.2170
 4810SOL     OW15328   1.511   6.421   6.377  0.2685  0.0489  0.3484
 4810SOL    HW115329   1.586   6.389   6.433  0.4614  0.8049  0.5363
 4810SOL    HW215330   1.438   6.457   6.435 -0.4198 -1.0411  0.1835
 4811SOL     OW15331   6.312   4.149   3.366 -0.2527  0.2839  0.2228
 4811SOL    HW115332   6.385   4.170   3.301  0.5007 -1.5942  0.3924
 4811SOL    HW215333   6.223   4.161   3.322  0.2362 -0.5964 -1.0725
 4812SOL     OW15334   6.467   6.187   4.145 -0.0071 -0.2827  0.3692
 4812SOL    HW115335   6.442   6.200   4.241 -0.0141  0.5605  0.2587
 4812SOL    HW215336   6.537   6.117   4.138  0.3497  0.0026  1.0400
 4813SOL     OW15337   5.276   2.923   3.228  0.2367  0.1611  0.0110
 4813SOL    HW115338   5.290   2.952   3.133  0.0433  0.3291  0.0363
 4813SOL    HW215339   5.216   2.843   3.229  1.5403 -0.8659 -0.1393
 4814SOL     OW15340   5.881   0.523   3.150  0.1442 -0.2368 -0.3419
 4814SOL    HW115341   5.867   0.480   3.061 -1.6778  0.0433 -0.2356
 4814SOL    HW215342   5.793   0.557   3.185  0.6666 -0.9779  1.8866
 4815SOL     OW15343   5.563   2.283   3.883  0.3733 -0.4388  0.8846
 4815SOL    HW115344   5.518   2.259   3.969  0.2803 -0.2919  0.8787
 4815SOL    HW215345   5.551   2.381   3.866 -2.7652 -1.0073 -1.0908
 4816SOL     OW15346   6.913   5.172   5.144 -0.8636  0.4820  0.0907
 4816SOL    HW115347   6.982   5.100   5.135 -0.4981  0.6600  1.2853
 4816SOL    HW215348   6.906   5.223   5.059  0.7972  0.7292  0.0720
 4817SOL     OW15349   6.847   1.887   6.465 -0.7525  0.5310 -0.2331
 4817SOL    HW115350   6.813   1.800   6.430  0.3008 -0.4318  1.0407
 4817SOL    HW215351   6.810   1.903   6.556 -1.8580  2.0161 -0.9073
 4818SOL     OW15352   6.960   5.797   5.135  0.3136  0.5304  0.5097
 4818SOL    HW115353   7.045   5.846   5.156  0.5009 -0.7506  3.1547
 4818SOL    HW215354   6.882   5.852   5.166  0.2271  1.1623 -0.7897
 4819SOL     OW15355   1.218   4.210   1.113  0.4690  0.4873 -0.2987
 4819SOL    HW115356   1.222   4.287   1.049 -1.4923  0.1728 -0.8761
 4819SOL    HW215357   1.284   4.225   1.186 -0.2500  3.0509 -0.0532
 4820SOL     OW15358   0.510   3.583   2.136  0.0579 -0.2250  0.1556
 4820SOL    HW115359   0.530   3.489   2.163  0.4377 -0.2508 -0.1934
 4820SOL    HW215360   0.576   3.612   2.066  0.4893  0.5971  0.8879
 4821SOL     OW15361   1.690   4.480   2.412  0.3288 -0.2335 -0.9209
 4821SOL    HW115362   1.672   4.533   2.496  0.4315  0.6423 -1.4402
 4821SOL    HW215363   1.607   4.475   2.357  0.7158  0.7344 -1.6130
 4822SOL     OW15364   4.629   4.318   4.658 -0.3513 -0.0862 -0.2601
 4822SOL    HW115365   4.671   4.296   4.569  1.1891 -0.2819  0.4774
 4822SOL    HW215366   4.607   4.233   4.706  1.6694 -0.0738  0.7996
 4823SOL     OW15367   0.294   1.408   1.277 -0.0743  0.2752  0.3549
 4823SOL    HW115368   0.331   1.448   1.193 -0.6081  0.2149  0.0910
 4823SOL    HW215369   0.370   1.383   1.338  0.2891  1.3799  0.3823
 4824SOL     OW15370   6.003   1.900   6.613  0.3728 -0.5695  0.6186
 4824SOL    HW115371   5.908   1.925   6.596  0.5568  0.9808  1.6459
 4824SOL    HW215372   6.033   1.833   6.545  0.0104  2.4675 -2.8300
 4825SOL     OW15373   1.955   6.985   4.382  0.4956 -0.5979  0.8437
 4825SOL    HW115374   1.869   7.018   4.344  2.4075  1.6920 -1.9476
 4825SOL    HW215375   1.956   6.999   4.481 -1.7349  0.7263  0.7377
 4826SOL     OW15376   4.495   5.716   1.368  0.3612 -0.8715  0.7102
 4826SOL    HW115377   4.507   5.795   1.428 -0.9695 -0.7972  0.9180
 4826SOL    HW215378   4.399   5.711   1.339  0.7821 -1.4559 -0.6489
 4827SOL     OW15379   0.049   1.598   0.527  0.5789  0.3988 -0.2733
 4827SOL    HW115380   0.051   1.550   0.615  2.0833  1.0317  0.0868
 4827SOL    HW215381   0.037   1.696   0.543  1.1826  0.5576 -0.7242
 4828SOL     OW15382   4.652   1.357   0.866  0.0575  0.2503 -0.2251
 4828SOL    HW115383   4.707   1.304   0.930  1.3222  0.5645 -1.0120
 4828SOL    HW215384   4.586   1.298   0.821  0.3108 -0.3143  0.1405
 4829SOL     OW15385   6.212   4.284   3.086  0.3070 -0.2825 -0.3763
 4829SOL    HW115386   6.129   4.340   3.078 -0.2758 -0.8978  1.0761
 4829SOL    HW215387   6.290   4.344   3.103 -0.3902  0.1268  1.6747
 4830SOL     OW15388   1.475   0.034   1.643  0.0404  0.1623  0.2455
 4830SOL    HW115389   1.566   0.010   1.675 -0.7043 -0.1174  2.3428
 4830SOL    HW215390   1.480   0.116   1.586  1.4081  1.3207  1.9389
 4831SOL     OW15391   2.087   4.840   5.399 -0.1600  0.0357  0.3571
 4831SOL    HW115392   2.163   4.813   5.339 -0.5382 -0.3761  0.0567
 4831SOL    HW215393   2.074   4.771   5.470  0.1324  0.4049  0.7726
 4832SOL     OW15394   3.884   2.971   3.533 -0.4088  0.6377  0.0119
 4832SOL    HW115395   3.947   2.918   3.476 -0.0627  0.6993  0.3361
 4832SOL    HW215396   3.835   3.037   3.475 -0.3459  0.4320 -0.2787
 4833SOL     OW15397   6.973   2.777   5.845 -0.1528 -0.4560 -0.0255
 4833SOL    HW115398   7.007   2.691   5.882  2.1501  0.2223 -0.3993
 4833SOL    HW215399   6.914   2.758   5.766 -0.0740 -1.6920  0.1944
 4834SOL     OW15400   1.554   4.633   0.476  0.3722 -0.5213 -0.0671
 4834SOL    HW115401   1.488   4.697   0.515  2.2179  1.5479 -0.1564
 4834SOL    HW215402   1.603   4.587   0.549  0.7740  0.0773  0.0521
 4835SOL     OW15403   5.096   4.465   5.873 -0.1164  0.1495  0.2128
 4835SOL    HW115404   5.193   4.486   5.871 -0.2503  0.7539 -0.7393
 4835SOL    HW215405   5.051   4.507   5.794 -1.1450 -0.1428  0.6206
 4836SOL     OW15406   5.897   1.904   5.196 -0.1303  0.6333  0.5652
 4836SOL    HW115407   5.897   1.850   5.280 -0.4618  1.0248  0.8242
 4836SOL    HW215408   5.803   1.931   5.175 -0.0390  0.5930  0.1026
 4837SOL     OW15409   2.262   2.826   4.674 -0.0955 -0.6222 -0.0441
 4837SOL    HW115410   2.313   2.806   4.757  0.8599 -1.2668 -0.7659
 4837SOL    HW215411   2.181   2.767   4.670 -1.3532  0.8880  1.4490
 4838SOL     OW15412   2.600   4.888   5.186 -0.1503  0.2375  0.7308
 4838SOL    HW115413   2.661   4.857   5.259  0.1426 -1.6574 -0.2533
 4838SOL    HW215414   2.590   4.815   5.118  0.5032  2.2999 -1.7282
 4839SOL     OW15415   2.823   0.333   1.484 -0.3348 -0.2712 -0.3230
 4839SOL    HW115416   2.750   0.289   1.431 -1.0503  1.0640 -0.4878
 4839SOL    HW215417   2.813   0.433   1.478 -0.1637 -0.0702  1.9766
 4840SOL     OW15418   4.650   2.638   2.867  0.3536  0.1577  0.2324
 4840SOL    HW115419   4.679   2.559   2.814 -4.4760 -0.2989 -2.3155
 4840SOL    HW215420   4.671   2.722   2.817 -1.4054 -0.0874 -0.9845
 4841SOL     OW15421   4.848   4.682   3.889  1.0715  0.3398 -0.6946
 4841SOL    HW115422   4.924   4.699   3.952  1.6022  0.1952 -1.2899
 4841SOL    HW215423   4.858   4.592   3.847  0.2137  0.0437 -0.2912
 4842SOL     OW15424   4.378   6.389   3.884 -0.2844 -0.1875  0.2285
 4842SOL    HW115425   4.392   6.437   3.798  3.5085  0.2667  0.9255
 4842SOL    HW215426   4.401   6.292   3.872  0.5282 -0.0707  0.7374
 4843SOL     OW15427   6.731   3.558   1.228 -0.2605 -0.7828  0.1359
 4843SOL    HW115428   6.643   3.547   1.273 -0.8235  0.0578 -0.7111
 4843SOL    HW215429   6.770   3.468   1.207 -1.9020 -1.2186 -1.3006
 4844SOL     OW15430   1.009   5.984   6.331 -0.5005 -0.5924  0.3573
 4844SOL    HW115431   0.967   5.925   6.261  0.1022  0.5839 -1.0620
 4844SOL    HW215432   0.938   6.022   6.390 -1.2571 -0.1330 -0.8059
 4845SOL     OW15433   4.913   3.587   2.721 -0.5264 -0.3515  0.5461
 4845SOL    HW115434   4.982   3.597   2.793 -1.0690  0.0694  1.0212
 4845SOL    HW215435   4.909   3.492   2.692  1.3364 -0.1350 -0.5897
 4846SOL     OW15436   1.099   2.965   5.776 -0.2753 -0.7434 -0.0383
 4846SOL    HW115437   1.159   3.032   5.731  0.4246 -0.8975  0.6319
 4846SOL    HW215438   1.007   3.003   5.785 -0.1933 -0.3630 -0.7763
 4847SOL     OW15439   2.159   5.662   0.576  0.0317  0.3263  0.5230
 4847SOL    HW115440   2.111   5.612   0.648 -0.8530  1.0301  0.4457
 4847SOL    HW215441   2.109   5.747   0.556  0.5230  0.3689 -0.5837
 4848SOL     OW15442   4.241   1.580   5.118 -0.6002 -0.4866 -0.1085
 4848SOL    HW115443   4.241   1.634   5.034 -0.9401 -2.4371 -1.4316
 4848SOL    HW215444   4.323   1.603   5.172 -0.1252  0.4642 -1.1868
 4849SOL     OW15445   6.188   6.092   0.482  0.0065  0.2550  0.1012
 4849SOL    HW115446   6.276   6.135   0.502  0.5533 -0.9109  0.2947
 4849SOL    HW215447   6.191   5.996   0.510 -1.2184  0.1116 -0.2041
 4850SOL     OW15448   4.711   6.147   2.455 -0.3413 -0.7371 -0.3730
 4850SOL    HW115449   4.686   6.171   2.362 -2.3320 -0.0195  0.2976
 4850SOL    HW215450   4.750   6.228   2.501 -1.7635 -0.3306  0.1662
 4851SOL     OW15451   6.083   3.744   6.206 -0.1054 -0.0089  0.0625
 4851SOL    HW115452   6.104   3.811   6.135 -0.7889  0.0794 -0.0685
 4851SOL    HW215453   6.121   3.655   6.180  0.4531  0.2301  0.0411
 4852SOL     OW15454   5.874   3.937   5.247  0.5961  0.0106 -0.4769
 4852SOL    HW115455   5.954   3.982   5.207  0.1064  0.2534 -1.2031
 4852SOL    HW215456   5.890   3.838   5.252 -0.1611 -0.3562 -3.4311
 4853SOL     OW15457   4.518   1.900   3.655  0.7247 -0.6979 -0.1273
 4853SOL    HW115458   4.550   1.886   3.749 -0.8983  0.1485  0.6019
 4853SOL    HW215459   4.574   1.971   3.612  2.7027 -2.3868 -0.5115
 4854SOL     OW15460   3.567   5.615   2.983 -0.3516  0.5148  0.0300
 4854SOL    HW115461   3.620   5.699   2.992 -1.1970  1.0869 -0.1050
 4854SOL    HW215462   3.620   5.537   3.017  0.1851  1.1994  0.8012
 4855SOL     OW15463   3.697   5.685   3.594  0.0760  0.2478 -0.9287
 4855SOL    HW115464   3.614   5.740   3.593 -0.5414 -0.6299 -0.3050
 4855SOL    HW215465   3.771   5.738   3.635 -0.3687  0.7888 -0.8049
 4856SOL     OW15466   1.068   1.550   1.758  0.3633  0.0448 -0.0640
 4856SOL    HW115467   1.147   1.610   1.756 -0.5342  1.2488 -0.6787
 4856SOL    HW215468   1.011   1.567   1.677 -1.0611 -0.0529  0.8795
 4857SOL     OW15469   2.420   2.252   5.497  0.0828  0.3526  0.1760
 4857SOL    HW115470   2.331   2.206   5.498 -0.3369  0.9183 -2.7999
 4857SOL    HW215471   2.491   2.186   5.473  0.1193  0.3646  0.2522
 4858SOL     OW15472   1.231   3.436   1.989 -0.0422  0.1187  0.4621
 4858SOL    HW115473   1.221   3.338   2.000 -0.9798  0.0912 -0.4737
 4858SOL    HW215474   1.142   3.477   1.969  0.0112  1.4140  2.5163
 4859SOL     OW15475   0.176   5.099   3.866  0.1019  0.0734 -0.0131
 4859SOL    HW115476   0.208   5.082   3.959  1.3669 -0.9252 -0.5917
 4859SOL    HW215477   0.097   5.042   3.847 -0.0138  0.1046  0.3635
 4860SOL     OW15478   5.075   5.107   0.568 -0.0350  0.1005 -0.0354
 4860SOL    HW115479   5.119   5.196   0.555  1.5611 -0.5729  0.4376
 4860SOL    HW215480   5.057   5.093   0.666 -0.7410  0.0961 -0.1596
 4861SOL     OW15481   6.576   4.714   4.856 -0.2105 -0.2857 -0.6257
 4861SOL    HW115482   6.565   4.787   4.924 -1.1920 -0.7809 -0.2204
 4861SOL    HW215483   6.649   4.738   4.792  1.7574 -0.4448  1.4373
 4862SOL     OW15484   2.171   4.087   5.334 -0.0850 -0.5816  0.1434
 4862SOL    HW115485   2.091   4.105   5.276 -0.5660 -2.6996  0.0531
 4862SOL    HW215486   2.245   4.049   5.279  0.3942 -0.1877  0.5043
 4863SOL     OW15487   5.536   0.121   0.333  0.0160  0.1870 -0.4363
 4863SOL    HW115488   5.635   0.124   0.320 -0.0712 -0.4950 -1.3515
 4863SOL    HW215489   5.505   0.206   0.376  0.9363  0.5832 -0.5480
 4864SOL     OW15490   3.108   2.103   2.056 -0.0726 -0.2244 -0.3239
 4864SOL    HW115491   3.123   2.058   1.968 -1.3346 -0.1345 -0.6125
 4864SOL    HW215492   3.055   2.187   2.042  1.4631  0.8865  0.3129
 4865SOL     OW15493   2.829   0.028   6.198 -0.1956  0.7630 -0.6582
 4865SOL    HW115494   2.834   0.097   6.270  1.7151  0.8939 -0.8722
 4865SOL    HW215495   2.771  -0.048   6.227  1.5109  0.2228  1.5361
 4866SOL     OW15496   6.618   5.589   3.292 -0.0874 -0.0232 -0.0738
 4866SOL    HW115497   6.636   5.612   3.387  0.0314 -0.9240  0.1319
 4866SOL    HW215498   6.697   5.542   3.253 -1.2408 -2.5084  0.3394
 4867SOL     OW15499   0.118   4.473   6.232  0.3167 -0.3190 -0.3751
 4867SOL    HW115500   0.102   4.508   6.139 -0.2571  0.3018 -0.0503
 4867SOL    HW215501   0.140   4.549   6.292 -1.4277 -0.4203  0.4522
 4868SOL     OW15502   1.608   5.163   1.756 -0.2023  0.5787  0.8959
 4868SOL    HW115503   1.590   5.098   1.830  1.3190 -0.0821  0.7181
 4868SOL    HW215504   1.615   5.114   1.669 -1.8543  1.3378  0.3024
 4869SOL     OW15505   0.119   1.273   1.111 -0.4223 -0.0726 -0.4368
 4869SOL    HW115506   0.055   1.199   1.135  0.6778 -0.5816  1.0632
 4869SOL    HW215507   0.151   1.318   1.194 -1.1810  2.2517 -1.3156
 4870SOL     OW15508   1.856   6.308   0.450 -0.8658  0.8172  0.3438
 4870SOL    HW115509   1.805   6.384   0.489 -3.0803 -0.6792  0.5129
 4870SOL    HW215510   1.931   6.343   0.395 -3.1245  3.2102 -1.4272
 4871SOL     OW15511   2.252   2.266   4.324 -0.3161 -0.8064  0.7020
 4871SOL    HW115512   2.182   2.215   4.275 -0.7472 -0.0649  0.5236
 4871SOL    HW215513   2.238   2.364   4.309  0.3043 -0.6211  1.2872
 4872SOL     OW15514   2.174   1.967   3.205 -0.2120  0.3782 -0.5134
 4872SOL    HW115515   2.111   2.017   3.265  0.4134 -0.2864  0.7326
 4872SOL    HW215516   2.268   1.980   3.236  0.1050 -0.2420 -1.1700
 4873SOL     OW15517   1.037   6.576   4.419  0.6597 -0.3056  0.3176
 4873SOL    HW115518   1.006   6.631   4.496  0.3471 -1.3073  0.9126
 4873SOL    HW215519   0.966   6.511   4.393  0.5435  0.3506 -1.1632
 4874SOL     OW15520   6.818   1.790   3.859  0.5562 -0.1422  0.4895
 4874SOL    HW115521   6.868   1.782   3.773 -1.1018 -2.6775 -0.3589
 4874SOL    HW215522   6.882   1.784   3.936  1.7349 -2.0072 -0.5567
 4875SOL     OW15523   6.681   1.609   1.337  0.3721  0.0362  0.5351
 4875SOL    HW115524   6.747   1.551   1.291 -0.4166 -1.3651  1.1190
 4875SOL    HW215525   6.715   1.633   1.428  0.5378  0.2096  0.4289
 4876SOL     OW15526   6.732   1.124   6.474  0.1451 -0.0922 -0.3070
 4876SOL    HW115527   6.699   1.112   6.567  1.1430 -0.3546  0.0316
 4876SOL    HW215528   6.721   1.038   6.424 -1.5346  0.3990 -0.8283
 4877SOL     OW15529   3.305   2.026   0.612  0.4985 -0.3507 -0.5592
 4877SOL    HW115530   3.357   1.949   0.575 -0.2645 -0.8147 -0.6795
 4877SOL    HW215531   3.297   2.015   0.711  1.9095  0.5097 -0.3222
 4878SOL     OW15532   6.592   1.780   2.147 -0.1173 -0.0295 -0.2266
 4878SOL    HW115533   6.551   1.689   2.135 -1.3161  0.0491  2.6062
 4878SOL    HW215534   6.519   1.848   2.159  0.7861  0.8743  0.2742
 4879SOL     OW15535   4.796   5.268   2.115  0.0557  0.3530  0.3502
 4879SOL    HW115536   4.788   5.232   2.023  0.8432 -0.6371  0.6506
 4879SOL    HW215537   4.844   5.356   2.113 -0.2590  0.5149 -0.2101
 4880SOL     OW15538   5.626   2.118   6.333 -0.0385  0.0593 -0.1098
 4880SOL    HW115539   5.579   2.138   6.247 -0.2052 -0.0742 -0.0505
 4880SOL    HW215540   5.668   2.202   6.368 -0.3571  0.2146 -0.0893
 4881SOL     OW15541   3.868   6.027   5.951 -0.6191  0.5687 -0.4147
 4881SOL    HW115542   3.898   6.070   5.866  1.2925  0.2643  0.0693
 4881SOL    HW215543   3.919   5.942   5.966 -0.9072  0.6228  1.0331
 4882SOL     OW15544   4.487   4.932   6.630 -0.0825  0.6326  0.2952
 4882SOL    HW115545   4.413   4.940   6.564  0.1184 -0.6330 -0.0979
 4882SOL    HW215546   4.448   4.920   6.722 -0.4401 -1.7586 -0.1021
 4883SOL     OW15547   4.850   5.797   5.697 -0.1165  0.2149  0.2849
 4883SOL    HW115548   4.784   5.841   5.636 -0.6233  0.9561  1.3339
 4883SOL    HW215549   4.890   5.717   5.652 -1.5786 -0.1260 -0.4495
 4884SOL     OW15550   6.546   5.521   1.901 -0.1617 -0.5407 -0.0757
 4884SOL    HW115551   6.621   5.488   1.958 -0.0075 -1.9598 -1.0538
 4884SOL    HW215552   6.503   5.600   1.945  0.9755 -0.5911  1.1933
 4885SOL     OW15553   2.711   0.926   2.342 -0.4960 -0.6089  0.4860
 4885SOL    HW115554   2.764   0.913   2.425  1.5011 -2.3759 -0.9822
 4885SOL    HW215555   2.727   1.019   2.307  3.1626 -1.5854 -0.8266
 4886SOL     OW15556   6.970   2.642   0.681 -0.5617  0.7358  0.0127
 4886SOL    HW115557   6.871   2.644   0.670 -0.5604  1.7760  0.1574
 4886SOL    HW215558   7.012   2.598   0.601 -1.1913 -0.6439  0.4094
 4887SOL     OW15559   0.518   2.736   5.995 -0.1152 -0.1544 -0.7897
 4887SOL    HW115560   0.562   2.648   6.011 -0.7483 -0.1516  1.1650
 4887SOL    HW215561   0.558   2.805   6.055  0.3174  0.9064 -2.2437
 4888SOL     OW15562   4.119   4.771   3.186  0.4160  0.0933 -0.1269
 4888SOL    HW115563   4.177   4.699   3.225 -0.8624 -1.0225 -0.2353
 4888SOL    HW215564   4.079   4.826   3.259  0.5638  0.0397 -0.0044
 4889SOL     OW15565   1.691   1.658   6.453  0.0030 -0.0088  0.4760
 4889SOL    HW115566   1.630   1.638   6.377  1.1891  0.8723 -0.7527
 4889SOL    HW215567   1.717   1.572   6.498 -1.1594 -0.4871  0.2606
 4890SOL     OW15568   1.237   6.984   4.001  0.3012  0.3561  0.0491
 4890SOL    HW115569   1.189   6.956   4.084  0.1025 -0.1416 -0.2324
 4890SOL    HW215570   1.193   6.943   3.922  1.5528 -0.5944 -0.1747
 4891SOL     OW15571   1.851   3.506   2.092 -0.6261 -0.1188  0.4921
 4891SOL    HW115572   1.825   3.506   1.995 -0.3290  0.4923  0.4083
 4891SOL    HW215573   1.775   3.539   2.147 -0.5892  0.1034  0.4090
 4892SOL     OW15574   1.075   4.243   1.877 -0.3469  0.0322 -0.4197
 4892SOL    HW115575   1.032   4.282   1.796  1.9786 -0.7587 -2.1309
 4892SOL    HW215576   1.174   4.258   1.874 -0.1528 -0.1807  2.2137
 4893SOL     OW15577   0.839   4.792   6.428 -0.0964  0.4467  0.1060
 4893SOL    HW115578   0.804   4.698   6.421  0.4375  0.0609  2.0094
 4893SOL    HW215579   0.859   4.813   6.523  0.7904  2.1554 -0.4117
 4894SOL     OW15580   0.503   0.235   2.974  0.5275 -0.1970 -0.2565
 4894SOL    HW115581   0.543   0.170   2.910  2.0348 -0.5515  0.9600
 4894SOL    HW215582   0.571   0.258   3.044  0.4051  3.4325 -1.1391
 4895SOL     OW15583   0.444   4.808   5.992  0.0612  0.1045  0.1996
 4895SOL    HW115584   0.426   4.780   6.086  0.7617  1.7139  0.8514
 4895SOL    HW215585   0.534   4.774   5.964 -1.2366 -2.7130 -0.9112
 4896SOL     OW15586   4.536   2.050   4.316  0.0115 -0.4732 -0.1545
 4896SOL    HW115587   4.614   1.992   4.292  1.6745 -0.3650  4.1575
 4896SOL    HW215588   4.494   2.016   4.400 -0.1916  3.3131  1.4563
 4897SOL     OW15589   2.666   5.629   1.203  0.1816 -0.2424  0.0644
 4897SOL    HW115590   2.756   5.670   1.186 -0.0548  0.0946 -0.4064
 4897SOL    HW215591   2.678   5.535   1.234  0.8044  0.6088  2.7039
 4898SOL     OW15592   4.579   2.542   4.872 -0.6593 -0.4285 -0.0517
 4898SOL    HW115593   4.491   2.503   4.843 -1.2783  0.2146  0.9057
 4898SOL    HW215594   4.643   2.469   4.894 -0.6062 -0.9173 -1.7202
 4899SOL     OW15595   5.207   2.602   3.949  0.0459 -0.9240  0.4785
 4899SOL    HW115596   5.114   2.639   3.944 -0.7000 -2.7482  0.2138
 4899SOL    HW215597   5.229   2.555   3.864  1.6767  0.4396  0.0877
 4900SOL     OW15598   1.352   7.000   3.556  0.3343 -0.0051  0.6393
 4900SOL    HW115599   1.285   6.950   3.610  0.3296  1.3964  1.9851
 4900SOL    HW215600   1.444   6.972   3.584  0.3299  0.3772  1.0320
 4901SOL     OW15601   0.012   4.483   4.687  0.4022 -0.0054  0.4093
 4901SOL    HW115602   0.077   4.532   4.629  2.3333 -0.1936  2.2806
 4901SOL    HW215603   0.000   4.532   4.773  0.8828 -1.7973  1.5459
 4902SOL     OW15604   3.200   4.802   1.328  0.1181 -0.9022 -0.4293
 4902SOL    HW115605   3.263   4.864   1.280  0.5375 -0.7914  0.2467
 4902SOL    HW215606   3.244   4.713   1.341  0.2051 -0.7729  0.1914
 4903SOL     OW15607   6.867   4.857   0.355  0.1846  0.0668 -0.0349
 4903SOL    HW115608   6.842   4.854   0.452 -1.6881 -1.4901 -0.5035
 4903SOL    HW215609   6.846   4.948   0.318 -0.2371  0.2890  0.7252
 4904SOL     OW15610   4.318   0.879   3.738  0.3771 -0.1003  0.5627
 4904SOL    HW115611   4.368   0.888   3.652  0.3186 -0.9728  0.4282
 4904SOL    HW215612   4.326   0.964   3.790  1.9260 -0.1971  0.5132
 4905SOL     OW15613   5.541   4.144   4.998  0.1196 -0.2200 -0.2506
 4905SOL    HW115614   5.496   4.055   5.009 -0.0140 -0.0949  0.2532
 4905SOL    HW215615   5.515   4.185   4.911 -1.9810  0.5433  0.6695
 4906SOL     OW15616   4.648   6.498   0.918  0.2389  0.1655 -0.7200
 4906SOL    HW115617   4.558   6.455   0.927  0.3369 -0.1751 -1.3592
 4906SOL    HW215618   4.715   6.429   0.892  0.6669  0.4404 -0.3502
 4907SOL     OW15619   3.666   1.755   0.485  0.0433 -0.0102  0.2911
 4907SOL    HW115620   3.625   1.842   0.458  1.1386  1.1668  2.1738
 4907SOL    HW215621   3.620   1.721   0.567 -0.7214 -1.5077 -0.7287
 4908SOL     OW15622   0.156   5.326   6.991 -0.5701  0.0912 -0.2932
 4908SOL    HW115623   0.123   5.325   7.086 -2.2733  1.0900 -0.8302
 4908SOL    HW215624   0.190   5.418   6.969  0.4726 -0.3253 -0.4500
 4909SOL     OW15625   5.608   0.212   4.386  0.3527  0.7865  0.5997
 4909SOL    HW115626   5.666   0.282   4.346  1.8722 -0.7174  0.0354
 4909SOL    HW215627   5.565   0.159   4.312 -0.8002  1.1176  1.0114
 4910SOL     OW15628   6.064   0.927   0.106 -0.0451 -0.0228  0.1890
 4910SOL    HW115629   6.134   0.979   0.156  0.5825  0.7440 -1.4435
 4910SOL    HW215630   6.106   0.845   0.067 -0.3911 -0.2877  0.3702
 4911SOL     OW15631   0.275   2.988   0.903  0.7593  0.2691 -0.2510
 4911SOL    HW115632   0.337   2.987   0.824 -0.4122  0.0234 -1.1835
 4911SOL    HW215633   0.279   2.900   0.949 -0.7511 -0.6846 -1.8246
 4912SOL     OW15634   1.162   3.725   0.960 -0.6895 -0.6753  0.2655
 4912SOL    HW115635   1.201   3.644   1.003 -2.0179 -0.7372  1.4218
 4912SOL    HW215636   1.081   3.700   0.907 -0.0867 -0.3415 -0.8382
 4913SOL     OW15637   2.955   4.632   1.080 -0.3312  0.8540 -0.0281
 4913SOL    HW115638   2.986   4.707   1.023  1.2636  0.0602 -0.2604
 4913SOL    HW215639   3.014   4.624   1.161 -1.3458  0.7239  0.7274
 4914SOL     OW15640   2.049   0.355   2.964 -0.3942 -0.3555  0.4094
 4914SOL    HW115641   2.063   0.256   2.956 -0.6808 -0.4732  1.2416
 4914SOL    HW215642   2.045   0.380   3.061 -0.3334  0.4732  0.2050
 4915SOL     OW15643   2.151   5.604   2.079  0.3886  0.3513 -0.8632
 4915SOL    HW115644   2.064   5.566   2.110  0.8642 -1.2124 -1.3190
 4915SOL    HW215645   2.226   5.545   2.111  1.1618  0.8064 -1.7860
 4916SOL     OW15646   0.756   1.154   1.692  0.5336 -0.0816  0.2288
 4916SOL    HW115647   0.665   1.149   1.652  0.8418  0.1329 -0.5283
 4916SOL    HW215648   0.823   1.169   1.619  1.1709 -0.2220  0.7756
 4917SOL     OW15649   6.416   6.258   5.987 -0.7586 -0.0266  0.2096
 4917SOL    HW115650   6.444   6.171   6.029  0.6904  0.5564  0.5258
 4917SOL    HW215651   6.336   6.294   6.035 -1.6564 -1.4025 -0.2245
 4918SOL     OW15652   2.339   0.187   2.907 -0.3903  0.4309  0.1567
 4918SOL    HW115653   2.295   0.203   2.819 -1.0695  0.9336  0.5756
 4918SOL    HW215654   2.272   0.149   2.972 -0.1483  0.9526  0.7247
 4919SOL     OW15655   1.594   2.577   5.786  0.1047 -0.8252  0.2092
 4919SOL    HW115656   1.565   2.672   5.796  1.9862 -0.1025 -0.6840
 4919SOL    HW215657   1.673   2.573   5.724  0.3340 -2.9176  0.5814
 4920SOL     OW15658   2.938   4.472   0.765  0.1843  0.2628  0.1421
 4920SOL    HW115659   2.860   4.533   0.745 -0.4905 -1.3911 -3.1066
 4920SOL    HW215660   2.935   4.444   0.860 -3.2689  0.2848  0.1711
 4921SOL     OW15661   1.637   4.795   2.774  0.7895 -0.4740 -0.0039
 4921SOL    HW115662   1.613   4.843   2.858 -0.6614  0.5627 -0.9572
 4921SOL    HW215663   1.733   4.766   2.777  0.3584 -1.9210  2.6614
 4922SOL     OW15664   1.736   4.350   0.000  0.2991  0.6026 -0.2941
 4922SOL    HW115665   1.809   4.404  -0.043  0.4835  1.6654  1.2382
 4922SOL    HW215666   1.740   4.364   0.099 -1.6484  0.2453 -0.1367
 4923SOL     OW15667   5.443   3.072   6.922 -0.2094  0.0769  0.1456
 4923SOL    HW115668   5.387   3.101   6.999  2.5952  0.9946  1.9844
 4923SOL    HW215669   5.385   3.029   6.853 -2.8162 -1.0634  2.8509
 4924SOL     OW15670   0.625   2.101   3.444 -0.7306  0.4866 -0.1272
 4924SOL    HW115671   0.674   2.141   3.521 -0.1020  1.7937 -1.1519
 4924SOL    HW215672   0.548   2.160   3.419 -2.5860 -1.3057  1.1580
 4925SOL     OW15673   5.946   3.671   5.232  0.1738  0.2755 -0.3617
 4925SOL    HW115674   5.958   3.576   5.259  2.4543  1.0023  1.5279
 4925SOL    HW215675   5.917   3.675   5.137 -2.2912 -2.3132  0.1202
 4926SOL     OW15676   5.032   3.144   6.866 -0.2368 -0.7577 -0.7137
 4926SOL    HW115677   5.037   3.148   6.766  1.2836  0.0567 -0.6377
 4926SOL    HW215678   5.084   3.064   6.899  1.5808  0.4360 -0.4998
 4927SOL     OW15679   1.573   4.089   0.303 -0.5450  0.3606  0.0263
 4927SOL    HW115680   1.607   4.083   0.209 -0.6088  0.9751 -0.0460
 4927SOL    HW215681   1.528   4.004   0.329 -0.4804  0.1689 -0.4855
 4928SOL     OW15682   6.743   2.324   0.148 -0.1928  0.1468  0.3475
 4928SOL    HW115683   6.806   2.318   0.070  0.0183  0.3924  0.5009
 4928SOL    HW215684   6.657   2.363   0.117  0.0564  0.6931  0.3343
 4929SOL     OW15685   1.110   3.664   3.220 -0.3462 -0.0577 -0.1746
 4929SOL    HW115686   1.185   3.707   3.271 -0.4596 -0.0727  0.0056
 4929SOL    HW215687   1.026   3.669   3.274 -0.9748  1.8072 -1.2194
 4930SOL     OW15688   6.435   3.615   0.856  1.0044 -0.2130  0.0076
 4930SOL    HW115689   6.378   3.542   0.895 -0.8248  1.3685  0.4152
 4930SOL    HW215690   6.531   3.586   0.857  0.6868 -1.5166  2.7669
 4931SOL     OW15691   4.091   6.545   1.238 -0.1877 -0.1229  0.9338
 4931SOL    HW115692   4.032   6.508   1.166  0.2794 -0.2329  0.6025
 4931SOL    HW215693   4.038   6.608   1.295 -0.4233  0.4034  0.1471
 4932SOL     OW15694   4.075   0.484   1.298  0.1016 -0.5839  0.3455
 4932SOL    HW115695   4.072   0.387   1.322  0.6435 -1.2550 -2.0131
 4932SOL    HW215696   4.170   0.514   1.293 -0.0449  0.8090  3.3907
 4933SOL     OW15697   0.103   6.100   5.422 -0.1501  0.1557 -0.7971
 4933SOL    HW115698   0.016   6.066   5.457 -0.5340 -0.3567 -2.1658
 4933SOL    HW215699   0.177   6.073   5.484 -1.0145  1.2539  0.7858
 4934SOL     OW15700   2.317   5.959   5.993  0.6456 -0.1788 -0.0204
 4934SOL    HW115701   2.284   6.015   5.917  2.0873  1.0590  0.2031
 4934SOL    HW215702   2.239   5.927   6.047 -0.2697  1.4271 -0.3089
 4935SOL     OW15703   1.891   2.148   5.827 -0.0081 -0.2832  0.8087
 4935SOL    HW115704   1.838   2.118   5.747 -0.7206 -0.4473  1.3350
 4935SOL    HW215705   1.979   2.183   5.797 -1.3267  2.3042 -0.3362
 4936SOL     OW15706   0.448   4.739   1.519  0.9836 -0.7091 -0.1313
 4936SOL    HW115707   0.501   4.691   1.589  1.4120  1.4189  1.1002
 4936SOL    HW215708   0.476   4.835   1.517 -1.4760  0.0535 -0.7879
 4937SOL     OW15709   1.685   3.200   3.901 -0.1192  0.1802 -0.9207
 4937SOL    HW115710   1.757   3.225   3.836  0.0319  1.0402 -0.4399
 4937SOL    HW215711   1.726   3.183   3.990 -0.3175 -1.0753 -1.0523
 4938SOL     OW15712   3.406   4.616   1.243  0.2398 -0.5368  0.1287
 4938SOL    HW115713   3.441   4.695   1.294 -0.2009 -0.1775 -0.1144
 4938SOL    HW215714   3.457   4.608   1.157 -0.2250 -0.0403 -0.2041
 4939SOL     OW15715   2.865   0.565   0.338  0.0925  0.0321 -0.1506
 4939SOL    HW115716   2.851   0.470   0.309  0.9917  0.2556 -1.4189
 4939SOL    HW215717   2.915   0.566   0.425  0.7286 -0.6648 -0.4924
 4940SOL     OW15718   1.124   1.211   6.399  0.3739 -0.1621 -0.2632
 4940SOL    HW115719   1.045   1.193   6.458  1.1750 -2.2156  0.2622
 4940SOL    HW215720   1.137   1.310   6.391 -1.0234  0.1966  1.2767
 4941SOL     OW15721   4.541   2.655   6.738  0.2189 -0.0754 -0.2135
 4941SOL    HW115722   4.588   2.732   6.694 -1.5830  0.9489 -0.4097
 4941SOL    HW215723   4.453   2.686   6.773 -1.0471 -2.3237 -1.2671
 4942SOL     OW15724   1.481   6.901   2.561  0.1675  0.9346  0.0744
 4942SOL    HW115725   1.492   6.924   2.658  0.6710 -0.5486  0.3914
 4942SOL    HW215726   1.559   6.937   2.510  1.0698 -0.2169  0.6004
 4943SOL     OW15727   4.950   2.849   6.822 -0.3148 -0.0798 -0.1972
 4943SOL    HW115728   4.925   2.758   6.854 -0.2169  0.1342  0.5172
 4943SOL    HW215729   4.909   2.918   6.883 -0.3381  0.3478 -0.6936
 4944SOL     OW15730   1.889   4.362   0.852  0.0258 -0.2548  0.2830
 4944SOL    HW115731   1.810   4.312   0.815 -0.4657  1.4498 -1.1641
 4944SOL    HW215732   1.910   4.329   0.943 -0.9352 -2.3067 -0.1768
 4945SOL     OW15733   1.510   0.482   6.834  0.4899  0.6412  0.4325
 4945SOL    HW115734   1.444   0.450   6.903  1.1506  0.6996  1.1034
 4945SOL    HW215735   1.501   0.581   6.823  0.3641  0.6278  0.4166
 4946SOL     OW15736   1.908   0.981   6.335 -0.1376 -0.1444 -0.3664
 4946SOL    HW115737   1.926   1.078   6.346  2.6162 -0.7787  1.7540
 4946SOL    HW215738   1.985   0.937   6.288 -0.2018 -1.6482  0.8494
 4947SOL     OW15739   2.913   5.811   0.340  0.1633  0.2462  0.0458
 4947SOL    HW115740   2.957   5.850   0.259  0.3038 -0.9052 -0.4585
 4947SOL    HW215741   2.817   5.839   0.343  0.1256  0.2013 -0.5910
 4948SOL     OW15742   6.665   2.814   2.068  0.3911 -0.1797  0.4173
 4948SOL    HW115743   6.585   2.754   2.059 -0.4885  0.8818  0.9721
 4948SOL    HW215744   6.746   2.765   2.036 -0.4544 -1.3097 -0.0900
 4949SOL     OW15745   6.332   6.192   6.673  0.0797  0.0216  0.6743
 4949SOL    HW115746   6.419   6.210   6.719  0.0702 -0.4968  0.8959
 4949SOL    HW215747   6.257   6.224   6.730  0.1268  0.6402  0.4012
 4950SOL     OW15748   5.618   5.178   5.256  0.5069 -0.0954  0.0242
 4950SOL    HW115749   5.600   5.084   5.227 -1.7248  0.1211  0.5307
 4950SOL    HW215750   5.614   5.239   5.176 -0.3271 -0.1674 -0.0010
 4951SOL     OW15751   4.642   0.610   4.711  0.0362  0.1457  0.1336
 4951SOL    HW115752   4.572   0.651   4.769  0.4443  0.0120  0.7335
 4951SOL    HW215753   4.652   0.664   4.628 -0.0209  0.7942  0.5343
 4952SOL     OW15754   0.019   1.873   0.602 -0.1600 -0.2605  0.0575
 4952SOL    HW115755   0.077   1.955   0.609  1.3776 -1.2444 -0.6589
 4952SOL    HW215756  -0.011   1.861   0.507  0.3123 -0.9593 -0.0136
 4953SOL     OW15757   0.138   1.663   6.520 -0.2924 -0.5368 -0.4394
 4953SOL    HW115758   0.092   1.715   6.592  1.1891 -2.3913  2.0263
 4953SOL    HW215759   0.098   1.572   6.514  1.0325 -1.1562 -0.3355
 4954SOL     OW15760   3.739   4.583   5.484 -0.6149  0.3420  0.1017
 4954SOL    HW115761   3.807   4.555   5.416 -1.4345 -1.3425 -0.0685
 4954SOL    HW215762   3.773   4.561   5.576 -0.3014  0.9128  0.1299
 4955SOL     OW15763   5.554   0.694   6.548  0.3276 -0.1807 -0.2060
 4955SOL    HW115764   5.591   0.605   6.576 -1.3151 -0.3516  1.6470
 4955SOL    HW215765   5.560   0.758   6.625 -0.7787  0.5472 -0.7046
 4956SOL     OW15766   0.800   0.139   5.340  0.2346  0.2537  0.3949
 4956SOL    HW115767   0.850   0.197   5.276  1.6356 -0.2954  0.9657
 4956SOL    HW215768   0.790   0.186   5.428  1.2973 -0.3091  0.8311
 4957SOL     OW15769   5.971   5.901   6.505 -0.0872 -0.1626 -0.9606
 4957SOL    HW115770   5.995   5.991   6.542 -1.3442 -0.3384  0.3335
 4957SOL    HW215771   5.910   5.913   6.427 -3.0237  0.1106  1.2412
 4958SOL     OW15772   3.749   0.017   6.638 -0.1229  0.3956 -0.1408
 4958SOL    HW115773   3.833   0.040   6.687  0.2089 -1.6984  0.3761
 4958SOL    HW215774   3.771  -0.044   6.562 -1.2049 -0.4694  0.2196
 4959SOL     OW15775   0.147   1.467   2.403 -0.2545 -0.1520 -0.1501
 4959SOL    HW115776   0.063   1.485   2.351 -0.5104 -0.5424  0.1247
 4959SOL    HW215777   0.176   1.550   2.450 -0.3609  0.0439 -0.4262
 4960SOL     OW15778   5.328   2.779   4.102 -0.3649 -0.3855  0.1766
 4960SOL    HW115779   5.421   2.745   4.118 -0.6608 -0.5882  1.6149
 4960SOL    HW215780   5.283   2.721   4.034  0.4772 -0.4209 -0.3638
 4961SOL     OW15781   3.088   2.634   1.468 -0.5735  0.1799 -0.3975
 4961SOL    HW115782   3.002   2.670   1.433 -0.1120  0.5227 -1.2258
 4961SOL    HW215783   3.090   2.640   1.568 -2.1377 -1.2779 -0.2455
 4962SOL     OW15784   1.554   3.387   0.156 -0.3440 -0.6196  0.1418
 4962SOL    HW115785   1.597   3.354   0.072 -0.9853 -1.2483  0.0579
 4962SOL    HW215786   1.625   3.411   0.222  0.1605 -2.5875  0.3728
 4963SOL     OW15787   0.596   4.075   0.267 -0.0638  0.0476  0.3428
 4963SOL    HW115788   0.543   4.097   0.349  0.0844  0.3393  0.3626
 4963SOL    HW215789   0.607   4.158   0.211 -0.0889 -0.1300  0.0718
 4964SOL     OW15790   1.073   5.534   4.007 -0.2277 -0.6618  0.1837
 4964SOL    HW115791   1.061   5.496   4.099 -1.1862 -0.3290  0.2124
 4964SOL    HW215792   1.015   5.615   3.997  1.1143  0.2745 -0.1720
 4965SOL     OW15793   1.731   0.436   3.821 -0.3100 -0.2006 -0.1540
 4965SOL    HW115794   1.798   0.363   3.808 -2.1996 -1.8811 -1.0445
 4965SOL    HW215795   1.671   0.441   3.741 -1.8487  0.5522  0.9883
 4966SOL     OW15796   4.258   6.246   4.886  0.1356  0.4907  0.3415
 4966SOL    HW115797   4.295   6.198   4.965  0.3688  0.4866  0.2293
 4966SOL    HW215798   4.233   6.180   4.815 -1.1080  0.4046  0.8397
 4967SOL     OW15799   4.837   4.025   1.940 -0.2558  0.1195  0.0834
 4967SOL    HW115800   4.837   3.971   2.024 -0.0853 -1.9319 -1.1654
 4967SOL    HW215801   4.833   4.123   1.963  0.3634 -0.3494  2.4588
 4968SOL     OW15802   6.558   2.051   3.964  1.1408 -0.0077 -0.1354
 4968SOL    HW115803   6.586   1.982   4.031  2.0753  0.6485  0.1698
 4968SOL    HW215804   6.562   2.142   4.005 -1.3478  0.1705 -0.1224
 4969SOL     OW15805   1.652   5.955   6.247  0.3804  0.0522  0.1783
 4969SOL    HW115806   1.739   5.992   6.214 -0.4784  1.1483 -0.9506
 4969SOL    HW215807   1.587   5.951   6.171 -0.7621 -0.1455  1.1456
 4970SOL     OW15808   3.126   6.906   6.818  0.1485 -0.1314 -0.0713
 4970SOL    HW115809   3.027   6.895   6.817  0.2774 -1.5657 -1.4834
 4970SOL    HW215810   3.166   6.843   6.884  0.1228  0.7163  0.7785
 4971SOL     OW15811   0.663   6.234   0.918 -0.1684 -0.1080 -0.1369
 4971SOL    HW115812   0.634   6.149   0.962 -1.2769  0.0643 -0.5014
 4971SOL    HW215813   0.654   6.310   0.983 -0.9387  0.0065 -0.3700
 4972SOL     OW15814   5.720   5.658   6.320  0.2662  0.0144  0.2110
 4972SOL    HW115815   5.644   5.710   6.360 -0.4277 -0.1968 -0.7980
 4972SOL    HW215816   5.774   5.718   6.262  0.0827 -0.1406 -0.1228
 4973SOL     OW15817   4.800   3.714   6.722  1.3780  0.6690  0.1373
 4973SOL    HW115818   4.819   3.636   6.663  0.4567  1.2084 -0.9081
 4973SOL    HW215819   4.800   3.798   6.668 -2.1161  0.9110  0.2789
 4974SOL     OW15820   3.460   0.616   0.107  0.2979  0.2520 -0.1505
 4974SOL    HW115821   3.540   0.607   0.167  0.3707 -0.3405 -0.3209
 4974SOL    HW215822   3.381   0.572   0.149  0.8458 -2.0861 -1.3478
 4975SOL     OW15823   5.600   4.639   1.749  0.4933 -0.0176  0.1422
 4975SOL    HW115824   5.507   4.606   1.759  0.1896  0.8257  0.2306
 4975SOL    HW215825   5.601   4.739   1.757  1.4073 -0.0162  0.1866
 4976SOL     OW15826   2.412   0.756   5.090 -0.1041 -0.4300  0.0705
 4976SOL    HW115827   2.397   0.663   5.057  1.2012 -1.0466  1.1049
 4976SOL    HW215828   2.403   0.820   5.014  0.8857 -1.5949 -1.0832
 4977SOL     OW15829   0.068   4.193   4.634  0.2303 -0.6829  0.2821
 4977SOL    HW115830   0.042   4.286   4.661  0.1289 -0.6824  0.1837
 4977SOL    HW215831   0.145   4.162   4.690  0.1075 -0.6306  0.4821
 4978SOL     OW15832   5.747   5.082   5.740 -0.3963 -0.4937  0.3929
 4978SOL    HW115833   5.741   5.121   5.648 -3.2884  0.0923  0.7652
 4978SOL    HW215834   5.792   5.147   5.802 -0.4185  0.0189 -0.1242
 4979SOL     OW15835   2.239   0.318   6.171 -0.4759 -0.7509  0.8569
 4979SOL    HW115836   2.180   0.246   6.207 -1.6469  0.8976  2.3383
 4979SOL    HW215837   2.183   0.390   6.130  0.5800  0.2367  1.1135
 4980SOL     OW15838   4.688   2.817   3.902 -0.3239 -0.3805 -0.0232
 4980SOL    HW115839   4.671   2.909   3.866  2.2904  0.1154 -0.2355
 4980SOL    HW215840   4.787   2.803   3.911 -0.6628 -3.0726  0.3305
 4981SOL     OW15841   3.540   4.920   3.195 -0.4829  0.5849  0.9085
 4981SOL    HW115842   3.531   4.971   3.110  0.2329 -0.4401  0.1823
 4981SOL    HW215843   3.528   4.822   3.177 -0.9964  0.4016  2.1100
 4982SOL     OW15844   3.699   0.916   5.238 -0.0935 -0.1279  0.0340
 4982SOL    HW115845   3.727   0.884   5.329  1.0499  1.7132  0.3819
 4982SOL    HW215846   3.773   0.969   5.197 -0.9147 -0.2026 -1.6341
 4983SOL     OW15847   5.212   3.624   4.300  0.0876 -0.0860  0.0099
 4983SOL    HW115848   5.201   3.560   4.377  0.7221 -2.9139 -2.0601
 4983SOL    HW215849   5.306   3.617   4.266 -0.6254 -0.2011 -2.0413
 4984SOL     OW15850   4.318   4.370   6.238  0.5721 -0.7504  0.2119
 4984SOL    HW115851   4.316   4.382   6.139 -2.9997 -0.2944  0.2177
 4984SOL    HW215852   4.299   4.274   6.261  1.4256 -0.8634  0.5023
 4985SOL     OW15853   0.410   5.321   4.060 -0.4476 -0.6138  0.2413
 4985SOL    HW115854   0.427   5.275   4.147  1.7407 -1.3396 -0.5088
 4985SOL    HW215855   0.359   5.405   4.077 -0.2653 -0.8378  2.2029
 4986SOL     OW15856   1.263   5.803   6.932  0.7786  0.1444  0.4781
 4986SOL    HW115857   1.347   5.759   6.964  0.6414 -0.0473  0.5769
 4986SOL    HW215858   1.200   5.815   7.009  1.3132  1.6625  0.7038
 4987SOL     OW15859   3.363   3.850   2.946 -0.0194  0.0790  0.2003
 4987SOL    HW115860   3.439   3.852   3.011  2.3001  1.4461 -2.3323
 4987SOL    HW215861   3.369   3.766   2.892 -0.4557  0.1032  0.1188
 4988SOL     OW15862   3.699   5.630   4.304  0.1111 -0.1565  0.0616
 4988SOL    HW115863   3.699   5.534   4.332  1.0545  0.1416  1.1699
 4988SOL    HW215864   3.607   5.668   4.313 -0.4153 -1.1182 -1.0410
 4989SOL     OW15865   4.011   0.526   4.106 -0.0792 -0.4693 -0.3107
 4989SOL    HW115866   3.950   0.562   4.036 -0.1681  1.0945  0.5153
 4989SOL    HW215867   4.099   0.503   4.065 -0.1650  0.3211 -0.9673
 4990SOL     OW15868   4.814   0.161   4.548 -0.1432 -0.3030  0.1998
 4990SOL    HW115869   4.755   0.241   4.536  0.2265  0.0534  0.6954
 4990SOL    HW215870   4.783   0.108   4.627  0.6996  0.3596  1.0000
 4991SOL     OW15871   3.711   4.655   6.136  0.2127 -0.6036 -0.9066
 4991SOL    HW115872   3.663   4.716   6.200  1.9070 -1.1775  1.0026
 4991SOL    HW215873   3.677   4.672   6.043 -2.6108  0.0089  0.1120
 4992SOL     OW15874   2.621   2.277   5.233 -0.1016  0.0151 -0.1291
 4992SOL    HW115875   2.618   2.373   5.262  1.1568 -0.4543  1.6441
 4992SOL    HW215876   2.689   2.227   5.286 -1.8807 -2.2773  0.1752
 4993SOL     OW15877   2.845   6.642   4.471  0.7265  0.0382  0.0790
 4993SOL    HW115878   2.884   6.652   4.379 -1.1471 -3.3557 -1.2688
 4993SOL    HW215879   2.745   6.649   4.466  0.5050 -1.3564  1.6260
 4994SOL     OW15880   1.492   5.253   6.197 -0.7027  0.0732 -0.4341
 4994SOL    HW115881   1.423   5.204   6.251 -0.2451 -0.9559 -0.7627
 4994SOL    HW215882   1.565   5.286   6.258 -0.6088 -0.3573 -0.3119
 4995SOL     OW15883   6.183   1.494   5.111 -0.1042 -0.0086 -0.5131
 4995SOL    HW115884   6.169   1.568   5.176 -2.3916 -1.0962  0.3691
 4995SOL    HW215885   6.257   1.435   5.143 -0.9210 -0.2927  0.9469
 4996SOL     OW15886   0.341   1.329   5.278  0.1046 -0.5258  0.6393
 4996SOL    HW115887   0.256   1.346   5.329 -0.5770  1.2677 -0.9846
 4996SOL    HW215888   0.417   1.375   5.324 -0.2442 -0.1065  0.8042
 4997SOL     OW15889   4.484   0.203   1.396 -0.2301 -0.4674 -0.1955
 4997SOL    HW115890   4.476   0.122   1.338  0.4329 -0.3884 -0.4071
 4997SOL    HW215891   4.529   0.277   1.345 -0.2104 -0.1897  0.2134
 4998SOL     OW15892   1.929   4.155   2.545  0.2845 -0.4048  0.7968
 4998SOL    HW115893   2.017   4.182   2.586 -0.0894  2.2320  0.0295
 4998SOL    HW215894   1.936   4.061   2.511  3.5716  0.4098 -1.2347
 4999SOL     OW15895   5.275   2.705   1.511 -0.6516 -0.0698 -0.3750
 4999SOL    HW115896   5.267   2.800   1.480  0.6134  0.4264  0.7199
 4999SOL    HW215897   5.265   2.702   1.611 -0.5155 -1.0767 -0.3833
 5000SOL     OW15898   1.865   5.406   2.774 -0.1838 -0.7987  0.4988
 5000SOL    HW115899   1.941   5.469   2.791 -0.9513  0.5223 -0.7789
 5000SOL    HW215900   1.892   5.314   2.801  1.7252 -0.2867  0.4624
 5001SOL     OW15901   6.781   6.533   1.885 -0.5633  0.3227 -0.0082
 5001SOL    HW115902   6.819   6.476   1.957 -0.4292  0.6704  0.2016
 5001SOL    HW215903   6.838   6.615   1.873  0.3978 -0.5424 -1.6847
 5002SOL     OW15904   0.166   5.673   4.821  0.6025  0.2551 -0.4379
 5002SOL    HW115905   0.256   5.635   4.840  0.8949  1.9359  1.9012
 5002SOL    HW215906   0.099   5.637   4.886  0.1213  0.9235 -0.5426
 5003SOL     OW15907   3.288   0.369   0.630 -0.1932 -0.5821  0.6337
 5003SOL    HW115908   3.219   0.435   0.599  0.4078  0.1118  0.7406
 5003SOL    HW215909   3.336   0.406   0.709  2.0237  0.0909 -0.9259
 5004SOL     OW15910   5.371   0.496   6.112  0.1286 -0.2718 -0.1188
 5004SOL    HW115911   5.455   0.535   6.149  0.1868 -0.5337  0.0268
 5004SOL    HW215912   5.380   0.489   6.012 -0.0234  0.4164 -0.1846
 5005SOL     OW15913   4.107   3.423   0.823  0.7539  0.2328 -0.5641
 5005SOL    HW115914   4.148   3.343   0.781 -3.0164 -1.9034 -0.6595
 5005SOL    HW215915   4.084   3.402   0.919 -0.8459  0.9052 -0.7635
 5006SOL     OW15916   3.618   1.656   3.151  0.1228 -0.0187  0.0232
 5006SOL    HW115917   3.648   1.725   3.217  0.0788  0.2424 -0.2251
 5006SOL    HW215918   3.672   1.573   3.162 -1.7587 -1.0585  2.3310
 5007SOL     OW15919   6.049   4.482   1.982 -0.2220  0.0236  0.8965
 5007SOL    HW115920   6.136   4.474   2.032  0.4029  0.6814 -0.0404
 5007SOL    HW215921   6.011   4.573   1.997  0.3416  0.4921 -0.3617
 5008SOL     OW15922   3.791   0.788   2.813 -0.1154 -0.5109 -0.0045
 5008SOL    HW115923   3.770   0.858   2.881 -0.4492 -1.2388  0.6546
 5008SOL    HW215924   3.834   0.709   2.858  0.0723 -0.8139 -0.7011
 5009SOL     OW15925   6.924   1.153   6.271  0.0612  0.2035  0.2829
 5009SOL    HW115926   6.850   1.142   6.338 -0.9116  0.5659 -0.6942
 5009SOL    HW215927   7.004   1.192   6.315 -0.3086 -0.2569  1.3869
 5010SOL     OW15928   4.730   3.675   0.915  0.2705  0.4733  0.1237
 5010SOL    HW115929   4.689   3.621   0.842  2.5229 -1.1987  0.0054
 5010SOL    HW215930   4.697   3.642   1.003 -1.3144  1.5261 -0.0287
 5011SOL     OW15931   1.743   2.682   0.309  0.0010  0.5957 -0.4653
 5011SOL    HW115932   1.830   2.656   0.266 -0.6875  0.5503 -1.8872
 5011SOL    HW215933   1.680   2.604   0.305  0.4564 -0.0046  2.2202
 5012SOL     OW15934   0.183   2.340   6.740  0.4866  0.3530 -0.3130
 5012SOL    HW115935   0.239   2.290   6.673  1.9639  0.6440  0.6628
 5012SOL    HW215936   0.236   2.415   6.779 -1.0236  1.4452 -0.2533
 5013SOL     OW15937   4.689   6.912   5.184 -0.0624 -0.3912  0.4750
 5013SOL    HW115938   4.693   6.922   5.085  0.1689  0.4195  0.5552
 5013SOL    HW215939   4.605   6.955   5.219 -0.7405 -1.7156  0.5246
 5014SOL     OW15940   6.532   4.108   6.084  0.6658  0.8338  0.5512
 5014SOL    HW115941   6.505   4.024   6.037 -0.6687  0.9007  1.1380
 5014SOL    HW215942   6.624   4.135   6.056  0.8837 -0.5067 -0.0755
 5015SOL     OW15943   1.256   4.092   3.560 -0.1496 -0.0846 -0.2905
 5015SOL    HW115944   1.193   4.169   3.561 -0.8526 -0.6309 -1.1699
 5015SOL    HW215945   1.226   4.025   3.492  0.5415 -1.0579  0.3368
 5016SOL     OW15946   1.989   2.526   3.863  0.0529 -0.6704  0.0048
 5016SOL    HW115947   2.026   2.467   3.792 -0.5293  0.6690 -1.4674
 5016SOL    HW215948   1.942   2.604   3.821 -1.2596 -0.3996  1.8479
 5017SOL     OW15949   5.811   3.996   6.895  1.0611 -0.0955 -0.4763
 5017SOL    HW115950   5.835   3.968   6.988  1.0951 -1.0981 -0.7696
 5017SOL    HW215951   5.857   3.936   6.830  1.6801  1.1099 -1.1695
 5018SOL     OW15952   1.211   1.508   0.169 -0.2653  0.6145  0.4000
 5018SOL    HW115953   1.246   1.419   0.141 -2.2399 -0.3154  0.7138
 5018SOL    HW215954   1.272   1.580   0.135 -0.1790 -0.6785 -2.4416
 5019SOL     OW15955   3.033   5.389   4.119  0.5854  0.4342  0.2827
 5019SOL    HW115956   2.937   5.369   4.139  0.4058 -0.4954 -1.3172
 5019SOL    HW215957   3.091   5.336   4.180  0.0647 -1.6671 -0.9371
 5020SOL     OW15958   2.784   1.108   2.818  0.3588  0.3248  0.5993
 5020SOL    HW115959   2.701   1.103   2.762 -0.3497  0.0076  1.6310
 5020SOL    HW215960   2.769   1.056   2.902  1.0216  1.6311  1.5467
 5021SOL     OW15961   2.459   6.700   2.001 -0.6643  0.2735 -0.3601
 5021SOL    HW115962   2.467   6.605   2.032  0.4749 -0.2071 -2.0080
 5021SOL    HW215963   2.424   6.702   1.908  1.3704  1.3120 -1.1642
 5022SOL     OW15964   6.465   5.101   1.345  0.5169 -0.4153  1.1323
 5022SOL    HW115965   6.424   5.129   1.431 -0.6102  0.8979  0.2095
 5022SOL    HW215966   6.525   5.173   1.311  0.7009 -0.7793  0.6654
 5023SOL     OW15967   0.415   1.582   2.423 -0.0390 -0.8529  0.6248
 5023SOL    HW115968   0.495   1.538   2.463 -0.1882 -2.0455 -0.3063
 5023SOL    HW215969   0.368   1.636   2.492  2.6714  1.5847  0.7134
 5024SOL     OW15970   4.498   6.162   6.236 -0.0447  0.8643  0.4368
 5024SOL    HW115971   4.456   6.106   6.307  0.1963 -0.5192 -0.4965
 5024SOL    HW215972   4.469   6.257   6.248 -0.5871  0.5377  1.9370
 5025SOL     OW15973   0.306   2.528   5.311 -0.5078  0.1052 -0.7202
 5025SOL    HW115974   0.247   2.594   5.265  0.7303  0.1462 -2.3642
 5025SOL    HW215975   0.335   2.458   5.245  0.1203 -0.7146  0.3938
 5026SOL     OW15976   5.520   0.313   4.673 -0.0583 -1.3188  0.0947
 5026SOL    HW115977   5.490   0.398   4.718 -0.4179 -0.7593 -1.1475
 5026SOL    HW215978   5.620   0.309   4.673 -0.0541 -1.4327  1.1093
 5027SOL     OW15979   6.017   6.541   5.543  0.1548  0.0864 -0.3376
 5027SOL    HW115980   5.974   6.627   5.570  0.9492  0.1657  0.7555
 5027SOL    HW215981   6.109   6.560   5.508  1.0527 -0.4187  1.5997
 5028SOL     OW15982   1.290   0.848   3.374  0.9228  0.1888 -0.5654
 5028SOL    HW115983   1.319   0.883   3.463 -0.8548 -0.1699  0.1933
 5028SOL    HW215984   1.262   0.753   3.383  0.8271  0.1081 -1.5483
 5029SOL     OW15985   4.805   3.040   3.761  0.5122  0.0254  0.6638
 5029SOL    HW115986   4.842   3.028   3.669 -0.1767 -1.9698  0.6044
 5029SOL    HW215987   4.875   3.018   3.828  0.5874  0.0863  0.6062
 5030SOL     OW15988   0.037   3.328   1.924  0.1392  0.1782  0.9043
 5030SOL    HW115989   0.095   3.395   1.968  2.9672 -1.2104 -0.4586
 5030SOL    HW215990   0.062   3.236   1.955 -1.8366 -0.4673  0.7671
 5031SOL     OW15991   5.698   0.001   6.433 -0.7044  0.2390 -0.3297
 5031SOL    HW115992   5.686   0.097   6.406 -1.9309 -0.1145 -1.1442
 5031SOL    HW215993   5.610  -0.036   6.464 -0.0843 -0.4215  0.7019
 5032SOL     OW15994   3.412   6.204   5.617  0.2172 -0.1655 -0.3915
 5032SOL    HW115995   3.380   6.259   5.540  0.6847  0.5295 -0.0998
 5032SOL    HW215996   3.440   6.114   5.585 -2.3720 -0.9646 -0.6224
 5033SOL     OW15997   3.805   0.345   3.511 -0.2213  0.1757 -0.0996
 5033SOL    HW115998   3.892   0.360   3.465 -0.6460 -0.6754 -1.2528
 5033SOL    HW215999   3.796   0.247   3.533 -1.6029 -0.0645 -1.5797
 5034SOL     OW16000   3.978   0.331   3.245  0.5404 -0.1549  0.3760
 5034SOL    HW116001   4.047   0.355   3.313  1.0709  2.0485 -0.8527
 5034SOL    HW216002   3.929   0.248   3.275  3.8722 -2.0310  1.1524
 5035SOL     OW16003   0.184   4.440   3.249  0.2376  0.1004  0.0716
 5035SOL    HW116004   0.091   4.466   3.223  0.2944 -0.3888 -0.6643
 5035SOL    HW216005   0.215   4.499   3.324 -0.9643 -0.2781  0.9092
 5036SOL     OW16006   2.068   2.831   5.439  0.1460  0.1518 -0.0278
 5036SOL    HW116007   2.135   2.815   5.366  0.3712 -0.5171  0.3188
 5036SOL    HW216008   1.988   2.877   5.401  0.9008  1.2023 -0.4066
 5037SOL     OW16009   5.298   3.407   1.493  0.1389 -0.3893  0.1632
 5037SOL    HW116010   5.240   3.402   1.574  1.7479 -0.2956  1.3754
 5037SOL    HW216011   5.345   3.495   1.490  0.0121 -0.3378 -0.9528
 5038SOL     OW16012   3.682   3.214   4.102  0.3157  0.3791 -0.2041
 5038SOL    HW116013   3.607   3.232   4.038  1.4347  0.6973 -1.4740
 5038SOL    HW216014   3.745   3.149   4.061  0.4723 -0.3036  1.0809
 5039SOL     OW16015   6.991   3.591   1.080 -0.7093 -0.1651  0.0599
 5039SOL    HW116016   7.034   3.598   1.170 -0.1685 -1.4224 -0.0857
 5039SOL    HW216017   6.944   3.504   1.072 -0.0298 -0.4492 -1.1734
 5040SOL     OW16018   6.632   4.391   5.586  0.5751  0.1989  0.0782
 5040SOL    HW116019   6.536   4.379   5.561  0.5906  0.2651 -0.0141
 5040SOL    HW216020   6.646   4.359   5.679  0.3888  0.5169  0.2191
 5041SOL     OW16021   6.000   1.304   1.418  0.2172 -0.1517  0.2672
 5041SOL    HW116022   6.061   1.376   1.450  1.4764 -1.3452  0.6761
 5041SOL    HW216023   5.922   1.344   1.370  1.0891  1.4387  0.1285
 5042SOL     OW16024   0.651   0.678   6.518 -0.3590  0.0687  0.0229
 5042SOL    HW116025   0.566   0.689   6.570  0.2668 -1.0439  1.3252
 5042SOL    HW216026   0.629   0.675   6.420 -1.8727 -0.5808  0.3470
 5043SOL     OW16027   3.157   6.472   3.158 -0.0762  0.5607 -0.3403
 5043SOL    HW116028   3.128   6.484   3.253 -1.5739  1.4224 -0.8669
 5043SOL    HW216029   3.113   6.390   3.120  1.5988 -0.5920  0.0625
 5044SOL     OW16030   6.766   6.427   0.420 -0.1495  0.0939  0.0567
 5044SOL    HW116031   6.701   6.439   0.344 -1.8817 -0.9434  1.2936
 5044SOL    HW216032   6.811   6.338   0.411 -1.7142 -0.8526  1.1583
 5045SOL     OW16033   0.293   4.179   1.189 -0.0616 -0.2014  0.7803
 5045SOL    HW116034   0.290   4.192   1.090  1.1344 -3.3091  0.2151
 5045SOL    HW216035   0.379   4.216   1.225 -0.4195  0.7764  0.6531
 5046SOL     OW16036   3.180   4.627   0.310 -0.0867  0.4474  0.0289
 5046SOL    HW116037   3.108   4.617   0.379  0.0690  2.1497  0.4879
 5046SOL    HW216038   3.261   4.577   0.340 -1.5119 -2.9595 -1.2970
 5047SOL     OW16039   1.760   6.522   5.725  0.5531 -0.1550  0.0675
 5047SOL    HW116040   1.687   6.497   5.789 -0.0295  1.3513  0.0488
 5047SOL    HW216041   1.727   6.593   5.663  1.6395 -0.3938 -0.8128
 5048SOL     OW16042   1.003   2.034   4.413 -0.6188  0.0052 -0.2803
 5048SOL    HW116043   1.088   2.071   4.451 -0.9727  1.1741 -0.5893
 5048SOL    HW216044   1.017   2.011   4.317 -0.8882  1.1150 -0.6072
 5049SOL     OW16045   5.098   2.877   5.839  0.2047  0.0426  0.0491
 5049SOL    HW116046   5.161   2.892   5.762 -0.4084 -0.9654 -0.6744
 5049SOL    HW216047   5.024   2.944   5.834  1.8907  2.1898  1.7258
 5050SOL     OW16048   2.183   1.305   1.230  0.2525  0.6965  0.1540
 5050SOL    HW116049   2.210   1.390   1.274  2.2434  0.3456 -0.2684
 5050SOL    HW216050   2.255   1.276   1.166 -0.5561 -1.0920 -0.0235
 5051SOL     OW16051   4.371   3.593   0.080  0.3406 -0.8884  0.7022
 5051SOL    HW116052   4.290   3.603   0.138 -0.7438 -0.0931 -0.8687
 5051SOL    HW216053   4.418   3.682   0.073  0.1190 -0.8233 -0.0833
 5052SOL     OW16054   2.843   5.990   4.258 -0.5815 -0.1587  0.2285
 5052SOL    HW116055   2.794   6.009   4.172  1.1595 -0.3532 -0.8512
 5052SOL    HW216056   2.873   6.076   4.298 -0.8449 -0.1080  0.3230
 5053SOL     OW16057   0.212   0.466   6.645 -0.1816 -0.1939  0.1621
 5053SOL    HW116058   0.126   0.515   6.662 -0.1287  0.9759 -2.4169
 5053SOL    HW216059   0.271   0.473   6.725 -2.0833 -0.1957  1.6445
 5054SOL     OW16060   4.473   5.199   2.668 -0.8103 -0.2247  0.1228
 5054SOL    HW116061   4.380   5.173   2.642 -0.6333 -0.1629 -0.5871
 5054SOL    HW216062   4.479   5.298   2.679 -0.7006 -0.1689 -0.3894
 5055SOL     OW16063   1.421   4.205   4.947 -0.3637 -0.3018  0.9384
 5055SOL    HW116064   1.377   4.173   4.863 -0.6629  0.1706  0.9138
 5055SOL    HW216065   1.358   4.264   4.998 -0.4179 -1.0902  1.8171
 5056SOL     OW16066   0.372   4.647   3.125  0.2870 -0.7262  0.2288
 5056SOL    HW116067   0.467   4.629   3.151  0.6154  0.1314 -0.3502
 5056SOL    HW216068   0.312   4.587   3.177  1.2618 -2.7969 -0.9045
 5057SOL     OW16069   6.308   4.699   2.633 -0.1607 -0.2147  0.3072
 5057SOL    HW116070   6.400   4.679   2.599 -0.5053 -0.6308 -0.4073
 5057SOL    HW216071   6.268   4.616   2.672 -0.6753 -0.3363 -0.4561
 5058SOL     OW16072   2.498   5.986   5.613 -0.5973  0.0356 -0.2197
 5058SOL    HW116073   2.523   5.941   5.699 -0.6781 -0.4743 -0.4594
 5058SOL    HW216074   2.564   5.960   5.542  0.4467  1.7635  0.0760
 5059SOL     OW16075   6.009   1.612   0.564  0.2094 -0.6069  0.3424
 5059SOL    HW116076   5.928   1.651   0.607  1.4709  1.0199  1.3683
 5059SOL    HW216077   6.082   1.681   0.560  0.7614 -1.1955 -2.8907
 5060SOL     OW16078   0.575   2.207   6.205 -0.1021  0.3993 -0.1470
 5060SOL    HW116079   0.556   2.185   6.109 -0.5941  0.1867 -0.0004
 5060SOL    HW216080   0.572   2.124   6.260 -0.6566  0.6361  0.1893
 5061SOL     OW16081   5.682   3.290   0.592  0.1166  0.1465  0.1957
 5061SOL    HW116082   5.584   3.278   0.609 -0.2380 -0.5644 -2.0063
 5061SOL    HW216083   5.718   3.211   0.543  1.6747  0.6654  0.4331
 5062SOL     OW16084   5.710   1.309   1.317  0.0127  0.0735  0.0595
 5062SOL    HW116085   5.702   1.247   1.395 -0.6957 -0.8709 -0.7451
 5062SOL    HW216086   5.675   1.264   1.235 -0.2618  1.4500 -0.5982
 5063SOL     OW16087   1.503   0.280   2.297 -0.0707 -0.0503  0.1129
 5063SOL    HW116088   1.481   0.199   2.351  0.6885 -1.1838 -1.2353
 5063SOL    HW216089   1.485   0.263   2.200 -0.5149  1.6271 -0.1435
 5064SOL     OW16090   3.636   5.615   5.871  0.5743 -0.0600  0.2520
 5064SOL    HW116091   3.574   5.653   5.802 -0.2978 -0.6934  0.6635
 5064SOL    HW216092   3.679   5.532   5.835  0.1942 -0.3355  0.4201
 5065SOL     OW16093   1.413   6.707   6.199 -0.5831  0.1913 -0.0906
 5065SOL    HW116094   1.474   6.659   6.262 -0.7602  2.0180  1.5687
 5065SOL    HW216095   1.337   6.648   6.175  1.6856 -2.1363 -2.1676
 5066SOL     OW16096   5.870   4.587   0.822 -0.1965  0.2221  0.1649
 5066SOL    HW116097   5.898   4.512   0.762 -2.4164 -1.7465  1.3869
 5066SOL    HW216098   5.871   4.555   0.917  0.8105  2.4594  0.9539
 5067SOL     OW16099   5.640   2.610   0.502 -0.4369 -0.1423 -0.0727
 5067SOL    HW116100   5.571   2.547   0.466 -1.8481  0.7977  0.8953
 5067SOL    HW216101   5.671   2.579   0.591  2.1523 -1.7960 -1.4212
 5068SOL     OW16102   3.196   5.307   1.180 -0.2049  0.0053  0.3879
 5068SOL    HW116103   3.122   5.372   1.165 -0.2628 -0.0540  0.4142
 5068SOL    HW216104   3.158   5.220   1.210  0.0162  0.8795  3.5844
 5069SOL     OW16105   6.129   3.802   4.008  0.6002 -0.5320 -0.1909
 5069SOL    HW116106   6.169   3.735   3.946  2.5335 -0.7329  1.1816
 5069SOL    HW216107   6.201   3.860   4.046 -0.7196  0.6584  0.6167
 5070SOL     OW16108   6.323   0.895   3.252 -0.1374  0.0384  0.3390
 5070SOL    HW116109   6.284   0.864   3.165  2.1424 -4.5308  0.6565
 5070SOL    HW216110   6.413   0.935   3.235 -0.2616  0.3806  0.4921
 5071SOL     OW16111   3.748   6.617   1.162  0.3271 -0.1708 -0.2514
 5071SOL    HW116112   3.670   6.678   1.147 -0.5289 -1.5035 -1.4959
 5071SOL    HW216113   3.782   6.628   1.255 -0.3390  1.5629 -0.1785
 5072SOL     OW16114   6.262   4.076   2.725  0.1154  0.0039 -0.0417
 5072SOL    HW116115   6.318   3.998   2.754 -0.2751 -0.4635 -0.5061
 5072SOL    HW216116   6.169   4.045   2.708 -0.3032  0.7873  0.7800
 5073SOL     OW16117   2.897   1.312   2.680  0.0175  0.8556 -0.3626
 5073SOL    HW116118   2.873   1.243   2.747  1.5041  0.3832 -0.2767
 5073SOL    HW216119   2.861   1.401   2.708 -3.5564 -0.1283 -1.4059
 5074SOL     OW16120   3.698   4.133   4.916 -0.2075  0.5168  0.1589
 5074SOL    HW116121   3.726   4.190   4.992  0.6896  0.8564 -0.4042
 5074SOL    HW216122   3.613   4.085   4.939  0.8162 -0.5361  1.9414
 5075SOL     OW16123   6.715   5.521   3.540  0.4475 -0.0770  0.5495
 5075SOL    HW116124   6.776   5.508   3.462 -1.0810 -1.0262 -0.5549
 5075SOL    HW216125   6.701   5.434   3.587 -0.5617 -0.0284  0.3695
 5076SOL     OW16126   4.386   6.382   2.709  0.3961 -0.2962  0.2547
 5076SOL    HW116127   4.442   6.300   2.700 -0.3745 -0.9910  1.4297
 5076SOL    HW216128   4.397   6.420   2.801  0.2582  0.5684 -0.0719
 5077SOL     OW16129   0.149   1.921   4.655  0.1101  0.3229  0.6065
 5077SOL    HW116130   0.125   2.018   4.659 -0.8116  0.2287 -1.5043
 5077SOL    HW216131   0.119   1.877   4.740 -1.0898  1.5490  0.8742
 5078SOL     OW16132   0.672   0.395   3.748  0.5743  0.4877 -0.0745
 5078SOL    HW116133   0.673   0.319   3.684  0.8163  0.0598  0.4297
 5078SOL    HW216134   0.578   0.413   3.777  0.5473  0.1876  0.0273
 5079SOL     OW16135   4.246   6.269   2.351  0.6982 -0.0195  0.2322
 5079SOL    HW116136   4.267   6.172   2.341  0.7473 -0.0688  0.8024
 5079SOL    HW216137   4.289   6.321   2.276  0.9217 -0.3957  0.1001
 5080SOL     OW16138   5.063   6.094   0.353  0.0039 -0.0849  0.3569
 5080SOL    HW116139   5.119   6.012   0.348  0.5515  0.3355 -0.9216
 5080SOL    HW216140   4.969   6.069   0.378  0.2416 -1.0543  0.3083
 5081SOL     OW16141   3.532   3.790   4.290  0.0335 -0.2205 -0.2690
 5081SOL    HW116142   3.590   3.829   4.218 -0.2699  0.5705 -0.0838
 5081SOL    HW216143   3.519   3.856   4.363  0.4785 -1.0853  0.6076
 5082SOL     OW16144   0.835   2.260   4.591  0.2553 -0.4834 -0.9032
 5082SOL    HW116145   0.747   2.220   4.618 -0.1499  1.0823  0.2211
 5082SOL    HW216146   0.874   2.206   4.516 -1.4644 -1.4356 -1.1748
 5083SOL     OW16147   0.112   3.134   2.494  0.7209  0.2861  0.1546
 5083SOL    HW116148   0.084   3.215   2.545 -1.2499 -0.5945  0.5336
 5083SOL    HW216149   0.032   3.091   2.453  1.7567 -1.3935 -0.1809
 5084SOL     OW16150   0.269   0.133   2.855  0.1404  0.2031 -0.6178
 5084SOL    HW116151   0.299   0.038   2.847  1.6951  0.7636 -2.4192
 5084SOL    HW216152   0.347   0.191   2.878 -0.5990  1.1625 -0.4338
 5085SOL     OW16153   0.535   5.490   6.846 -0.1252  0.1085 -0.1012
 5085SOL    HW116154   0.541   5.433   6.928 -0.3006  1.2418  0.7112
 5085SOL    HW216155   0.506   5.582   6.870 -1.2585  0.1838 -1.5701
 5086SOL     OW16156   5.093   0.093   4.477  0.4418 -0.0157  0.0049
 5086SOL    HW116157   5.161   0.163   4.456  0.9103 -0.0229  1.4228
 5086SOL    HW216158   5.002   0.136   4.484  0.4615  0.1703 -0.7440
 5087SOL     OW16159   4.491   5.243   5.353 -0.1522 -0.0006 -0.2548
 5087SOL    HW116160   4.456   5.153   5.378  2.4623 -1.1409 -0.3821
 5087SOL    HW216161   4.441   5.314   5.404 -3.3707 -1.3167 -1.3495
 5088SOL     OW16162   6.507   0.258   4.511 -0.2004 -0.4339  0.0938
 5088SOL    HW116163   6.422   0.212   4.537  1.4058 -2.8903  1.3910
 5088SOL    HW216164   6.545   0.304   4.592 -0.2959  0.6849 -0.4868
 5089SOL     OW16165   4.949   3.759   4.836  0.4288 -0.0112  0.0018
 5089SOL    HW116166   4.939   3.814   4.919 -0.1898  1.0853 -0.7747
 5089SOL    HW216167   4.947   3.661   4.860  0.8836  0.2819  1.3264
 5090SOL     OW16168   1.081   4.091   6.143 -0.1877 -0.3335  0.4156
 5090SOL    HW116169   0.981   4.084   6.153 -0.1273 -1.8640  0.1218
 5090SOL    HW216170   1.120   4.122   6.229 -0.9396  0.7793  0.3906
 5091SOL     OW16171   2.705   5.142   3.800 -0.7721  0.0723 -0.4743
 5091SOL    HW116172   2.744   5.093   3.878  0.2862  0.1222 -0.9548
 5091SOL    HW216173   2.658   5.223   3.832 -0.7711 -0.1725  0.1576
 5092SOL     OW16174   2.395   2.827   0.303 -0.5085 -0.3956  0.4068
 5092SOL    HW116175   2.415   2.741   0.350 -1.6993 -0.5519  0.6491
 5092SOL    HW216176   2.480   2.880   0.294  0.0714 -1.1807  1.0675
 5093SOL     OW16177   1.115   7.006   1.117 -0.5611  0.4196 -0.0511
 5093SOL    HW116178   1.179   7.080   1.138  0.2964 -0.8049  1.8728
 5093SOL    HW216179   1.023   7.031   1.149  0.1344 -0.1350  2.6424
 5094SOL     OW16180   6.290   0.103   0.237  0.4846  0.4153  0.5981
 5094SOL    HW116181   6.271   0.187   0.287 -1.9475 -0.1001  0.6967
 5094SOL    HW216182   6.368   0.056   0.277  2.0369  2.6920  0.4029
 5095SOL     OW16183   1.966   1.694   6.414 -0.2865  0.4666 -0.4678
 5095SOL    HW116184   1.870   1.721   6.412 -0.8844 -1.4422  0.4930
 5095SOL    HW216185   1.973   1.595   6.422  1.7905  0.3674 -2.3877
 5096SOL     OW16186   4.325   6.170   1.125  0.2263 -0.4525  0.3707
 5096SOL    HW116187   4.385   6.093   1.149  1.6406  0.1205 -1.1726
 5096SOL    HW216188   4.306   6.224   1.208  0.6834 -1.4336  1.1382
 5097SOL     OW16189   2.423   1.362   6.778  0.0723  0.5746 -0.3102
 5097SOL    HW116190   2.456   1.453   6.804 -0.6728  0.8405 -0.2638
 5097SOL    HW216191   2.325   1.355   6.797  0.2644 -0.5022  0.3854
 5098SOL     OW16192   1.869   0.511   0.933  0.3056  0.3784  0.0596
 5098SOL    HW116193   1.841   0.479   0.842  1.7738 -0.4631 -0.1237
 5098SOL    HW216194   1.845   0.442   1.001  1.8244 -0.3510 -0.0985
 5099SOL     OW16195   0.219   0.160   3.595  0.0723  0.5556  0.2704
 5099SOL    HW116196   0.135   0.143   3.543  0.3665  1.1737 -0.4223
 5099SOL    HW216197   0.218   0.105   3.679 -1.0802  0.6527  0.3378
 5100SOL     OW16198   2.642   5.452   4.539  0.0372 -0.4547 -0.1422
 5100SOL    HW116199   2.716   5.495   4.487 -1.0774 -1.0041 -2.2919
 5100SOL    HW216200   2.609   5.371   4.489 -1.3512 -0.7944  1.2654
 5101SOL     OW16201   5.218   6.359   2.342  0.7899  0.1626  0.7192
 5101SOL    HW116202   5.300   6.343   2.398 -0.4365  0.1227  2.5934
 5101SOL    HW216203   5.246   6.394   2.253  2.8524  0.1243  1.2850
 5102SOL     OW16204   2.237   6.934   2.678 -0.0811 -0.1275  0.2862
 5102SOL    HW116205   2.281   7.020   2.653 -0.0814 -0.1084  0.3520
 5102SOL    HW216206   2.143   6.934   2.644 -0.6504  0.6144  1.7516
 5103SOL     OW16207   6.469   1.075   2.522 -0.2182 -0.4963  0.0922
 5103SOL    HW116208   6.399   1.140   2.552  0.2284 -0.9078  2.1744
 5103SOL    HW216209   6.559   1.118   2.524  0.1512 -1.2405  1.9824
 5104SOL     OW16210   0.094   0.748   1.567 -0.0869 -0.2488 -1.0038
 5104SOL    HW116211   0.145   0.730   1.652 -0.8678  0.8637 -0.2778
 5104SOL    HW216212   0.004   0.785   1.589 -0.1792  0.3713 -2.3406
 5105SOL     OW16213   1.323   3.329   0.278 -0.1226 -0.0526 -0.1199
 5105SOL    HW116214   1.412   3.330   0.232  0.9986 -0.2988  1.9130
 5105SOL    HW216215   1.328   3.384   0.362 -1.1046 -2.0957  1.3662
 5106SOL     OW16216   2.597   6.676   2.932  0.1656 -0.4518  0.0043
 5106SOL    HW116217   2.689   6.653   2.901  0.0668 -0.2321 -0.4702
 5106SOL    HW216218   2.537   6.686   2.852 -0.7642 -2.5908  0.3658
 5107SOL     OW16219   1.687   0.905   0.414 -0.3093  0.0861 -0.4854
 5107SOL    HW116220   1.697   0.816   0.459 -0.6548  0.0146 -0.5525
 5107SOL    HW216221   1.651   0.971   0.480 -2.9255 -0.5310 -1.1967
 5108SOL     OW16222   3.302   2.044   5.182  0.5486 -0.1026  0.3004
 5108SOL    HW116223   3.396   2.051   5.216  2.1842 -2.3526 -3.1176
 5108SOL    HW216224   3.283   2.122   5.123  0.4893  0.0587  0.5319
 5109SOL     OW16225   0.896   1.810   1.994 -0.1544  0.1835  0.4444
 5109SOL    HW116226   0.812   1.757   1.985  1.7061 -2.7827 -0.6755
 5109SOL    HW216227   0.938   1.793   2.083 -1.3837  2.8602  1.6456
 5110SOL     OW16228   0.986   5.040   5.722  0.2616  0.0577 -0.0549
 5110SOL    HW116229   0.920   4.973   5.689 -1.8642  1.8234  0.3575
 5110SOL    HW216230   1.062   5.048   5.658 -2.0392  0.9613 -2.8446
 5111SOL     OW16231   2.138   0.214   6.766  0.3263  0.2524 -0.2737
 5111SOL    HW116232   2.222   0.222   6.713 -0.6279  2.9744 -1.5417
 5111SOL    HW216233   2.081   0.295   6.752 -1.5708 -0.5019  2.2366
 5112SOL     OW16234   6.491   0.389   1.947 -0.2106 -0.6110 -0.1772
 5112SOL    HW116235   6.551   0.309   1.939 -0.1492 -0.8299  1.8314
 5112SOL    HW216236   6.396   0.361   1.933 -0.0475 -0.6998 -1.1396
 5113SOL     OW16237   0.566   0.820   0.120 -0.2029  0.5967 -0.0606
 5113SOL    HW116238   0.516   0.854   0.200  0.9581 -0.0090  0.9493
 5113SOL    HW216239   0.628   0.747   0.148  0.4183  0.5532 -1.4754
 5114SOL     OW16240   4.333   3.193   0.054 -0.0348  0.4819 -0.5870
 5114SOL    HW116241   4.412   3.251   0.075  1.0579 -0.8419 -0.9086
 5114SOL    HW216242   4.261   3.209   0.121  0.8844  1.0004  0.3083
 5115SOL     OW16243   2.739   3.186   5.310 -0.0897 -0.0018 -0.3916
 5115SOL    HW116244   2.795   3.183   5.227  0.7913 -0.5056  0.2028
 5115SOL    HW216245   2.645   3.163   5.287 -0.3567  2.0551 -1.6259
 5116SOL     OW16246   6.156   3.584   1.347 -0.7724 -0.0740 -0.2098
 5116SOL    HW116247   6.171   3.554   1.441 -0.9767 -1.4380 -0.5983
 5116SOL    HW216248   6.108   3.513   1.296 -1.0869  0.8404 -1.2280
 5117SOL     OW16249   1.046   4.148   4.794 -0.6567 -0.1406 -0.6294
 5117SOL    HW116250   0.977   4.079   4.770 -1.1564  0.2264 -0.2761
 5117SOL    HW216251   1.137   4.108   4.785 -0.8889 -0.4922 -1.5486
 5118SOL     OW16252   3.607   0.548   1.175  0.1410 -0.3814 -0.2516
 5118SOL    HW116253   3.638   0.637   1.210  0.5921 -0.7497  0.2996
 5118SOL    HW216254   3.618   0.547   1.075  1.6237 -0.3684 -0.1148
 5119SOL     OW16255   6.000   5.948   0.795 -0.6204 -0.3428  0.1877
 5119SOL    HW116256   5.908   5.911   0.810 -0.3678 -0.6898  0.9513
 5119SOL    HW216257   5.993   6.045   0.773 -1.1733 -0.3522  0.2945
 5120SOL     OW16258   2.303   0.058   1.747  0.3220  0.3584 -0.3748
 5120SOL    HW116259   2.329   0.121   1.674  2.8056  0.3796  0.4309
 5120SOL    HW216260   2.229   0.097   1.801 -1.2284  0.5523 -2.5281
 5121SOL     OW16261   0.934   2.897   2.789 -0.0957  0.5035 -0.2554
 5121SOL    HW116262   0.939   2.944   2.701 -0.4292  0.8810 -0.0792
 5121SOL    HW216263   1.026   2.872   2.819  0.2310  2.0748  0.1792
 5122SOL     OW16264   0.714   5.438   1.913 -0.2217 -0.3455  0.3284
 5122SOL    HW116265   0.786   5.380   1.873  0.6778  0.3705  0.8654
 5122SOL    HW216266   0.626   5.413   1.874  0.3199 -1.2241 -0.3782
 5123SOL     OW16267   5.403   3.933   1.393 -0.8270 -0.0420 -0.8989
 5123SOL    HW116268   5.340   3.859   1.417 -1.2251  0.6513  0.2794
 5123SOL    HW216269   5.497   3.898   1.389 -1.2019 -0.9704 -2.1366
 5124SOL     OW16270   3.856   6.565   0.413  0.1476  0.1173  0.4552
 5124SOL    HW116271   3.925   6.623   0.369 -0.1848  0.7444  0.7391
 5124SOL    HW216272   3.808   6.619   0.482  1.3018 -1.0715  2.2859
 5125SOL     OW16273   1.660   6.343   5.258 -0.3375 -0.2593  0.0182
 5125SOL    HW116274   1.601   6.324   5.337 -0.4589 -2.2762 -0.4909
 5125SOL    HW216275   1.750   6.302   5.273 -0.3192 -0.5501 -0.8183
 5126SOL     OW16276   4.725   2.341   1.379  0.0452  0.4457 -0.6778
 5126SOL    HW116277   4.762   2.425   1.420 -0.7174  0.5944 -0.2673
 5126SOL    HW216278   4.794   2.298   1.322  1.4801 -0.2743  1.4972
 5127SOL     OW16279   5.772   4.161   5.379  0.7977 -0.0874 -0.4089
 5127SOL    HW116280   5.818   4.100   5.314  0.8785  1.2172 -1.6181
 5127SOL    HW216281   5.838   4.222   5.421  0.2066  2.1596 -2.5539
 5128SOL     OW16282   6.741   1.163   0.022  0.3014  0.3861  0.3116
 5128SOL    HW116283   6.781   1.233   0.081  0.4359  0.1954  0.4470
 5128SOL    HW216284   6.656   1.129   0.063  1.6999 -1.6167  1.7468
 5129SOL     OW16285   2.488   2.124   4.302 -0.2432  0.7681 -0.0640
 5129SOL    HW116286   2.520   2.131   4.397 -1.0241 -0.8147  0.3445
 5129SOL    HW216287   2.396   2.163   4.295  0.1664  1.7129 -0.3911
 5130SOL     OW16288   4.036   2.226   4.619 -0.2335 -0.0242 -0.0954
 5130SOL    HW116289   4.025   2.325   4.625  1.9279  0.3839 -1.6425
 5130SOL    HW216290   4.066   2.190   4.707 -1.1766  0.6653  0.5173
 5131SOL     OW16291   1.824   1.282   3.314  0.8252  0.0206  0.4483
 5131SOL    HW116292   1.782   1.363   3.273  1.2117  0.1560  0.3186
 5131SOL    HW216293   1.899   1.251   3.256  0.1952 -0.8859  0.0920
 5132SOL     OW16294   1.695   3.067   6.067 -0.2143 -0.4102 -0.0417
 5132SOL    HW116295   1.683   3.138   5.997  0.9354  0.9983  1.1304
 5132SOL    HW216296   1.784   3.023   6.054  0.5022  0.6362  1.1776
 5133SOL     OW16297   4.529   4.072   0.068 -0.0758  0.2281  0.3483
 5133SOL    HW116298   4.626   4.071   0.094  0.2723  1.2103 -0.8185
 5133SOL    HW216299   4.486   3.986   0.096  1.1848 -0.3248  0.6646
 5134SOL     OW16300   6.160   5.892   6.937 -0.3605  0.2916  0.4253
 5134SOL    HW116301   6.084   5.867   6.877  0.2990  0.2636 -0.4198
 5134SOL    HW216302   6.168   5.992   6.941 -0.0007  0.2880 -0.0723
 5135SOL     OW16303   0.124   3.929   2.552 -0.1825  0.0444  0.8758
 5135SOL    HW116304   0.081   3.859   2.609  0.0993 -2.4322 -1.6936
 5135SOL    HW216305   0.223   3.921   2.559 -0.1268 -0.8291 -0.4277
 5136SOL     OW16306   6.837   0.752   5.375 -0.0109 -0.1172  0.3837
 5136SOL    HW116307   6.834   0.849   5.350 -1.7505 -0.3156 -0.3119
 5136SOL    HW216308   6.929   0.728   5.405  1.0543  1.2014 -1.6319
 5137SOL     OW16309   5.367   5.775   2.223 -0.1993  0.3583 -0.1125
 5137SOL    HW116310   5.444   5.715   2.244 -0.7587 -0.4194 -0.2066
 5137SOL    HW216311   5.326   5.748   2.136  0.8924  2.3072 -1.2907
 5138SOL     OW16312   3.423   4.133   2.571  0.1886 -0.0516  0.0413
 5138SOL    HW116313   3.408   4.129   2.670 -2.5168  4.3476  0.0574
 5138SOL    HW216314   3.419   4.228   2.540 -0.0292 -1.3034 -4.4744
 5139SOL     OW16315   6.398   0.378   3.882 -0.0122  0.1265  0.1525
 5139SOL    HW116316   6.477   0.378   3.821 -0.7964 -2.6114 -1.0357
 5139SOL    HW216317   6.322   0.426   3.838  0.2943  0.7721  0.3125
 5140SOL     OW16318   2.301   3.659   5.801  0.2858 -0.3089  0.4796
 5140SOL    HW116319   2.227   3.716   5.764  2.0055  0.0290 -2.8334
 5140SOL    HW216320   2.326   3.692   5.892 -2.8542  0.2120  1.2734
 5141SOL     OW16321   0.410   2.894   1.280 -0.1191 -0.0367 -0.4375
 5141SOL    HW116322   0.502   2.921   1.249 -0.6208  0.7251 -1.3250
 5141SOL    HW216323   0.372   2.827   1.217  0.5693 -1.8492  1.0048
 5142SOL     OW16324   1.169   0.580   3.731  0.0634  0.5931  0.2370
 5142SOL    HW116325   1.152   0.517   3.656 -0.7553  0.3947  0.5752
 5142SOL    HW216326   1.265   0.574   3.759 -0.0639 -0.7118  0.4408
 5143SOL     OW16327   6.419   6.210   2.450 -0.5645  0.7262  0.0404
 5143SOL    HW116328   6.397   6.302   2.483 -2.4853  0.8647 -1.4433
 5143SOL    HW216329   6.362   6.143   2.497 -0.3769  0.4763 -0.0863
 5144SOL     OW16330   1.643   1.054   4.361  0.2306 -0.2663 -0.0523
 5144SOL    HW116331   1.698   1.056   4.277 -0.7814  2.1698 -0.7241
 5144SOL    HW216332   1.572   0.984   4.352 -1.3664  1.4913 -2.3364
 5145SOL     OW16333   1.325   3.171   4.167  0.5947  0.6517 -0.0258
 5145SOL    HW116334   1.305   3.213   4.079 -2.6733 -0.7883 -0.1141
 5145SOL    HW216335   1.274   3.218   4.239  0.7396 -0.1292  0.6100
 5146SOL     OW16336   4.671   6.216   5.131 -0.4164 -0.1295 -0.1946
 5146SOL    HW116337   4.626   6.205   5.042  1.2423 -0.6424 -0.9944
 5146SOL    HW216338   4.614   6.275   5.189 -0.6088  1.9299 -2.2964
 5147SOL     OW16339   4.709   0.862   1.246  0.0981 -0.2770  0.6775
 5147SOL    HW116340   4.696   0.957   1.219  0.1045 -0.4648  0.0095
 5147SOL    HW216341   4.629   0.830   1.296 -0.2785 -0.1851  0.1417
 5148SOL     OW16342   5.376   0.414   1.330  0.0286  0.1570 -0.0403
 5148SOL    HW116343   5.308   0.378   1.265 -0.2594  1.6431 -0.6152
 5148SOL    HW216344   5.467   0.412   1.287  0.1682 -0.7002  0.2740
 5149SOL     OW16345   4.210   5.399   3.250  0.1499 -0.2253  0.5591
 5149SOL    HW116346   4.208   5.465   3.175 -0.2963  0.3869  1.0955
 5149SOL    HW216347   4.136   5.333   3.239  1.1203 -1.1963 -0.4480
 5150SOL     OW16348   6.672   0.991   3.773 -0.0070  0.4722  0.0226
 5150SOL    HW116349   6.681   0.976   3.872  0.5398 -1.8014 -0.3111
 5150SOL    HW216350   6.726   0.923   3.724 -0.6658  1.2477 -1.8697
 5151SOL     OW16351   4.496   4.927   0.682  0.0918  0.0173  0.1939
 5151SOL    HW116352   4.437   4.997   0.642  0.3248  0.0820 -0.0417
 5151SOL    HW216353   4.548   4.966   0.758 -0.6840 -0.2228  0.8585
 5152SOL     OW16354   2.812   1.503   0.470  0.2485 -0.1852  0.3937
 5152SOL    HW116355   2.801   1.597   0.502 -0.3109 -0.6336  1.5737
 5152SOL    HW216356   2.754   1.488   0.390  0.0767  0.3703  0.4118
 5153SOL     OW16357   1.137   2.097   6.159 -0.0752 -0.2189  0.1884
 5153SOL    HW116358   1.088   2.093   6.246 -0.2256 -0.8616  0.0753
 5153SOL    HW216359   1.158   2.193   6.137 -1.5838  0.1031  0.0591
 5154SOL     OW16360   0.427   3.248   1.471  0.2307  0.0273  0.0848
 5154SOL    HW116361   0.388   3.307   1.400 -0.6082 -1.6360 -0.9155
 5154SOL    HW216362   0.362   3.237   1.545  0.6197  0.7863  0.5536
 5155SOL     OW16363   4.136   1.766   6.491 -0.5744  0.3533 -0.0603
 5155SOL    HW116364   4.199   1.736   6.563  0.0143 -1.3416 -1.2154
 5155SOL    HW216365   4.125   1.865   6.496  2.1482  0.7258  0.2319
 5156SOL     OW16366   4.327   3.555   6.366 -1.0097  0.0296  0.1841
 5156SOL    HW116367   4.360   3.539   6.459  1.2879  0.4005 -0.4877
 5156SOL    HW216368   4.292   3.469   6.328  1.1406 -0.9690  0.2995
 5157SOL     OW16369   3.822   0.596   6.999 -0.3183  0.0664 -0.1762
 5157SOL    HW116370   3.819   0.496   6.996 -2.8637  0.0249  1.1214
 5157SOL    HW216371   3.910   0.628   6.965  0.3975 -2.5868 -1.0326
 5158SOL     OW16372   2.298   1.611   2.546  0.0700  0.1095  0.3105
 5158SOL    HW116373   2.329   1.687   2.489 -1.0266 -0.1406 -0.6636
 5158SOL    HW216374   2.201   1.623   2.568 -0.0248 -0.8295  0.4477
 5159SOL     OW16375   6.657   1.647   6.367 -0.3937 -0.1126  0.4133
 5159SOL    HW116376   6.716   1.611   6.295 -0.7182 -0.6957  0.4262
 5159SOL    HW216377   6.613   1.731   6.335  1.4647  1.0921  0.9080
 5160SOL     OW16378   0.743   1.672   2.896  0.3209  0.0161 -0.4276
 5160SOL    HW116379   0.646   1.657   2.915  0.2379  0.4146 -0.5232
 5160SOL    HW216380   0.756   1.683   2.797  0.2358  1.5032 -0.2904
 5161SOL     OW16381   0.261   2.335   5.491 -0.0756  0.6369 -0.1430
 5161SOL    HW116382   0.298   2.401   5.426 -0.1383 -0.5749 -1.4443
 5161SOL    HW216383   0.233   2.383   5.574  1.1179  2.0574 -0.5153
 5162SOL     OW16384   0.799   5.665   3.481 -0.3736 -0.5671 -0.2485
 5162SOL    HW116385   0.892   5.633   3.467  0.1011  0.7885 -0.4079
 5162SOL    HW216386   0.768   5.641   3.573  0.4543 -0.2875  0.1082
 5163SOL     OW16387   2.297   0.782   3.539  0.0408 -0.0012  0.3176
 5163SOL    HW116388   2.336   0.695   3.512 -0.6279 -0.5608  1.0906
 5163SOL    HW216389   2.300   0.846   3.462 -2.4712 -1.7550 -1.4128
 5164SOL     OW16390   2.149   2.283   0.261 -0.6298 -0.4996  0.1538
 5164SOL    HW116391   2.126   2.190   0.290  0.4405 -0.7156  0.3286
 5164SOL    HW216392   2.126   2.348   0.334 -1.2751 -0.6338  0.0728
 5165SOL     OW16393   0.201   4.959   5.967  0.2119  0.4781  0.0633
 5165SOL    HW116394   0.294   4.924   5.977  0.0749 -0.0959 -0.6059
 5165SOL    HW216395   0.191   5.002   5.877 -0.5724 -0.7452 -0.4604
 5166SOL     OW16396   0.826   6.913   5.218 -0.1627  0.3480  0.5291
 5166SOL    HW116397   0.825   7.007   5.250 -0.8233  0.1798  1.0405
 5166SOL    HW216398   0.861   6.909   5.125  1.0020  0.9507  0.9193
 5167SOL     OW16399   0.131   3.134   4.975  0.4775  0.3207  0.1809
 5167SOL    HW116400   0.176   3.169   5.057  1.4837  0.2063 -0.3050
 5167SOL    HW216401   0.140   3.034   4.972  1.6540  0.4231 -0.7272
 5168SOL     OW16402   6.260   0.494   4.947 -0.6519 -0.1669 -0.5251
 5168SOL    HW116403   6.205   0.437   5.008  0.3855 -0.4789  0.1523
 5168SOL    HW216404   6.325   0.548   5.001  1.1838 -1.4121 -1.3898
 5169SOL     OW16405   5.514   6.379   4.065 -0.3204 -0.1883  0.3859
 5169SOL    HW116406   5.581   6.350   3.997  0.7850 -0.3982  1.5152
 5169SOL    HW216407   5.436   6.316   4.065  0.9911 -1.8880  1.2347
 5170SOL     OW16408   1.919   3.531   6.264  0.0328 -0.4070 -0.5204
 5170SOL    HW116409   1.893   3.438   6.289 -1.1910  0.2760  0.9644
 5170SOL    HW216410   2.001   3.529   6.208 -1.6844 -2.5668 -3.2300
 5171SOL     OW16411   1.111   6.981   0.844 -0.3514 -0.6785 -0.7830
 5171SOL    HW116412   1.015   6.996   0.823 -0.6640 -1.0222  0.3183
 5171SOL    HW216413   1.127   6.996   0.942  0.8412 -0.0284 -1.0447
 5172SOL     OW16414   4.735   4.441   0.323  0.0622 -0.5273  0.7421
 5172SOL    HW116415   4.676   4.516   0.291  0.7974 -0.0080  0.5821
 5172SOL    HW216416   4.678   4.362   0.346 -1.2044  1.2501  4.5359
 5173SOL     OW16417   3.776   6.060   4.473  0.3329 -0.2808 -0.1310
 5173SOL    HW116418   3.802   6.153   4.447  1.7399 -0.7908 -0.5807
 5173SOL    HW216419   3.853   6.014   4.515 -1.2594 -0.1698  3.2533
 5174SOL     OW16420   0.084   6.271   2.563  0.4723 -0.1799 -0.4872
 5174SOL    HW116421   0.120   6.253   2.472 -1.4692 -0.6664 -1.2043
 5174SOL    HW216422   0.117   6.199   2.626  0.9303 -0.4640 -1.0400
 5175SOL     OW16423   3.464   3.276   0.745 -0.2231 -0.1972  0.5169
 5175SOL    HW116424   3.398   3.245   0.813 -0.9594  0.9879  0.3788
 5175SOL    HW216425   3.448   3.373   0.725  0.8767 -0.1659 -0.3177
 5176SOL     OW16426   5.362   0.503   5.820  0.2460 -0.2175 -0.1227
 5176SOL    HW116427   5.303   0.513   5.740 -0.3657  1.3962  0.4821
 5176SOL    HW216428   5.431   0.433   5.802  0.4392  0.4518 -2.2499
 5177SOL     OW16429   5.943   6.646   0.480  0.4716  0.1224 -0.5038
 5177SOL    HW116430   5.891   6.689   0.406 -0.8651  1.1352  0.9597
 5177SOL    HW216431   5.885   6.638   0.561  2.0980 -0.3107  0.6719
 5178SOL     OW16432   0.615   5.935   0.989  0.3424  0.6414  0.1927
 5178SOL    HW116433   0.540   5.881   1.028  0.2401  0.7211  0.1095
 5178SOL    HW216434   0.702   5.899   1.021  0.3528 -0.5794 -1.1268
 5179SOL     OW16435   4.875   5.155   3.372 -0.1257 -0.5664 -0.0397
 5179SOL    HW116436   4.856   5.127   3.466  1.5193 -2.4604 -0.2095
 5179SOL    HW216437   4.965   5.122   3.345  0.4413  1.9335 -1.5464
 5180SOL     OW16438   2.061   5.649   1.458 -0.5068  0.4129 -0.3476
 5180SOL    HW116439   2.110   5.562   1.452  1.5128  1.5098 -0.4510
 5180SOL    HW216440   1.964   5.633   1.439 -0.4048 -1.9785  0.7251
 5181SOL     OW16441   0.828   1.843   0.015 -0.9121 -0.3302 -0.0832
 5181SOL    HW116442   0.739   1.883  -0.008 -0.4803  0.3190 -0.6840
 5181SOL    HW216443   0.815   1.768   0.079 -1.7775  0.5658  0.8306
 5182SOL     OW16444   0.645   5.349   2.406 -0.4897 -0.0294 -0.6468
 5182SOL    HW116445   0.616   5.440   2.378  1.9558  0.9095 -0.4112
 5182SOL    HW216446   0.630   5.337   2.504 -0.3665  0.3120 -0.5861
 5183SOL     OW16447   6.185   1.200   3.338 -0.4221 -0.0951  0.2851
 5183SOL    HW116448   6.106   1.152   3.300  0.2295 -2.1647  1.3402
 5183SOL    HW216449   6.245   1.134   3.383  1.0522  1.6455  1.0139
 5184SOL     OW16450   2.768   1.474   3.013 -0.1172  0.2187  0.2605
 5184SOL    HW116451   2.700   1.433   2.952  0.0603  2.7810 -1.8121
 5184SOL    HW216452   2.725   1.546   3.067  0.2418 -0.4999  1.5511
 5185SOL     OW16453   5.289   0.836   0.880  0.2252  0.7913  0.2472
 5185SOL    HW116454   5.360   0.859   0.813 -0.1931  1.0681 -0.1083
 5185SOL    HW216455   5.319   0.863   0.971  1.1257 -0.2800  0.2933
 5186SOL     OW16456   6.481   5.227   6.345 -0.3185 -0.1202  0.9785
 5186SOL    HW116457   6.551   5.156   6.342  0.7830  0.9349  0.5331
 5186SOL    HW216458   6.446   5.236   6.438 -0.8993 -1.6051  0.9289
 5187SOL     OW16459   1.781   3.943   2.718  0.2884 -0.2806 -0.3592
 5187SOL    HW116460   1.751   3.923   2.624  1.0608 -0.4532 -0.5805
 5187SOL    HW216461   1.874   3.907   2.731 -0.4979 -1.9752  1.0565
 5188SOL     OW16462   6.534   0.455   1.195  0.5758 -0.1127 -0.1715
 5188SOL    HW116463   6.518   0.530   1.130 -0.4239  0.4914  0.7414
 5188SOL    HW216464   6.631   0.454   1.221  0.6828  0.6015 -0.5145
 5189SOL     OW16465   4.571   5.831   4.844  0.2451 -0.1162 -0.2927
 5189SOL    HW116466   4.475   5.806   4.856  0.2694 -1.5466 -2.4867
 5189SOL    HW216467   4.578   5.912   4.786  0.3722  1.1059  1.3458
 5190SOL     OW16468   0.702   3.467   1.713 -0.2574  0.3305  0.2829
 5190SOL    HW116469   0.672   3.450   1.619  0.0228  0.3238  0.1933
 5190SOL    HW216470   0.802   3.470   1.715 -0.1903 -1.2493  0.8507
 5191SOL     OW16471   3.457   3.993   1.849  0.1041 -1.1276  0.3071
 5191SOL    HW116472   3.492   3.920   1.907  1.9150  0.7216  1.6951
 5191SOL    HW216473   3.375   4.032   1.890 -0.1527 -1.5518  0.2052
 5192SOL     OW16474   1.450   3.249   2.504 -0.1799 -0.4719 -0.0011
 5192SOL    HW116475   1.399   3.333   2.485  0.5788 -0.2137 -0.9310
 5192SOL    HW216476   1.503   3.261   2.588  1.1796  0.5727 -0.9811
 5193SOL     OW16477   2.500   1.241   3.796  0.1754 -1.0794  0.0437
 5193SOL    HW116478   2.516   1.306   3.722  2.2002 -1.1371  0.3575
 5193SOL    HW216479   2.527   1.282   3.883  0.8796 -2.0883  0.3268
 5194SOL     OW16480   4.718   1.414   6.113 -0.7411  0.1281 -0.0664
 5194SOL    HW116481   4.802   1.370   6.082 -1.0653 -0.6637  0.1512
 5194SOL    HW216482   4.737   1.469   6.195 -0.3844  0.1754 -0.1833
 5195SOL     OW16483   2.685   6.535   0.349  0.6344  0.0254 -0.2047
 5195SOL    HW116484   2.780   6.557   0.371  0.7851 -0.2855 -0.5416
 5195SOL    HW216485   2.657   6.585   0.267  0.5177  0.0958 -0.1215
 5196SOL     OW16486   0.121   5.521   2.931 -0.2254  0.2165  0.7063
 5196SOL    HW116487   0.030   5.496   2.967  0.9338 -1.5513  2.6619
 5196SOL    HW216488   0.130   5.489   2.837 -0.9738 -1.3436  1.1401
 5197SOL     OW16489   2.819   4.055   6.622  0.7140  0.3138 -0.4300
 5197SOL    HW116490   2.899   4.037   6.564 -0.0351  0.8435 -1.6773
 5197SOL    HW216491   2.736   4.044   6.568  0.0172  1.7381  0.2985
 5198SOL     OW16492   5.562   6.544   5.072  0.1660 -0.0508 -0.0306
 5198SOL    HW116493   5.485   6.532   5.134 -0.9955  0.4509 -1.3220
 5198SOL    HW216494   5.545   6.624   5.013  0.4356 -1.4382 -2.0742
 5199SOL     OW16495   1.720   6.741   0.303  0.6038 -0.0437  0.4161
 5199SOL    HW116496   1.786   6.744   0.228  1.4673  2.0821  1.1874
 5199SOL    HW216497   1.629   6.764   0.268  0.4606 -1.7128 -0.4137
 5200SOL     OW16498   0.254   4.518   5.362 -0.6517 -0.4939  0.3611
 5200SOL    HW116499   0.258   4.550   5.267  0.0931 -0.3185  0.4450
 5200SOL    HW216500   0.328   4.560   5.414 -0.0327 -1.8864  0.6335
 5201SOL     OW16501   1.469   5.912   5.045 -0.5669 -0.5782 -0.1933
 5201SOL    HW116502   1.468   5.937   4.948 -0.1518 -1.3472 -0.4002
 5201SOL    HW216503   1.384   5.943   5.088 -1.3062 -1.3366 -1.0792
 5202SOL     OW16504   6.399   5.713   0.452  0.4695  0.1585  0.4741
 5202SOL    HW116505   6.381   5.776   0.528  0.4437  2.3202 -1.2325
 5202SOL    HW216506   6.313   5.693   0.405  0.4188 -1.5145  1.2090
 5203SOL     OW16507   0.519   4.153   5.481 -0.2396 -0.3731 -0.3106
 5203SOL    HW116508   0.523   4.068   5.427 -1.0537  0.1413 -1.2046
 5203SOL    HW216509   0.532   4.131   5.577  1.0585 -1.3412 -0.6683
 5204SOL     OW16510   5.014   5.689   4.408  0.4768  0.3515 -0.0780
 5204SOL    HW116511   5.062   5.771   4.378  1.4798  0.3350  1.3752
 5204SOL    HW216512   5.021   5.681   4.508 -0.1591 -1.1537 -0.1274
 5205SOL     OW16513   1.969   4.865   6.881  0.2911  0.5087  0.2237
 5205SOL    HW116514   1.996   4.836   6.973  1.6923  1.1332  0.0411
 5205SOL    HW216515   2.051   4.878   6.825 -0.4685  1.4363 -0.7150
 5206SOL     OW16516   1.906   4.962   4.874  0.7390  0.1951 -0.3624
 5206SOL    HW116517   1.907   5.048   4.925 -0.3658  0.3233 -0.5278
 5206SOL    HW216518   1.897   4.885   4.937  1.3143  0.2281 -0.2403
 5207SOL     OW16519   2.752   5.334   3.223 -0.2655 -0.3080  0.1244
 5207SOL    HW116520   2.844   5.294   3.225  0.1357  0.6254  1.2310
 5207SOL    HW216521   2.720   5.340   3.129  2.1130  2.2025 -0.6529
 5208SOL     OW16522   5.378   1.963   1.051  0.2144 -0.6260 -0.1924
 5208SOL    HW116523   5.434   1.897   1.101  0.2139  0.0643  0.7343
 5208SOL    HW216524   5.289   1.972   1.096  0.3708  0.3245 -0.0533
 5209SOL     OW16525   5.041   3.785   3.552  0.0802 -0.1726  0.6992
 5209SOL    HW116526   4.997   3.868   3.519 -0.7974 -1.5036 -1.7341
 5209SOL    HW216527   5.120   3.763   3.494 -0.4444 -1.6908  0.5164
 5210SOL     OW16528   4.736   4.220   4.422 -0.9064 -0.3113  0.1613
 5210SOL    HW116529   4.828   4.231   4.459 -1.5731  2.3869  1.2429
 5210SOL    HW216530   4.737   4.231   4.323 -0.0814 -0.1634  0.1813
 5211SOL     OW16531   3.058   2.882   1.877 -0.6253 -0.0477  0.1230
 5211SOL    HW116532   2.981   2.915   1.821 -1.4279 -1.4217  0.3862
 5211SOL    HW216533   3.058   2.783   1.879  0.5541 -0.0514  1.0061
 5212SOL     OW16534   1.835   2.144   4.906 -0.1555  0.0005  0.1585
 5212SOL    HW116535   1.840   2.153   4.806 -0.7301  5.1046  0.3484
 5212SOL    HW216536   1.927   2.124   4.941  0.0769 -1.7797 -1.2984
 5213SOL     OW16537   5.841   3.920   0.149  0.1770 -0.5339  0.3673
 5213SOL    HW116538   5.810   3.974   0.227 -2.0285 -0.1631 -0.6871
 5213SOL    HW216539   5.827   3.823   0.167 -1.9092 -0.3698 -0.1354
 5214SOL     OW16540   4.894   3.733   1.541 -0.7508 -0.2618 -0.0485
 5214SOL    HW116541   4.970   3.688   1.588  1.5371  2.1687 -1.1579
 5214SOL    HW216542   4.837   3.782   1.608 -1.1846 -1.7916  0.7478
 5215SOL     OW16543   0.383   5.002   3.719  0.3222 -0.1310  0.2832
 5215SOL    HW116544   0.318   5.060   3.770  1.1012  1.4666 -0.4799
 5215SOL    HW216545   0.371   4.907   3.747 -0.5583  0.4594  2.0732
 5216SOL     OW16546   2.665   3.854   1.680  0.1715 -1.0139  0.3555
 5216SOL    HW116547   2.719   3.792   1.738 -1.0780 -2.2906  0.2242
 5216SOL    HW216548   2.726   3.921   1.637  1.3912 -1.3026  1.5687
 5217SOL     OW16549   2.712   6.453   3.951  0.3039 -0.0196 -0.1301
 5217SOL    HW116550   2.612   6.452   3.951  0.3028 -0.5980  0.1936
 5217SOL    HW216551   2.745   6.535   3.904 -0.3211  0.4045  0.1572
 5218SOL     OW16552   1.395   0.470   4.791 -0.1379 -0.4330 -0.1281
 5218SOL    HW116553   1.359   0.433   4.876  2.2949 -4.3485 -0.5655
 5218SOL    HW216554   1.345   0.431   4.714 -1.2487  1.8120 -0.6229
 5219SOL     OW16555   2.711   6.135   2.443  0.1544  0.5322 -0.2802
 5219SOL    HW116556   2.757   6.108   2.527  0.0959  2.0573  0.2788
 5219SOL    HW216557   2.747   6.224   2.413 -0.6846  0.5757 -1.1940
 5220SOL     OW16558   0.139   4.815   3.372  0.6055  0.2707  0.3599
 5220SOL    HW116559   0.070   4.837   3.304  2.0142 -0.3451 -1.3475
 5220SOL    HW216560   0.212   4.883   3.370  0.6420  0.2785  1.3117
 5221SOL     OW16561   3.918   6.684   1.396  0.4220  1.0025  0.1011
 5221SOL    HW116562   3.940   6.775   1.360 -0.7429  0.8686 -1.0129
 5221SOL    HW216563   3.874   6.693   1.485 -1.8392  1.7225 -1.0200
 5222SOL     OW16564   0.754   6.226   3.772 -0.2645  0.3589  0.2580
 5222SOL    HW116565   0.694   6.178   3.836 -3.1538  0.8528 -1.8655
 5222SOL    HW216566   0.748   6.182   3.682 -1.4555  3.3689 -1.2592
 5223SOL     OW16567   3.501   1.107   3.182 -0.0067  0.2044  0.6034
 5223SOL    HW116568   3.518   1.033   3.248  2.1024 -0.1918 -0.2907
 5223SOL    HW216569   3.476   1.067   3.094  0.1480  0.5889  0.3853
 5224SOL     OW16570   5.946   0.112   3.578  0.3633  0.0390 -0.6138
 5224SOL    HW116571   5.989   0.024   3.560  1.4386  0.5274 -0.4780
 5224SOL    HW216572   5.847   0.099   3.591  0.6153 -1.2460  0.1733
 5225SOL     OW16573   2.125   6.483   5.929 -0.0118  0.1235  0.3898
 5225SOL    HW116574   2.064   6.556   5.901 -0.6778 -0.5367  0.0797
 5225SOL    HW216575   2.083   6.430   6.003  0.0400 -0.5163 -0.0239
 5226SOL     OW16576   3.263   1.199   3.292 -0.1861 -0.2543  0.1567
 5226SOL    HW116577   3.357   1.195   3.256 -0.9488  0.6142 -2.0628
 5226SOL    HW216578   3.233   1.294   3.297 -1.8058 -0.6187 -1.6399
 5227SOL     OW16579   5.394   3.163   2.778  0.4468  0.5411  0.5844
 5227SOL    HW116580   5.332   3.241   2.774 -3.0837 -2.0288  0.6575
 5227SOL    HW216581   5.417   3.132   2.686  0.3045  0.5547  0.5450
 5228SOL     OW16582   5.594   0.496   6.849  0.0191 -0.5563 -0.7076
 5228SOL    HW116583   5.602   0.482   6.948 -0.8161  0.8289 -0.4232
 5228SOL    HW216584   5.532   0.427   6.811  0.9672 -1.5991 -0.4229
 5229SOL     OW16585   2.114   3.696   2.467 -0.4407  0.1684  0.0670
 5229SOL    HW116586   2.020   3.674   2.438 -0.9335  0.5420  1.2988
 5229SOL    HW216587   2.158   3.751   2.396 -2.2233  2.5992  0.7109
 5230SOL     OW16588   1.417   2.660   6.080 -0.4439 -0.3278 -0.2120
 5230SOL    HW116589   1.420   2.562   6.060  2.0352 -0.1721 -0.8823
 5230SOL    HW216590   1.424   2.712   5.995 -0.1094  0.4262  0.2656
 5231SOL     OW16591   2.988   3.923   3.586  0.2987 -0.1252 -0.2839
 5231SOL    HW116592   3.024   4.011   3.556  0.9091 -0.0861  0.5331
 5231SOL    HW216593   2.969   3.866   3.506  0.2477  0.6023 -0.8027
 5232SOL     OW16594   4.616   5.515   5.584 -0.5559  0.2116 -0.1552
 5232SOL    HW116595   4.631   5.521   5.683 -2.7499 -1.0234  0.3256
 5232SOL    HW216596   4.674   5.443   5.546  1.8100  2.0402 -0.1950
 5233SOL     OW16597   0.574   6.602   1.986  0.2347  0.6163 -0.3296
 5233SOL    HW116598   0.488   6.551   1.984  0.5368  0.0643  0.4704
 5233SOL    HW216599   0.632   6.574   1.909  0.1440  0.2047 -0.2472
 5234SOL     OW16600   3.360   4.178   1.138  0.0132  0.2278 -0.0354
 5234SOL    HW116601   3.434   4.205   1.199  1.4644  1.5431 -2.2547
 5234SOL    HW216602   3.272   4.192   1.185  0.9939  2.2196  1.3904
 5235SOL     OW16603   2.178   1.538   1.758  0.1193  0.1077 -0.7938
 5235SOL    HW116604   2.139   1.515   1.668 -0.2437  0.8634 -0.8335
 5235SOL    HW216605   2.113   1.512   1.829  0.0366  0.3063 -0.7967
 5236SOL     OW16606   5.083   3.894   1.137 -0.1007 -0.1850 -0.6152
 5236SOL    HW116607   5.043   3.847   1.059  0.8904 -1.6064 -0.3240
 5236SOL    HW216608   5.138   3.829   1.190 -1.1718  0.6061  1.5732
 5237SOL     OW16609   1.531   1.273   4.094  0.2314 -0.4505 -0.4726
 5237SOL    HW116610   1.584   1.194   4.067  3.1213  1.0490  0.4083
 5237SOL    HW216611   1.542   1.289   4.192  0.0412  1.2385 -0.6929
 5238SOL     OW16612   1.990   2.631   1.520 -0.5273 -0.1723  0.1484
 5238SOL    HW116613   2.033   2.585   1.597 -1.0420  1.7981  1.7190
 5238SOL    HW216614   2.060   2.670   1.460 -0.1161 -0.3821  0.4909
 5239SOL     OW16615   2.984   2.949   5.295 -0.3147  0.1016 -0.0353
 5239SOL    HW116616   2.898   2.899   5.298 -1.4670  2.0064 -0.0843
 5239SOL    HW216617   2.974   3.031   5.240  1.9145 -0.2545 -1.1137
 5240SOL     OW16618   2.486   2.449   4.953  0.0417  0.1139  0.0841
 5240SOL    HW116619   2.456   2.366   4.906  1.3474  0.3074 -1.1675
 5240SOL    HW216620   2.574   2.433   4.996  1.0489  1.2473 -1.4613
 5241SOL     OW16621   3.375   5.258   6.512 -0.4106  0.4040  0.4304
 5241SOL    HW116622   3.382   5.216   6.602 -0.0535 -1.2779 -0.3211
 5241SOL    HW216623   3.462   5.302   6.489 -0.0509 -0.3001  0.4027
 5242SOL     OW16624   3.985   1.327   5.209  0.5069 -0.3703 -0.0233
 5242SOL    HW116625   4.028   1.409   5.245 -0.3974  0.2617 -0.3323
 5242SOL    HW216626   4.038   1.293   5.132  1.4411 -0.6729  0.7299
 5243SOL     OW16627   6.884   4.437   1.113  0.6588 -0.4836 -0.7443
 5243SOL    HW116628   6.903   4.535   1.106  1.7071 -0.6170  0.0054
 5243SOL    HW216629   6.967   4.388   1.138  0.2824 -1.6523 -1.6814
 5244SOL     OW16630   7.001   1.397   5.506 -0.1190  0.5008 -0.0371
 5244SOL    HW116631   6.992   1.359   5.598  0.6345  0.6388  0.1049
 5244SOL    HW216632   7.088   1.446   5.499 -1.6228  3.3927  0.2225
 5245SOL     OW16633   4.830   3.198   0.112 -0.9253 -0.3293 -0.3350
 5245SOL    HW116634   4.904   3.233   0.169  0.1144 -1.1247 -1.1702
 5245SOL    HW216635   4.743   3.207   0.161 -0.1512 -0.3468  1.0800
 5246SOL     OW16636   0.966   4.018   4.407 -0.8866 -0.4338  0.7127
 5246SOL    HW116637   0.926   4.066   4.485 -0.9244  0.9597 -0.1436
 5246SOL    HW216638   0.899   4.013   4.333 -0.0024  0.5672 -0.1717
 5247SOL     OW16639   0.718   4.732   6.016 -0.0565  0.4192  0.6319
 5247SOL    HW116640   0.747   4.670   6.089  0.1650  0.0174  0.2060
 5247SOL    HW216641   0.786   4.804   6.004  0.2444  0.0903  0.3579
 5248SOL     OW16642   5.152   2.155   5.783  0.0944 -0.2343 -0.4251
 5248SOL    HW116643   5.205   2.088   5.836 -2.8394 -1.5108  1.1265
 5248SOL    HW216644   5.148   2.126   5.687  1.3303 -0.6230 -0.3801
 5249SOL     OW16645   0.812   4.540   6.191  0.2205 -0.3429  0.5790
 5249SOL    HW116646   0.886   4.504   6.134 -0.0938 -0.7527  0.4248
 5249SOL    HW216647   0.817   4.500   6.282 -1.3436 -2.4133 -0.1779
 5250SOL     OW16648   6.800   1.693   5.920 -0.1440 -0.6814  0.0966
 5250SOL    HW116649   6.784   1.627   5.848  0.2640 -0.6630 -0.0124
 5250SOL    HW216650   6.893   1.729   5.913 -0.3528 -0.1178  0.1698
 5251SOL     OW16651   1.843   1.512   0.319 -0.4508 -0.0235  0.2235
 5251SOL    HW116652   1.932   1.475   0.294 -0.0464 -0.7368  2.4641
 5251SOL    HW216653   1.796   1.447   0.379 -1.5532  1.2825  0.8327
 5252SOL     OW16654   6.191   5.671   0.259  0.3357  0.0493 -0.0588
 5252SOL    HW116655   6.109   5.615   0.241  0.9350 -1.3210  1.2172
 5252SOL    HW216656   6.167   5.767   0.252 -1.5331 -0.3035  0.7549
 5253SOL     OW16657   6.575   2.733   5.280  0.5892  0.1015 -0.4852
 5253SOL    HW116658   6.558   2.727   5.379  0.6923  0.8931 -0.4161
 5253SOL    HW216659   6.652   2.673   5.256  1.4299  0.9025  0.1362
 5254SOL     OW16660   6.210   6.409   3.591 -0.4140 -0.0694 -0.1004
 5254SOL    HW116661   6.280   6.349   3.630 -1.1848 -0.3644  0.8485
 5254SOL    HW216662   6.120   6.381   3.622 -1.0415 -0.0557 -1.7871
 5255SOL     OW16663   3.477   5.952   5.543 -0.0895  0.0449  0.7397
 5255SOL    HW116664   3.426   5.956   5.457  1.7238  1.4779 -0.3551
 5255SOL    HW216665   3.487   5.857   5.572  1.7717 -0.8537 -2.2928
 5256SOL     OW16666   6.287   5.667   2.481 -0.2764 -0.2238  0.8134
 5256SOL    HW116667   6.216   5.724   2.523  0.2924  0.1117  1.3189
 5256SOL    HW216668   6.258   5.571   2.484 -1.2691  0.0189 -0.1024
 5257SOL     OW16669   3.850   1.468   3.161 -0.2893  0.2209 -0.1928
 5257SOL    HW116670   3.804   1.380   3.162 -1.0476  0.6100  0.5248
 5257SOL    HW216671   3.897   1.482   3.248  1.2897 -0.2079 -0.9472
 5258SOL     OW16672   6.031   1.529   0.993 -0.8533 -0.2123  0.2517
 5258SOL    HW116673   5.941   1.540   0.951 -0.7286 -0.7380 -0.1495
 5258SOL    HW216674   6.035   1.587   1.075 -1.6230 -0.3306  0.3881
 5259SOL     OW16675   0.042   4.380   2.076  0.1559  0.1135  0.0683
 5259SOL    HW116676  -0.034   4.429   2.034 -0.7580 -0.2902  1.2229
 5259SOL    HW216677   0.040   4.284   2.048  0.8259  0.2980 -0.6625
 5260SOL     OW16678   0.010   2.981   1.587  0.1178 -0.0455  0.1427
 5260SOL    HW116679   0.101   2.940   1.593 -0.1480 -0.6391  0.2083
 5260SOL    HW216680   0.017   3.075   1.552  0.8818  0.4259  1.5204
 5261SOL     OW16681   1.317   4.606   5.335  0.1894 -0.1017  0.0848
 5261SOL    HW116682   1.382   4.641   5.267  0.7790 -0.7474  0.3153
 5261SOL    HW216683   1.234   4.663   5.333 -0.4880 -1.0268 -2.3089
 5262SOL     OW16684   2.045   0.020   1.192 -0.0494  0.5201  0.2059
 5262SOL    HW116685   2.058   0.108   1.147 -1.4925  0.0254 -1.2854
 5262SOL    HW216686   1.949  -0.008   1.184  0.7478 -2.1748 -1.3029
 5263SOL     OW16687   3.516   6.570   0.407 -0.2292  0.3342 -0.1782
 5263SOL    HW116688   3.501   6.492   0.346 -1.2340  0.0724  0.3815
 5263SOL    HW216689   3.428   6.610   0.432  0.2419  1.2558  0.0659
 5264SOL     OW16690   2.389   0.474   2.430  0.1784  0.6853 -0.2882
 5264SOL    HW116691   2.460   0.424   2.380  0.4157  1.5750 -0.8752
 5264SOL    HW216692   2.397   0.455   2.527  0.0658 -0.6422 -0.5186
 5265SOL     OW16693   5.643   5.240   3.992 -0.2284 -0.6989  0.3625
 5265SOL    HW116694   5.641   5.146   3.957  3.4954 -0.9568  0.4574
 5265SOL    HW216695   5.722   5.288   3.955 -0.9863  1.8173  1.7786
 5266SOL     OW16696   3.127   5.381   0.321  0.0188  0.4272  0.6407
 5266SOL    HW116697   3.162   5.464   0.364 -0.9360  1.0279  0.2905
 5266SOL    HW216698   3.200   5.312   0.316  0.0004  0.0245  3.8898
 5267SOL     OW16699   3.620   4.156   4.187 -0.2325  0.4183 -0.4253
 5267SOL    HW116700   3.669   4.099   4.120  0.3699  3.0959 -2.4359
 5267SOL    HW216701   3.540   4.197   4.144 -1.1650  0.4051  1.2244
 5268SOL     OW16702   6.170   5.440   5.253  0.1927 -0.3496 -0.7879
 5268SOL    HW116703   6.113   5.506   5.204  0.2809 -1.0221 -1.8156
 5268SOL    HW216704   6.261   5.436   5.211  0.1444 -1.2265 -0.8153
 5269SOL     OW16705   5.869   6.248   6.081 -0.7015 -0.1481  0.2530
 5269SOL    HW116706   5.938   6.179   6.058  0.5865  0.7202  1.3481
 5269SOL    HW216707   5.802   6.254   6.007  1.0452 -0.2233 -1.4077
 5270SOL     OW16708   6.251   2.379   3.753 -0.0868  0.0672  0.5163
 5270SOL    HW116709   6.217   2.392   3.846  0.1932 -1.6213  0.8979
 5270SOL    HW216710   6.182   2.329   3.699 -0.1515  0.8318 -0.1287
 5271SOL     OW16711   4.509   4.166   5.381 -0.1006  0.1136 -0.2621
 5271SOL    HW116712   4.434   4.226   5.354  1.0799  2.1569  0.7282
 5271SOL    HW216713   4.593   4.195   5.335 -0.0206 -2.8061 -2.2175
 5272SOL     OW16714   4.140   2.156   3.724  0.0530 -0.4171 -0.4270
 5272SOL    HW116715   4.146   2.199   3.814  1.0625 -2.9317  0.7981
 5272SOL    HW216716   4.207   2.198   3.662  1.8900 -0.9647  1.0897
 5273SOL     OW16717   6.088   6.600   0.017 -0.4814  0.3513  0.2024
 5273SOL    HW116718   6.157   6.562   0.078 -3.9025 -1.3657  3.4498
 5273SOL    HW216719   6.080   6.542  -0.065  0.7391 -0.4092  0.6017
 5274SOL     OW16720   0.786   4.431   3.651 -0.4224  0.1361  0.1758
 5274SOL    HW116721   0.842   4.492   3.707  0.1943 -0.5999  0.3850
 5274SOL    HW216722   0.802   4.449   3.554  0.3904 -0.2414  0.2334
 5275SOL     OW16723   2.409   6.776   6.580  0.3789 -0.0470 -0.5656
 5275SOL    HW116724   2.490   6.746   6.530  1.4326 -0.5813  1.3550
 5275SOL    HW216725   2.390   6.871   6.558  1.7508  0.1971 -0.7872
 5276SOL     OW16726   2.619   6.771   0.160 -0.2909 -0.2205 -0.7675
 5276SOL    HW116727   2.549   6.749   0.092 -0.7609 -0.3466 -0.2510
 5276SOL    HW216728   2.592   6.855   0.209 -0.3544 -0.5646 -0.2013
 5277SOL     OW16729   0.981   1.780   0.337  0.6428 -0.3218 -0.4618
 5277SOL    HW116730   0.967   1.747   0.431 -0.0159  2.0563  0.3471
 5277SOL    HW216731   0.943   1.714   0.273  2.0253 -2.5245  0.8239
 5278SOL     OW16732   1.356   6.532   1.238  0.9437  0.4179 -0.1994
 5278SOL    HW116733   1.403   6.576   1.315  0.2498  1.5171 -0.3841
 5278SOL    HW216734   1.313   6.601   1.181 -1.7358 -0.5719  0.4974
 5279SOL     OW16735   1.964   6.306   6.070 -0.3740  0.6730  0.0573
 5279SOL    HW116736   1.962   6.263   6.160 -1.1585  1.0644  0.2365
 5279SOL    HW216737   1.882   6.280   6.019 -1.7844  3.2362  0.8113
 5280SOL     OW16738   4.875   5.216   4.748 -0.3762  0.8837 -0.0700
 5280SOL    HW116739   4.875   5.164   4.834  3.0387  2.2415  0.9326
 5280SOL    HW216740   4.783   5.249   4.729 -1.1596  1.1448  3.4999
 5281SOL     OW16741   3.783   1.130   4.157 -0.0371  0.4671  0.4524
 5281SOL    HW116742   3.713   1.141   4.227 -0.6995  1.1333 -0.2984
 5281SOL    HW216743   3.830   1.217   4.143 -0.4007  0.5330 -0.4324
 5282SOL     OW16744   6.521   6.208   6.871  0.0471 -0.2304 -0.4368
 5282SOL    HW116745   6.603   6.153   6.885  1.5316  2.1260  0.6595
 5282SOL    HW216746   6.452   6.182   6.939  0.0677 -1.8238 -0.9862
 5283SOL     OW16747   1.620   1.458   4.806  0.1016  0.5515 -0.1830
 5283SOL    HW116748   1.702   1.463   4.749  0.4420 -1.6668 -0.0149
 5283SOL    HW216749   1.633   1.385   4.874 -1.8574  0.4258  0.0951
 5284SOL     OW16750   5.135   2.804   2.852 -0.0303  0.2506  0.0356
 5284SOL    HW116751   5.117   2.709   2.879  1.6701 -0.2721 -0.5593
 5284SOL    HW216752   5.175   2.806   2.761 -1.1773  1.6592 -0.4771
 5285SOL     OW16753   3.742   6.985   3.611  0.4880 -0.3511 -1.0272
 5285SOL    HW116754   3.654   6.969   3.567 -0.0178 -3.0633  0.7517
 5285SOL    HW216755   3.732   7.059   3.678 -1.0983 -1.8810  0.5680
 5286SOL     OW16756   5.533   2.987   0.838  0.2954 -0.5026 -0.5948
 5286SOL    HW116757   5.521   3.046   0.758  0.1764 -1.0926 -1.0205
 5286SOL    HW216758   5.610   2.924   0.821 -0.3985 -1.3414 -0.6835
 5287SOL     OW16759   1.124   5.183   2.131 -0.6751  0.6007 -0.1181
 5287SOL    HW116760   1.206   5.226   2.170 -1.9279  2.4514  0.6324
 5287SOL    HW216761   1.049   5.189   2.197 -1.7478  0.0023 -1.2379
 5288SOL     OW16762   4.171   0.788   0.830  0.9594  0.0465 -0.1565
 5288SOL    HW116763   4.088   0.842   0.819  0.9580  0.1701  0.4331
 5288SOL    HW216764   4.185   0.767   0.927  2.1697  0.9246 -0.1003
 5289SOL     OW16765   2.218   5.355   6.744 -0.7614  0.6016 -0.6507
 5289SOL    HW116766   2.168   5.403   6.816 -0.5852  1.0953 -0.8513
 5289SOL    HW216767   2.310   5.395   6.735  0.4566 -1.5462  1.0719
 5290SOL     OW16768   2.658   1.380   4.011 -0.1974  0.5052  0.3324
 5290SOL    HW116769   2.613   1.358   4.097  1.2017  1.6111  1.4063
 5290SOL    HW216770   2.710   1.465   4.022  1.1601 -0.0863 -1.1880
 5291SOL     OW16771   0.808   1.089   3.359 -0.0904  0.4801  0.1398
 5291SOL    HW116772   0.822   1.182   3.326 -0.1917  0.4317 -0.0422
 5291SOL    HW216773   0.877   1.028   3.318 -1.8654 -0.1044 -2.2167
 5292SOL     OW16774   6.035   4.897   6.457 -0.0260 -0.7403 -0.0203
 5292SOL    HW116775   6.001   4.939   6.541  0.4832  0.7853 -0.5477
 5292SOL    HW216776   5.973   4.920   6.381 -1.1659 -3.1120  0.0997
 5293SOL     OW16777   1.749   6.175   2.959 -0.4277 -0.7397  0.2299
 5293SOL    HW116778   1.748   6.087   3.007  2.5306  0.1030  2.1311
 5293SOL    HW216779   1.809   6.168   2.880  0.1249 -0.3587  0.6094
 5294SOL     OW16780   5.582   6.936   2.185 -0.5714  0.0002 -0.2937
 5294SOL    HW116781   5.624   6.993   2.114  0.5612 -0.0644  0.3002
 5294SOL    HW216782   5.559   6.993   2.264 -0.5541 -0.1589 -0.1728
 5295SOL     OW16783   3.461   0.923   2.577  0.1792  0.8321  0.0684
 5295SOL    HW116784   3.393   0.883   2.638 -0.0914  1.3333  0.0979
 5295SOL    HW216785   3.547   0.871   2.584 -0.1449  0.3016  0.1510
 5296SOL     OW16786   3.758   5.758   0.608 -0.3548 -0.0988 -0.3510
 5296SOL    HW116787   3.728   5.829   0.545  0.3566 -0.4749 -1.1332
 5296SOL    HW216788   3.687   5.687   0.613 -0.5204  0.0503 -0.5556
 5297SOL     OW16789   1.901   5.850   0.371  0.3412  0.0457  0.0488
 5297SOL    HW116790   1.825   5.822   0.430 -0.1581  1.2691  0.0136
 5297SOL    HW216791   1.982   5.869   0.427  0.4193 -0.5581  0.1529
 5298SOL     OW16792   6.209   3.220   6.798 -0.0007 -0.2239 -0.1850
 5298SOL    HW116793   6.117   3.242   6.765  0.1248  1.4854  0.4740
 5298SOL    HW216794   6.203   3.179   6.889 -0.0966  1.0515  0.4095
 5299SOL     OW16795   3.729   6.159   1.973 -0.2212 -0.0891  0.4283
 5299SOL    HW116796   3.687   6.222   1.908  2.4269  3.4594  1.8291
 5299SOL    HW216797   3.691   6.175   2.064  0.7185 -0.2954  0.8687
 5300SOL     OW16798   2.424   5.227   5.468  0.0594 -0.4772 -0.0074
 5300SOL    HW116799   2.423   5.278   5.555  1.4260 -0.9027  0.2821
 5300SOL    HW216800   2.339   5.176   5.458 -0.1910 -0.2729  0.9883
 5301SOL     OW16801   5.740   6.211   6.547 -0.6542  0.2459  0.5406
 5301SOL    HW116802   5.758   6.282   6.479 -1.1385  1.7461  1.8973
 5301SOL    HW216803   5.824   6.161   6.565 -0.5165 -0.1721 -1.1205
 5302SOL     OW16804   6.403   6.475   2.537 -0.1785 -0.2186 -0.4234
 5302SOL    HW116805   6.441   6.510   2.623  0.6032 -1.1931 -0.3527
 5302SOL    HW216806   6.329   6.535   2.507  0.0758  0.5957  0.5005
 5303SOL     OW16807   1.841   5.932   5.204 -0.2469 -0.1625 -0.3996
 5303SOL    HW116808   1.929   5.933   5.251 -0.2825  0.5221 -0.3286
 5303SOL    HW216809   1.856   5.941   5.106 -0.2277 -0.2869 -0.4082
 5304SOL     OW16810   0.375   0.448   2.838  0.5965  0.4006  0.3276
 5304SOL    HW116811   0.376   0.411   2.745  0.1774  0.7324  0.1915
 5304SOL    HW216812   0.429   0.388   2.897 -3.0008 -2.6426  0.9455
 5305SOL     OW16813   0.443   5.785   3.860 -0.4498 -0.5531  0.0849
 5305SOL    HW116814   0.455   5.719   3.935  0.7005 -1.4934 -0.8715
 5305SOL    HW216815   0.474   5.875   3.889 -1.5361 -0.5203  1.2428
 5306SOL     OW16816   1.351   2.122   6.531  0.0611  0.1375 -0.1892
 5306SOL    HW116817   1.297   2.202   6.505 -1.9987 -0.9264  0.5780
 5306SOL    HW216818   1.341   2.050   6.462  0.0136 -0.2814  0.2441
 5307SOL     OW16819   0.971   0.102   6.809  0.3614  0.0473  0.1148
 5307SOL    HW116820   1.066   0.077   6.790  0.7085  0.1164  1.6321
 5307SOL    HW216821   0.923   0.023   6.848  0.7704  0.9198  2.5566
 5308SOL     OW16822   1.495   5.212   1.457  0.0850  0.4754 -0.3181
 5308SOL    HW116823   1.467   5.308   1.465 -0.2014  0.5009 -1.5127
 5308SOL    HW216824   1.430   5.155   1.507 -0.3288  0.8170 -0.4520
 5309SOL     OW16825   4.173   5.811   2.823  0.4180 -0.2232 -0.0455
 5309SOL    HW116826   4.223   5.796   2.909 -0.5203  2.4084  1.0583
 5309SOL    HW216827   4.238   5.813   2.747  1.7929  1.1773  1.1006
 5310SOL     OW16828   5.589   2.105   2.325  0.0532  0.0827 -0.3418
 5310SOL    HW116829   5.666   2.061   2.280 -0.0997  0.2347 -0.7559
 5310SOL    HW216830   5.579   2.198   2.292  0.7565  0.6548  0.9899
 5311SOL     OW16831   6.297   6.806   6.844 -0.4938  0.2937 -0.3854
 5311SOL    HW116832   6.374   6.827   6.783 -0.1550  3.1250  0.8714
 5311SOL    HW216833   6.212   6.831   6.799 -0.5750 -1.1405 -1.0786
 5312SOL     OW16834   5.668   1.135   1.566  0.4011 -0.6004 -0.4081
 5312SOL    HW116835   5.735   1.070   1.531  2.2054  1.3942 -0.8123
 5312SOL    HW216836   5.613   1.091   1.638  1.8743 -2.4032 -0.3229
 5313SOL     OW16837   1.860   0.901   4.468 -0.0330  0.0395 -0.2427
 5313SOL    HW116838   1.907   0.961   4.533 -0.1483  0.3358 -0.4328
 5313SOL    HW216839   1.764   0.928   4.460 -0.1506 -0.3412 -0.1246
 5314SOL     OW16840   5.777   1.387   3.367  0.1177 -0.3280 -0.4849
 5314SOL    HW116841   5.712   1.436   3.310  0.8376 -0.2995 -1.3097
 5314SOL    HW216842   5.776   1.426   3.459 -0.4361  0.2090 -0.7063
 5315SOL     OW16843   4.878   2.000   3.046  0.1404 -0.6081 -0.1327
 5315SOL    HW116844   4.948   1.929   3.051  2.3391  1.2667 -1.9758
 5315SOL    HW216845   4.851   2.026   3.139  1.0561 -2.1496  0.6124
 5316SOL     OW16846   0.356   3.282   6.813  0.0080  0.6986 -0.0140
 5316SOL    HW116847   0.340   3.189   6.844  1.4021 -0.1407 -1.6680
 5316SOL    HW216848   0.454   3.297   6.803 -0.2644  1.8710 -1.1585
 5317SOL     OW16849   5.303   4.603   0.294  0.5352  0.7029 -1.0300
 5317SOL    HW116850   5.398   4.608   0.263  0.6510 -1.6004 -1.2498
 5317SOL    HW216851   5.293   4.526   0.358 -1.0459  1.3387 -0.4673
 5318SOL     OW16852   1.559   1.680   5.862  0.1329 -0.0379 -0.3720
 5318SOL    HW116853   1.559   1.635   5.773 -0.4490  1.2424 -1.0433
 5318SOL    HW216854   1.653   1.691   5.894  0.2732 -2.0332 -0.0016
 5319SOL     OW16855   4.733   6.619   1.264 -0.1055  0.3068  0.2596
 5319SOL    HW116856   4.768   6.595   1.354  0.2760 -0.6570 -0.1280
 5319SOL    HW216857   4.680   6.543   1.227  0.8904  0.1281 -0.8908
 5320SOL     OW16858   4.877   6.724   0.686  0.3884 -0.2920 -0.1010
 5320SOL    HW116859   4.832   6.772   0.611  1.7202  0.0742 -0.7041
 5320SOL    HW216860   4.922   6.642   0.650  1.8179  0.3724  0.0907
 5321SOL     OW16861   2.209   3.838   6.258 -0.1592 -0.2338  0.5541
 5321SOL    HW116862   2.233   3.924   6.303 -2.1943  0.4594  0.4361
 5321SOL    HW216863   2.109   3.828   6.257 -0.0598 -1.5445 -1.3825
 5322SOL     OW16864   4.032   6.187   1.762  0.7144 -0.0390  0.2769
 5322SOL    HW116865   3.989   6.246   1.830 -0.1771  0.5095 -0.7346
 5322SOL    HW216866   4.130   6.181   1.781  0.4425 -0.1552  1.7792
 5323SOL     OW16867   3.004   0.195   6.032 -0.5228 -0.2724  0.3459
 5323SOL    HW116868   2.983   0.113   6.084 -0.7560 -1.0385 -0.9145
 5323SOL    HW216869   3.056   0.259   6.089  0.4957 -1.6860  1.0530
 5324SOL     OW16870   0.307   0.764   0.946 -0.8372  0.0446 -0.2475
 5324SOL    HW116871   0.249   0.823   1.002 -0.8573  0.9867 -1.2053
 5324SOL    HW216872   0.389   0.739   0.997 -2.1368 -1.4769  1.1950
 5325SOL     OW16873   2.254   2.995   3.188 -0.1745 -0.4642  0.5115
 5325SOL    HW116874   2.271   2.898   3.200 -3.1548 -1.0587  0.8304
 5325SOL    HW216875   2.248   3.017   3.091  3.9562  0.2452  0.2289
 5326SOL     OW16876   6.318   0.065   3.354 -0.2311 -0.3437  0.5461
 5326SOL    HW116877   6.273   0.082   3.266 -2.9534 -1.0050  1.7201
 5326SOL    HW216878   6.302  -0.030   3.381  1.2356 -0.3615  1.4385
 5327SOL     OW16879   2.164   3.519   6.798  0.0359 -0.0732  0.7516
 5327SOL    HW116880   2.068   3.503   6.778  0.7989 -1.5271 -2.2417
 5327SOL    HW216881   2.217   3.437   6.778  2.1369  1.2374  0.5853
 5328SOL     OW16882   3.985   5.717   7.010 -0.3065 -0.0199 -0.4695
 5328SOL    HW116883   3.947   5.762   6.929 -1.0555  0.2888  0.0400
 5328SOL    HW216884   4.079   5.691   6.992 -0.4328  0.1281 -1.4101
 5329SOL     OW16885   1.124   6.815   6.033 -0.6551 -0.1517 -0.2548
 5329SOL    HW116886   1.197   6.751   6.010  0.9846  1.6513 -0.3115
 5329SOL    HW216887   1.134   6.898   5.979 -1.6609  0.8740  1.0479
 5330SOL     OW16888   2.671   3.749   0.677  0.0476  0.0174 -0.3864
 5330SOL    HW116889   2.576   3.718   0.667  0.0883 -0.1185 -0.3477
 5330SOL    HW216890   2.733   3.672   0.662  0.1301 -0.0598  0.3270
 5331SOL     OW16891   6.936   1.284   5.743  0.0557 -0.1814 -0.4839
 5331SOL    HW116892   6.967   1.193   5.718  0.9465 -0.1522  0.4622
 5331SOL    HW216893   6.892   1.280   5.833  0.3977  0.3721 -0.2883
 5332SOL     OW16894   6.740   4.949   2.149 -0.5737 -0.7643 -0.0425
 5332SOL    HW116895   6.657   4.993   2.114  0.6819  1.5702 -0.2858
 5332SOL    HW216896   6.734   4.941   2.248  0.8549  4.3030  0.7316
 5333SOL     OW16897   2.333   5.952   4.286  0.1061  0.4676 -0.3129
 5333SOL    HW116898   2.355   5.922   4.194 -0.4074  0.9947 -0.6143
 5333SOL    HW216899   2.398   6.022   4.316  0.1988  0.3854 -0.3245
 5334SOL     OW16900   2.686   6.913   0.605 -0.2973 -0.2069  0.8966
 5334SOL    HW116901   2.624   6.961   0.667 -0.5976 -2.3626  2.3683
 5334SOL    HW216902   2.643   6.828   0.575  0.8083 -0.3298 -0.4333
 5335SOL     OW16903   5.451   1.589   0.371 -0.1494  0.5368  0.7670
 5335SOL    HW116904   5.433   1.544   0.458  0.0899  0.3363  0.7153
 5335SOL    HW216905   5.549   1.609   0.363 -0.0064 -0.2950  0.1526
 5336SOL     OW16906   0.570   2.513   1.452 -0.2717 -0.0536 -0.1296
 5336SOL    HW116907   0.566   2.461   1.538 -2.4329 -1.2180 -0.8742
 5336SOL    HW216908   0.623   2.461   1.384 -2.0180 -1.1256 -0.7216
 5337SOL     OW16909   6.196   3.477   0.907  0.9645  0.1764 -0.1151
 5337SOL    HW116910   6.119   3.538   0.919 -1.1041 -1.9244 -1.6834
 5337SOL    HW216911   6.211   3.424   0.990  0.0833 -0.0281 -0.0790
 5338SOL     OW16912   4.569   3.207   6.432  0.3970 -0.2387  0.1858
 5338SOL    HW116913   4.613   3.282   6.383  0.3942  0.5567  1.3589
 5338SOL    HW216914   4.605   3.202   6.525 -1.0209 -0.4103  0.7566
 5339SOL     OW16915   5.944   6.916   1.079  0.5362  0.1536 -0.1269
 5339SOL    HW116916   5.868   6.893   1.140  1.5199  0.8975  1.4489
 5339SOL    HW216917   5.942   7.014   1.059  0.6663  0.0463 -0.6754
 5340SOL     OW16918   5.273   2.654   0.495  0.2583 -0.0306 -0.5720
 5340SOL    HW116919   5.334   2.575   0.498 -2.2825 -2.1772 -1.3452
 5340SOL    HW216920   5.242   2.668   0.401 -1.2821  0.2767 -0.0451
 5341SOL     OW16921   5.143   0.544   2.504  0.0384 -0.0044  1.1206
 5341SOL    HW116922   5.228   0.514   2.459 -0.6864  0.3891 -0.5606
 5341SOL    HW216923   5.076   0.470   2.501  0.2249 -0.2338  2.2438
 5342SOL     OW16924   3.800   1.131   0.358 -0.0283 -0.0451  0.1749
 5342SOL    HW116925   3.822   1.224   0.385  0.6840  0.2430 -1.2521
 5342SOL    HW216926   3.786   1.128   0.259 -0.5597 -1.3583  0.2735
 5343SOL     OW16927   3.020   3.836   2.264 -0.1163 -0.4463  0.0765
 5343SOL    HW116928   3.029   3.835   2.363  0.1674  0.5636  0.0656
 5343SOL    HW216929   2.968   3.755   2.235  3.0374 -2.8798  0.7031
 5344SOL     OW16930   2.266   1.150   3.163  0.4403 -0.0709  0.2237
 5344SOL    HW116931   2.301   1.218   3.099 -0.7686 -0.5174 -0.9678
 5344SOL    HW216932   2.281   1.058   3.127  1.5264 -0.4384  1.5406
 5345SOL     OW16933   3.382   2.141   3.373 -0.2837  0.4459 -0.1855
 5345SOL    HW116934   3.464   2.127   3.428  0.8092 -0.8310 -1.9984
 5345SOL    HW216935   3.402   2.208   3.301 -1.5557  1.8013  0.6893
 5346SOL     OW16936   4.372   0.793   2.945 -0.4341 -0.1073  0.1999
 5346SOL    HW116937   4.459   0.829   2.911  0.0538  0.0593  1.5468
 5346SOL    HW216938   4.302   0.864   2.940  0.3306  0.8593  2.1063
 5347SOL     OW16939   6.091   1.565   2.279  0.1569 -0.4928 -0.4382
 5347SOL    HW116940   6.184   1.573   2.312 -0.0914 -0.3289  0.2376
 5347SOL    HW216941   6.082   1.612   2.191 -0.2382  3.1050  1.3706
 5348SOL     OW16942   4.388   0.598   0.335 -0.3900  0.1403  0.3086
 5348SOL    HW116943   4.454   0.524   0.335 -0.9820 -0.4516 -1.9603
 5348SOL    HW216944   4.298   0.563   0.360 -0.2417  0.5851  1.5430
 5349SOL     OW16945   3.898   6.268   2.474  0.5872  0.4898 -0.3948
 5349SOL    HW116946   3.823   6.215   2.514  0.8184 -0.7293 -1.5253
 5349SOL    HW216947   3.975   6.271   2.537  0.2179  0.3084  0.0696
 5350SOL     OW16948   3.369   0.104   0.905 -0.0008 -0.8207  0.1027
 5350SOL    HW116949   3.310   0.023   0.899 -0.2855 -0.5632 -0.7795
 5350SOL    HW216950   3.313   0.186   0.910  0.2579 -0.5551 -0.9786
 5351SOL     OW16951   5.055   1.620   1.375  0.1031  0.2897  0.6270
 5351SOL    HW116952   5.041   1.682   1.452 -0.0101 -0.0516  0.8806
 5351SOL    HW216953   5.142   1.643   1.330  0.5454 -0.0030  1.3221
 5352SOL     OW16954   2.890   1.402   3.241 -0.5900  0.3133 -0.4125
 5352SOL    HW116955   2.915   1.305   3.238  0.8347  0.6672 -0.5699
 5352SOL    HW216956   2.854   1.430   3.152  1.6792  0.5785 -1.3170
 5353SOL     OW16957   6.471   1.356   7.012 -1.0759 -0.0447  0.0658
 5353SOL    HW116958   6.394   1.391   7.064 -1.2617  0.9287 -0.8363
 5353SOL    HW216959   6.497   1.422   6.941 -0.5656 -1.1427 -0.8081
 5354SOL     OW16960   6.755   3.872   3.914 -0.6107 -0.2036  0.6298
 5354SOL    HW116961   6.754   3.929   3.832  1.9266 -0.3945  0.3705
 5354SOL    HW216962   6.767   3.930   3.994  2.1854 -0.2371  0.3500
 5355SOL     OW16963   5.068   1.393   4.815  0.3499  0.1441 -0.0242
 5355SOL    HW116964   5.048   1.491   4.821 -1.2912 -0.2611  2.3301
 5355SOL    HW216965   4.990   1.340   4.847  1.5730 -1.9398 -0.2597
 5356SOL     OW16966   0.720   2.412   0.244  0.0771 -0.6632 -0.0597
 5356SOL    HW116967   0.799   2.406   0.183 -0.4182 -1.7590 -0.6190
 5356SOL    HW216968   0.747   2.384   0.336  0.1670 -1.8019 -0.4226
 5357SOL     OW16969   3.467   6.106   6.909  0.3612 -0.1402  0.3145
 5357SOL    HW116970   3.390   6.061   6.955  0.9052  0.2032  1.6219
 5357SOL    HW216971   3.491   6.189   6.960  1.5116 -0.1766 -0.1544
 5358SOL     OW16972   3.838   5.390   0.718  0.1112 -0.3747 -0.1026
 5358SOL    HW116973   3.853   5.318   0.650  0.6931  0.2567 -0.6603
 5358SOL    HW216974   3.901   5.466   0.700  0.1556 -0.1266  1.0465
 5359SOL     OW16975   3.069   6.650   5.440  0.1654  0.4240  0.5054
 5359SOL    HW116976   3.159   6.634   5.400  0.2934  0.4742  0.7734
 5359SOL    HW216977   3.078   6.674   5.537 -0.0639  1.5377  0.2607
 5360SOL     OW16978   2.909   0.203   4.886 -0.2880  0.0164 -0.5763
 5360SOL    HW116979   2.872   0.277   4.943  1.7059  0.5454  0.1357
 5360SOL    HW216980   2.977   0.241   4.824  2.4493 -1.4327  1.3332
 5361SOL     OW16981   1.551   1.046   6.481  0.8119 -0.1517  0.0038
 5361SOL    HW116982   1.479   1.085   6.538  0.6517 -0.0062 -0.2942
 5361SOL    HW216983   1.581   0.959   6.520 -0.5698 -0.9571 -0.6624
 5362SOL     OW16984   4.272   5.079   3.899  0.2730  0.2791 -0.2055
 5362SOL    HW116985   4.254   4.988   3.937 -2.0029  0.6972 -0.1370
 5362SOL    HW216986   4.316   5.136   3.969  0.8685 -0.4961  0.0596
 5363SOL     OW16987   1.332   6.417   3.052 -0.0837  0.1378 -0.1134
 5363SOL    HW116988   1.251   6.435   2.996 -0.7076  1.5203  1.1482
 5363SOL    HW216989   1.372   6.504   3.081  1.6734 -0.5352 -0.4235
 5364SOL     OW16990   6.682   0.101   6.909 -0.4577  0.5190  0.3501
 5364SOL    HW116991   6.630   0.164   6.852 -0.1690 -0.4985 -1.1073
 5364SOL    HW216992   6.620   0.052   6.969 -0.7767  1.5846  0.9100
 5365SOL     OW16993   3.124   0.424   6.195  0.5410 -0.7323  0.0382
 5365SOL    HW116994   3.217   0.445   6.166 -0.1646  0.4248 -1.5348
 5365SOL    HW216995   3.121   0.417   6.295  2.4041 -1.3943  0.0890
 5366SOL     OW16996   3.468   2.800   6.568 -0.0259  0.6176 -0.1532
 5366SOL    HW116997   3.480   2.721   6.628 -2.2817  0.9954  0.9312
 5366SOL    HW216998   3.447   2.769   6.475  1.2577 -0.0051 -0.2517
 5367SOL     OW16999   3.159   3.781   1.779 -0.8112 -0.2677 -0.1433
 5367SOL    HW117000   3.108   3.856   1.821  2.2335  1.9877 -0.1013
 5367SOL    HW217001   3.197   3.812   1.692  0.7412 -1.6794 -0.0163
 5368SOL     OW17002   1.748   2.454   3.366  0.3404  0.3143  0.0511
 5368SOL    HW117003   1.657   2.494   3.378  0.0115 -0.8280  1.7389
 5368SOL    HW217004   1.757   2.419   3.272 -1.2784 -0.2771  0.0886
 5369SOL     OW17005   2.079   4.268   1.341 -0.2732 -0.1833  0.7165
 5369SOL    HW117006   2.150   4.202   1.364 -0.8411 -1.0020  0.2088
 5369SOL    HW217007   1.995   4.245   1.391 -1.1821 -1.3020 -1.1652
 5370SOL     OW17008   4.095   3.771   1.994 -0.0285  0.2724 -0.1107
 5370SOL    HW117009   4.102   3.714   2.076  5.0637  2.7409  1.6167
 5370SOL    HW217010   4.043   3.854   2.016 -2.1899 -0.7882 -0.8306
 5371SOL     OW17011   2.170   3.153   4.924 -0.2791 -0.8041 -0.6424
 5371SOL    HW117012   2.245   3.092   4.950 -1.2934 -2.1328 -0.7255
 5371SOL    HW217013   2.112   3.107   4.857 -1.7718 -0.2221  0.2022
 5372SOL     OW17014   1.201   5.426   2.515 -0.7566 -0.3808  0.1186
 5372SOL    HW117015   1.188   5.375   2.600  0.4503 -3.3096 -1.3104
 5372SOL    HW217016   1.117   5.420   2.460 -1.2251  0.7515  0.6792
 5373SOL     OW17017   1.427   5.073   3.190  0.2438  0.1514  0.2384
 5373SOL    HW117018   1.331   5.056   3.168  0.3419  0.5254 -0.5088
 5373SOL    HW217019   1.448   5.034   3.280 -0.4127 -0.5978  0.0786
 5374SOL     OW17020   2.364   2.303   2.011  0.3984  0.0354 -0.2991
 5374SOL    HW117021   2.382   2.354   1.927 -1.8895  1.2194 -0.1472
 5374SOL    HW217022   2.447   2.301   2.067  1.3281  1.1914 -1.5649
 5375SOL     OW17023   0.321   6.604   6.816 -0.0490 -0.1449 -0.0462
 5375SOL    HW117024   0.286   6.670   6.749  0.9240 -1.0133 -1.4988
 5375SOL    HW217025   0.421   6.615   6.823  0.1815 -1.6602 -0.5973
 5376SOL     OW17026   3.640   5.076   0.533 -0.1622  0.6328 -0.1561
 5376SOL    HW117027   3.588   5.109   0.612 -0.1086 -0.0319  0.1707
 5376SOL    HW217028   3.610   4.983   0.511 -0.1574  0.8069 -0.9069
 5377SOL     OW17029   0.387   0.297   1.141  0.3806  0.3722 -0.5502
 5377SOL    HW117030   0.483   0.321   1.151  0.1163  1.6882 -1.0151
 5377SOL    HW217031   0.367   0.278   1.045  0.4854 -1.4131 -0.2616
 5378SOL     OW17032   5.146   0.927   5.394  0.2465  0.5162 -0.4043
 5378SOL    HW117033   5.188   0.924   5.485  0.0110  0.3444 -0.2980
 5378SOL    HW217034   5.213   0.899   5.325  0.4969  0.8856 -0.3096
 5379SOL     OW17035   6.893   1.931   1.638  0.3511 -0.2191 -0.1826
 5379SOL    HW117036   6.960   1.936   1.712 -0.4959 -1.2373  0.7071
 5379SOL    HW217037   6.802   1.947   1.676 -0.1855 -1.5776 -0.8254
 5380SOL     OW17038   3.544   2.041   5.315  0.0123  0.1876  0.3858
 5380SOL    HW117039   3.578   2.110   5.379  0.5101  0.1655  0.1524
 5380SOL    HW217040   3.574   1.951   5.344  0.4961  0.2056 -0.0342
 5381SOL     OW17041   5.778   3.611   0.450 -0.4207 -0.4168 -0.1329
 5381SOL    HW117042   5.868   3.644   0.422  0.4813 -1.6915  1.1449
 5381SOL    HW217043   5.738   3.556   0.377 -0.9125  1.4595 -1.3492
 5382SOL     OW17044   1.596   5.916   0.943  0.3465 -0.4799 -0.3640
 5382SOL    HW117045   1.616   5.822   0.969 -1.2988 -0.9992 -0.8614
 5382SOL    HW217046   1.608   5.927   0.845 -0.8405 -0.5674 -0.5303
 5383SOL     OW17047   3.660   2.254   6.135  0.3195 -0.1197  0.4212
 5383SOL    HW117048   3.642   2.161   6.103 -3.1180 -0.0011  1.5635
 5383SOL    HW217049   3.686   2.251   6.231 -0.0580  0.0788  0.5327
 5384SOL     OW17050   3.896   5.601   5.181  0.9568 -0.2759  0.0229
 5384SOL    HW117051   3.803   5.621   5.150  1.2222  0.2064 -0.4790
 5384SOL    HW217052   3.898   5.509   5.220  0.2536 -0.2620  0.1091
 5385SOL     OW17053   3.753   4.159   4.443  0.2302  0.2377  0.3683
 5385SOL    HW117054   3.701   4.169   4.358  0.3603  3.3078  0.5488
 5385SOL    HW217055   3.700   4.196   4.519  1.5567  0.9299  0.9932
 5386SOL     OW17056   6.721   6.336   4.929 -0.2490  0.0425 -0.6985
 5386SOL    HW117057   6.755   6.347   4.835 -1.9576  1.9807 -1.1538
 5386SOL    HW217058   6.653   6.407   4.948 -1.5585 -1.6448  1.2801
 5387SOL     OW17059   3.757   4.736   0.384  0.4080 -0.3862 -0.5158
 5387SOL    HW117060   3.775   4.765   0.290  1.3406 -2.0823 -0.8950
 5387SOL    HW217061   3.663   4.762   0.409  0.7589  1.7274 -1.2384
 5388SOL     OW17062   5.262   6.541   3.363  0.2171 -0.0976 -0.5723
 5388SOL    HW117063   5.359   6.562   3.370  0.1716  0.3855 -1.2000
 5388SOL    HW217064   5.214   6.580   3.441  0.6915 -1.5119  0.4633
 5389SOL     OW17065   1.670   2.398   2.750 -0.1568 -0.2019  0.6199
 5389SOL    HW117066   1.640   2.337   2.823  2.0288 -0.3247  1.4741
 5389SOL    HW217067   1.759   2.369   2.716  0.0304  1.3612 -0.3268
 5390SOL     OW17068   0.309   6.053   5.574 -0.2663 -0.6991  0.1652
 5390SOL    HW117069   0.313   6.152   5.586  2.5317 -0.7544  0.2341
 5390SOL    HW217070   0.300   6.009   5.663 -0.9382 -0.5386  0.1808
 5391SOL     OW17071   4.054   6.023   6.257 -0.1947 -0.0539 -0.5330
 5391SOL    HW117072   4.053   6.122   6.244 -0.1209  0.1817  1.1117
 5391SOL    HW217073   3.983   5.998   6.323  1.3175 -0.8233  0.8365
 5392SOL     OW17074   0.680   1.993   3.862  0.1520 -0.1474 -0.2991
 5392SOL    HW117075   0.633   1.920   3.811  1.5425 -2.1224  1.0888
 5392SOL    HW217076   0.697   2.070   3.801 -3.9873  0.3606 -1.1152
 5393SOL     OW17077   6.816   1.573   6.155  0.2643 -0.5326 -0.0131
 5393SOL    HW117078   6.883   1.500   6.145  3.0657  1.5490  1.8935
 5393SOL    HW217079   6.795   1.610   6.064  0.1772 -2.4784 -0.8307
 5394SOL     OW17080   3.165   2.966   5.504 -0.3641  0.7107  0.3016
 5394SOL    HW117081   3.101   2.974   5.427  0.6148  1.2584 -0.4735
 5394SOL    HW217082   3.121   2.915   5.579 -1.7631  1.2414 -0.1356
 5395SOL     OW17083   4.742   0.856   6.586 -0.1314 -0.0210  0.3779
 5395SOL    HW117084   4.733   0.768   6.539 -1.0909  0.4676 -0.3687
 5395SOL    HW217085   4.839   0.881   6.590  0.1206 -0.9357  0.2810
 5396SOL     OW17086   6.317   1.412   0.964  0.0469 -0.1138 -0.2290
 5396SOL    HW117087   6.227   1.385   0.929  0.0072 -0.9006  0.4586
 5396SOL    HW217088   6.385   1.405   0.890 -0.3004 -0.3390 -0.5328
 5397SOL     OW17089   2.457   3.198   1.268  0.5867  0.2296  0.3190
 5397SOL    HW117090   2.493   3.212   1.361  3.3551 -3.5032  0.0061
 5397SOL    HW217091   2.362   3.229   1.265 -0.3723 -1.4075  5.0656
 5398SOL     OW17092   3.263   3.967   2.081  0.0386 -0.1691  0.3469
 5398SOL    HW117093   3.176   3.917   2.082  0.3474 -0.7213  0.2336
 5398SOL    HW217094   3.292   3.985   2.175  0.0321 -0.3975  0.3935
 5399SOL     OW17095   5.794   6.153   6.996 -0.2553  0.7013 -0.3659
 5399SOL    HW117096   5.735   6.124   6.921 -0.8497  2.0405 -0.4404
 5399SOL    HW217097   5.754   6.126   7.083  0.7862 -1.5045 -0.4927
 5400SOL     OW17098   3.704   2.481   6.360  0.6038  0.1852  0.2789
 5400SOL    HW117099   3.741   2.570   6.334  0.0099  0.6374  0.9462
 5400SOL    HW217100   3.611   2.471   6.325  0.5391 -0.0273  0.5015
 5401SOL     OW17101   0.101   2.054   0.962  0.0830  0.4682 -0.2762
 5401SOL    HW117102   0.128   1.962   0.990  1.9691  0.8790 -0.6336
 5401SOL    HW217103   0.067   2.105   1.041  0.1306 -0.1615  0.1545
 5402SOL     OW17104   0.796   6.106   1.292  0.6069 -0.4898 -0.0945
 5402SOL    HW117105   0.858   6.125   1.369 -0.9254 -1.1669  1.3764
 5402SOL    HW217106   0.808   6.176   1.222  1.7362  0.4385  0.9721
 5403SOL     OW17107   0.333   2.546   6.834 -0.0901 -0.0336 -0.3965
 5403SOL    HW117108   0.330   2.580   6.927 -0.1964  0.1822 -0.4786
 5403SOL    HW217109   0.359   2.619   6.772  0.1618 -0.2216 -0.5143
 5404SOL     OW17110   6.649   2.611   3.561  0.3644  0.0208  0.0277
 5404SOL    HW117111   6.670   2.515   3.579  0.3569 -0.7690 -3.4485
 5404SOL    HW217112   6.631   2.658   3.648  1.7662 -2.7227  1.9578
 5405SOL     OW17113   0.200   5.788   0.352 -0.4709  0.1026 -0.5919
 5405SOL    HW117114   0.143   5.870   0.348 -0.8369 -0.1459 -0.4480
 5405SOL    HW217115   0.291   5.809   0.315 -0.0036  1.0340  0.9970
 5406SOL     OW17116   2.597   1.399   2.832  0.0597 -0.1868 -0.2481
 5406SOL    HW117117   2.615   1.449   2.748 -1.3180  0.5804 -0.1124
 5406SOL    HW217118   2.618   1.302   2.819 -0.8484 -0.2061 -1.7227
 5407SOL     OW17119   4.597   2.096   6.776 -0.3262  0.2201  0.0164
 5407SOL    HW117120   4.579   2.194   6.764 -0.4356  0.4221  1.6897
 5407SOL    HW217121   4.694   2.083   6.796 -0.4698  0.0773  0.6311
 5408SOL     OW17122   4.166   0.438   0.405  0.1897  0.5544  0.1914
 5408SOL    HW117123   4.118   0.369   0.351 -0.5786  0.8896  0.4260
 5408SOL    HW217124   4.228   0.393   0.469  0.9879  0.1463 -0.8462
 5409SOL     OW17125   4.401   2.255   0.715  0.3260 -0.4622  0.5815
 5409SOL    HW117126   4.405   2.236   0.813  0.6696 -3.5862  0.0563
 5409SOL    HW217127   4.320   2.212   0.676  0.3176  0.5544 -0.5759
 5410SOL     OW17128   3.113   0.990   3.212 -0.3261 -0.4019  0.1781
 5410SOL    HW117129   3.046   1.008   3.140 -1.9727  0.5268  1.8579
 5410SOL    HW217130   3.159   1.075   3.238  2.1018 -1.1230 -1.4041
 5411SOL     OW17131   3.473   4.399   6.907  0.2122  0.2684  0.2776
 5411SOL    HW117132   3.416   4.417   6.987  0.7114 -2.6817  1.4309
 5411SOL    HW217133   3.416   4.366   6.832  0.0155  0.7149  0.2297
 5412SOL     OW17134   0.639   2.796   1.453 -0.0303 -0.7650 -0.3264
 5412SOL    HW117135   0.664   2.819   1.359 -0.3293 -1.2176 -0.5177
 5412SOL    HW217136   0.589   2.710   1.454  1.6628 -1.8083  0.4358
 5413SOL     OW17137   1.753   0.460   1.521 -0.5497  0.5381 -0.0279
 5413SOL    HW117138   1.839   0.511   1.524 -0.5789  0.5406  1.4000
 5413SOL    HW217139   1.677   0.524   1.529 -0.6421  0.4051  0.1397
 5414SOL     OW17140   4.149   5.359   5.583 -0.3725 -0.2223  0.3764
 5414SOL    HW117141   4.241   5.390   5.560 -0.1792 -1.1378 -0.1327
 5414SOL    HW217142   4.118   5.292   5.515 -1.9994  1.1327 -0.3159
 5415SOL     OW17143   6.189   3.394   2.254  0.3771 -0.3739 -0.4560
 5415SOL    HW117144   6.241   3.324   2.302  0.0759 -0.6779 -0.5676
 5415SOL    HW217145   6.236   3.419   2.169 -0.0834 -1.2610 -0.9798
 5416SOL     OW17146   4.879   3.822   2.605 -0.2738 -0.8517 -0.2064
 5416SOL    HW117147   4.891   3.737   2.657  1.0802 -0.2424  0.5465
 5416SOL    HW217148   4.922   3.897   2.655  0.1693 -0.0504 -1.7273
 5417SOL     OW17149   2.770   0.364   5.627  0.1144 -0.6519 -0.6242
 5417SOL    HW117150   2.712   0.285   5.641  0.7038 -1.0994 -0.6651
 5417SOL    HW217151   2.857   0.351   5.675  0.4764 -0.3265 -1.1664
 5418SOL     OW17152   2.694   1.534   5.174  0.3146  0.1708  0.1458
 5418SOL    HW117153   2.649   1.563   5.259  1.3080  1.2284  0.3501
 5418SOL    HW217154   2.741   1.612   5.133  1.1090 -0.6573 -0.5822
 5419SOL     OW17155   3.173   3.906   1.243 -0.3322 -0.3109 -0.3886
 5419SOL    HW117156   3.176   4.006   1.249  1.7965 -0.3337 -0.0998
 5419SOL    HW217157   3.134   3.879   1.156  2.0855  0.9071 -1.9623
 5420SOL     OW17158   6.434   2.679   1.943  0.3394 -0.6800 -0.5495
 5420SOL    HW117159   6.346   2.699   1.900  1.2643  2.8191 -1.1407
 5420SOL    HW217160   6.429   2.591   1.988 -4.4233  0.4605  1.8625
 5421SOL     OW17161   3.801   1.673   0.102 -0.5118 -0.2270 -0.4167
 5421SOL    HW117162   3.848   1.719   0.178 -0.8868  1.5469 -1.2230
 5421SOL    HW217163   3.864   1.609   0.058  0.3191  0.1642  0.1751
 5422SOL     OW17164   0.808   3.383   0.446  0.0051  0.0693  0.4980
 5422SOL    HW117165   0.903   3.400   0.423 -0.4408  2.7175  0.2947
 5422SOL    HW217166   0.765   3.468   0.476 -2.2444 -1.1020  0.8415
 5423SOL     OW17167   5.928   3.564   6.900 -0.6083 -0.2618  0.1765
 5423SOL    HW117168   5.911   3.521   6.988  0.0875 -2.1539 -0.5516
 5423SOL    HW217169   5.849   3.550   6.840 -1.3293  1.5397  0.6507
 5424SOL     OW17170   4.940   0.578   4.562 -0.0458 -0.1334 -0.1391
 5424SOL    HW117171   4.972   0.619   4.647  1.0191 -2.1439  0.5037
 5424SOL    HW217172   4.844   0.601   4.548 -0.1870  0.4282  1.4922
 5425SOL     OW17173   5.114   1.542   4.573 -0.0670 -0.6748 -0.4887
 5425SOL    HW117174   5.112   1.468   4.640 -0.7952 -1.7396 -1.6449
 5425SOL    HW217175   5.195   1.599   4.588  0.7266 -1.9419  0.1497
 5426SOL     OW17176   6.890   0.524   3.678  0.1905  0.0739  0.1164
 5426SOL    HW117177   6.919   0.496   3.586  1.4019 -0.5085  0.6523
 5426SOL    HW217178   6.840   0.449   3.722  1.6788 -0.5580  0.7963
 5427SOL     OW17179   2.689   6.175   1.127 -0.9943  0.0778  0.0112
 5427SOL    HW117180   2.663   6.239   1.054 -2.0433 -0.0581  0.2490
 5427SOL    HW217181   2.785   6.189   1.152 -0.5964  0.0849 -1.4367
 5428SOL     OW17182   2.931   1.154   6.961 -0.3606  0.3216 -0.3953
 5428SOL    HW117183   2.834   1.162   6.938 -0.3214  0.2634 -0.5742
 5428SOL    HW217184   2.944   1.178   7.058 -0.6757 -0.5311 -0.1376
 5429SOL     OW17185   2.544   2.664   1.169 -0.2774  0.5939 -0.0287
 5429SOL    HW117186   2.605   2.714   1.230  0.3234  0.5276 -0.5768
 5429SOL    HW217187   2.500   2.590   1.221  0.5664  0.2579  0.2178
 5430SOL     OW17188   1.003   2.589   0.022  0.3431 -0.5134  0.2764
 5430SOL    HW117189   0.968   2.537  -0.056 -0.9503 -0.3146  0.7168
 5430SOL    HW217190   0.955   2.676   0.029  0.4367 -0.5322  1.3051
 5431SOL     OW17191   5.068   6.599   4.063  0.3112 -0.0438 -0.7678
 5431SOL    HW117192   5.071   6.649   4.150  0.4572  0.5114 -1.0876
 5431SOL    HW217193   5.009   6.648   3.999 -1.1449 -1.2936 -0.4712
 5432SOL     OW17194   5.788   4.849   1.162 -0.8054 -0.3026 -0.5310
 5432SOL    HW117195   5.736   4.764   1.157  1.1662 -1.8026  1.8628
 5432SOL    HW217196   5.771   4.893   1.250 -0.0797  0.5649 -0.8099
 5433SOL     OW17197   2.291   2.141   3.873  0.2650 -0.0434 -0.0262
 5433SOL    HW117198   2.227   2.068   3.898  0.7201  0.2508  2.2616
 5433SOL    HW217199   2.375   2.131   3.926  1.2501  0.8504 -1.3596
 5434SOL     OW17200   2.763   2.018   3.610 -0.2555  0.6326  0.2515
 5434SOL    HW117201   2.674   2.064   3.606 -0.4429  0.4218  1.6346
 5434SOL    HW217202   2.835   2.086   3.625 -0.1331  0.8263 -1.0622
 5435SOL     OW17203   3.642   1.696   2.207  0.0180  0.1315 -0.0442
 5435SOL    HW117204   3.680   1.720   2.118 -0.8266 -0.0393 -0.4641
 5435SOL    HW217205   3.548   1.729   2.213 -0.3771 -0.9804  0.2676
 5436SOL     OW17206   5.872   5.633   2.388 -0.0090 -0.8119  0.0788
 5436SOL    HW117207   5.804   5.700   2.419  1.8091  1.1878  0.0269
 5436SOL    HW217208   5.862   5.549   2.440 -0.8069  0.3895  1.9777
 5437SOL     OW17209   4.773   5.306   5.494  0.1659 -0.6843  0.4617
 5437SOL    HW117210   4.728   5.270   5.412  0.7140  0.5281 -0.3972
 5437SOL    HW217211   4.803   5.230   5.551 -0.0833 -1.5624 -0.5348
 5438SOL     OW17212   6.779   2.528   1.469 -0.1040 -0.1351 -0.1632
 5438SOL    HW117213   6.758   2.596   1.399 -0.3497  0.7144  0.7088
 5438SOL    HW217214   6.710   2.533   1.541  0.0854 -1.0682  0.0907
 5439SOL     OW17215   0.795   2.029   0.398 -0.0166 -0.3211 -0.3974
 5439SOL    HW117216   0.875   1.985   0.357  0.9456 -2.0845  3.0045
 5439SOL    HW217217   0.824   2.109   0.449 -0.7135  0.0520 -0.5802
 5440SOL     OW17218   2.147   6.592   6.916  0.0486  0.0363  0.1483
 5440SOL    HW117219   2.149   6.492   6.908 -2.6332 -0.1827  1.1890
 5440SOL    HW217220   2.149   6.632   6.825 -1.2620 -1.1092 -0.4241
 5441SOL     OW17221   2.431   2.008   3.284  0.6053 -0.5983  0.2207
 5441SOL    HW117222   2.506   2.003   3.218  1.3904  0.6051  0.9893
 5441SOL    HW217223   2.466   2.037   3.372 -1.0045  1.6964  0.1867
 5442SOL     OW17224   3.312   1.559   2.824  0.2379  0.2303 -0.0882
 5442SOL    HW117225   3.242   1.561   2.752 -0.1267  1.7323  0.2821
 5442SOL    HW217226   3.366   1.643   2.821  0.2914  0.2681  1.3306
 5443SOL     OW17227   1.057   6.761   0.577  0.0057 -0.1144  1.0493
 5443SOL    HW117228   1.097   6.810   0.654  2.9799 -1.4953  0.5214
 5443SOL    HW217229   0.969   6.722   0.604 -0.8139  2.4865  2.5154
 5444SOL     OW17230   1.347   0.218   4.453 -0.3060 -0.1382 -0.2293
 5444SOL    HW117231   1.341   0.250   4.548 -0.5038 -0.4061 -0.1480
 5444SOL    HW217232   1.360   0.119   4.453 -0.4284 -0.1529 -0.4855
 5445SOL     OW17233   5.794   4.068   2.032 -0.2584 -0.2573  0.0050
 5445SOL    HW117234   5.703   4.058   1.992  0.6352 -0.3017 -2.1492
 5445SOL    HW217235   5.805   4.162   2.065 -1.8486 -0.8369  2.4875
 5446SOL     OW17236   0.246   5.989   5.844 -0.0110 -0.2724 -0.1581
 5446SOL    HW117237   0.278   6.056   5.911 -0.1741  0.3621 -0.7029
 5446SOL    HW217238   0.223   5.904   5.891  0.5397 -0.0733  0.4999
 5447SOL     OW17239   4.046   3.456   5.841  0.1307  0.2391  0.1747
 5447SOL    HW117240   4.021   3.549   5.869 -1.7018 -0.5911  1.3906
 5447SOL    HW217241   4.138   3.435   5.875  0.6942  1.6830 -0.3635
 5448SOL     OW17242   5.653   1.708   6.518 -0.4570  0.9674  0.6241
 5448SOL    HW117243   5.655   1.687   6.616 -0.0927 -1.5277  0.1457
 5448SOL    HW217244   5.737   1.756   6.492 -0.2752  1.0891  1.4152
 5449SOL     OW17245   1.013   3.697   1.384 -1.1031 -0.4244 -0.1065
 5449SOL    HW117246   1.085   3.766   1.375 -1.7854  0.2640 -0.3675
 5449SOL    HW217247   1.054   3.606   1.384 -0.4275 -0.1894 -2.9962
 5450SOL     OW17248   0.439   3.925   1.891  0.2864  0.0938 -0.5708
 5450SOL    HW117249   0.400   3.834   1.906 -1.6601  0.9636  0.0472
 5450SOL    HW217250   0.500   3.922   1.812 -1.9583 -1.1686 -2.4158
 5451SOL     OW17251   2.915   6.593   0.980  0.5286  0.2946 -0.0806
 5451SOL    HW117252   3.012   6.587   1.002  0.3458  0.8648  0.9671
 5451SOL    HW217253   2.861   6.561   1.058 -0.1246 -0.9992 -1.0272
 5452SOL     OW17254   2.795   3.653   6.638 -1.4006 -0.2632  0.8619
 5452SOL    HW117255   2.844   3.583   6.690 -0.9440 -0.1306  0.6174
 5452SOL    HW217256   2.753   3.611   6.558 -1.2765 -0.2881  0.8100
 5453SOL     OW17257   0.726   5.085   5.077  0.0890 -0.0551 -0.1206
 5453SOL    HW117258   0.680   4.996   5.079  0.7823 -0.4228 -0.0776
 5453SOL    HW217259   0.825   5.071   5.083  0.1417  0.8037  2.1125
 5454SOL     OW17260   1.433   3.987   4.298 -0.0303 -0.1568  0.3312
 5454SOL    HW117261   1.395   4.010   4.387  0.6347  1.0285  0.3355
 5454SOL    HW217262   1.507   3.921   4.309  0.4048  0.3856  0.7309
 5455SOL     OW17263   5.913   2.141   0.403 -0.2117  0.5085 -0.1450
 5455SOL    HW117264   5.942   2.234   0.423 -0.5826  0.5775  0.0959
 5455SOL    HW217265   5.821   2.127   0.441 -0.9309  0.6329 -1.7657
 5456SOL     OW17266   5.651   6.673   1.750  0.2223  0.5750  0.4500
 5456SOL    HW117267   5.701   6.640   1.670 -0.2372 -0.4206  0.5593
 5456SOL    HW217268   5.686   6.629   1.832  1.5944  2.5803  0.9968
 5457SOL     OW17269   6.298   5.218   0.350 -0.8116  0.9709  0.1111
 5457SOL    HW117270   6.257   5.176   0.431 -0.0310  0.7807  0.4196
 5457SOL    HW217271   6.286   5.157   0.272  0.4489  0.0449  0.5890
 5458SOL     OW17272   1.471   6.028   5.994  0.5949 -0.3026  0.2237
 5458SOL    HW117273   1.475   5.950   5.931 -1.6940 -0.4129  0.1461
 5458SOL    HW217274   1.392   6.085   5.972  0.7012  0.5897  1.9570
 5459SOL     OW17275   2.520   2.808   6.508  0.4722 -0.1032 -0.4250
 5459SOL    HW117276   2.432   2.852   6.488 -0.0836  0.7480  3.2288
 5459SOL    HW217277   2.505   2.711   6.523  0.2852 -0.0909 -0.5204
 5460SOL     OW17278   5.761   2.124   4.223 -0.6245 -1.0506 -0.1965
 5460SOL    HW117279   5.775   2.030   4.253 -0.3928 -0.5209  1.4010
 5460SOL    HW217280   5.664   2.140   4.206 -1.0654 -0.8278  2.2403
 5461SOL     OW17281   3.471   0.830   3.674 -0.1359 -0.0031  0.4408
 5461SOL    HW117282   3.384   0.864   3.711 -0.1776 -0.1927  0.5154
 5461SOL    HW217283   3.546   0.861   3.732 -0.0621  0.9718 -0.1492
 5462SOL     OW17284   6.133   1.077   1.504 -0.7461 -0.1718  0.1465
 5462SOL    HW117285   6.071   1.147   1.468  0.6243 -0.5170 -3.2980
 5462SOL    HW217286   6.081   0.993   1.522 -1.6085  0.1609 -0.7218
 5463SOL     OW17287   0.688   1.644   1.905  0.2913  0.7565  0.4385
 5463SOL    HW117288   0.742   1.561   1.918  1.3667  1.4717  0.7355
 5463SOL    HW217289   0.603   1.638   1.956  1.3073  0.6905  2.1899
 5464SOL     OW17290   1.414   0.387   5.875 -0.4202  0.2956 -0.4351
 5464SOL    HW117291   1.323   0.389   5.916 -0.7805  0.9693 -1.2277
 5464SOL    HW217292   1.405   0.380   5.776  0.4408 -2.2153 -0.3889
 5465SOL     OW17293   3.882   0.094   0.380  0.1137 -0.1896 -0.2534
 5465SOL    HW117294   3.845   0.186   0.378  0.7277  0.0622 -0.2447
 5465SOL    HW217295   3.841   0.040   0.307 -1.6030 -0.4570  0.8437
 5466SOL     OW17296   0.140   5.518   4.358  0.2257 -0.3789  0.1957
 5466SOL    HW117297   0.151   5.592   4.425 -0.0493 -0.2436  0.0947
 5466SOL    HW217298   0.060   5.463   4.383  0.0925 -0.2986 -0.0468
 5467SOL     OW17299   5.807   0.403   1.869 -0.9001  0.2603  0.4756
 5467SOL    HW117300   5.800   0.337   1.944 -1.7361  1.3598  1.4043
 5467SOL    HW217301   5.769   0.363   1.786 -1.0508 -0.5543  0.9262
 5468SOL     OW17302   4.111   1.412   5.542  0.4906 -0.2396 -0.0839
 5468SOL    HW117303   4.189   1.433   5.601 -0.8373 -0.7805  1.9796
 5468SOL    HW217304   4.110   1.475   5.464  1.9398  0.9608  0.8028
 5469SOL     OW17305   4.014   4.436   1.264 -0.4279 -0.0581  0.1584
 5469SOL    HW117306   3.979   4.417   1.172 -0.3324  0.8838 -0.0897
 5469SOL    HW217307   4.069   4.520   1.261  1.3876 -1.1800  0.6556
 5470SOL     OW17308   0.004   3.521   4.909 -0.1118 -0.0343 -0.4148
 5470SOL    HW117309  -0.068   3.551   4.847 -3.8380 -2.5971  2.2111
 5470SOL    HW217310   0.042   3.599   4.958 -1.5509  1.3722 -1.4640
 5471SOL     OW17311   0.961   3.852   2.711  0.2928  0.7508 -0.2000
 5471SOL    HW117312   0.949   3.889   2.620  0.5333  0.1139 -0.5014
 5471SOL    HW217313   0.891   3.782   2.728  0.0747  1.0633  0.2138
 5472SOL     OW17314   3.762   6.359   5.340 -0.1755 -0.2236  0.2809
 5472SOL    HW117315   3.815   6.367   5.255 -0.0357 -0.1871  0.3724
 5472SOL    HW217316   3.666   6.341   5.317 -0.7952  2.9209  0.0171
 5473SOL     OW17317   2.320   5.285   3.436  0.1360  0.0495  0.2339
 5473SOL    HW117318   2.402   5.329   3.473 -0.1397  0.0593  0.8481
 5473SOL    HW217319   2.331   5.186   3.441  0.1988  0.0491  0.1054
 5474SOL     OW17320   2.013   6.473   3.147  0.1196  0.0578  0.6926
 5474SOL    HW117321   2.037   6.378   3.133  1.1480  0.2067  1.3356
 5474SOL    HW217322   1.943   6.500   3.081  0.4391 -0.8955 -0.0606
 5475SOL     OW17323   2.038   1.982   2.177  0.1095  0.0923 -0.3922
 5475SOL    HW117324   2.070   2.030   2.095  0.5693  1.3883  0.5178
 5475SOL    HW217325   2.113   1.976   2.243  0.0131 -1.7590 -0.3972
 5476SOL     OW17326   2.393   2.901   0.772 -0.0843  0.4673 -0.0131
 5476SOL    HW117327   2.295   2.888   0.762 -0.0099  0.9035 -1.4790
 5476SOL    HW217328   2.410   2.978   0.834 -0.6481  0.2062  0.4784
 5477SOL     OW17329   1.646   2.931   1.558  0.1737 -0.1303 -0.1171
 5477SOL    HW117330   1.730   2.896   1.515  0.9833 -0.4317  1.6445
 5477SOL    HW217331   1.571   2.924   1.492  1.5115  0.2055 -1.7683
 5478SOL     OW17332   5.347   4.943   5.054  0.2165 -0.3474 -0.0143
 5478SOL    HW117333   5.283   4.873   5.025  1.2071 -0.8555 -1.0624
 5478SOL    HW217334   5.437   4.902   5.072  0.6278  0.5389  0.0540
 5479SOL     OW17335   3.619   6.990   5.020  0.0683  0.2225 -0.2041
 5479SOL    HW117336   3.536   7.012   5.072  1.1750  0.8850  1.3511
 5479SOL    HW217337   3.628   6.891   5.012 -0.6112  0.1362  0.0181
 5480SOL     OW17338   0.177   0.846   5.690  0.0828 -0.4969 -0.0820
 5480SOL    HW117339   0.159   0.748   5.697  0.6085 -0.7061 -1.4094
 5480SOL    HW217340   0.270   0.861   5.656  0.5734  0.4948  1.5365
 5481SOL     OW17341   3.953   0.471   1.766  0.1538 -0.2320 -0.1029
 5481SOL    HW117342   4.034   0.412   1.777 -0.3780 -1.0910 -0.6545
 5481SOL    HW217343   3.872   0.422   1.796 -0.3714  0.0122 -1.0742
 5482SOL     OW17344   0.111   6.679   1.609  0.0380 -0.0636 -0.8711
 5482SOL    HW117345   0.023   6.633   1.625  0.3427 -0.4466 -0.2714
 5482SOL    HW217346   0.183   6.632   1.659  0.0953  2.0774  1.2126
 5483SOL     OW17347   2.778   3.237   0.224  0.0751  0.0862  0.0611
 5483SOL    HW117348   2.788   3.249   0.323 -0.0261  3.0601 -0.1995
 5483SOL    HW217349   2.865   3.207   0.185  0.0695 -1.2948  1.0159
 5484SOL     OW17350   4.968   0.243   4.792 -0.2623 -0.3571 -0.4553
 5484SOL    HW117351   4.962   0.226   4.694  1.2250 -0.6397 -0.5152
 5484SOL    HW217352   5.038   0.312   4.810 -0.4691 -0.3596  0.4095
 5485SOL     OW17353   5.245   1.278   5.012 -0.2362  0.1232 -0.2163
 5485SOL    HW117354   5.187   1.312   4.938  1.7651  3.4369 -0.4546
 5485SOL    HW217355   5.331   1.244   4.975  0.0105 -0.0048  0.4530
 5486SOL     OW17356   4.962   4.806   3.147  0.1158 -0.1537 -0.1911
 5486SOL    HW117357   4.978   4.792   3.050 -0.1325  0.2563 -0.2946
 5486SOL    HW217358   4.876   4.855   3.161  0.1865 -0.1388  0.2277
 5487SOL     OW17359   3.253   5.035   5.841  0.1634  0.1777 -0.0934
 5487SOL    HW117360   3.277   5.099   5.767  0.3032  0.1522 -0.0707
 5487SOL    HW217361   3.337   4.998   5.881  0.1314 -2.0131 -1.8250
 5488SOL     OW17362   5.753   4.505   5.522 -0.0618  0.4843 -0.0698
 5488SOL    HW117363   5.717   4.554   5.443 -0.6746  1.0740  0.5521
 5488SOL    HW217364   5.814   4.432   5.492 -2.9762 -1.6444 -1.3236
 5489SOL     OW17365   0.072   0.179   3.332 -0.0734 -0.1715 -0.6900
 5489SOL    HW117366   0.030   0.096   3.369  0.9498 -0.6255 -0.5251
 5489SOL    HW217367   0.159   0.156   3.289  0.3577  0.8628 -0.3847
 5490SOL     OW17368   1.291   6.058   2.709 -0.0915  0.7233  0.1464
 5490SOL    HW117369   1.314   6.080   2.804  1.0278  1.2338 -0.2242
 5490SOL    HW217370   1.370   6.074   2.651 -0.1463 -1.4597 -0.6209
 5491SOL     OW17371   0.167   5.453   2.311  0.1534  0.1982  0.6648
 5491SOL    HW117372   0.158   5.464   2.212  2.5985  3.0061  0.6429
 5491SOL    HW217373   0.081   5.479   2.355 -0.8164 -0.6693 -0.6364
 5492SOL     OW17374   6.798   0.629   0.484 -0.0578 -0.0217 -0.0139
 5492SOL    HW117375   6.817   0.591   0.574 -1.3216  1.6836  1.0307
 5492SOL    HW217376   6.864   0.702   0.464 -0.9191  0.8853  0.3845
 5493SOL     OW17377   3.825   3.619   6.529 -0.1084  0.5022 -0.2776
 5493SOL    HW117378   3.730   3.648   6.513 -0.8481 -1.8830 -0.6663
 5493SOL    HW217379   3.869   3.681   6.593  0.0885  5.3371 -4.4433
 5494SOL     OW17380   6.991   1.485   5.221  0.1659 -0.1760 -0.7728
 5494SOL    HW117381   6.903   1.532   5.215  0.8745  1.2204 -0.7348
 5494SOL    HW217382   7.018   1.478   5.317  0.4432  0.0905 -0.8294
 5495SOL     OW17383   5.087   0.227   6.916  0.4386  0.3524 -0.5386
 5495SOL    HW117384   5.154   0.170   6.867 -0.8607 -1.7022 -0.0816
 5495SOL    HW217385   5.011   0.247   6.854 -0.1102 -0.2645 -0.0775
 5496SOL     OW17386   5.143   5.872   6.992  0.3596  0.1211 -0.2817
 5496SOL    HW117387   5.135   5.971   7.008  1.3012  0.1287  0.1979
 5496SOL    HW217388   5.237   5.843   7.011 -0.4050 -1.2421  1.7072
 5497SOL     OW17389   6.486   0.840   5.708  0.4393 -0.3703  0.6992
 5497SOL    HW117390   6.516   0.850   5.803  2.5386 -0.3080  0.0668
 5497SOL    HW217391   6.470   0.931   5.668  0.3862 -0.3620  0.7394
 5498SOL     OW17392   6.556   5.451   0.798  0.0647  0.0552  0.4077
 5498SOL    HW117393   6.577   5.454   0.701  0.8189 -3.2934  0.3299
 5498SOL    HW217394   6.456   5.449   0.811 -0.0709  1.8810 -0.1505
 5499SOL     OW17395   2.301   1.846   4.405 -0.1283 -0.8671 -0.2776
 5499SOL    HW117396   2.203   1.849   4.386 -0.1648  0.2385  0.0397
 5499SOL    HW217397   2.327   1.922   4.465  0.9490 -1.0587 -0.4674
 5500SOL     OW17398   1.001   6.269   4.172  0.0765 -0.6947 -0.6138
 5500SOL    HW117399   1.018   6.201   4.102 -0.5412 -0.8483 -0.6260
 5500SOL    HW217400   0.986   6.358   4.129  2.2171 -0.2565 -0.5226
 5501SOL     OW17401   0.047   5.924   1.512 -0.1231  0.0586 -0.0674
 5501SOL    HW117402  -0.022   5.861   1.548  1.2964 -0.9917  0.9755
 5501SOL    HW217403   0.027   5.945   1.417 -2.9932  1.4298  0.7245
 5502SOL     OW17404   3.839   4.674   0.872  0.0217  0.2842 -0.3680
 5502SOL    HW117405   3.746   4.711   0.876 -0.4546 -0.7918 -1.0915
 5502SOL    HW217406   3.881   4.678   0.963 -1.1026 -0.1323  0.1834
 5503SOL     OW17407   6.520   3.775   3.365  0.4455  0.9520  0.4058
 5503SOL    HW117408   6.470   3.801   3.447  0.0415  1.1611  0.0935
 5503SOL    HW217409   6.547   3.679   3.372  0.9544  1.1361  1.0547
 5504SOL     OW17410   2.892   2.968   6.799 -0.4082 -0.0406 -0.0118
 5504SOL    HW117411   2.985   3.005   6.792 -0.4423  0.0686  0.1193
 5504SOL    HW217412   2.889   2.879   6.754 -0.3070  0.0795 -0.2573
 5505SOL     OW17413   4.753   4.826   4.330 -0.1679 -0.1794 -0.0098
 5505SOL    HW117414   4.849   4.796   4.328 -0.3364 -0.8821  1.2281
 5505SOL    HW217415   4.710   4.804   4.243  0.1775 -2.0821  0.2442
 5506SOL     OW17416   6.513   2.979   6.415 -0.5107  0.3262  0.2770
 5506SOL    HW117417   6.431   2.924   6.431 -0.8628  0.4654 -0.9260
 5506SOL    HW217418   6.535   3.032   6.497 -1.6667  0.3350  0.5932
 5507SOL     OW17419   3.473   4.743   6.623 -0.3172  0.1443  0.5339
 5507SOL    HW117420   3.389   4.788   6.652 -0.3655  0.8338 -0.6250
 5507SOL    HW217421   3.521   4.707   6.704 -1.5746 -0.0267  1.2308
 5508SOL     OW17422   6.761   2.021   6.243  0.3413 -0.1891  0.0145
 5508SOL    HW117423   6.759   2.119   6.263  0.8699 -0.4626  1.5731
 5508SOL    HW217424   6.791   1.971   6.325  0.0963 -1.6536 -0.7553
 5509SOL     OW17425   0.559   3.799   0.377  0.2311  0.0959  0.5575
 5509SOL    HW117426   0.576   3.885   0.327 -0.3458  0.4245  0.9142
 5509SOL    HW217427   0.488   3.747   0.329 -1.1747  0.9536  1.6322
 5510SOL     OW17428   4.743   6.193   5.878  0.1934 -0.0386 -0.1391
 5510SOL    HW117429   4.784   6.209   5.968 -0.2545  1.3882 -0.1653
 5510SOL    HW217430   4.813   6.199   5.808  0.8980 -2.8873  0.1825
 5511SOL     OW17431   0.644   2.592   5.357 -0.2969  0.1658  0.2495
 5511SOL    HW117432   0.564   2.547   5.318 -0.0564  0.4743 -0.6259
 5511SOL    HW217433   0.649   2.572   5.455  0.2188 -2.3167 -0.2191
 5512SOL     OW17434   3.042   0.256   1.348 -0.5952  0.8095  0.4960
 5512SOL    HW117435   2.949   0.278   1.378 -1.0674 -0.1210 -0.2069
 5512SOL    HW217436   3.093   0.340   1.332 -0.1892  1.4141  4.1008
 5513SOL     OW17437   4.055   3.020   6.478 -0.2196  0.2008 -0.7175
 5513SOL    HW117438   4.150   3.048   6.494  0.2710 -0.9535 -1.4636
 5513SOL    HW217439   4.042   3.000   6.381 -0.9796 -0.5264 -0.4793
 5514SOL     OW17440   3.895   1.280   1.390  0.6912  0.4327  0.0554
 5514SOL    HW117441   3.991   1.306   1.390  0.8677 -0.2010  0.1247
 5514SOL    HW217442   3.883   1.196   1.443  0.4150 -0.5642 -1.5282
 5515SOL     OW17443   5.155   5.412   3.981  0.7424  0.3156 -0.5946
 5515SOL    HW117444   5.068   5.391   4.027  0.5706 -0.1488 -1.1100
 5515SOL    HW217445   5.192   5.497   4.016  0.2264  0.3614 -0.1492
 5516SOL     OW17446   0.428   2.704   6.608  0.0985  0.0652  0.2034
 5516SOL    HW117447   0.467   2.682   6.518  0.4189 -0.9472  0.5794
 5516SOL    HW217448   0.443   2.801   6.628  1.8659 -0.1381  0.0472
 5517SOL     OW17449   0.763   1.908   4.820  0.0675  0.1791  0.3208
 5517SOL    HW117450   0.783   1.830   4.879 -0.2732 -0.7219 -0.7435
 5517SOL    HW217451   0.796   1.890   4.728 -1.6061  0.5461 -0.3781
 5518SOL     OW17452   3.282   4.487   5.398  0.2866 -0.0641  0.1481
 5518SOL    HW117453   3.376   4.461   5.422 -0.1976 -2.3806 -0.1892
 5518SOL    HW217454   3.283   4.575   5.350  1.8351  1.9875  3.5982
 5519SOL     OW17455   6.441   2.163   6.105  0.1398  0.6233  0.6658
 5519SOL    HW117456   6.475   2.194   6.017 -0.1684  0.2351  0.4078
 5519SOL    HW217457   6.509   2.105   6.149  1.0237  2.1792  1.4670
 5520SOL     OW17458   5.246   5.534   2.972  0.0551 -0.3159 -1.1218
 5520SOL    HW117459   5.155   5.562   2.943 -0.5399  0.2900  1.2075
 5520SOL    HW217460   5.252   5.533   3.072  1.4503 -3.9894 -1.0655
 5521SOL     OW17461   6.543   6.906   2.739  1.0453  0.0624  0.7339
 5521SOL    HW117462   6.641   6.916   2.756  0.7516  0.1582  2.6560
 5521SOL    HW217463   6.506   6.836   2.801 -0.5205  1.8693  1.9526
 5522SOL     OW17464   3.198   5.526   0.882  0.6451 -0.1192 -0.8374
 5522SOL    HW117465   3.192   5.494   0.977 -0.5654  0.9203 -0.5408
 5522SOL    HW217466   3.155   5.460   0.821  3.1514 -1.7857 -0.9684
 5523SOL     OW17467   2.786   1.609   1.587  0.0155  0.2302  0.4034
 5523SOL    HW117468   2.863   1.554   1.553 -0.6269 -0.3762 -0.0826
 5523SOL    HW217469   2.811   1.650   1.675  1.9323  2.3107 -0.9953
 5524SOL     OW17470   3.371   1.538   4.267  0.1073 -0.4228  0.7641
 5524SOL    HW117471   3.371   1.438   4.255 -1.4729 -0.2428 -1.2973
 5524SOL    HW217472   3.306   1.562   4.339  0.7787 -0.8858  1.5428
 5525SOL     OW17473   6.966   1.941   3.441 -0.4772  0.4940 -0.4329
 5525SOL    HW117474   6.970   1.876   3.365  1.9991  0.8104 -0.6364
 5525SOL    HW217475   6.989   1.895   3.526  0.5215  0.9155 -0.4635
 5526SOL     OW17476   4.779   3.566   1.761  0.3785  0.1259  0.2190
 5526SOL    HW117477   4.746   3.660   1.764  0.1236  0.0273  2.5092
 5526SOL    HW217478   4.732   3.516   1.688 -0.8688  1.3011  0.1750
 5527SOL     OW17479   6.391   0.092   2.244 -0.0068  0.3842  0.0172
 5527SOL    HW117480   6.300   0.126   2.220  0.9351  2.9837 -0.1643
 5527SOL    HW217481   6.418   0.130   2.333  1.0820 -0.0199 -0.1310
 5528SOL     OW17482   6.993   0.208   6.627 -0.5791 -0.0065 -0.8536
 5528SOL    HW117483   7.007   0.111   6.648 -0.1065  0.4676  1.1385
 5528SOL    HW217484   7.072   0.261   6.656 -1.5107  1.1785 -0.3834
 5529SOL     OW17485   3.411   6.151   3.156  0.1565 -0.0536  0.0048
 5529SOL    HW117486   3.402   6.084   3.230  1.4219  0.1149  0.3318
 5529SOL    HW217487   3.323   6.160   3.109  0.4096 -3.5112 -1.4204
 5530SOL     OW17488   0.603   0.606   2.280 -0.0120  0.5458  0.1699
 5530SOL    HW117489   0.697   0.621   2.249  0.1440  0.7647  0.7229
 5530SOL    HW217490   0.576   0.681   2.341 -0.1037 -0.1450  0.9978
 5531SOL     OW17491   0.411   3.836   0.895 -0.0588 -0.1756  0.1209
 5531SOL    HW117492   0.432   3.753   0.946  1.8505  1.2456  1.8352
 5531SOL    HW217493   0.447   3.828   0.802  1.5632 -0.7116  0.7528
 5532SOL     OW17494   0.500   5.769   6.272 -0.5146  0.3052 -0.5484
 5532SOL    HW117495   0.523   5.713   6.352  0.9456 -0.4047 -1.4118
 5532SOL    HW217496   0.575   5.832   6.253 -1.6932  1.8590 -0.2313
 5533SOL     OW17497   2.070   2.431   2.548 -0.2760 -0.2652 -0.4849
 5533SOL    HW117498   2.169   2.424   2.565 -0.3889 -1.2059 -0.1010
 5533SOL    HW217499   2.022   2.376   2.616 -1.0325 -0.3077 -1.0468
 5534SOL     OW17500   2.696   0.500   3.428 -0.6589 -0.3740  0.2517
 5534SOL    HW117501   2.703   0.568   3.500  0.5761  0.2379 -0.4111
 5534SOL    HW217502   2.719   0.409   3.465  2.4655  0.2665  0.1819
 5535SOL     OW17503   1.649   1.473   1.984  0.0576 -0.0700 -0.3239
 5535SOL    HW117504   1.656   1.572   1.967  0.7583  0.0799  0.7280
 5535SOL    HW217505   1.736   1.429   1.961 -0.1505 -0.3999 -0.4899
 5536SOL     OW17506   4.646   0.677   4.238 -0.2005  0.5497 -0.0814
 5536SOL    HW117507   4.713   0.653   4.168  0.7504  0.7339  0.7461
 5536SOL    HW217508   4.568   0.615   4.232 -0.1055  0.5330 -1.2633
 5537SOL     OW17509   1.961   1.260   3.530 -0.0776 -0.3550  0.4349
 5537SOL    HW117510   1.936   1.171   3.568 -0.1683 -0.8200 -0.6970
 5537SOL    HW217511   1.914   1.274   3.443  1.7298 -0.2175 -0.5508
 5538SOL     OW17512   3.539   5.722   4.688 -0.3403  0.7029 -0.1481
 5538SOL    HW117513   3.464   5.695   4.748 -0.5347  0.8435 -0.3281
 5538SOL    HW217514   3.597   5.642   4.669 -0.7193  0.4870 -0.4049
 5539SOL     OW17515   1.879   3.864   6.535 -0.0107 -0.5676 -0.2732
 5539SOL    HW117516   1.914   3.911   6.616 -1.8047  0.3380  0.0482
 5539SOL    HW217517   1.797   3.813   6.560 -1.0033  0.3014 -1.6310
 5540SOL     OW17518   4.102   6.103   0.980 -0.1772  0.5931  0.3822
 5540SOL    HW117519   4.126   6.026   0.921 -0.1599  0.3001  0.7724
 5540SOL    HW217520   4.180   6.125   1.039  0.1958  1.5750 -0.4327
 5541SOL     OW17521   4.151   0.755   6.061 -0.3746 -0.1119  0.2429
 5541SOL    HW117522   4.114   0.846   6.076  0.7733  0.1416  1.8484
 5541SOL    HW217523   4.213   0.757   5.983 -1.8530 -0.0107 -0.9760
 5542SOL     OW17524   5.571   3.785   5.232 -0.1212 -0.1604 -0.5236
 5542SOL    HW117525   5.505   3.756   5.302  0.9729  1.3707  1.2373
 5542SOL    HW217526   5.659   3.802   5.275  0.7062  0.4207 -2.3852
 5543SOL     OW17527   0.934   1.899   5.215 -1.2727 -0.6299 -0.0208
 5543SOL    HW117528   0.904   1.845   5.136  0.6548 -1.6076 -0.1359
 5543SOL    HW217529   1.025   1.935   5.198 -2.1405  2.0362  0.4075
 5544SOL     OW17530   5.581   0.032   6.016  0.2825  0.2961  0.1077
 5544SOL    HW117531   5.623  -0.042   6.069  0.1684  0.4789  0.4543
 5544SOL    HW217532   5.647   0.069   5.951  0.9753  1.2446  1.3211
 5545SOL     OW17533   1.978   1.794   2.397 -0.2178  0.1938 -0.2227
 5545SOL    HW117534   1.921   1.716   2.422 -1.3413  0.7969 -0.8550
 5545SOL    HW217535   2.060   1.761   2.350  0.9241 -0.8061  2.2980
 5546SOL     OW17536   3.017   4.850   5.243  0.4982 -0.3040  0.2956
 5546SOL    HW117537   2.992   4.847   5.340 -1.0130  0.8089 -0.0217
 5546SOL    HW217538   2.981   4.770   5.196 -1.1929  0.5113  0.1507
 5547SOL     OW17539   3.064   5.704   3.840  0.1844 -0.0671  0.3348
 5547SOL    HW117540   3.019   5.639   3.779 -1.1888 -0.7740  2.0411
 5547SOL    HW217541   3.141   5.658   3.886  0.0572 -0.0880  0.5270
 5548SOL     OW17542   0.371   3.352   4.299  0.0824  0.0206 -0.0412
 5548SOL    HW117543   0.313   3.271   4.288  0.8284 -0.5658  0.2109
 5548SOL    HW217544   0.465   3.329   4.275  0.5487  0.4466  1.2552
 5549SOL     OW17545   3.091   6.750   6.129 -0.4061  0.1331 -0.1982
 5549SOL    HW117546   3.128   6.662   6.156 -0.6167  0.0786 -0.0839
 5549SOL    HW217547   3.163   6.819   6.131 -0.3607  0.0721  0.2318
 5550SOL     OW17548   2.964   5.315   1.674  0.1312 -0.2134 -0.5975
 5550SOL    HW117549   2.946   5.411   1.692 -2.2659 -0.8366  0.6394
 5550SOL    HW217550   2.979   5.302   1.576 -0.9752  1.2126 -0.9831
 5551SOL     OW17551   0.719   2.531   2.982  0.1406  0.7226 -0.2865
 5551SOL    HW117552   0.721   2.482   3.070 -0.1976 -3.0655 -2.1959
 5551SOL    HW217553   0.812   2.561   2.959  0.4401  0.6369  0.7515
 5552SOL     OW17554   1.787   1.213   2.601  0.1854 -0.5550  0.3835
 5552SOL    HW117555   1.739   1.154   2.536 -1.7757  0.9573  0.3735
 5552SOL    HW217556   1.864   1.258   2.555 -0.4315 -0.4440 -0.5723
 5553SOL     OW17557   4.467   6.199   5.727 -0.5256  0.0196  0.3979
 5553SOL    HW117558   4.545   6.155   5.770  0.6898  1.5546 -0.1029
 5553SOL    HW217559   4.397   6.218   5.795 -0.5123 -1.4662  0.8425
 5554SOL     OW17560   1.891   1.424   3.955  0.0655 -0.1839  0.1745
 5554SOL    HW117561   1.821   1.353   3.942  0.7594 -0.7999 -0.3184
 5554SOL    HW217562   1.895   1.449   4.051  0.8630 -1.9602  0.6428
 5555SOL     OW17563   6.672   6.409   0.686 -1.0609  0.0449  0.6816
 5555SOL    HW117564   6.688   6.419   0.588  0.2895  2.2864  1.0674
 5555SOL    HW217565   6.636   6.495   0.723  1.0755  0.2115  2.5979
 5556SOL     OW17566   0.555   2.001   6.391 -0.3989 -0.6516  0.6495
 5556SOL    HW117567   0.564   2.034   6.486 -0.5408  1.0765  0.1075
 5556SOL    HW217568   0.459   2.002   6.365 -0.2890 -0.3503  0.2463
 5557SOL     OW17569   4.324   0.550   2.511  0.0168  0.0445 -0.2049
 5557SOL    HW117570   4.355   0.645   2.519 -2.1175  0.8368 -0.4823
 5557SOL    HW217571   4.374   0.504   2.438 -0.5377  1.7389 -1.7332
 5558SOL     OW17572   4.811   4.528   5.363 -0.4634 -0.1734 -0.6762
 5558SOL    HW117573   4.773   4.436   5.373 -0.2715 -0.2968 -1.0674
 5558SOL    HW217574   4.805   4.556   5.267 -0.8512  0.3660 -0.4976
 5559SOL     OW17575   2.831   6.980   2.040 -0.0174  0.4073  0.6769
 5559SOL    HW117576   2.749   7.037   2.028 -0.3976 -0.1315  0.6584
 5559SOL    HW217577   2.888   7.018   2.112 -0.3070  0.7652  0.7205
 5560SOL     OW17578   6.645   1.680   5.366 -0.2932 -0.5840 -0.1642
 5560SOL    HW117579   6.545   1.675   5.376 -0.5528 -0.6559 -2.2739
 5560SOL    HW217580   6.677   1.768   5.401 -1.5913  0.9088 -2.4526
 5561SOL     OW17581   4.131   5.726   3.495 -0.1629  0.5661  0.0398
 5561SOL    HW117582   4.115   5.745   3.398  1.6480  0.0958 -0.3863
 5561SOL    HW217583   4.053   5.760   3.549 -1.4406  0.3893 -1.6009
 5562SOL     OW17584   4.090   3.688   0.867  0.0611 -0.0822 -0.6520
 5562SOL    HW117585   4.090   3.669   0.965  1.8680  0.4778 -0.5205
 5562SOL    HW217586   4.094   3.601   0.816  0.3319 -0.3358 -0.2060
 5563SOL     OW17587   2.892   4.274   0.582 -0.2059  0.0079 -0.3390
 5563SOL    HW117588   2.885   4.347   0.650  1.2330  0.0210 -0.1897
 5563SOL    HW217589   2.946   4.199   0.619 -2.2278 -1.4817 -0.2325
 5564SOL     OW17590   6.995   0.496   3.000 -0.5615  0.4020 -0.1716
 5564SOL    HW117591   6.923   0.525   3.064  0.3536  2.3154  0.0490
 5564SOL    HW217592   7.033   0.409   3.031 -2.7598 -0.6724 -0.3045
 5565SOL     OW17593   1.187   2.739   5.332 -0.8079  0.2908  0.1330
 5565SOL    HW117594   1.152   2.793   5.255  0.9890  0.2238 -0.7852
 5565SOL    HW217595   1.127   2.661   5.349 -2.2814  1.3646  0.0903
 5566SOL     OW17596   3.716   4.396   6.560  0.6202  0.0728  0.5866
 5566SOL    HW117597   3.620   4.374   6.576  0.2269  0.7314 -0.7146
 5566SOL    HW217598   3.753   4.447   6.638 -0.2914  0.4433  0.7863
 5567SOL     OW17599   1.190   4.571   3.043 -0.2710  0.3685  1.1314
 5567SOL    HW117600   1.256   4.619   2.986 -2.6108  2.0981 -0.2836
 5567SOL    HW217601   1.209   4.472   3.039  1.6213  0.7245  0.0349
 5568SOL     OW17602   5.476   3.474   6.944 -0.2066  0.0872 -0.3721
 5568SOL    HW117603   5.498   3.377   6.956 -2.7028 -0.3907  1.0979
 5568SOL    HW217604   5.428   3.487   6.856  0.9673  0.1849 -1.0120
 5569SOL     OW17605   5.879   1.905   5.676 -0.4463  0.2614 -0.0037
 5569SOL    HW117606   5.821   1.986   5.681  2.0973  2.1685  0.6071
 5569SOL    HW217607   5.930   1.895   5.761  0.8767 -0.7448 -0.8773
 5570SOL     OW17608   1.725   2.257   0.841 -0.3194  0.4120  0.2417
 5570SOL    HW117609   1.649   2.250   0.905 -1.7777  1.7393 -1.2679
 5570SOL    HW217610   1.718   2.342   0.789  1.1236 -0.3372 -1.2927
 5571SOL     OW17611   1.328   5.600   4.916  0.2714 -0.1442  0.1882
 5571SOL    HW117612   1.325   5.685   4.863  0.4829  0.3994  1.0364
 5571SOL    HW217613   1.416   5.594   4.963 -0.5381  0.2036  1.8025
 5572SOL     OW17614   0.678   6.261   4.637 -0.1606 -0.0764 -0.0941
 5572SOL    HW117615   0.743   6.330   4.671 -1.4302  0.3958  1.4981
 5572SOL    HW217616   0.721   6.171   4.640  0.2220  0.1349  1.6125
 5573SOL     OW17617   2.086   1.940   6.295  0.3642  0.4750 -0.2985
 5573SOL    HW117618   2.174   1.933   6.247  1.4861 -0.4789  1.7614
 5573SOL    HW217619   2.061   1.850   6.330 -1.6997  0.6474 -1.2190
 5574SOL     OW17620   1.121   6.206   6.180 -0.2429 -0.5256  0.1271
 5574SOL    HW117621   1.076   6.131   6.229  0.1280  0.2480  1.7212
 5574SOL    HW217622   1.172   6.170   6.102  0.9067 -2.1059  1.5386
 5575SOL     OW17623   1.041   0.218   2.037  0.1359 -0.2921 -0.8281
 5575SOL    HW117624   1.080   0.308   2.020 -0.1480  0.0047  0.0744
 5575SOL    HW217625   0.941   0.222   2.029 -0.0368 -0.0854  1.0696
 5576SOL     OW17626   4.793   6.373   4.868 -0.2949 -0.8043 -0.7764
 5576SOL    HW117627   4.700   6.350   4.897 -0.9205 -0.2876 -2.2666
 5576SOL    HW217628   4.838   6.426   4.940 -1.3156 -0.6595 -0.2219
 5577SOL     OW17629   1.524   3.528   5.592 -0.5333  0.7355  0.3290
 5577SOL    HW117630   1.602   3.565   5.542  0.4612 -0.9617  0.5441
 5577SOL    HW217631   1.526   3.562   5.686  1.1155 -0.7796  0.8981
 5578SOL     OW17632   3.956   0.728   6.677  0.3852  0.3748  0.3110
 5578SOL    HW117633   3.936   0.793   6.750  1.1134  1.6893 -0.6066
 5578SOL    HW217634   3.889   0.740   6.603 -0.6550 -1.2905  0.9370
 5579SOL     OW17635   4.547   6.600   2.093  0.1061  0.2278  0.6683
 5579SOL    HW117636   4.593   6.672   2.145  4.1256 -0.2428 -1.8513
 5579SOL    HW217637   4.530   6.631   2.000 -1.8316 -0.8282  0.6090
 5580SOL     OW17638   0.062   6.361   1.474  0.3408  0.4049  0.6715
 5580SOL    HW117639   0.052   6.432   1.544  1.0040  0.9966  0.1805
 5580SOL    HW217640  -0.012   6.294   1.484  0.2766  0.6180  1.7653
 5581SOL     OW17641   2.439   4.302   6.390 -0.0627 -0.2408  0.1537
 5581SOL    HW117642   2.502   4.321   6.465  0.4021  1.3820 -0.6009
 5581SOL    HW217643   2.484   4.323   6.303 -1.4354  0.4146 -0.4313
 5582SOL     OW17644   3.177   3.672   5.115  0.3284  0.6043 -0.1596
 5582SOL    HW117645   3.277   3.665   5.119  0.2579 -0.7165 -0.0593
 5582SOL    HW217646   3.151   3.752   5.062  1.4542  0.4631 -0.9679
 5583SOL     OW17647   5.746   0.946   6.171 -0.8708  0.0843  0.1520
 5583SOL    HW117648   5.833   0.905   6.199  0.0727  1.7053 -0.3208
 5583SOL    HW217649   5.712   1.006   6.243 -0.3638  1.3108 -0.6123
 5584SOL     OW17650   5.892   3.116   4.346  0.1857  0.7747 -0.2444
 5584SOL    HW117651   5.878   3.039   4.284 -0.8572  1.3868 -0.7949
 5584SOL    HW217652   5.844   3.099   4.432  0.9032  0.3142  0.0700
 5585SOL     OW17653   5.455   6.669   1.526  0.6490  0.4477  0.3661
 5585SOL    HW117654   5.393   6.739   1.491 -3.0440 -1.0764  3.2329
 5585SOL    HW217655   5.513   6.709   1.597 -1.1608  0.8269  1.7159
 5586SOL     OW17656   1.687   2.140   6.302  0.0486  0.0289 -0.5594
 5586SOL    HW117657   1.760   2.172   6.241  0.0534 -1.3455 -1.3262
 5586SOL    HW217658   1.631   2.217   6.331 -0.7633  0.6169 -3.3731
 5587SOL     OW17659   2.114   4.412   2.828  0.2318 -0.4625 -0.2697
 5587SOL    HW117660   2.176   4.340   2.859 -0.4759 -0.8166  0.3808
 5587SOL    HW217661   2.069   4.452   2.908  0.6451  0.7339 -0.6214
 5588SOL     OW17662   4.944   4.902   6.521 -0.0226 -0.1729  0.5811
 5588SOL    HW117663   4.924   4.903   6.423 -1.5586 -0.0506  0.8734
 5588SOL    HW217664   4.882   4.839   6.567 -0.8686  1.4681  1.7772
 5589SOL     OW17665   0.989   2.001   5.872  0.4725  0.5226  0.2130
 5589SOL    HW117666   1.042   1.938   5.929 -1.0098 -0.2694  0.7784
 5589SOL    HW217667   0.904   2.025   5.919  0.2243  1.6077 -0.7449
 5590SOL     OW17668   0.042   6.861   4.217  0.0912 -0.7101  1.2682
 5590SOL    HW117669   0.116   6.812   4.264  0.4551  0.8455  2.3977
 5590SOL    HW217670   0.003   6.929   4.279  0.1341  0.9675 -0.4608
 5591SOL     OW17671   5.417   2.069   0.024  0.4536  0.3591 -0.0490
 5591SOL    HW117672   5.444   2.155  -0.020  0.5560  0.7485  0.7453
 5591SOL    HW217673   5.317   2.061   0.022  0.4297  0.6068  0.0610
 5592SOL     OW17674   0.606   0.975   1.482  0.0057 -0.4282  0.0441
 5592SOL    HW117675   0.579   0.881   1.505  1.0145 -1.1901 -1.7293
 5592SOL    HW217676   0.531   1.019   1.432  0.3371 -1.0499 -1.0287
 5593SOL     OW17677   1.508   2.851   6.802  0.2814  0.0563  0.0317
 5593SOL    HW117678   1.608   2.854   6.794  0.6187  0.1289  2.9968
 5593SOL    HW217679   1.480   2.898   6.886 -2.2050 -0.5271 -0.3908
 5594SOL     OW17680   4.353   1.306   0.209 -0.4788  0.3124  0.5487
 5594SOL    HW117681   4.383   1.383   0.152  2.0214 -0.5221  0.6048
 5594SOL    HW217682   4.345   1.335   0.304 -1.9137  1.0335  0.2351
 5595SOL     OW17683   0.886   5.060   0.444  0.6171 -0.7272 -0.0280
 5595SOL    HW117684   0.826   5.018   0.511  1.5008 -1.0131  0.6083
 5595SOL    HW217685   0.893   5.158   0.461  1.5762 -0.9405  0.9109
 5596SOL     OW17686   5.315   4.025   4.367  0.4645  0.2897 -0.0741
 5596SOL    HW117687   5.338   4.115   4.404  0.5368 -0.6590  2.3213
 5596SOL    HW217688   5.384   3.999   4.299  4.0549 -0.4322  3.4893
 5597SOL     OW17689   6.739   6.992   5.327 -0.4392 -0.1372 -0.5123
 5597SOL    HW117690   6.798   6.939   5.389  0.5494  0.6621 -0.7528
 5597SOL    HW217691   6.742   7.088   5.353 -0.9954  0.0297 -1.0531
 5598SOL     OW17692   1.055   1.076   4.148 -0.6007 -0.3256  0.3993
 5598SOL    HW117693   1.126   1.090   4.217 -1.5039  2.0882  0.9631
 5598SOL    HW217694   1.096   1.040   4.065  1.2266  0.5251  0.8715
 5599SOL     OW17695   5.450   2.960   1.799  0.0359 -0.2688  0.3161
 5599SOL    HW117696   5.512   3.037   1.806  0.6122 -0.6034 -0.8690
 5599SOL    HW217697   5.497   2.876   1.827  0.3257 -0.6089 -1.1166
 5600SOL     OW17698   0.617   3.442   1.465  0.3087  0.6576 -0.0971
 5600SOL    HW117699   0.523   3.411   1.459 -0.2490  1.7110  2.2403
 5600SOL    HW217700   0.634   3.512   1.395 -0.3954 -0.0351 -0.9811
 5601SOL     OW17701   4.828   4.067   1.155 -0.2178  0.8378  0.0992
 5601SOL    HW117702   4.896   3.994   1.150 -0.6549  0.2222  2.3203
 5601SOL    HW217703   4.737   4.028   1.161 -0.3639  1.4134  3.0859
 5602SOL     OW17704   6.880   0.850   1.558  0.4986  0.3570 -0.2416
 5602SOL    HW117705   6.797   0.799   1.580 -0.9758  2.8476  0.3720
 5602SOL    HW217706   6.898   0.843   1.460 -0.4732 -0.1761 -0.3923
 5603SOL     OW17707   4.003   6.843   3.624 -0.2594  0.4301 -0.3629
 5603SOL    HW117708   3.942   6.921   3.616  1.7157  1.9171 -1.8680
 5603SOL    HW217709   3.987   6.779   3.549  0.5137  1.1895 -1.1835
 5604SOL     OW17710   2.814   4.939   3.971 -0.2322 -0.0102  0.6401
 5604SOL    HW117711   2.882   4.883   4.018  1.7264  2.1310  0.5123
 5604SOL    HW217712   2.730   4.942   4.025 -0.0151 -2.0798  1.1866
 5605SOL     OW17713   4.321   0.189   4.801 -0.4087 -0.3785 -0.1446
 5605SOL    HW117714   4.363   0.110   4.755  0.8040 -0.5862  1.2718
 5605SOL    HW217715   4.279   0.159   4.886 -2.5178  0.0372 -0.9729
 5606SOL     OW17716   5.586   3.186   1.774 -0.0989 -0.2089 -0.2687
 5606SOL    HW117717   5.658   3.218   1.712  0.1212 -0.7236 -0.2879
 5606SOL    HW217718   5.557   3.261   1.833  1.5650 -0.3705  0.8115
 5607SOL     OW17719   2.587   1.365   1.624 -0.4655  0.0606 -0.0139
 5607SOL    HW117720   2.532   1.354   1.541  0.2392  0.5359 -0.5572
 5607SOL    HW217721   2.646   1.446   1.614 -0.4045  0.1464  0.9677
 5608SOL     OW17722   6.604   6.580   4.682  0.1238  0.6032 -0.3344
 5608SOL    HW117723   6.606   6.481   4.670 -0.7439  0.5333  0.0197
 5608SOL    HW217724   6.632   6.624   4.596  1.6464  0.0591 -0.1473
 5609SOL     OW17725   5.735   1.977   6.586  0.0396 -0.1734  0.1795
 5609SOL    HW117726   5.682   2.041   6.530 -0.7992  0.1528  1.3261
 5609SOL    HW217727   5.674   1.929   6.649  0.7727 -1.5270 -0.0985
 5610SOL     OW17728   5.077   1.202   5.831 -0.0372  0.1733  0.0520
 5610SOL    HW117729   5.152   1.174   5.891 -0.2545 -0.0102  0.2404
 5610SOL    HW217730   5.113   1.219   5.739  0.4447  1.3000  0.4300
 5611SOL     OW17731   6.533   3.085   1.130 -0.4538 -0.0419 -1.1139
 5611SOL    HW117732   6.449   3.032   1.136 -0.5056 -0.1032 -2.1927
 5611SOL    HW217733   6.537   3.132   1.042 -0.8847  2.5469  0.1324
 5612SOL     OW17734   5.298   1.941   1.449  0.1871 -0.2177 -0.3883
 5612SOL    HW117735   5.269   2.036   1.435 -0.0259 -0.2879 -0.4124
 5612SOL    HW217736   5.223   1.888   1.489 -0.0393 -0.6298 -1.3388
 5613SOL     OW17737   6.556   5.411   5.574 -0.6686  0.0009 -0.6985
 5613SOL    HW117738   6.598   5.486   5.623 -0.9622  0.1471 -0.6678
 5613SOL    HW217739   6.605   5.394   5.488 -0.7509  0.3847 -0.8203
 5614SOL     OW17740   0.272   1.490   3.551  0.0034 -0.4378  0.2293
 5614SOL    HW117741   0.261   1.459   3.646 -1.2485 -1.5664 -0.2550
 5614SOL    HW217742   0.329   1.425   3.502  1.6785  0.7754  0.4699
 5615SOL     OW17743   6.225   3.033   2.493  0.4609 -0.3102 -1.1166
 5615SOL    HW117744   6.187   2.962   2.433 -0.1076 -2.9271  2.0369
 5615SOL    HW217745   6.169   3.041   2.574  2.7584  0.9043  0.4689
 5616SOL     OW17746   1.083   1.219   1.395  0.4026 -0.2461  0.8034
 5616SOL    HW117747   1.153   1.245   1.461 -0.7744 -0.4029  2.1617
 5616SOL    HW217748   0.996   1.260   1.422 -0.0511 -0.0924 -0.8250
 5617SOL     OW17749   1.652   5.616   3.205  0.1316  0.2146 -0.3828
 5617SOL    HW117750   1.599   5.532   3.214  2.2174 -1.0143  1.3969
 5617SOL    HW217751   1.695   5.619   3.114 -0.0106 -0.6095 -0.4801
 5618SOL     OW17752   6.570   1.008   3.301  0.3360  0.6844 -0.0612
 5618SOL    HW117753   6.556   1.096   3.256 -0.9243  1.1114  1.1177
 5618SOL    HW217754   6.605   1.022   3.393 -3.4639  0.2613  1.6193
 5619SOL     OW17755   3.463   2.932   4.202  0.2754  0.0089  0.1573
 5619SOL    HW117756   3.431   3.012   4.151  1.4966  0.4078  0.0023
 5619SOL    HW217757   3.558   2.946   4.230  0.3503 -1.1907  0.5313
 5620SOL     OW17758   5.752   4.741   6.590 -0.3356 -0.1286 -0.0618
 5620SOL    HW117759   5.790   4.832   6.607 -0.4663 -0.4016  2.0228
 5620SOL    HW217760   5.816   4.671   6.621 -0.4460 -0.7587 -1.1898
 5621SOL     OW17761   1.409   2.890   6.440 -0.5248  0.1909 -0.4820
 5621SOL    HW117762   1.371   2.802   6.411  0.7410 -1.5259  2.5192
 5621SOL    HW217763   1.336   2.957   6.451 -2.0101 -1.4906  0.3200
 5622SOL     OW17764   2.697   5.721   4.892 -0.4677  0.0577 -0.8808
 5622SOL    HW117765   2.617   5.781   4.899  0.2340  1.0173 -0.7979
 5622SOL    HW217766   2.761   5.759   4.825  1.4191  1.1279  1.3997
 5623SOL     OW17767   3.650   6.862   6.091  0.4324  0.1148  0.2747
 5623SOL    HW117768   3.555   6.846   6.068  0.0726 -0.5007  2.0026
 5623SOL    HW217769   3.691   6.777   6.126  1.7532  0.2553 -0.8138
 5624SOL     OW17770   5.695   3.879   2.953  0.0425 -0.0363 -0.0625
 5624SOL    HW117771   5.633   3.829   2.893  1.2197  1.3641 -2.6207
 5624SOL    HW217772   5.645   3.952   2.999 -0.8210 -0.9371  0.4669
 5625SOL     OW17773   3.013   5.958   0.080  0.6153 -0.3121  0.2474
 5625SOL    HW117774   2.928   6.006   0.060  0.7880 -0.2146 -0.2505
 5625SOL    HW217775   3.074   5.964   0.002 -0.4259 -3.7770 -0.9983
 5626SOL     OW17776   5.949   4.419   0.629 -0.4764 -0.1425  0.7757
 5626SOL    HW117777   5.954   4.348   0.559 -1.0038 -1.4153  1.9652
 5626SOL    HW217778   6.034   4.420   0.681 -0.1577  0.6727  0.2547
 5627SOL     OW17779   6.915   6.541   1.627  0.0981  0.1650  0.6571
 5627SOL    HW117780   6.842   6.539   1.696  1.9281  2.0126  2.7848
 5627SOL    HW217781   6.875   6.560   1.537 -1.9088  3.7169  2.1029
 5628SOL     OW17782   6.650   1.989   5.699 -0.1247  0.2913  0.5685
 5628SOL    HW117783   6.734   1.963   5.747 -1.0285 -2.5996  0.7578
 5628SOL    HW217784   6.664   1.978   5.600 -0.0794  0.4801  0.5531
 5629SOL     OW17785   1.262   0.404   5.019  0.4368 -0.2549 -0.0280
 5629SOL    HW117786   1.179   0.349   5.010  0.6061 -0.4421 -0.4674
 5629SOL    HW217787   1.263   0.449   5.108 -1.8804  2.6163 -1.3165
 5630SOL     OW17788   2.035   3.677   0.025  0.3608 -0.2225 -0.0430
 5630SOL    HW117789   1.992   3.590   0.046  0.6081 -0.4217 -0.3533
 5630SOL    HW217790   2.069   3.675  -0.069 -2.4873  1.3191 -1.2392
 5631SOL     OW17791   2.884   1.912   2.051  0.0693  0.3540 -0.1475
 5631SOL    HW117792   2.793   1.938   2.085  0.2186  0.4015  0.2113
 5631SOL    HW217793   2.952   1.978   2.083 -0.0535  1.5181 -2.1078
 5632SOL     OW17794   2.339   0.490   6.828 -0.1141 -0.0583 -0.1491
 5632SOL    HW117795   2.246   0.454   6.820 -0.1292 -0.2146  0.7320
 5632SOL    HW217796   2.377   0.466   6.916  0.2229  1.2739  0.0941
 5633SOL     OW17797   2.176   4.640   6.023  0.0679  0.3924  0.7412
 5633SOL    HW117798   2.192   4.701   6.101  0.2845 -0.1955  1.1645
 5633SOL    HW217799   2.080   4.646   5.996  0.1286  1.0602  0.6522
 5634SOL     OW17800   3.123   5.875   2.729 -0.6826  0.2837  0.0682
 5634SOL    HW117801   3.134   5.950   2.663 -0.5719 -0.1546 -0.4218
 5634SOL    HW217802   3.096   5.792   2.680  2.0749 -0.7684  0.1747
 5635SOL     OW17803   4.535   1.973   0.596  0.1370  0.0438 -0.0823
 5635SOL    HW117804   4.447   1.929   0.610 -1.2616  3.0454  1.6299
 5635SOL    HW217805   4.545   1.999   0.500 -0.9923 -0.0724 -0.2433
 5636SOL     OW17806   5.362   0.661   4.808  0.2677  0.1051  0.0759
 5636SOL    HW117807   5.320   0.576   4.839  1.5552  0.3311  2.7091
 5636SOL    HW217808   5.309   0.739   4.843 -0.4818  0.4720 -1.7089
 5637SOL     OW17809   6.140   1.454   4.839 -0.0527 -0.1672  0.3146
 5637SOL    HW117810   6.061   1.512   4.820  0.3077  0.2673  0.0986
 5637SOL    HW217811   6.163   1.460   4.936 -0.4195 -0.4735  0.4223
 5638SOL     OW17812   0.159   0.720   0.027  0.3843 -0.3472  0.2923
 5638SOL    HW117813   0.085   0.738  -0.038 -0.0755 -0.3714  0.8101
 5638SOL    HW217814   0.241   0.694  -0.024  0.3217  0.6528 -0.3329
 5639SOL     OW17815   1.839   5.868   2.315  0.4584  0.2863  0.7415
 5639SOL    HW117816   1.915   5.859   2.251  0.2008  1.8981  0.1524
 5639SOL    HW217817   1.840   5.960   2.354 -1.2412  0.3721  0.6386
 5640SOL     OW17818   2.919   6.896   5.966  0.3869  0.0899  0.3626
 5640SOL    HW117819   2.846   6.942   6.017 -0.9685 -1.5111 -0.0093
 5640SOL    HW217820   2.982   6.853   6.030  0.6493  0.9618  0.6936
 5641SOL     OW17821   1.040   3.889   5.311 -0.1060  0.1419  0.1588
 5641SOL    HW117822   1.084   3.803   5.284 -0.7199 -0.0968 -0.1074
 5641SOL    HW217823   1.070   3.962   5.250 -1.6102 -0.4267 -1.3420
 5642SOL     OW17824   3.753   0.942   0.131  0.0480 -0.6036  0.2792
 5642SOL    HW117825   3.787   0.878   0.200 -0.1761 -0.7419  0.2632
 5642SOL    HW217826   3.668   0.906   0.091  1.9552 -2.3103 -2.6080
 5643SOL     OW17827   5.849   1.353   3.042  0.9467  0.2801  0.1693
 5643SOL    HW117828   5.903   1.279   3.001  1.6503 -0.2566  1.9740
 5643SOL    HW217829   5.907   1.407   3.103  0.1178  1.5329 -0.1093
 5644SOL     OW17830   3.622   1.243   4.951  0.0016 -0.0899 -0.0481
 5644SOL    HW117831   3.622   1.168   4.886 -0.0036  0.6754 -0.9489
 5644SOL    HW217832   3.545   1.233   5.014  1.2588 -2.0243  1.2838
 5645SOL     OW17833   6.674   6.325   4.631 -0.1092  0.0752 -0.4485
 5645SOL    HW117834   6.728   6.362   4.555  1.2046  0.3908  0.6072
 5645SOL    HW217835   6.619   6.248   4.598  3.2254 -2.2834 -1.0383
 5646SOL     OW17836   6.679   0.508   1.581  0.0774 -0.0367  0.5389
 5646SOL    HW117837   6.716   0.574   1.646 -1.0936  0.6630  0.5187
 5646SOL    HW217838   6.616   0.554   1.519 -0.0857 -1.0171 -0.0428
 5647SOL     OW17839   6.241   3.187   5.209  0.9465  0.0436  0.2387
 5647SOL    HW117840   6.297   3.238   5.143 -0.7155  0.8840 -0.5687
 5647SOL    HW217841   6.160   3.151   5.163  0.3219 -0.3262  1.5910
 5648SOL     OW17842   3.295   2.097   3.984  0.1602 -0.0200 -0.4336
 5648SOL    HW117843   3.259   2.173   4.038 -0.0214 -0.7971  0.5650
 5648SOL    HW217844   3.219   2.044   3.945  0.2855  0.3190 -1.1513
 5649SOL     OW17845   6.660   0.309   3.762  0.1597 -0.4380 -0.1472
 5649SOL    HW117846   6.683   0.225   3.810  0.4597 -0.7807 -0.8834
 5649SOL    HW217847   6.686   0.301   3.666  0.7283  0.7063 -0.1054
 5650SOL     OW17848   4.705   5.900   5.501 -0.0999  0.5547 -0.0583
 5650SOL    HW117849   4.659   5.988   5.518 -0.8699  0.7227 -2.5165
 5650SOL    HW217850   4.639   5.836   5.461  1.1193 -0.1784 -0.9507
 5651SOL     OW17851   2.107   5.183   2.556 -0.2678  0.0951 -0.9958
 5651SOL    HW117852   2.069   5.128   2.630 -1.8579  0.8577 -1.1977
 5651SOL    HW217853   2.034   5.236   2.513  1.0667  1.7787 -1.3043
 5652SOL     OW17854   4.310   3.816   6.266 -0.0576 -0.1405  0.6302
 5652SOL    HW117855   4.304   3.717   6.270 -0.2760 -0.0809  2.7749
 5652SOL    HW217856   4.405   3.843   6.251  0.1548 -0.6659  1.0042
 5653SOL     OW17857   2.144   0.200   0.152 -1.0416 -0.1208 -0.0486
 5653SOL    HW117858   2.171   0.165   0.242 -0.5944  1.4210  0.4320
 5653SOL    HW217859   2.060   0.154   0.123 -0.3374 -1.7830  0.4147
 5654SOL     OW17860   3.108   0.428   6.471  0.2139  0.3653  0.0291
 5654SOL    HW117861   3.108   0.351   6.534  0.2925 -0.6946 -1.2192
 5654SOL    HW217862   3.035   0.492   6.495  0.0925 -0.1324  1.0216
 5655SOL     OW17863   6.937   4.259   3.762  0.4134  0.6064  0.3062
 5655SOL    HW117864   7.002   4.229   3.693  1.1270 -0.3175  1.3471
 5655SOL    HW217865   6.874   4.185   3.783 -0.1732  1.0756  0.2380
 5656SOL     OW17866   1.695   6.001   7.021  0.5248 -0.1520  0.3830
 5656SOL    HW117867   1.710   6.036   7.114  1.6828  0.5869 -0.0539
 5656SOL    HW217868   1.712   6.074   6.955  1.3065 -1.0750 -0.4771
 5657SOL     OW17869   6.408   5.297   1.937  0.3926  0.1292 -0.4412
 5657SOL    HW117870   6.443   5.381   1.895 -0.9329  0.4690 -0.8941
 5657SOL    HW217871   6.435   5.219   1.880  0.8650  0.3294 -0.4976
 5658SOL     OW17872   3.124   4.831   5.707 -0.5055  0.6972  0.3278
 5658SOL    HW117873   3.074   4.847   5.621  1.5562  0.7587 -0.9251
 5658SOL    HW217874   3.137   4.918   5.754 -0.1484  0.9332 -0.1911
 5659SOL     OW17875   3.227   3.809   2.563  0.6608 -0.6423  0.0912
 5659SOL    HW117876   3.304   3.830   2.624 -0.6136  0.1024  1.5094
 5659SOL    HW217877   3.141   3.815   2.614 -0.4847  0.1350 -1.8213
 5660SOL     OW17878   0.457   5.734   1.991 -0.5622 -0.5258  0.0260
 5660SOL    HW117879   0.423   5.640   1.989  2.8571 -1.8601 -0.6222
 5660SOL    HW217880   0.456   5.771   1.898  0.2629 -0.7813 -0.0870
 5661SOL     OW17881   5.196   6.277   4.801 -0.5192 -0.3016  0.4160
 5661SOL    HW117882   5.101   6.246   4.799 -0.0552 -1.7680 -1.2273
 5661SOL    HW217883   5.248   6.221   4.866 -0.8568  0.9155  1.8008
 5662SOL     OW17884   0.334   1.339   4.994  0.2940 -0.1291 -0.5440
 5662SOL    HW117885   0.334   1.339   5.094 -3.2514  2.1613 -0.3817
 5662SOL    HW217886   0.423   1.370   4.961  0.5452  2.3470  2.0669
 5663SOL     OW17887   2.580   3.887   5.612 -0.0400 -0.4710 -0.5136
 5663SOL    HW117888   2.549   3.882   5.517  0.1347 -2.9300 -0.5143
 5663SOL    HW217889   2.649   3.816   5.627  1.2506  1.0427  1.0209
 5664SOL     OW17890   6.141   6.555   1.202 -0.2548 -0.0745  0.0052
 5664SOL    HW117891   6.144   6.623   1.275  2.2600  0.7001 -0.7306
 5664SOL    HW217892   6.115   6.599   1.116 -0.0720 -0.3364 -0.1863
 5665SOL     OW17893   2.186   1.501   5.638  0.1874  0.5887  0.0481
 5665SOL    HW117894   2.166   1.406   5.664 -0.3677  0.7148  0.0990
 5665SOL    HW217895   2.184   1.509   5.539  0.1399  0.5663  0.0472
 5666SOL     OW17896   5.815   5.634   0.751  0.6287  0.1412 -0.6400
 5666SOL    HW117897   5.794   5.667   0.659  0.5128  1.5497 -0.1341
 5666SOL    HW217898   5.842   5.538   0.747  0.3996  0.1181 -2.1066
 5667SOL     OW17899   5.482   4.290   3.845  0.1207 -0.4564  0.0334
 5667SOL    HW117900   5.435   4.326   3.764 -2.3070 -0.9110  1.1555
 5667SOL    HW217901   5.522   4.201   3.823  0.1806 -0.2145 -0.8860
 5668SOL     OW17902   0.356   2.974   5.260 -0.4359  0.0076  0.0810
 5668SOL    HW117903   0.318   3.066   5.273 -0.7083 -0.0764 -0.1014
 5668SOL    HW217904   0.438   2.964   5.315 -0.8348  0.0951  0.7055
 5669SOL     OW17905   6.160   2.333   5.078 -0.0583  0.2287  1.3818
 5669SOL    HW117906   6.119   2.284   5.001  0.7164 -0.2619  1.2659
 5669SOL    HW217907   6.208   2.414   5.044 -1.6691  1.3376  1.6122
 5670SOL     OW17908   6.823   0.842   2.043 -0.2452  0.4833  0.1492
 5670SOL    HW117909   6.899   0.868   2.102  1.5780 -0.9601 -1.4262
 5670SOL    HW217910   6.777   0.761   2.081  3.0663 -2.6076 -1.8566
 5671SOL     OW17911   2.414   0.533   5.569  0.1338 -0.7487  0.7686
 5671SOL    HW117912   2.382   0.578   5.652 -1.0651  0.5854 -0.3529
 5671SOL    HW217913   2.477   0.593   5.520 -1.2576 -0.3319 -0.6084
 5672SOL     OW17914   4.407   3.630   5.301 -0.6424 -0.6130 -0.0139
 5672SOL    HW117915   4.350   3.592   5.229  0.0692 -2.5234  0.3747
 5672SOL    HW217916   4.504   3.611   5.281 -0.2532  0.9958  0.2259
 5673SOL     OW17917   1.442   4.888   1.711  0.2493 -0.2200  0.4444
 5673SOL    HW117918   1.442   4.857   1.616 -1.1811 -2.1460  1.0003
 5673SOL    HW217919   1.452   4.809   1.772  0.1586  0.8579  1.9162
 5674SOL     OW17920   2.195   0.767   6.582 -0.3156 -0.4467 -0.4729
 5674SOL    HW117921   2.122   0.814   6.532  0.3148  0.9763 -0.0935
 5674SOL    HW217922   2.267   0.739   6.518 -0.4152 -0.3695 -0.6199
 5675SOL     OW17923   4.242   1.316   5.032  0.2583 -0.2570 -0.4232
 5675SOL    HW117924   4.240   1.413   5.053  1.3171 -0.3609  0.2827
 5675SOL    HW217925   4.236   1.264   5.117  1.9271 -0.7498 -0.5657
 5676SOL     OW17926   0.536   4.827   2.760 -0.2659  0.1535  0.0496
 5676SOL    HW117927   0.503   4.736   2.734 -1.8156  0.4260  0.9168
 5676SOL    HW217928   0.461   4.878   2.802  0.3654  2.1072 -1.0760
 5677SOL     OW17929   5.665   0.203   3.865  0.0720 -0.8189 -0.2821
 5677SOL    HW117930   5.731   0.209   3.940 -0.0406  2.9283 -0.3027
 5677SOL    HW217931   5.580   0.164   3.899 -0.0407  0.9538  1.6938
 5678SOL     OW17932   0.779   4.552   1.883  0.5763  0.0607 -0.1640
 5678SOL    HW117933   0.787   4.457   1.913  0.2212 -0.0686 -0.4777
 5678SOL    HW217934   0.871   4.593   1.880  0.5575  0.3381  1.8817
 5679SOL     OW17935   4.897   3.960   7.019  0.5649 -0.9788 -0.1423
 5679SOL    HW117936   4.886   4.018   6.939  2.9960 -0.7912 -0.4319
 5679SOL    HW217937   4.866   4.009   7.100  3.8103  1.5028 -0.1586
 5680SOL     OW17938   2.164   5.925   0.475 -0.5416 -0.1686 -0.4971
 5680SOL    HW117939   2.141   5.961   0.565  0.9901  0.8434 -0.4782
 5680SOL    HW217940   2.259   5.893   0.475 -0.7426 -0.8023 -1.5645
 5681SOL     OW17941   2.497   1.291   0.666  0.5607  0.0643  0.5173
 5681SOL    HW117942   2.415   1.348   0.654  0.9018  1.2902  3.1559
 5681SOL    HW217943   2.479   1.200   0.631 -1.4131  0.7256 -0.3372
 5682SOL     OW17944   1.320   3.218   6.559  0.2025 -0.5192  0.1763
 5682SOL    HW117945   1.258   3.147   6.527  1.6545 -1.4770 -0.6451
 5682SOL    HW217946   1.331   3.211   6.658 -1.2749 -0.0724  0.3941
 5683SOL     OW17947   3.065   2.436   5.488 -0.5438 -0.8369 -0.2497
 5683SOL    HW117948   3.143   2.454   5.548 -0.6359 -1.2617  0.0023
 5683SOL    HW217949   3.097   2.427   5.394 -0.5768  1.4449 -0.5506
 5684SOL     OW17950   3.663   4.080   3.695 -0.6622 -0.3982 -0.1119
 5684SOL    HW117951   3.704   4.063   3.606 -1.6035 -0.0739 -0.6311
 5684SOL    HW217952   3.728   4.059   3.767 -0.2927 -1.8516 -0.8362
 5685SOL     OW17953   5.916   6.527   0.725 -0.3320 -0.1810 -0.0770
 5685SOL    HW117954   6.000   6.484   0.759 -1.0071 -1.1886  0.4161
 5685SOL    HW217955   5.877   6.584   0.798 -0.6028 -0.5404  0.0642
 5686SOL     OW17956   1.591   2.914   5.166 -0.2401 -0.0690  0.1731
 5686SOL    HW117957   1.648   2.978   5.115  0.3198  0.4166  1.3640
 5686SOL    HW217958   1.496   2.923   5.137  0.3356 -1.5974 -2.5750
 5687SOL     OW17959   5.857   5.387   4.723  0.6234 -0.1660 -0.1337
 5687SOL    HW117960   5.802   5.371   4.641  2.0237  0.7252 -1.2940
 5687SOL    HW217961   5.880   5.299   4.764 -0.1564 -0.6321 -0.6596
 5688SOL     OW17962   5.979   3.651   0.892  0.2781  0.2559 -0.2865
 5688SOL    HW117963   5.930   3.584   0.836  1.6908 -1.0856  0.0412
 5688SOL    HW217964   5.962   3.743   0.855 -0.8120 -0.3632 -1.4048
 5689SOL     OW17965   4.022   3.846   4.476  0.2915  0.7184 -0.4653
 5689SOL    HW117966   4.021   3.894   4.388  0.1118  0.0315 -0.8406
 5689SOL    HW217967   4.006   3.912   4.549 -0.2643  1.1940 -0.9968
 5690SOL     OW17968   4.073   1.908   3.661 -0.0851  0.2403 -0.3661
 5690SOL    HW117969   3.987   1.887   3.708  1.0780 -0.2300  1.6807
 5690SOL    HW217970   4.103   1.999   3.689  1.7668 -0.9191  1.7554
 5691SOL     OW17971   2.444   1.420   4.201 -0.4577  0.6480 -0.4550
 5691SOL    HW117972   2.347   1.432   4.222 -0.1472 -0.2221  1.6740
 5691SOL    HW217973   2.493   1.506   4.215 -0.7573  0.8418 -0.5979
 5692SOL     OW17974   5.331   2.611   0.965 -0.1708  0.0718  0.0018
 5692SOL    HW117975   5.426   2.583   0.979 -0.6327 -0.5598  2.2149
 5692SOL    HW217976   5.272   2.531   0.965 -0.7015  0.4326 -1.6920
 5693SOL     OW17977   5.146   3.796   1.426  0.1273  0.4207  0.4597
 5693SOL    HW117978   5.060   3.768   1.469  0.4884  1.2618  1.7884
 5693SOL    HW217979   5.146   3.895   1.413 -0.1115  0.1809 -1.8743
 5694SOL     OW17980   2.811   2.475   5.523 -0.3427 -0.4972  0.4268
 5694SOL    HW117981   2.764   2.495   5.437 -1.5670 -1.9655  0.7048
 5694SOL    HW217982   2.907   2.454   5.504 -0.3306  0.2722 -0.4359
 5695SOL     OW17983   1.401   1.657   4.247  0.4717 -0.3497 -0.1285
 5695SOL    HW117984   1.393   1.643   4.149 -2.5263 -0.2880  0.0188
 5695SOL    HW217985   1.313   1.638   4.291  1.6377 -0.0958  2.5296
 5696SOL     OW17986   0.349   0.110   0.219 -0.0669 -0.1680  0.3547
 5696SOL    HW117987   0.348   0.038   0.288 -1.3114  0.4516  1.0132
 5696SOL    HW217988   0.385   0.194   0.259 -2.3777  0.6719  0.8030
 5697SOL     OW17989   0.585   1.143   0.388 -0.6873  0.1684  0.1586
 5697SOL    HW117990   0.651   1.152   0.313 -0.6646  0.1123  0.1722
 5697SOL    HW217991   0.548   1.050   0.389 -2.3988  0.7718 -1.2343
 5698SOL     OW17992   3.096   5.096   5.503 -0.1852  0.6733  0.0489
 5698SOL    HW117993   3.184   5.066   5.469  0.3412  1.6952  0.4659
 5698SOL    HW217994   3.027   5.026   5.483  1.0509 -1.0266  1.4055
 5699SOL     OW17995   1.352   0.803   4.631 -0.2686  0.4157 -0.9018
 5699SOL    HW117996   1.414   0.745   4.684  0.7433  2.3031  0.0923
 5699SOL    HW217997   1.260   0.764   4.633  0.0456 -0.3374  1.0465
 5700SOL     OW17998   0.157   4.294   3.863 -0.2946 -0.7177 -0.1083
 5700SOL    HW117999   0.203   4.320   3.778  0.7666 -1.3904  0.2380
 5700SOL    HW218000   0.058   4.304   3.852 -0.0698  1.7799 -0.5437
 5701SOL     OW18001   5.482   3.062   3.356 -0.1563  0.0912  0.3531
 5701SOL    HW118002   5.407   3.009   3.316  0.7024 -0.1198 -1.0172
 5701SOL    HW218003   5.493   3.035   3.452  0.3798 -2.3806 -0.3350
 5702SOL     OW18004   4.716   0.083   6.477 -0.5115 -0.2830  0.0265
 5702SOL    HW118005   4.722  -0.009   6.439  0.1628 -0.1396 -0.2258
 5702SOL    HW218006   4.671   0.144   6.412  0.5498 -0.0606 -0.5325
 5703SOL     OW18007   6.630   4.644   2.901  0.5526 -0.0791 -0.0352
 5703SOL    HW118008   6.691   4.636   2.823 -1.4228 -0.5978 -1.6014
 5703SOL    HW218009   6.642   4.565   2.961 -0.2935 -1.5045 -1.6528
 5704SOL     OW18010   6.048   2.263   2.886 -0.5166  0.6749  0.0373
 5704SOL    HW118011   6.044   2.220   2.976  1.1912 -1.5293 -0.8345
 5704SOL    HW218012   6.121   2.332   2.886  0.0833  0.0503  0.1218
 5705SOL     OW18013   0.450   1.074   5.294  0.1937  0.1006  0.2434
 5705SOL    HW118014   0.549   1.087   5.284  0.4802 -0.2508  2.1830
 5705SOL    HW218015   0.403   1.160   5.275  0.9255  0.4603  0.0260
 5706SOL     OW18016   2.658   1.594   6.339  0.3244 -0.0125  0.0202
 5706SOL    HW118017   2.611   1.571   6.255 -0.6251 -0.3866  0.6436
 5706SOL    HW218018   2.756   1.576   6.329  0.1309 -0.6338 -0.7937
 5707SOL     OW18019   2.991   1.118   1.702 -0.0378 -0.2436  0.6353
 5707SOL    HW118020   2.980   1.217   1.692  1.6872 -0.1867 -1.7092
 5707SOL    HW218021   2.982   1.092   1.798  0.9286  2.3977  1.5160
 5708SOL     OW18022   0.076   0.361   0.431  0.0152 -0.1012  0.1303
 5708SOL    HW118023   0.033   0.357   0.341  2.1628 -2.3159 -0.9217
 5708SOL    HW218024   0.029   0.299   0.493 -0.7554  0.5405  0.1927
 5709SOL     OW18025   6.895   2.084   5.329 -0.2567 -0.4670  0.3761
 5709SOL    HW118026   6.910   2.017   5.257 -0.9256  0.5384 -0.7305
 5709SOL    HW218027   6.954   2.063   5.407 -1.2768 -3.0224  0.5614
 5710SOL     OW18028   5.837   6.110   4.852 -0.2306 -0.1674 -0.4734
 5710SOL    HW118029   5.839   6.023   4.903  0.3733 -1.1663 -2.1182
 5710SOL    HW218030   5.916   6.165   4.878 -0.2075 -0.4310  0.0402
 5711SOL     OW18031   6.625   1.088   5.516 -0.4512  0.1900 -0.2197
 5711SOL    HW118032   6.535   1.118   5.485  0.5796  2.0862 -1.5285
 5711SOL    HW218033   6.697   1.133   5.463  1.3304 -0.0303  1.8329
 5712SOL     OW18034   5.793   6.051   6.303  0.0780  0.3282 -0.0222
 5712SOL    HW118035   5.731   6.096   6.238  1.3057  0.8762 -0.8540
 5712SOL    HW218036   5.887   6.072   6.279  0.5789  1.0571  2.3291
 5713SOL     OW18037   5.139   4.569   1.928 -0.4202  0.8987 -0.4584
 5713SOL    HW118038   5.076   4.646   1.913 -1.7109 -0.6284 -4.0393
 5713SOL    HW218039   5.095   4.501   1.986 -0.9575  1.0736 -0.6494
 5714SOL     OW18040   2.761   6.800   1.845 -0.6710  0.1141  0.8355
 5714SOL    HW118041   2.681   6.829   1.794 -2.2999 -0.0075  3.1603
 5714SOL    HW218042   2.791   6.875   1.904  1.6348  0.5217 -0.7242
 5715SOL     OW18043   1.132   6.770   3.394 -0.6873 -0.3766  0.7095
 5715SOL    HW118044   1.106   6.727   3.308 -3.0821 -0.5447  1.4563
 5715SOL    HW218045   1.164   6.700   3.458  2.2995 -0.1294 -0.3303
 5716SOL     OW18046   0.647   1.311   4.771  0.0766  0.1374 -0.4634
 5716SOL    HW118047   0.744   1.337   4.768  0.1203 -0.0962 -1.1552
 5716SOL    HW218048   0.638   1.216   4.798  0.1468 -0.3578 -2.0702
 5717SOL     OW18049   0.136   3.000   6.970 -0.0453  0.3644 -0.4715
 5717SOL    HW118050   0.129   3.096   6.997 -2.9918  0.4370 -1.2252
 5717SOL    HW218051   0.138   2.993   6.871 -0.2521 -0.3743 -0.4290
 5718SOL     OW18052   1.564   6.015   5.679 -0.3345 -0.2456  0.2275
 5718SOL    HW118053   1.657   6.015   5.716  0.3013  0.5679 -1.2696
 5718SOL    HW218054   1.554   6.091   5.615 -1.8899 -0.6259 -0.0220
 5719SOL     OW18055   3.227   0.637   0.886  0.1955 -0.3888 -0.5405
 5719SOL    HW118056   3.321   0.615   0.861  1.0541  1.5471  0.7255
 5719SOL    HW218057   3.198   0.580   0.963  1.0287  0.2703  0.2785
 5720SOL     OW18058   1.871   5.016   2.703 -0.1899  0.8338 -0.5124
 5720SOL    HW118059   1.864   4.919   2.725  1.0567  0.8763  0.1578
 5720SOL    HW218060   1.831   5.032   2.612 -2.9471  0.2025  0.4893
 5721SOL     OW18061   6.430   6.912   6.291 -0.6154  0.3406  0.1055
 5721SOL    HW118062   6.398   6.895   6.198  1.8357 -0.7803 -0.6035
 5721SOL    HW218063   6.455   7.009   6.300  0.0651  0.2555 -0.7321
 5722SOL     OW18064   4.439   5.248   4.078  0.2774  0.0712 -0.3449
 5722SOL    HW118065   4.515   5.284   4.131 -0.9382 -0.3628  1.7875
 5722SOL    HW218066   4.372   5.321   4.062 -0.7049 -0.4557  1.2479
 5723SOL     OW18067   6.354   4.626   1.358 -0.3636 -0.0489  0.3274
 5723SOL    HW118068   6.299   4.619   1.442 -0.4614  1.1946  0.3786
 5723SOL    HW218069   6.424   4.695   1.369 -0.4084  0.1710 -0.6408
 5724SOL     OW18070   6.721   2.731   0.156 -0.5346 -0.3017 -0.1084
 5724SOL    HW118071   6.662   2.684   0.221  0.8395  0.3637  1.6881
 5724SOL    HW218072   6.764   2.664   0.095  1.6966 -1.5589  2.6352
 5725SOL     OW18073   6.137   6.353   4.602  0.1677 -0.3843  0.5808
 5725SOL    HW118074   6.072   6.428   4.592 -0.1980 -0.8265 -0.4996
 5725SOL    HW218075   6.167   6.347   4.697 -2.3922 -1.0098  1.4309
 5726SOL     OW18076   4.685   6.769   4.737  0.1126 -0.2487  0.0398
 5726SOL    HW118077   4.654   6.755   4.643 -2.3568 -1.8880  0.9881
 5726SOL    HW218078   4.613   6.739   4.801  2.2460 -0.5198  2.4787
 5727SOL     OW18079   6.335   3.178   4.529 -0.2033 -0.3025  0.1564
 5727SOL    HW118080   6.319   3.252   4.594  0.4570 -0.1734  0.1747
 5727SOL    HW218081   6.431   3.149   4.533  0.4096  1.1450 -2.2318
 5728SOL     OW18082   4.922   2.548   0.648 -0.3779 -0.3651  0.6237
 5728SOL    HW118083   4.996   2.593   0.697  1.2016 -1.3648 -0.7099
 5728SOL    HW218084   4.949   2.533   0.553 -2.9922  0.7593 -0.4006
 5729SOL     OW18085   3.683   1.409   0.128  0.1363 -0.7159 -0.2383
 5729SOL    HW118086   3.735   1.330   0.098 -0.0683 -0.6251 -0.8359
 5729SOL    HW218087   3.744   1.487   0.142  0.6797 -1.4940  2.3734
 5730SOL     OW18088   4.169   3.676   1.387 -0.0415  0.7394 -0.6568
 5730SOL    HW118089   4.103   3.714   1.452 -0.3292  0.7574 -0.9581
 5730SOL    HW218090   4.254   3.729   1.392  0.4424 -0.1019  0.6943
 5731SOL     OW18091   5.996   2.872   5.620 -0.5620  0.3217 -0.0168
 5731SOL    HW118092   5.994   2.781   5.578  0.0906  0.4822 -0.4208
 5731SOL    HW218093   6.060   2.871   5.697 -0.2305  0.5360 -0.2829
 5732SOL     OW18094   0.901   3.642   3.408 -0.0956 -0.4635  0.2198
 5732SOL    HW118095   0.891   3.664   3.505 -0.2337 -2.5985  0.7361
 5732SOL    HW218096   0.812   3.615   3.371  0.3832 -2.1028  0.1883
 5733SOL     OW18097   1.683   4.601   1.925 -0.1885  0.4235 -0.3695
 5733SOL    HW118098   1.746   4.678   1.914  0.7168 -0.6251 -3.3596
 5733SOL    HW218099   1.624   4.594   1.844 -1.1009 -1.3119  0.3932
 5734SOL     OW18100   2.673   6.911   5.321 -0.0170 -0.7069  0.3819
 5734SOL    HW118101   2.666   6.982   5.251  0.8777 -1.0077 -0.0234
 5734SOL    HW218102   2.695   6.953   5.409 -1.1584 -0.3269  0.5025
 5735SOL     OW18103   6.536   1.108   2.080 -0.3134  0.0762 -0.1068
 5735SOL    HW118104   6.524   1.058   2.166 -1.0461  0.2318 -0.1117
 5735SOL    HW218105   6.578   1.048   2.012 -0.8272 -0.4156  0.0029
 5736SOL     OW18106   6.104   3.853   0.026 -0.2075  0.0614 -0.5893
 5736SOL    HW118107   6.079   3.844  -0.070 -3.1208  0.0984  0.0821
 5736SOL    HW218108   6.028   3.892   0.077  1.8548  1.6549  1.4977
 5737SOL     OW18109   4.481   6.676   2.741  0.9332 -0.1962 -0.0296
 5737SOL    HW118110   4.504   6.771   2.762 -0.2686 -0.0404  0.6870
 5737SOL    HW218111   4.547   6.615   2.784  1.2792  0.2884  0.1303
 5738SOL     OW18112   2.956   3.534   1.449  0.2142 -0.1924  0.2875
 5738SOL    HW118113   2.873   3.588   1.463  1.9418  1.9896  3.3470
 5738SOL    HW218114   3.023   3.590   1.399  0.4056 -1.3815 -0.8310
 5739SOL     OW18115   1.923   0.710   5.034 -0.4220 -0.6765 -0.1829
 5739SOL    HW118116   1.834   0.671   5.060 -0.0193 -0.0446  2.4321
 5739SOL    HW218117   1.908   0.800   4.992 -1.0386 -0.5721  0.2447
 5740SOL     OW18118   6.091   1.765   2.820 -0.6641 -0.3940  0.5585
 5740SOL    HW118119   6.026   1.833   2.786  0.5410  0.1647 -0.7379
 5740SOL    HW218120   6.112   1.785   2.916  2.1347  3.2688 -0.5551
 5741SOL     OW18121   0.757   1.792   3.585  0.3653 -0.0379 -0.0366
 5741SOL    HW118122   0.801   1.841   3.510 -1.4966  3.6768  1.0526
 5741SOL    HW218123   0.669   1.754   3.554  1.0333 -1.2984 -0.4524
 5742SOL     OW18124   6.449   4.935   2.046  0.4148 -0.0350 -0.0045
 5742SOL    HW118125   6.368   4.955   2.101  0.1204 -1.3841  0.0803
 5742SOL    HW218126   6.459   4.836   2.035  0.3986  0.1658 -2.4826
 5743SOL     OW18127   2.962   5.269   6.347  0.4920  0.4682 -0.1442
 5743SOL    HW118128   2.890   5.338   6.349  0.2913  0.2614 -0.1249
 5743SOL    HW218129   3.044   5.304   6.391  0.3075  0.5991  0.0943
 5744SOL     OW18130   4.541   0.214   3.228  0.1158  0.0728 -0.2306
 5744SOL    HW118131   4.619   0.226   3.166  0.0148 -0.3662 -0.4467
 5744SOL    HW218132   4.559   0.137   3.290 -0.3722 -0.3770 -0.6400
 5745SOL     OW18133   1.597   4.026   3.668 -0.0774 -0.6872 -0.1758
 5745SOL    HW118134   1.606   4.035   3.767 -1.4024 -1.4777  0.0293
 5745SOL    HW218135   1.594   3.930   3.643 -0.4184 -0.4924 -0.9266
 5746SOL     OW18136   5.785   1.566   5.166 -0.2617 -0.0705  0.6071
 5746SOL    HW118137   5.823   1.475   5.150 -0.6759 -0.1230 -0.1487
 5746SOL    HW218138   5.825   1.605   5.249  2.8963  0.6362 -1.0692
 5747SOL     OW18139   2.144   0.795   0.756  1.0243  0.0772  0.6660
 5747SOL    HW118140   2.135   0.773   0.659 -0.5204  0.9134  0.5921
 5747SOL    HW218141   2.132   0.713   0.811  3.0494 -0.6280  0.1439
 5748SOL     OW18142   0.599   6.840   0.285  0.7359 -0.1783  0.2583
 5748SOL    HW118143   0.605   6.741   0.268 -0.2745 -0.4805  1.5248
 5748SOL    HW218144   0.604   6.889   0.198 -0.0019 -1.4126 -0.5093
 5749SOL     OW18145   3.325   0.485   1.938 -0.4138  0.8283 -0.2899
 5749SOL    HW118146   3.362   0.577   1.950 -2.0595  1.4995 -0.1166
 5749SOL    HW218147   3.299   0.472   1.842  0.7256  0.1651 -0.5265
 5750SOL     OW18148   5.192   2.060   5.519  0.0311  0.1388 -0.0209
 5750SOL    HW118149   5.254   2.083   5.445 -0.9236  1.0359 -0.5656
 5750SOL    HW218150   5.205   1.964   5.545  2.0709  0.4698  0.3246
 5751SOL     OW18151   0.591   3.452   3.900 -0.6467 -0.0774 -0.4786
 5751SOL    HW118152   0.673   3.468   3.956  0.2383  1.3320 -2.0911
 5751SOL    HW218153   0.590   3.516   3.824 -2.5368 -1.0368 -1.3148
 5752SOL     OW18154   4.564   0.126   1.032 -0.0169 -0.2428  0.0759
 5752SOL    HW118155   4.632   0.053   1.043  1.1991  0.8573 -0.0156
 5752SOL    HW218156   4.514   0.112   0.946 -0.6367 -1.6267  0.6311
 5753SOL     OW18157   3.241   3.238   2.885 -0.0903 -0.0181  0.0053
 5753SOL    HW118158   3.328   3.284   2.867 -0.1294  0.7172  1.5244
 5753SOL    HW218159   3.257   3.143   2.911  0.6470  1.0008  3.7959
 5754SOL     OW18160   1.027   0.333   2.918 -0.0640 -0.9806  0.1947
 5754SOL    HW118161   1.106   0.271   2.916  1.3018  0.6963  0.5316
 5754SOL    HW218162   0.947   0.285   2.882  0.8245 -3.0777  0.8625
 5755SOL     OW18163   2.378   3.410   6.093 -0.1583 -0.0181 -0.2012
 5755SOL    HW118164   2.385   3.362   6.006 -1.9414  1.5988 -1.3256
 5755SOL    HW218165   2.391   3.508   6.078 -2.3753  0.5334  0.9621
 5756SOL     OW18166   5.220   6.852   1.532  0.2656 -0.0730 -0.0472
 5756SOL    HW118167   5.235   6.889   1.624  1.6183  0.1522 -0.3405
 5756SOL    HW218168   5.232   6.924   1.464 -0.2095 -0.3579 -0.4407
 5757SOL     OW18169   6.573   0.439   5.316 -0.4639 -0.2842 -0.1621
 5757SOL    HW118170   6.530   0.505   5.378 -0.9865 -2.6210  2.1595
 5757SOL    HW218171   6.537   0.451   5.224 -1.2350  1.9834  0.3625
 5758SOL     OW18172   6.988   0.412   4.109  0.5854 -0.4342 -0.2898
 5758SOL    HW118173   7.029   0.502   4.095  0.4983 -0.0072  1.8134
 5758SOL    HW218174   6.890   0.417   4.088  0.4398  0.1787  0.4605
 5759SOL     OW18175   3.517   5.238   3.108 -0.1790  0.2485 -0.3167
 5759SOL    HW118176   3.431   5.189   3.093  0.3576 -1.1217  0.8046
 5759SOL    HW218177   3.587   5.201   3.047 -0.1976  0.8110 -0.6749
 5760SOL     OW18178   6.980   2.120   0.124  0.3626 -0.1444  0.3346
 5760SOL    HW118179   6.975   2.046   0.192 -0.1328 -0.5461 -0.1328
 5760SOL    HW218180   6.991   2.207   0.171  0.7973 -0.4934  0.9020
 5761SOL     OW18181   5.844   5.358   6.239 -0.3135  0.3382 -0.1126
 5761SOL    HW118182   5.892   5.431   6.288  0.8008 -0.6094  0.2369
 5761SOL    HW218183   5.749   5.386   6.223 -0.8028  0.6133  2.7806
 5762SOL     OW18184   1.071   4.764   5.346 -0.5754  0.3958  0.2277
 5762SOL    HW118185   1.008   4.789   5.420 -0.7096  0.9951 -0.0788
 5762SOL    HW218186   1.041   4.808   5.261 -0.6268 -0.5701 -0.2660
 5763SOL     OW18187   4.581   6.177   5.469 -0.2366 -0.3020 -0.2697
 5763SOL    HW118188   4.510   6.171   5.399 -0.6905 -1.1864  0.2474
 5763SOL    HW218189   4.539   6.183   5.559  0.3459  0.6387 -0.0509
 5764SOL     OW18190   4.991   5.595   3.773  0.7413 -0.2341  0.0141
 5764SOL    HW118191   5.069   5.582   3.835  0.1035 -0.1462  0.8504
 5764SOL    HW218192   4.960   5.505   3.741  2.0332 -0.2131 -1.4348
 5765SOL     OW18193   0.496   4.938   3.101 -0.8806 -0.0966 -0.1741
 5765SOL    HW118194   0.423   4.871   3.092 -1.0101  0.1106 -0.6828
 5765SOL    HW218195   0.583   4.890   3.119 -0.9714 -0.4003 -0.5323
 5766SOL     OW18196   2.373   6.574   5.923  0.3303  0.4510 -0.4658
 5766SOL    HW118197   2.276   6.549   5.921 -0.3484  2.6330  1.1786
 5766SOL    HW218198   2.384   6.669   5.894  2.0413  0.1721 -0.8473
 5767SOL     OW18199   4.117   5.320   6.377  0.4843  0.3471  0.7773
 5767SOL    HW118200   4.037   5.353   6.327 -0.0564 -0.5553  1.0237
 5767SOL    HW218201   4.180   5.396   6.393 -0.2081  1.0218  0.3688
 5768SOL     OW18202   7.014   1.041   5.606  0.3385  0.6701 -0.0958
 5768SOL    HW118203   6.922   1.015   5.634  1.1400 -0.3362  1.7909
 5768SOL    HW218204   7.080   0.973   5.638  1.8303  1.7217 -0.7683
 5769SOL     OW18205   1.747   4.032   0.922  0.1124  0.5643  0.2961
 5769SOL    HW118206   1.711   4.113   0.875  0.9490  0.5765 -0.3688
 5769SOL    HW218207   1.755   3.957   0.857  1.0959  0.5168  0.4563
 5770SOL     OW18208   0.945   2.945   3.358 -0.0457 -0.1167  0.2390
 5770SOL    HW118209   1.012   2.900   3.299  0.7121 -0.3023  1.2195
 5770SOL    HW218210   0.992   3.002   3.426 -0.9514  1.4786 -0.4075
 5771SOL     OW18211   3.199   5.569   4.354  0.3045 -0.3908  0.4326
 5771SOL    HW118212   3.215   5.470   4.351 -2.2522 -0.8502 -0.6400
 5771SOL    HW218213   3.185   5.604   4.261 -0.1605  0.7178  0.8962
 5772SOL     OW18214   1.583   0.610   3.321 -0.0507 -0.2865  0.4808
 5772SOL    HW118215   1.578   0.709   3.310  0.4076 -0.1129  1.6987
 5772SOL    HW218216   1.511   0.579   3.383 -0.4377 -0.7778 -0.1961
 5773SOL     OW18217   0.057   0.056   4.509  0.2546 -0.2522 -0.3273
 5773SOL    HW118218   0.132   0.003   4.470  0.9829 -0.3997  1.2308
 5773SOL    HW218219   0.036   0.133   4.448  2.8852  0.8658  0.0443
 5774SOL     OW18220   1.475   5.360   3.156  0.2218  0.2461  0.3959
 5774SOL    HW118221   1.553   5.345   3.217  0.4105 -2.4451 -0.3661
 5774SOL    HW218222   1.447   5.272   3.116 -1.1193  1.6274 -1.8942
 5775SOL     OW18223   5.769   3.369   1.988 -0.1006  0.1636  0.1698
 5775SOL    HW118224   5.685   3.326   2.020 -1.3176  1.7100 -0.8127
 5775SOL    HW218225   5.834   3.377   2.064 -0.7157 -1.2955  0.8728
 5776SOL     OW18226   4.033   6.536   4.578 -0.4984  0.1292 -0.1463
 5776SOL    HW118227   3.944   6.566   4.545 -1.0152 -0.0157  1.0869
 5776SOL    HW218228   4.034   6.436   4.587 -0.5350  0.2048  0.7456
 5777SOL     OW18229   0.999   0.138   1.499 -0.3659 -0.6519 -0.0285
 5777SOL    HW118230   0.922   0.079   1.521  0.2642 -1.8177 -0.8306
 5777SOL    HW218231   1.085   0.086   1.506  0.3724  0.6189  0.8757
 5778SOL     OW18232   5.698   1.419   0.587  0.2400  0.1831  0.0605
 5778SOL    HW118233   5.670   1.511   0.559  0.1781 -0.2448 -1.3158
 5778SOL    HW218234   5.747   1.374   0.513  1.2638 -0.4986  1.1079
 5779SOL     OW18235   4.797   3.116   0.510 -0.4825  0.4496 -0.1999
 5779SOL    HW118236   4.866   3.043   0.505 -1.0773 -0.1205 -0.2280
 5779SOL    HW218237   4.768   3.128   0.605 -0.9990  0.0526 -0.2988
 5780SOL     OW18238   5.034   6.229   3.705  0.2311  0.1378  0.4040
 5780SOL    HW118239   4.982   6.293   3.761  1.1446 -0.1641  1.6551
 5780SOL    HW218240   5.019   6.136   3.739  0.2003 -0.1365 -0.3487
 5781SOL     OW18241   0.822   4.114   5.720 -0.4926  0.4223  0.0886
 5781SOL    HW118242   0.757   4.190   5.725 -0.5392  0.3872  0.0151
 5781SOL    HW218243   0.829   4.082   5.626 -3.3476 -2.1574  0.6216
 5782SOL     OW18244   5.293   5.445   6.834  0.1091  0.2152 -0.6714
 5782SOL    HW118245   5.316   5.419   6.928 -1.8466  1.6727  0.2664
 5782SOL    HW218246   5.231   5.523   6.834  0.9952  1.0287 -3.2395
 5783SOL     OW18247   2.399   3.336   0.822 -0.5261  0.0540  0.3733
 5783SOL    HW118248   2.450   3.257   0.855 -1.1113 -0.2306  0.6186
 5783SOL    HW218249   2.421   3.416   0.878  0.1442  0.0960  0.0595
 5784SOL     OW18250   6.518   0.514   0.773 -0.2779 -0.2354 -0.6978
 5784SOL    HW118251   6.591   0.566   0.728 -0.0007  0.5417  0.5881
 5784SOL    HW218252   6.434   0.521   0.719  0.6501 -1.4591 -2.3960
 5785SOL     OW18253   2.120   0.935   6.780  0.1502 -0.1336 -0.1811
 5785SOL    HW118254   2.068   1.011   6.740 -0.5815 -0.1877  0.6393
 5785SOL    HW218255   2.166   0.884   6.707 -1.9361 -0.8278 -1.1057
 5786SOL     OW18256   5.958   5.083   0.750 -0.4935 -0.0792  0.2161
 5786SOL    HW118257   5.933   4.998   0.797  0.3606 -0.3233  0.2500
 5786SOL    HW218258   6.002   5.145   0.816  1.8191 -0.8911 -0.4468
 5787SOL     OW18259   1.678   2.794   6.479  0.0835  0.4808  0.2896
 5787SOL    HW118260   1.616   2.839   6.543 -0.1149  1.1430 -0.3559
 5787SOL    HW218261   1.655   2.821   6.385 -0.0473 -0.9894 -0.1209
 5788SOL     OW18262   3.311   6.632   1.582 -0.0339  0.1525  0.1109
 5788SOL    HW118263   3.251   6.709   1.558 -0.5797  0.8348  3.2341
 5788SOL    HW218264   3.254   6.554   1.610  0.4520  0.3618  1.8143
 5789SOL     OW18265   4.649   4.994   5.518 -0.0600 -0.0703 -0.8935
 5789SOL    HW118266   4.689   4.984   5.427  1.8043 -0.5136 -0.0764
 5789SOL    HW218267   4.717   5.032   5.581 -1.3096  0.2506  0.3267
 5790SOL     OW18268   2.165   4.048   4.176  0.2041 -0.5040 -0.2845
 5790SOL    HW118269   2.094   4.116   4.193  1.4975  0.4886  1.4595
 5790SOL    HW218270   2.213   4.070   4.091  0.2823  0.5179  0.0054
 5791SOL     OW18271   0.259   2.351   5.791 -0.4401  0.0480  0.2163
 5791SOL    HW118272   0.294   2.443   5.777 -0.8032  0.1628  0.0749
 5791SOL    HW218273   0.249   2.335   5.890  1.2476 -0.4480  0.3414
 5792SOL     OW18274   0.204   2.087   3.445  0.1126  0.4623  0.8713
 5792SOL    HW118275   0.238   2.045   3.529  1.7117 -0.1618 -0.0440
 5792SOL    HW218276   0.132   2.030   3.405  1.4484 -0.8513  0.2583
 5793SOL     OW18277   6.364   1.112   5.444  0.6711  0.1824 -0.3663
 5793SOL    HW118278   6.338   1.100   5.540 -0.9254  2.4641 -0.4384
 5793SOL    HW218279   6.341   1.029   5.393 -1.3769  0.0589  0.6544
 5794SOL     OW18280   6.165   6.387   6.100  0.0485  0.1698  0.4468
 5794SOL    HW118281   6.185   6.399   6.197 -2.0078  1.0434  0.8197
 5794SOL    HW218282   6.087   6.325   6.090 -0.1527  0.5758 -0.6119
 5795SOL     OW18283   6.917   5.960   6.634  0.3291  0.2100  0.5567
 5795SOL    HW118284   6.820   5.935   6.638  0.5541 -1.0799 -1.1102
 5795SOL    HW218285   6.961   5.936   6.720 -0.7381  0.5018  1.2083
 5796SOL     OW18286   2.011   3.414   0.047 -0.8504  0.0998  0.2015
 5796SOL    HW118287   1.972   3.348   0.111 -0.1474 -0.4771  0.0406
 5796SOL    HW218288   2.101   3.383   0.017  0.2614  1.9133  1.4266
 5797SOL     OW18289   4.006   2.795   5.292  0.1257  0.4671 -0.3892
 5797SOL    HW118290   3.915   2.753   5.306  0.9297 -0.8618  1.3042
 5797SOL    HW218291   4.070   2.725   5.262  0.8798  1.1364 -0.3586
 5798SOL     OW18292   6.287   4.720   4.783 -0.2179 -0.5711  0.1053
 5798SOL    HW118293   6.282   4.787   4.710 -1.0949 -0.1454  0.5450
 5798SOL    HW218294   6.374   4.729   4.832 -0.6424  0.7667  0.6441
 5799SOL     OW18295   5.097   0.699   3.723 -0.1867  0.1052 -0.1486
 5799SOL    HW118296   5.126   0.635   3.795 -0.8123  0.7669  0.7171
 5799SOL    HW218297   5.173   0.761   3.702 -0.1365  0.2004  0.2875
 5800SOL     OW18298   6.728   5.499   1.670  0.4456  0.0113 -0.7299
 5800SOL    HW118299   6.795   5.468   1.738 -0.4476 -3.0989 -1.0957
 5800SOL    HW218300   6.642   5.523   1.716  0.5848  0.2292 -0.5817
 5801SOL     OW18301   6.877   1.793   0.807 -0.0457  0.1329 -0.3129
 5801SOL    HW118302   6.871   1.882   0.854  0.6215  0.2992 -0.5260
 5801SOL    HW218303   6.929   1.805   0.722  0.0741 -0.4685 -0.3236
 5802SOL     OW18304   1.375   2.814   5.550 -0.2357 -0.2567 -0.2166
 5802SOL    HW118305   1.446   2.747   5.528 -0.7248 -0.9741  0.3577
 5802SOL    HW218306   1.316   2.828   5.471  1.0477  1.0089 -1.0019
 5803SOL     OW18307   0.835   3.833   1.525  0.1292 -0.5889 -0.0017
 5803SOL    HW118308   0.860   3.737   1.512 -0.9556 -0.6522 -2.0289
 5803SOL    HW218309   0.879   3.889   1.455 -0.4139  0.1872  0.2601
 5804SOL     OW18310   1.899   2.078   6.500  0.1567  0.3437 -0.5002
 5804SOL    HW118311   1.803   2.089   6.475  0.1593  0.3606 -0.5026
 5804SOL    HW218312   1.956   2.094   6.420  0.1605  0.3131 -0.5036
 5805SOL     OW18313   6.068   5.420   4.481  0.2951 -0.5071  0.1149
 5805SOL    HW118314   5.990   5.368   4.446 -0.0987 -0.5085  0.9604
 5805SOL    HW218315   6.152   5.367   4.470  0.0518 -0.8705 -0.0007
 5806SOL     OW18316   5.817   0.165   5.897 -0.1786 -0.6582  0.2150
 5806SOL    HW118317   5.820   0.147   5.995  0.8828  0.4349  0.4189
 5806SOL    HW218318   5.906   0.144   5.857 -0.5237 -0.8479 -0.4700
 5807SOL     OW18319   2.632   3.463   1.750  0.1671 -0.3953 -0.1703
 5807SOL    HW118320   2.662   3.528   1.820 -0.0795 -1.0314  0.5460
 5807SOL    HW218321   2.535   3.442   1.764 -0.0827  0.0406 -1.1689
 5808SOL     OW18322   6.932   1.352   2.631  0.2129  0.9940  0.1488
 5808SOL    HW118323   7.012   1.303   2.596 -0.5831  0.5339 -1.1168
 5808SOL    HW218324   6.958   1.445   2.656  1.5042  0.3162  1.4533
 5809SOL     OW18325   1.043   0.934   3.266  0.0814 -0.2106  0.3236
 5809SOL    HW118326   1.046   0.979   3.177  1.6997 -1.3397 -0.2526
 5809SOL    HW218327   1.136   0.910   3.294 -0.6531 -3.5555  0.3344
 5810SOL     OW18328   1.267   1.313   1.933  0.1369  0.3295  0.3036
 5810SOL    HW118329   1.341   1.265   1.885 -0.2777  1.0403 -1.0862
 5810SOL    HW218330   1.298   1.404   1.960  0.3175 -0.0099  1.2973
 5811SOL     OW18331   3.586   6.855   6.764 -0.3276  0.8531 -0.3882
 5811SOL    HW118332   3.625   6.931   6.711  0.7366  0.3342 -0.3693
 5811SOL    HW218333   3.604   6.869   6.861 -0.9202  1.0132 -0.2929
 5812SOL     OW18334   5.151   1.042   3.427  0.4402  0.4503 -0.5934
 5812SOL    HW118335   5.191   1.001   3.509 -2.7556 -0.8892  0.4551
 5812SOL    HW218336   5.163   1.141   3.429  0.0607  0.4900  1.7433
 5813SOL     OW18337   2.666   1.038   4.659  0.3058 -0.4400 -0.4903
 5813SOL    HW118338   2.716   1.063   4.742  1.5043 -2.5624 -0.4936
 5813SOL    HW218339   2.731   1.014   4.587 -0.7151 -0.7776 -1.3292
 5814SOL     OW18340   6.492   0.672   6.363  0.2931 -0.0589 -0.5048
 5814SOL    HW118341   6.558   0.738   6.401 -0.5848  0.5037  0.0926
 5814SOL    HW218342   6.454   0.709   6.279  1.2684 -0.7207 -1.2618
 5815SOL     OW18343   2.199   1.042   3.979  0.3367  0.2293  0.8173
 5815SOL    HW118344   2.164   0.949   3.984  1.1078 -0.0266  1.7828
 5815SOL    HW218345   2.219   1.065   3.883 -1.6448  0.1008  0.3450
 5816SOL     OW18346   4.294   0.345   1.110  0.0630 -0.0278  0.1395
 5816SOL    HW118347   4.388   0.322   1.136 -0.2642  0.0317  1.4347
 5816SOL    HW218348   4.295   0.396   1.024  1.2279  0.1148  0.2204
 5817SOL     OW18349   5.697   2.515   1.161 -0.1743 -0.3660  0.6754
 5817SOL    HW118350   5.744   2.586   1.214 -1.4433 -0.1186  1.4959
 5817SOL    HW218351   5.665   2.555   1.075  0.2488 -0.2916  0.5455
 5818SOL     OW18352   0.385   0.555   6.156 -0.2575 -0.2700 -0.1093
 5818SOL    HW118353   0.322   0.614   6.206 -1.4204 -1.9821  0.5474
 5818SOL    HW218354   0.425   0.487   6.218  2.8950  1.2090 -0.3505
 5819SOL     OW18355   6.897   1.179   5.986  0.0050  0.4597 -0.3688
 5819SOL    HW118356   6.919   1.196   6.082  0.6640 -1.0097 -0.2321
 5819SOL    HW218357   6.919   1.084   5.963 -4.1375 -0.6294 -0.7918
 5820SOL     OW18358   5.722   5.422   2.115 -0.1635 -0.4082 -0.4402
 5820SOL    HW118359   5.759   5.430   2.023 -4.0911 -1.0336 -2.2705
 5820SOL    HW218360   5.699   5.327   2.133 -2.7814  0.1818 -0.3549
 5821SOL     OW18361   2.422   6.156   3.618 -0.7431 -0.0821 -0.7910
 5821SOL    HW118362   2.506   6.103   3.610 -0.1432  0.5298  1.1512
 5821SOL    HW218363   2.412   6.215   3.537  1.2467  0.6232 -0.5648
 5822SOL     OW18364   0.433   2.302   3.412 -0.5742 -0.0481 -0.6015
 5822SOL    HW118365   0.465   2.390   3.447  1.6454 -0.8718 -0.4100
 5822SOL    HW218366   0.346   2.278   3.456  1.4069 -0.4193  3.5372
 5823SOL     OW18367   1.661   1.608   0.614 -0.3889 -0.1212  0.3881
 5823SOL    HW118368   1.694   1.587   0.706  1.9328  0.5662 -0.2085
 5823SOL    HW218369   1.686   1.534   0.552  2.6977  1.5695 -0.6018
 5824SOL     OW18370   5.419   0.389   4.271  0.2915 -0.0621 -0.1721
 5824SOL    HW118371   5.414   0.313   4.336 -0.8624  1.6623  1.8930
 5824SOL    HW218372   5.333   0.394   4.220 -0.1418  0.5401  0.5831
 5825SOL     OW18373   2.866   6.852   1.059  0.4041 -0.2978 -0.1979
 5825SOL    HW118374   2.925   6.927   1.088  1.1928 -0.5811 -1.0350
 5825SOL    HW218375   2.919   6.768   1.054 -0.3673 -0.8186  0.2619
 5826SOL     OW18376   6.606   0.409   5.020  0.5671 -0.0727  0.5874
 5826SOL    HW118377   6.540   0.481   5.043  1.4743  1.6122 -1.7200
 5826SOL    HW218378   6.556   0.323   5.004 -1.1540  1.1459 -1.1214
 5827SOL     OW18379   1.103   4.561   6.167  0.7646  0.0558 -0.2670
 5827SOL    HW118380   1.134   4.627   6.235 -0.9640 -0.5505  1.1871
 5827SOL    HW218381   1.182   4.523   6.119  1.9529  1.3161  0.6128
 5828SOL     OW18382   0.488   1.566   2.942  0.2289 -0.3463  0.1230
 5828SOL    HW118383   0.500   1.508   2.862  3.2900  1.0014 -0.5484
 5828SOL    HW218384   0.458   1.511   3.020 -1.9314 -1.8473 -1.6445
 5829SOL     OW18385   1.400   2.237   0.029 -0.2477  0.1597 -0.3902
 5829SOL    HW118386   1.384   2.142   0.003 -0.8608  0.7125 -2.1248
 5829SOL    HW218387   1.498   2.257   0.027 -0.1322 -0.3725 -0.1901
 5830SOL     OW18388   0.934   1.231   4.997 -0.0422  0.0230 -0.0248
 5830SOL    HW118389   0.991   1.313   5.005  0.0928  0.0678 -1.2303
 5830SOL    HW218390   0.905   1.220   4.901 -0.6320 -0.9550  0.2537
 5831SOL     OW18391   0.353   5.537   1.660  0.0279 -0.5169  0.2117
 5831SOL    HW118392   0.341   5.626   1.616  1.5845  0.1152  0.9822
 5831SOL    HW218393   0.303   5.467   1.609 -1.0885  0.7665 -0.5018
 5832SOL     OW18394   3.072   3.186   4.865  0.0972 -0.5494  0.0566
 5832SOL    HW118395   3.022   3.230   4.790 -0.1641  0.2082  0.6645
 5832SOL    HW218396   3.140   3.123   4.827 -1.1234 -1.4037 -0.8000
 5833SOL     OW18397   3.240   3.029   3.944  0.4487 -0.6120 -0.0076
 5833SOL    HW118398   3.297   3.081   4.008 -0.4585 -0.5299  0.7504
 5833SOL    HW218399   3.156   3.001   3.989 -0.0965 -0.7904 -1.0903
 5834SOL     OW18400   5.454   1.174   0.769  0.3165 -0.5256 -0.5115
 5834SOL    HW118401   5.394   1.145   0.694 -1.1797  1.6024 -0.2430
 5834SOL    HW218402   5.398   1.212   0.843  1.9627  1.6714 -0.2912
 5835SOL     OW18403   6.160   1.552   3.940 -0.2958  0.0286 -0.3245
 5835SOL    HW118404   6.195   1.472   3.892  0.7936 -0.2518  0.8677
 5835SOL    HW218405   6.156   1.533   4.038  1.2058  1.8347  0.1436
 5836SOL     OW18406   4.969   0.956   4.370 -0.0165 -0.2942  0.2946
 5836SOL    HW118407   5.038   0.890   4.339  0.4116  0.0974  0.3906
 5836SOL    HW218408   4.919   0.992   4.292  2.3364  2.1250 -0.2797
 5837SOL     OW18409   3.204   2.123   1.106  0.0147 -0.5713 -0.4870
 5837SOL    HW118410   3.212   2.026   1.125  1.4003 -0.0552  1.9973
 5837SOL    HW218411   3.295   2.163   1.094 -0.4506  0.6333 -0.2124
 5838SOL     OW18412   2.126   0.687   4.781  1.0031 -0.0100 -0.0665
 5838SOL    HW118413   2.132   0.779   4.820  1.1902  0.2165 -0.6294
 5838SOL    HW218414   2.036   0.649   4.800  0.8141  0.4112 -0.0995
 5839SOL     OW18415   1.677   0.798   0.166 -0.2409 -0.4988 -0.0913
 5839SOL    HW118416   1.726   0.711   0.167  0.1595 -0.2923 -1.1607
 5839SOL    HW218417   1.678   0.838   0.258  0.6956 -0.9916  0.1218
 5840SOL     OW18418   2.978   6.972   2.285  0.1549  0.3398  0.5725
 5840SOL    HW118419   2.976   6.904   2.358  0.1466  0.9639  1.1588
 5840SOL    HW218420   3.071   6.977   2.248  1.0139  2.3522  2.7843
 5841SOL     OW18421   5.853   1.297   3.929  0.5194 -0.3641  0.1706
 5841SOL    HW118422   5.884   1.355   4.004  1.1234  1.6848 -1.5308
 5841SOL    HW218423   5.933   1.262   3.879  0.2153  1.3183 -1.6221
 5842SOL     OW18424   4.197   0.186   0.825 -0.0819 -0.4924 -0.3068
 5842SOL    HW118425   4.297   0.184   0.821 -0.1100 -2.4295 -2.1003
 5842SOL    HW218426   4.165   0.104   0.873 -0.8182 -0.0579 -0.0531
 5843SOL     OW18427   6.860   3.339   1.141  0.0119 -0.1714 -0.3740
 5843SOL    HW118428   6.815   3.280   1.208  1.9650 -0.3262  0.8953
 5843SOL    HW218429   6.935   3.288   1.098  0.7066  0.8774 -0.4320
 5844SOL     OW18430   0.607   6.641   5.671  0.6239 -0.1826 -0.2155
 5844SOL    HW118431   0.527   6.693   5.643  0.7073  0.3830  0.5501
 5844SOL    HW218432   0.666   6.625   5.592 -0.0782 -0.3203 -0.7216
 5845SOL     OW18433   1.760   3.809   5.241 -0.8090 -0.0973 -0.1965
 5845SOL    HW118434   1.700   3.850   5.173 -0.2970 -1.4536 -1.5083
 5845SOL    HW218435   1.832   3.875   5.266 -1.0326  0.4368 -0.9200
 5846SOL     OW18436   0.184   3.909   6.401  0.1932  0.3220 -0.4415
 5846SOL    HW118437   0.209   3.991   6.452 -2.0534  0.4247  0.6145
 5846SOL    HW218438   0.206   3.828   6.456 -0.7051  0.3670 -0.0058
 5847SOL     OW18439   3.042   2.193   3.299  0.2068 -1.2525 -0.1167
 5847SOL    HW118440   3.040   2.225   3.204 -1.6972  0.4133  0.4278
 5847SOL    HW218441   3.050   2.093   3.300  0.6091 -1.2824 -1.9980
 5848SOL     OW18442   0.481   4.438   3.974 -0.0310  0.0279  0.3695
 5848SOL    HW118443   0.408   4.391   4.024 -1.1217  0.3196 -0.8872
 5848SOL    HW218444   0.477   4.536   3.994 -0.2908  0.1068 -0.0445
 5849SOL     OW18445   2.000   1.938   6.041  0.5605  0.7446  0.7413
 5849SOL    HW118446   1.915   1.911   5.996  1.2735 -0.0596 -0.1673
 5849SOL    HW218447   1.982   1.957   6.137 -0.2068 -2.0632  1.2450
 5850SOL     OW18448   1.123   4.084   3.119  0.1472  0.5304 -1.0188
 5850SOL    HW118449   1.206   4.030   3.105 -0.3158 -0.2014 -0.9993
 5850SOL    HW218450   1.059   4.066   3.044  0.5462  2.1753 -1.8287
 5851SOL     OW18451   6.071   3.484   0.563  0.1819 -0.4375  0.2596
 5851SOL    HW118452   6.054   3.388   0.542  1.5590 -1.0115  1.5737
 5851SOL    HW218453   6.029   3.508   0.650  0.2446  0.0295  0.1663
 5852SOL     OW18454   4.199   5.304   2.514  0.1464 -0.8572 -0.1884
 5852SOL    HW118455   4.251   5.340   2.437 -1.8354  0.9996 -0.7836
 5852SOL    HW218456   4.146   5.224   2.485 -0.4479 -0.2758 -0.7395
 5853SOL     OW18457   0.288   5.129   5.234 -0.0588 -0.1984  0.1511
 5853SOL    HW118458   0.238   5.178   5.305 -0.2009  1.4030 -0.9787
 5853SOL    HW218459   0.383   5.116   5.263  0.6758  3.0078 -0.3975
 5854SOL     OW18460   0.039   3.504   0.634  0.5794 -1.0087 -0.4581
 5854SOL    HW118461   0.082   3.585   0.595 -1.6255  0.6073  0.2812
 5854SOL    HW218462   0.058   3.500   0.732  0.2332 -1.0977 -0.3950
 5855SOL     OW18463   0.970   0.731   4.577 -0.1478  0.0748 -0.1783
 5855SOL    HW118464   1.045   0.707   4.515 -0.2289  1.1842 -0.7224
 5855SOL    HW218465   0.886   0.687   4.546 -0.0972  0.2740 -0.6047
 5856SOL     OW18466   6.791   6.861   3.839 -0.7691  0.6841 -0.1439
 5856SOL    HW118467   6.744   6.949   3.845 -0.2532  0.9028  1.1401
 5856SOL    HW218468   6.883   6.870   3.879 -1.4859 -0.9403  2.0605
 5857SOL     OW18469   0.675   3.170   0.566 -0.5855 -0.3777  0.2676
 5857SOL    HW118470   0.733   3.230   0.510 -0.7940  0.9428  1.4215
 5857SOL    HW218471   0.723   3.083   0.581  0.1806 -0.1182 -0.5602
 5858SOL     OW18472   1.038   6.139   2.272 -0.3663  0.0371  0.2599
 5858SOL    HW118473   1.133   6.149   2.244 -0.8657  0.1610 -1.5435
 5858SOL    HW218474   1.029   6.160   2.369  1.3487  0.5447  0.3367
 5859SOL     OW18475   4.318   5.298   1.364 -0.4599  0.2583  0.5811
 5859SOL    HW118476   4.231   5.347   1.366  0.0811  1.4006 -1.1260
 5859SOL    HW218477   4.310   5.214   1.417 -2.0798  1.1410  1.8310
 5860SOL     OW18478   5.734   2.476   0.731 -0.7131  0.3614  0.5514
 5860SOL    HW118479   5.832   2.498   0.734 -0.4964 -0.2801 -0.9369
 5860SOL    HW218480   5.723   2.377   0.737 -1.1430  0.2976 -0.9288
 5861SOL     OW18481   6.790   1.282   3.996  0.0062  0.3150 -0.2685
 5861SOL    HW118482   6.886   1.268   4.019  0.5940 -0.3016 -2.8391
 5861SOL    HW218483   6.749   1.345   4.062  2.9136  2.8582 -0.6648
 5862SOL     OW18484   0.152   3.697   5.073  0.5664  0.2543  0.1691
 5862SOL    HW118485   0.105   3.783   5.093  0.1547  0.2149 -0.6273
 5862SOL    HW218486   0.225   3.713   5.007  1.4469  0.2481  1.1210
 5863SOL     OW18487   2.175   2.678   1.295 -0.2289 -0.4560  0.2285
 5863SOL    HW118488   2.220   2.589   1.283  0.8904  0.1899 -0.5845
 5863SOL    HW218489   2.121   2.699   1.213  0.7154  0.2564 -0.2356
 5864SOL     OW18490   3.358   4.790   1.771  0.3947  0.1488 -0.8430
 5864SOL    HW118491   3.440   4.735   1.782  0.3952  0.3399  0.2145
 5864SOL    HW218492   3.277   4.730   1.770  0.4672  0.0471 -0.6995
 5865SOL     OW18493   4.920   0.309   2.817  0.7453 -0.0735 -0.3550
 5865SOL    HW118494   4.955   0.386   2.870  0.1177  0.6489 -0.9840
 5865SOL    HW218495   4.993   0.242   2.804  1.4205  0.6156 -0.1801
 5866SOL     OW18496   5.017   1.550   0.275  0.4445 -0.1842  0.4140
 5866SOL    HW118497   5.082   1.616   0.313 -0.2111  0.6801  0.0544
 5866SOL    HW218498   5.066   1.464   0.255  1.5285  0.5051 -0.0229
 5867SOL     OW18499   5.528   2.935   6.395 -0.2919 -0.0139 -0.0105
 5867SOL    HW118500   5.554   3.020   6.350 -0.5591  0.8395  1.4072
 5867SOL    HW218501   5.431   2.917   6.380 -0.2937  0.0678 -0.0982
 5868SOL     OW18502   0.182   5.626   5.557 -0.3293 -0.5487  0.0465
 5868SOL    HW118503   0.174   5.604   5.460  1.3638  1.4499 -0.6460
 5868SOL    HW218504   0.097   5.668   5.589 -0.6922 -0.6645 -0.7422
 5869SOL     OW18505   3.506   4.985   3.787 -0.3978 -0.0906  0.1685
 5869SOL    HW118506   3.529   5.071   3.742 -3.1265 -0.7339 -2.8844
 5869SOL    HW218507   3.527   4.909   3.725 -0.4975 -1.4341  1.7213
 5870SOL     OW18508   3.838   6.878   4.182 -0.1669  0.3840  0.1079
 5870SOL    HW118509   3.740   6.891   4.198 -0.0600  0.0462  1.1106
 5870SOL    HW218510   3.882   6.847   4.266  0.7110 -0.0050 -0.4735
 5871SOL     OW18511   2.820   4.396   0.053  0.2015  0.0231 -0.1945
 5871SOL    HW118512   2.913   4.407   0.087  0.4283  2.4924 -1.4300
 5871SOL    HW218513   2.756   4.440   0.116 -0.2506 -1.9750  0.8408
 5872SOL     OW18514   3.308   5.619   4.851 -0.2705  0.3861  0.0355
 5872SOL    HW118515   3.298   5.656   4.943  0.1737  0.4223  0.0724
 5872SOL    HW218516   3.283   5.522   4.850  1.8466 -0.2282  0.6912
 5873SOL     OW18517   1.784   4.625   5.356  0.3040 -0.0621  0.1028
 5873SOL    HW118518   1.782   4.607   5.257  0.6279 -0.5791  0.1905
 5873SOL    HW218519   1.838   4.555   5.402 -0.1157 -0.0013  0.6920
 5874SOL     OW18520   0.808   5.801   5.000 -0.0340 -0.2014  0.4094
 5874SOL    HW118521   0.854   5.766   5.082  1.3938  1.8649  0.5493
 5874SOL    HW218522   0.761   5.886   5.021  0.0310  0.1640 -0.8364
 5875SOL     OW18523   3.817   0.573   2.422  0.3499  0.3696  0.2407
 5875SOL    HW118524   3.829   0.514   2.342  1.0730  0.1190  0.5237
 5875SOL    HW218525   3.795   0.517   2.502 -2.1288  0.7457 -0.0928
 5876SOL     OW18526   4.743   5.059   0.811 -0.3203 -0.0638  0.3749
 5876SOL    HW118527   4.720   5.151   0.779 -0.6940 -0.1438  0.4088
 5876SOL    HW218528   4.826   5.028   0.766 -1.0796 -0.3598 -0.8847
 5877SOL     OW18529   3.889   2.133   2.947  0.3332 -0.2417  0.4436
 5877SOL    HW118530   3.960   2.165   2.886 -1.2631  1.2849 -0.7024
 5877SOL    HW218531   3.836   2.061   2.902 -1.1386  1.2077 -0.2198
 5878SOL     OW18532   4.793   2.514   3.106 -0.1318 -0.5428 -0.1107
 5878SOL    HW118533   4.706   2.466   3.102 -0.3766 -0.1298  0.2189
 5878SOL    HW218534   4.837   2.510   3.017 -1.0390  0.2636 -0.6096
 5879SOL     OW18535   3.892   5.021   4.139 -0.5089  0.1928 -0.0118
 5879SOL    HW118536   3.926   5.113   4.121  1.1763 -0.7418 -2.0024
 5879SOL    HW218537   3.924   4.992   4.229  1.0993  0.6648 -0.3876
 5880SOL     OW18538   6.425   3.475   0.067  0.1405  0.2605  0.2703
 5880SOL    HW118539   6.428   3.524  -0.020  0.0836  1.1399  0.7520
 5880SOL    HW218540   6.348   3.508   0.122 -0.6885 -1.2897  0.0910
 5881SOL     OW18541   0.090   5.227   0.957 -0.3235  0.0398  0.1034
 5881SOL    HW118542   0.001   5.231   1.002 -1.2898  0.5299 -1.7631
 5881SOL    HW218543   0.090   5.156   0.887  0.9600 -0.3321  0.4450
 5882SOL     OW18544   2.955   5.535   3.641 -0.4603  0.4071  0.3648
 5882SOL    HW118545   3.022   5.462   3.633  1.0794  1.6382  1.3420
 5882SOL    HW218546   2.950   5.586   3.555 -2.5216 -1.5772 -0.7786
 5883SOL     OW18547   6.080   4.379   1.214  0.0408 -0.4189 -0.2024
 5883SOL    HW118548   6.118   4.471   1.200  0.2256 -0.5737 -0.7360
 5883SOL    HW218549   6.155   4.314   1.228 -0.0721  0.0301  3.9050
 5884SOL     OW18550   0.965   6.629   4.023 -0.0846 -0.0716 -0.6044
 5884SOL    HW118551   0.898   6.572   3.976 -0.5479 -2.4255  2.5383
 5884SOL    HW218552   0.919   6.709   4.062  0.3936  2.1736 -4.2307
 5885SOL     OW18553   4.914   5.414   0.625 -0.0627 -0.5388  0.6114
 5885SOL    HW118554   4.907   5.340   0.558 -2.2361 -0.2561  0.4294
 5885SOL    HW218555   4.954   5.495   0.582  0.1506 -0.8926  0.1396
 5886SOL     OW18556   3.220   4.980   3.542 -0.0106 -0.1478  0.7077
 5886SOL    HW118557   3.193   5.076   3.552 -0.6117 -0.1386 -0.6666
 5886SOL    HW218558   3.319   4.974   3.533  0.1177  0.2382  1.7875
 5887SOL     OW18559   2.242   4.087   6.397  0.2097  0.2864  0.2517
 5887SOL    HW118560   2.304   4.154   6.356 -1.1258  0.7827 -1.0708
 5887SOL    HW218561   2.178   4.134   6.458 -1.1082  0.3723 -1.1264
 5888SOL     OW18562   3.576   5.271   1.652  0.3432 -0.1708 -0.4206
 5888SOL    HW118563   3.673   5.262   1.629  1.1163  0.9055  2.1043
 5888SOL    HW218564   3.544   5.188   1.696  0.9198  0.4469  1.2318
 5889SOL     OW18565   5.365   4.322   1.461  0.3765  0.2879 -0.1379
 5889SOL    HW118566   5.431   4.249   1.479  0.0974  0.0968  0.1186
 5889SOL    HW218567   5.305   4.334   1.540  2.1310  2.6532  0.9622
 5890SOL     OW18568   1.446   5.192   3.632  0.2961  0.5144 -0.3819
 5890SOL    HW118569   1.434   5.274   3.577 -0.7883  1.4098  1.1111
 5890SOL    HW218570   1.397   5.202   3.719  0.4951 -1.5419  0.0298
 5891SOL     OW18571   1.191   2.974   6.790  0.0105  0.1700 -0.1443
 5891SOL    HW118572   1.187   2.876   6.811  0.0931  0.1598 -0.1744
 5891SOL    HW218573   1.133   2.993   6.710  0.5630  0.0222 -0.5879
 5892SOL     OW18574   0.977   2.537   2.092 -0.2671  0.2594 -0.1214
 5892SOL    HW118575   0.954   2.543   2.189 -0.5021  0.1518 -0.1702
 5892SOL    HW218576   0.901   2.570   2.037 -0.4378 -0.3935 -0.2921
 5893SOL     OW18577   2.282   6.241   0.642 -0.0812  0.3806  0.3898
 5893SOL    HW118578   2.215   6.274   0.709 -1.1758 -0.2536 -0.3614
 5893SOL    HW218579   2.372   6.237   0.684 -0.5822  0.8712  1.5482
 5894SOL     OW18580   1.629   4.411   4.953 -0.2204  0.3299 -0.0943
 5894SOL    HW118581   1.690   4.363   4.890 -0.4410  0.3333 -0.3125
 5894SOL    HW218582   1.537   4.373   4.946  0.0197 -0.5299  1.1543
 5895SOL     OW18583   6.380   1.559   2.314 -0.3687 -0.0391 -0.4694
 5895SOL    HW118584   6.434   1.528   2.393 -0.5650 -2.5465 -1.2232
 5895SOL    HW218585   6.436   1.554   2.232 -0.4430  1.6854 -0.6514
 5896SOL     OW18586   4.949   2.455   1.741 -0.7392  0.0689 -0.5188
 5896SOL    HW118587   4.931   2.552   1.756  0.1746 -0.0221  1.3533
 5896SOL    HW218588   4.873   2.415   1.688 -1.1809  1.7484 -1.2164
 5897SOL     OW18589   2.527   3.081   6.654 -0.3768  0.2895  0.4870
 5897SOL    HW118590   2.512   3.005   6.591 -0.2271  0.9875 -0.4129
 5897SOL    HW218591   2.559   3.046   6.742 -0.6840 -0.7088  0.2121
 5898SOL     OW18592   4.219   6.705   6.529 -0.2913  0.2370 -0.7075
 5898SOL    HW118593   4.208   6.727   6.432 -0.5504 -0.3216 -0.8098
 5898SOL    HW218594   4.179   6.615   6.548 -0.1461  0.2915 -0.1032
 5899SOL     OW18595   1.033   0.634   0.821  0.3250  0.1419 -0.9722
 5899SOL    HW118596   0.972   0.574   0.770  0.5642 -0.5950 -0.4011
 5899SOL    HW218597   1.001   0.729   0.812 -1.3904 -0.3013  0.0052
 5900SOL     OW18598   6.377   6.087   2.990  0.1531 -0.4192 -0.0108
 5900SOL    HW118599   6.390   5.990   3.010  1.6549 -0.3624 -0.6306
 5900SOL    HW218600   6.394   6.141   3.073  2.1662 -0.4940 -0.3414
 5901SOL     OW18601   2.830   1.479   5.680 -0.1377 -0.0145 -0.0412
 5901SOL    HW118602   2.838   1.573   5.645  2.3938 -0.0701  0.2124
 5901SOL    HW218603   2.806   1.418   5.605 -0.9194  0.6964 -0.3925
 5902SOL     OW18604   2.865   3.377   6.475 -0.1814  0.3661 -0.0608
 5902SOL    HW118605   2.886   3.436   6.397 -2.3916  0.6930 -0.4806
 5902SOL    HW218606   2.835   3.287   6.442 -3.5768  1.2807  0.1606
 5903SOL     OW18607   0.669   0.719   6.227  0.0917  0.8005  0.1198
 5903SOL    HW118608   0.604   0.765   6.166  1.8035  0.7736 -1.8349
 5903SOL    HW218609   0.670   0.621   6.206 -0.2278  0.5732  1.1164
 5904SOL     OW18610   5.947   3.925   4.604  0.0872 -0.0991  0.5597
 5904SOL    HW118611   6.038   3.889   4.582 -0.2545  0.5633 -2.2864
 5904SOL    HW218612   5.880   3.852   4.592 -0.2022  0.4603 -1.8606
 5905SOL     OW18613   5.903   2.848   4.688  0.1560 -0.3618  0.0742
 5905SOL    HW118614   5.944   2.870   4.777  0.5069  1.5216 -0.5118
 5905SOL    HW218615   5.975   2.816   4.626  0.5238  1.3376 -0.4420
 5906SOL     OW18616   4.282   1.639   6.681 -0.1957  0.1023  0.2545
 5906SOL    HW118617   4.370   1.637   6.727  0.6532 -0.4029 -1.3068
 5906SOL    HW218618   4.280   1.568   6.610 -1.8574  0.1110  0.2553
 5907SOL     OW18619   0.006   4.435   5.744  0.0967  0.4039  0.0843
 5907SOL    HW118620   0.092   4.390   5.767  0.0579  0.1057 -0.3467
 5907SOL    HW218621   0.014   4.479   5.655 -0.7160 -1.0215 -0.7166
 5908SOL     OW18622   3.990   4.696   5.676 -0.0165  0.1390 -0.4414
 5908SOL    HW118623   3.984   4.702   5.776  0.6973  0.0332 -0.3808
 5908SOL    HW218624   3.902   4.718   5.635 -0.4217 -0.2115  0.2325
 5909SOL     OW18625   5.453   3.242   3.934  0.0947 -0.3166 -0.6569
 5909SOL    HW118626   5.401   3.304   3.876 -0.9449  1.1793  1.7113
 5909SOL    HW218627   5.395   3.209   4.008  2.1066  0.3369  1.3337
 5910SOL     OW18628   2.452   3.548   0.989  0.1801 -0.6890 -0.1162
 5910SOL    HW118629   2.445   3.644   0.961 -1.3855 -1.2956 -2.0783
 5910SOL    HW218630   2.488   3.542   1.082 -2.3321  1.9533  1.1576
 5911SOL     OW18631   5.909   0.948   5.612  0.0131 -0.7795  0.1604
 5911SOL    HW118632   5.843   1.023   5.612  1.3777  0.5536  2.8046
 5911SOL    HW218633   5.865   0.865   5.645 -0.5406 -0.1003  1.1672
 5912SOL     OW18634   1.055   3.366   0.227  0.8238  0.2827  0.5763
 5912SOL    HW118635   1.149   3.353   0.256  1.0607  1.8416  0.5931
 5912SOL    HW218636   1.051   3.437   0.157 -0.3792  0.5462  0.8908
 5913SOL     OW18637   1.105   1.702   4.785 -0.4114  0.2305 -0.4341
 5913SOL    HW118638   1.094   1.697   4.884 -0.4524 -1.0974 -0.4918
 5913SOL    HW218639   1.193   1.746   4.764 -0.1475  0.0287  0.2000
 5914SOL     OW18640   1.265   6.874   5.370  0.0020 -0.0762  0.4343
 5914SOL    HW118641   1.251   6.971   5.390 -0.8958 -0.3716  1.2650
 5914SOL    HW218642   1.355   6.846   5.404 -0.0451  0.2890  0.8677
 5915SOL     OW18643   5.973   4.615   3.732 -0.1478 -0.2227  0.3003
 5915SOL    HW118644   5.957   4.658   3.821 -1.5451 -1.8694  0.8987
 5915SOL    HW218645   5.934   4.672   3.660  1.8975  1.6465  0.5755
 5916SOL     OW18646   2.735   0.795   0.282 -0.2710  0.3184  0.0378
 5916SOL    HW118647   2.764   0.851   0.205  0.3885  1.5275  1.1284
 5916SOL    HW218648   2.791   0.712   0.285 -0.4738  0.1322 -0.9091
 5917SOL     OW18649   4.103   3.693   2.756  0.0439 -0.1428 -0.7627
 5917SOL    HW118650   4.066   3.635   2.684 -1.8993  1.6279 -1.3066
 5917SOL    HW218651   4.076   3.788   2.739 -0.9969  0.2995  2.5881
 5918SOL     OW18652   1.814   1.679   3.795  0.5142  0.4396  0.1999
 5918SOL    HW118653   1.855   1.588   3.802  0.5964  0.3976 -0.7200
 5918SOL    HW218654   1.884   1.745   3.768  0.1488  0.5038 -0.6160
 5919SOL     OW18655   2.421   3.145   5.844 -0.2261  0.4018 -0.3814
 5919SOL    HW118656   2.391   3.050   5.840  0.1095  0.2215  0.9524
 5919SOL    HW218657   2.370   3.199   5.776 -0.6345 -0.6589 -0.9406
 5920SOL     OW18658   3.228   3.761   0.088  0.4162 -0.1364  0.0972
 5920SOL    HW118659   3.136   3.792   0.063  0.2479  0.7946  1.7692
 5920SOL    HW218660   3.264   3.819   0.161  1.1563 -2.2452  1.5014
 5921SOL     OW18661   5.612   5.014   4.350 -0.3208  0.6854  0.3428
 5921SOL    HW118662   5.662   4.976   4.428 -1.6631 -0.8473  0.5296
 5921SOL    HW218663   5.596   5.111   4.365 -0.1014  0.5361  1.7431
 5922SOL     OW18664   5.991   5.509   0.166 -0.4619 -0.0501 -0.2341
 5922SOL    HW118665   5.992   5.519   0.066 -0.1191 -0.3338 -0.2619
 5922SOL    HW218666   5.900   5.530   0.200 -0.7351 -0.4996 -0.6683
 5923SOL     OW18667   0.265   2.669   6.130  0.1427 -0.0773  0.3603
 5923SOL    HW118668   0.346   2.705   6.081 -0.5536 -0.9510 -1.5400
 5923SOL    HW218669   0.292   2.590   6.185  0.6315 -0.2134 -0.0626
 5924SOL     OW18670   4.731   1.028   4.766 -0.2033 -0.0236 -0.0068
 5924SOL    HW118671   4.664   1.044   4.694 -0.4786  0.2021  0.2944
 5924SOL    HW218672   4.691   0.968   4.836  0.5305 -1.3927 -0.7110
 5925SOL     OW18673   1.244   5.719   0.283  0.1803  0.5759  0.2201
 5925SOL    HW118674   1.185   5.790   0.244  0.3273  0.5306 -0.0900
 5925SOL    HW218675   1.336   5.756   0.295  0.3729  0.2976 -0.3829
 5926SOL     OW18676   2.852   5.570   1.738  0.0138  0.4060 -0.4553
 5926SOL    HW118677   2.838   5.669   1.744 -1.4488  0.2798 -1.3979
 5926SOL    HW218678   2.779   5.523   1.787  1.0961 -0.2275  0.6065
 5927SOL     OW18679   3.121   4.080   0.583 -0.9188  0.5044 -0.2364
 5927SOL    HW118680   3.219   4.065   0.570 -0.6597  2.6349 -1.0971
 5927SOL    HW218681   3.100   4.083   0.681  0.0051  0.7893 -0.0421
 5928SOL     OW18682   6.786   2.923   2.627 -0.1499 -0.6859 -0.2966
 5928SOL    HW118683   6.690   2.930   2.601 -0.2643 -1.9689 -0.3046
 5928SOL    HW218684   6.844   2.951   2.550 -0.4997  0.8467 -0.0301
 5929SOL     OW18685   6.197   5.938   4.598  0.1340 -0.1151  0.1968
 5929SOL    HW118686   6.237   5.940   4.507 -2.0818  1.1887 -0.8392
 5929SOL    HW218687   6.111   5.887   4.596 -0.4933  0.8365  1.2765
 5930SOL     OW18688   0.319   2.727   5.489 -0.0325  0.4455 -0.0484
 5930SOL    HW118689   0.321   2.643   5.434  0.0964  1.2522 -1.3302
 5930SOL    HW218690   0.399   2.783   5.467 -0.6337  1.3674  0.0317
 5931SOL     OW18691   4.367   6.209   0.302 -0.6926  0.0387  0.2473
 5931SOL    HW118692   4.337   6.273   0.374  0.6121  0.5264  0.3846
 5931SOL    HW218693   4.289   6.152   0.274 -1.6799  1.0854  0.7422
 5932SOL     OW18694   2.626   6.138   6.637  0.1707  0.5289  0.1614
 5932SOL    HW118695   2.636   6.206   6.564  1.1356 -0.3352 -0.5406
 5932SOL    HW218696   2.530   6.111   6.644  0.1376  0.1524 -1.2598
 5933SOL     OW18697   6.984   1.247   2.092  0.6961  0.8057  1.0008
 5933SOL    HW118698   7.082   1.267   2.090  0.8318  0.1544  0.3960
 5933SOL    HW218699   6.959   1.205   2.179  1.1036  0.3083  0.8814
 5934SOL     OW18700   3.050   4.034   1.822  0.8760 -0.3912  0.7157
 5934SOL    HW118701   3.073   4.119   1.775 -0.7356 -0.2916  0.0522
 5934SOL    HW218702   3.008   4.055   1.910  0.8308 -0.5157  0.7238
 5935SOL     OW18703   3.732   3.065   3.035  0.2936 -0.6416  0.0557
 5935SOL    HW118704   3.697   3.008   2.961  1.4393  0.0811 -1.0777
 5935SOL    HW218705   3.699   3.029   3.123 -0.9317 -1.6216 -0.7678
 5936SOL     OW18706   6.334   5.866   5.679 -0.3804 -0.1683  0.6421
 5936SOL    HW118707   6.289   5.952   5.704 -0.5271 -0.5557  1.7440
 5936SOL    HW218708   6.404   5.844   5.747 -1.1349 -1.5000  1.0191
 5937SOL     OW18709   2.958   5.347   1.021 -0.1570 -0.2962  0.0478
 5937SOL    HW118710   2.991   5.276   0.958 -2.5035 -1.2653 -0.1705
 5937SOL    HW218711   2.939   5.430   0.970 -0.2972 -0.4825 -0.2044
 5938SOL     OW18712   2.513   4.505   1.983  0.2543 -0.4972 -0.2923
 5938SOL    HW118713   2.613   4.505   1.980  0.3136  0.5238  1.1205
 5938SOL    HW218714   2.481   4.565   2.056 -1.4450  1.1802 -2.2676
 5939SOL     OW18715   0.854   0.190   2.766 -0.3342 -0.0568 -0.2960
 5939SOL    HW118716   0.756   0.195   2.785 -0.5846 -2.2064 -0.7342
 5939SOL    HW218717   0.873   0.108   2.712  1.1990  2.2450 -3.6105
 5940SOL     OW18718   5.198   5.534   3.526 -0.2787 -0.4855 -0.1429
 5940SOL    HW118719   5.272   5.537   3.593  0.6035 -1.3355 -1.0598
 5940SOL    HW218720   5.110   5.536   3.574  0.3178  0.4210  0.9617
 5941SOL     OW18721   6.673   3.338   4.109 -0.2277 -0.4334 -0.3971
 5941SOL    HW118722   6.744   3.406   4.093 -1.4588  0.8068 -0.7891
 5941SOL    HW218723   6.697   3.252   4.064  0.4992  0.3120 -1.4446
 5942SOL     OW18724   1.819   1.855   6.996 -0.0213  0.5668 -0.2442
 5942SOL    HW118725   1.740   1.900   7.037 -1.1993 -0.5859 -1.1265
 5942SOL    HW218726   1.813   1.862   6.896  1.0814  0.6042 -0.3161
 5943SOL     OW18727   0.727   4.896   0.903 -0.2518  0.2595  0.4754
 5943SOL    HW118728   0.633   4.926   0.919 -0.4605 -1.1486  2.2311
 5943SOL    HW218729   0.742   4.807   0.947  1.0502 -1.0607 -2.3294
 5944SOL     OW18730   6.604   2.016   4.969 -0.1895  0.0375 -0.2951
 5944SOL    HW118731   6.542   1.937   4.969 -0.5738  0.3334 -0.7786
 5944SOL    HW218732   6.698   1.984   4.974 -0.3333 -0.4679 -0.7470
 5945SOL     OW18733   6.189   4.590   5.373  0.0343  0.6327  0.9688
 5945SOL    HW118734   6.179   4.682   5.410 -2.9072  1.2821 -1.0549
 5945SOL    HW218735   6.184   4.523   5.447 -0.3354  2.0366  2.2467
 5946SOL     OW18736   4.510   2.894   5.270 -0.3556  0.0705  0.4852
 5946SOL    HW118737   4.527   2.855   5.179 -1.9224  1.3637 -0.4106
 5946SOL    HW218738   4.598   2.914   5.314  0.4413 -0.2901 -0.8569
 5947SOL     OW18739   4.291   5.707   3.058  0.6325 -0.2334 -0.3382
 5947SOL    HW118740   4.339   5.758   3.129 -0.4297 -2.2358  1.9839
 5947SOL    HW218741   4.350   5.635   3.023  0.2615 -1.0264  0.6128
 5948SOL     OW18742   4.258   5.766   2.075  0.0269  0.3317  0.0577
 5948SOL    HW118743   4.273   5.688   2.137 -0.7364  1.3087  1.5232
 5948SOL    HW218744   4.166   5.762   2.038  0.7302 -0.6856 -1.7290
 5949SOL     OW18745   6.470   3.616   2.719 -0.1437  0.1639 -0.5456
 5949SOL    HW118746   6.482   3.519   2.700  1.3767  0.3690 -0.7471
 5949SOL    HW218747   6.501   3.669   2.641  2.3468  0.8980  0.8288
 5950SOL     OW18748   5.787   1.425   5.529  0.2212  0.2752 -0.2058
 5950SOL    HW118749   5.861   1.492   5.530  1.0683 -0.6371 -0.2642
 5950SOL    HW218750   5.709   1.461   5.581  0.0450  1.9446 -1.5193
 5951SOL     OW18751   0.882   1.321   4.033 -0.3360 -0.4661 -0.0580
 5951SOL    HW118752   0.784   1.299   4.029 -0.6681  0.8358  0.2891
 5951SOL    HW218753   0.934   1.238   4.055 -1.5056 -0.8979  1.2652
 5952SOL     OW18754   6.775   6.598   2.674 -0.1024 -0.6908 -0.8080
 5952SOL    HW118755   6.758   6.499   2.668 -0.0338 -0.7694  0.1413
 5952SOL    HW218756   6.804   6.632   2.585  2.4286 -2.0013 -0.5642
 5953SOL     OW18757   2.358   3.294   5.612 -0.2632  0.1484  0.9936
 5953SOL    HW118758   2.321   3.225   5.550 -0.4300  1.2687 -0.1935
 5953SOL    HW218759   2.432   3.343   5.566 -0.8519  1.4664  1.4194
 5954SOL     OW18760   0.867   0.059   6.103  0.8423  0.0391  0.0696
 5954SOL    HW118761   0.938   0.126   6.085  0.0244  0.4916 -1.7318
 5954SOL    HW218762   0.898  -0.005   6.174  3.0454  0.1717 -0.6951
 5955SOL     OW18763   5.512   6.660   0.986 -0.1217 -0.3843 -0.3268
 5955SOL    HW118764   5.574   6.582   0.995  1.0036  0.1897 -2.4767
 5955SOL    HW218765   5.418   6.629   0.995  0.3664 -1.3611  2.5392
 5956SOL     OW18766   6.521   0.834   6.985  0.4746 -0.1831  0.0607
 5956SOL    HW118767   6.527   0.933   6.997  0.2404 -0.1683  0.0519
 5956SOL    HW218768   6.573   0.789   7.058  0.3642 -0.0609  0.2140
 5957SOL     OW18769   3.749   6.612   6.167  0.1456  0.3060 -0.4952
 5957SOL    HW118770   3.823   6.577   6.110  2.6887 -0.6583  2.9941
 5957SOL    HW218771   3.682   6.540   6.183  1.1160 -0.4732  0.2037
 5958SOL     OW18772   1.128   5.799   1.237 -0.2132  0.0691  0.2784
 5958SOL    HW118773   1.168   5.816   1.327  0.8849 -0.9628  0.0241
 5958SOL    HW218774   1.198   5.815   1.167 -1.3025  1.7096 -0.4802
 5959SOL     OW18775   2.877   1.192   5.729 -0.3289  0.5321  0.7225
 5959SOL    HW118776   2.785   1.204   5.766 -1.2422 -0.7995 -1.0027
 5959SOL    HW218777   2.876   1.204   5.630  1.5459  1.3044  0.7362
 5960SOL     OW18778   2.713   4.791   3.680 -0.2590  0.0077  0.1597
 5960SOL    HW118779   2.807   4.807   3.709 -0.7498  0.8234  1.3514
 5960SOL    HW218780   2.671   4.878   3.655 -0.6913 -0.3596 -0.4191
 5961SOL     OW18781   3.041   1.443   5.867 -0.1368 -0.0865  0.0701
 5961SOL    HW118782   2.982   1.434   5.786 -1.9920 -1.0778  1.4646
 5961SOL    HW218783   2.995   1.403   5.946  2.1540 -0.2481  1.3947
 5962SOL     OW18784   6.321   6.272   4.420  0.6757  0.2125  0.0087
 5962SOL    HW118785   6.260   6.313   4.487  1.6541  0.2853  0.8860
 5962SOL    HW218786   6.272   6.256   4.334 -1.4708 -2.6631  1.6059
 5963SOL     OW18787   3.519   2.758   1.838 -0.3485  0.4514  0.3186
 5963SOL    HW118788   3.555   2.807   1.917  0.7636  0.9118 -0.4420
 5963SOL    HW218789   3.509   2.822   1.761 -1.2975 -0.0078  0.0449
 5964SOL     OW18790   2.007   3.193   5.212  0.1982  0.4339  0.2223
 5964SOL    HW118791   2.027   3.280   5.259 -0.7365  0.8268 -0.0815
 5964SOL    HW218792   2.039   3.198   5.118  0.0855  0.4751  0.1861
 5965SOL     OW18793   2.313   2.101   4.528 -0.1011 -0.2358  0.6078
 5965SOL    HW118794   2.292   2.166   4.455 -1.8919 -1.8685 -0.4090
 5965SOL    HW218795   2.270   2.132   4.613  0.2247  0.5893  0.4861
 5966SOL     OW18796   1.430   5.531   4.095  0.6658 -0.3006 -0.5027
 5966SOL    HW118797   1.381   5.506   4.179  2.1792  0.7659  0.7759
 5966SOL    HW218798   1.434   5.453   4.034  0.3935 -1.4311  0.8631
 5967SOL     OW18799   4.103   6.555   1.645 -0.2313 -0.2524 -0.6282
 5967SOL    HW118800   4.023   6.503   1.615  1.2160 -3.2850  0.3116
 5967SOL    HW218801   4.088   6.586   1.739 -0.0276 -1.6144 -0.1146
 5968SOL     OW18802   2.097   1.651   2.081 -0.2088 -0.3849  0.2202
 5968SOL    HW118803   2.124   1.570   2.132  0.2544 -0.8083 -0.6674
 5968SOL    HW218804   2.000   1.644   2.056 -0.5969  0.1013  1.5160
 5969SOL     OW18805   6.593   0.331   0.930 -0.8193  0.4152 -0.3499
 5969SOL    HW118806   6.527   0.332   1.005 -1.6802  0.7567 -1.0906
 5969SOL    HW218807   6.563   0.394   0.859  0.2188  0.4302 -0.7875
 5970SOL     OW18808   1.005   4.306   4.266  0.3098 -0.0205  0.0775
 5970SOL    HW118809   1.016   4.370   4.191  1.6805 -0.0722  0.2135
 5970SOL    HW218810   0.985   4.215   4.230  2.4862 -0.3811 -0.3423
 5971SOL     OW18811   3.869   0.977   3.951  0.1861  0.1429  0.0206
 5971SOL    HW118812   3.798   1.017   4.009  0.1418 -1.3210  1.0257
 5971SOL    HW218813   3.959   0.994   3.991  0.1005 -1.6221  1.0394
 5972SOL     OW18814   4.939   4.568   2.875 -0.2981 -0.2077 -0.3571
 5972SOL    HW118815   4.995   4.651   2.878  0.4024 -0.6630 -0.4601
 5972SOL    HW218816   4.943   4.522   2.963  0.0361 -0.5858 -0.5644
 5973SOL     OW18817   3.961   5.003   5.283  0.6710 -0.2150  0.3880
 5973SOL    HW118818   3.980   4.957   5.197 -2.7932  0.4008 -0.8843
 5973SOL    HW218819   3.958   4.935   5.357  0.2386 -1.3254 -0.6154
 5974SOL     OW18820   1.651   3.609   6.298 -0.2587  0.0382  0.0449
 5974SOL    HW118821   1.660   3.697   6.344  0.1944 -0.4295  0.8798
 5974SOL    HW218822   1.741   3.577   6.269 -0.5149  0.2219 -0.9816
 5975SOL     OW18823   4.362   4.198   5.746  0.0117 -0.0887  0.3322
 5975SOL    HW118824   4.280   4.163   5.701  1.4790 -2.1039 -0.9208
 5975SOL    HW218825   4.388   4.137   5.821  0.0792  0.8511  1.0994
 5976SOL     OW18826   3.274   3.001   3.487  0.2675 -0.4653  0.3323
 5976SOL    HW118827   3.279   2.922   3.426 -1.6405 -0.5992  0.2737
 5976SOL    HW218828   3.237   3.079   3.437 -0.3896 -0.3007  1.0462
 5977SOL     OW18829   1.322   3.674   3.737  0.6711 -0.3456 -0.4555
 5977SOL    HW118830   1.297   3.624   3.820  0.4159  0.2087 -0.1914
 5977SOL    HW218831   1.294   3.770   3.746  0.0541 -0.4215 -1.4429
 5978SOL     OW18832   6.765   4.825   3.038  0.4267 -0.5198 -0.2606
 5978SOL    HW118833   6.706   4.843   3.117  1.5515 -1.6458  0.8909
 5978SOL    HW218834   6.728   4.748   2.986  0.4272 -0.6574 -0.0551
 5979SOL     OW18835   1.320   0.167   1.227  0.1797  0.1343 -0.3499
 5979SOL    HW118836   1.308   0.242   1.292  1.9412 -0.2848  0.5050
 5979SOL    HW218837   1.406   0.178   1.178  0.7254 -1.5351  0.1422
 5980SOL     OW18838   5.934   2.793   6.018 -0.1330 -0.3006 -0.1569
 5980SOL    HW118839   5.867   2.779   6.090  0.2997 -1.3454  0.0568
 5980SOL    HW218840   6.024   2.762   6.050 -0.1757 -2.0668 -1.5857
 5981SOL     OW18841   2.454   2.375   1.482 -0.1684 -0.1599  0.2002
 5981SOL    HW118842   2.511   2.297   1.507 -1.5618 -0.9928  0.9478
 5981SOL    HW218843   2.505   2.460   1.493  1.1800 -0.9216 -0.0084
 5982SOL     OW18844   6.927   2.728   1.693  0.2766  0.1344  0.1941
 5982SOL    HW118845   6.938   2.819   1.652 -0.6257  1.0980  1.9840
 5982SOL    HW218846   7.015   2.680   1.690  1.3409  1.9175  1.1523
 5983SOL     OW18847   1.947   6.547   4.327  0.0817 -0.4119  0.2722
 5983SOL    HW118848   2.041   6.572   4.301  1.4175 -0.2577  4.5075
 5983SOL    HW218849   1.936   6.448   4.319  0.5575 -0.4345 -0.2750
 5984SOL     OW18850   1.361   6.904   6.592 -0.1419 -0.1328 -0.1441
 5984SOL    HW118851   1.397   6.933   6.680 -0.8436  0.5499 -0.0656
 5984SOL    HW218852   1.437   6.886   6.529  0.3700 -1.1988  0.7635
 5985SOL     OW18853   4.881   2.249   4.638  0.0125 -0.2077 -0.2575
 5985SOL    HW118854   4.917   2.257   4.545  1.3043  0.5141  0.2758
 5985SOL    HW218855   4.937   2.185   4.690 -1.4235 -1.5411 -0.2819
 5986SOL     OW18856   3.566   3.747   3.111 -0.6418  0.2766  0.1550
 5986SOL    HW118857   3.481   3.715   3.153 -0.7701  0.3109 -0.0781
 5986SOL    HW218858   3.633   3.673   3.111 -0.9673 -0.0232 -0.4627
 5987SOL     OW18859   4.495   3.130   5.567  0.4828  0.2136 -1.1785
 5987SOL    HW118860   4.583   3.084   5.558 -0.5614 -1.6579 -2.4729
 5987SOL    HW218861   4.505   3.227   5.542  2.7013  0.7948  1.4536
 5988SOL     OW18862   2.638   5.805   0.363  0.1976 -0.4152 -0.1969
 5988SOL    HW118863   2.630   5.710   0.393 -2.0160 -0.7365 -1.5554
 5988SOL    HW218864   2.578   5.862   0.420  0.1027 -0.1478 -0.5635
 5989SOL     OW18865   3.287   1.399   6.769 -0.2304  0.3192 -0.4597
 5989SOL    HW118866   3.284   1.471   6.839 -0.3997  1.4209 -1.5507
 5989SOL    HW218867   3.263   1.311   6.810 -0.1467  0.9053  0.8912
 5990SOL     OW18868   5.891   5.626   3.050 -0.0357  0.5422 -0.1507
 5990SOL    HW118869   5.947   5.543   3.047 -0.3848  0.2411  1.0149
 5990SOL    HW218870   5.848   5.634   3.140 -1.1823  1.2189 -0.7287
 5991SOL     OW18871   5.116   4.776   4.776  0.5330 -0.0863  0.6861
 5991SOL    HW118872   5.050   4.724   4.722 -0.4791  1.5994  0.2154
 5991SOL    HW218873   5.110   4.749   4.872 -0.8076 -0.0184  0.6326
 5992SOL     OW18874   2.851   1.667   3.377  0.4682  0.1715 -0.0251
 5992SOL    HW118875   2.905   1.585   3.360  1.4178  0.7145  0.2801
 5992SOL    HW218876   2.854   1.689   3.475  2.1557  1.8498 -0.4009
 5993SOL     OW18877   2.117   4.070   3.769  0.2314  0.4892  0.1533
 5993SOL    HW118878   2.119   4.164   3.735  3.5886 -0.3190 -2.3938
 5993SOL    HW218879   2.022   4.038   3.774 -0.8735  3.3100 -0.8729
 5994SOL     OW18880   5.195   1.790   0.658 -0.3677  0.1306  0.1478
 5994SOL    HW118881   5.290   1.793   0.690 -0.4061 -1.1481  0.3987
 5994SOL    HW218882   5.137   1.844   0.720  0.1746  0.8588  0.0305
 5995SOL     OW18883   0.746   3.104   2.563  0.0929  0.2363  0.0602
 5995SOL    HW118884   0.818   3.034   2.553  0.7361  0.5876  1.8319
 5995SOL    HW218885   0.688   3.103   2.481  1.8910 -0.2956 -1.2966
 5996SOL     OW18886   1.619   5.360   0.282  0.1162  0.2132 -0.1712
 5996SOL    HW118887   1.650   5.290   0.346 -0.6814  1.2054  1.3496
 5996SOL    HW218888   1.697   5.392   0.228  1.3113  1.0354  1.9675
 5997SOL     OW18889   1.990   6.184   1.163  0.2515  0.4860  0.4981
 5997SOL    HW118890   2.087   6.204   1.146  0.5461 -2.0391 -1.3290
 5997SOL    HW218891   1.935   6.222   1.090  0.0123  0.7473  0.8133
 5998SOL     OW18892   5.627   2.719   4.040  0.0700 -0.2473  0.4968
 5998SOL    HW118893   5.618   2.736   4.138  0.4438 -1.6746  0.8017
 5998SOL    HW218894   5.708   2.768   4.005  0.3291 -0.2765  1.0419
 5999SOL     OW18895   0.874   0.587   1.554 -0.1883  0.5653  0.1036
 5999SOL    HW118896   0.852   0.663   1.493 -1.3221  0.0631 -0.1464
 5999SOL    HW218897   0.914   0.512   1.501 -1.4108  0.0281 -0.1155
 6000SOL     OW18898   6.303   1.241   4.425  0.0354 -0.1184 -0.0429
 6000SOL    HW118899   6.336   1.334   4.445  1.1663 -0.6686  0.7697
 6000SOL    HW218900   6.274   1.197   4.510  0.2576 -0.7768 -0.2992
 6001SOL     OW18901   5.225   1.766   0.377  0.2162  0.9989  0.4603
 6001SOL    HW118902   5.221   1.794   0.473  2.8216 -1.0469  1.2852
 6001SOL    HW218903   5.312   1.719   0.360 -1.4544 -1.4413 -2.1225
 6002SOL     OW18904   2.377   6.231   3.891 -0.7519  0.1149  0.1889
 6002SOL    HW118905   2.403   6.213   3.796  0.3710  0.9077  0.3220
 6002SOL    HW218906   2.306   6.167   3.919 -2.0254  0.7124 -1.5691
 6003SOL     OW18907   5.215   4.769   4.026 -0.2468  0.0111 -0.1015
 6003SOL    HW118908   5.247   4.722   3.944  0.2309  0.6588 -0.2948
 6003SOL    HW218909   5.197   4.865   4.004 -0.7222  0.0453  0.4076
 6004SOL     OW18910   6.044   3.802   6.787 -0.4692  0.5868 -0.3922
 6004SOL    HW118911   6.046   3.705   6.814 -1.3435  0.5344 -0.4910
 6004SOL    HW218912   6.036   3.808   6.687 -1.0429  0.7498 -0.3408
 6005SOL     OW18913   2.352   4.407   0.148  0.0326 -0.0060  0.1450
 6005SOL    HW118914   2.372   4.362   0.061 -0.0734  0.8615 -0.3402
 6005SOL    HW218915   2.432   4.401   0.208 -0.6445 -2.6736  0.9384
 6006SOL     OW18916   3.199   0.483   5.222  0.7769  0.5391 -0.1646
 6006SOL    HW118917   3.110   0.467   5.265  0.3321 -0.6171 -1.4613
 6006SOL    HW218918   3.272   0.456   5.286  0.1234 -1.5958 -0.2364
 6007SOL     OW18919   6.808   4.163   3.126  0.0412  0.5083 -0.0309
 6007SOL    HW118920   6.823   4.149   3.224 -2.8411 -0.2198  0.3809
 6007SOL    HW218921   6.852   4.249   3.099 -0.7788  1.7942  2.3573
 6008SOL     OW18922   4.863   5.805   0.579  0.0547 -0.4665 -0.2380
 6008SOL    HW118923   4.787   5.767   0.632 -0.4299 -0.2192 -0.7592
 6008SOL    HW218924   4.839   5.896   0.547  0.6611 -0.2971 -0.2195
 6009SOL     OW18925   3.965   0.356   5.571 -0.4089 -0.2302 -0.4530
 6009SOL    HW118926   3.926   0.279   5.621  0.5969 -0.0878  0.6202
 6009SOL    HW218927   4.006   0.324   5.486  0.4496 -0.9936  0.2191
 6010SOL     OW18928   1.368   4.852   2.078 -0.2051 -0.2295  0.1627
 6010SOL    HW118929   1.378   4.795   1.997 -2.1277 -0.4810  0.0596
 6010SOL    HW218930   1.297   4.814   2.138 -1.4586  1.9055  0.1630
 6011SOL     OW18931   6.537   2.445   7.013  0.1247  0.2383 -0.1702
 6011SOL    HW118932   6.489   2.532   7.023  0.4388  0.4261 -0.2675
 6011SOL    HW218933   6.485   2.373   7.057  0.0223  0.5360  0.2038
 6012SOL     OW18934   2.163   3.410   1.071  0.3248  0.0798 -0.4850
 6012SOL    HW118935   2.262   3.428   1.078  0.6060 -1.7422  2.8122
 6012SOL    HW218936   2.135   3.414   0.976  3.5776  0.6985 -1.5609
 6013SOL     OW18937   6.346   1.815   4.646  0.2862 -0.3627 -0.0216
 6013SOL    HW118938   6.303   1.754   4.579  1.6357  0.4806 -1.7343
 6013SOL    HW218939   6.300   1.904   4.645  0.6240 -0.1876 -0.2153
 6014SOL     OW18940   0.097   0.668   4.088  0.1465 -0.4142 -0.3384
 6014SOL    HW118941   0.076   0.719   4.004 -0.0200 -0.7637 -0.5076
 6014SOL    HW218942   0.167   0.599   4.068  1.1846  0.4616  0.1275
 6015SOL     OW18943   4.110   6.837   4.658  0.3856 -0.3139  0.0779
 6015SOL    HW118944   4.055   6.765   4.616  0.9875 -0.3501 -0.6795
 6015SOL    HW218945   4.062   6.924   4.650  1.4487  0.1065 -2.8073
 6016SOL     OW18946   1.432   6.904   5.947  0.4590  0.4607 -0.0160
 6016SOL    HW118947   1.465   6.873   6.036 -0.3515  0.7487  0.4015
 6016SOL    HW218948   1.354   6.966   5.960 -0.9365 -1.0097 -0.9610
 6017SOL     OW18949   5.206   3.006   3.658 -0.1272 -0.2043 -0.1123
 6017SOL    HW118950   5.200   3.046   3.566  0.0402  1.6109  0.6319
 6017SOL    HW218951   5.301   2.984   3.678  0.2843  2.0076  0.6335
 6018SOL     OW18952   3.184   4.564   0.675 -0.1177  0.2788  0.2631
 6018SOL    HW118953   3.230   4.475   0.672  0.3971  0.3774  2.7983
 6018SOL    HW218954   3.092   4.553   0.712  0.3395  0.8766  1.6658
 6019SOL     OW18955   4.687   0.546   3.437 -0.1389  0.3622 -0.2333
 6019SOL    HW118956   4.688   0.616   3.365  0.0755  0.7213  0.1183
 6019SOL    HW218957   4.741   0.468   3.407  1.3709  1.2024  0.2175
 6020SOL     OW18958   1.168   6.853   3.715  0.0893  0.3138 -0.1276
 6020SOL    HW118959   1.168   6.785   3.789  0.8046 -0.5832 -0.9151
 6020SOL    HW218960   1.116   6.817   3.637  1.0001  0.3789 -0.7872
 6021SOL     OW18961   3.196   1.912   1.440 -0.2563  0.0771 -0.1282
 6021SOL    HW118962   3.205   1.838   1.506  0.3185  0.7405  0.5612
 6021SOL    HW218963   3.102   1.946   1.441 -0.3353 -0.1459  0.0915
 6022SOL     OW18964   5.538   7.007   5.214 -0.2298  0.5426 -0.3113
 6022SOL    HW118965   5.452   7.058   5.219  0.0932  1.0943 -0.2829
 6022SOL    HW218966   5.530   6.924   5.269 -1.4548 -0.5053 -1.9771
 6023SOL     OW18967   6.549   2.258   0.677 -0.5513  0.3661  0.4195
 6023SOL    HW118968   6.476   2.318   0.646 -0.6758  0.3245  0.6343
 6023SOL    HW218969   6.572   2.194   0.603 -1.7968 -0.6456  0.8562
 6024SOL     OW18970   5.456   4.146   3.401 -0.1491 -0.5794 -0.0825
 6024SOL    HW118971   5.511   4.083   3.456 -1.8983 -1.7866  0.3396
 6024SOL    HW218972   5.488   4.144   3.306 -0.2241 -2.1689 -0.0913
 6025SOL     OW18973   4.233   1.464   3.159  0.2270  0.3517  0.0926
 6025SOL    HW118974   4.170   1.526   3.205  1.1295  1.1235  0.3304
 6025SOL    HW218975   4.263   1.504   3.072 -0.3771 -0.4612 -0.5053
 6026SOL     OW18976   0.214   4.639   0.240  0.3841  0.2966 -0.0951
 6026SOL    HW118977   0.124   4.633   0.284  0.0768  0.2952 -0.7091
 6026SOL    HW218978   0.219   4.724   0.188  0.3348 -0.1952 -0.9242
 6027SOL     OW18979   4.187   3.352   6.255 -0.2109 -0.1137  0.3806
 6027SOL    HW118980   4.095   3.384   6.233 -0.1723 -0.3164 -0.0731
 6027SOL    HW218981   4.195   3.255   6.232  0.7963  0.4094 -1.7010
 6028SOL     OW18982   6.806   4.793   0.621  0.0588 -0.4530  0.9010
 6028SOL    HW118983   6.807   4.694   0.610 -0.5401 -0.4248  0.5943
 6028SOL    HW218984   6.714   4.824   0.645  0.8287 -0.3163  4.1879
 6029SOL     OW18985   0.397   4.311   2.048  0.3360  0.0161 -0.0722
 6029SOL    HW118986   0.326   4.379   2.068  0.9489  1.1335 -1.5356
 6029SOL    HW218987   0.419   4.261   2.132 -1.2844  0.4823  0.6820
 6030SOL     OW18988   3.344   5.722   1.180  0.2555 -0.4504  0.9093
 6030SOL    HW118989   3.300   5.801   1.139  1.4388  0.7554  1.8821
 6030SOL    HW218990   3.415   5.688   1.118 -1.2776 -1.7816 -0.2112
 6031SOL     OW18991   5.104   1.086   4.563  0.2800  0.2256  0.2737
 6031SOL    HW118992   5.054   1.039   4.491  1.1501  1.2284 -1.0251
 6031SOL    HW218993   5.090   1.038   4.650 -0.5162 -1.2085 -0.6054
 6032SOL     OW18994   2.028   1.872   3.007 -0.4344 -0.2679  0.1658
 6032SOL    HW118995   2.092   1.910   3.073 -1.3424  0.1703  0.8274
 6032SOL    HW218996   1.954   1.826   3.056 -1.0229 -0.1057 -0.5528
 6033SOL     OW18997   6.853   4.858   3.483  0.5544  0.3246 -0.5778
 6033SOL    HW118998   6.832   4.768   3.444  0.8544  0.0621 -0.1415
 6033SOL    HW218999   6.783   4.924   3.456 -0.3367 -0.3224  0.0946
 6034SOL     OW19000   1.863   3.892   5.827  0.0246  0.4722  0.3862
 6034SOL    HW119001   1.808   3.890   5.910  0.7584  1.9091  0.9550
 6034SOL    HW219002   1.821   3.954   5.760  0.2327  0.5310  0.3072
 6035SOL     OW19003   4.498   1.149   5.648 -0.0376  0.4594 -0.0092
 6035SOL    HW119004   4.485   1.050   5.658 -0.0063  0.4426 -0.1348
 6035SOL    HW219005   4.514   1.171   5.552  0.5071  0.5255  0.0977
 6036SOL     OW19006   4.246   1.851   5.815 -0.2728 -0.6678  0.2628
 6036SOL    HW119007   4.345   1.852   5.828 -0.2758 -0.1272  0.3055
 6036SOL    HW219008   4.225   1.862   5.718 -0.2935  1.4762  0.4567
 6037SOL     OW19009   2.431   6.474   3.982  0.0269  0.5916 -0.0247
 6037SOL    HW119010   2.397   6.382   3.967 -0.3974  0.8041 -0.4075
 6037SOL    HW219011   2.409   6.531   3.902  0.7359  0.8920 -0.0128
 6038SOL     OW19012   6.996   4.063   2.016 -0.4730  0.3141 -0.6620
 6038SOL    HW119013   7.024   3.980   2.066 -0.7406 -0.0352 -1.0853
 6038SOL    HW219014   7.050   4.071   1.933  0.0294  0.9411 -0.2805
 6039SOL     OW19015   4.036   3.640   3.892 -0.3054  0.0400 -0.1442
 6039SOL    HW119016   3.975   3.564   3.869 -1.5755  1.0884 -0.3864
 6039SOL    HW219017   4.093   3.663   3.813  0.0665 -0.6349 -0.0757
 6040SOL     OW19018   0.205   2.111   1.626 -0.3380  0.0149  0.1300
 6040SOL    HW119019   0.188   2.092   1.529 -0.9144 -1.0064  0.4195
 6040SOL    HW219020   0.280   2.053   1.658  0.5249  1.0654  0.0603
 6041SOL     OW19021   1.640   2.987   1.874 -0.2323 -0.3813 -0.3101
 6041SOL    HW119022   1.618   2.966   1.778 -1.2841  1.7998 -0.6093
 6041SOL    HW219023   1.739   2.982   1.887  0.4281  3.0068 -2.6173
 6042SOL     OW19024   6.162   0.687   5.196  0.1429  0.3399 -0.0688
 6042SOL    HW119025   6.088   0.634   5.155 -0.8827  0.7016  1.2272
 6042SOL    HW219026   6.141   0.785   5.188  2.7827  0.7892 -3.8913
 6043SOL     OW19027   2.479   5.750   3.446 -0.4869 -0.0652  0.2781
 6043SOL    HW119028   2.420   5.778   3.522 -0.8965  0.4557 -0.2256
 6043SOL    HW219029   2.423   5.722   3.368 -0.0779  0.1334 -0.0970
 6044SOL     OW19030   2.444   0.605   3.361  0.3841  0.0968 -0.1781
 6044SOL    HW119031   2.539   0.579   3.379  0.8747  1.1964 -1.0696
 6044SOL    HW219032   2.437   0.644   3.269 -1.2805 -1.6623 -0.8643
 6045SOL     OW19033   6.525   3.310   0.403  0.2974  0.5520  0.3052
 6045SOL    HW119034   6.579   3.285   0.323  0.6022 -0.7595  0.9093
 6045SOL    HW219035   6.584   3.315   0.484 -0.3900 -0.5232  0.8969
 6046SOL     OW19036   0.331   3.427   1.253  0.6979 -0.4995 -0.5089
 6046SOL    HW119037   0.310   3.343   1.203  0.4249 -0.0392 -1.1742
 6046SOL    HW219038   0.247   3.480   1.267  0.4600 -1.3741  1.8782
 6047SOL     OW19039   2.719   5.823   4.457 -0.1377  0.6208  0.1808
 6047SOL    HW119040   2.748   5.857   4.368 -1.9222 -1.2044 -1.1884
 6047SOL    HW219041   2.678   5.898   4.509  2.6104  2.1547  0.3317
 6048SOL     OW19042   3.663   6.602   3.226 -0.0375  0.1397 -0.2628
 6048SOL    HW119043   3.635   6.636   3.136 -1.7733  0.4398  0.3404
 6048SOL    HW219044   3.684   6.680   3.285  4.1520 -0.0441 -1.1830
 6049SOL     OW19045   0.752   5.504   0.727  0.2265  0.7200 -0.0766
 6049SOL    HW119046   0.832   5.527   0.781  0.1592  1.5169 -0.3004
 6049SOL    HW219047   0.674   5.559   0.758 -0.2265 -0.0088  0.1070
 6050SOL     OW19048   6.243   3.640   4.940 -0.1243  0.0829  0.1466
 6050SOL    HW119049   6.290   3.553   4.952 -0.2868  0.0684  0.7227
 6050SOL    HW219050   6.247   3.692   5.025  0.3954  0.8557 -0.3336
 6051SOL     OW19051   3.151   1.554   4.758  0.1831  0.9649 -0.5303
 6051SOL    HW119052   3.176   1.584   4.850  1.2507  0.9907 -0.8123
 6051SOL    HW219053   3.232   1.517   4.712 -0.9168 -1.9850 -0.3582
 6052SOL     OW19054   6.542   1.189   6.148  0.3468  0.5323  0.1425
 6052SOL    HW119055   6.457   1.137   6.150  1.0585 -0.7271 -0.7828
 6052SOL    HW219056   6.619   1.127   6.164  1.1090  1.6414  0.9354
 6053SOL     OW19057   0.420   0.742   6.634  0.3612 -0.1219 -0.0658
 6053SOL    HW119058   0.396   0.714   6.727  0.5223 -1.1398 -0.3188
 6053SOL    HW219059   0.436   0.841   6.631 -3.1229  0.5692  0.2669
 6054SOL     OW19060   6.537   5.987   5.999  0.0752  0.3609 -0.2174
 6054SOL    HW119061   6.571   5.933   5.922  0.3543  1.8827 -1.2116
 6054SOL    HW219062   6.611   6.003   6.064  0.0334 -0.2972 -0.0061
 6055SOL     OW19063   4.964   0.151   3.180  0.0248  0.4617  0.2219
 6055SOL    HW119064   4.881   0.180   3.131  0.5262 -0.3828 -1.2004
 6055SOL    HW219065   5.031   0.225   3.177  0.4595  0.0578 -1.4129
 6056SOL     OW19066   6.794   3.387   5.720  0.5628  0.1170 -0.1913
 6056SOL    HW119067   6.885   3.421   5.744  0.8582 -0.6340 -0.2239
 6056SOL    HW219068   6.788   3.378   5.620  0.6974 -0.4835 -0.1503
 6057SOL     OW19069   3.228   6.101   6.068  0.0860 -0.1310 -0.4016
 6057SOL    HW119070   3.268   6.009   6.072  3.1983  0.8920 -3.4194
 6057SOL    HW219071   3.230   6.142   6.159  2.4063 -1.6712  0.3462
 6058SOL     OW19072   6.196   2.510   4.053 -0.0702  0.5313 -0.0154
 6058SOL    HW119073   6.265   2.581   4.064 -0.0169  0.5602 -0.5155
 6058SOL    HW219074   6.116   2.531   4.110 -0.7909  1.9169 -1.4768
 6059SOL     OW19075   0.866   0.005   0.747  0.4131  0.0044  0.2148
 6059SOL    HW119076   0.793   0.062   0.785 -0.5350 -0.4941 -0.8110
 6059SOL    HW219077   0.833  -0.040   0.664  1.6224 -0.8912  0.2015
 6060SOL     OW19078   2.628   4.159   6.932 -0.2616 -0.0763  0.5600
 6060SOL    HW119079   2.715   4.111   6.917  0.2493  1.2871 -1.2143
 6060SOL    HW219080   2.597   4.143   7.025  1.1477 -1.7743  0.7947
 6061SOL     OW19081   2.275   2.251   1.085  0.5935 -0.1958 -0.3418
 6061SOL    HW119082   2.223   2.192   1.146  0.8245 -0.3514 -0.2930
 6061SOL    HW219083   2.218   2.280   1.009 -0.0787  0.9728  0.5641
 6062SOL     OW19084   1.618   0.243   2.696 -0.3770  0.1469 -0.3443
 6062SOL    HW119085   1.678   0.318   2.668 -0.3931  0.8049  1.2368
 6062SOL    HW219086   1.660   0.194   2.773 -1.5406  0.2280  0.3762
 6063SOL     OW19087   4.804   6.576   4.213  0.0552 -0.4809  0.3905
 6063SOL    HW119088   4.898   6.610   4.210  0.8123 -2.3576  0.9485
 6063SOL    HW219089   4.761   6.586   4.123  1.0454 -0.2726 -0.0656
 6064SOL     OW19090   1.543   3.359   3.373 -0.2747  0.2093  0.3041
 6064SOL    HW119091   1.482   3.386   3.299 -1.9171 -2.0984  0.7228
 6064SOL    HW219092   1.544   3.260   3.381 -1.2421  0.3552  4.1780
 6065SOL     OW19093   4.810   6.524   1.887 -0.0655 -0.2840 -0.0943
 6065SOL    HW119094   4.746   6.598   1.866 -0.6379 -1.1588 -1.4800
 6065SOL    HW219095   4.848   6.486   1.803 -0.9630 -2.6197  0.4784
 6066SOL     OW19096   3.868   3.903   6.082 -0.1868 -0.1753  0.1583
 6066SOL    HW119097   3.964   3.922   6.104 -0.2521 -0.4411  0.6730
 6066SOL    HW219098   3.820   3.873   6.164 -0.6321 -0.3737 -0.1710
 6067SOL     OW19099   5.821   2.841   6.747  0.0343 -0.4542  0.6381
 6067SOL    HW119100   5.749   2.870   6.811 -0.1446  0.4023  0.0675
 6067SOL    HW219101   5.780   2.782   6.677  0.1691 -1.1280  1.1161
 6068SOL     OW19102   4.381   2.042   6.485  0.1229 -0.0257 -0.1775
 6068SOL    HW119103   4.436   1.968   6.526  0.7133  0.5489  0.0794
 6068SOL    HW219104   4.372   2.117   6.550 -1.0458 -0.1341 -0.1902
 6069SOL     OW19105   4.971   5.946   5.132 -0.3380  0.7976  0.1362
 6069SOL    HW119106   5.069   5.946   5.115 -0.3666 -0.6101 -0.1463
 6069SOL    HW219107   4.952   5.988   5.221  0.7452 -0.9233  1.2312
 6070SOL     OW19108   4.915   2.206   0.684  0.4128 -0.0387  0.8797
 6070SOL    HW119109   4.984   2.268   0.722  0.5912  0.1843  0.2073
 6070SOL    HW219110   4.947   2.171   0.596  0.2378 -0.9639  1.1803
 6071SOL     OW19111   4.775   4.995   4.552  0.2698 -0.1503  0.4077
 6071SOL    HW119112   4.703   5.064   4.558 -1.4574 -1.8787  0.6298
 6071SOL    HW219113   4.756   4.935   4.474  0.2947 -1.8535  1.6475
 6072SOL     OW19114   0.142   1.754   1.793  0.0276  0.1283  0.2159
 6072SOL    HW119115   0.176   1.742   1.700 -0.1447  0.1107  0.1545
 6072SOL    HW219116   0.150   1.667   1.843  1.8235  0.5731  0.7955
 6073SOL     OW19117   0.787   1.000   0.486 -0.1138 -0.2880 -0.1801
 6073SOL    HW119118   0.730   1.051   0.422 -0.1489 -0.8683 -0.6173
 6073SOL    HW219119   0.867   1.054   0.510 -1.0143  0.6880  0.7201
 6074SOL     OW19120   2.557   0.830   1.019 -0.4255  0.2466  1.0957
 6074SOL    HW119121   2.530   0.883   0.939  1.2103 -0.5780 -0.0585
 6074SOL    HW219122   2.480   0.773   1.048 -0.5946 -0.6679 -0.9407
 6075SOL     OW19123   5.185   4.283   3.766 -0.3450  0.0107  0.0027
 6075SOL    HW119124   5.245   4.247   3.838  0.7668  0.7348 -0.5261
 6075SOL    HW219125   5.152   4.208   3.710 -0.5211 -0.4765  0.7487
 6076SOL     OW19126   2.272   0.385   3.378  0.7521  0.3360 -0.0138
 6076SOL    HW119127   2.334   0.462   3.366  1.1842  0.0969  0.5856
 6076SOL    HW219128   2.326   0.304   3.404  0.1666  0.1714  0.6928
 6077SOL     OW19129   5.523   4.489   2.235  0.2258  0.0634 -0.4051
 6077SOL    HW119130   5.483   4.468   2.325  0.0700  0.6664 -0.3261
 6077SOL    HW219131   5.463   4.552   2.186 -0.7277 -1.8127 -1.7878
 6078SOL     OW19132   3.410   4.110   5.124  0.2183  0.6262 -0.4786
 6078SOL    HW119133   3.445   4.088   5.215  1.8793  1.3403 -0.9192
 6078SOL    HW219134   3.322   4.157   5.134  0.0405  0.0890  0.7246
 6079SOL     OW19135   3.634   1.474   0.711  0.0891  0.1234  0.5605
 6079SOL    HW119136   3.700   1.516   0.773  1.2317  0.2019 -0.6573
 6079SOL    HW219137   3.663   1.490   0.616 -1.4096 -0.2982  0.0093
 6080SOL     OW19138   6.745   3.298   4.758 -0.4879 -0.6220 -0.3141
 6080SOL    HW119139   6.843   3.306   4.742 -0.6839 -0.1631 -1.3800
 6080SOL    HW219140   6.728   3.278   4.855  0.5875  0.9149  0.2318
 6081SOL     OW19141   6.178   5.019   0.189  0.1677 -0.1240 -0.2646
 6081SOL    HW119142   6.109   5.092   0.188 -2.4115 -2.4057  0.9790
 6081SOL    HW219143   6.135   4.932   0.167  3.2849 -1.3006 -2.4277
 6082SOL     OW19144   4.028   1.639   4.849 -0.7133 -0.3784  0.3463
 6082SOL    HW119145   3.950   1.670   4.794 -0.0546 -0.8035 -0.8732
 6082SOL    HW219146   4.022   1.539   4.861  0.1266 -0.5588 -0.5885
 6083SOL     OW19147   0.764   0.439   6.536  0.1127 -0.0945  0.8938
 6083SOL    HW119148   0.737   0.534   6.530 -1.9117 -0.7048 -0.4627
 6083SOL    HW219149   0.861   0.430   6.512 -0.2154  1.3702 -1.1997
 6084SOL     OW19150   5.358   6.114   4.983 -0.0164 -0.3944  0.0965
 6084SOL    HW119151   5.424   6.162   4.925 -0.3048 -1.2346 -0.9495
 6084SOL    HW219152   5.348   6.164   5.070  1.1569  0.3421 -0.1636
 6085SOL     OW19153   5.803   4.344   2.041 -0.2364  0.1453  0.6352
 6085SOL    HW119154   5.775   4.378   1.951 -0.2955  3.9742  1.9099
 6085SOL    HW219155   5.900   4.363   2.054 -0.0980 -0.8971  1.2092
 6086SOL     OW19156   1.391   1.929   4.311 -0.6562  0.9430 -0.6467
 6086SOL    HW119157   1.321   1.987   4.268  0.5512  1.6697 -1.6767
 6086SOL    HW219158   1.375   1.834   4.287 -1.2380  1.1101 -0.9347
 6087SOL     OW19159   3.290   0.075   0.227 -0.6581  0.3353 -0.1640
 6087SOL    HW119160   3.378   0.067   0.181 -0.3502  1.2865  0.2307
 6087SOL    HW219161   3.255  -0.016   0.248  1.1630 -0.0704  1.4209
 6088SOL     OW19162   6.689   1.949   5.434 -0.0094 -0.6496 -0.1598
 6088SOL    HW119163   6.616   2.004   5.394  0.2498  0.1895  0.5050
 6088SOL    HW219164   6.775   1.966   5.386  0.1191 -0.2887  0.1880
 6089SOL     OW19165   5.915   3.956   0.812 -0.0014  0.1628 -0.6898
 6089SOL    HW119166   5.815   3.961   0.818  0.1265  1.2079  1.2921
 6089SOL    HW219167   5.945   3.994   0.724 -1.3246  0.4019 -1.0537
 6090SOL     OW19168   1.791   5.856   3.573  0.6896 -0.3583  0.0686
 6090SOL    HW119169   1.868   5.819   3.624  2.0916  0.9760 -0.9840
 6090SOL    HW219170   1.776   5.952   3.599 -2.0075 -1.1591  1.7818
 6091SOL     OW19171   0.436   0.452   2.126 -0.4457  0.2569  0.3653
 6091SOL    HW119172   0.344   0.490   2.134 -0.3464  0.1927  2.3084
 6091SOL    HW219173   0.502   0.518   2.163  0.2835  0.2360 -0.8636
 6092SOL     OW19174   0.108   4.184   0.202 -0.0482  0.2239  0.9604
 6092SOL    HW119175   0.200   4.214   0.227 -0.1198  0.1821  1.2720
 6092SOL    HW219176   0.040   4.234   0.257 -0.2724  1.1421 -0.0949
 6093SOL     OW19177   6.992   5.422   0.172  0.3932  0.0033 -0.1888
 6093SOL    HW119178   7.032   5.514   0.174  0.1243  0.1376  2.3757
 6093SOL    HW219179   6.897   5.428   0.143 -0.0505  0.7882  1.2811
 6094SOL     OW19180   0.089   1.809   6.753  0.3137 -0.3263 -0.1169
 6094SOL    HW119181   0.074   1.854   6.841 -0.1737  1.6258 -1.1430
 6094SOL    HW219182   0.143   1.868   6.694  0.1350 -1.3416 -1.3362
 6095SOL     OW19183   5.652   3.244   6.530 -0.4616  0.2749  0.0645
 6095SOL    HW119184   5.690   3.155   6.505  0.9101  0.8610 -0.0362
 6095SOL    HW219185   5.625   3.243   6.626 -0.1229 -0.1427  0.1602
 6096SOL     OW19186   4.791   0.748   2.694  0.1580  0.5013  0.1861
 6096SOL    HW119187   4.798   0.790   2.784 -1.2939  2.7616 -0.6579
 6096SOL    HW219188   4.882   0.744   2.652  0.5642  1.4553  0.9247
 6097SOL     OW19189   3.725   2.107   2.334 -0.2743  0.1321 -0.1595
 6097SOL    HW119190   3.657   2.156   2.389 -0.3134  0.1988 -0.2656
 6097SOL    HW219191   3.708   2.126   2.237 -0.1197  0.1269 -0.1867
 6098SOL     OW19192   6.729   0.740   4.932 -0.3297 -0.0757  0.0493
 6098SOL    HW119193   6.742   0.696   4.844 -0.5967  0.5068 -0.2835
 6098SOL    HW219194   6.740   0.839   4.923  0.1066 -0.0475  0.7597
 6099SOL     OW19195   6.718   4.536   3.209  0.0064  0.3558 -0.1504
 6099SOL    HW119196   6.692   4.630   3.187  0.9510  1.0190  1.4042
 6099SOL    HW219197   6.696   4.516   3.305 -1.2628 -1.4318 -0.7482
 6100SOL     OW19198   0.792   3.642   0.513 -0.0409 -0.2593  0.2810
 6100SOL    HW119199   0.835   3.696   0.440  1.4314 -1.5096  0.1691
 6100SOL    HW219200   0.708   3.687   0.542  0.7070  1.6629 -0.3404
 6101SOL     OW19201   1.279   5.279   4.209  0.2840 -0.1930 -0.6814
 6101SOL    HW119202   1.325   5.247   4.126  1.8034  0.5701 -0.1693
 6101SOL    HW219203   1.294   5.212   4.282  0.0978 -0.2096 -0.6585
 6102SOL     OW19204   2.764   0.709   4.880  0.0571  0.9189  0.6339
 6102SOL    HW119205   2.760   0.699   4.980 -1.6090  1.1075  0.6120
 6102SOL    HW219206   2.679   0.674   4.840  0.6597  0.9685 -0.7119
 6103SOL     OW19207   6.943   1.182   5.151  0.0724 -0.4484 -0.2762
 6103SOL    HW119208   7.006   1.247   5.110  0.1093  0.6753  1.4384
 6103SOL    HW219209   6.969   1.089   5.125  0.4933  0.1627 -2.1439
 6104SOL     OW19210   1.963   3.578   1.203 -0.0658  0.1696 -0.0710
 6104SOL    HW119211   1.942   3.644   1.132  3.0164  0.3730 -0.9434
 6104SOL    HW219212   2.039   3.520   1.173  1.7667  0.6238  3.2067
 6105SOL     OW19213   3.141   6.476   6.183  0.0317 -0.4275 -0.1811
 6105SOL    HW119214   3.168   6.455   6.277  0.1091 -1.6671 -0.4665
 6105SOL    HW219215   3.088   6.400   6.145 -0.4095  0.2581 -0.9918
 6106SOL     OW19216   2.591   6.684   4.555 -0.0462  0.6243  0.1456
 6106SOL    HW119217   2.611   6.646   4.646  1.5291 -0.6669 -0.6770
 6106SOL    HW219218   2.513   6.635   4.516 -0.3649  0.7855  0.5713
 6107SOL     OW19219   2.918   6.453   5.311 -0.8461 -0.3433  0.4962
 6107SOL    HW119220   2.820   6.457   5.292 -0.7981 -2.0029 -0.2863
 6107SOL    HW219221   2.941   6.521   5.380 -2.8829 -1.1088  2.0476
 6108SOL     OW19222   5.520   2.678   5.419  0.2321  0.2630 -0.1163
 6108SOL    HW119223   5.543   2.605   5.354 -1.4186 -0.2872 -0.1278
 6108SOL    HW219224   5.423   2.702   5.408  0.9279  3.1160 -0.7458
 6109SOL     OW19225   6.559   5.092   0.358 -0.3630 -0.1825  0.4679
 6109SOL    HW119226   6.510   5.164   0.406 -1.5055  0.5796 -1.7236
 6109SOL    HW219227   6.499   5.014   0.343 -0.6123  0.2963 -1.2252
 6110SOL     OW19228   4.758   2.166   3.978 -0.3300  0.2713  0.0935
 6110SOL    HW119229   4.805   2.084   4.012 -0.2117  0.3473  0.1159
 6110SOL    HW219230   4.698   2.141   3.902  0.0960  0.2382 -0.2417
 6111SOL     OW19231   1.304   4.059   2.436 -0.6372  0.1601  0.2015
 6111SOL    HW119232   1.394   4.056   2.392 -0.6258 -2.5545  0.2452
 6111SOL    HW219233   1.315   4.050   2.535 -0.9149  1.1156  0.3277
 6112SOL     OW19234   1.861   1.766   1.014 -0.6347  0.8371 -1.0857
 6112SOL    HW119235   1.847   1.865   1.003 -0.9465  1.3380  2.5450
 6112SOL    HW219236   1.923   1.750   1.091  1.3989 -1.8562 -3.0611
 6113SOL     OW19237   2.610   4.343   6.177  0.0657  0.4417 -0.0830
 6113SOL    HW119238   2.588   4.415   6.110  2.2466  2.8522  1.6115
 6113SOL    HW219239   2.666   4.273   6.133 -2.0147 -0.3093 -1.7418
 6114SOL     OW19240   4.098   5.587   0.345  0.1973  0.4268 -0.2885
 6114SOL    HW119241   4.191   5.551   0.330  0.2857  0.9309 -0.9398
 6114SOL    HW219242   4.031   5.520   0.312  0.3507  0.5970 -0.9455
 6115SOL     OW19243   6.753   3.597   3.004 -0.1135 -0.3624 -0.2029
 6115SOL    HW119244   6.700   3.516   3.027 -1.7737  0.3492 -1.3528
 6115SOL    HW219245   6.720   3.636   2.918  2.2305  0.1912 -0.9423
 6116SOL     OW19246   4.833   1.865   6.244 -0.0678 -0.2007 -0.1782
 6116SOL    HW119247   4.892   1.811   6.184  0.1402  0.9763 -1.0518
 6116SOL    HW219248   4.737   1.839   6.230 -0.0856  0.5012 -1.5087
 6117SOL     OW19249   5.577   5.360   3.674 -0.4587  0.3933 -0.7633
 6117SOL    HW119250   5.601   5.384   3.580  0.4696 -0.2635 -0.7135
 6117SOL    HW219251   5.660   5.333   3.723 -1.1911 -1.1822 -0.3390
 6118SOL     OW19252   6.831   5.552   2.672 -0.2449  0.5283  0.3015
 6118SOL    HW119253   6.894   5.484   2.709  1.1066  1.8370  0.4738
 6118SOL    HW219254   6.826   5.630   2.733  0.0540  1.6174 -1.0269
 6119SOL     OW19255   6.148   4.029   4.411 -0.5932  0.8884 -0.6822
 6119SOL    HW119256   6.231   4.047   4.358 -1.4114 -0.1865 -2.4203
 6119SOL    HW219257   6.154   3.938   4.452  0.1437  1.8098  1.3697
 6120SOL     OW19258   3.049   1.021   2.340 -0.5767 -0.0029  0.1095
 6120SOL    HW119259   2.991   1.069   2.406 -0.9262  1.0084 -0.8913
 6120SOL    HW219260   3.124   1.080   2.311 -1.5074  0.3223 -1.8019
 6121SOL     OW19261   6.876   2.372   5.427 -0.1634  0.6569 -0.3816
 6121SOL    HW119262   6.869   2.346   5.524  4.1861  0.6148  0.1034
 6121SOL    HW219263   6.856   2.293   5.370 -1.6789  0.3839  0.4683
 6122SOL     OW19264   2.133   0.101   4.104 -0.0691  0.0766 -0.7323
 6122SOL    HW119265   2.182   0.015   4.118 -1.9410 -0.9187  0.0928
 6122SOL    HW219266   2.123   0.118   4.006  0.0982 -0.7730 -0.9061
 6123SOL     OW19267   5.934   3.391   3.086  0.0444  0.2884  0.0456
 6123SOL    HW119268   5.949   3.442   3.001 -0.8020 -3.8812 -2.9573
 6123SOL    HW219269   5.859   3.326   3.073  1.1006 -1.8762  3.3368
 6124SOL     OW19270   3.836   1.475   5.543 -0.0506 -0.0718  0.2477
 6124SOL    HW119271   3.820   1.551   5.606  0.3352  0.0533  0.2005
 6124SOL    HW219272   3.932   1.448   5.548  0.1593  0.4242 -0.8182
 6125SOL     OW19273   6.250   4.245   2.067 -0.2547 -0.2568 -0.1083
 6125SOL    HW119274   6.262   4.209   2.160 -0.3810  0.7724  0.3216
 6125SOL    HW219275   6.258   4.344   2.069 -0.8303 -0.1805 -1.1164
 6126SOL     OW19276   3.090   6.552   5.110 -0.4673  0.2899  0.0771
 6126SOL    HW119277   3.087   6.486   5.035 -0.9881  0.3396  0.0483
 6126SOL    HW219278   3.053   6.509   5.193  2.1400 -0.5149  0.9174
 6127SOL     OW19279   0.671   6.196   0.644  0.3853  0.5126 -0.0231
 6127SOL    HW119280   0.736   6.129   0.606 -0.1823  0.3699 -0.7825
 6127SOL    HW219281   0.669   6.187   0.743  0.4183 -0.5264 -0.0963
 6128SOL     OW19282   5.379   4.888   2.037 -0.1391  0.1015  0.2409
 6128SOL    HW119283   5.315   4.963   2.026 -0.0036  0.2443  0.4202
 6128SOL    HW219284   5.389   4.839   1.951  0.2214  0.6520 -0.0370
 6129SOL     OW19285   6.371   3.418   3.948 -0.3662  0.1630 -0.1101
 6129SOL    HW119286   6.416   3.430   4.036  0.6848  0.8373 -0.7126
 6129SOL    HW219287   6.359   3.507   3.904  0.7928 -0.3055 -1.4379
 6130SOL     OW19288   4.872   2.979   2.930  0.0693 -0.0218  0.3589
 6130SOL    HW119289   4.956   2.927   2.940 -0.1998 -0.3483  1.0070
 6130SOL    HW219290   4.819   2.943   2.853  0.5307  0.2070 -0.0678
 6131SOL     OW19291   5.448   1.274   6.010 -0.2011 -0.1270  0.1721
 6131SOL    HW119292   5.438   1.371   6.032  2.3121 -0.0284  1.1307
 6131SOL    HW219293   5.503   1.265   5.927 -1.4230 -0.7695 -0.6138
 6132SOL     OW19294   1.131   2.985   0.522  0.3563 -0.2175  0.3806
 6132SOL    HW119295   1.215   2.936   0.543 -0.3173 -1.3565  0.5176
 6132SOL    HW219296   1.126   3.002   0.423  0.7224 -0.1937  0.3647
 6133SOL     OW19297   1.387   5.463   6.877 -0.6475  0.4302  0.0950
 6133SOL    HW119298   1.393   5.439   6.974 -0.5899 -0.7168 -0.1773
 6133SOL    HW219299   1.451   5.537   6.857  0.4196 -0.3099  0.6500
 6134SOL     OW19300   6.336   4.714   6.921 -0.2345  0.0673  0.0886
 6134SOL    HW119301   6.419   4.739   6.970 -0.4598  1.2890 -0.1394
 6134SOL    HW219302   6.359   4.691   6.827 -0.1801  0.6018 -0.0292
 6135SOL     OW19303   0.760   5.315   4.478  0.1172  0.0304 -0.2698
 6135SOL    HW119304   0.715   5.390   4.429 -0.0841 -0.5328 -0.9677
 6135SOL    HW219305   0.736   5.228   4.435  0.0507 -0.4706  0.7666
 6136SOL     OW19306   1.343   1.593   0.889  0.2183  0.2010 -0.5033
 6136SOL    HW119307   1.285   1.573   0.968  0.0012 -1.1394 -0.9791
 6136SOL    HW219308   1.438   1.573   0.912 -0.0887 -2.6800 -1.2854
 6137SOL     OW19309   2.707   0.568   5.448  0.0570  0.3185 -0.0940
 6137SOL    HW119310   2.714   0.658   5.491 -2.6761  0.2135  0.7010
 6137SOL    HW219311   2.718   0.497   5.517 -1.3641  0.1082 -0.0670
 6138SOL     OW19312   4.175   1.843   2.901 -0.4707  0.3324 -0.7596
 6138SOL    HW119313   4.127   1.771   2.951 -0.4714  0.4846 -0.5406
 6138SOL    HW219314   4.137   1.932   2.925 -0.3884  0.4173 -0.9376
 6139SOL     OW19315   2.781   6.004   2.925 -0.3434  0.6972 -0.4415
 6139SOL    HW119316   2.809   5.994   2.830 -1.0808  1.8150 -0.7940
 6139SOL    HW219317   2.720   6.083   2.934  1.8276  2.2934  1.3938
 6140SOL     OW19318   3.516   4.292   1.347 -0.2298 -0.1753 -0.4409
 6140SOL    HW119319   3.441   4.295   1.413  0.6064 -1.7823  0.6437
 6140SOL    HW219320   3.598   4.329   1.389  0.1739 -0.6949 -0.7644
 6141SOL     OW19321   0.874   4.738   4.637 -0.3392  0.0563  0.4681
 6141SOL    HW119322   0.955   4.695   4.597 -0.9378 -0.0687 -0.6673
 6141SOL    HW219323   0.804   4.669   4.654 -0.0356  0.0806  1.9572
 6142SOL     OW19324   6.471   4.136   4.434  0.3106 -0.6494  0.4886
 6142SOL    HW119325   6.545   4.118   4.368  0.7422  1.3319  0.3548
 6142SOL    HW219326   6.511   4.162   4.522 -0.2593 -1.2934  0.9439
 6143SOL     OW19327   4.422   5.230   5.702  0.4175  0.2590  0.2255
 6143SOL    HW119328   4.463   5.246   5.612  1.0915 -0.3581  0.4169
 6143SOL    HW219329   4.419   5.316   5.753 -1.6179  1.0211 -1.0289
 6144SOL     OW19330   1.752   1.397   2.807  0.1068 -0.2804 -0.3170
 6144SOL    HW119331   1.772   1.330   2.735  1.2636  0.2097 -0.4728
 6144SOL    HW219332   1.659   1.432   2.795  0.4485  0.1758 -1.9055
 6145SOL     OW19333   0.379   4.547   4.736 -0.2758  0.0949  0.3048
 6145SOL    HW119334   0.345   4.464   4.691 -0.6101 -1.0435  2.5192
 6145SOL    HW219335   0.304   4.591   4.786 -0.0369  1.6139 -0.6252
 6146SOL     OW19336   5.072   1.869   4.116  0.0984  0.1308 -0.5135
 6146SOL    HW119337   5.080   1.795   4.183 -0.7293  1.8574  1.6213
 6146SOL    HW219338   5.161   1.885   4.074  0.4084 -1.6790 -0.6243
 6147SOL     OW19339   0.979   4.275   5.259  0.1636  0.5010 -0.7686
 6147SOL    HW119340   1.065   4.305   5.217  0.2087  0.9295 -0.3855
 6147SOL    HW219341   0.916   4.353   5.265  0.2091  0.4874  0.0766
 6148SOL     OW19342   6.686   0.876   4.381  0.3563 -0.8674 -1.0466
 6148SOL    HW119343   6.654   0.933   4.305  0.6153 -0.3223 -0.7527
 6148SOL    HW219344   6.679   0.779   4.355  0.4398 -0.6905 -1.7619
 6149SOL     OW19345   1.388   5.442   3.755 -0.5358 -0.4005 -0.5658
 6149SOL    HW119346   1.436   5.388   3.825 -0.5866 -0.1766 -0.3584
 6149SOL    HW219347   1.456   5.488   3.697 -0.5028  0.1556 -0.0852
 6150SOL     OW19348   4.489   6.716   0.302  0.1158 -0.0984  0.3004
 6150SOL    HW119349   4.418   6.722   0.372 -0.4149 -0.8549 -0.1505
 6150SOL    HW219350   4.567   6.772   0.328 -0.6154  0.6956  0.8461
 6151SOL     OW19351   5.273   0.741   4.407 -0.9278 -0.2030  0.2188
 6151SOL    HW119352   5.312   0.829   4.436  1.1910 -1.2617  0.8120
 6151SOL    HW219353   5.254   0.744   4.309  1.9238  0.0599 -0.4287
 6152SOL     OW19354   1.061   5.527   0.684  0.2912 -0.5601 -0.0861
 6152SOL    HW119355   1.092   5.617   0.713  1.7393 -1.6714  2.0883
 6152SOL    HW219356   1.090   5.459   0.750 -3.1563 -2.3212 -0.1604
 6153SOL     OW19357   3.064   5.702   6.136 -1.1404  0.5663 -0.8029
 6153SOL    HW119358   3.158   5.712   6.104 -1.1714 -1.5752 -1.7787
 6153SOL    HW219359   3.064   5.659   6.227 -1.1645  0.6366 -0.7699
 6154SOL     OW19360   4.373   2.047   2.287  0.0209 -0.4036  0.5193
 6154SOL    HW119361   4.279   2.014   2.281 -0.2629  0.3990  0.4088
 6154SOL    HW219362   4.404   2.043   2.382 -0.6684  0.7712  0.8128
 6155SOL     OW19363   3.742   4.952   3.564 -0.0800 -0.6912 -0.3124
 6155SOL    HW119364   3.809   4.893   3.608  0.2168 -0.4904 -0.4957
 6155SOL    HW219365   3.780   5.044   3.553 -0.3143 -0.6249 -0.5867
 6156SOL     OW19366   4.528   0.386   3.596  0.3687 -0.5031 -0.4481
 6156SOL    HW119367   4.587   0.437   3.533 -0.9689  0.6617 -0.8420
 6156SOL    HW219368   4.572   0.300   3.622  2.0511  0.1596 -0.9733
 6157SOL     OW19369   1.218   1.355   3.741  0.0733 -0.7448 -0.0930
 6157SOL    HW119370   1.136   1.378   3.793  1.3382 -0.5328  1.9019
 6157SOL    HW219371   1.202   1.271   3.689 -0.5337 -2.3553  2.5350
 6158SOL     OW19372   6.148   1.799   5.614 -0.4682  0.2545 -0.8287
 6158SOL    HW119373   6.224   1.864   5.618  0.0815 -0.3220 -1.4927
 6158SOL    HW219374   6.062   1.849   5.614 -0.0668  0.9653 -0.8296
 6159SOL     OW19375   5.370   2.017   5.304  0.1892  0.0423  0.5052
 6159SOL    HW119376   5.325   2.048   5.220 -0.5119  1.0615  1.2345
 6159SOL    HW219377   5.348   1.921   5.320 -0.2931  0.0511 -0.0739
 6160SOL     OW19378   7.012   5.901   1.245 -0.8387 -0.0962 -0.4822
 6160SOL    HW119379   6.968   5.980   1.202 -2.2844 -1.1510 -1.0215
 6160SOL    HW219380   7.004   5.822   1.184  0.9961 -0.5711 -0.1599
 6161SOL     OW19381   4.864   0.349   6.806  0.3968 -0.4086  0.1858
 6161SOL    HW119382   4.838   0.444   6.820  1.6828  0.6621 -3.6746
 6161SOL    HW219383   4.786   0.290   6.828 -1.7226  1.8206 -0.8987
 6162SOL     OW19384   1.188   3.592   3.986  0.0933 -0.3358  0.2616
 6162SOL    HW119385   1.232   3.670   4.030 -0.7694  1.2458 -1.5015
 6162SOL    HW219386   1.127   3.547   4.051  0.1712  0.8220  1.1820
 6163SOL     OW19387   6.283   4.501   2.123 -0.3374 -0.0710  0.0622
 6163SOL    HW119388   6.342   4.494   2.042 -0.6665  0.0261 -0.1879
 6163SOL    HW219389   6.289   4.594   2.160 -0.0073 -0.1807  0.2894
 6164SOL     OW19390   4.204   3.719   0.555 -0.2979  0.5355  0.0066
 6164SOL    HW119391   4.143   3.794   0.579  0.0253  0.5854  0.6951
 6164SOL    HW219392   4.254   3.743   0.471 -0.0771  1.1653  0.3086
 6165SOL     OW19393   4.322   6.174   6.820 -0.4236 -0.0392 -0.4194
 6165SOL    HW119394   4.369   6.200   6.904  0.7392 -2.1900 -0.3257
 6165SOL    HW219395   4.250   6.108   6.842  0.8086 -1.7054 -1.1894
 6166SOL     OW19396   3.844   1.242   5.843  0.0189  0.0436 -0.0274
 6166SOL    HW119397   3.877   1.185   5.768 -0.4098  0.6198 -0.6594
 6166SOL    HW219398   3.916   1.306   5.871  1.0120 -1.6770  1.6131
 6167SOL     OW19399   1.218   4.320   2.986  0.1044  0.0617 -0.3004
 6167SOL    HW119400   1.312   4.309   2.953 -0.6301 -0.8209 -2.2580
 6167SOL    HW219401   1.191   4.239   3.038  0.3652  0.2619  0.1559
 6168SOL     OW19402   6.352   2.843   2.767 -0.1397  0.2842 -0.4892
 6168SOL    HW119403   6.405   2.891   2.836  0.9866  1.2644 -1.9820
 6168SOL    HW219404   6.395   2.755   2.746 -0.9129 -0.3764  0.5608
 6169SOL     OW19405   0.856   4.039   0.370  0.3343 -0.5509 -0.2564
 6169SOL    HW119406   0.927   4.087   0.318 -0.1807  1.1028  0.5113
 6169SOL    HW219407   0.768   4.050   0.324  0.2143 -0.8314 -0.0968
 6170SOL     OW19408   0.496   1.655   3.521 -0.1597  0.3158  0.0648
 6170SOL    HW119409   0.444   1.571   3.510 -1.1612  0.8706  0.3592
 6170SOL    HW219410   0.472   1.719   3.449 -0.8764  1.0508  0.9217
 6171SOL     OW19411   5.463   2.670   6.948  0.6163 -0.0240  0.2029
 6171SOL    HW119412   5.437   2.651   6.853 -0.0570  2.8181 -0.2819
 6171SOL    HW219413   5.390   2.722   6.993  2.2134  1.4611  1.2382
 6172SOL     OW19414   6.955   4.234   4.922 -0.7831 -0.1308 -0.2423
 6172SOL    HW119415   6.879   4.171   4.935  0.5019 -1.5757  0.4661
 6172SOL    HW219416   7.005   4.210   4.838  0.6930 -1.1544  0.8794
 6173SOL     OW19417   4.959   6.173   2.851  0.1478 -0.0346 -0.4258
 6173SOL    HW119418   4.927   6.196   2.943  1.7359 -3.0049  1.0016
 6173SOL    HW219419   5.059   6.185   2.846  0.3444 -1.6837 -1.1336
 6174SOL     OW19420   5.945   3.394   4.994 -0.1523  0.6142 -0.2221
 6174SOL    HW119421   5.969   3.395   5.091  2.3966 -0.1437 -0.7675
 6174SOL    HW219422   5.879   3.321   4.978  1.5899 -1.2571  0.5743
 6175SOL     OW19423   4.945   3.281   6.209  0.1155 -0.1099  0.3809
 6175SOL    HW119424   5.041   3.304   6.228  0.1105 -0.9432  1.5146
 6175SOL    HW219425   4.938   3.238   6.119  0.5574  1.3983 -0.4249
 6176SOL     OW19426   2.227   4.256   5.117  0.6312 -0.1910  0.1047
 6176SOL    HW119427   2.131   4.227   5.123  0.0255  1.6900  0.1642
 6176SOL    HW219428   2.286   4.176   5.116 -0.8799 -1.3732  1.1981
 6177SOL     OW19429   6.037   6.831   6.720 -0.3120 -0.0631 -0.0227
 6177SOL    HW119430   6.024   6.751   6.662 -0.4267  0.1345 -0.2740
 6177SOL    HW219431   5.999   6.912   6.674 -4.1012 -0.5069  1.9796
 6178SOL     OW19432   5.015   6.802   1.362 -0.6478  0.6697 -0.2158
 6178SOL    HW119433   4.934   6.755   1.399 -0.3368  0.8329  0.6965
 6178SOL    HW219434   5.079   6.820   1.436  0.0391  0.9287 -0.8683
 6179SOL     OW19435   4.612   6.326   3.644 -0.0416  0.3038 -0.3603
 6179SOL    HW119436   4.571   6.342   3.554 -0.1707 -0.4434 -0.4411
 6179SOL    HW219437   4.602   6.229   3.668  2.9178 -0.2618 -1.0098
 6180SOL     OW19438   2.618   4.752   4.430 -0.1462  0.0641 -0.6259
 6180SOL    HW119439   2.552   4.708   4.490 -0.1996 -0.1674 -0.8538
 6180SOL    HW219440   2.707   4.755   4.476 -0.4628  1.0048 -0.0366
 6181SOL     OW19441   1.117   6.246   0.804  0.7991 -0.2912  0.1239
 6181SOL    HW119442   1.214   6.240   0.827  0.6426 -0.3084  0.7879
 6181SOL    HW219443   1.105   6.309   0.727  1.3913 -0.7183 -0.3328
 6182SOL     OW19444   4.552   3.827   6.466 -0.1023  0.2060  0.1371
 6182SOL    HW119445   4.632   3.881   6.494 -0.0387 -0.7124  1.8893
 6182SOL    HW219446   4.553   3.815   6.367  1.6076  0.7314  0.0576
 6183SOL     OW19447   6.314   6.020   0.935  0.5850  0.0390 -0.7557
 6183SOL    HW119448   6.345   6.081   0.862  1.0446  0.9743  0.2035
 6183SOL    HW219449   6.264   6.073   1.004  1.0490 -0.6552  0.1305
 6184SOL     OW19450   2.960   5.937   0.941 -0.1393  0.6104  0.0622
 6184SOL    HW119451   2.931   5.887   1.023 -0.4512  0.7692  0.0515
 6184SOL    HW219452   2.985   6.031   0.967  1.0068  0.2874  0.1764
 6185SOL     OW19453   3.180   3.787   5.804  0.1234  0.7260 -0.0936
 6185SOL    HW119454   3.102   3.793   5.742  0.4153  1.4670 -0.3977
 6185SOL    HW219455   3.264   3.770   5.752  0.3776  1.3941  0.0817
 6186SOL     OW19456   2.569   6.948   1.722  0.0875  0.0385 -0.7436
 6186SOL    HW119457   2.613   7.033   1.694  0.7309 -0.4627 -1.2871
 6186SOL    HW219458   2.474   6.966   1.747  0.2153  0.9122 -0.8630
 6187SOL     OW19459   2.540   3.348   0.314  0.4214  0.1396  0.2802
 6187SOL    HW119460   2.609   3.283   0.281  1.1025  0.5934  0.8079
 6187SOL    HW219461   2.557   3.438   0.275 -0.3950  0.0651 -0.2749
 6188SOL     OW19462   1.801   0.491   5.958 -0.0180  0.1905  0.1838
 6188SOL    HW119463   1.853   0.405   5.962 -1.5587 -0.7343  1.7334
 6188SOL    HW219464   1.852   0.558   5.904  2.0786 -1.1137  0.4138
 6189SOL     OW19465   4.575   6.178   6.735  0.2037 -0.3115  0.1211
 6189SOL    HW119466   4.475   6.178   6.744  0.2441 -0.3711  0.6398
 6189SOL    HW219467   4.600   6.150   6.643 -0.2852  0.8283 -0.3762
 6190SOL     OW19468   0.659   2.972   2.789  0.9236 -0.1235 -0.0624
 6190SOL    HW119469   0.748   2.929   2.802 -0.1294 -3.1922 -1.8905
 6190SOL    HW219470   0.663   3.032   2.708  0.9692 -1.6665 -1.2601
 6191SOL     OW19471   2.952   5.187   0.294  0.0871  0.4221 -0.2742
 6191SOL    HW119472   3.030   5.248   0.305  0.7558 -0.2452 -1.0907
 6191SOL    HW219473   2.889   5.225   0.226 -0.2729  0.9231  0.3295
 6192SOL     OW19474   2.618   1.925   0.379  0.3323 -0.8390  0.0152
 6192SOL    HW119475   2.611   1.947   0.476  1.0127 -0.3874 -0.0284
 6192SOL    HW219476   2.617   2.010   0.326 -1.4275 -1.1392 -0.4829
 6193SOL     OW19477   4.966   5.800   5.423 -1.2101  0.1887  0.6227
 6193SOL    HW119478   4.877   5.845   5.426 -0.9947  0.8364 -1.4499
 6193SOL    HW219479   4.960   5.711   5.468 -2.5935  0.7060  1.5047
 6194SOL     OW19480   4.680   0.571   0.714  0.3691  0.5463 -0.0009
 6194SOL    HW119481   4.732   0.546   0.633 -1.3145  2.6023 -1.8210
 6194SOL    HW219482   4.743   0.593   0.789  1.9639 -0.6360 -0.9278
 6195SOL     OW19483   3.022   5.325   4.563 -0.0987  0.1273  0.2525
 6195SOL    HW119484   3.079   5.363   4.636 -1.6663  0.7049  1.2276
 6195SOL    HW219485   2.979   5.399   4.513 -0.9358 -0.3129  0.3119
 6196SOL     OW19486   5.286   1.537   3.152  0.2915  0.0960  0.6360
 6196SOL    HW119487   5.227   1.615   3.134  1.5367  1.0745  0.6664
 6196SOL    HW219488   5.242   1.476   3.218 -1.2930  0.0449 -0.4149
 6197SOL     OW19489   1.586   4.313   0.507  0.2389  0.0466  0.6258
 6197SOL    HW119490   1.557   4.218   0.494  1.0534 -0.1640  0.2573
 6197SOL    HW219491   1.508   4.374   0.500 -0.5901 -0.7191  2.4607
 6198SOL     OW19492   5.847   2.412   5.367  0.5517  0.2445  0.0802
 6198SOL    HW119493   5.891   2.337   5.316  0.0180 -0.4832  0.6832
 6198SOL    HW219494   5.891   2.499   5.341  1.9571 -0.3897  0.2294
 6199SOL     OW19495   3.144   6.425   6.470 -0.5232  0.5717  0.2193
 6199SOL    HW119496   3.055   6.447   6.509 -0.0482  1.9689  0.5839
 6199SOL    HW219497   3.216   6.460   6.530  0.2443  1.1256 -0.9810
 6200SOL     OW19498   2.617   5.818   1.554 -0.3093  0.0660  0.1623
 6200SOL    HW119499   2.711   5.848   1.538  0.4741 -2.7436 -1.1492
 6200SOL    HW219500   2.565   5.826   1.469 -0.5917 -0.5112  0.2786
 6201SOL     OW19501   6.733   4.093   4.135 -0.3109 -0.3215  1.1569
 6201SOL    HW119502   6.822   4.117   4.175  1.2077 -2.0720 -0.8807
 6201SOL    HW219503   6.678   4.175   4.123  1.7392  1.0819  0.9011
 6202SOL     OW19504   4.301   2.150   3.032  0.1990 -0.0481  0.7008
 6202SOL    HW119505   4.224   2.187   2.981  0.2054 -0.0204  0.7113
 6202SOL    HW219506   4.383   2.151   2.974 -0.1029 -1.3155  0.2179
 6203SOL     OW19507   6.186   0.961   1.958 -0.0573 -0.1498  0.1939
 6203SOL    HW119508   6.119   1.019   1.911  0.1258 -0.0796  0.0225
 6203SOL    HW219509   6.251   1.019   2.008  0.5572 -0.1824 -0.5575
 6204SOL     OW19510   1.228   6.569   5.989 -0.1227  0.0357  0.7763
 6204SOL    HW119511   1.295   6.591   5.918 -1.2158  1.0681  0.0272
 6204SOL    HW219512   1.268   6.505   6.055  1.1865 -0.2979 -0.3126
 6205SOL     OW19513   5.360   4.899   4.292  0.3390  0.4985  0.4545
 6205SOL    HW119514   5.318   4.989   4.308  0.6886  0.6151  0.7116
 6205SOL    HW219515   5.457   4.902   4.316  1.1416  0.9331 -2.4912
 6206SOL     OW19516   4.626   0.568   3.034  0.5596 -0.0290  0.6787
 6206SOL    HW119517   4.630   0.554   2.935 -0.3360  1.8372  0.3295
 6206SOL    HW219518   4.568   0.498   3.075 -0.4376  0.1409 -0.3753
 6207SOL     OW19519   1.828   6.990   3.153  0.0057  0.3636 -0.2556
 6207SOL    HW119520   1.740   6.944   3.146  0.5267 -0.7672  0.4088
 6207SOL    HW219521   1.842   7.023   3.246  0.3252  0.4511 -0.3313
 6208SOL     OW19522   4.743   4.457   5.771 -0.6809  0.4186  0.1855
 6208SOL    HW119523   4.662   4.450   5.712  0.0822  0.0211 -0.8410
 6208SOL    HW219524   4.825   4.432   5.719  0.0479  0.2738  1.3613
 6209SOL     OW19525   4.404   2.132   3.304 -0.2066 -0.3042 -0.2124
 6209SOL    HW119526   4.379   2.133   3.207 -0.8370 -0.3546 -0.0542
 6209SOL    HW219527   4.408   2.038   3.337  0.1284 -0.2934 -0.2192
 6210SOL     OW19528   5.443   5.715   2.875  0.3136 -0.3908  0.2609
 6210SOL    HW119529   5.531   5.669   2.884 -0.6504 -2.9556 -2.0652
 6210SOL    HW219530   5.369   5.651   2.895 -1.0951  1.4104  1.1507
 6211SOL     OW19531   5.515   2.623   4.737  0.3141 -0.9481 -0.2091
 6211SOL    HW119532   5.471   2.708   4.766  0.2077 -1.4194  1.0609
 6211SOL    HW219533   5.453   2.572   4.677  0.3641 -0.1643 -0.9457
 6212SOL     OW19534   5.549   4.160   5.564  0.2306  0.0978 -0.0263
 6212SOL    HW119535   5.620   4.164   5.493  0.0999  0.2075 -0.1536
 6212SOL    HW219536   5.459   4.158   5.520  0.1165  0.9243  0.1414
 6213SOL     OW19537   3.687   0.939   6.630  0.4586 -0.4091 -0.0530
 6213SOL    HW119538   3.697   1.036   6.608 -1.9772 -0.2125 -0.5831
 6213SOL    HW219539   3.710   0.885   6.549  1.3159 -0.2520  0.0803
 6214SOL     OW19540   6.289   1.401   6.469 -0.7697 -0.6498  0.2345
 6214SOL    HW119541   6.328   1.382   6.559 -0.6268 -1.9401 -0.0773
 6214SOL    HW219542   6.363   1.403   6.401 -0.8978  0.1328  0.1130
 6215SOL     OW19543   5.296   3.779   4.513  0.3990  0.6067 -0.3787
 6215SOL    HW119544   5.294   3.876   4.492  0.9208  1.0681  1.4999
 6215SOL    HW219545   5.293   3.726   4.428 -1.1334  2.2122 -1.4047
 6216SOL     OW19546   0.016   3.486   5.858  0.2971 -0.1231  0.5215
 6216SOL    HW119547  -0.042   3.496   5.939 -0.2562  0.5703  0.0453
 6216SOL    HW219548   0.041   3.576   5.824  2.6260 -0.3722  1.3756
 6217SOL     OW19549   0.670   5.853   1.439  0.0020  0.1964  0.0399
 6217SOL    HW119550   0.573   5.870   1.421  0.0594 -0.3203 -0.8178
 6217SOL    HW219551   0.722   5.935   1.418 -0.2462  0.4738  0.4937
 6218SOL     OW19552   3.489   5.220   2.787  0.1911 -0.1379 -0.1466
 6218SOL    HW119553   3.404   5.216   2.734 -1.1234  0.6001  1.8003
 6218SOL    HW219554   3.547   5.293   2.751 -0.1454 -0.3986 -1.2610
 6219SOL     OW19555   3.973   6.371   1.961  0.3386  0.6649  0.7360
 6219SOL    HW119556   3.935   6.335   2.046  0.6140  0.4113  0.7520
 6219SOL    HW219557   4.008   6.464   1.976 -1.4360  1.4231  0.4172
 6220SOL     OW19558   2.653   1.884   4.329 -0.1014  0.0956  0.8426
 6220SOL    HW119559   2.653   1.975   4.290  0.0985 -0.3065 -0.1179
 6220SOL    HW219560   2.659   1.890   4.429 -1.5301  1.1556  0.8833
 6221SOL     OW19561   5.655   4.470   3.594  0.5100 -0.6367 -0.6696
 6221SOL    HW119562   5.579   4.406   3.586  0.2192 -0.1614 -1.9665
 6221SOL    HW219563   5.708   4.449   3.676 -0.7084 -1.3010 -0.0281
 6222SOL     OW19564   6.385   0.622   6.908 -0.3757 -0.7547  0.2962
 6222SOL    HW119565   6.432   0.701   6.947  0.5152 -2.1567  2.2173
 6222SOL    HW219566   6.426   0.599   6.820  0.0641  0.2513  0.2263
 6223SOL     OW19567   6.529   4.405   3.476  0.0173 -0.3478 -0.4371
 6223SOL    HW119568   6.520   4.358   3.388  0.1267  0.2382 -0.7667
 6223SOL    HW219569   6.465   4.365   3.542 -1.1117  0.1604 -1.1952
 6224SOL     OW19570   4.956   0.009   6.228 -0.0949 -0.8406 -0.2284
 6224SOL    HW119571   5.026   0.042   6.291  0.5952 -1.5744 -0.5934
 6224SOL    HW219572   4.885  -0.040   6.279  0.6494 -1.7548 -0.0468
 6225SOL     OW19573   4.205   4.842   0.597  0.3513 -0.0165  0.0741
 6225SOL    HW119574   4.210   4.885   0.688  0.6134  1.2361 -0.5027
 6225SOL    HW219575   4.125   4.784   0.592  0.2601 -0.0003  1.0715
 6226SOL     OW19576   2.208   1.151   4.389 -0.3603  0.5374 -0.2594
 6226SOL    HW119577   2.273   1.152   4.313 -1.4254 -0.5048 -1.2329
 6226SOL    HW219578   2.217   1.065   4.440  0.2153  1.1492  0.7022
 6227SOL     OW19579   2.081   4.291   6.515 -0.2921  0.0841 -0.3126
 6227SOL    HW119580   1.994   4.274   6.561 -0.8603  1.1751 -0.9451
 6227SOL    HW219581   2.075   4.376   6.463  1.8687  1.3826  1.4162
 6228SOL     OW19582   6.368   2.917   3.266 -0.3085 -0.1996  0.1904
 6228SOL    HW119583   6.352   2.819   3.273  0.4399 -0.3034  0.5671
 6228SOL    HW219584   6.465   2.936   3.283 -0.1332  0.4504 -1.3832
 6229SOL     OW19585   1.100   4.686   0.127 -0.3017  0.1874  0.0489
 6229SOL    HW119586   1.112   4.594   0.164  0.0363 -0.2045 -0.9888
 6229SOL    HW219587   1.189   4.724   0.104 -0.4539  0.7173  0.3309
 6230SOL     OW19588   0.857   1.506   6.346 -0.1760  0.0699  0.0474
 6230SOL    HW119589   0.839   1.510   6.445 -1.0006 -1.0840 -0.0283
 6230SOL    HW219590   0.892   1.594   6.315 -0.0913  0.5157  1.3331
 6231SOL     OW19591   2.259   6.200   5.874 -0.0924 -0.0425  0.5023
 6231SOL    HW119592   2.208   6.271   5.921 -0.2403  0.2314 -0.0633
 6231SOL    HW219593   2.346   6.237   5.842 -0.0419 -0.1959  0.4578
 6232SOL     OW19594   3.583   6.776   0.840  0.3460  0.2724 -0.4559
 6232SOL    HW119595   3.594   6.849   0.909  1.0802  0.5956 -0.9123
 6232SOL    HW219596   3.486   6.770   0.815  0.2613  1.0235 -0.3379
 6233SOL     OW19597   1.114   4.453   1.443 -0.2707 -0.9931 -0.6664
 6233SOL    HW119598   1.172   4.482   1.367 -1.4282  0.7227 -0.9640
 6233SOL    HW219599   1.161   4.470   1.530  0.4804 -1.5886 -0.9502
 6234SOL     OW19600   4.692   4.947   3.137 -0.1284  0.1165 -0.3795
 6234SOL    HW119601   4.721   5.002   3.215  1.3755 -1.4245  0.2222
 6234SOL    HW219602   4.671   5.006   3.060  2.9323  1.5193 -0.2898
 6235SOL     OW19603   1.160   0.600   3.273 -0.2791 -0.0639  0.1745
 6235SOL    HW119604   1.096   0.640   3.209 -1.8959  0.4961  2.0536
 6235SOL    HW219605   1.117   0.522   3.319  0.8392 -0.4458  0.6203
 6236SOL     OW19606   6.730   6.380   0.987 -0.4727 -0.2871 -0.1127
 6236SOL    HW119607   6.706   6.381   0.890 -2.7496 -0.5901  0.3777
 6236SOL    HW219608   6.827   6.359   0.997  0.1139  1.0009 -2.3353
 6237SOL     OW19609   2.568   0.929   2.090  0.0988  0.4474 -0.0319
 6237SOL    HW119610   2.643   0.903   2.030 -0.2517 -0.1693 -0.2069
 6237SOL    HW219611   2.592   0.907   2.185 -1.1311 -2.9656 -0.3546
 6238SOL     OW19612   3.562   0.679   4.020  0.2692  0.3049  0.1995
 6238SOL    HW119613   3.491   0.748   4.003 -0.0263 -0.0511 -0.0357
 6238SOL    HW219614   3.645   0.704   3.970  0.1206  0.4174  0.0080
 6239SOL     OW19615   2.914   1.963   2.933 -0.1160 -0.7103 -0.3013
 6239SOL    HW119616   2.900   2.053   2.975  4.1972  0.3696 -0.7253
 6239SOL    HW219617   2.950   1.900   3.001  0.7304 -0.8874 -0.9056
 6240SOL     OW19618   3.180   4.298   5.779  0.4500  0.1684 -0.0505
 6240SOL    HW119619   3.089   4.319   5.745  0.7197  0.1025 -0.8492
 6240SOL    HW219620   3.219   4.224   5.724  1.0608  0.3361  0.1530
 6241SOL     OW19621   2.920   0.989   5.365  0.1449 -0.2776  0.2322
 6241SOL    HW119622   2.980   0.995   5.285  1.1157 -0.8220  0.8903
 6241SOL    HW219623   2.964   0.932   5.435 -0.8336 -0.0901  1.0233
 6242SOL     OW19624   1.436   3.219   3.753 -0.1905  0.2486 -0.5992
 6242SOL    HW119625   1.512   3.209   3.816 -1.3626 -0.7676  0.7247
 6242SOL    HW219626   1.448   3.302   3.698  0.9553  1.0798  0.8411
 6243SOL     OW19627   1.572   0.350   0.228 -0.3624 -0.3685 -0.0455
 6243SOL    HW119628   1.506   0.388   0.163  0.1215  1.6224  0.5469
 6243SOL    HW219629   1.539   0.262   0.261 -4.0965  1.5673  2.1116
 6244SOL     OW19630   5.738   3.087   2.561  0.5142  0.2619  0.0169
 6244SOL    HW119631   5.785   3.007   2.524  0.3493  0.4608 -0.6396
 6244SOL    HW219632   5.694   3.064   2.648 -1.1966 -0.9109 -1.1135
 6245SOL     OW19633   0.713   4.917   0.635  0.2829  0.3596 -0.1136
 6245SOL    HW119634   0.723   4.829   0.590 -1.0554 -0.0134  0.2550
 6245SOL    HW219635   0.732   4.907   0.733 -0.0464  0.4299 -0.0394
 6246SOL     OW19636   1.021   6.702   5.659 -0.0992  0.0084  0.0148
 6246SOL    HW119637   0.980   6.610   5.656 -1.0631  0.4431 -0.5222
 6246SOL    HW219638   1.054   6.726   5.567  0.1553  0.2018  0.1567
 6247SOL     OW19639   5.248   5.842   4.686 -0.3365 -0.1280  0.2104
 6247SOL    HW119640   5.328   5.802   4.641  0.3958 -0.2889  1.5915
 6247SOL    HW219641   5.248   5.816   4.783 -0.7608  1.8491  0.7839
 6248SOL     OW19642   4.245   4.061   0.530 -0.2674  0.3186  0.0193
 6248SOL    HW119643   4.273   3.992   0.462 -2.6760  1.5029 -2.3609
 6248SOL    HW219644   4.206   4.014   0.610 -0.3230 -1.1442 -0.8162
 6249SOL     OW19645   5.579   3.395   5.788  0.0048  0.5682 -0.0211
 6249SOL    HW119646   5.607   3.487   5.816  0.2464  0.5457 -0.1881
 6249SOL    HW219647   5.498   3.402   5.729 -0.0217  0.6695  0.0270
 6250SOL     OW19648   4.736   2.103   3.576 -0.0293 -0.4270 -0.0892
 6250SOL    HW119649   4.744   2.201   3.592  1.0009 -0.1059 -2.1929
 6250SOL    HW219650   4.826   2.060   3.586 -0.3470 -1.0563  0.1394
 6251SOL     OW19651   3.032   6.713   3.915  0.4626  0.3055  0.7381
 6251SOL    HW119652   3.047   6.625   3.871  1.0845  0.6078  0.3329
 6251SOL    HW219653   3.119   6.761   3.925 -0.1187  1.8888 -1.2212
 6252SOL     OW19654   3.173   5.620   0.427  0.1373 -0.5254  0.5379
 6252SOL    HW119655   3.139   5.714   0.421  1.8858  0.1304  0.0697
 6252SOL    HW219656   3.273   5.621   0.428  0.2285 -2.4324 -0.4831
 6253SOL     OW19657   6.917   5.325   2.908  0.6827  0.3921 -0.2826
 6253SOL    HW119658   6.852   5.389   2.949 -1.5265 -1.0145 -1.3955
 6253SOL    HW219659   6.868   5.259   2.852  3.1084 -0.8534 -1.0908
 6254SOL     OW19660   0.132   6.855   1.410 -0.1425  0.7844 -0.5259
 6254SOL    HW119661   0.219   6.904   1.405 -0.2306  0.9804 -0.1986
 6254SOL    HW219662   0.116   6.825   1.504  0.1231 -0.2772 -0.8024
 6255SOL     OW19663   4.070   1.441   0.411 -0.4234 -0.0657  0.3493
 6255SOL    HW119664   4.053   1.408   0.318  0.1208  2.0466 -0.5781
 6255SOL    HW219665   4.152   1.398   0.448 -0.5520 -0.8086 -0.2070
 6256SOL     OW19666   1.735   5.604   2.948 -0.0020 -0.5851 -0.3146
 6256SOL    HW119667   1.834   5.610   2.942 -0.1314  1.9672 -1.5184
 6256SOL    HW219668   1.694   5.653   2.871 -2.1751 -0.2521  0.9610
 6257SOL     OW19669   3.143   3.156   6.826  0.2895 -0.0503 -0.2385
 6257SOL    HW119670   3.125   3.237   6.772 -0.5131 -1.5230 -2.3013
 6257SOL    HW219671   3.199   3.091   6.774 -1.0800 -1.8184  0.3608
 6258SOL     OW19672   2.577   5.373   3.479 -0.2346  0.1246  0.3825
 6258SOL    HW119673   2.657   5.319   3.507 -0.9602 -1.7393 -0.9116
 6258SOL    HW219674   2.607   5.448   3.420  0.7023  0.4386  1.2343
 6259SOL     OW19675   5.992   0.451   4.080  0.6148  0.3530  0.0193
 6259SOL    HW119676   6.035   0.540   4.096 -0.4491  1.2384 -1.6969
 6259SOL    HW219677   5.966   0.444   3.983 -2.2480 -0.4629  0.7411
 6260SOL     OW19678   0.770   2.783   6.317 -0.5040  0.3555 -0.5044
 6260SOL    HW119679   0.856   2.751   6.277 -1.2573  0.2089 -2.0911
 6260SOL    HW219680   0.777   2.780   6.417  1.4693  0.7759 -0.5814
 6261SOL     OW19681   6.027   6.106   1.185 -0.4359 -0.1892 -0.3132
 6261SOL    HW119682   6.107   6.110   1.244  0.3169 -0.4776 -1.2958
 6261SOL    HW219683   6.023   6.016   1.141 -1.5298 -0.3264  0.0425
 6262SOL     OW19684   0.015   1.244   3.297  0.6077  0.2370 -0.7419
 6262SOL    HW119685  -0.024   1.222   3.208  1.4887  1.4020 -1.4538
 6262SOL    HW219686   0.056   1.163   3.337  1.0891 -0.0983 -1.8756
 6263SOL     OW19687   6.037   0.072   6.204  0.0977 -0.8221  0.1653
 6263SOL    HW119688   6.064   0.047   6.297 -0.9656 -0.1127  0.6841
 6263SOL    HW219689   6.025  -0.012   6.150  2.7432 -1.1970  0.0228
 6264SOL     OW19690   1.669   4.846   0.806  0.3842 -0.5795  0.2857
 6264SOL    HW119691   1.582   4.889   0.831  0.1547 -0.9121  0.0615
 6264SOL    HW219692   1.716   4.904   0.740  0.3148 -0.4169  0.3773
 6265SOL     OW19693   5.304   0.038   5.914 -0.0826 -0.1568 -0.4177
 6265SOL    HW119694   5.265  -0.047   5.879  0.0055 -1.9411  3.3687
 6265SOL    HW219695   5.390   0.019   5.962  0.1390  2.1384  0.2591
 6266SOL     OW19696   3.943   4.820   3.686 -0.0739  0.2815  0.1094
 6266SOL    HW119697   4.025   4.771   3.656  1.0778  2.0055  0.3141
 6266SOL    HW219698   3.949   4.837   3.785 -2.3893 -2.6521  0.8924
 6267SOL     OW19699   2.053   1.437   3.747 -0.1697 -0.3466  0.0111
 6267SOL    HW119700   1.984   1.433   3.819 -2.1980  2.2313 -1.6217
 6267SOL    HW219701   2.034   1.368   3.678 -1.7900  0.9905 -0.9246
 6268SOL     OW19702   2.828   6.605   1.454 -0.1893  0.0233 -0.6568
 6268SOL    HW119703   2.742   6.616   1.504  0.1743  0.9128 -0.2109
 6268SOL    HW219704   2.905   6.625   1.515  0.3020 -0.0283 -1.2525
 6269SOL     OW19705   1.737   6.732   6.857  0.0130  0.0798 -1.2820
 6269SOL    HW119706   1.776   6.692   6.940  0.6081  0.5922 -1.3130
 6269SOL    HW219707   1.795   6.713   6.779 -1.0984 -1.3425 -1.8020
 6270SOL     OW19708   2.120   6.077   1.617 -0.2281  0.8102  0.1690
 6270SOL    HW119709   2.144   6.158   1.564 -0.1121  2.4851  2.5929
 6270SOL    HW219710   2.140   6.094   1.714  0.0218 -2.2296  0.7567
 6271SOL     OW19711   1.228   3.915   2.039 -0.0360 -0.5697 -0.3193
 6271SOL    HW119712   1.146   3.938   1.986 -0.8638 -0.5203  0.9525
 6271SOL    HW219713   1.246   3.817   2.030  1.0569 -0.2455 -2.3429
 6272SOL     OW19714   0.696   1.544   0.981 -0.3226  0.3006 -0.2654
 6272SOL    HW119715   0.660   1.595   0.903  1.4263  2.6883  0.3771
 6272SOL    HW219716   0.767   1.598   1.027  0.6988 -2.1919  1.3219
 6273SOL     OW19717   0.752   6.461   3.963  0.1883  0.0441  0.0809
 6273SOL    HW119718   0.661   6.454   4.004  0.1403  2.0465  0.4640
 6273SOL    HW219719   0.783   6.371   3.933 -1.3180 -0.9060  1.2259
 6274SOL     OW19720   3.428   5.754   4.320 -0.4143 -0.2446 -0.0410
 6274SOL    HW119721   3.341   5.707   4.329 -0.9940  0.9274  0.7617
 6274SOL    HW219722   3.433   5.829   4.386  1.0907 -0.1139 -0.2532
 6275SOL     OW19723   3.767   6.552   2.474 -0.4454  0.0787  0.3242
 6275SOL    HW119724   3.851   6.521   2.430  0.3534 -0.4731  2.1273
 6275SOL    HW219725   3.782   6.559   2.573 -2.4090  0.3546  0.6441
 6276SOL     OW19726   6.684   3.510   0.917 -0.1797 -0.4698  0.0807
 6276SOL    HW119727   6.746   3.498   0.840 -1.0956 -0.7948 -0.6175
 6276SOL    HW219728   6.731   3.561   0.989  1.0427 -1.0960 -0.2419
 6277SOL     OW19729   6.202   2.702   0.654 -0.1605  0.2016  0.1448
 6277SOL    HW119730   6.260   2.769   0.700  1.1965 -0.9502  0.1746
 6277SOL    HW219731   6.143   2.657   0.720 -0.9847  1.2503  0.1440
 6278SOL     OW19732   3.315   3.739   6.634 -0.1103  0.5419 -1.0583
 6278SOL    HW119733   3.346   3.727   6.728  1.1074 -0.1279 -1.5269
 6278SOL    HW219734   3.273   3.654   6.602 -2.2452  1.3360 -0.5376
 6279SOL     OW19735   1.707   6.899   1.868  0.1909 -0.3333 -0.1573
 6279SOL    HW119736   1.631   6.941   1.919  0.0912  0.8214 -1.2002
 6279SOL    HW219737   1.761   6.842   1.930 -0.3914  0.3758  1.0521
 6280SOL     OW19738   5.510   0.609   0.921 -0.0545 -0.2701  0.6840
 6280SOL    HW119739   5.485   0.704   0.940  1.8808  0.4740 -0.1802
 6280SOL    HW219740   5.428   0.557   0.897 -0.9655  1.6883 -0.8062
 6281SOL     OW19741   1.459   3.464   1.193  0.1835  0.4271 -0.0758
 6281SOL    HW119742   1.557   3.454   1.213  0.5824  2.3472 -0.8116
 6281SOL    HW219743   1.444   3.455   1.095 -0.6179 -1.1956  0.1573
 6282SOL     OW19744   1.156   3.007   6.456 -0.0031 -0.1194 -0.1512
 6282SOL    HW119745   1.098   3.045   6.383  1.5026 -2.4690 -2.7711
 6282SOL    HW219746   1.116   2.922   6.489 -0.5206  0.7831  1.6849
 6283SOL     OW19747   4.329   6.907   5.759 -0.4381 -0.2844 -0.3196
 6283SOL    HW119748   4.402   6.853   5.802  0.0831  0.1398 -0.6694
 6283SOL    HW219749   4.280   6.849   5.694 -0.4198 -0.5758 -0.0785
 6284SOL     OW19750   2.190   2.957   5.778 -0.0934  0.5979  0.2107
 6284SOL    HW119751   2.113   2.967   5.715  0.3159  1.1426 -0.2159
 6284SOL    HW219752   2.266   2.913   5.730 -0.0740  0.2223  0.5809
 6285SOL     OW19753   2.178   4.588   4.803 -0.0569 -0.1538  0.2305
 6285SOL    HW119754   2.220   4.506   4.763  1.1755  0.3448  0.4595
 6285SOL    HW219755   2.170   4.577   4.902 -1.1767 -0.5388  0.1155
 6286SOL     OW19756   0.673   2.960   6.147 -0.3360  0.2615  0.3253
 6286SOL    HW119757   0.595   2.999   6.197 -1.5673 -2.7450  0.9813
 6286SOL    HW219758   0.724   2.900   6.208  1.9239  1.3339 -0.4135
 6287SOL     OW19759   3.705   5.640   0.245  0.0901 -0.4909 -0.5513
 6287SOL    HW119760   3.751   5.587   0.174  0.1122  0.0534 -0.9504
 6287SOL    HW219761   3.728   5.737   0.234 -0.9925 -0.2346 -0.6295
 6288SOL     OW19762   3.173   5.659   5.085 -0.5901 -0.2946 -0.0695
 6288SOL    HW119763   3.159   5.576   5.032  2.0796 -1.4722  0.9050
 6288SOL    HW219764   3.111   5.659   5.164  0.2299 -2.0341  0.6236
 6289SOL     OW19765   2.472   4.790   5.975  0.0904  0.1012 -0.1718
 6289SOL    HW119766   2.416   4.832   5.903  2.7799  0.9911 -1.8790
 6289SOL    HW219767   2.524   4.713   5.937 -0.5415 -1.2640  1.5777
 6290SOL     OW19768   6.379   2.132   5.070  0.4207  0.5620  0.2695
 6290SOL    HW119769   6.461   2.096   5.025 -0.4634 -0.8289 -0.3135
 6290SOL    HW219770   6.363   2.226   5.040  1.0203  0.3667 -0.7144
 6291SOL     OW19771   3.253   3.635   2.109  0.0389  0.0248 -0.5409
 6291SOL    HW119772   3.257   3.621   2.208 -0.2723 -1.6906 -0.7483
 6291SOL    HW219773   3.174   3.693   2.087  0.7862  1.4153  0.2792
 6292SOL     OW19774   2.208   3.933   4.453  0.2814 -0.5009 -0.1605
 6292SOL    HW119775   2.207   3.837   4.428  0.0098 -0.3697 -0.6778
 6292SOL    HW219776   2.212   3.989   4.370 -4.0620  0.0415 -0.2612
 6293SOL     OW19777   3.210   0.761   0.658 -0.2475  0.1970  0.6000
 6293SOL    HW119778   3.191   0.707   0.740 -0.4329  1.4299  1.4081
 6293SOL    HW219779   3.296   0.730   0.617 -0.7660 -1.2433  0.5426
 6294SOL     OW19780   2.866   0.339   1.974  0.1060  0.3688  0.3243
 6294SOL    HW119781   2.940   0.286   2.017  0.7005 -0.2899 -1.4198
 6294SOL    HW219782   2.784   0.332   2.030  0.3385 -1.9243  0.4875
 6295SOL     OW19783   5.668   2.481   6.239  0.6311 -0.0702 -0.6044
 6295SOL    HW119784   5.755   2.439   6.266  0.0089 -0.4995  0.8560
 6295SOL    HW219785   5.610   2.412   6.195  0.3173 -0.2923  0.1372
 6296SOL     OW19786   0.489   1.956   0.025 -0.7826 -0.9294 -0.2494
 6296SOL    HW119787   0.500   2.002   0.114 -0.0043 -1.0724 -0.2691
 6296SOL    HW219788   0.504   2.022  -0.048  0.3721 -1.1988 -0.2781
 6297SOL     OW19789   6.604   0.491   4.721 -0.2330  0.0280 -0.1723
 6297SOL    HW119790   6.535   0.441   4.773 -0.6360 -0.4803 -1.1659
 6297SOL    HW219791   6.586   0.589   4.726  0.5443  0.1258  1.7670
 6298SOL     OW19792   6.523   1.468   0.268  0.1235 -0.0309  0.5662
 6298SOL    HW119793   6.535   1.375   0.303 -0.2174  0.2576  1.4713
 6298SOL    HW219794   6.440   1.472   0.212 -1.2993  0.2715  2.5884
 6299SOL     OW19795   2.405   1.134   4.131 -0.7150 -0.3223 -0.0506
 6299SOL    HW119796   2.323   1.116   4.077 -0.6262  0.5286 -0.4700
 6299SOL    HW219797   2.427   1.231   4.128 -0.6043 -0.2798  1.3658
 6300SOL     OW19798   3.604   6.814   0.342 -0.3889 -0.0306 -0.3245
 6300SOL    HW119799   3.620   6.728   0.390  0.4242  0.1185 -0.3055
 6300SOL    HW219800   3.562   6.880   0.404  2.0387  0.6625  0.7055
 6301SOL     OW19801   3.803   5.820   1.398  0.3140  0.0152 -0.0240
 6301SOL    HW119802   3.827   5.816   1.495  0.8500 -0.0998 -0.1636
 6301SOL    HW219803   3.704   5.804   1.388  0.4665 -1.3320  0.3975
 6302SOL     OW19804   1.950   2.928   6.326  0.1064  0.0238 -0.4449
 6302SOL    HW119805   1.971   3.025   6.310 -1.9483  0.3690 -1.3205
 6302SOL    HW219806   1.868   2.921   6.383  0.3530 -1.2267 -0.2184
 6303SOL     OW19807   6.832   4.064   5.304  0.2909 -0.1090 -0.4951
 6303SOL    HW119808   6.803   4.096   5.214  1.3924 -0.5877 -1.0339
 6303SOL    HW219809   6.804   3.969   5.315 -0.2585  0.0868 -0.1253
 6304SOL     OW19810   2.691   2.056   5.549  0.3717 -0.4388 -0.0495
 6304SOL    HW119811   2.601   2.067   5.589  0.0428 -1.7894 -0.3487
 6304SOL    HW219812   2.761   2.071   5.619 -0.1323 -0.6999  0.5209
 6305SOL     OW19813   1.831   4.342   3.704  0.6551 -0.2807 -0.2299
 6305SOL    HW119814   1.838   4.287   3.788 -0.9896 -0.9205 -0.4598
 6305SOL    HW219815   1.846   4.283   3.625 -0.3243 -0.2479 -0.4533
 6306SOL     OW19816   1.637   3.530   2.257  0.1246 -0.1523  0.5690
 6306SOL    HW119817   1.590   3.450   2.220  1.0749 -0.5090  0.0982
 6306SOL    HW219818   1.570   3.593   2.296 -0.5022 -2.1449  2.9492
 6307SOL     OW19819   3.674   4.182   1.729  0.0099 -0.1238 -0.2108
 6307SOL    HW119820   3.583   4.141   1.740 -0.3997  0.2222 -2.0580
 6307SOL    HW219821   3.722   4.139   1.654 -0.0510  2.0360 -1.5835
 6308SOL     OW19822   1.782   0.521   0.229 -0.1061 -0.3716 -0.0057
 6308SOL    HW119823   1.867   0.505   0.279  0.0875 -0.5317 -0.3807
 6308SOL    HW219824   1.724   0.440   0.233 -0.6122  0.0154  0.9458
 6309SOL     OW19825   1.737   4.940   6.764 -0.5558  0.4296 -0.1475
 6309SOL    HW119826   1.830   4.923   6.797 -0.7485  0.3302  0.3541
 6309SOL    HW219827   1.741   4.984   6.674 -0.0277  0.1270 -0.2790
 6310SOL     OW19828   0.422   6.935   3.773 -0.0708 -0.1294 -0.0960
 6310SOL    HW119829   0.349   6.901   3.713 -0.8708 -0.1882  0.8863
 6310SOL    HW219830   0.441   6.867   3.844  1.8115 -0.6514 -1.0363
 6311SOL     OW19831   5.729   1.458   6.957  0.3619 -0.1406 -0.0406
 6311SOL    HW119832   5.749   1.377   6.903  0.1623 -0.6168  0.5869
 6311SOL    HW219833   5.755   1.540   6.905  2.5368 -0.6636  0.1073
 6312SOL     OW19834   3.797   5.248   3.320 -0.1765  0.0365 -0.5830
 6312SOL    HW119835   3.798   5.331   3.264 -2.6832  0.4052 -0.2082
 6312SOL    HW219836   3.722   5.189   3.291  0.4738 -1.2920  0.3220
 6313SOL     OW19837   5.855   4.688   3.243  0.3460 -0.0346  0.7151
 6313SOL    HW119838   5.897   4.752   3.178  0.3493 -1.5719 -0.8671
 6313SOL    HW219839   5.762   4.718   3.264  1.1520  1.7707  1.9038
 6314SOL     OW19840   0.920   5.031   4.211 -0.5195 -0.0889  0.0040
 6314SOL    HW119841   1.003   5.022   4.265 -0.7953  1.1217  0.6791
 6314SOL    HW219842   0.923   4.969   4.133 -0.7323 -3.0358  2.1566
 6315SOL     OW19843   0.181   2.513   2.562  0.4479 -0.5687  0.0146
 6315SOL    HW119844   0.207   2.417   2.560 -0.1468 -0.7290 -0.1273
 6315SOL    HW219845   0.219   2.556   2.644  0.4911 -0.9900  0.2172
 6316SOL     OW19846   6.657   0.055   3.857  0.0837 -1.7232  0.2092
 6316SOL    HW119847   6.560   0.039   3.836 -0.6716  3.7637 -2.1039
 6316SOL    HW219848   6.667   0.071   3.955 -2.1232  0.6080  0.1717
 6317SOL     OW19849   5.626   4.016   2.332  0.9893  0.2623 -0.1215
 6317SOL    HW119850   5.681   3.946   2.286  0.7369 -0.6432  0.9186
 6317SOL    HW219851   5.544   4.034   2.278  0.6152 -0.9043  0.0285
 6318SOL     OW19852   4.392   0.534   0.927  0.2661  0.3836 -0.0807
 6318SOL    HW119853   4.360   0.574   0.841  0.3750  0.9494  0.1386
 6318SOL    HW219854   4.491   0.524   0.923  0.4306  1.6216  0.4675
 6319SOL     OW19855   5.211   1.454   4.190  0.3242 -0.5627 -0.3298
 6319SOL    HW119856   5.161   1.539   4.175 -0.4356 -1.0547 -0.6208
 6319SOL    HW219857   5.254   1.456   4.281 -1.0198 -0.5228  0.3222
 6320SOL     OW19858   4.142   3.972   6.086 -0.3811 -0.2149  0.1874
 6320SOL    HW119859   4.201   3.906   6.132  0.6570  0.3482 -0.3028
 6320SOL    HW219860   4.140   3.952   5.988 -2.1998 -1.1201  0.3670
 6321SOL     OW19861   0.230   4.403   0.916 -0.6468  0.1466 -0.0973
 6321SOL    HW119862   0.236   4.430   0.820 -1.7550 -0.8395 -0.4635
 6321SOL    HW219863   0.135   4.382   0.939 -0.4650  0.7584  1.3339
 6322SOL     OW19864   3.665   6.885   2.516  0.3850 -0.0035  0.2996
 6322SOL    HW119865   3.718   6.810   2.476 -0.0080 -0.9087  1.4080
 6322SOL    HW219866   3.681   6.969   2.464  0.2994 -0.9943 -1.4196
 6323SOL     OW19867   3.188   0.017   1.383  0.1286  0.0441  0.8229
 6323SOL    HW119868   3.181  -0.010   1.479  0.1903  1.2584  1.1876
 6323SOL    HW219869   3.148   0.108   1.371 -0.6854 -0.4546 -0.4792
 6324SOL     OW19870   4.907   3.298   2.092 -1.2986  0.1542 -0.4705
 6324SOL    HW119871   4.857   3.212   2.099 -1.1913  0.1412  0.2836
 6324SOL    HW219872   4.993   3.290   2.143 -2.9675  1.9039  2.9054
 6325SOL     OW19873   1.614   3.931   5.493  0.4282 -0.1546  0.1743
 6325SOL    HW119874   1.579   3.843   5.526  1.0558 -0.4693  0.0071
 6325SOL    HW219875   1.556   3.963   5.418  0.0872 -0.3318  0.3581
 6326SOL     OW19876   5.227   5.159   5.204  0.0537 -0.0801 -0.1389
 6326SOL    HW119877   5.277   5.098   5.142 -1.8955 -1.3603 -0.5404
 6326SOL    HW219878   5.292   5.208   5.262  1.7744 -1.2607 -0.9817
 6327SOL     OW19879   6.624   2.431   2.302 -0.2004 -0.3637 -0.2449
 6327SOL    HW119880   6.614   2.341   2.259 -0.1029 -0.4971  0.0094
 6327SOL    HW219881   6.717   2.465   2.287 -0.3996 -0.0522 -0.8217
 6328SOL     OW19882   4.104   3.270   3.955 -0.4131  0.1267  0.1695
 6328SOL    HW119883   4.181   3.334   3.954 -1.2547  1.1706 -0.6173
 6328SOL    HW219884   4.100   3.220   3.869 -0.6933  0.1728  0.1544
 6329SOL     OW19885   6.957   2.521   3.687 -0.2663  0.5406  0.1661
 6329SOL    HW119886   7.002   2.577   3.618 -1.6676 -0.3627 -1.5694
 6329SOL    HW219887   6.875   2.479   3.648  0.0080 -1.6774  1.7569
 6330SOL     OW19888   3.224   1.253   2.553 -0.1752 -0.1754 -0.5561
 6330SOL    HW119889   3.305   1.311   2.564 -0.4048  0.0201  0.1167
 6330SOL    HW219890   3.243   1.183   2.484  0.3932  0.1779 -0.7679
 6331SOL     OW19891   1.204   3.424   3.535  0.5274 -0.3118  0.6492
 6331SOL    HW119892   1.114   3.396   3.568  0.5904  0.7659  1.8099
 6331SOL    HW219893   1.205   3.523   3.520  1.6669 -0.2295  1.1776
 6332SOL     OW19894   5.980   1.941   0.221  0.2964 -0.1141  0.0615
 6332SOL    HW119895   6.047   1.876   0.256  2.0157  1.5914  0.0861
 6332SOL    HW219896   5.972   2.018   0.284 -0.4502  0.5176 -0.7756
 6333SOL     OW19897   4.814   2.326   6.323 -0.1661 -0.4865  0.2993
 6333SOL    HW119898   4.853   2.243   6.283 -0.0061 -0.7682  1.0219
 6333SOL    HW219899   4.714   2.324   6.314 -0.1003 -0.2962 -0.5455
 6334SOL     OW19900   2.387   0.086   1.015 -0.6197 -0.3804 -0.2781
 6334SOL    HW119901   2.373   0.002   0.963  1.7259  0.0024 -1.6703
 6334SOL    HW219902   2.458   0.072   1.084 -0.4032  0.3672 -0.3350
 6335SOL     OW19903   6.223   3.738   5.199 -0.0735  0.4266  0.4925
 6335SOL    HW119904   6.231   3.829   5.240 -0.4302  0.8497 -0.3655
 6335SOL    HW219905   6.129   3.707   5.206 -0.0552  0.3366  0.3351
 6336SOL     OW19906   0.942   6.134   7.000  0.4478 -0.4041 -0.5415
 6336SOL    HW119907   0.853   6.110   6.959  0.2514 -1.5867  0.5184
 6336SOL    HW219908   1.013   6.126   6.930 -0.2272  0.2347 -1.3243
 6337SOL     OW19909   6.262   0.821   4.601  0.5656  0.7655  0.2946
 6337SOL    HW119910   6.268   0.725   4.630  1.7997 -0.3206 -3.0894
 6337SOL    HW219911   6.345   0.869   4.628 -0.0774  0.9820  2.0482
 6338SOL     OW19912   2.034   6.949   2.155  0.4026 -0.1553 -0.0914
 6338SOL    HW119913   2.118   6.945   2.100  0.2382 -0.2712 -0.3344
 6338SOL    HW219914   1.961   6.900   2.108  0.7575 -1.9256  1.1478
 6339SOL     OW19915   6.590   3.515   2.456  0.2169 -0.8810 -0.1158
 6339SOL    HW119916   6.501   3.516   2.411  0.4784 -1.9125 -0.7025
 6339SOL    HW219917   6.661   3.538   2.389  0.5662 -1.9902 -0.1549
 6340SOL     OW19918   1.863   5.801   6.666 -0.1099 -0.0037  0.0247
 6340SOL    HW119919   1.826   5.882   6.620 -0.5291  0.1662  0.6452
 6340SOL    HW219920   1.830   5.798   6.760 -0.8534 -1.3933 -0.2507
 6341SOL     OW19921   2.606   4.481   1.419  0.5684 -0.3244 -0.1967
 6341SOL    HW119922   2.539   4.409   1.437  0.3330 -0.0158  0.1559
 6341SOL    HW219923   2.650   4.508   1.504  0.8535 -0.2374 -0.3691
 6342SOL     OW19924   2.504   6.442   1.528 -0.3597  0.4961 -0.7411
 6342SOL    HW119925   2.481   6.356   1.574 -2.7176  1.2419 -0.4062
 6342SOL    HW219926   2.457   6.446   1.439 -1.2744  1.9078 -0.2301
 6343SOL     OW19927   0.939   4.044   0.028  0.0534 -0.3550 -0.3815
 6343SOL    HW119928   0.901   4.136   0.022  0.3773 -0.1187  0.8629
 6343SOL    HW219929   1.025   4.040  -0.022  0.3480  0.1954  0.0726
 6344SOL     OW19930   2.041   1.060   4.643 -0.0532  0.3560  0.3894
 6344SOL    HW119931   2.079   1.081   4.553 -2.1280 -1.3193 -0.9756
 6344SOL    HW219932   2.034   1.144   4.697  0.9077  1.4490 -1.1154
 6345SOL     OW19933   5.650   3.237   4.203  0.0921 -0.2240  0.1419
 6345SOL    HW119934   5.590   3.242   4.283 -0.3646 -1.4093 -0.1091
 6345SOL    HW219935   5.730   3.182   4.225  0.3893  0.1681  0.0431
 6346SOL     OW19936   1.822   3.434   3.389 -0.1081  0.2277  0.6724
 6346SOL    HW119937   1.724   3.416   3.378 -0.0882  0.0929  0.7146
 6346SOL    HW219938   1.872   3.393   3.312 -0.0975  0.4127  0.5798
 6347SOL     OW19939   1.792   1.442   0.795  0.5529  0.2574  0.3936
 6347SOL    HW119940   1.806   1.429   0.893 -1.8326 -0.7743  0.6824
 6347SOL    HW219941   1.844   1.373   0.744 -0.1271 -0.8380  1.1215
 6348SOL     OW19942   0.897   2.784   0.327 -0.3356 -0.0239  0.1881
 6348SOL    HW119943   0.880   2.875   0.289 -2.5741 -0.2926  0.4272
 6348SOL    HW219944   0.996   2.768   0.333  0.1384  1.2536 -2.5457
 6349SOL     OW19945   4.452   1.613   0.593 -0.0243 -0.4538  0.3812
 6349SOL    HW119946   4.539   1.642   0.635 -0.9118  1.2877  1.1421
 6349SOL    HW219947   4.441   1.659   0.505  0.6777 -2.1853 -0.6642
 6350SOL     OW19948   1.337   0.056   2.406 -0.2776  0.2542  0.0433
 6350SOL    HW119949   1.372  -0.022   2.457 -0.6137  1.0936  1.6217
 6350SOL    HW219950   1.267   0.025   2.341 -0.4003 -0.7635  0.6404
 6351SOL     OW19951   5.072   2.693   3.236  0.2549  0.3839  0.2242
 6351SOL    HW119952   5.035   2.694   3.143 -0.2248  1.3187  0.4185
 6351SOL    HW219953   5.000   2.664   3.300  0.0098  1.6437  0.5320
 6352SOL     OW19954   4.165   1.884   5.551  0.0120  0.0362  0.6227
 6352SOL    HW119955   4.213   1.968   5.572 -0.5477  0.4530  0.2759
 6352SOL    HW219956   4.143   1.882   5.453 -1.8574  0.5026  0.9873
 6353SOL     OW19957   2.919   5.845   1.803  0.8032  0.2964 -0.4969
 6353SOL    HW119958   2.881   5.933   1.777  0.3065  0.1324 -0.3386
 6353SOL    HW219959   2.961   5.852   1.894  1.3436  0.5318 -0.7642
 6354SOL     OW19960   5.431   4.742   2.649  0.1621 -0.1620 -0.2671
 6354SOL    HW119961   5.483   4.785   2.575 -0.7423  1.3843 -0.0588
 6354SOL    HW219962   5.367   4.675   2.612  1.0134 -0.7675 -0.6835
 6355SOL     OW19963   2.920   6.008   5.675 -0.3309  0.0207 -0.1246
 6355SOL    HW119964   2.853   6.072   5.713 -1.4025 -0.8635 -0.4701
 6355SOL    HW219965   3.010   6.028   5.714 -1.1503 -0.0696  1.9665
 6356SOL     OW19966   6.774   0.760   3.635 -0.3961 -1.0949 -0.0331
 6356SOL    HW119967   6.825   0.674   3.643 -1.3597 -1.6704 -0.0084
 6356SOL    HW219968   6.683   0.742   3.600  0.2039  0.2034 -2.4722
 6357SOL     OW19969   3.513   2.074   2.568 -0.2709  0.1047 -0.1659
 6357SOL    HW119970   3.504   2.108   2.662  1.0047  0.4565 -0.1459
 6357SOL    HW219971   3.569   1.991   2.568 -0.8310 -0.2812 -0.5536
 6358SOL     OW19972   3.589   0.474   4.996  0.0878 -0.0051  0.1701
 6358SOL    HW119973   3.560   0.536   5.070 -0.7012  0.8893 -0.8550
 6358SOL    HW219974   3.677   0.434   5.019 -0.1341  0.2668  1.5899
 6359SOL     OW19975   4.739   3.020   6.941 -0.5472 -0.0857 -0.3387
 6359SOL    HW119976   4.646   2.992   6.964 -0.3223 -0.0853  0.6506
 6359SOL    HW219977   4.780   3.067   7.020  1.1916 -2.3770  0.2286
 6360SOL     OW19978   4.709   3.748   6.995  0.3860 -0.2357 -0.3394
 6360SOL    HW119979   4.768   3.826   7.014 -0.0629  0.4415 -1.6464
 6360SOL    HW219980   4.708   3.729   6.897 -0.3148 -1.2471 -0.1578
 6361SOL     OW19981   0.385   3.264   2.034 -0.1846  0.2685  0.0284
 6361SOL    HW119982   0.325   3.343   2.019  1.5364  1.7645  0.6404
 6361SOL    HW219983   0.456   3.262   1.963  1.6538  1.1824  1.7116
 6362SOL     OW19984   2.301   6.961   0.782 -0.0237 -0.4760 -0.0345
 6362SOL    HW119985   2.233   6.891   0.802 -1.6011  1.0926  0.3622
 6362SOL    HW219986   2.346   6.940   0.695 -1.9232 -0.9481 -0.9696
 6363SOL     OW19987   0.901   1.424   0.529  0.2535 -0.6243 -0.3426
 6363SOL    HW119988   0.920   1.418   0.430  0.8313  3.0776 -0.6204
 6363SOL    HW219989   0.816   1.377   0.550 -0.5600 -0.4428 -2.8849
 6364SOL     OW19990   4.117   1.909   3.980  0.8848  0.1015 -0.5958
 6364SOL    HW119991   4.140   1.857   3.898  1.7184  0.8606 -0.8534
 6364SOL    HW219992   4.197   1.918   4.038  0.2517 -0.6014  0.4239
 6365SOL     OW19993   6.592   6.726   3.997 -0.2974  0.3010 -0.3963
 6365SOL    HW119994   6.647   6.738   3.914 -0.7293  0.1026 -0.7209
 6365SOL    HW219995   6.652   6.719   4.076  0.2437 -1.3624 -0.9081
 6366SOL     OW19996   5.616   0.937   5.424 -0.4452  0.5557 -0.5788
 6366SOL    HW119997   5.602   0.888   5.509 -0.7917  0.9940 -0.3768
 6366SOL    HW219998   5.531   0.937   5.371 -0.5028  1.0840 -0.4929
 6367SOL     OW19999   0.533   3.006   2.391  0.1428 -0.2979  0.5520
 6367SOL    HW120000   0.521   3.014   2.292 -0.4441 -0.0060  0.6420
 6367SOL    HW220001   0.499   2.917   2.422 -0.2914 -0.1245  0.5799
 6368SOL     OW20002   6.201   2.268   4.441 -0.2978 -0.2684 -0.0071
 6368SOL    HW120003   6.101   2.263   4.443 -0.2486 -1.6960  0.0110
 6368SOL    HW220004   6.234   2.233   4.353  0.1484  1.5566 -0.6040
 6369SOL     OW20005   2.978   3.315   6.952  0.3391  0.5757 -0.0261
 6369SOL    HW120006   3.037   3.237   6.932 -0.1994 -0.0600  0.7876
 6369SOL    HW220007   2.904   3.319   6.885  0.9533  1.0271 -0.6959
 6370SOL     OW20008   0.183   5.564   6.350  0.5036 -0.1972  0.0835
 6370SOL    HW120009   0.262   5.502   6.347 -0.5011 -1.5534  0.9752
 6370SOL    HW220010   0.139   5.564   6.260  0.9051 -0.2356 -0.1189
 6371SOL     OW20011   5.473   5.135   1.923 -0.4083 -0.1168 -0.1267
 6371SOL    HW120012   5.387   5.142   1.973 -1.0300 -1.2524 -1.0050
 6371SOL    HW220013   5.543   5.188   1.970 -1.8485  1.7717  0.0010
 6372SOL     OW20014   6.658   6.625   1.463  0.4657  0.1958 -0.3830
 6372SOL    HW120015   6.743   6.667   1.430  2.1589  1.7484  4.9111
 6372SOL    HW220016   6.590   6.697   1.479 -0.1696 -0.4246 -0.2520
 6373SOL     OW20017   5.526   0.343   2.597  0.6005 -0.0485 -0.1914
 6373SOL    HW120018   5.535   0.245   2.577  2.8621  0.0510  0.1123
 6373SOL    HW220019   5.510   0.355   2.695 -2.3588 -0.1648 -0.5662
 6374SOL     OW20020   3.292   3.483   6.535 -0.3643 -0.4754 -0.2801
 6374SOL    HW120021   3.236   3.419   6.587  0.2097 -1.0700 -0.3741
 6374SOL    HW220022   3.389   3.465   6.553 -0.1951  0.6983  0.0765
 6375SOL     OW20023   3.789   0.760   1.187 -0.3928 -0.0146 -0.0596
 6375SOL    HW120024   3.840   0.723   1.265  0.5036  0.3938 -0.4399
 6375SOL    HW220025   3.767   0.856   1.204  0.7010  0.3794 -0.7137
 6376SOL     OW20026   4.455   0.060   0.118 -0.3074  0.2604  0.0945
 6376SOL    HW120027   4.490  -0.006   0.051 -0.3975 -0.0911  0.3905
 6376SOL    HW220028   4.360   0.083   0.095 -0.4366 -0.0898  0.2714
 6377SOL     OW20029   6.457   2.214   0.151 -0.2163  0.7692 -0.1933
 6377SOL    HW120030   6.369   2.231   0.196  0.3379 -1.2483  1.8319
 6377SOL    HW220031   6.444   2.148   0.077 -0.3457 -0.1367  0.6081
 6378SOL     OW20032   6.188   5.674   4.434  0.5694 -0.3954 -0.8736
 6378SOL    HW120033   6.144   5.590   4.404 -1.0972  0.0991  0.0522
 6378SOL    HW220034   6.173   5.687   4.532  0.6819  1.0311 -1.0211
 6379SOL     OW20035   1.845   5.982   5.754 -0.7614  0.0741 -0.3423
 6379SOL    HW120036   1.844   6.061   5.694  0.9283  0.8172  0.5465
 6379SOL    HW220037   1.920   5.921   5.728 -1.1778 -0.5376 -0.1394
 6380SOL     OW20038   1.121   2.939   3.750  0.5043  0.2564  0.1819
 6380SOL    HW120039   1.159   2.865   3.694  0.8851  0.5213  0.0871
 6380SOL    HW220040   1.087   2.901   3.836  1.0112  0.0168  0.2792
 6381SOL     OW20041   2.061   4.269   0.625 -0.3154 -0.1362 -0.2914
 6381SOL    HW120042   2.050   4.312   0.536  1.8457  1.1637 -0.0198
 6381SOL    HW220043   2.015   4.324   0.695  1.4962  1.2673 -0.1032
 6382SOL     OW20044   1.698   1.419   6.602  0.2598  0.0003 -0.0233
 6382SOL    HW120045   1.747   1.332   6.604  0.1307 -0.1008 -0.9429
 6382SOL    HW220046   1.706   1.463   6.691 -2.2961 -2.4083  1.5951
 6383SOL     OW20047   2.683   1.485   1.960 -0.5567  0.4547  0.5072
 6383SOL    HW120048   2.597   1.535   1.948  0.4769  2.8096  2.0957
 6383SOL    HW220049   2.760   1.546   1.941  0.8703 -1.9277 -2.0540
 6384SOL     OW20050   6.705   0.324   0.371  0.5721 -0.1325 -0.1089
 6384SOL    HW120051   6.681   0.420   0.386 -0.5553 -0.2015 -1.3013
 6384SOL    HW220052   6.783   0.300   0.428  1.1137  1.5952 -0.0745
 6385SOL     OW20053   6.133   4.850   1.899 -0.4518 -0.0944 -0.3977
 6385SOL    HW120054   6.124   4.875   1.995  0.0499 -0.2975 -0.2993
 6385SOL    HW220055   6.056   4.791   1.873 -0.2525 -0.5503  0.0413
 6386SOL     OW20056   3.047   3.638   6.812  0.3835 -0.1862 -0.1830
 6386SOL    HW120057   3.074   3.710   6.748 -1.7991  1.0892  0.2348
 6386SOL    HW220058   3.042   3.675   6.904 -0.2259 -1.0105  0.1313
 6387SOL     OW20059   1.627   3.715   6.590 -0.0632  0.0625  0.1326
 6387SOL    HW120060   1.601   3.618   6.588 -0.9319  0.2853 -1.0135
 6387SOL    HW220061   1.628   3.748   6.684  2.0369 -1.4886  0.7263
 6388SOL     OW20062   5.352   4.510   1.771 -0.0922 -0.0688  0.6161
 6388SOL    HW120063   5.291   4.533   1.847  0.8442  0.6461  1.1791
 6388SOL    HW220064   5.308   4.442   1.712 -1.5369  0.6363  0.8369
 6389SOL     OW20065   4.794   6.909   0.479 -0.2246 -0.6844  0.8842
 6389SOL    HW120066   4.726   6.980   0.460 -0.2167 -0.9618 -0.2401
 6389SOL    HW220067   4.885   6.951   0.484  0.2394 -0.8990 -2.8499
 6390SOL     OW20068   6.020   5.568   2.650  0.3778 -0.1984  0.5977
 6390SOL    HW120069   6.040   5.592   2.745 -1.5496 -0.9470  1.2556
 6390SOL    HW220070   6.010   5.469   2.643  0.5405 -0.1506 -0.4018
 6391SOL     OW20071   2.302   0.127   4.988  0.1871 -0.4424 -0.3684
 6391SOL    HW120072   2.217   0.173   4.963 -0.3867 -1.1617  0.2052
 6391SOL    HW220073   2.371   0.145   4.918 -0.3844  0.2791 -0.7643
 6392SOL     OW20074   5.949   0.623   3.562 -0.1209 -0.7616 -0.1237
 6392SOL    HW120075   6.010   0.552   3.529 -0.8739 -1.3077 -0.3506
 6392SOL    HW220076   5.942   0.696   3.493 -0.6923 -1.2901 -0.6306
 6393SOL     OW20077   0.987   5.179   0.118 -0.4760 -0.3606  0.8457
 6393SOL    HW120078   0.950   5.088   0.138  0.6776 -1.0585 -0.0786
 6393SOL    HW220079   1.066   5.171   0.058  0.8089  1.1124  2.2239
 6394SOL     OW20080   6.573   5.980   1.338 -0.9732 -0.3079  0.7242
 6394SOL    HW120081   6.625   5.961   1.255 -0.1867  0.2041  1.0853
 6394SOL    HW220082   6.543   5.894   1.380  0.9601 -0.7233  1.3667
 6395SOL     OW20083   0.742   3.085   4.622 -0.2639  0.2415  0.1397
 6395SOL    HW120084   0.673   3.067   4.551  0.3996 -0.0362 -0.4422
 6395SOL    HW220085   0.714   3.041   4.707 -0.1937 -0.9605 -0.4351
 6396SOL     OW20086   1.881   2.030   4.049  0.5244 -0.0123  0.5600
 6396SOL    HW120087   1.857   1.966   4.121  3.0842 -0.8660  0.7471
 6396SOL    HW220088   1.936   1.984   3.980 -0.0167  1.3239 -0.8276
 6397SOL     OW20089   5.036   3.998   2.733 -0.3201 -0.0881  0.4867
 6397SOL    HW120090   5.105   3.933   2.767  0.4300 -0.3589 -1.4421
 6397SOL    HW220091   5.027   4.073   2.798  1.9141  0.0267  0.7498
 6398SOL     OW20092   6.957   0.249   1.708  1.0854  0.0654  0.0151
 6398SOL    HW120093   6.933   0.300   1.625  0.0316  0.0451  0.2970
 6398SOL    HW220094   6.981   0.314   1.781  0.3919  0.1566  0.1754
 6399SOL     OW20095   1.247   6.912   5.012  0.0639 -0.0193 -0.0085
 6399SOL    HW120096   1.315   6.968   4.965  0.0145  1.8065  1.9733
 6399SOL    HW220097   1.293   6.841   5.065  0.3152  0.2099  0.0765
 6400SOL     OW20098   1.532   1.613   3.374  0.5074 -0.1792 -0.8564
 6400SOL    HW120099   1.494   1.547   3.440  1.7550 -1.2606 -1.1790
 6400SOL    HW220100   1.616   1.653   3.411  1.4618 -1.1215 -1.9307
 6401SOL     OW20101   3.899   5.209   0.518  0.5116  0.5051  0.1702
 6401SOL    HW120102   3.824   5.144   0.510  1.1094 -0.1465 -0.2636
 6401SOL    HW220103   3.985   5.164   0.492  1.0844  1.1706  0.8585
 6402SOL     OW20104   3.280   3.482   5.915  0.0924  0.0849  0.0730
 6402SOL    HW120105   3.222   3.543   5.862  1.4093 -0.0980 -1.6755
 6402SOL    HW220106   3.370   3.523   5.927  0.8706 -1.2634 -0.7730
 6403SOL     OW20107   4.513   6.384   4.917  0.4942  0.0107 -0.1872
 6403SOL    HW120108   4.466   6.349   4.836  0.9538  1.2587 -1.0144
 6403SOL    HW220109   4.446   6.415   4.984  0.0577  2.4873 -1.6704
 6404SOL     OW20110   5.980   5.998   4.148  0.5623 -0.7320  0.7580
 6404SOL    HW120111   6.070   5.969   4.115  0.7323  1.4436 -0.9654
 6404SOL    HW220112   5.990   6.077   4.209 -0.1712  0.6469 -0.7986
 6405SOL     OW20113   4.873   1.444   1.663 -0.0620 -0.3220 -0.6658
 6405SOL    HW120114   4.945   1.381   1.638  0.4008  0.2854 -0.8980
 6405SOL    HW220115   4.806   1.449   1.589 -0.1629 -0.6229 -0.5965
 6406SOL     OW20116   6.205   0.800   1.174 -0.6441 -0.2748  0.5573
 6406SOL    HW120117   6.175   0.768   1.263 -0.0428  0.1160  0.9105
 6406SOL    HW220118   6.300   0.771   1.159 -0.8969 -0.7548 -0.1649
 6407SOL     OW20119   2.920   0.166   2.893 -0.1433 -0.6087 -0.1574
 6407SOL    HW120120   2.973   0.208   2.966  0.1523  0.0143 -0.7311
 6407SOL    HW220121   2.825   0.199   2.897 -0.3540 -1.2467  0.4763
 6408SOL     OW20122   5.334   0.558   3.279  0.2304  0.0111  0.6679
 6408SOL    HW120123   5.333   0.565   3.379 -1.1049  0.2973  0.6590
 6408SOL    HW220124   5.354   0.648   3.240  2.1157 -0.3745  0.6628
 6409SOL     OW20125   5.170   3.343   2.756 -0.6053 -0.1144 -0.1431
 6409SOL    HW120126   5.074   3.317   2.741 -0.3842 -1.4197  0.5806
 6409SOL    HW220127   5.180   3.383   2.847 -0.8042  1.9211 -0.9711
 6410SOL     OW20128   2.245   0.844   1.807  0.4493 -0.3746  0.1158
 6410SOL    HW120129   2.166   0.889   1.849 -0.3829 -0.9475 -0.7793
 6410SOL    HW220130   2.319   0.836   1.874 -0.2263  0.2265  0.9539
 6411SOL     OW20131   1.932   2.623   3.487 -0.4067  0.0636  0.1087
 6411SOL    HW120132   1.891   2.657   3.572  0.0286 -0.4319  0.5200
 6411SOL    HW220133   1.863   2.572   3.435 -0.8196  0.8162 -0.0978
 6412SOL     OW20134   4.113   0.440   6.378  0.2122 -0.1818 -0.2675
 6412SOL    HW120135   4.085   0.372   6.446  1.1437 -0.1864  0.1216
 6412SOL    HW220136   4.213   0.448   6.378  0.1123  2.9710  1.5182
 6413SOL     OW20137   3.361   5.743   5.247  0.2754 -0.2295 -0.2664
 6413SOL    HW120138   3.352   5.672   5.316 -0.6928 -0.0705 -0.2126
 6413SOL    HW220139   3.295   5.728   5.173  0.9100 -0.0813 -0.8853
 6414SOL     OW20140   4.759   6.247   1.938 -0.1911  0.1325 -0.2445
 6414SOL    HW120141   4.785   6.343   1.937  2.0142 -0.4199 -0.8328
 6414SOL    HW220142   4.758   6.211   1.845  0.0564 -0.6698  0.0511
 6415SOL     OW20143   6.708   1.909   1.870  0.0386 -0.3798 -0.1238
 6415SOL    HW120144   6.739   1.981   1.932  0.0523 -0.2525 -0.2788
 6415SOL    HW220145   6.742   1.821   1.902 -1.2556 -0.5261  0.9404
 6416SOL     OW20146   1.795   4.588   6.444  0.2809 -0.2152 -0.2706
 6416SOL    HW120147   1.736   4.660   6.408 -0.5621 -0.7078  0.0925
 6416SOL    HW220148   1.840   4.541   6.368 -0.2397 -0.2090 -0.5883
 6417SOL     OW20149   5.130   5.947   4.308 -0.3029  0.5067 -0.3854
 6417SOL    HW120150   5.218   5.953   4.354 -0.6717 -0.9481  0.5515
 6417SOL    HW220151   5.065   6.010   4.351 -0.7649 -1.1208  1.4656
 6418SOL     OW20152   5.773   6.037   1.117 -0.7084 -0.8130 -0.1439
 6418SOL    HW120153   5.854   6.087   1.148 -0.7602 -1.7350  1.6132
 6418SOL    HW220154   5.784   6.012   1.021  0.3549  0.4613 -0.3904
 6419SOL     OW20155   3.755   6.794   5.810 -0.4167 -1.1975  0.5004
 6419SOL    HW120156   3.814   6.856   5.758 -1.6792  0.6688  1.2056
 6419SOL    HW220157   3.775   6.803   5.907 -1.7719 -0.5796  0.7478
 6420SOL     OW20158   3.421   4.947   2.200  0.8398  0.1272  0.1995
 6420SOL    HW120159   3.329   4.914   2.178  1.2351 -0.2036 -1.0285
 6420SOL    HW220160   3.489   4.885   2.160  1.5949  1.0081  0.0913
 6421SOL     OW20161   5.371   5.590   2.570 -0.0492 -0.2929  0.0248
 6421SOL    HW120162   5.353   5.512   2.629  1.1523 -0.0951  0.6833
 6421SOL    HW220163   5.365   5.675   2.623  1.1521 -0.1201 -0.0924
 6422SOL     OW20164   6.240   1.363   5.413  0.2991 -0.0775 -0.2567
 6422SOL    HW120165   6.280   1.272   5.400 -1.3022 -0.7018 -1.1358
 6422SOL    HW220166   6.291   1.412   5.484  1.7618 -1.2917 -0.4155
 6423SOL     OW20167   1.818   3.941   2.431  0.2602 -0.4160 -0.2545
 6423SOL    HW120168   1.857   3.850   2.422  0.9708 -0.0676 -0.8300
 6423SOL    HW220169   1.727   3.944   2.389 -0.2615 -1.1387  0.7709
 6424SOL     OW20170   5.033   5.277   5.040  0.1018 -0.6816  0.5859
 6424SOL    HW120171   4.963   5.208   5.022 -0.8884  0.6690 -1.1038
 6424SOL    HW220172   5.096   5.244   5.110 -1.3939 -2.5175  1.1348
 6425SOL     OW20173   2.294   6.120   5.452 -0.1484  0.1904  0.2855
 6425SOL    HW120174   2.342   6.067   5.523  0.1652  0.9473  0.6468
 6425SOL    HW220175   2.361   6.166   5.394 -0.4177  0.9507  0.5603
 6426SOL     OW20176   3.591   5.257   3.700 -1.2519 -0.2577  0.1767
 6426SOL    HW120177   3.519   5.323   3.677 -0.2333  0.9377  0.3301
 6426SOL    HW220178   3.654   5.248   3.623  0.8114  1.9391  1.5201
 6427SOL     OW20179   3.378   3.185   4.110 -0.6268 -0.1386  0.9849
 6427SOL    HW120180   3.307   3.252   4.087  1.2523  2.1828  1.4711
 6427SOL    HW220181   3.397   3.190   4.208  1.4711  0.7321  0.5907
 6428SOL     OW20182   1.650   3.188   6.937 -0.6935  0.0070  0.1964
 6428SOL    HW120183   1.704   3.149   7.011 -0.5745  1.8434  1.1267
 6428SOL    HW220184   1.708   3.249   6.882 -1.4993  1.0987  0.5134
 6429SOL     OW20185   3.541   0.517   4.702  0.5498 -0.2394  0.2729
 6429SOL    HW120186   3.545   0.609   4.739 -1.8094 -0.1500  0.4419
 6429SOL    HW220187   3.454   0.474   4.728  0.9596 -1.9764 -1.0284
 6430SOL     OW20188   4.805   1.323   4.905  0.2934 -0.2109  0.0079
 6430SOL    HW120189   4.744   1.366   4.837  2.8621  1.7423 -1.2361
 6430SOL    HW220190   4.774   1.230   4.923 -1.4092 -0.2763 -2.6908
 6431SOL     OW20191   4.536   4.969   6.300  0.4507 -0.2945 -0.1135
 6431SOL    HW120192   4.521   4.898   6.369  1.2780 -0.6594 -0.3039
 6431SOL    HW220193   4.513   5.058   6.340 -0.9285 -0.6903  0.0126
 6432SOL     OW20194   2.991   4.049   0.171  0.2361 -0.2097  0.0358
 6432SOL    HW120195   3.065   4.112   0.192  0.7229 -0.4263 -0.9389
 6432SOL    HW220196   2.959   4.005   0.254 -0.5218  1.7357  0.8424
 6433SOL     OW20197   4.682   6.370   4.615  0.0142  1.0227 -0.1977
 6433SOL    HW120198   4.719   6.443   4.557  1.3962 -0.2884 -1.0495
 6433SOL    HW220199   4.713   6.384   4.709  1.3731  0.8483 -0.5925
 6434SOL     OW20200   1.442   6.502   0.612  0.2215 -0.3463  0.2999
 6434SOL    HW120201   1.438   6.601   0.597  0.0569 -0.5063 -0.8457
 6434SOL    HW220202   1.525   6.465   0.568 -0.3045 -0.8644 -0.2748
 6435SOL     OW20203   5.070   2.548   2.017 -0.2147 -0.1894 -0.1145
 6435SOL    HW120204   5.023   2.561   2.104  0.6904 -0.6656  0.4611
 6435SOL    HW220205   5.019   2.481   1.962 -0.0207 -0.9982  0.6624
 6436SOL     OW20206   1.464   1.350   2.478 -0.5054  0.1674  0.0919
 6436SOL    HW120207   1.542   1.393   2.432  0.2253  0.4176  1.4928
 6436SOL    HW220208   1.471   1.366   2.576 -0.8733 -2.0798  0.5488
 6437SOL     OW20209   1.029   3.223   2.204  0.6663 -0.0877  0.4264
 6437SOL    HW120210   1.067   3.211   2.295 -3.2089  0.4060  2.3273
 6437SOL    HW220211   0.992   3.316   2.194  0.2935 -0.3718 -1.3325
 6438SOL     OW20212   6.309   6.336   1.840  0.2712  0.8425  0.1936
 6438SOL    HW120213   6.374   6.410   1.824  1.2881  0.1317  0.9343
 6438SOL    HW220214   6.359   6.251   1.857 -0.8344 -0.5092 -2.5892
 6439SOL     OW20215   5.848   6.176   2.979 -0.1802 -0.4210 -1.1899
 6439SOL    HW120216   5.835   6.152   3.075  0.3391  1.3772 -0.6461
 6439SOL    HW220217   5.936   6.139   2.947 -0.3315 -0.9817 -0.9648
 6440SOL     OW20218   1.806   4.293   4.780 -0.4442 -0.3079  0.2690
 6440SOL    HW120219   1.801   4.202   4.820 -0.8149  0.1574  1.3006
 6440SOL    HW220220   1.900   4.314   4.755 -0.2478 -0.6912  0.6850
 6441SOL     OW20221   0.868   1.379   1.503  0.0679 -0.5146  0.0576
 6441SOL    HW120222   0.769   1.374   1.516  0.1160 -0.6504  0.3908
 6441SOL    HW220223   0.894   1.474   1.486 -0.3706 -0.7398 -2.2297
 6442SOL     OW20224   4.921   3.063   3.504 -0.2997  0.3795 -0.8264
 6442SOL    HW120225   4.869   3.134   3.456 -0.2672  0.3208 -0.9480
 6442SOL    HW220226   5.018   3.087   3.505 -0.3852  0.7211 -0.1953
 6443SOL     OW20227   4.475   3.161   6.032 -0.2053  0.1246  0.0823
 6443SOL    HW120228   4.425   3.096   5.975 -1.1111  0.3445  0.6215
 6443SOL    HW220229   4.526   3.112   6.102  0.0988 -0.0757 -0.2716
 6444SOL     OW20230   0.381   3.715   5.796  0.1167 -0.0896  0.1113
 6444SOL    HW120231   0.446   3.759   5.858  0.3291 -0.9471  0.5038
 6444SOL    HW220232   0.393   3.616   5.800 -1.0463 -0.2431  0.0032
 6445SOL     OW20233   3.599   3.449   2.411 -0.3322 -0.9406 -0.2627
 6445SOL    HW120234   3.520   3.425   2.355  0.6206 -1.3630 -1.4670
 6445SOL    HW220235   3.593   3.545   2.438 -0.4829 -0.5500 -1.6452
 6446SOL     OW20236   0.526   0.324   1.910 -0.6692  0.0880  0.4048
 6446SOL    HW120237   0.519   0.386   1.988 -0.2791  1.0672 -0.3166
 6446SOL    HW220238   0.455   0.348   1.843 -1.3137 -1.0538  0.6560
 6447SOL     OW20239   5.663   3.952   0.634 -0.1688 -0.3118  0.3216
 6447SOL    HW120240   5.694   4.014   0.562 -0.2743 -0.1196  0.4398
 6447SOL    HW220241   5.614   3.875   0.593 -0.0413 -0.3148  0.1746
 6448SOL     OW20242   3.710   5.560   1.586  0.3443  0.1022 -0.6628
 6448SOL    HW120243   3.635   5.518   1.535 -0.6365  1.6089 -0.5098
 6448SOL    HW220244   3.784   5.493   1.597 -1.6367 -2.0610  0.7032
 6449SOL     OW20245   6.248   5.524   0.895  0.1138  0.3861  0.1228
 6449SOL    HW120246   6.237   5.523   0.994  0.3351 -2.7420  0.2255
 6449SOL    HW220247   6.159   5.510   0.851  0.1456  0.8362 -0.0920
 6450SOL     OW20248   3.870   3.327   0.678  0.0366 -0.3415 -0.3579
 6450SOL    HW120249   3.970   3.321   0.683  0.2539  1.4593 -1.6342
 6450SOL    HW220250   3.831   3.237   0.695  2.0227 -1.9012 -3.1368
 6451SOL     OW20251   5.751   5.876   0.856  0.2530  0.2551 -0.3122
 6451SOL    HW120252   5.767   5.790   0.807 -1.4783 -0.6299  0.5832
 6451SOL    HW220253   5.652   5.888   0.871  0.5107  2.0836  0.1641
 6452SOL     OW20254   2.230   2.395   5.077  0.2087  0.1209 -0.3861
 6452SOL    HW120255   2.315   2.418   5.030  0.1268  0.7450 -0.2325
 6452SOL    HW220256   2.169   2.475   5.078 -0.7379 -0.5614 -1.2667
 6453SOL     OW20257   3.765   1.719   1.707 -0.6714  0.6670 -0.2864
 6453SOL    HW120258   3.839   1.787   1.703 -1.0556  1.1216  0.1439
 6453SOL    HW220259   3.785   1.645   1.643  0.2038  0.7346 -0.1093
 6454SOL     OW20260   4.733   3.825   5.296 -0.0395 -0.3620 -0.1433
 6454SOL    HW120261   4.706   3.739   5.254  0.0614 -1.0030  1.0772
 6454SOL    HW220262   4.666   3.852   5.365  1.1132 -0.6708  1.1275
 6455SOL     OW20263   6.949   3.060   3.773  0.5653  0.3061  0.5726
 6455SOL    HW120264   6.995   3.003   3.839 -0.8167  1.0253  2.2358
 6455SOL    HW220265   7.016   3.118   3.726  1.7829 -1.5440 -0.0602
 6456SOL     OW20266   6.652   2.659   3.152 -0.4720  0.3673 -0.0239
 6456SOL    HW120267   6.731   2.598   3.156 -1.2192 -0.6115  0.2118
 6456SOL    HW220268   6.668   2.739   3.210  0.1756 -0.0192  0.3379
 6457SOL     OW20269   0.643   1.382   3.252  0.3456  0.1302 -0.1698
 6457SOL    HW120270   0.614   1.313   3.186  1.9448  0.8310 -1.6833
 6457SOL    HW220271   0.742   1.375   3.267  0.4052  1.5503  0.2847
 6458SOL     OW20272   1.302   6.086   5.209 -0.6950  0.0954 -0.1781
 6458SOL    HW120273   1.237   6.118   5.139 -1.4594  3.2727  1.7822
 6458SOL    HW220274   1.253   6.035   5.279 -1.1048  2.0559  1.0363
 6459SOL     OW20275   0.036   3.399   2.554  0.2040  0.4174  0.1060
 6459SOL    HW120276   0.086   3.485   2.547  2.2071 -0.4411  2.3212
 6459SOL    HW220277  -0.056   3.417   2.590  0.5940  1.6465  0.5475
 6460SOL     OW20278   1.299   5.111   6.312 -0.6504 -0.2448 -0.2360
 6460SOL    HW120279   1.236   5.188   6.301 -0.1927  0.2909  0.7359
 6460SOL    HW220280   1.282   5.043   6.240 -1.5562  0.4158 -0.6662
 6461SOL     OW20281   1.866   6.360   3.723 -0.0865  0.2771 -0.7261
 6461SOL    HW120282   1.827   6.398   3.639 -2.0966 -2.9423 -1.4225
 6461SOL    HW220283   1.955   6.319   3.702 -0.2021  0.2186 -1.1165
 6462SOL     OW20284   2.170   3.410   4.986  0.3782  0.4229 -0.2455
 6462SOL    HW120285   2.185   3.313   4.966 -0.5187  0.2227 -0.0137
 6462SOL    HW220286   2.229   3.437   5.062 -0.3854 -0.3360  0.6514
 6463SOL     OW20287   4.276   3.453   1.477  0.6438  0.1658 -0.2548
 6463SOL    HW120288   4.222   3.530   1.445 -2.0043 -1.6770 -0.5481
 6463SOL    HW220289   4.332   3.418   1.402 -1.0820 -0.5201 -1.2775
 6464SOL     OW20290   6.823   2.760   2.855  0.3860  0.0266  0.6556
 6464SOL    HW120291   6.785   2.824   2.922  1.5273  0.1157  1.2574
 6464SOL    HW220292   6.804   2.793   2.763 -1.5365 -0.2987  0.9066
 6465SOL     OW20293   0.039   2.300   2.890  0.7545 -0.2589 -0.5261
 6465SOL    HW120294   0.004   2.392   2.872 -0.1106 -0.3784  0.4486
 6465SOL    HW220295   0.120   2.284   2.835  0.9167  1.0900 -0.7110
 6466SOL     OW20296   6.059   4.746   0.175  0.3932  0.5443 -0.2191
 6466SOL    HW120297   6.070   4.704   0.265 -1.3918 -0.8989 -0.6242
 6466SOL    HW220298   6.084   4.680   0.104 -1.9941  0.2135 -0.8558
 6467SOL     OW20299   2.428   4.661   4.602 -0.2484  0.5403  0.4889
 6467SOL    HW120300   2.370   4.595   4.651 -0.4641  1.0785  0.9675
 6467SOL    HW220301   2.387   4.752   4.608 -0.7868  0.4677 -1.5133
 6468SOL     OW20302   2.398   6.446   1.212 -0.1842  0.3006 -0.0849
 6468SOL    HW120303   2.458   6.524   1.197 -1.2741  1.3239  0.6585
 6468SOL    HW220304   2.407   6.381   1.137  2.2816  0.1024  0.3139
 6469SOL     OW20305   2.501   1.188   0.017  0.1186 -0.1927  0.2991
 6469SOL    HW120306   2.580   1.168   0.076 -0.7283 -3.0614  0.6235
 6469SOL    HW220307   2.506   1.131  -0.065 -0.8246  0.7721 -0.4557
 6470SOL     OW20308   5.152   2.596   5.891 -0.5383 -0.4930  0.0734
 6470SOL    HW120309   5.163   2.695   5.879  0.7999 -0.5561  0.6368
 6470SOL    HW220310   5.059   2.576   5.921 -0.7905  0.5948  0.0580
 6471SOL     OW20311   0.959   5.557   6.055  0.4059 -0.6675 -0.7394
 6471SOL    HW120312   1.030   5.529   6.120  1.1760 -1.0430 -1.7199
 6471SOL    HW220313   0.913   5.639   6.090  0.8550 -0.8103  0.2359
 6472SOL     OW20314   6.282   0.602   0.672  0.5994 -0.0089 -0.0948
 6472SOL    HW120315   6.202   0.557   0.713  1.7371 -2.0262  0.0169
 6472SOL    HW220316   6.259   0.697   0.650 -2.0186 -0.6998 -0.6585
 6473SOL     OW20317   2.066   2.590   3.259  0.3036 -0.0854 -0.4203
 6473SOL    HW120318   2.105   2.503   3.230  3.3237  0.7982  0.5942
 6473SOL    HW220319   2.042   2.585   3.356  1.7740  0.5286  0.0125
 6474SOL     OW20320   4.303   0.876   5.846  0.1837 -0.2188 -0.2071
 6474SOL    HW120321   4.340   0.826   5.767 -0.1949 -1.1501  0.1855
 6474SOL    HW220322   4.267   0.964   5.815  0.7226 -0.2432 -0.9471
 6475SOL     OW20323   4.837   6.413   3.803 -0.2565  0.3527 -0.1718
 6475SOL    HW120324   4.745   6.424   3.766  0.8828  0.5014 -3.1820
 6475SOL    HW220325   4.876   6.503   3.823 -0.1080  0.3980 -0.6565
 6476SOL     OW20326   0.637   2.438   6.824  0.2784 -0.0544 -0.0900
 6476SOL    HW120327   0.615   2.380   6.902 -1.5558 -0.3536 -0.7840
 6476SOL    HW220328   0.629   2.534   6.852  0.8123 -0.1399  0.3850
 6477SOL     OW20329   0.778   5.689   0.493 -0.2609  0.7413 -0.1968
 6477SOL    HW120330   0.788   5.611   0.555  2.2596  0.5560 -0.6906
 6477SOL    HW220331   0.788   5.774   0.544  2.1355  0.5857 -0.2794
 6478SOL     OW20332   1.740   7.014   5.117 -0.2920  0.5172  0.8807
 6478SOL    HW120333   1.783   7.104   5.108 -0.2776  0.5428  1.1819
 6478SOL    HW220334   1.805   6.950   5.158  0.6921 -0.3919 -1.8790
 6479SOL     OW20335   4.623   5.632   1.926 -0.5602  0.1857  0.5413
 6479SOL    HW120336   4.554   5.568   1.894  0.0438 -1.4213  2.2793
 6479SOL    HW220337   4.678   5.590   1.998 -0.2684  2.7576  1.9571
 6480SOL     OW20338   4.667   1.957   5.575  0.1930 -0.3138  0.0478
 6480SOL    HW120339   4.761   1.933   5.550 -0.5708 -2.5521 -0.9671
 6480SOL    HW220340   4.640   2.041   5.528  1.3290 -0.2391 -0.4994
 6481SOL     OW20341   3.756   4.422   1.345 -0.0818 -0.5954 -0.0218
 6481SOL    HW120342   3.736   4.397   1.251  0.9158  0.6690 -0.5903
 6481SOL    HW220343   3.854   4.434   1.357  0.0033 -2.2497  1.5960
 6482SOL     OW20344   0.444   1.334   4.298  0.0863  0.3358 -0.0977
 6482SOL    HW120345   0.422   1.252   4.351 -1.0764  0.6675 -0.0426
 6482SOL    HW220346   0.406   1.415   4.344 -1.2502  0.6029 -1.5634
 6483SOL     OW20347   2.719   6.714   6.670  0.2198 -0.1203 -0.0665
 6483SOL    HW120348   2.727   6.751   6.578  2.6600 -0.2888  0.0147
 6483SOL    HW220349   2.731   6.787   6.737  0.5462 -0.3167  0.0945
 6484SOL     OW20350   5.007   0.981   4.807  0.2442  0.4150 -0.2888
 6484SOL    HW120351   4.911   0.981   4.780 -0.5720 -2.3115  2.0695
 6484SOL    HW220352   5.015   1.019   4.899  1.0557 -1.1402  0.3255
 6485SOL     OW20353   0.335   5.297   5.842 -0.3053 -0.1251  0.0520
 6485SOL    HW120354   0.386   5.280   5.926  1.2356  3.2122 -0.0580
 6485SOL    HW220355   0.346   5.219   5.780 -1.7763 -2.8373  2.9433
 6486SOL     OW20356   6.815   4.904   1.694  0.3847 -0.6708  0.6789
 6486SOL    HW120357   6.795   4.996   1.726 -0.5706 -0.6049 -0.0702
 6486SOL    HW220358   6.808   4.901   1.594  2.6059 -1.0323  0.4735
 6487SOL     OW20359   0.250   4.266   5.071 -0.2426  0.5151  0.2162
 6487SOL    HW120360   0.337   4.298   5.108 -0.6826  0.4518  1.3687
 6487SOL    HW220361   0.190   4.238   5.147 -0.6678 -0.9854 -0.6272
 6488SOL     OW20362   2.669   6.589   3.621 -0.4863 -0.5072 -0.1286
 6488SOL    HW120363   2.715   6.639   3.694 -1.1314  0.8615 -0.6221
 6488SOL    HW220364   2.575   6.567   3.649 -0.9281  0.5363 -0.7359
 6489SOL     OW20365   6.381   3.250   6.222 -0.2923  0.9650  0.5222
 6489SOL    HW120366   6.379   3.346   6.250  1.5622  0.8478  1.1841
 6489SOL    HW220367   6.437   3.198   6.286 -0.0186 -0.2848 -0.6815
 6490SOL     OW20368   1.980   2.672   0.159  0.1209  0.8205  0.0678
 6490SOL    HW120369   2.057   2.733   0.141  0.7484  0.4283  1.2772
 6490SOL    HW220370   1.997   2.583   0.116 -0.3926  1.2067 -0.9650
 6491SOL     OW20371   1.981   1.268   0.705 -0.2555 -0.0593 -0.1789
 6491SOL    HW120372   2.061   1.291   0.760 -0.0993  1.4775 -0.9925
 6491SOL    HW220373   2.008   1.213   0.626 -0.0303  0.2643 -0.3287
 6492SOL     OW20374   3.476   3.346   2.806  0.3891 -0.8466  0.4192
 6492SOL    HW120375   3.553   3.309   2.753  3.2152  1.4157  2.5914
 6492SOL    HW220376   3.485   3.317   2.902 -1.4255 -0.4008  0.7531
 6493SOL     OW20377   1.197   3.645   2.733 -0.3771  0.2344  0.1144
 6493SOL    HW120378   1.222   3.639   2.830  2.8573  1.1558 -0.5395
 6493SOL    HW220379   1.111   3.696   2.724 -0.6160  0.3774  2.4571
 6494SOL     OW20380   1.161   1.397   0.635  0.4180 -0.0937 -0.1206
 6494SOL    HW120381   1.219   1.478   0.628  1.3001 -0.7605 -0.6600
 6494SOL    HW220382   1.065   1.425   0.627  0.7482  0.7780 -1.3637
 6495SOL     OW20383   3.713   6.937   2.049  0.0100 -0.1655  0.0613
 6495SOL    HW120384   3.667   6.948   1.960  0.1921  0.0663 -0.0064
 6495SOL    HW220385   3.658   6.878   2.108 -0.1486 -0.2611 -0.1810
 6496SOL     OW20386   1.613   0.981   1.862  0.0484 -0.0247 -0.5558
 6496SOL    HW120387   1.544   0.925   1.908  0.3376  0.0225 -0.0591
 6496SOL    HW220388   1.693   0.924   1.840  0.2950  0.1617 -0.1529
 6497SOL     OW20389   6.787   3.453   2.662 -0.2410  0.1567 -0.5624
 6497SOL    HW120390   6.730   3.477   2.583  0.6941 -0.9531 -1.6039
 6497SOL    HW220391   6.731   3.401   2.728 -0.7172  0.0131 -1.0681
 6498SOL     OW20392   3.165   5.003   4.253  0.2775 -0.1520 -0.5525
 6498SOL    HW120393   3.147   5.036   4.160 -0.7098  0.3306 -0.2023
 6498SOL    HW220394   3.264   4.999   4.268  0.6642 -3.6811 -2.8514
 6499SOL     OW20395   6.397   2.636   3.771 -0.2587 -0.0947 -0.0897
 6499SOL    HW120396   6.409   2.660   3.675  1.3673 -0.0077  0.1005
 6499SOL    HW220397   6.380   2.538   3.779 -4.4290  0.3964 -0.6894
 6500SOL     OW20398   0.262   2.945   3.354 -0.0765 -0.2014 -0.5483
 6500SOL    HW120399   0.218   3.020   3.305 -0.6674 -0.7817 -0.9262
 6500SOL    HW220400   0.195   2.902   3.415  0.4245 -0.0278  0.1285
 6501SOL     OW20401   0.166   6.715   2.658 -0.2105 -1.2206  0.3404
 6501SOL    HW120402   0.071   6.722   2.627 -0.4001 -1.2676  0.9062
 6501SOL    HW220403   0.227   6.714   2.579 -0.8234 -3.7794 -0.1838
 6502SOL     OW20404   6.560   0.437   2.469 -0.3770 -0.1737 -0.1584
 6502SOL    HW120405   6.494   0.408   2.400 -0.6766 -1.9214  0.7929
 6502SOL    HW220406   6.651   0.440   2.430 -0.6647 -0.2667 -0.8451
 6503SOL     OW20407   2.765   2.733   6.430  0.0062 -0.9309  0.3412
 6503SOL    HW120408   2.816   2.750   6.514  1.8633  2.2613 -1.2658
 6503SOL    HW220409   2.670   2.762   6.442  0.8795  2.1544  0.6679
 6504SOL     OW20410   2.695   5.879   5.433 -0.2337 -0.2447 -0.1701
 6504SOL    HW120411   2.782   5.928   5.426  0.1620 -0.9318 -0.1296
 6504SOL    HW220412   2.712   5.781   5.429 -0.8860 -0.4231  1.0067
 6505SOL     OW20413   2.080   0.815   7.011  0.3120  0.3141 -0.1834
 6505SOL    HW120414   2.149   0.796   7.081  1.6990 -0.7804 -1.7682
 6505SOL    HW220415   2.122   0.869   6.937 -0.1080 -1.4993 -1.8163
 6506SOL     OW20416   0.199   2.911   2.646 -0.0719  0.0232 -0.3917
 6506SOL    HW120417   0.121   2.848   2.651  0.8714 -1.4822 -2.9852
 6506SOL    HW220418   0.167   3.001   2.617 -1.0883  0.0213  0.6611
 6507SOL     OW20419   6.855   6.217   6.674 -0.3215  0.0823  0.6801
 6507SOL    HW120420   6.815   6.205   6.765 -0.8206 -0.8260  0.3517
 6507SOL    HW220421   6.870   6.128   6.632 -1.4243  0.5121 -0.7044
 6508SOL     OW20422   1.385   1.016   2.885 -0.2843 -0.1494  0.1589
 6508SOL    HW120423   1.420   1.104   2.919 -0.5062  0.7552 -1.7577
 6508SOL    HW220424   1.396   0.946   2.955 -0.9350  1.5885  2.1175
 6509SOL     OW20425   1.840   2.876   6.674  0.6513  0.3365 -0.1523
 6509SOL    HW120426   1.929   2.916   6.653  1.9736 -1.8324  0.9761
 6509SOL    HW220427   1.795   2.849   6.588  0.1689  3.0561 -0.8719
 6510SOL     OW20428   4.605   5.092   3.893  0.3013  0.8308  0.0183
 6510SOL    HW120429   4.551   5.134   3.966  0.7550  1.0791  0.2150
 6510SOL    HW220430   4.556   5.013   3.857  0.1672  0.5707  0.7427
 6511SOL     OW20431   3.957   2.035   6.260  0.2310 -0.0093  0.5211
 6511SOL    HW120432   3.963   2.133   6.240  3.8231 -0.4561 -1.5421
 6511SOL    HW220433   4.012   2.014   6.341  1.7725 -0.5364 -0.5974
 6512SOL     OW20434   5.848   2.707   1.874 -0.1960 -0.2031  0.0255
 6512SOL    HW120435   5.932   2.757   1.853  0.4493 -0.7966  1.0891
 6512SOL    HW220436   5.841   2.627   1.814 -0.1566  0.0142 -0.2705
 6513SOL     OW20437   3.453   4.923   2.468  0.2575  0.1150 -0.2504
 6513SOL    HW120438   3.550   4.929   2.490  0.3052  0.0757 -0.4488
 6513SOL    HW220439   3.440   4.938   2.370  0.1353 -0.5973 -0.3473
 6514SOL     OW20440   5.039   4.196   6.220 -0.0490 -0.1696  0.0660
 6514SOL    HW120441   5.033   4.201   6.121  1.2300  0.2291 -0.0133
 6514SOL    HW220442   5.135   4.193   6.247 -0.3661 -2.5345  1.1853
 6515SOL     OW20443   0.217   4.540   1.187  0.7176 -0.0046 -0.0509
 6515SOL    HW120444   0.243   4.485   1.109 -0.6678 -0.0114 -0.5445
 6515SOL    HW220445   0.131   4.587   1.167  0.1345 -0.3029  1.6051
 6516SOL     OW20446   6.408   1.359   4.689  0.2977  0.3519 -0.3272
 6516SOL    HW120447   6.317   1.374   4.727  0.1771  0.5380 -0.6868
 6516SOL    HW220448   6.425   1.424   4.615 -0.2404 -1.2577 -1.9481
 6517SOL     OW20449   0.325   5.620   0.039 -0.4912  0.4680 -0.1471
 6517SOL    HW120450   0.402   5.607   0.102  0.5354 -0.8035 -1.6104
 6517SOL    HW220451   0.311   5.718   0.025 -1.3395  0.8526  2.6997
 6518SOL     OW20452   0.436   1.507   1.061  0.6060  0.1091 -0.5437
 6518SOL    HW120453   0.415   1.428   1.004  2.4145 -0.6047 -0.2549
 6518SOL    HW220454   0.531   1.535   1.046  0.2142  1.7824 -0.0996
 6519SOL     OW20455   2.025   2.456   4.563  0.7658  0.8807 -0.5292
 6519SOL    HW120456   2.050   2.536   4.508  1.3265 -0.4731 -2.3529
 6519SOL    HW220457   2.015   2.377   4.503  1.1832 -0.6454  1.3244
 6520SOL     OW20458   4.971   0.470   1.096  0.3273  0.5555 -0.0214
 6520SOL    HW120459   4.959   0.562   1.133 -0.4670  0.4185  0.0761
 6520SOL    HW220460   4.937   0.403   1.162 -0.0864  0.2494 -0.5392
 6521SOL     OW20461   2.026   3.912   5.014 -0.3052  0.0359  0.3575
 6521SOL    HW120462   1.987   3.828   4.976 -0.2915  0.0379  0.3390
 6521SOL    HW220463   2.120   3.923   4.981 -0.6725  0.6380 -0.5412
 6522SOL     OW20464   2.172   3.680   4.352 -0.5297  0.0947 -0.5485
 6522SOL    HW120465   2.238   3.637   4.292 -0.0780 -0.7321  0.4947
 6522SOL    HW220466   2.123   3.609   4.404 -1.1905  0.7550 -0.2409
 6523SOL     OW20467   4.968   0.309   0.642 -0.1506 -0.0150  0.2332
 6523SOL    HW120468   5.010   0.372   0.577 -1.7537  0.7423 -0.1171
 6523SOL    HW220469   4.971   0.216   0.605 -0.6129  0.3346 -0.7314
 6524SOL     OW20470   2.934   1.816   0.552 -0.3681 -0.3105 -1.1456
 6524SOL    HW120471   2.934   1.882   0.476 -1.4633  1.2394  0.1500
 6524SOL    HW220472   2.841   1.786   0.571 -0.2671  0.2889  0.3911
 6525SOL     OW20473   5.269   5.068   2.745 -0.0399 -0.3694  0.0281
 6525SOL    HW120474   5.335   5.042   2.815 -0.8660 -0.3881  0.8297
 6525SOL    HW220475   5.304   5.045   2.655  0.0798 -2.4840  0.5781
 6526SOL     OW20476   1.367   0.590   1.345 -0.5852  0.3359  0.9402
 6526SOL    HW120477   1.320   0.669   1.383  0.1493  0.1697  2.2404
 6526SOL    HW220478   1.430   0.619   1.273  0.4660  1.0810  2.1347
 6527SOL     OW20479   4.795   2.704   0.414 -0.1780 -0.3458  0.4868
 6527SOL    HW120480   4.742   2.621   0.402 -2.4982  1.3606 -2.7033
 6527SOL    HW220481   4.741   2.771   0.465  0.5688  0.1150  0.6910
 6528SOL     OW20482   4.866   5.667   2.864  0.7992 -0.6913 -0.4687
 6528SOL    HW120483   4.907   5.634   2.780  0.0282 -0.6182 -0.8884
 6528SOL    HW220484   4.767   5.654   2.860  0.6552  0.1386  0.0474
 6529SOL     OW20485   5.002   6.583   1.083  0.4267 -0.1169 -0.2968
 6529SOL    HW120486   4.945   6.659   1.115  1.3905  0.7167 -0.4941
 6529SOL    HW220487   4.948   6.500   1.079 -0.8852  0.7441 -0.9149
 6530SOL     OW20488   0.970   1.229   5.872  0.4038  0.0419  0.9427
 6530SOL    HW120489   1.069   1.227   5.888  0.3778 -0.1786  1.0828
 6530SOL    HW220490   0.923   1.238   5.960  0.3537  2.1678  0.7318
 6531SOL     OW20491   3.315   4.167   4.311 -0.3508 -0.0137 -0.4558
 6531SOL    HW120492   3.299   4.151   4.214 -1.0700  0.8540 -0.4967
 6531SOL    HW220493   3.412   4.156   4.331  0.0501  1.2720 -1.5801
 6532SOL     OW20494   0.727   4.348   6.381 -0.2216 -0.4632 -0.3633
 6532SOL    HW120495   0.637   4.306   6.373  0.9937 -3.5247  0.2616
 6532SOL    HW220496   0.732   4.400   6.466 -1.1423 -1.0435  0.0590
 6533SOL     OW20497   5.609   3.593   0.908 -0.0871 -0.0307 -0.4181
 6533SOL    HW120498   5.597   3.691   0.923  1.3794 -0.1651  2.1315
 6533SOL    HW220499   5.685   3.579   0.844  0.1440  0.4919 -0.2703
 6534SOL     OW20500   0.986   3.765   4.582  0.0685 -0.0923 -0.2134
 6534SOL    HW120501   0.929   3.845   4.603  1.3335  0.5562  0.8777
 6534SOL    HW220502   1.044   3.743   4.660  2.6908  0.4494 -1.8803
 6535SOL     OW20503   4.738   4.816   0.949 -0.4760 -1.4409 -0.6183
 6535SOL    HW120504   4.703   4.753   0.880 -3.8723 -0.5673  0.1187
 6535SOL    HW220505   4.751   4.907   0.907  1.5033 -1.8423 -0.9777
 6536SOL     OW20506   0.544   5.106   5.722 -0.0370  0.0228  0.0952
 6536SOL    HW120507   0.613   5.136   5.656  0.2223 -2.7959 -1.0445
 6536SOL    HW220508   0.585   5.103   5.814  0.8595 -0.0375 -0.2940
 6537SOL     OW20509   0.740   6.424   5.007 -0.4635  0.6264 -0.9852
 6537SOL    HW120510   0.684   6.485   5.063 -0.7796  0.1372 -0.7633
 6537SOL    HW220511   0.680   6.360   4.958 -0.0519 -0.4263 -0.1327
 6538SOL     OW20512   6.736   2.948   3.016  0.5211  0.2802  0.2003
 6538SOL    HW120513   6.645   2.979   2.988  0.6932  0.0260 -0.6661
 6538SOL    HW220514   6.792   3.027   3.040  0.0046  0.4247  0.9808
 6539SOL     OW20515   4.306   6.908   6.051  0.4800  0.1516  0.0019
 6539SOL    HW120516   4.286   6.937   5.957  0.1274 -0.7654 -0.2178
 6539SOL    HW220517   4.252   6.964   6.115  0.8066  0.8563 -0.3242
 6540SOL     OW20518   1.582   2.605   4.950 -0.1861  0.1701 -0.6250
 6540SOL    HW120519   1.525   2.593   5.031  0.7044 -0.3289 -0.0567
 6540SOL    HW220520   1.668   2.651   4.975  0.7024 -1.2159 -0.9927
 6541SOL     OW20521   6.791   3.805   5.649 -0.2853  0.3816 -0.2113
 6541SOL    HW120522   6.826   3.878   5.708 -0.9082  0.5886 -0.0844
 6541SOL    HW220523   6.747   3.735   5.705  1.5937 -0.8625 -0.1936
 6542SOL     OW20524   1.156   3.173   1.962 -0.5220  0.2434 -0.6230
 6542SOL    HW120525   1.124   3.132   2.048 -0.5125 -1.4706 -1.3889
 6542SOL    HW220526   1.079   3.186   1.900 -0.1251 -1.8656 -1.6543
 6543SOL     OW20527   5.049   1.940   5.222 -0.4186 -0.5768 -0.5663
 6543SOL    HW120528   5.070   1.877   5.297 -0.8120 -1.0833 -0.8775
 6543SOL    HW220529   5.001   2.019   5.258  1.5317  0.3769  0.0893
 6544SOL     OW20530   1.161   5.195   0.410 -0.0234 -0.3881 -0.3451
 6544SOL    HW120531   1.083   5.229   0.462  0.2173 -1.2150  0.5807
 6544SOL    HW220532   1.197   5.268   0.352 -0.4582  0.4812  0.4534
 6545SOL     OW20533   5.046   6.954   0.751  0.4645  0.1454  0.0988
 6545SOL    HW120534   5.110   7.001   0.691  2.0552 -2.0284 -0.0381
 6545SOL    HW220535   4.990   6.891   0.698  2.0059 -1.9311  0.7649
 6546SOL     OW20536   3.100   5.381   5.281  0.7026 -0.1834  0.7123
 6546SOL    HW120537   3.191   5.339   5.279  0.3306 -0.9843 -0.4347
 6546SOL    HW220538   3.068   5.386   5.376  2.0754  0.4332  1.1696
 6547SOL     OW20539   1.808   6.650   6.388  0.0296  0.4451  0.2961
 6547SOL    HW120540   1.723   6.667   6.438  0.0134  1.3024 -0.0202
 6547SOL    HW220541   1.793   6.579   6.319 -0.9093  1.8304 -0.9697
 6548SOL     OW20542   1.241   0.665   5.664 -0.2409  0.1390 -0.0833
 6548SOL    HW120543   1.161   0.607   5.680 -1.4569  1.3411 -1.4718
 6548SOL    HW220544   1.229   0.751   5.713  1.1453 -0.4049  1.2702
 6549SOL     OW20545   1.713   2.070   2.126 -0.1962 -0.0306 -0.4660
 6549SOL    HW120546   1.758   2.069   2.215 -0.5211 -1.3622 -0.3070
 6549SOL    HW220547   1.764   2.012   2.062 -1.0892 -0.7117 -0.5756
 6550SOL     OW20548   5.680   4.630   2.760 -0.1683  0.9284  0.1903
 6550SOL    HW120549   5.595   4.684   2.754 -0.3387  0.5984 -0.4521
 6550SOL    HW220550   5.675   4.553   2.697 -0.0696 -0.0637  1.3573
 6551SOL     OW20551   3.247   2.918   2.684 -0.8153 -0.3720  0.0565
 6551SOL    HW120552   3.180   2.936   2.612 -0.7118 -0.4726 -0.0644
 6551SOL    HW220553   3.330   2.879   2.644 -0.6874 -0.2567  0.2064
 6552SOL     OW20554   2.391   2.283   0.149  0.2807 -0.0152 -0.1274
 6552SOL    HW120555   2.431   2.354   0.207 -2.3370  3.0384 -1.7191
 6552SOL    HW220556   2.305   2.252   0.189 -0.4959  0.5841 -1.2883
 6553SOL     OW20557   0.824   0.046   2.236 -0.1971 -0.5157 -0.3040
 6553SOL    HW120558   0.761   0.021   2.310 -0.4492 -1.6195 -0.8685
 6553SOL    HW220559   0.800   0.137   2.201 -1.6061 -0.9773 -0.6218
 6554SOL     OW20560   1.839   2.777   3.704 -0.2971 -0.8045 -0.3167
 6554SOL    HW120561   1.828   2.777   3.803 -1.1568 -1.6183 -0.4046
 6554SOL    HW220562   1.882   2.863   3.676 -1.7271  0.2637  0.5887
 6555SOL     OW20563   2.035   3.862   2.776  0.7714 -0.0968 -0.1593
 6555SOL    HW120564   2.102   3.889   2.707  1.6107 -0.6429  0.4255
 6555SOL    HW220565   2.070   3.784   2.828 -0.4195 -0.5501  0.0035
 6556SOL     OW20566   5.448   3.666   4.739 -0.0643  0.0600 -0.4801
 6556SOL    HW120567   5.519   3.596   4.741 -0.3832 -0.2662 -0.3695
 6556SOL    HW220568   5.438   3.702   4.646  0.9773  0.8728 -0.2941
 6557SOL     OW20569   0.049   0.084   2.253  0.1322  0.4139 -0.6515
 6557SOL    HW120570   0.114   0.038   2.313 -0.0784  0.7296 -0.1710
 6557SOL    HW220571  -0.044   0.066   2.286  0.0433  1.1072 -0.5003
 6558SOL     OW20572   5.810   5.921   1.379 -0.4694  0.3144 -0.3558
 6558SOL    HW120573   5.773   5.992   1.438  1.4688  0.7496  0.4238
 6558SOL    HW220574   5.796   5.946   1.283 -0.3364  1.4821 -0.0843
 6559SOL     OW20575   6.092   2.238   5.883 -0.4984 -0.5264 -0.1747
 6559SOL    HW120576   6.022   2.244   5.954 -1.6976 -1.5093 -1.2099
 6559SOL    HW220577   6.124   2.144   5.876  0.7652 -0.1263  0.1233
 6560SOL     OW20578   5.418   5.512   0.302  0.0228  0.5554 -0.3148
 6560SOL    HW120579   5.499   5.453   0.308  0.8499  1.7618  0.8314
 6560SOL    HW220580   5.348   5.466   0.248  1.3537 -0.6541 -1.0856
 6561SOL     OW20581   1.878   4.449   6.204 -0.0393 -0.0511 -0.2302
 6561SOL    HW120582   1.814   4.433   6.128  0.7547  0.7770 -1.0939
 6561SOL    HW220583   1.950   4.380   6.202 -1.7452 -2.0985  1.7916
 6562SOL     OW20584   4.982   2.602   2.286  0.2438  0.5299  0.5349
 6562SOL    HW120585   4.882   2.600   2.287  0.1422  2.8580  1.6554
 6562SOL    HW220586   5.017   2.539   2.355 -0.4518  0.0344  0.4490
 6563SOL     OW20587   3.715   3.899   6.317 -0.5914  0.3515 -0.1783
 6563SOL    HW120588   3.667   3.812   6.329  0.6361 -0.2359  0.7042
 6563SOL    HW220589   3.745   3.933   6.407 -0.1806  1.1854 -0.6176
 6564SOL     OW20590   6.938   5.578   1.424  0.2410  0.5184  0.2920
 6564SOL    HW120591   6.884   5.494   1.434  0.6689 -0.0150 -1.4483
 6564SOL    HW220592   7.031   5.561   1.458  0.4318  0.1548 -0.3928
 6565SOL     OW20593   4.621   5.678   0.308  0.1799  0.8128 -0.3210
 6565SOL    HW120594   4.685   5.752   0.328 -0.3866  1.2393 -0.0661
 6565SOL    HW220595   4.609   5.670   0.209 -0.6151  1.8071 -0.3190
 6566SOL     OW20596   6.322   4.658   3.316  0.2756  0.0133 -0.1445
 6566SOL    HW120597   6.340   4.667   3.414 -2.5335  1.4908  0.3160
 6566SOL    HW220598   6.238   4.606   3.302  1.3433 -1.3793 -1.9021
 6567SOL     OW20599   2.893   1.273   3.617 -0.2410  0.6251  0.2937
 6567SOL    HW120600   2.973   1.331   3.599  0.9195 -1.1417 -0.5883
 6567SOL    HW220601   2.872   1.219   3.536 -1.7363  0.3222  0.8484
 6568SOL     OW20602   4.135   1.026   0.547  0.0721 -1.0947  0.0034
 6568SOL    HW120603   4.120   1.016   0.449  1.8862 -0.4856 -0.3588
 6568SOL    HW220604   4.221   0.983   0.573 -1.0999 -2.6118  1.6238
 6569SOL     OW20605   0.984   2.983   2.521 -0.0867  0.6157 -0.0810
 6569SOL    HW120606   0.989   2.946   2.428  1.7551 -1.7888  0.8482
 6569SOL    HW220607   1.045   3.062   2.528  1.6137 -0.6139 -0.3975
 6570SOL     OW20608   3.577   6.751   3.001  0.0082  0.3317  0.3504
 6570SOL    HW120609   3.601   6.810   2.924  2.7015 -1.0342  0.0192
 6570SOL    HW220610   3.500   6.692   2.974 -1.0370  1.8576 -0.1839
 6571SOL     OW20611   2.936   6.178   3.717  0.3541 -0.5115 -0.0774
 6571SOL    HW120612   2.981   6.094   3.686 -0.8206 -1.0814 -0.3095
 6571SOL    HW220613   2.952   6.189   3.815 -1.1745 -2.1789  0.4327
 6572SOL     OW20614   1.206   6.634   3.898 -0.0697 -0.4326 -0.1807
 6572SOL    HW120615   1.112   6.618   3.929 -0.5803  1.7907 -0.4728
 6572SOL    HW220616   1.264   6.558   3.930 -2.1514 -2.5809 -1.1553
 6573SOL     OW20617   1.462   2.085   2.066 -0.2698 -0.6490  0.4478
 6573SOL    HW120618   1.548   2.111   2.109 -0.4972  1.3550 -0.1913
 6573SOL    HW220619   1.479   2.049   1.975 -0.1286  0.9334 -0.1869
 6574SOL     OW20620   6.910   3.005   2.397  0.7258  0.4622  0.0428
 6574SOL    HW120621   6.859   3.090   2.383 -0.7210 -0.4034 -0.1570
 6574SOL    HW220622   6.966   2.987   2.316  1.3580  1.4250  0.2574
 6575SOL     OW20623   5.803   0.316   5.204  0.1725 -0.5963 -0.5963
 6575SOL    HW120624   5.786   0.217   5.205  2.0389 -0.9420 -0.3814
 6575SOL    HW220625   5.864   0.340   5.279 -0.0840  0.7109 -0.7838
 6576SOL     OW20626   4.220   1.848   3.265 -0.0397 -0.7213 -0.4369
 6576SOL    HW120627   4.320   1.849   3.269  0.0373  1.5595 -1.2896
 6576SOL    HW220628   4.184   1.792   3.338  1.8351  0.2953  1.3751
 6577SOL     OW20629   3.668   1.640   6.821 -0.0607 -0.1838 -0.0093
 6577SOL    HW120630   3.740   1.698   6.782 -1.9006  1.2337 -1.4737
 6577SOL    HW220631   3.670   1.646   6.921  1.9001 -0.2987 -0.0004
 6578SOL     OW20632   0.036   5.424   0.636  0.2100 -0.3033  0.1575
 6578SOL    HW120633  -0.016   5.339   0.624  1.3988 -1.1160  0.5043
 6578SOL    HW220634   0.020   5.485   0.558 -3.0341  0.4976  1.3251
 6579SOL     OW20635   3.839   1.180   2.583  0.3818 -0.2769  0.2726
 6579SOL    HW120636   3.758   1.153   2.531  0.0716 -0.0273  0.6258
 6579SOL    HW220637   3.891   1.098   2.608 -0.0180 -0.4757  0.4621
 6580SOL     OW20638   4.351   2.635   6.088 -0.4441 -0.0999 -0.3059
 6580SOL    HW120639   4.346   2.543   6.049 -2.1107  1.1536 -3.3460
 6580SOL    HW220640   4.279   2.692   6.050  1.1422  2.7997  0.6920
 6581SOL     OW20641   6.952   2.247   0.855  0.4619  0.8011  0.1542
 6581SOL    HW120642   7.011   2.166   0.849  1.1362  1.2855  0.0406
 6581SOL    HW220643   6.997   2.324   0.808  0.0419  1.3543  0.6434
 6582SOL     OW20644   4.613   1.966   2.918 -0.0631 -0.2481 -0.1430
 6582SOL    HW120645   4.588   2.060   2.897 -0.0781 -0.9279 -3.8048
 6582SOL    HW220646   4.688   1.966   2.985  0.3094  2.3783 -0.4508
 6583SOL     OW20647   3.165   4.943   1.898 -0.2138 -0.5331 -0.2363
 6583SOL    HW120648   3.248   4.888   1.886  0.3239  0.2101 -0.0542
 6583SOL    HW220649   3.123   4.921   1.986  1.0584  0.6749  0.7200
 6584SOL     OW20650   5.960   2.947   5.326  0.2593 -0.2840 -0.1605
 6584SOL    HW120651   6.027   2.921   5.395 -0.0849  1.0429  0.7024
 6584SOL    HW220652   5.869   2.952   5.367  0.2376  1.7426 -0.3642
 6585SOL     OW20653   3.581   5.717   2.088 -0.5788 -0.2652  0.4288
 6585SOL    HW120654   3.522   5.637   2.081  0.1637 -0.8032  0.2894
 6585SOL    HW220655   3.669   5.691   2.127  0.3029  0.1538 -1.1941
 6586SOL     OW20656   6.897   4.468   6.346 -0.3127 -0.5476  0.1875
 6586SOL    HW120657   6.866   4.545   6.290 -1.5252 -0.8002  0.4744
 6586SOL    HW220658   6.997   4.469   6.353 -0.0548 -0.9051 -2.5514
 6587SOL     OW20659   0.911   3.050   4.261 -0.2641 -0.3701  0.2922
 6587SOL    HW120660   0.856   3.127   4.229  0.0898 -0.7637 -1.3331
 6587SOL    HW220661   0.974   3.082   4.332  1.1047  1.2628 -1.5509
 6588SOL     OW20662   0.105   3.581   1.320 -0.6128 -0.4852 -0.4308
 6588SOL    HW120663   0.116   3.556   1.417  2.5601 -3.0703 -1.2654
 6588SOL    HW220664   0.173   3.650   1.296 -0.8712 -0.4297 -1.0168
 6589SOL     OW20665   4.658   5.895   3.110 -0.4687 -0.0610 -0.6746
 6589SOL    HW120666   4.661   5.796   3.097 -1.1037 -0.3697  1.3329
 6589SOL    HW220667   4.710   5.939   3.036  0.6649 -1.9179 -1.0493
 6590SOL     OW20668   1.976   7.011   5.286  0.0896 -0.0925  0.1405
 6590SOL    HW120669   1.961   6.938   5.353 -0.5987  0.4437  0.5827
 6590SOL    HW220670   2.041   6.979   5.216 -1.7290 -1.8816 -0.8433
 6591SOL     OW20671   1.243   5.200   5.331  0.1967 -0.0349 -0.4144
 6591SOL    HW120672   1.338   5.184   5.357 -0.2943 -1.3209  0.6730
 6591SOL    HW220673   1.240   5.257   5.248  1.8969 -0.2381 -0.6418
 6592SOL     OW20674   0.177   0.035   3.829 -0.4662  0.5772  0.7118
 6592SOL    HW120675   0.116  -0.022   3.885  0.4589 -0.4451  0.7064
 6592SOL    HW220676   0.262  -0.014   3.813 -0.4272  1.1662 -0.9862
 6593SOL     OW20677   0.949   2.612   3.523  0.2722  0.0692  0.2634
 6593SOL    HW120678   0.853   2.585   3.526  0.5445 -0.9428  0.2698
 6593SOL    HW220679   0.956   2.710   3.505 -0.7408 -0.0670 -0.9617
 6594SOL     OW20680   4.870   1.191   0.484 -0.1316 -0.1439  0.0221
 6594SOL    HW120681   4.822   1.228   0.404  0.4847  0.9432  0.1390
 6594SOL    HW220682   4.866   1.257   0.559  1.1313 -0.2220  0.1882
 6595SOL     OW20683   0.566   6.046   3.951 -0.1332 -0.1180 -0.0756
 6595SOL    HW120684   0.642   6.071   4.011  1.3257 -3.9114 -0.1236
 6595SOL    HW220685   0.481   6.046   4.004  0.2913  1.3380  0.6849
 6596SOL     OW20686   6.652   6.568   2.945 -0.0408 -0.2430  0.2046
 6596SOL    HW120687   6.716   6.554   3.020  1.3990  1.0010 -0.7491
 6596SOL    HW220688   6.700   6.560   2.857 -1.4620 -0.5822 -0.5779
 6597SOL     OW20689   0.975   4.775   1.770 -0.3487  0.2830  0.4156
 6597SOL    HW120690   1.044   4.835   1.811  2.5956 -1.7111 -1.2436
 6597SOL    HW220691   0.914   4.830   1.713  0.7044  1.9891  0.8295
 6598SOL     OW20692   1.329   5.842   1.073 -0.3912  0.0139 -0.4232
 6598SOL    HW120693   1.314   5.911   1.144  1.2556 -1.0304  1.0305
 6598SOL    HW220694   1.414   5.863   1.025 -0.9697  0.1317 -1.4244
 6599SOL     OW20695   0.772   6.447   0.766 -0.3074  0.1869  1.0319
 6599SOL    HW120696   0.783   6.417   0.671 -0.8833 -1.3878  1.4172
 6599SOL    HW220697   0.752   6.367   0.823 -0.4697  1.1749  2.3989
 6600SOL     OW20698   5.057   1.496   3.401  0.5008 -0.0828 -0.1556
 6600SOL    HW120699   5.013   1.492   3.311 -1.3694 -2.8786  0.7393
 6600SOL    HW220700   5.126   1.424   3.407  1.8052  1.1405  0.1585
 6601SOL     OW20701   0.867   2.159   3.132 -0.1874  0.1221  0.1170
 6601SOL    HW120702   0.817   2.231   3.179  0.1543  0.3052  0.2064
 6601SOL    HW220703   0.819   2.133   3.048  0.3881  1.4268 -0.6502
 6602SOL     OW20704   4.644   0.454   0.092 -0.0126 -0.4509  0.4690
 6602SOL    HW120705   4.743   0.438   0.101 -0.3014 -2.1694  0.7944
 6602SOL    HW220706   4.596   0.367   0.091 -1.6049  0.3872  1.0524
 6603SOL     OW20707   6.471   3.159   2.139  0.1695  0.4636  0.2975
 6603SOL    HW120708   6.402   3.088   2.122  0.9798 -0.5806  1.1506
 6603SOL    HW220709   6.563   3.121   2.123  0.5679  1.8480 -0.9047
 6604SOL     OW20710   2.208   4.424   3.281  0.1021 -0.2171 -0.3933
 6604SOL    HW120711   2.298   4.431   3.325 -0.5543 -0.4229  1.0396
 6604SOL    HW220712   2.200   4.334   3.237  0.8161  0.0360 -1.0582
 6605SOL     OW20713   5.248   0.832   0.047  0.1277  0.4354  0.6950
 6605SOL    HW120714   5.273   0.882   0.130 -0.3923 -0.1509  1.2125
 6605SOL    HW220715   5.260   0.734   0.063  1.6713  0.3940 -0.4811
 6606SOL     OW20716   1.787   3.720   3.394 -0.4716  0.2732  0.0472
 6606SOL    HW120717   1.806   3.622   3.397 -0.9436  0.2103  1.2920
 6606SOL    HW220718   1.780   3.756   3.487  0.5631  1.6707 -0.3859
 6607SOL     OW20719   5.973   3.302   4.087  0.1076 -0.0368  0.2266
 6607SOL    HW120720   5.916   3.241   4.142 -0.6364 -1.5651 -2.0876
 6607SOL    HW220721   6.066   3.303   4.124  0.2197 -2.8443  0.1991
 6608SOL     OW20722   6.722   0.285   6.569 -0.1808  0.2471  0.2124
 6608SOL    HW120723   6.806   0.253   6.613  0.0422  1.6926  0.9034
 6608SOL    HW220724   6.655   0.211   6.567  0.1811 -0.1775  2.0541
 6609SOL     OW20725   2.285   3.569   6.334 -0.2685  0.6582 -0.0493
 6609SOL    HW120726   2.273   3.668   6.325  3.0475  1.1217 -0.8345
 6609SOL    HW220727   2.289   3.527   6.244  3.0549  0.6474 -0.0237
 6610SOL     OW20728   3.277   5.580   1.679 -0.3995  0.0295 -0.0943
 6610SOL    HW120729   3.277   5.499   1.620  0.1898 -0.5089  0.6208
 6610SOL    HW220730   3.230   5.559   1.765 -0.6258  0.5892 -0.0717
 6611SOL     OW20731   3.284   0.511   5.781 -0.0169 -0.0687  0.2341
 6611SOL    HW120732   3.218   0.513   5.706  1.3751 -0.5852 -1.0680
 6611SOL    HW220733   3.264   0.584   5.846 -2.1622 -0.5516  0.1775
 6612SOL     OW20734   5.424   0.567   1.557  0.2763  0.3966 -0.2877
 6612SOL    HW120735   5.336   0.583   1.601  0.4582 -0.3924  0.3909
 6612SOL    HW220736   5.410   0.518   1.472  0.1509 -1.1006  0.5672
 6613SOL     OW20737   3.737   0.301   1.251  0.1743  0.6379 -0.5186
 6613SOL    HW120738   3.773   0.266   1.164 -0.3437  0.2918 -0.6038
 6613SOL    HW220739   3.712   0.397   1.240 -0.1030  0.5343 -0.8258
 6614SOL     OW20740   4.876   3.108   0.805 -0.0719 -0.0173 -0.3372
 6614SOL    HW120741   4.826   3.188   0.840  0.0759  0.0503 -0.2790
 6614SOL    HW220742   4.974   3.128   0.805 -0.0458 -0.1463 -0.4596
 6615SOL     OW20743   3.338   5.055   5.383  0.1650  0.1752 -0.0790
 6615SOL    HW120744   3.411   4.988   5.394 -0.9317 -1.0215  0.1749
 6615SOL    HW220745   3.282   5.031   5.303  0.0938  1.1192 -0.3245
 6616SOL     OW20746   5.055   1.965   0.817  0.5415  0.0836  0.1865
 6616SOL    HW120747   5.016   2.056   0.817  1.4660  0.4977  0.9466
 6616SOL    HW220748   5.118   1.955   0.895 -1.1874 -1.9186  1.4588
 6617SOL     OW20749   2.343   2.257   2.361  0.0759 -0.2311 -0.0338
 6617SOL    HW120750   2.434   2.257   2.320  0.2280  0.7474  0.2555
 6617SOL    HW220751   2.325   2.348   2.400 -0.4906 -0.7998  1.0757
 6618SOL     OW20752   0.162   3.577   3.964 -0.0011  0.3466  0.2555
 6618SOL    HW120753   0.201   3.668   3.956 -0.6984  0.7995  1.7330
 6618SOL    HW220754   0.228   3.510   3.929  0.5796  1.3743 -0.7002
 6619SOL     OW20755   5.325   5.784   3.805  0.2633  0.0834 -0.1839
 6619SOL    HW120756   5.325   5.688   3.777 -0.1595  0.0276 -0.0006
 6619SOL    HW220757   5.235   5.824   3.785  0.1089  0.1725  0.6268
 6620SOL     OW20758   1.324   2.322   3.599 -0.3087 -0.3244  0.3519
 6620SOL    HW120759   1.413   2.288   3.629  0.2446  0.2902 -0.5420
 6620SOL    HW220760   1.252   2.288   3.661  0.1866 -3.0364 -0.4485
 6621SOL     OW20761   4.072   3.599   4.155 -0.8940  0.3128  0.2797
 6621SOL    HW120762   4.060   3.627   4.060  1.0902  0.4334  0.0272
 6621SOL    HW220763   4.006   3.527   4.177 -1.0562 -0.0810 -1.3485
 6622SOL     OW20764   0.024   4.941   2.491 -0.1926  0.1368  0.5479
 6622SOL    HW120765  -0.061   4.934   2.543  0.5014 -1.1775  1.5729
 6622SOL    HW220766   0.100   4.960   2.553  0.6200 -1.1971  0.0269
 6623SOL     OW20767   3.870   3.425   3.105 -0.2436  0.4954  0.4317
 6623SOL    HW120768   3.899   3.520   3.094  0.1425  0.2589 -0.7089
 6623SOL    HW220769   3.949   3.369   3.128 -0.2188  0.2441 -0.2379
 6624SOL     OW20770   3.515   1.986   4.154 -0.0232 -0.6343 -0.0262
 6624SOL    HW120771   3.450   2.050   4.113  0.6612 -0.0641 -0.2391
 6624SOL    HW220772   3.497   1.978   4.252 -1.4510 -1.7462 -0.3464
 6625SOL     OW20773   1.745   5.174   4.749 -0.1959  0.1749 -0.1268
 6625SOL    HW120774   1.775   5.080   4.732 -1.4260 -0.3842  0.7297
 6625SOL    HW220775   1.646   5.177   4.758 -0.0173  1.0939  2.5295
 6626SOL     OW20776   4.784   5.322   6.870  0.6113 -0.3299 -0.0988
 6626SOL    HW120777   4.768   5.236   6.821  1.0722  0.2006 -1.2153
 6626SOL    HW220778   4.869   5.363   6.838  0.2815  0.6562  0.2644
 6627SOL     OW20779   4.433   7.009   5.238  0.1531  0.1165  0.2875
 6627SOL    HW120780   4.408   6.956   5.156 -0.9180 -0.2917  0.8589
 6627SOL    HW220781   4.352   7.022   5.295  0.6008  1.5750  0.6331
 6628SOL     OW20782   3.282   5.841   2.382  0.4381  0.3784 -0.2087
 6628SOL    HW120783   3.285   5.746   2.351  1.8904  0.7218 -1.2145
 6628SOL    HW220784   3.332   5.850   2.469  0.0133  0.1789  0.0607
 6629SOL     OW20785   4.767   6.589   4.480  0.7367 -0.0691 -0.5251
 6629SOL    HW120786   4.805   6.671   4.522 -1.4284  0.1272  1.2630
 6629SOL    HW220787   4.780   6.593   4.381  0.4484  2.5982 -0.5372
 6630SOL     OW20788   2.112   1.564   6.643  0.1996 -0.5701  0.5742
 6630SOL    HW120789   2.201   1.610   6.646  0.0831 -0.3177  0.2623
 6630SOL    HW220790   2.040   1.631   6.624 -0.0308 -0.8050  0.6106
 6631SOL     OW20791   2.317   1.668   6.942  0.2805  0.0014 -0.1609
 6631SOL    HW120792   2.229   1.632   6.910  0.4851 -0.4246 -0.2459
 6631SOL    HW220793   2.305   1.763   6.971 -0.3322 -0.2337  0.3814
 6632SOL     OW20794   2.170   1.939   5.773  0.2825 -0.0849  0.3312
 6632SOL    HW120795   2.158   1.840   5.780  0.8991 -0.2136 -0.3133
 6632SOL    HW220796   2.113   1.985   5.842 -1.9990 -0.7629 -0.9723
 6633SOL     OW20797   4.120   6.533   0.867  0.1578  0.0549  0.0219
 6633SOL    HW120798   4.044   6.503   0.925  0.5959 -1.0635  0.0456
 6633SOL    HW220799   4.175   6.454   0.840  1.9573  0.9251  0.9079
 6634SOL     OW20800   1.251   2.824   2.188 -0.1281  0.2202  0.1392
 6634SOL    HW120801   1.332   2.775   2.156 -1.2402 -0.8438 -1.1868
 6634SOL    HW220802   1.273   2.876   2.270  1.4359 -1.4762  0.8358
 6635SOL     OW20803   4.825   4.966   6.279 -0.0772  0.2224  0.7671
 6635SOL    HW120804   4.727   4.979   6.264  0.2029  0.4937 -1.1334
 6635SOL    HW220805   4.870   4.950   6.191  1.5118 -0.4908  1.6622
 6636SOL     OW20806   4.149   1.776   6.862 -0.0550 -0.0440  0.4231
 6636SOL    HW120807   4.200   1.725   6.792  2.2812  0.9680  1.2769
 6636SOL    HW220808   4.149   1.873   6.839 -1.2177  0.0318  0.7077
 6637SOL     OW20809   0.108   2.595   0.969 -0.2124  0.1881 -0.0831
 6637SOL    HW120810   0.153   2.516   0.928 -1.6046 -1.8541  2.0357
 6637SOL    HW220811   0.032   2.624   0.910 -1.3257 -1.7932  0.2837
 6638SOL     OW20812   4.217   3.817   5.352 -0.2851  0.1994 -0.1445
 6638SOL    HW120813   4.192   3.843   5.259  1.7234  0.5628 -0.6357
 6638SOL    HW220814   4.274   3.734   5.349 -0.6211 -0.0815  0.8119
 6639SOL     OW20815   3.162   2.963   2.161 -0.0658  0.3265 -0.5488
 6639SOL    HW120816   3.167   2.869   2.196 -0.4099  0.4563 -0.1351
 6639SOL    HW220817   3.096   2.967   2.086  0.1287  0.1907 -0.7276
 6640SOL     OW20818   0.735   4.221   2.811 -0.0423 -0.5302  0.0464
 6640SOL    HW120819   0.637   4.233   2.825  0.0675 -0.7627  1.0952
 6640SOL    HW220820   0.777   4.309   2.790 -0.2846 -0.2145  0.8642
 6641SOL     OW20821   0.064   2.828   6.631 -0.2145 -0.4467  0.3231
 6641SOL    HW120822   0.071   2.824   6.532  0.6253 -0.3708  0.3649
 6641SOL    HW220823   0.136   2.889   6.667 -0.2373 -0.8085  0.9991
 6642SOL     OW20824   1.723   5.529   4.130 -0.0892 -0.4891 -0.3677
 6642SOL    HW120825   1.628   5.560   4.129 -0.2135 -0.8757 -0.8005
 6642SOL    HW220826   1.726   5.430   4.115  0.4216 -0.3628 -1.1258
 6643SOL     OW20827   5.644   6.313   4.493  0.0226  0.1091 -0.3708
 6643SOL    HW120828   5.654   6.375   4.415  0.3146 -0.0749 -0.4788
 6643SOL    HW220829   5.613   6.365   4.573  0.0809  0.3601 -0.5112
 6644SOL     OW20830   2.040   6.889   4.828 -0.0688  0.5168  0.0111
 6644SOL    HW120831   2.116   6.871   4.764 -0.0835 -1.9736  0.5739
 6644SOL    HW220832   2.068   6.957   4.895  1.7169 -0.3660  0.2151
 6645SOL     OW20833   4.756   2.307   4.863  0.4729  0.1270  0.3918
 6645SOL    HW120834   4.736   2.219   4.905 -1.1858  0.2322 -0.1014
 6645SOL    HW220835   4.799   2.293   4.774 -2.5011 -0.3609 -1.0918
 6646SOL     OW20836   5.142   6.288   6.155 -0.3492 -0.4672  0.2596
 6646SOL    HW120837   5.197   6.206   6.142 -2.3907 -1.9374  0.4847
 6646SOL    HW220838   5.149   6.347   6.074  1.4710 -0.6069  0.2748
 6647SOL     OW20839   3.766   5.091   6.316  0.3685 -0.0467 -0.1401
 6647SOL    HW120840   3.750   5.151   6.395 -1.6172 -1.3815  0.5625
 6647SOL    HW220841   3.682   5.039   6.297  1.8208 -2.1812 -1.0448
 6648SOL     OW20842   3.918   5.201   4.973  0.1061 -0.1452 -0.0354
 6648SOL    HW120843   3.874   5.255   5.044  1.0778  0.2683  0.2734
 6648SOL    HW220844   3.884   5.107   4.977  1.2815 -0.5702  2.0814
 6649SOL     OW20845   5.799   4.060   5.008 -0.4788  0.0874 -0.4401
 6649SOL    HW120846   5.709   4.103   5.013  0.9761  3.2968  2.0872
 6649SOL    HW220847   5.813   4.002   5.088  0.5245  1.6332  0.5566
 6650SOL     OW20848   3.612   1.793   3.998 -0.0625  0.1484  0.0080
 6650SOL    HW120849   3.683   1.750   4.055 -1.4961 -1.0738  0.9328
 6650SOL    HW220850   3.579   1.876   4.043  0.0066  0.1188  0.1133
 6651SOL     OW20851   0.999   0.392   3.458 -0.1074 -0.0104 -0.3035
 6651SOL    HW120852   0.986   0.302   3.500  0.3149 -0.4505 -1.0850
 6651SOL    HW220853   0.911   0.426   3.424 -0.1282 -0.5374 -0.7911
 6652SOL     OW20854   0.292   6.826   6.283 -0.8228 -0.2331  0.1213
 6652SOL    HW120855   0.374   6.784   6.321 -0.1436 -0.2755 -1.3081
 6652SOL    HW220856   0.268   6.907   6.336  2.3475  1.9840 -1.5085
 6653SOL     OW20857   5.345   4.843   0.393 -0.0931 -0.1301 -0.3402
 6653SOL    HW120858   5.321   4.761   0.341 -0.2374 -1.3410  1.5453
 6653SOL    HW220859   5.340   4.823   0.491 -0.6402  2.3047  0.1821
 6654SOL     OW20860   5.691   0.727   3.280 -0.3973 -0.2353 -0.5977
 6654SOL    HW120861   5.625   0.783   3.330 -0.7848 -1.0533 -0.1783
 6654SOL    HW220862   5.784   0.752   3.308 -0.6006 -0.4576  0.2926
 6655SOL     OW20863   1.128   6.156   6.766  0.0117 -0.4902  0.4570
 6655SOL    HW120864   1.124   6.057   6.762  1.0335 -0.5135 -0.1202
 6655SOL    HW220865   1.216   6.188   6.732 -0.8671  0.7002 -0.7836
 6656SOL     OW20866   6.917   6.733   3.103 -0.1691 -0.7568  0.4921
 6656SOL    HW120867   6.868   6.646   3.095 -1.7885  0.1851 -0.3409
 6656SOL    HW220868   6.878   6.787   3.177 -1.1356  0.4333 -0.8336
 6657SOL     OW20869   3.595   2.063   5.018 -0.6090 -0.1681 -0.1167
 6657SOL    HW120870   3.582   2.075   5.116  0.0614  0.1028 -0.0589
 6657SOL    HW220871   3.517   2.103   4.969 -0.5948  0.3520  0.2760
 6658SOL     OW20872   0.201   3.357   3.407 -0.5763 -0.3354  0.1635
 6658SOL    HW120873   0.173   3.309   3.490  0.7230  1.9234  2.0740
 6658SOL    HW220874   0.136   3.430   3.387 -0.6812 -0.6327 -0.5969
 6659SOL     OW20875   6.497   5.727   1.425 -0.4335 -0.3792  0.0122
 6659SOL    HW120876   6.525   5.754   1.517 -0.1814  0.5565 -0.3304
 6659SOL    HW220877   6.575   5.688   1.377  0.5815  2.7068 -1.1253
 6660SOL     OW20878   2.371   6.716   4.377 -0.2516 -0.2606 -0.6294
 6660SOL    HW120879   2.406   6.802   4.413 -0.1785 -1.0690  1.3143
 6660SOL    HW220880   2.417   6.695   4.290 -0.6680  1.8898 -1.4262
 6661SOL     OW20881   6.158   5.624   3.785 -0.2347  0.0394 -0.3343
 6661SOL    HW120882   6.135   5.719   3.762 -1.8937 -0.4974 -1.0531
 6661SOL    HW220883   6.109   5.562   3.724 -1.0570 -1.3434  1.6105
 6662SOL     OW20884   5.709   1.787   1.165  0.2234  0.5068  0.3763
 6662SOL    HW120885   5.794   1.835   1.186  0.9748 -0.3367 -0.6067
 6662SOL    HW220886   5.646   1.795   1.242  1.3398  0.8273  1.2867
 6663SOL     OW20887   1.877   3.569   5.196  0.4207 -0.3827  0.2602
 6663SOL    HW120888   1.823   3.651   5.217 -2.0645 -2.1009  1.0790
 6663SOL    HW220889   1.952   3.561   5.262 -1.1078 -0.2707  2.1294
 6664SOL     OW20890   2.888   0.883   1.229 -0.2492 -0.5734 -0.4261
 6664SOL    HW120891   2.919   0.976   1.212  0.5977 -0.8306 -0.3553
 6664SOL    HW220892   2.855   0.875   1.323  0.6788 -0.5864 -0.0839
 6665SOL     OW20893   3.966   0.321   0.185 -0.1282 -0.3617  0.1169
 6665SOL    HW120894   3.887   0.330   0.246 -1.6133 -0.2032 -1.7569
 6665SOL    HW220895   3.946   0.254   0.114  0.8094  0.8157 -1.3227
 6666SOL     OW20896   4.374   6.844   4.998 -0.5330 -0.2731  0.0302
 6666SOL    HW120897   4.411   6.842   4.906 -0.2631  0.4225  0.1166
 6666SOL    HW220898   4.278   6.816   4.996 -0.0565 -1.9674 -0.2102
 6667SOL     OW20899   1.246   4.393   0.935  0.7040 -0.6300  0.0003
 6667SOL    HW120900   1.238   4.344   0.848 -0.4094 -1.2897  0.4584
 6667SOL    HW220901   1.260   4.490   0.917  2.7491 -1.0342 -0.9264
 6668SOL     OW20902   6.916   6.601   5.291  0.1687  0.3354 -0.5000
 6668SOL    HW120903   6.906   6.507   5.257  1.2493  0.6423 -1.7643
 6668SOL    HW220904   6.975   6.653   5.229  0.8552  1.4348  0.9943
 6669SOL     OW20905   0.235   4.942   4.149 -0.4805 -0.7318  0.4561
 6669SOL    HW120906   0.291   4.921   4.229  1.2870  0.3201 -0.4490
 6669SOL    HW220907   0.206   4.857   4.105 -1.3629 -1.3209  2.0962
 6670SOL     OW20908   1.082   3.961   1.126 -0.1142  0.7603  0.1720
 6670SOL    HW120909   1.083   3.917   1.037  0.3237  0.1118  0.4859
 6670SOL    HW220910   1.111   4.057   1.117 -1.5135  1.1254 -0.5811
 6671SOL     OW20911   4.400   5.099   2.273 -0.1887  0.0917  0.0191
 6671SOL    HW120912   4.349   5.089   2.187  2.2034 -0.5976 -1.4166
 6671SOL    HW220913   4.386   5.018   2.330  0.7223 -0.9646 -1.2027
 6672SOL     OW20914   1.695   1.135   6.093  0.1654  0.1910 -0.4696
 6672SOL    HW120915   1.661   1.212   6.148 -1.4622  0.0198 -1.1885
 6672SOL    HW220916   1.666   1.049   6.136 -1.4872  0.0554 -1.7333
 6673SOL     OW20917   5.618   2.995   3.922 -0.3737 -0.3730 -0.2955
 6673SOL    HW120918   5.590   3.091   3.917  1.1499  0.1320  0.2161
 6673SOL    HW220919   5.542   2.939   3.955 -1.2273  0.6771 -0.4415
 6674SOL     OW20920   0.531   2.203   5.945 -0.0409 -0.1645  0.2623
 6674SOL    HW120921   0.457   2.182   5.881 -1.1412  1.7839  0.8432
 6674SOL    HW220922   0.617   2.209   5.895 -0.5130 -0.8986 -0.6711
 6675SOL     OW20923   4.966   0.777   0.347 -0.0415 -0.9893 -0.1844
 6675SOL    HW120924   4.867   0.778   0.360  0.1274  0.7201  1.3512
 6675SOL    HW220925   4.992   0.849   0.282  0.2981 -0.6461  0.3313
 6676SOL     OW20926   2.327   2.763   4.146 -0.1721 -0.1896  0.4971
 6676SOL    HW120927   2.234   2.727   4.143  0.8808 -3.1117  0.3690
 6676SOL    HW220928   2.345   2.801   4.236 -1.9016  1.9022  0.0754
 6677SOL     OW20929   0.289   3.301   0.608  0.2162 -0.6531 -0.0115
 6677SOL    HW120930   0.361   3.347   0.556  0.5341 -1.0660  0.0501
 6677SOL    HW220931   0.208   3.358   0.611  0.1595 -0.6589 -1.0379
 6678SOL     OW20932   2.096   4.522   5.350  0.1035  0.1282 -0.4258
 6678SOL    HW120933   2.143   4.543   5.437  0.8289  0.2958 -0.8451
 6678SOL    HW220934   2.159   4.471   5.291 -0.5672 -0.4383 -0.6573
 6679SOL     OW20935   1.922   2.249   4.380 -0.8834 -0.4149 -0.2091
 6679SOL    HW120936   1.830   2.211   4.386 -0.6921 -1.3307 -2.1053
 6679SOL    HW220937   1.943   2.270   4.284  0.0888  1.8979  0.4344
 6680SOL     OW20938   6.913   6.112   1.098 -0.0239  0.2442  0.1964
 6680SOL    HW120939   7.001   6.145   1.063  0.6652 -1.1832  0.5060
 6680SOL    HW220940   6.848   6.102   1.023 -0.1304  1.8679  0.0451
 6681SOL     OW20941   4.359   5.587   0.302  0.1561 -0.4491 -0.1366
 6681SOL    HW120942   4.435   5.644   0.334  1.0601 -1.2334 -0.8328
 6681SOL    HW220943   4.394   5.498   0.272 -1.0965 -0.9856 -0.0727
 6682SOL     OW20944   1.805   5.150   5.078 -0.0239  0.1642  0.5128
 6682SOL    HW120945   1.808   5.228   5.016 -0.4195  0.4144  0.8016
 6682SOL    HW220946   1.823   5.182   5.171  0.1289 -0.1397  0.5877
 6683SOL     OW20947   0.393   0.271   6.836  0.0036 -0.1294  0.5090
 6683SOL    HW120948   0.373   0.174   6.849 -0.9433 -0.0725 -0.4003
 6683SOL    HW220949   0.492   0.285   6.836  0.1457 -1.0195  1.0910
 6684SOL     OW20950   2.486   6.810   6.894 -0.3889  0.3765 -1.3654
 6684SOL    HW120951   2.419   6.883   6.879 -0.2105  0.1646 -3.4993
 6684SOL    HW220952   2.493   6.753   6.812  2.0726  0.1134 -1.0572
 6685SOL     OW20953   3.690   4.114   2.943  0.6276 -0.3155  0.5267
 6685SOL    HW120954   3.592   4.131   2.937  0.6825 -0.6275 -1.8336
 6685SOL    HW220955   3.728   4.102   2.852  2.5591 -2.0259  1.4659
 6686SOL     OW20956   4.942   3.874   3.234  0.2716  0.0357  0.3081
 6686SOL    HW120957   4.901   3.835   3.151 -0.0897 -0.1807  0.5830
 6686SOL    HW220958   5.025   3.925   3.210  0.0984  0.0856 -0.2021
 6687SOL     OW20959   6.610   1.319   1.765 -0.1318 -0.3701  0.3362
 6687SOL    HW120960   6.585   1.232   1.722  1.6203 -1.0183  0.5674
 6687SOL    HW220961   6.632   1.305   1.861  0.3118  0.2923  0.3457
 6688SOL     OW20962   5.248   3.767   0.547  0.3335 -0.6002  0.0540
 6688SOL    HW120963   5.334   3.723   0.572  1.9853  1.5375 -1.5000
 6688SOL    HW220964   5.242   3.774   0.448 -0.2172  1.8320  0.2046
 6689SOL     OW20965   2.013   1.137   1.109  0.0754 -0.0274  0.0975
 6689SOL    HW120966   1.931   1.193   1.119 -0.0561 -0.2206  0.1166
 6689SOL    HW220967   2.086   1.174   1.166 -0.2328 -0.2996  0.6853
 6690SOL     OW20968   0.618   0.423   1.388 -0.1211  0.2515  0.6344
 6690SOL    HW120969   0.709   0.389   1.365 -1.1713 -3.4994  1.4487
 6690SOL    HW220970   0.615   0.446   1.485  0.5574  2.8970  0.1071
 6691SOL     OW20971   3.376   1.407   1.561  0.3344 -0.3841 -0.0612
 6691SOL    HW120972   3.435   1.459   1.624 -1.4823  1.3275  0.3070
 6691SOL    HW220973   3.281   1.415   1.590 -0.3725 -1.0351 -2.0449
 6692SOL     OW20974   3.772   1.190   3.593  0.7994  0.3044  0.5143
 6692SOL    HW120975   3.675   1.198   3.568  0.6134 -1.0576  0.7260
 6692SOL    HW220976   3.794   1.258   3.663 -0.0299  0.5547  0.5430
 6693SOL     OW20977   2.050   1.702   5.781  0.2506  0.1513 -0.3806
 6693SOL    HW120978   1.989   1.708   5.702  2.2839  2.7160 -1.9163
 6693SOL    HW220979   2.090   1.610   5.785 -2.0233 -0.9276 -0.5451
 6694SOL     OW20980   4.648   4.763   1.401  0.2339  0.2424  0.4701
 6694SOL    HW120981   4.596   4.843   1.370  0.1735  0.8509  2.0229
 6694SOL    HW220982   4.591   4.708   1.462  0.5266 -0.5956  0.0038
 6695SOL     OW20983   2.833   4.004   5.281 -0.7751 -0.2117 -0.1229
 6695SOL    HW120984   2.880   4.068   5.219 -0.6492  1.0644  1.2317
 6695SOL    HW220985   2.868   3.912   5.266  0.4106  0.3263 -0.8333
 6696SOL     OW20986   3.371   3.855   6.239 -0.2693  0.4308  0.0548
 6696SOL    HW120987   3.281   3.881   6.206 -0.1366  1.4353  0.4390
 6696SOL    HW220988   3.411   3.785   6.179 -0.7298  0.9746 -0.8974
 6697SOL     OW20989   5.773   2.447   3.080  0.3237  0.3554  0.2679
 6697SOL    HW120990   5.695   2.506   3.100  0.9987  1.5426 -0.5195
 6697SOL    HW220991   5.740   2.364   3.034 -0.6078  0.1620  1.2211
 6698SOL     OW20992   2.563   3.209   0.574  0.4130 -0.2580 -0.4726
 6698SOL    HW120993   2.506   3.271   0.520  1.0130  0.0942 -0.7086
 6698SOL    HW220994   2.505   3.158   0.639 -0.1577  0.1272 -0.6731
 6699SOL     OW20995   2.352   3.775   0.418  0.0128 -0.0415 -0.0035
 6699SOL    HW120996   2.299   3.720   0.353 -0.1089 -0.5898  0.5425
 6699SOL    HW220997   2.333   3.872   0.404 -0.2445 -0.1718 -0.5785
 6700SOL     OW20998   6.346   0.248   3.564  0.1428  0.2429  0.8509
 6700SOL    HW120999   6.413   0.315   3.536  0.5402 -0.3314  0.4112
 6700SOL    HW221000   6.309   0.201   3.484 -0.6059  0.3829  1.1029
 6701SOL     OW21001   5.809   0.164   0.182 -0.0889  0.3954  0.1715
 6701SOL    HW121002   5.755   0.163   0.099 -1.1111 -2.4282  0.7671
 6701SOL    HW221003   5.899   0.124   0.164  0.1861  1.0218  0.1408
 6702SOL     OW21004   6.092   2.351   1.428  0.1811 -0.5239 -0.7039
 6702SOL    HW121005   6.080   2.256   1.456  1.1898 -0.6792 -0.7702
 6702SOL    HW221006   6.136   2.402   1.502 -2.3234  0.4361  0.2093
 6703SOL     OW21007   6.364   2.857   0.213 -0.1114 -0.2622  0.5008
 6703SOL    HW121008   6.390   2.949   0.185  0.0621 -0.4780 -0.0470
 6703SOL    HW221009   6.391   2.791   0.143 -0.7235 -0.6689  0.6334
 6704SOL     OW21010   3.580   0.575   6.036 -0.5909  0.8669 -0.1026
 6704SOL    HW121011   3.572   0.674   6.035 -0.7506  0.9267 -3.5595
 6704SOL    HW221012   3.665   0.548   5.992 -2.4348 -0.4795 -3.1902
 6705SOL     OW21013   0.773   4.472   0.701  0.1942 -0.2482  0.3375
 6705SOL    HW121014   0.788   4.376   0.677 -2.9983 -1.6687  3.1761
 6705SOL    HW221015   0.796   4.485   0.798 -1.9677  1.1037  0.7265
 6706SOL     OW21016   1.281   6.334   6.925 -0.7220  0.5930 -0.3812
 6706SOL    HW121017   1.306   6.241   6.952  1.1360  1.0837 -0.2552
 6706SOL    HW221018   1.184   6.337   6.900 -0.7669 -1.4192 -0.6194
 6707SOL     OW21019   6.163   0.492   3.272 -0.6381 -0.2737  0.0631
 6707SOL    HW121020   6.136   0.436   3.351 -1.8101 -1.7182 -1.2900
 6707SOL    HW221021   6.090   0.491   3.204  0.0994  1.4298 -0.8117
 6708SOL     OW21022   6.243   3.767   1.953 -0.2152  0.6222 -0.2575
 6708SOL    HW121023   6.330   3.762   1.904 -1.0439 -1.1868 -1.6505
 6708SOL    HW221024   6.180   3.826   1.902 -0.2365  0.8877  0.0710
 6709SOL     OW21025   1.678   4.659   1.597 -0.2692 -0.0665  0.8701
 6709SOL    HW121026   1.686   4.564   1.624  2.7605 -0.2172 -0.1358
 6709SOL    HW221027   1.749   4.681   1.530 -3.1809  1.9583 -1.8854
 6710SOL     OW21028   4.541   2.587   1.508  0.4416 -0.5610  0.1334
 6710SOL    HW121029   4.531   2.683   1.479  0.4606  0.5796  3.4918
 6710SOL    HW221030   4.638   2.567   1.521  0.4346 -1.0372 -0.5465
 6711SOL     OW21031   4.107   4.312   5.548 -0.3187 -0.1142  0.0763
 6711SOL    HW121032   4.065   4.318   5.458 -1.0236  1.3465  0.4754
 6711SOL    HW221033   4.103   4.217   5.580  0.3072 -0.7406 -1.5660
 6712SOL     OW21034   5.910   4.324   1.419 -0.4631  0.4602  0.5879
 6712SOL    HW121035   5.822   4.358   1.388  0.2466  2.4285  0.5087
 6712SOL    HW221036   5.979   4.339   1.347 -0.1015 -1.2785  0.5444
 6713SOL     OW21037   1.769   4.567   4.430 -0.0860  0.2315 -0.4863
 6713SOL    HW121038   1.815   4.615   4.505  0.5128  0.1889 -0.8217
 6713SOL    HW221039   1.836   4.541   4.361 -0.5766 -0.0826 -0.8512
 6714SOL     OW21040   5.831   6.260   2.062 -0.1699 -0.0130  0.2503
 6714SOL    HW121041   5.796   6.166   2.064 -1.7959  0.5512 -0.0028
 6714SOL    HW221042   5.931   6.258   2.061 -0.1644 -1.7766 -0.9984
 6715SOL     OW21043   1.544   6.875   5.276 -0.0944  0.5908  0.2587
 6715SOL    HW121044   1.616   6.924   5.225 -0.9928  0.1266 -1.5229
 6715SOL    HW221045   1.578   6.784   5.301 -0.4274 -0.1034 -1.6568
 6716SOL     OW21046   6.671   4.442   2.571  0.1128 -0.2246  0.3033
 6716SOL    HW121047   6.723   4.383   2.509 -0.4005 -0.6690  0.2924
 6716SOL    HW221048   6.615   4.386   2.631 -0.7752  0.2701 -0.0521
 6717SOL     OW21049   6.273   2.977   5.364  0.1242  0.8106 -0.0129
 6717SOL    HW121050   6.275   2.898   5.303  0.6283  0.1409  0.8427
 6717SOL    HW221051   6.280   3.061   5.311  0.3015  0.2538 -0.8855
 6718SOL     OW21052   5.098   1.129   0.800  0.1305 -0.3124 -0.1659
 6718SOL    HW121053   5.020   1.190   0.788  0.6429  0.6794  1.2371
 6718SOL    HW221054   5.064   1.036   0.818 -0.6501 -0.5660 -2.6074
 6719SOL     OW21055   2.063   0.471   6.777 -0.0502 -0.5418 -0.3376
 6719SOL    HW121056   2.080   0.542   6.709 -0.4132  0.2249  0.3547
 6719SOL    HW221057   1.998   0.505   6.845 -0.3781 -1.6091 -0.0966
 6720SOL     OW21058   0.394   2.241   5.227 -0.1683  0.0878 -0.2061
 6720SOL    HW121059   0.402   2.259   5.129  0.0495  0.2000 -0.1697
 6720SOL    HW221060   0.322   2.174   5.243  1.2482 -1.6066 -0.6276
 6721SOL     OW21061   4.914   0.759   1.829  0.3643 -0.3766 -0.0773
 6721SOL    HW121062   4.857   0.774   1.748  0.2569  0.5933  0.1709
 6721SOL    HW221063   4.900   0.833   1.894  1.9121 -0.1208 -0.0129
 6722SOL     OW21064   4.269   3.734   6.844 -0.3327  0.2697  0.1170
 6722SOL    HW121065   4.212   3.696   6.771 -0.7083 -0.0772  0.5768
 6722SOL    HW221066   4.285   3.663   6.913 -0.5426  0.7809  0.6979
 6723SOL     OW21067   6.742   3.605   5.320  0.1317  0.0080 -0.2727
 6723SOL    HW121068   6.776   3.541   5.252  0.0638 -0.4951  0.1597
 6723SOL    HW221069   6.648   3.581   5.345  0.0309  0.4017 -0.2625
 6724SOL     OW21070   6.533   4.638   6.193  0.1511 -0.3701 -0.8478
 6724SOL    HW121071   6.525   4.733   6.224  0.2615 -0.8116  0.6051
 6724SOL    HW221072   6.480   4.579   6.254  0.6159 -1.3216 -1.3506
 6725SOL     OW21073   4.995   3.299   3.285  0.2452 -0.7807  0.1073
 6725SOL    HW121074   5.054   3.324   3.209  0.9431  0.8797  1.1456
 6725SOL    HW221075   4.969   3.381   3.336 -1.4290 -1.6911  0.7954
 6726SOL     OW21076   5.422   1.636   6.690 -0.2019  0.3662 -1.0786
 6726SOL    HW121077   5.406   1.726   6.730  2.2702  0.7812 -0.8788
 6726SOL    HW221078   5.470   1.645   6.603  0.0355 -0.7557 -1.0822
 6727SOL     OW21079   0.666   5.194   4.771  0.3018 -0.7976 -0.2686
 6727SOL    HW121080   0.684   5.276   4.716  1.7123 -2.4172 -2.3832
 6727SOL    HW221081   0.705   5.206   4.862  1.2162  0.5630 -0.8106
 6728SOL     OW21082   2.469   0.562   6.596 -0.5854  0.9365  0.4034
 6728SOL    HW121083   2.399   0.566   6.524 -1.2201 -0.0709  0.9319
 6728SOL    HW221084   2.425   0.546   6.684  0.1585  2.4728  1.0909
 6729SOL     OW21085   3.145   6.263   2.778 -0.2143  0.2775  0.0302
 6729SOL    HW121086   3.075   6.334   2.765  1.5417  2.4100  1.3798
 6729SOL    HW221087   3.171   6.260   2.875  2.1163  0.2101 -0.5271
 6730SOL     OW21088   0.569   2.446   1.966 -0.2297  0.0494  0.7315
 6730SOL    HW121089   0.633   2.513   1.928  1.5158 -1.4501  0.8799
 6730SOL    HW221090   0.552   2.467   2.062  0.6773  0.0282  0.9050
 6731SOL     OW21091   3.432   0.415   5.361 -0.5741 -0.4852 -0.2610
 6731SOL    HW121092   3.446   0.467   5.445 -0.2404 -0.5239 -0.2891
 6731SOL    HW221093   3.521   0.397   5.318 -0.6534 -1.3504 -0.0859
 6732SOL     OW21094   6.290   5.255   4.529 -0.0985  0.4255  0.5743
 6732SOL    HW121095   6.258   5.225   4.619  1.2577  0.7858  1.1983
 6732SOL    HW221096   6.384   5.224   4.515 -0.5550 -0.3244 -1.0706
 6733SOL     OW21097   5.530   4.960   6.655  0.0606  0.2771  0.0164
 6733SOL    HW121098   5.560   4.954   6.559  0.9286  0.6199  0.2543
 6733SOL    HW221099   5.578   4.891   6.709  0.7576  1.1074  0.4809
 6734SOL     OW21100   5.036   2.060   4.735  0.7112 -0.2507 -0.2269
 6734SOL    HW121101   5.005   2.004   4.812 -0.9872 -1.7468 -1.9165
 6734SOL    HW221102   5.136   2.060   4.733  0.8226  0.2278  2.2101
 6735SOL     OW21103   5.153   3.941   4.021  0.2929 -0.1878 -0.1426
 6735SOL    HW121104   5.187   4.035   4.023 -1.8510  0.6544 -0.5089
 6735SOL    HW221105   5.169   3.901   3.931 -0.3685  0.4828 -0.5707
 6736SOL     OW21106   3.782   2.846   1.069 -0.4284 -0.0544  0.1498
 6736SOL    HW121107   3.872   2.883   1.046 -0.7112  0.5326 -0.0355
 6736SOL    HW221108   3.780   2.749   1.046 -0.4226  0.3135 -1.5680
 6737SOL     OW21109   5.742   2.218   0.765 -0.0942 -0.1696 -0.3295
 6737SOL    HW121110   5.812   2.160   0.722 -1.4522 -0.8891 -1.6937
 6737SOL    HW221111   5.744   2.204   0.864  2.6040  0.9250 -0.1424
 6738SOL     OW21112   1.522   0.279   3.002 -0.5562 -0.2939 -0.0628
 6738SOL    HW121113   1.538   0.241   3.093  2.4664 -0.1421 -0.4005
 6738SOL    HW221114   1.590   0.242   2.939 -1.6435  0.7408 -1.9247
 6739SOL     OW21115   1.571   6.605   5.168  0.8017  0.3679 -0.9436
 6739SOL    HW121116   1.601   6.511   5.183 -2.7141 -1.0958 -2.0078
 6739SOL    HW221117   1.600   6.636   5.077  0.6647 -0.3190 -1.2274
 6740SOL     OW21118   6.350   1.153   1.707 -0.4129  0.6500 -0.4705
 6740SOL    HW121119   6.340   1.164   1.806  1.1712 -0.3185 -0.1538
 6740SOL    HW221120   6.266   1.115   1.669  0.7426 -4.7746  1.5230
 6741SOL     OW21121   1.887   2.038   0.905  0.7107  0.3142 -0.4550
 6741SOL    HW121122   1.946   1.993   0.838  1.3818  0.0211  0.3217
 6741SOL    HW221123   1.815   2.089   0.857  0.3595 -0.9884 -1.3643
 6742SOL     OW21124   5.404   4.950   0.979  0.5352 -0.1835  0.3554
 6742SOL    HW121125   5.341   4.873   0.980 -2.7195  2.2700 -0.1926
 6742SOL    HW221126   5.413   4.987   1.071 -0.2449  0.5059  0.1627
 6743SOL     OW21127   3.867   5.566   1.337  0.6534  0.2277 -0.2045
 6743SOL    HW121128   3.863   5.666   1.335 -0.2811  0.1903 -0.8738
 6743SOL    HW221129   3.782   5.530   1.374  0.2109 -0.3566 -1.6982
 6744SOL     OW21130   0.701   2.058   5.251  0.0245 -0.1703 -0.0729
 6744SOL    HW121131   0.671   2.093   5.162 -1.5151  0.7810  0.7700
 6744SOL    HW221132   0.779   1.998   5.239 -0.8003 -0.9001 -2.1854
 6745SOL     OW21133   0.419   3.620   6.101 -0.4146 -0.0187 -0.1787
 6745SOL    HW121134   0.320   3.619   6.091 -0.3310 -0.3388 -1.0233
 6745SOL    HW221135   0.456   3.531   6.074  0.0245 -0.2444  1.0751
 6746SOL     OW21136   1.388   1.765   1.775 -0.0682  0.3029 -0.1532
 6746SOL    HW121137   1.442   1.738   1.855  0.1995  2.2125  0.3534
 6746SOL    HW221138   1.351   1.857   1.789  0.0341  0.7172 -2.2558
 6747SOL     OW21139   0.262   4.300   5.831  0.2256 -0.3415 -0.4157
 6747SOL    HW121140   0.278   4.203   5.815  0.3204 -0.2344 -0.9852
 6747SOL    HW221141   0.292   4.353   5.751 -1.4076  0.0210 -0.8323
 6748SOL     OW21142   0.710   1.625   4.000  0.6567  0.4353 -0.1365
 6748SOL    HW121143   0.704   1.706   4.058 -1.5162 -0.0960  0.4465
 6748SOL    HW221144   0.718   1.543   4.057 -0.0109  0.0178 -0.6301
 6749SOL     OW21145   3.899   5.660   4.513  0.0255  0.3067 -0.4693
 6749SOL    HW121146   3.850   5.599   4.575  0.7466 -1.4634 -1.5802
 6749SOL    HW221147   3.857   5.658   4.423 -0.0394  1.6133 -0.4879
 6750SOL     OW21148   4.242   6.000   4.715  0.4337  0.4578 -0.2755
 6750SOL    HW121149   4.246   5.928   4.784 -1.0089  0.6414  0.0230
 6750SOL    HW221150   4.334   6.013   4.675  2.0350  2.2926  3.5520
 6751SOL     OW21151   3.915   1.074   4.897 -0.1200  0.2708 -0.0426
 6751SOL    HW121152   3.937   1.069   4.994  1.2570 -1.4801 -0.4005
 6751SOL    HW221153   3.816   1.063   4.884 -0.1160 -1.3754  1.0617
 6752SOL     OW21154   3.185   6.949   3.663  0.0553 -0.1745  0.7376
 6752SOL    HW121155   3.148   7.038   3.637 -0.3783 -1.3518 -3.4264
 6752SOL    HW221156   3.111   6.888   3.691 -0.1604 -0.1877  0.1654
 6753SOL     OW21157   3.543   3.103   6.743 -0.5314  0.5099 -0.0276
 6753SOL    HW121158   3.460   3.116   6.797 -1.1457 -0.3863 -0.7373
 6753SOL    HW221159   3.577   3.010   6.757 -1.2968 -0.1004 -1.9770
 6754SOL     OW21160   4.817   6.683   1.527 -0.5331 -0.1091  0.2265
 6754SOL    HW121161   4.845   6.603   1.580  0.7126 -1.0106 -1.6721
 6754SOL    HW221162   4.782   6.753   1.588 -1.0453 -1.8389  2.0171
 6755SOL     OW21163   5.850   5.232   3.664  0.4867  0.9011 -0.3953
 6755SOL    HW121164   5.915   5.257   3.592  1.2266 -0.0911 -0.0971
 6755SOL    HW221165   5.892   5.250   3.753 -0.0909  1.2989 -0.1978
 6756SOL     OW21166   2.512   2.050   5.750 -0.3457 -0.8543  0.0514
 6756SOL    HW121167   2.560   2.037   5.837 -2.0859  0.8475  1.3432
 6756SOL    HW221168   2.423   2.004   5.754 -1.2195  0.7464 -0.0847
 6757SOL     OW21169   4.454   5.895   1.596  0.7251 -0.0472  0.4695
 6757SOL    HW121170   4.415   5.841   1.670  0.9353  0.8711  1.2711
 6757SOL    HW221171   4.526   5.954   1.632 -1.1724  2.6559  0.1789
 6758SOL     OW21172   6.051   4.483   2.945  0.5752 -0.0653 -0.4490
 6758SOL    HW121173   6.119   4.478   2.871  1.5873 -0.8177  0.5103
 6758SOL    HW221174   5.963   4.448   2.911  0.8024  0.3778 -1.5352
 6759SOL     OW21175   6.063   2.941   1.890  0.3730  0.0455 -0.2768
 6759SOL    HW121176   6.048   3.021   1.948  0.1616 -0.6325  0.6267
 6759SOL    HW221177   6.044   2.965   1.795  0.8855  1.2210 -0.0957
 6760SOL     OW21178   5.321   3.550   6.731  0.4280  0.6220 -0.2363
 6760SOL    HW121179   5.230   3.594   6.733 -0.2298 -0.6691 -0.8420
 6760SOL    HW221180   5.355   3.550   6.637  0.3154 -0.3646 -0.2797
 6761SOL     OW21181   1.919   0.677   3.788 -0.3745 -0.0610 -0.0584
 6761SOL    HW121182   1.878   0.721   3.709  0.4546  0.3272 -0.2865
 6761SOL    HW221183   1.856   0.609   3.825 -1.0922  0.3198 -0.5621
 6762SOL     OW21184   4.276   6.220   4.154 -0.1340 -0.0845 -0.0849
 6762SOL    HW121185   4.362   6.207   4.104 -0.1588 -1.9487  0.2913
 6762SOL    HW221186   4.257   6.318   4.162  3.3170  0.5675  2.0734
 6763SOL     OW21187   5.244   6.317   4.339 -0.5344 -0.0475 -0.2243
 6763SOL    HW121188   5.290   6.259   4.273 -2.5261 -0.7568 -1.0511
 6763SOL    HW221189   5.308   6.387   4.372  1.1039 -0.9931 -1.2708
 6764SOL     OW21190   0.131   5.186   1.691  0.9076 -0.2893  0.4011
 6764SOL    HW121191   0.120   5.283   1.712  0.7155  0.0423 -1.0913
 6764SOL    HW221192   0.159   5.136   1.773 -0.9807  0.6838  1.6875
 6765SOL     OW21193   0.293   4.406   3.630 -0.2937 -0.2261  0.1534
 6765SOL    HW121194   0.280   4.483   3.568 -0.1767  0.1686  0.6103
 6765SOL    HW221195   0.390   4.400   3.656 -0.3466 -0.3656  0.3219
 6766SOL     OW21196   4.848   6.242   3.101 -0.0507  0.3384 -0.5054
 6766SOL    HW121197   4.750   6.230   3.083 -0.5656  1.4920  1.2743
 6766SOL    HW221198   4.862   6.256   3.199  2.1534 -1.9037 -0.4209
 6767SOL     OW21199   2.908   0.507   3.227  0.1857 -0.4162  0.1382
 6767SOL    HW121200   2.828   0.482   3.282  0.0354  0.5388  0.3684
 6767SOL    HW221201   2.954   0.586   3.268  0.0971  0.2866 -1.0824
 6768SOL     OW21202   2.092   6.085   6.565  0.0408 -0.6449  0.1164
 6768SOL    HW121203   2.031   6.089   6.645  1.6700 -2.1009  1.5115
 6768SOL    HW221204   2.093   5.992   6.529  0.1704 -0.2431 -0.9534
 6769SOL     OW21205   5.213   4.767   1.644 -0.1012  0.0325 -0.0568
 6769SOL    HW121206   5.247   4.673   1.652  0.6643  0.2348 -0.7643
 6769SOL    HW221207   5.145   4.784   1.715 -2.6401 -2.0652 -1.7636
 6770SOL     OW21208   6.396   1.554   1.351  0.1466  0.8683  0.0905
 6770SOL    HW121209   6.370   1.647   1.323 -1.8416  0.2123 -0.4780
 6770SOL    HW221210   6.485   1.556   1.395 -0.4160  3.2572  1.3167
 6771SOL     OW21211   5.189   2.359   4.447 -0.0506 -0.0948  0.4641
 6771SOL    HW121212   5.265   2.358   4.512 -1.1707  0.7773  1.8202
 6771SOL    HW221213   5.194   2.442   4.392 -0.2794  0.1985  0.8803
 6772SOL     OW21214   4.782   2.741   5.420 -0.1814  0.0277  0.7378
 6772SOL    HW121215   4.743   2.833   5.409 -2.9676 -0.9204  1.8532
 6772SOL    HW221216   4.803   2.703   5.330 -0.5716  1.1148  0.1652
 6773SOL     OW21217   6.507   5.062   1.811  0.1643 -0.2154 -0.2443
 6773SOL    HW121218   6.438   5.025   1.749  0.2027  1.1822 -1.1690
 6773SOL    HW221219   6.497   5.021   1.901 -0.5166 -1.5791 -0.9223
 6774SOL     OW21220   0.947   3.123   6.313  0.0640 -0.0499 -0.2703
 6774SOL    HW121221   0.986   3.208   6.278  0.6490 -0.3916 -0.4562
 6774SOL    HW221222   0.864   3.101   6.261 -0.1955  0.4975 -0.0985
 6775SOL     OW21223   6.656   3.711   6.084  0.2567 -0.0965  0.2189
 6775SOL    HW121224   6.721   3.725   6.159 -0.4237 -1.8198  1.1826
 6775SOL    HW221225   6.563   3.716   6.119 -0.0644 -1.3843 -0.3967
 6776SOL     OW21226   5.722   6.885   6.175 -0.0932  0.1827  0.4758
 6776SOL    HW121227   5.820   6.868   6.161  0.0721  1.1951  0.3587
 6776SOL    HW221228   5.706   6.911   6.270 -0.4224 -1.0802  0.7902
 6777SOL     OW21229   4.675   2.229   0.145  0.1773 -0.4071  0.3299
 6777SOL    HW121230   4.581   2.222   0.178  0.4972 -0.2322  1.3043
 6777SOL    HW221231   4.733   2.270   0.216  0.9345 -0.2418 -0.3654
 6778SOL     OW21232   6.411   1.056   3.923  0.5158  0.1309 -0.0090
 6778SOL    HW121233   6.460   1.131   3.879  1.0515 -0.3952 -0.3295
 6778SOL    HW221234   6.395   1.078   4.019 -0.9047  1.4118 -0.5099
 6779SOL     OW21235   5.796   4.775   5.325 -0.0047 -0.7881 -0.8222
 6779SOL    HW121236   5.857   4.851   5.303  0.7843 -0.8902  0.8642
 6779SOL    HW221237   5.841   4.689   5.303 -0.8018 -0.8330 -2.4936
 6780SOL     OW21238   2.008   4.793   2.224 -0.1242  0.3879 -1.0524
 6780SOL    HW121239   1.953   4.869   2.189 -1.4946 -0.3070 -0.4445
 6780SOL    HW221240   1.957   4.707   2.215 -0.7607  0.1749  2.9207
 6781SOL     OW21241   5.481   3.325   5.167 -0.0808 -0.0679 -0.5535
 6781SOL    HW121242   5.506   3.422   5.162 -0.6606  0.0327 -2.4142
 6781SOL    HW221243   5.462   3.292   5.075 -2.7986 -1.1894  0.3308
 6782SOL     OW21244   6.423   1.548   2.909  0.2496 -0.6351 -0.0596
 6782SOL    HW121245   6.378   1.581   2.991  0.5256 -2.7629  1.0142
 6782SOL    HW221246   6.518   1.581   2.907 -0.2230  0.7656 -0.4055
 6783SOL     OW21247   1.569   5.274   5.728 -0.5327  0.6502  0.1458
 6783SOL    HW121248   1.600   5.180   5.739 -1.0059  0.6701  2.2329
 6783SOL    HW221249   1.517   5.283   5.643  0.1323 -0.7808 -0.4417
 6784SOL     OW21250   2.633   4.654   6.405 -0.1279 -0.1328 -0.0289
 6784SOL    HW121251   2.595   4.722   6.343  2.2504  0.7038 -0.6822
 6784SOL    HW221252   2.703   4.600   6.358  0.5388 -0.6307  1.4587
 6785SOL     OW21253   6.740   5.728   2.850 -0.1716  0.3280  0.1146
 6785SOL    HW121254   6.774   5.803   2.907 -2.4445  1.1039  0.5502
 6785SOL    HW221255   6.655   5.757   2.804 -0.4840 -1.6106 -0.5999
 6786SOL     OW21256   0.809   2.996   3.824  0.0111 -0.7369 -0.1469
 6786SOL    HW121257   0.829   2.898   3.833 -1.2240 -1.1015 -1.1681
 6786SOL    HW221258   0.831   3.026   3.731  0.0996 -0.0927  0.0732
 6787SOL     OW21259   6.415   4.783   0.754 -0.2435  0.4107 -0.8458
 6787SOL    HW121260   6.466   4.867   0.739  0.4926  0.2041  0.3561
 6787SOL    HW221261   6.330   4.804   0.802 -0.9042  0.6481 -2.0678
 6788SOL     OW21262   3.024   5.530   0.099 -0.1732  0.3407  0.7224
 6788SOL    HW121263   3.071   5.477   0.170  0.8350  0.8680  0.4647
 6788SOL    HW221264   2.929   5.546   0.127 -0.4497 -1.3765  0.9209
 6789SOL     OW21265   2.558   6.382   2.587  0.1321  0.1295 -0.1646
 6789SOL    HW121266   2.562   6.479   2.562 -0.7577  0.3147  0.3659
 6789SOL    HW221267   2.582   6.326   2.508 -0.8754  0.7497 -0.9215
 6790SOL     OW21268   2.730   2.363   3.497 -0.0863 -0.1132 -0.6269
 6790SOL    HW121269   2.727   2.318   3.408 -0.7484  1.1319 -1.2710
 6790SOL    HW221270   2.649   2.420   3.508  1.0324  1.4651 -0.1823
 6791SOL     OW21271   6.455   5.984   5.028  0.7929  0.2644  0.4835
 6791SOL    HW121272   6.410   6.014   4.944  2.2793  0.0548 -0.4179
 6791SOL    HW221273   6.524   6.051   5.054  1.8613 -0.7413  0.2967
 6792SOL     OW21274   1.943   3.246   1.870  0.0059  0.2266 -0.3300
 6792SOL    HW121275   1.966   3.328   1.818 -0.5999  0.0828 -0.8363
 6792SOL    HW221276   1.865   3.265   1.930 -0.2280 -0.0163 -0.5544
 6793SOL     OW21277   5.467   3.351   2.223 -0.4475  0.0820  0.5049
 6793SOL    HW121278   5.526   3.271   2.232 -1.2666 -0.6500 -0.3302
 6793SOL    HW221279   5.445   3.387   2.313 -1.2170 -1.5226  0.9896
 6794SOL     OW21280   3.197   0.927   4.745  0.4401 -0.1276 -0.0613
 6794SOL    HW121281   3.131   0.859   4.775 -0.3041 -0.4881 -2.3403
 6794SOL    HW221282   3.276   0.927   4.808 -1.0614 -0.6378  1.9225
 6795SOL     OW21283   2.832   5.070   5.255 -0.1081  0.3082 -0.7736
 6795SOL    HW121284   2.873   4.982   5.281 -0.1436  0.5235  0.0606
 6795SOL    HW221285   2.776   5.058   5.173 -0.8748 -0.6708 -0.1358
 6796SOL     OW21286   3.990   1.621   2.988  0.0476  0.4240 -0.1196
 6796SOL    HW121287   3.971   1.713   3.022 -0.7335 -0.1248  0.9533
 6796SOL    HW221288   3.944   1.553   3.045  2.1134 -0.7639  0.2424
 6797SOL     OW21289   6.628   0.771   2.541 -0.3994  0.3976 -0.8553
 6797SOL    HW121290   6.639   0.869   2.556 -1.2262  0.4952 -0.8695
 6797SOL    HW221291   6.553   0.755   2.478 -0.3761 -0.2528 -0.7256
 6798SOL     OW21292   0.821   5.983   4.621 -0.5707  0.5186 -0.2828
 6798SOL    HW121293   0.859   5.947   4.706 -2.6365 -1.8003 -0.2111
 6798SOL    HW221294   0.860   5.934   4.543  0.1478  1.5460 -0.5933
 6799SOL     OW21295   5.335   5.940   0.759 -0.0829 -0.2294 -0.8126
 6799SOL    HW121296   5.236   5.950   0.770 -0.0013 -0.5754  0.3005
 6799SOL    HW221297   5.381   6.019   0.799  0.1528 -0.7594 -0.0322
 6800SOL     OW21298   1.702   4.936   6.311 -0.0220 -0.0623 -0.2514
 6800SOL    HW121299   1.608   4.907   6.332  0.2621 -1.2079 -0.4994
 6800SOL    HW221300   1.701   4.994   6.229 -0.4257 -0.6867 -0.6958
 6801SOL     OW21301   5.397   0.567   2.152  0.0896  0.2473 -0.6679
 6801SOL    HW121302   5.465   0.515   2.100  0.1260  0.4478 -0.8214
 6801SOL    HW221303   5.396   0.534   2.246 -0.6388 -0.7647 -1.0074
 6802SOL     OW21304   3.708   5.523   3.846 -0.1653  0.2025 -0.5314
 6802SOL    HW121305   3.666   5.539   3.756 -0.9104  0.5381 -0.1349
 6802SOL    HW221306   3.798   5.480   3.834 -0.2971  0.1590 -1.4303
 6803SOL     OW21307   3.859   2.389   6.764 -0.5413 -0.2823 -0.1723
 6803SOL    HW121308   3.832   2.362   6.672 -0.8774  1.1836 -0.5247
 6803SOL    HW221309   3.806   2.336   6.831 -0.2624 -1.3876 -0.8044
 6804SOL     OW21310   1.975   5.722   3.066 -0.1838  0.1948 -0.3175
 6804SOL    HW121311   1.989   5.720   3.165 -0.1638  1.1395 -0.2950
 6804SOL    HW221312   1.937   5.810   3.039  2.4400  1.0728 -1.4658
 6805SOL     OW21313   2.734   1.073   6.634  0.0904  0.0172 -0.0749
 6805SOL    HW121314   2.707   1.140   6.703 -1.8601  0.1766 -0.9392
 6805SOL    HW221315   2.822   1.033   6.660 -0.9008 -0.5222  2.9629
 6806SOL     OW21316   6.216   6.304   4.136  0.4097 -0.4380 -0.3113
 6806SOL    HW121317   6.307   6.264   4.124 -0.3438 -1.9625 -1.2664
 6806SOL    HW221318   6.225   6.403   4.147  2.2290 -0.6415  0.4641
 6807SOL     OW21319   2.795   2.703   6.717  0.4703  0.3188  0.2275
 6807SOL    HW121320   2.766   2.620   6.669 -0.1616  0.0625  1.0344
 6807SOL    HW221321   2.808   2.682   6.814  0.6289  1.0945  0.3770
 6808SOL     OW21322   2.472   4.459   3.440 -0.5186  0.0068 -0.4081
 6808SOL    HW121323   2.489   4.479   3.537  0.4127 -0.4275 -0.4764
 6808SOL    HW221324   2.518   4.527   3.383  0.2277 -0.6217 -0.5719
 6809SOL     OW21325   0.150   3.450   6.809  0.6037  0.0576  0.3084
 6809SOL    HW121326   0.220   3.379   6.806  1.2754  0.7391 -1.4871
 6809SOL    HW221327   0.177   3.526   6.750 -2.1959 -0.1928 -1.4824
 6810SOL     OW21328   6.963   0.929   2.862 -0.1795  0.6611 -0.2160
 6810SOL    HW121329   6.924   0.839   2.848 -1.0485  0.8947  0.5954
 6810SOL    HW221330   6.968   0.949   2.960  0.5615  1.2554 -0.3588
 6811SOL     OW21331   5.662   6.023   1.800  0.4941  0.3822 -0.5839
 6811SOL    HW121332   5.757   6.044   1.824  0.1265  0.8440  0.5620
 6811SOL    HW221333   5.646   6.045   1.704  1.1986  1.5721 -0.4542
 6812SOL     OW21334   3.901   3.366   2.399 -0.4995 -0.0325  0.1488
 6812SOL    HW121335   3.904   3.397   2.304  1.0277 -0.1158  0.1525
 6812SOL    HW221336   3.808   3.376   2.434 -1.9456 -2.9226 -2.3351
 6813SOL     OW21337   5.139   4.243   0.357  0.7701 -0.0832 -0.3713
 6813SOL    HW121338   5.192   4.163   0.327 -0.3474 -0.4493 -1.4835
 6813SOL    HW221339   5.069   4.263   0.288 -0.9830 -0.0451  1.3649
 6814SOL     OW21340   2.551   1.590   6.821 -0.1363 -0.6715 -0.6420
 6814SOL    HW121341   2.482   1.656   6.848 -0.4032 -0.9150 -0.7308
 6814SOL    HW221342   2.617   1.633   6.760 -0.2702 -0.4683 -0.6422
 6815SOL     OW21343   3.222   0.995   1.167 -0.4025  0.1977 -0.1745
 6815SOL    HW121344   3.148   1.049   1.207 -2.0828 -2.9438  1.3748
 6815SOL    HW221345   3.185   0.939   1.092  0.8098 -0.1995 -0.4897
 6816SOL     OW21346   6.685   4.935   2.398 -0.4149  1.1881 -0.0683
 6816SOL    HW121347   6.590   4.909   2.416 -0.1758  0.7125  0.5586
 6816SOL    HW221348   6.739   4.920   2.481  0.9207 -1.7941 -1.3321
 6817SOL     OW21349   0.559   2.304   5.423  0.5964 -0.3074 -0.5900
 6817SOL    HW121350   0.490   2.280   5.355  2.1033 -1.3902 -1.8408
 6817SOL    HW221351   0.589   2.221   5.470  0.2540  0.3060  0.7305
 6818SOL     OW21352   4.857   5.831   6.748 -0.2758 -0.5070 -0.6117
 6818SOL    HW121353   4.769   5.790   6.722 -1.3079  1.7673 -0.9219
 6818SOL    HW221354   4.883   5.899   6.680  0.8378  0.1325  0.4244
 6819SOL     OW21355   2.745   3.699   5.940 -0.1263  0.3693 -0.0281
 6819SOL    HW121356   2.782   3.701   5.847 -0.4265 -0.2791 -0.1706
 6819SOL    HW221357   2.710   3.607   5.960 -0.0587  0.5015  0.7296
 6820SOL     OW21358   0.480   2.792   3.257  0.0161  0.2345  0.4674
 6820SOL    HW121359   0.498   2.807   3.160  1.3396  1.5017  0.8782
 6820SOL    HW221360   0.407   2.854   3.287 -1.0037 -0.7580  0.1241
 6821SOL     OW21361   2.055   1.697   3.607 -0.1908  0.2605 -0.4754
 6821SOL    HW121362   2.053   1.609   3.655 -2.3730  0.2328 -0.5069
 6821SOL    HW221363   2.100   1.685   3.518 -1.8307 -1.2622 -1.1832
 6822SOL     OW21364   4.279   3.590   5.731 -0.0186  0.0420 -0.1383
 6822SOL    HW121365   4.194   3.566   5.684 -0.9457  0.4470  1.2759
 6822SOL    HW221366   4.285   3.540   5.817  1.4164 -0.3348 -0.4382
 6823SOL     OW21367   3.287   3.035   1.876 -0.3059  0.1569 -0.3745
 6823SOL    HW121368   3.349   3.005   1.803  0.5930  1.0947 -0.0242
 6823SOL    HW221369   3.210   2.972   1.883 -0.1606 -0.2129 -1.8198
 6824SOL     OW21370   1.053   5.425   5.027  0.1554  0.1321  0.1076
 6824SOL    HW121371   1.060   5.507   5.084  1.0856 -0.0754  0.3132
 6824SOL    HW221372   0.959   5.414   4.995 -0.2033  0.7095  0.9260
 6825SOL     OW21373   4.560   2.229   2.902 -0.4105 -0.3704 -0.0802
 6825SOL    HW121374   4.561   2.296   2.976  0.1715  0.2931 -0.6723
 6825SOL    HW221375   4.594   2.271   2.818 -1.6506 -0.9181 -0.9036
 6826SOL     OW21376   0.743   3.510   2.386 -0.3008 -0.0843 -0.2316
 6826SOL    HW121377   0.682   3.441   2.347 -1.7317  0.0268  1.6552
 6826SOL    HW221378   0.819   3.465   2.433  0.9141 -0.2311 -2.2206
 6827SOL     OW21379   5.144   5.691   5.234 -0.2755 -0.0173 -0.5172
 6827SOL    HW121380   5.093   5.758   5.289  0.6252 -0.4856  0.9386
 6827SOL    HW221381   5.091   5.607   5.227 -0.3354 -0.0001 -0.2690
 6828SOL     OW21382   1.889   3.863   0.741  0.4060 -0.4539  0.1548
 6828SOL    HW121383   1.980   3.904   0.745  0.5476 -0.6588 -0.7160
 6828SOL    HW221384   1.865   3.845   0.645 -0.9867  0.5705  0.2796
 6829SOL     OW21385   0.122   5.179   4.197 -0.2238 -0.0996 -0.0431
 6829SOL    HW121386   0.158   5.086   4.188  0.9609  0.2988  0.4152
 6829SOL    HW221387   0.198   5.244   4.203 -1.0349  0.8467  0.2266
 6830SOL     OW21388   4.832   1.743   3.691  0.2259  0.3792  0.6392
 6830SOL    HW121389   4.804   1.708   3.602  0.8693 -2.9185  1.6027
 6830SOL    HW221390   4.925   1.712   3.711 -0.8519 -1.3899  3.5373
 6831SOL     OW21391   1.391   1.280   0.427  0.5885 -0.0702 -0.4859
 6831SOL    HW121392   1.468   1.247   0.481 -0.5117 -0.1694  1.1115
 6831SOL    HW221393   1.351   1.360   0.472 -0.6626 -0.4431 -0.8875
 6832SOL     OW21394   2.990   3.889   0.428 -0.0919  0.1534 -0.7196
 6832SOL    HW121395   3.014   3.952   0.502 -2.3446  0.2985 -0.0383
 6832SOL    HW221396   2.959   3.802   0.467  0.0801 -0.2962 -1.5538
 6833SOL     OW21397   5.332   5.133   0.785 -0.1345 -0.0227  0.5054
 6833SOL    HW121398   5.306   5.093   0.697  0.8255 -0.8318  0.5614
 6833SOL    HW221399   5.336   5.061   0.854 -0.8428  0.6027  1.2100
 6834SOL     OW21400   4.181   4.689   2.149 -0.2272 -0.2762  0.6180
 6834SOL    HW121401   4.184   4.673   2.247  2.5276 -0.6996  0.5471
 6834SOL    HW221402   4.254   4.637   2.104 -0.0379  1.5613 -1.3799
 6835SOL     OW21403   2.629   0.126   5.705 -0.1685  0.2483  0.0077
 6835SOL    HW121404   2.530   0.118   5.696 -0.0760 -0.2605 -0.6005
 6835SOL    HW221405   2.655   0.108   5.800 -0.2683 -3.9721 -0.6063
 6836SOL     OW21406   3.758   3.554   6.119 -0.0492  0.5632  0.3631
 6836SOL    HW121407   3.803   3.549   6.030  0.6293  2.7072  0.5377
 6836SOL    HW221408   3.827   3.562   6.191 -0.6277  0.0328  0.9937
 6837SOL     OW21409   0.841   2.368   5.204  0.2781  0.4178 -0.7225
 6837SOL    HW121410   0.799   2.288   5.161 -1.2108  0.8703 -0.1639
 6837SOL    HW221411   0.773   2.418   5.257  1.4294  1.4582 -0.1486
 6838SOL     OW21412   2.700   1.267   6.808  0.0636  0.0795  0.4131
 6838SOL    HW121413   2.742   1.322   6.736 -0.6850 -0.3299 -0.3552
 6838SOL    HW221414   2.609   1.304   6.828 -0.0810 -0.3414  0.5271
 6839SOL     OW21415   4.251   1.039   2.055  0.2621 -0.3880  0.0324
 6839SOL    HW121416   4.207   1.051   1.966  0.1362 -1.6119 -0.0821
 6839SOL    HW221417   4.316   0.964   2.051  2.2270  1.1983  0.2771
 6840SOL     OW21418   1.224   1.086   6.171 -0.6242  0.7351  0.2221
 6840SOL    HW121419   1.184   1.083   6.262  0.6125 -0.3255  0.7727
 6840SOL    HW221420   1.168   1.034   6.107 -1.1333  0.8968  0.5375
 6841SOL     OW21421   0.091   3.716   5.730 -0.1303 -0.5260 -0.0712
 6841SOL    HW121422   0.056   3.690   5.640 -0.2897 -1.2512  0.1850
 6841SOL    HW221423   0.191   3.719   5.728 -0.0656 -1.8227  0.0361
 6842SOL     OW21424   3.474   5.419   3.304 -0.0628  0.2114 -0.3894
 6842SOL    HW121425   3.485   5.360   3.225  0.4314  1.0195 -0.9440
 6842SOL    HW221426   3.543   5.492   3.301 -0.5381  0.7077  0.3665
 6843SOL     OW21427   4.180   0.163   6.872  0.4223 -0.6682 -0.1771
 6843SOL    HW121428   4.177   0.262   6.854  1.7361 -0.7696 -1.1014
 6843SOL    HW221429   4.203   0.148   6.968  1.4318 -0.0667 -0.3143
 6844SOL     OW21430   5.167   0.481   4.407 -0.5318 -0.2083  0.0987
 6844SOL    HW121431   5.079   0.504   4.450 -0.4843 -0.3933  0.2982
 6844SOL    HW221432   5.223   0.563   4.399 -0.5282 -0.1753  0.4218
 6845SOL     OW21433   5.823   2.025   2.040  0.0183  0.1044 -0.0889
 6845SOL    HW121434   5.838   2.009   2.137  2.1544 -0.4009 -0.4574
 6845SOL    HW221435   5.890   1.974   1.986  0.9368  2.7715 -1.6888
 6846SOL     OW21436   4.388   3.407   6.632  0.1163  0.6592 -1.1013
 6846SOL    HW121437   4.384   3.384   6.730 -1.5436 -1.4729 -1.5931
 6846SOL    HW221438   4.472   3.458   6.613  0.6984  0.7368  1.3400
 6847SOL     OW21439   5.954   1.860   4.898  0.1098 -0.0453 -0.1858
 6847SOL    HW121440   6.042   1.895   4.930 -0.6253  1.1693  0.5831
 6847SOL    HW221441   5.883   1.883   4.965 -1.2178  1.2025 -1.9239
 6848SOL     OW21442   0.655   4.564   4.753  0.5370  0.4040 -0.1808
 6848SOL    HW121443   0.569   4.517   4.769  0.2172  1.1234  0.2591
 6848SOL    HW221444   0.728   4.522   4.807  0.5844 -0.5323 -0.9452
 6849SOL     OW21445   1.337   2.876   4.725  0.0099 -0.6437 -0.3522
 6849SOL    HW121446   1.327   2.897   4.628 -1.1921 -0.2365 -0.1584
 6849SOL    HW221447   1.351   2.777   4.736  2.2557 -0.4571 -1.0398
 6850SOL     OW21448   5.347   0.632   3.998 -0.0771 -0.0287  0.6283
 6850SOL    HW121449   5.407   0.709   4.019  0.8725 -0.7638  0.6837
 6850SOL    HW221450   5.402   0.549   3.986 -1.0579 -0.6582  0.3474
 6851SOL     OW21451   2.138   3.859   2.262  0.0678 -0.2126  0.2278
 6851SOL    HW121452   2.121   3.776   2.208 -0.8658 -0.3137  0.6572
 6851SOL    HW221453   2.189   3.925   2.206 -0.5673 -0.4474 -0.6572
 6852SOL     OW21454   3.400   2.326   1.586 -0.9601  0.5795 -0.1359
 6852SOL    HW121455   3.493   2.289   1.587 -0.5253  1.6339 -0.3350
 6852SOL    HW221456   3.337   2.259   1.625  0.0177  0.2167  0.8650
 6853SOL     OW21457   2.621   4.859   6.608 -0.3049  0.0223  0.1030
 6853SOL    HW121458   2.596   4.781   6.550 -5.3665  1.8916 -0.7524
 6853SOL    HW221459   2.655   4.933   6.551 -3.1777  1.0874 -0.3629
 6854SOL     OW21460   3.486   6.056   6.471  0.2644  0.0825 -0.2627
 6854SOL    HW121461   3.562   6.102   6.517  1.2285 -0.9985 -0.7422
 6854SOL    HW221462   3.520   6.003   6.394 -0.7703 -1.5863  0.3622
 6855SOL     OW21463   4.141   6.443   3.286  0.7754  0.3637 -0.6719
 6855SOL    HW121464   4.053   6.438   3.238  0.9388 -2.3890 -0.8471
 6855SOL    HW221465   4.124   6.447   3.384  0.4424  0.6136 -0.7370
 6856SOL     OW21466   6.349   2.637   0.977  0.4537  0.0399 -0.1051
 6856SOL    HW121467   6.403   2.575   1.034 -0.0617  1.2799  1.8319
 6856SOL    HW221468   6.410   2.686   0.915  1.1075 -0.9928 -0.2973
 6857SOL     OW21469   1.242   4.186   6.384  0.0087  0.2483 -0.3608
 6857SOL    HW121470   1.292   4.193   6.470  0.3354 -0.3930 -0.4949
 6857SOL    HW221471   1.149   4.221   6.397 -0.4459 -1.2411  0.6754
 6858SOL     OW21472   2.078   5.079   1.030 -0.7137 -0.4033  0.3220
 6858SOL    HW121473   2.023   5.071   1.114 -0.1156  0.7718  0.8595
 6858SOL    HW221474   2.172   5.051   1.049  0.2517  2.8255  1.0052
 6859SOL     OW21475   2.538   1.942   0.847  0.1906 -0.0502  0.4782
 6859SOL    HW121476   2.562   2.020   0.789 -0.9743 -0.4900 -0.6459
 6859SOL    HW221477   2.621   1.902   0.886  0.8641  1.2097  0.3798
 6860SOL     OW21478   6.243   1.077   1.046  0.5804  0.4188  0.3333
 6860SOL    HW121479   6.302   1.135   1.101  0.9332  0.6511 -0.2713
 6860SOL    HW221480   6.208   1.002   1.101  0.1819  1.1563  1.1098
 6861SOL     OW21481   5.649   2.403   5.559  0.1738  0.6960 -0.0665
 6861SOL    HW121482   5.737   2.417   5.515  0.3334  0.5648  0.2142
 6861SOL    HW221483   5.576   2.440   5.500  0.3423  0.0787 -0.6670
 6862SOL     OW21484   0.616   4.010   3.003  0.2104  0.2078  0.0296
 6862SOL    HW121485   0.687   3.998   2.933 -0.3490  2.5133 -1.0089
 6862SOL    HW221486   0.637   3.951   3.081  2.8529  0.2308 -0.5577
 6863SOL     OW21487   3.837   0.608   4.617  0.3108  0.0919 -0.4804
 6863SOL    HW121488   3.890   0.593   4.534  0.1538 -0.9162 -0.4120
 6863SOL    HW221489   3.744   0.572   4.605  0.0723  0.5608 -0.1051
 6864SOL     OW21490   1.106   2.530   0.269 -0.2716 -0.0946 -0.4613
 6864SOL    HW121491   1.059   2.544   0.182 -0.5252  0.6401 -0.2086
 6864SOL    HW221492   1.205   2.530   0.254 -0.2562  1.5799 -0.5461
 6865SOL     OW21493   6.916   0.152   3.595 -0.3317 -0.1459  0.5612
 6865SOL    HW121494   6.844   0.208   3.555 -2.1432 -1.8502  1.2442
 6865SOL    HW221495   6.944   0.190   3.683  0.2951  1.0244 -0.1203
 6866SOL     OW21496   3.056   4.117   0.832  0.2963  0.5950 -0.3275
 6866SOL    HW121497   3.068   4.178   0.910 -0.3519  1.2821 -0.7504
 6866SOL    HW221498   2.979   4.055   0.849  1.9690 -1.3144  0.8239
 6867SOL     OW21499   2.694   1.661   6.614  0.3436  0.0302  0.7085
 6867SOL    HW121500   2.779   1.624   6.651  0.8860 -0.1337 -0.6483
 6867SOL    HW221501   2.683   1.632   6.519 -1.0267  0.3984  0.7277
 6868SOL     OW21502   4.908   5.606   4.182  0.3002 -0.0662  0.2054
 6868SOL    HW121503   4.849   5.528   4.202 -2.2725  1.9485  1.0812
 6868SOL    HW221504   4.956   5.633   4.265  0.4932 -0.1649  0.1266
 6869SOL     OW21505   1.846   0.749   6.755  0.3951  0.2414  0.0122
 6869SOL    HW121506   1.919   0.808   6.788 -1.1995  1.7367  1.0544
 6869SOL    HW221507   1.824   0.681   6.826  0.9096 -0.3519 -0.3902
 6870SOL     OW21508   0.513   3.714   6.572  0.1256  0.0842  0.5738
 6870SOL    HW121509   0.595   3.672   6.532 -0.8079 -2.3065  0.9956
 6870SOL    HW221510   0.528   3.728   6.670 -0.4052 -1.6874  0.9442
 6871SOL     OW21511   5.505   3.977   1.972 -0.7808 -0.0155  0.5128
 6871SOL    HW121512   5.476   3.901   2.031 -1.5193 -1.2353 -1.3168
 6871SOL    HW221513   5.472   4.063   2.010 -1.6418 -0.7993  1.6199
 6872SOL     OW21514   1.713   5.138   0.445  0.1876  0.0013 -0.1944
 6872SOL    HW121515   1.768   5.136   0.528  0.3640 -0.0016 -0.3106
 6872SOL    HW221516   1.711   5.046   0.405 -0.2898 -0.1035  0.0629
 6873SOL     OW21517   1.090   3.784   1.695  0.0691  0.3532  0.3892
 6873SOL    HW121518   1.173   3.729   1.684 -0.2672 -0.5367  1.9190
 6873SOL    HW221519   1.062   3.820   1.607  3.3538  2.6181  0.0564
 6874SOL     OW21520   2.679   5.407   1.874  0.2683  0.3936 -0.1025
 6874SOL    HW121521   2.582   5.422   1.894  0.1194 -1.0708  0.4192
 6874SOL    HW221522   2.688   5.326   1.815  1.2142 -0.0857  0.6710
 6875SOL     OW21523   1.345   0.472   4.348 -0.1960  0.2990 -0.6800
 6875SOL    HW121524   1.307   0.446   4.259 -0.8411  1.5849 -0.7922
 6875SOL    HW221525   1.351   0.390   4.405  0.8980 -0.6931 -2.1191
 6876SOL     OW21526   5.369   4.570   4.792 -0.2410  0.0135 -0.3770
 6876SOL    HW121527   5.453   4.624   4.783 -0.8828  1.4324  1.5270
 6876SOL    HW221528   5.309   4.588   4.714  0.1704  0.9527 -0.4941
 6877SOL     OW21529   0.573   3.768   0.660  0.2395 -0.1569  0.8525
 6877SOL    HW121530   0.554   3.786   0.563 -3.3381  0.3524  1.5222
 6877SOL    HW221531   0.642   3.833   0.692 -1.2506  2.2865 -0.5054
 6878SOL     OW21532   2.547   0.519   4.058 -0.3256  0.1617  0.0311
 6878SOL    HW121533   2.479   0.475   4.117 -0.3972 -0.7236 -0.6831
 6878SOL    HW221534   2.574   0.607   4.097 -1.8169  0.4880  0.3646
 6879SOL     OW21535   2.211   5.844   1.251  0.5766  0.0854  0.2954
 6879SOL    HW121536   2.112   5.853   1.235  0.6274 -1.4642 -1.0730
 6879SOL    HW221537   2.254   5.934   1.242 -0.1625  0.2212 -3.2958
 6880SOL     OW21538   0.660   3.679   1.895  0.0052 -0.3974  0.2938
 6880SOL    HW121539   0.668   3.607   1.826 -0.0836 -0.2394  0.1184
 6880SOL    HW221540   0.673   3.768   1.852 -0.2353 -0.2866  0.4476
 6881SOL     OW21541   5.757   3.032   0.151 -0.8091  0.1788  0.1775
 6881SOL    HW121542   5.703   3.115   0.158 -0.7487  0.2062  0.3068
 6881SOL    HW221543   5.716   2.972   0.082  0.1599  1.0755 -1.2197
 6882SOL     OW21544   1.776   0.062   1.195  0.3020  0.3042  0.2987
 6882SOL    HW121545   1.788   0.143   1.252 -1.4685  0.2452  0.8101
 6882SOL    HW221546   1.764  -0.019   1.252 -2.0210  0.3197 -0.0432
 6883SOL     OW21547   4.718   5.985   1.330  0.2601  0.1510  0.5211
 6883SOL    HW121548   4.779   6.057   1.298  0.8287 -0.9820 -1.0782
 6883SOL    HW221549   4.769   5.920   1.386  0.6910 -0.9914 -1.1078
 6884SOL     OW21550   2.399   4.979   2.925 -0.1596 -0.3657  1.3297
 6884SOL    HW121551   2.400   4.892   2.974 -0.2186 -0.8097  0.5542
 6884SOL    HW221552   2.473   4.981   2.858 -2.3228 -1.3869 -1.2912
 6885SOL     OW21553   5.344   4.761   5.787  0.0727 -0.7779  0.2128
 6885SOL    HW121554   5.426   4.808   5.819 -0.1594 -0.8576  0.9369
 6885SOL    HW221555   5.353   4.663   5.805 -0.5651 -0.6741  1.1435
 6886SOL     OW21556   4.112   1.726   1.480  0.3917 -0.1784  0.0893
 6886SOL    HW121557   4.023   1.764   1.505  1.0669  1.0495  0.7032
 6886SOL    HW221558   4.167   1.713   1.563  1.1625  0.0406 -0.3861
 6887SOL     OW21559   4.190   5.098   4.945  0.4996  0.0956 -0.3010
 6887SOL    HW121560   4.122   5.158   4.987  0.2907  0.1164 -0.6655
 6887SOL    HW221561   4.160   5.003   4.954 -1.2752  0.2445 -3.3481
 6888SOL     OW21562   4.453   5.402   0.826  0.3361 -0.2713  0.3700
 6888SOL    HW121563   4.411   5.404   0.916 -0.4986 -0.1624 -0.0117
 6888SOL    HW221564   4.447   5.493   0.784  1.4080 -0.1270  0.5112
 6889SOL     OW21565   1.728   1.548   6.835  0.3841  0.4031 -0.3236
 6889SOL    HW121566   1.776   1.530   6.922 -1.0286  0.5099  0.5053
 6889SOL    HW221567   1.675   1.633   6.844 -0.8892 -0.3206 -0.7988
 6890SOL     OW21568   4.945   3.627   3.992  0.1520  0.3723  0.5450
 6890SOL    HW121569   4.997   3.552   4.032 -1.9981 -0.3421  2.1705
 6890SOL    HW221570   4.891   3.593   3.915  0.7894  0.7564 -0.0884
 6891SOL     OW21571   2.151   1.086   5.880  0.6120  0.4409  0.1993
 6891SOL    HW121572   2.115   1.128   5.963  3.0130  0.5432  1.2854
 6891SOL    HW221573   2.144   1.151   5.804  1.9668  1.9404  1.2758
 6892SOL     OW21574   2.465   0.676   3.822 -0.5767  0.8709 -0.1208
 6892SOL    HW121575   2.435   0.766   3.854  0.7891  1.9465 -1.7389
 6892SOL    HW221576   2.511   0.628   3.897 -1.2587  1.5132  0.7371
 6893SOL     OW21577   0.257   3.629   6.614  0.2061 -0.0330  0.0253
 6893SOL    HW121578   0.201   3.710   6.632 -0.2225 -0.0233 -1.2225
 6893SOL    HW221579   0.353   3.656   6.605  0.6274 -0.1798  3.1462
 6894SOL     OW21580   5.603   5.213   6.995  0.4205  0.4257  0.6374
 6894SOL    HW121581   5.633   5.234   6.902  0.1329  1.4421  0.7627
 6894SOL    HW221582   5.626   5.119   7.017 -1.2660 -0.4894 -1.1960
 6895SOL     OW21583   1.504   4.988   3.452  0.0552 -0.4454 -0.2484
 6895SOL    HW121584   1.596   4.996   3.415 -0.8444  0.4669 -2.4904
 6895SOL    HW221585   1.486   5.064   3.514  1.0301 -1.0429  0.7961
 6896SOL     OW21586   0.470   1.512   5.976  0.3344  0.6415  0.6208
 6896SOL    HW121587   0.562   1.540   6.003  0.9384  0.5449 -1.1941
 6896SOL    HW221588   0.473   1.421   5.936 -0.1823  1.3980 -1.2632
 6897SOL     OW21589   4.921   1.858   4.552  0.5301  0.1622  0.8753
 6897SOL    HW121590   4.965   1.934   4.600 -0.2960  0.5844  0.9766
 6897SOL    HW221591   4.934   1.870   4.453 -0.4079  0.9682  0.8296
 6898SOL     OW21592   2.876   0.335   0.202 -0.0227 -0.2645  0.2755
 6898SOL    HW121593   2.964   0.305   0.164 -0.4222 -0.6561 -0.3403
 6898SOL    HW221594   2.814   0.257   0.208 -0.0660 -0.1657  1.4938
 6899SOL     OW21595   6.004   4.733   2.185 -0.4836  0.4992  1.0092
 6899SOL    HW121596   6.063   4.693   2.256 -0.9095 -1.4558  0.3254
 6899SOL    HW221597   5.909   4.732   2.217 -0.8571 -1.5426  0.0291
 6900SOL     OW21598   0.793   4.461   5.287  0.4201 -0.6770 -0.3134
 6900SOL    HW121599   0.813   4.547   5.241  0.8161  0.5644  2.0060
 6900SOL    HW221600   0.757   4.479   5.379 -2.6380 -2.9784 -0.8905
 6901SOL     OW21601   4.649   5.595   5.863  0.4153  0.1786 -0.1327
 6901SOL    HW121602   4.733   5.540   5.860  1.0693  0.9772  1.9677
 6901SOL    HW221603   4.674   5.692   5.855 -0.5418  0.3409 -1.6349
 6902SOL     OW21604   5.701   6.554   5.593 -0.1019 -0.4480 -0.4334
 6902SOL    HW121605   5.758   6.490   5.645  2.0852  1.8105  0.1031
 6902SOL    HW221606   5.732   6.557   5.498  1.3201  1.3840  0.0404
 6903SOL     OW21607   1.878   6.234   5.578  0.0837 -0.6593 -0.7050
 6903SOL    HW121608   1.973   6.264   5.585  0.1801 -1.2798  1.5036
 6903SOL    HW221609   1.817   6.310   5.603  0.0885 -0.7591 -0.3847
 6904SOL     OW21610   0.455   0.892   0.371  0.4641 -0.0915 -0.5003
 6904SOL    HW121611   0.372   0.904   0.425 -0.0507 -1.7518 -0.8524
 6904SOL    HW221612   0.485   0.796   0.376  2.6875  0.5610  0.0606
 6905SOL     OW21613   3.839   5.998   6.424 -0.0950  0.2725  0.4310
 6905SOL    HW121614   3.786   5.913   6.431  0.3286  0.0423  0.8728
 6905SOL    HW221615   3.789   6.063   6.367 -0.5428 -0.1812  0.2944
 6906SOL     OW21616   2.672   2.182   2.613 -0.3028 -0.5422  0.6952
 6906SOL    HW121617   2.767   2.155   2.624  0.0377 -0.0458 -0.7578
 6906SOL    HW221618   2.617   2.103   2.588 -0.1254 -0.6917  0.7792
 6907SOL     OW21619   4.744   5.257   1.358  0.0030  0.6775 -0.0084
 6907SOL    HW121620   4.771   5.180   1.300 -1.4553  0.5492 -0.5746
 6907SOL    HW221621   4.755   5.342   1.308 -0.9620  0.5901 -0.4127
 6908SOL     OW21622   3.694   6.177   0.350 -0.4308  0.4660  0.0102
 6908SOL    HW121623   3.726   6.253   0.293 -1.7448  1.4656  0.5493
 6908SOL    HW221624   3.605   6.200   0.389 -0.8555 -1.3741  0.2045
 6909SOL     OW21625   6.425   4.693   3.572 -0.8761 -0.4940 -0.0254
 6909SOL    HW121626   6.517   4.659   3.551  0.2550  2.5121 -0.4498
 6909SOL    HW221627   6.422   4.723   3.667 -1.2671 -0.1272 -0.1552
 6910SOL     OW21628   2.271   1.117   0.146 -0.0984 -0.0437 -0.1900
 6910SOL    HW121629   2.358   1.108   0.098  0.0550  1.3520 -0.2008
 6910SOL    HW221630   2.196   1.101   0.081  0.1299  0.7927 -0.6764
 6911SOL     OW21631   3.399   1.184   5.090 -0.3622 -0.3535 -0.5151
 6911SOL    HW121632   3.391   1.277   5.126  1.6926 -0.9142  1.7034
 6911SOL    HW221633   3.376   1.119   5.162 -1.1051 -1.5966 -1.8347
 6912SOL     OW21634   4.585   5.835   6.131 -0.1721 -0.1747  0.5967
 6912SOL    HW121635   4.586   5.738   6.156 -2.7895 -0.4701 -0.1290
 6912SOL    HW221636   4.630   5.847   6.043 -0.2561 -0.8178  0.4623
 6913SOL     OW21637   5.002   6.388   6.378 -0.1912 -0.2869  0.6852
 6913SOL    HW121638   5.050   6.358   6.460  1.4645  2.4566  0.8792
 6913SOL    HW221639   5.064   6.384   6.300 -0.7070  0.1659  0.2425
 6914SOL     OW21640   0.341   2.935   4.698  0.1997  0.0173  0.6218
 6914SOL    HW121641   0.320   2.904   4.790 -0.6214  1.0053  0.7822
 6914SOL    HW221642   0.350   3.034   4.697 -0.9355  0.1394 -0.5652
 6915SOL     OW21643   0.656   2.658   4.044 -0.7109 -0.1943  0.1370
 6915SOL    HW121644   0.610   2.745   4.065  0.8064  0.1299  2.5753
 6915SOL    HW221645   0.631   2.590   4.112  0.6199 -0.6626  0.1904
 6916SOL     OW21646   3.829   5.788   5.612  0.5079 -0.0633 -0.6364
 6916SOL    HW121647   3.884   5.720   5.660  1.7333  1.8008  0.7093
 6916SOL    HW221648   3.732   5.768   5.625  0.7636 -2.8197 -2.2049
 6917SOL     OW21649   2.725   6.787   2.658 -0.1062  0.1738 -0.2814
 6917SOL    HW121650   2.798   6.796   2.591  0.0786 -3.1256 -0.7138
 6917SOL    HW221651   2.765   6.777   2.749 -0.0067 -0.7451 -0.4103
 6918SOL     OW21652   1.698   1.318   0.489 -0.2728 -0.9101 -0.0542
 6918SOL    HW121653   1.757   1.262   0.430 -0.3656  0.6481 -1.7090
 6918SOL    HW221654   1.698   1.280   0.581  0.4057 -3.0716 -0.8701
 6919SOL     OW21655   6.747   4.750   3.831  0.6650 -0.0130 -0.0837
 6919SOL    HW121656   6.670   4.689   3.849  0.3588  0.3008 -0.3321
 6919SOL    HW221657   6.824   4.696   3.795  0.6806 -0.3752  0.4768
 6920SOL     OW21658   0.570   2.116   4.686  0.3889  0.4548 -0.0147
 6920SOL    HW121659   0.628   2.035   4.694  0.2774  0.4549  1.0287
 6920SOL    HW221660   0.490   2.105   4.745  0.2313  1.1973 -0.0848
 6921SOL     OW21661   1.699   1.500   3.176  0.5734  0.0843 -0.0031
 6921SOL    HW121662   1.652   1.443   3.109  0.2225  1.4533 -0.9441
 6921SOL    HW221663   1.634   1.561   3.221  1.4601  2.5101 -1.8294
 6922SOL     OW21664   1.016   4.428   5.729  0.5952 -0.0485  0.0509
 6922SOL    HW121665   1.094   4.389   5.679  0.3153  0.9965 -1.2446
 6922SOL    HW221666   1.041   4.518   5.764  0.6214 -0.5655  1.4101
 6923SOL     OW21667   5.906   1.515   4.163 -0.0177 -0.5546  0.1831
 6923SOL    HW121668   5.991   1.469   4.187 -0.1709 -0.4844  0.8705
 6923SOL    HW221669   5.842   1.510   4.239 -0.8085 -1.0151 -0.5026
 6924SOL     OW21670   2.679   5.721   2.795  0.1474 -0.2775  0.0828
 6924SOL    HW121671   2.673   5.718   2.695  2.4435  1.1913 -0.1580
 6924SOL    HW221672   2.665   5.814   2.826 -0.9205 -0.7840  1.2191
 6925SOL     OW21673   0.210   6.670   4.354  0.6298  0.1853  0.3095
 6925SOL    HW121674   0.129   6.642   4.405 -1.4331  0.3721 -2.5964
 6925SOL    HW221675   0.290   6.669   4.414 -1.2368 -1.3811  2.9616
 6926SOL     OW21676   3.446   2.270   0.330 -0.0782 -0.0155  0.0791
 6926SOL    HW121677   3.451   2.170   0.328  1.6929  0.0688 -1.3834
 6926SOL    HW221678   3.433   2.305   0.237  0.2150  1.1546  0.4575
 6927SOL     OW21679   2.303   0.415   4.155 -0.2259  0.0067  0.0199
 6927SOL    HW121680   2.228   0.463   4.200  1.5090  1.4009  1.5839
 6927SOL    HW221681   2.283   0.317   4.152 -0.8503 -0.0489  3.0469
 6928SOL     OW21682   4.271   5.077   1.492 -0.1167 -0.4820 -0.0528
 6928SOL    HW121683   4.357   5.050   1.534 -0.5859 -0.5332  0.8964
 6928SOL    HW221684   4.199   5.080   1.561  0.0706  4.3007  0.2475
 6929SOL     OW21685   5.004   5.925   1.989 -0.3966 -0.1548  0.4613
 6929SOL    HW121686   5.016   6.024   1.993  0.6013 -0.1477 -1.5203
 6929SOL    HW221687   4.922   5.903   1.936  0.5192 -0.3877 -0.8875
 6930SOL     OW21688   1.495   0.958   1.416 -0.4937  0.1435 -0.0360
 6930SOL    HW121689   1.423   0.908   1.464  1.2244  1.3953  4.3642
 6930SOL    HW221690   1.496   1.053   1.448  1.9124  0.6233 -1.3470
 6931SOL     OW21691   0.959   3.770   0.295 -0.1074  0.2544  0.1236
 6931SOL    HW121692   0.960   3.860   0.338 -1.4840 -0.0439  0.8639
 6931SOL    HW221693   1.039   3.759   0.236  0.6064  1.5593  0.8239
 6932SOL     OW21694   4.487   0.573   5.842 -0.2056 -0.0437  0.1296
 6932SOL    HW121695   4.485   0.564   5.942 -0.3908 -0.9096  0.0533
 6932SOL    HW221696   4.582   0.575   5.811 -0.1348  0.9131  0.3708
 6933SOL     OW21697   5.284   5.520   4.313  0.2240 -0.2897 -0.0901
 6933SOL    HW121698   5.219   5.587   4.278  0.1177  1.4200  3.0347
 6933SOL    HW221699   5.237   5.454   4.370  1.0094  0.1333  1.0759
 6934SOL     OW21700   3.237   1.733   6.651  0.2343  0.1130 -0.1830
 6934SOL    HW121701   3.252   1.657   6.588 -0.4689 -1.3323  1.3245
 6934SOL    HW221702   3.156   1.715   6.707  1.1980  0.9920  1.6064
 6935SOL     OW21703   5.227   5.320   2.503 -0.2759  0.6985  0.6868
 6935SOL    HW121704   5.135   5.297   2.470 -0.5793  2.0985  0.5046
 6935SOL    HW221705   5.220   5.360   2.594  0.1901  0.5049  0.8077
 6936SOL     OW21706   1.465   1.311   5.617 -0.1430 -0.2706 -0.9689
 6936SOL    HW121707   1.507   1.338   5.704 -1.0756 -1.8691  0.0320
 6936SOL    HW221708   1.489   1.377   5.546  1.3893  0.5849  0.2872
 6937SOL     OW21709   5.488   6.002   0.342  0.2575  0.1123  0.0573
 6937SOL    HW121710   5.524   5.913   0.369  0.9202  0.3891  0.1026
 6937SOL    HW221711   5.412   6.027   0.403  1.1559  0.3233  1.1165
 6938SOL     OW21712   3.276   1.344   5.458  0.0974 -0.1944  0.5776
 6938SOL    HW121713   3.206   1.369   5.391 -0.6365 -0.3881  1.2502
 6938SOL    HW221714   3.365   1.374   5.426 -0.5484  1.9953  0.6859
 6939SOL     OW21715   4.781   2.107   3.292 -0.1247 -0.0512  0.1318
 6939SOL    HW121716   4.728   2.182   3.252 -0.8925 -1.6406 -2.0185
 6939SOL    HW221717   4.752   2.092   3.387 -1.3409  1.0868 -0.0362
 6940SOL     OW21718   1.680   6.210   1.915  0.0827 -0.9327 -0.0865
 6940SOL    HW121719   1.752   6.273   1.943  1.3526 -1.8724 -1.1087
 6940SOL    HW221720   1.591   6.255   1.923  0.7820  0.2994  1.0710
 6941SOL     OW21721   4.382   3.811   0.802 -0.0879 -0.0212 -0.0037
 6941SOL    HW121722   4.422   3.787   0.714  0.1842  0.5883 -0.0543
 6941SOL    HW221723   4.282   3.808   0.796 -0.0812  0.5092 -0.4822
 6942SOL     OW21724   1.696   4.220   2.749 -0.3502  0.2733 -0.2750
 6942SOL    HW121725   1.751   4.270   2.817 -0.2616  0.6690 -0.6307
 6942SOL    HW221726   1.729   4.126   2.743  1.0443  0.7808 -1.2644
 6943SOL     OW21727   2.761   6.253   4.410 -0.3426  0.1542  0.6563
 6943SOL    HW121728   2.672   6.240   4.368  0.4010 -0.1107 -0.9401
 6943SOL    HW221729   2.823   6.296   4.344  0.7898  0.0722  1.6224
 6944SOL     OW21730   0.128   4.676   6.384  0.6666  0.6732 -0.6113
 6944SOL    HW121731   0.161   4.675   6.478  2.4164  1.7676 -1.1594
 6944SOL    HW221732   0.117   4.771   6.354  0.0407  0.3339 -1.4773
 6945SOL     OW21733   6.072   1.244   0.236 -0.6141  0.1922  0.0568
 6945SOL    HW121734   6.006   1.242   0.310 -0.9807  1.0237 -0.2385
 6945SOL    HW221735   6.153   1.191   0.262 -1.6834 -1.4790  0.1258
 6946SOL     OW21736   5.974   5.801   4.562 -0.1915 -0.2809  0.0167
 6946SOL    HW121737   5.970   5.756   4.472 -2.7103 -2.0717  0.8883
 6946SOL    HW221738   5.905   5.874   4.565 -0.5538 -0.6381  0.6536
 6947SOL     OW21739   6.872   6.665   3.449 -0.1597  0.1134 -0.5570
 6947SOL    HW121740   6.966   6.656   3.417  0.2206  1.9776 -0.1201
 6947SOL    HW221741   6.820   6.722   3.385 -0.3910  0.8570  0.2659
 6948SOL     OW21742   0.193   5.309   0.288  0.5772  0.1772 -0.2353
 6948SOL    HW121743   0.261   5.376   0.318  1.7066 -0.9908 -0.1020
 6948SOL    HW221744   0.104   5.354   0.279  1.6821  2.1943 -2.2044
 6949SOL     OW21745   3.728   1.918   2.835 -0.2301  0.2008 -0.2091
 6949SOL    HW121746   3.815   1.897   2.790 -0.4386 -2.6933  0.4818
 6949SOL    HW221747   3.683   1.832   2.860 -1.7572  1.6393  2.3697
 6950SOL     OW21748   1.527   2.028   3.321  0.1435 -0.0190 -0.3698
 6950SOL    HW121749   1.466   1.956   3.287  1.1456 -2.0041  1.7499
 6950SOL    HW221750   1.478   2.114   3.327 -1.9367 -1.1511 -0.3382
 6951SOL     OW21751   0.952   2.780   1.278  0.1611  0.4536  0.1688
 6951SOL    HW121752   1.027   2.744   1.222  1.5087  0.6522  1.7605
 6951SOL    HW221753   0.927   2.713   1.348  0.3762  1.2309  1.0170
 6952SOL     OW21754   5.203   6.676   2.710  0.5297  0.3175  0.6984
 6952SOL    HW121755   5.251   6.635   2.788  0.1700  1.1101  1.3454
 6952SOL    HW221756   5.267   6.684   2.633  1.0371  0.0097  1.0782
 6953SOL     OW21757   5.641   0.150   3.566  1.0598 -0.0753  0.6451
 6953SOL    HW121758   5.653   0.239   3.522  2.3519  0.0424  1.1879
 6953SOL    HW221759   5.606   0.163   3.659 -1.7934 -0.3298 -0.2986
 6954SOL     OW21760   6.600   6.146   5.624 -0.3122 -0.0050  0.5297
 6954SOL    HW121761   6.682   6.166   5.677 -1.0435  0.6559  1.4445
 6954SOL    HW221762   6.578   6.049   5.632  0.8037 -0.3551 -0.3649
 6955SOL     OW21763   4.948   6.004   2.415  0.4481  0.5111 -0.2689
 6955SOL    HW121764   4.996   6.086   2.385 -0.8458  0.3956 -2.8612
 6955SOL    HW221765   4.867   6.030   2.467  1.3822  0.7690  1.1150
 6956SOL     OW21766   0.968   4.706   3.498  0.4770  0.0989  0.3773
 6956SOL    HW121767   1.036   4.779   3.498 -0.0439  0.6037  0.9236
 6956SOL    HW221768   0.878   4.745   3.517  0.2282 -0.7111  0.9200
 6957SOL     OW21769   4.723   3.291   5.891 -0.3342  0.5471  0.0282
 6957SOL    HW121770   4.635   3.260   5.927 -0.6607  1.2150 -0.1696
 6957SOL    HW221771   4.708   3.346   5.809  0.3731 -0.5766 -0.8934
 6958SOL     OW21772   4.018   3.787   1.594  0.0318 -0.4646  0.5487
 6958SOL    HW121773   3.939   3.812   1.650 -0.8684  0.9349 -1.2617
 6958SOL    HW221774   4.101   3.792   1.651 -0.7065  1.9048  1.5772
 6959SOL     OW21775   1.415   4.575   3.473 -0.6650  0.2724  0.3382
 6959SOL    HW121776   1.334   4.559   3.530 -0.9746  1.2254  0.1800
 6959SOL    HW221777   1.486   4.618   3.528  0.0486 -1.2812  0.6816
 6960SOL     OW21778   5.246   5.117   1.661  0.4415  0.1918  0.1393
 6960SOL    HW121779   5.188   5.155   1.589  0.1582 -0.2271  0.1414
 6960SOL    HW221780   5.316   5.058   1.621  0.3997  0.1066  0.1897
 6961SOL     OW21781   5.530   1.029   4.403 -0.4824  0.3174 -0.1576
 6961SOL    HW121782   5.498   0.979   4.483 -0.9327  1.4256  0.3825
 6961SOL    HW221783   5.572   0.966   4.338 -1.2768 -0.7875  0.3675
 6962SOL     OW21784   1.105   5.435   6.821  0.3654  1.2709 -0.0436
 6962SOL    HW121785   1.198   5.452   6.853 -0.2423  1.3215  1.8186
 6962SOL    HW221786   1.043   5.504   6.858 -0.5444  0.7876 -0.6048
 6963SOL     OW21787   6.878   1.657   6.917  0.3464  0.1551 -0.3487
 6963SOL    HW121788   6.818   1.598   6.864  0.7077 -0.3688 -0.1838
 6963SOL    HW221789   6.881   1.748   6.876 -1.5767  0.5980  0.3529
 6964SOL     OW21790   2.072   1.805   0.096  0.4498  0.2018  0.1231
 6964SOL    HW121791   1.987   1.850   0.068 -0.0733 -0.6825  0.2403
 6964SOL    HW221792   2.083   1.720   0.044  0.7839 -0.1554  0.7696
 6965SOL     OW21793   1.258   0.100   6.856 -0.6029 -0.6720 -0.3122
 6965SOL    HW121794   1.335   0.089   6.920 -0.3846 -1.1571 -0.6492
 6965SOL    HW221795   1.212   0.187   6.874  1.3247  0.6658 -1.4772
 6966SOL     OW21796   0.438   6.093   6.732  0.5139  0.0587  0.6829
 6966SOL    HW121797   0.423   6.159   6.659  0.1066  0.2459  0.9318
 6966SOL    HW221798   0.353   6.043   6.749  0.3577  0.6056  1.6021
 6967SOL     OW21799   1.426   0.771   0.058 -0.1546  0.0139  0.0780
 6967SOL    HW121800   1.437   0.781  -0.041 -0.0480 -1.7433 -0.1289
 6967SOL    HW221801   1.516   0.755   0.100  0.0194  2.3364  0.7154
 6968SOL     OW21802   4.675   1.669   2.637 -0.1792  0.0326  0.3239
 6968SOL    HW121803   4.648   1.722   2.557  0.9139  0.6114  0.3344
 6968SOL    HW221804   4.707   1.579   2.608 -0.2953  0.0421  0.1651
 6969SOL     OW21805   0.217   2.014   2.112 -0.4060 -0.0505 -1.0465
 6969SOL    HW121806   0.134   2.058   2.078 -0.0809  0.4385 -1.1991
 6969SOL    HW221807   0.256   1.956   2.040  1.0624  2.0541 -2.0598
 6970SOL     OW21808   3.773   3.656   6.980  0.2798  0.2055 -0.0654
 6970SOL    HW121809   3.860   3.676   6.935  0.7937 -0.4087  0.6237
 6970SOL    HW221810   3.780   3.569   7.029 -1.8814 -1.7624 -2.9658
 6971SOL     OW21811   5.694   5.301   0.710 -0.0075 -0.5330 -0.0185
 6971SOL    HW121812   5.777   5.245   0.718  0.3064  0.0073  0.5628
 6971SOL    HW221813   5.645   5.300   0.797  0.1052  0.2542  0.0615
 6972SOL     OW21814   6.003   3.297   1.832  0.1921  0.2685 -0.0678
 6972SOL    HW121815   5.912   3.335   1.850  0.3482  1.2154 -1.1520
 6972SOL    HW221816   6.054   3.289   1.918 -0.3205  1.2942  0.3441
 6973SOL     OW21817   3.271   1.710   3.422  0.1886 -0.4191 -0.1315
 6973SOL    HW121818   3.371   1.715   3.425  0.2185  0.3314 -1.7614
 6973SOL    HW221819   3.243   1.635   3.362 -0.1629  1.7089 -2.7826
 6974SOL     OW21820   2.965   3.703   3.739 -0.2460 -0.0067  0.9356
 6974SOL    HW121821   2.971   3.793   3.696  1.9699 -0.0619  1.0034
 6974SOL    HW221822   3.057   3.666   3.751 -1.1548 -3.0309 -0.6016
 6975SOL     OW21823   3.210   6.100   4.611 -0.2073  0.2789 -0.8274
 6975SOL    HW121824   3.142   6.078   4.681  0.1965  0.5670 -0.3394
 6975SOL    HW221825   3.164   6.119   4.525 -0.6369 -2.3894 -1.3001
 6976SOL     OW21826   4.434   5.349   0.249  0.4145 -0.3021  0.2139
 6976SOL    HW121827   4.507   5.332   0.315  0.7109 -0.9111 -0.2630
 6976SOL    HW221828   4.419   5.267   0.194  0.6055  0.3947 -0.9009
 6977SOL     OW21829   4.429   5.143   1.954  0.4099 -0.3343 -0.4386
 6977SOL    HW121830   4.453   5.069   1.891  0.2696  0.7650 -1.8304
 6977SOL    HW221831   4.491   5.142   2.032  0.0724 -2.2376 -0.1515
 6978SOL     OW21832   7.005   2.945   2.137 -0.5813  0.1046 -0.2282
 6978SOL    HW121833   7.080   2.996   2.096  0.4422 -1.5372 -0.5021
 6978SOL    HW221834   6.974   2.874   2.072 -2.4443  0.8021 -0.1619
 6979SOL     OW21835   0.922   3.353   2.504 -0.7258 -0.5786 -0.0185
 6979SOL    HW121836   0.980   3.272   2.500  0.7185  0.4760 -2.1407
 6979SOL    HW221837   0.919   3.387   2.599  2.4421 -0.5095  0.1662
 6980SOL     OW21838   2.334   4.342   2.566 -0.4869  0.0438  0.2825
 6980SOL    HW121839   2.327   4.265   2.503 -0.7168  0.6636 -0.4733
 6980SOL    HW221840   2.295   4.424   2.523  1.5430  1.0641  0.2207
 6981SOL     OW21841   5.118   3.001   6.114 -0.2156  0.2267  0.4791
 6981SOL    HW121842   5.056   3.050   6.053 -0.0634 -0.0889  0.0670
 6981SOL    HW221843   5.197   2.968   6.063 -0.8016 -1.3418  0.5104
 6982SOL     OW21844   6.611   5.971   3.487 -0.3769  0.3235 -0.3648
 6982SOL    HW121845   6.592   5.892   3.546  1.3882 -0.5276 -0.8343
 6982SOL    HW221846   6.526   6.010   3.454 -1.3267 -0.6897  0.7916
 6983SOL     OW21847   6.418   0.325   4.264  0.6621 -0.2525 -0.0745
 6983SOL    HW121848   6.480   0.345   4.340 -0.1706 -1.2856  0.8963
 6983SOL    HW221849   6.336   0.382   4.272 -0.4349 -1.9176  1.1034
 6984SOL     OW21850   1.947   2.888   4.586  0.0139  0.0925  0.1444
 6984SOL    HW121851   2.002   2.969   4.607 -0.1198  0.1925  0.1117
 6984SOL    HW221852   1.930   2.837   4.670 -1.8260  1.3152  0.5790
 6985SOL     OW21853   5.329   3.288   0.942  0.6354 -0.0241  0.0859
 6985SOL    HW121854   5.397   3.292   1.016 -0.4611 -0.3651  1.1519
 6985SOL    HW221855   5.244   3.330   0.973 -0.2704 -1.3401 -0.5023
 6986SOL     OW21856   3.333   5.570   5.444 -0.0991  0.0390  0.1704
 6986SOL    HW121857   3.236   5.562   5.422 -0.3058  1.3947  0.4880
 6986SOL    HW221858   3.383   5.493   5.404 -1.0795  0.1667 -1.3769
 6987SOL     OW21859   0.520   0.886   6.073  0.0103  0.3895  0.1401
 6987SOL    HW121860   0.464   0.925   6.001  1.1823 -0.2551 -1.1742
 6987SOL    HW221861   0.542   0.956   6.140  0.1966  1.4237 -0.9681
 6988SOL     OW21862   1.889   0.717   5.828 -0.0245 -0.1149 -0.5013
 6988SOL    HW121863   1.958   0.697   5.759 -0.6143 -2.3809 -0.4909
 6988SOL    HW221864   1.798   0.710   5.788 -0.3254  0.7392  0.0047
 6989SOL     OW21865   0.640   2.712   2.639 -0.5629  0.4766  0.0606
 6989SOL    HW121866   0.646   2.810   2.661 -1.1141  0.8865 -1.4734
 6989SOL    HW221867   0.553   2.694   2.594 -0.6301 -0.8141  0.6801
 6990SOL     OW21868   2.763   5.386   5.589 -0.2361  0.0475 -0.0605
 6990SOL    HW121869   2.699   5.405   5.664  0.4445  0.4045  0.4472
 6990SOL    HW221870   2.745   5.295   5.552 -2.0999  0.7634 -1.0336
 6991SOL     OW21871   5.504   0.417   4.005  0.2069  0.4766  0.3959
 6991SOL    HW121872   5.575   0.356   3.971 -2.2406 -1.6901 -1.2134
 6991SOL    HW221873   5.480   0.392   4.099  0.6671  0.3614  0.4834
 6992SOL     OW21874   2.208   4.049   4.738 -0.3634  0.0118 -0.0460
 6992SOL    HW121875   2.260   4.019   4.818  1.5149  0.3051 -1.0928
 6992SOL    HW221876   2.219   3.982   4.664 -1.6861 -0.0282 -0.2341
 6993SOL     OW21877   2.851   2.027   1.101  0.3753 -0.1967  0.2533
 6993SOL    HW121878   2.892   2.087   1.032  1.4390 -0.2038  0.8464
 6993SOL    HW221879   2.803   1.952   1.055 -1.7941  1.5567 -0.5253
 6994SOL     OW21880   2.150   1.171   1.729  0.0448 -0.1085  0.3115
 6994SOL    HW121881   2.118   1.098   1.789 -0.0652  1.4072  2.1565
 6994SOL    HW221882   2.224   1.221   1.773  1.0038  0.1347 -1.4661
 6995SOL     OW21883   5.895   4.366   6.360  0.0148  0.3404  0.3669
 6995SOL    HW121884   5.977   4.329   6.402  0.2579  0.0397 -0.3589
 6995SOL    HW221885   5.823   4.297   6.358  0.1297  0.2303 -0.0534
 6996SOL     OW21886   6.974   6.735   0.040  0.0142 -0.3586  0.1219
 6996SOL    HW121887   6.903   6.694  -0.018  0.5757  1.5209 -2.0488
 6996SOL    HW221888   6.958   6.710   0.135 -4.2011  0.7501 -0.1008
 6997SOL     OW21889   0.659   4.760   5.726 -1.0005  0.8379  0.2490
 6997SOL    HW121890   0.605   4.678   5.710  0.4776 -0.2951  0.8752
 6997SOL    HW221891   0.701   4.756   5.817  0.5270  1.4289 -0.3881
 6998SOL     OW21892   1.081   6.633   0.943 -0.0493 -0.0727  0.3932
 6998SOL    HW121893   1.044   6.546   0.976 -0.3630 -0.4157 -0.8423
 6998SOL    HW221894   1.024   6.667   0.868  0.8504  0.5268 -0.0277
 6999SOL     OW21895   0.670   3.995   1.132 -0.2948  0.0680 -0.2547
 6999SOL    HW121896   0.585   3.955   1.166  0.6622 -0.7569  1.3324
 6999SOL    HW221897   0.744   3.975   1.197  1.1652  0.5484 -1.6989
 7000SOL     OW21898   3.046   5.261   3.260 -0.4676  0.0225  0.4202
 7000SOL    HW121899   3.110   5.200   3.214 -1.0970  0.1344 -0.6307
 7000SOL    HW221900   3.074   5.273   3.355  0.5265 -0.6789  0.2296
 7001SOL     OW21901   1.173   6.418   4.718  0.0658 -0.2213  0.6743
 7001SOL    HW121902   1.167   6.321   4.695 -1.0279  0.1458 -0.7213
 7001SOL    HW221903   1.257   6.456   4.681  1.2290 -0.9028  2.4576
 7002SOL     OW21904   3.462   5.192   2.336  0.5155  0.1202  0.0149
 7002SOL    HW121905   3.366   5.209   2.355  0.2468  0.8891 -1.8525
 7002SOL    HW221906   3.471   5.108   2.282  0.9017  0.0633  0.1617
 7003SOL     OW21907   1.152   5.859   6.688  0.2747 -0.0973 -0.3213
 7003SOL    HW121908   1.061   5.818   6.681 -0.7804  2.2327 -1.1709
 7003SOL    HW221909   1.188   5.845   6.780 -2.4539  1.8055  1.1954
 7004SOL     OW21910   1.258   3.209   0.700 -0.4727 -0.9193 -0.6222
 7004SOL    HW121911   1.215   3.282   0.754  0.4695  0.2943 -1.4400
 7004SOL    HW221912   1.195   3.178   0.629 -0.5356 -0.1521 -0.9157
 7005SOL     OW21913   0.967   4.284   1.636  0.2039  0.2614 -0.0801
 7005SOL    HW121914   0.881   4.234   1.637 -0.7514  1.8046 -0.8568
 7005SOL    HW221915   0.982   4.322   1.545  0.4817  2.0175  0.6622
 7006SOL     OW21916   1.138   2.325   2.738 -0.4316  0.4220  0.9949
 7006SOL    HW121917   1.158   2.227   2.734 -1.0919  0.3126 -0.3653
 7006SOL    HW221918   1.040   2.338   2.753 -0.4676  0.8602  0.4160
 7007SOL     OW21919   2.048   6.937   0.014  0.2996  0.0686  0.4660
 7007SOL    HW121920   2.145   6.922  -0.004  0.2996 -0.2133  0.6970
 7007SOL    HW221921   2.002   6.849   0.027 -0.0530  0.1809  0.0349
 7008SOL     OW21922   5.550   2.620   3.155 -0.4794 -0.0158  0.1229
 7008SOL    HW121923   5.590   2.711   3.165  0.4289 -0.2175 -1.4009
 7008SOL    HW221924   5.475   2.609   3.221  0.6560  1.0938  1.6600
 7009SOL     OW21925   5.663   6.303   3.278  0.3370  0.6134 -0.6201
 7009SOL    HW121926   5.641   6.330   3.184 -0.0438  2.2218 -0.0867
 7009SOL    HW221927   5.659   6.203   3.285  1.4478  0.3784 -2.5739
 7010SOL     OW21928   5.803   3.351   2.774 -0.9025 -0.4702  0.1533
 7010SOL    HW121929   5.868   3.419   2.741 -1.3268 -0.3364 -0.4229
 7010SOL    HW221930   5.853   3.273   2.813 -0.3821 -0.5095 -0.5646
 7011SOL     OW21931   0.465   0.260   5.334 -0.1250 -0.4196 -0.5542
 7011SOL    HW121932   0.366   0.266   5.325 -0.2361 -0.9317  0.1490
 7011SOL    HW221933   0.493   0.164   5.327  0.3051 -0.2927 -0.6174
 7012SOL     OW21934   5.610   3.745   6.514  0.1907 -0.2635 -0.1005
 7012SOL    HW121935   5.681   3.720   6.448  1.8151 -0.1406  1.5105
 7012SOL    HW221936   5.624   3.839   6.543  0.6731 -0.8665  1.7637
 7013SOL     OW21937   3.693   2.076   0.915  0.2190  0.3829  0.0438
 7013SOL    HW121938   3.784   2.054   0.949 -0.2456 -1.0477  0.4539
 7013SOL    HW221939   3.645   1.992   0.891 -1.1445  1.0698  0.2434
 7014SOL     OW21940   0.929   2.439   0.828 -0.1743 -0.5150  0.0189
 7014SOL    HW121941   0.874   2.442   0.744 -1.5772  2.7710  0.8600
 7014SOL    HW221942   0.898   2.363   0.885 -2.4899 -0.0349 -0.4699
 7015SOL     OW21943   5.153   6.684   0.822  0.5720 -0.5052  0.6428
 7015SOL    HW121944   5.139   6.782   0.808 -2.2272 -0.8594  0.3576
 7015SOL    HW221945   5.082   6.649   0.884  0.6215 -2.5799 -0.3872
 7016SOL     OW21946   2.011   5.361   0.625  0.2816  0.2303  0.0920
 7016SOL    HW121947   2.023   5.431   0.696  0.4657 -0.1715  0.4605
 7016SOL    HW221948   2.091   5.301   0.624  0.2151  0.1514 -0.3642
 7017SOL     OW21949   5.257   5.162   6.446  0.4528 -0.4496 -0.5809
 7017SOL    HW121950   5.316   5.195   6.521  0.3406 -1.3078 -0.0903
 7017SOL    HW221951   5.163   5.190   6.463 -0.2753 -3.5863  1.5948
 7018SOL     OW21952   4.821   4.538   2.263 -0.1071 -0.0588  0.5746
 7018SOL    HW121953   4.757   4.463   2.281 -1.1497  0.8843  0.9034
 7018SOL    HW221954   4.909   4.501   2.233 -1.1682 -1.3505 -1.0600
 7019SOL     OW21955   1.384   5.323   1.730  0.7580  0.1532 -0.3456
 7019SOL    HW121956   1.324   5.263   1.677  1.6414  1.5776 -3.1557
 7019SOL    HW221957   1.470   5.275   1.749  0.3548 -0.4509 -0.0460
 7020SOL     OW21958   5.515   1.084   6.821  0.0961  0.3711  0.5971
 7020SOL    HW121959   5.507   0.989   6.793  0.5223  0.1504  1.2088
 7020SOL    HW221960   5.426   1.117   6.852 -0.3865  0.6124 -0.9362
 7021SOL     OW21961   1.079   2.251   4.755  0.2669  0.0293 -0.3192
 7021SOL    HW121962   0.999   2.242   4.697  0.5739 -1.0621 -0.6029
 7021SOL    HW221963   1.099   2.163   4.799  0.5031  0.6339  0.8256
 7022SOL     OW21964   0.722   5.129   6.533 -0.2580 -0.2139  0.1083
 7022SOL    HW121965   0.654   5.077   6.585  0.4974 -1.7661 -0.4205
 7022SOL    HW221966   0.722   5.098   6.438  2.6485 -1.8066  0.5247
 7023SOL     OW21967   6.853   1.094   1.696 -0.0184  0.1223 -0.5085
 7023SOL    HW121968   6.829   1.171   1.636 -1.7391 -0.5418 -0.7271
 7023SOL    HW221969   6.850   1.009   1.643 -0.3090 -0.3260  0.2142
 7024SOL     OW21970   3.617   4.493   0.357  0.7458 -0.1186 -0.2957
 7024SOL    HW121971   3.660   4.422   0.302  1.4667  0.9125 -1.0898
 7024SOL    HW221972   3.680   4.570   0.370 -0.5197  1.0362 -0.7213
 7025SOL     OW21973   3.705   0.928   3.731  0.1206 -0.5371  0.1624
 7025SOL    HW121974   3.734   1.003   3.672 -0.6901 -0.1733  0.2106
 7025SOL    HW221975   3.758   0.931   3.816  1.4962 -1.2402 -0.6299
 7026SOL     OW21976   3.815   3.009   1.641 -0.4818 -0.0620  0.2445
 7026SOL    HW121977   3.777   2.917   1.631 -1.9443  0.4325  1.0536
 7026SOL    HW221978   3.755   3.064   1.699  0.0104  1.6127 -0.7753
 7027SOL     OW21979   2.506   4.166   1.225 -0.2784 -0.0932 -0.1129
 7027SOL    HW121980   2.515   4.183   1.323  0.3751 -0.1453 -0.1576
 7027SOL    HW221981   2.415   4.195   1.194 -0.7053 -0.6117  0.6125
 7028SOL     OW21982   4.962   2.753   3.873 -0.4085  0.4921  0.1458
 7028SOL    HW121983   4.998   2.843   3.894 -0.0201  0.4732 -0.4227
 7028SOL    HW221984   4.955   2.742   3.773  0.8350 -0.5937  0.1506
 7029SOL     OW21985   3.124   3.175   3.699 -0.1511  0.1362 -0.0027
 7029SOL    HW121986   3.187   3.112   3.744 -0.3853 -0.3619 -0.3638
 7029SOL    HW221987   3.054   3.204   3.764 -0.9913 -1.2489 -0.2514
 7030SOL     OW21988   6.093   0.967   5.216 -0.6629 -0.1351  0.4476
 7030SOL    HW121989   6.006   0.922   5.234 -1.7121  2.0655  1.2360
 7030SOL    HW221990   6.106   1.042   5.280  2.2355 -0.8622  0.8839
 7031SOL     OW21991   4.171   6.968   0.974  0.3740 -0.1214  0.0909
 7031SOL    HW121992   4.156   6.888   0.916 -0.9573 -0.9240  1.4699
 7031SOL    HW221993   4.255   6.954   1.028  0.6650 -0.1539 -0.3673
 7032SOL     OW21994   4.994   0.114   4.166  0.2436 -0.2658  0.0645
 7032SOL    HW121995   4.929   0.166   4.111  0.5743 -0.7774 -0.8315
 7032SOL    HW221996   4.944   0.056   4.230 -0.2143 -0.8517 -0.7949
 7033SOL     OW21997   2.422   1.257   4.644  0.0548  0.4553 -0.7213
 7033SOL    HW121998   2.462   1.321   4.578 -0.1066 -0.4114 -1.6904
 7033SOL    HW221999   2.479   1.175   4.649 -1.0138 -0.3341 -1.3009
 7034SOL     OW22000   0.879   6.501   1.537  0.0561  0.4501 -0.3093
 7034SOL    HW122001   0.876   6.401   1.540 -0.5899  0.4786  1.6446
 7034SOL    HW222002   0.804   6.536   1.481 -0.9029 -0.1525  0.5627
 7035SOL     OW22003   2.933   0.413   2.445  0.2365 -0.2129  0.2450
 7035SOL    HW122004   2.935   0.393   2.543  3.0159  0.5288  0.4198
 7035SOL    HW222005   3.021   0.387   2.404 -0.0151  1.6289 -1.5887
 7036SOL     OW22006   5.985   2.429   2.650 -0.4960  0.0633  0.6390
 7036SOL    HW122007   6.007   2.390   2.740 -2.1276  0.5892  1.3146
 7036SOL    HW222008   6.055   2.494   2.623  1.1269 -1.6670  0.5230
 7037SOL     OW22009   6.398   0.351   5.948 -0.1081 -0.0214 -0.2243
 7037SOL    HW122010   6.399   0.419   6.021 -0.8027  0.1595 -0.3797
 7037SOL    HW222011   6.469   0.373   5.881  0.7878 -0.4027  0.5756
 7038SOL     OW22012   7.009   4.166   6.509 -0.3466  0.0249 -0.0325
 7038SOL    HW122013   7.028   4.192   6.414 -1.5184 -0.5114 -0.4429
 7038SOL    HW222014   6.910   4.161   6.522 -0.1861 -0.5407  1.0556
 7039SOL     OW22015   1.817   6.112   0.680 -0.4845 -0.1600 -0.1888
 7039SOL    HW122016   1.826   6.162   0.594  1.1348 -2.9433 -1.7907
 7039SOL    HW222017   1.750   6.038   0.669  0.9017 -1.5532  0.3532
 7040SOL     OW22018   5.209   3.796   5.005  0.3287 -0.0253  0.4071
 7040SOL    HW122019   5.196   3.753   4.916  1.0613 -0.6242  0.5769
 7040SOL    HW222020   5.139   3.765   5.069 -0.6100  0.9232 -0.1273
 7041SOL     OW22021   1.445   0.059   3.843  1.0135  0.1524 -0.0787
 7041SOL    HW122022   1.368   0.006   3.880  0.4927  0.5754 -0.5370
 7041SOL    HW222023   1.495   0.003   3.777 -0.2737  0.5944 -1.5003
 7042SOL     OW22024   3.898   7.000   5.658  0.3293 -0.3226 -0.4000
 7042SOL    HW122025   3.831   7.063   5.697  0.1200  0.3571 -1.7892
 7042SOL    HW222026   3.909   7.020   5.560 -0.0627 -2.7310 -0.9875
 7043SOL     OW22027   1.340   5.104   6.602  0.0669 -0.1603  0.4797
 7043SOL    HW122028   1.397   5.028   6.633 -0.6042 -0.6074  0.6516
 7043SOL    HW222029   1.342   5.108   6.502  1.0758  0.3691  0.5140
 7044SOL     OW22030   3.744   5.932   4.227  0.1155 -0.6040 -0.1968
 7044SOL    HW122031   3.810   5.856   4.222 -0.1065 -0.9878  1.8070
 7044SOL    HW222032   3.758   5.982   4.313 -2.2724 -0.7912  0.3677
 7045SOL     OW22033   5.249   0.172   1.579  0.2018  0.0011  0.3654
 7045SOL    HW122034   5.237   0.109   1.502 -0.8232 -0.1638  0.6424
 7045SOL    HW222035   5.190   0.251   1.568 -0.2450 -0.2039  1.1535
 7046SOL     OW22036   2.119   0.902   1.051 -0.5286 -0.0657  0.8292
 7046SOL    HW122037   2.101   1.000   1.065 -1.0506  0.6101 -3.2601
 7046SOL    HW222038   2.172   0.890   0.967  0.5509 -3.3182  1.8209
 7047SOL     OW22039   2.827   6.610   2.290  0.0905 -0.3147 -0.2029
 7047SOL    HW122040   2.912   6.643   2.331  0.0525  0.8957 -1.0298
 7047SOL    HW222041   2.778   6.687   2.248 -0.1765 -1.3690 -1.9337
 7048SOL     OW22042   1.359   6.628   2.143  0.2051 -0.3864 -0.5056
 7048SOL    HW122043   1.286   6.669   2.198  0.7857  1.7198 -1.1994
 7048SOL    HW222044   1.325   6.612   2.050  0.6231  0.8082 -0.8937
 7049SOL     OW22045   3.537   0.880   4.360  0.0528  0.4243  0.4215
 7049SOL    HW122046   3.544   0.979   4.350  1.3625  0.3852  0.7779
 7049SOL    HW222047   3.442   0.855   4.380 -0.0974  1.7122  1.4536
 7050SOL     OW22048   4.215   4.389   0.838 -0.7704 -0.1306 -0.0878
 7050SOL    HW122049   4.291   4.364   0.899 -0.5005  1.0788  0.1019
 7050SOL    HW222050   4.248   4.453   0.769 -1.3997 -0.4014 -0.6481
 7051SOL     OW22051   3.033   0.548   1.881 -0.0957  0.1670 -0.5223
 7051SOL    HW122052   3.101   0.495   1.931 -0.4322  0.9331  0.8024
 7051SOL    HW222053   2.943   0.504   1.891 -0.2360  0.5451 -0.0904
 7052SOL     OW22054   4.999   6.912   2.382 -0.1078  0.1717  0.1255
 7052SOL    HW122055   5.039   6.972   2.451  0.9122  0.6943 -0.8849
 7052SOL    HW222056   5.062   6.837   2.363 -0.1649  0.2879 -0.5630
 7053SOL     OW22057   0.489   4.243   2.304  0.3992  0.5396  0.4092
 7053SOL    HW122058   0.572   4.299   2.300  0.7404 -0.0433 -2.3850
 7053SOL    HW222059   0.510   4.151   2.272 -1.5663  0.7694 -1.7776
 7054SOL     OW22060   3.990   6.189   6.587 -0.2373  0.4587  0.1906
 7054SOL    HW122061   3.927   6.157   6.517  1.2090 -0.5744 -0.6874
 7054SOL    HW222062   4.084   6.169   6.559  0.3742 -0.5215  2.6628
 7055SOL     OW22063   3.126   6.255   0.512  0.3346  0.0841 -0.0861
 7055SOL    HW122064   3.053   6.240   0.446  1.1293 -1.0394 -0.7552
 7055SOL    HW222065   3.108   6.202   0.595 -1.0027  2.0196  0.9151
 7056SOL     OW22066   6.117   5.717   5.707 -0.3608  0.4858  0.5857
 7056SOL    HW122067   6.182   5.789   5.684 -0.5056  0.6845  0.8041
 7056SOL    HW222068   6.138   5.635   5.653 -1.0846  1.1508 -0.7611
 7057SOL     OW22069   3.199   5.087   4.665  0.1863 -0.7058 -0.0059
 7057SOL    HW122070   3.233   5.181   4.667 -1.3088 -0.1296  0.0051
 7057SOL    HW222071   3.139   5.072   4.743  0.5225 -1.7306  0.0698
 7058SOL     OW22072   5.416   3.212   0.682 -0.0694 -0.7219 -0.5327
 7058SOL    HW122073   5.390   3.220   0.778 -0.4730 -1.1427 -0.6060
 7058SOL    HW222074   5.350   3.156   0.633 -0.6073  0.5632 -1.3488
 7059SOL     OW22075   6.438   6.569   5.153  0.7045 -0.0743  0.3809
 7059SOL    HW122076   6.419   6.589   5.057 -0.2022 -0.9446  0.3686
 7059SOL    HW222077   6.481   6.480   5.161 -1.3664 -1.1004  0.9206
 7060SOL     OW22078   1.578   1.237   1.541 -0.3800  0.5296 -0.3297
 7060SOL    HW122079   1.548   1.213   1.634  0.1163  1.3973  0.0576
 7060SOL    HW222080   1.614   1.330   1.540 -0.4192  0.5435 -1.4086
 7061SOL     OW22081   1.731   6.816   0.752  0.0169 -0.1439 -0.1348
 7061SOL    HW122082   1.798   6.750   0.718  0.0958 -0.0664 -0.1289
 7061SOL    HW222083   1.776   6.882   0.812 -0.0407 -0.0184 -0.2284
 7062SOL     OW22084   2.398   0.252   5.190 -0.0979  0.3911 -0.5765
 7062SOL    HW122085   2.371   0.199   5.110  1.3497  0.1199 -0.9142
 7062SOL    HW222086   2.350   0.218   5.271 -0.7350 -0.0617 -1.1331
 7063SOL     OW22087   0.192   6.850   2.316  0.4157 -0.0519 -0.5837
 7063SOL    HW122088   0.257   6.852   2.241  0.7022  0.2955 -0.3335
 7063SOL    HW222089   0.225   6.910   2.389  0.4027 -0.7798  0.0322
 7064SOL     OW22090   2.714   6.681   5.773 -0.4877  0.4695  0.2166
 7064SOL    HW122091   2.802   6.728   5.767 -0.7924  0.8276 -3.2583
 7064SOL    HW222092   2.727   6.585   5.749 -0.8573  0.1337  1.2786
 7065SOL     OW22093   2.817   0.533   4.215  0.8215 -0.5093 -0.1543
 7065SOL    HW122094   2.853   0.466   4.150 -1.7967 -2.3384  0.1116
 7065SOL    HW222095   2.733   0.572   4.179 -2.3891 -3.6952  2.9866
 7066SOL     OW22096   4.962   0.638   2.110  0.6640  0.1749 -0.3191
 7066SOL    HW122097   4.931   0.682   2.026  2.5756 -0.0673 -1.1915
 7066SOL    HW222098   5.023   0.700   2.160  0.6283 -0.1993  0.2073
 7067SOL     OW22099   2.018   3.508   5.614  0.3980  0.3179 -0.0515
 7067SOL    HW122100   2.017   3.585   5.550  0.6750  1.1202  0.8817
 7067SOL    HW222101   1.980   3.537   5.702  0.9662 -0.4628  0.4732
 7068SOL     OW22102   4.937   5.641   3.123  0.5656 -0.0417  0.3334
 7068SOL    HW122103   4.954   5.644   3.025 -1.2582 -0.6176 -0.0392
 7068SOL    HW222104   4.973   5.556   3.161  0.5737 -0.1766  0.0192
 7069SOL     OW22105   3.352   3.651   4.861 -0.4388  0.5411  0.5924
 7069SOL    HW122106   3.401   3.647   4.948 -0.3231  0.5999  0.5303
 7069SOL    HW222107   3.284   3.577   4.858 -0.3908  0.4918  0.7012
 7070SOL     OW22108   0.486   0.648   5.905  0.2473  0.2488  0.4601
 7070SOL    HW122109   0.495   0.736   5.951 -0.2995  0.8180 -0.5114
 7070SOL    HW222110   0.469   0.577   5.974  0.5821  0.8991  1.2383
 7071SOL     OW22111   4.351   5.245   6.921  0.1114  0.2411 -0.5591
 7071SOL    HW122112   4.259   5.282   6.933 -0.1663 -0.3352 -0.8668
 7071SOL    HW222113   4.372   5.184   6.997 -0.2113 -0.5230 -1.0762
 7072SOL     OW22114   1.931   3.811   6.269  0.1498 -0.3857  0.1751
 7072SOL    HW122115   1.950   3.713   6.281 -1.3338 -0.6624  0.4371
 7072SOL    HW222116   1.914   3.852   6.358 -0.7771 -0.2299 -0.0712
 7073SOL     OW22117   5.862   2.044   3.925 -0.5035 -0.0407 -0.0727
 7073SOL    HW122118   5.931   2.068   3.993  0.3478 -0.9400 -0.5901
 7073SOL    HW222119   5.817   1.959   3.951  1.4549 -1.6931 -1.7183
 7074SOL     OW22120   6.663   1.794   4.676  0.3252 -0.2060  0.3224
 7074SOL    HW122121   6.565   1.801   4.693  0.6688  1.3991  2.0108
 7074SOL    HW222122   6.701   1.886   4.666  2.1094 -0.5549  2.8316
 7075SOL     OW22123   3.496   5.026   3.462 -0.8027 -0.2241  0.2733
 7075SOL    HW122124   3.587   5.019   3.504 -0.6624 -0.4052 -0.0561
 7075SOL    HW222125   3.504   5.008   3.364 -1.1597 -0.0077  0.2043
 7076SOL     OW22126   6.529   2.944   1.686 -0.1141 -0.0538  0.1190
 7076SOL    HW122127   6.518   2.869   1.750 -0.7381  1.3011  1.6557
 7076SOL    HW222128   6.440   2.986   1.667  0.2127  0.2745 -0.7810
 7077SOL     OW22129   4.974   5.742   2.195 -0.0511 -0.2646 -0.2935
 7077SOL    HW122130   5.016   5.818   2.146  0.8424 -1.7136 -1.8836
 7077SOL    HW222131   4.926   5.776   2.276 -0.9529  2.1651 -1.7484
 7078SOL     OW22132   0.701   3.062   4.890 -0.0947  0.2113  0.3827
 7078SOL    HW122133   0.635   2.987   4.878  1.4030 -1.2259  0.7234
 7078SOL    HW222134   0.790   3.024   4.914  0.8576  2.1090  0.0374
 7079SOL     OW22135   2.355   5.347   4.991  0.3202  0.4770 -0.4681
 7079SOL    HW122136   2.439   5.370   5.040 -0.3690  2.7740 -0.2440
 7079SOL    HW222137   2.376   5.326   4.896  1.0914  1.7478 -0.5966
 7080SOL     OW22138   4.124   2.243   5.857  0.2518  0.3680 -0.0559
 7080SOL    HW122139   4.082   2.169   5.910 -1.3747  0.4752 -1.1403
 7080SOL    HW222140   4.055   2.288   5.801  1.7681  0.7446 -1.7239
 7081SOL     OW22141   2.787   6.256   0.111 -0.1304  0.0552  0.0921
 7081SOL    HW122142   2.707   6.315   0.117  1.2927  2.0603  0.4709
 7081SOL    HW222143   2.812   6.243   0.015  0.1791  1.0009  0.0379
 7082SOL     OW22144   1.530   4.815   2.515 -0.3076  0.4638 -0.4377
 7082SOL    HW122145   1.555   4.808   2.612 -0.7162  2.6293 -0.1350
 7082SOL    HW222146   1.613   4.823   2.460 -0.1063  1.9220  0.0268
 7083SOL     OW22147   0.394   1.361   4.683  0.3530  0.3157 -0.1235
 7083SOL    HW122148   0.487   1.333   4.704 -0.1494 -0.9685  0.5122
 7083SOL    HW222149   0.353   1.403   4.765  0.4575  1.1403 -0.4858
 7084SOL     OW22150   0.552   1.064   6.283 -0.2286  0.0524  0.1057
 7084SOL    HW122151   0.494   1.145   6.290  0.8134  0.8459 -0.3426
 7084SOL    HW222152   0.569   1.027   6.374  0.0421  0.8748  0.3974
 7085SOL     OW22153   5.796   4.747   0.516 -0.1888 -0.2204  0.2866
 7085SOL    HW122154   5.763   4.829   0.468 -0.9123 -0.2991  0.6330
 7085SOL    HW222155   5.802   4.766   0.613 -1.4123 -0.8901  0.5173
 7086SOL     OW22156   5.416   1.380   4.021  0.3112  0.5295 -0.2302
 7086SOL    HW122157   5.410   1.297   4.076 -0.8733  0.2540 -0.7258
 7086SOL    HW222158   5.330   1.431   4.030  0.2136  0.6328 -1.5492
 7087SOL     OW22159   6.379   1.954   2.208 -0.1097  0.5728 -0.0206
 7087SOL    HW122160   6.412   1.921   2.296 -0.2679 -0.3164 -0.2809
 7087SOL    HW222161   6.282   1.980   2.216  0.2589  1.8895  0.4099
 7088SOL     OW22162   0.175   0.949   3.297 -0.1753 -0.1885 -0.0410
 7088SOL    HW122163   0.171   0.850   3.315  1.8529 -1.5141 -5.1142
 7088SOL    HW222164   0.235   0.992   3.365 -2.5224 -1.8690  3.4255
 7089SOL     OW22165   1.428   6.229   0.617  0.1156  0.2354 -0.4292
 7089SOL    HW122166   1.407   6.327   0.616 -0.1618  0.1743 -1.0981
 7089SOL    HW222167   1.472   6.203   0.532 -0.2531 -0.3137 -0.4625
 7090SOL     OW22168   5.073   3.503   1.004 -0.1625  0.3956 -0.4033
 7090SOL    HW122169   5.096   3.568   1.076 -1.9925  0.4771  0.1561
 7090SOL    HW222170   5.072   3.411   1.042  2.3024 -0.0182 -1.1658
 7091SOL     OW22171   6.611   0.396   5.798 -0.3773 -0.6554  0.6127
 7091SOL    HW122172   6.641   0.447   5.717 -1.5238 -0.0857  0.5307
 7091SOL    HW222173   6.686   0.392   5.864 -0.0523  0.5904  0.3541
 7092SOL     OW22174   4.201   5.586   5.841 -0.2198  0.3661  0.2903
 7092SOL    HW122175   4.146   5.629   5.770  0.0885  0.0879 -0.1210
 7092SOL    HW222176   4.142   5.560   5.917 -0.8234 -0.7347 -0.5254
 7093SOL     OW22177   4.130   3.600   0.211  0.3354  0.0966  0.0148
 7093SOL    HW122178   4.122   3.676   0.147 -0.2039 -0.4327 -0.5656
 7093SOL    HW222179   4.043   3.550   0.215 -0.0340  0.8163  2.0769
 7094SOL     OW22180   4.352   6.940   4.721  0.0759 -0.2905  0.0673
 7094SOL    HW122181   4.428   6.890   4.680  1.2617  0.8773  0.7403
 7094SOL    HW222182   4.265   6.899   4.693  0.9296 -1.3689 -1.1023
 7095SOL     OW22183   4.201   5.500   1.791  0.1864 -0.1945 -0.0872
 7095SOL    HW122184   4.160   5.545   1.870 -0.2264 -1.2121  0.2868
 7095SOL    HW222185   4.207   5.401   1.807 -0.3863 -0.4929 -1.5247
 7096SOL     OW22186   0.185   6.994   0.881 -0.6793 -0.2788 -0.5172
 7096SOL    HW122187   0.215   6.962   0.791 -1.2253 -1.4399 -0.3081
 7096SOL    HW222188   0.264   7.008   0.940 -0.2802  0.9878 -1.3151
 7097SOL     OW22189   5.659   2.006   5.126  0.1095  0.2511 -0.2269
 7097SOL    HW122190   5.646   2.049   5.215 -0.7192  1.3169 -0.8402
 7097SOL    HW222191   5.589   1.937   5.112  1.3700 -1.2839  0.7085
 7098SOL     OW22192   1.589   2.140   2.634  0.6772  0.0608  0.1744
 7098SOL    HW122193   1.627   2.231   2.650 -0.1326  0.4097  0.1838
 7098SOL    HW222194   1.553   2.135   2.541 -0.7158  0.2985  0.6734
 7099SOL     OW22195   2.403   2.711   4.864  0.1327 -0.0843  0.0953
 7099SOL    HW122196   2.431   2.772   4.938  1.1230 -0.1650 -0.2070
 7099SOL    HW222197   2.427   2.616   4.887  0.9785 -0.0434 -0.5742
 7100SOL     OW22198   6.091   3.531   1.697  0.4572  0.5391 -0.0816
 7100SOL    HW122199   6.054   3.458   1.754 -2.8801 -0.1655 -2.8166
 7100SOL    HW222200   6.048   3.618   1.723  1.5039  0.8804  0.6002
 7101SOL     OW22201   3.299   6.762   3.941 -0.0602  0.0930  0.4262
 7101SOL    HW122202   3.297   6.704   4.023 -2.2748  0.8331  0.9862
 7101SOL    HW222203   3.295   6.858   3.969  1.2219  0.4497 -0.5349
 7102SOL     OW22204   6.566   1.111   1.548 -0.3699 -0.1471  0.6291
 7102SOL    HW122205   6.546   1.043   1.477 -0.1440 -1.4984  1.8032
 7102SOL    HW222206   6.482   1.131   1.599  0.1368 -1.9243  2.2562
 7103SOL     OW22207   5.622   3.895   4.761 -0.2490  0.4017  0.8676
 7103SOL    HW122208   5.687   3.892   4.837 -0.1060 -3.0236  0.7553
 7103SOL    HW222209   5.532   3.864   4.793 -0.7659  1.0342  0.0794
 7104SOL     OW22210   2.422   2.529   4.015 -0.2195 -0.0072  0.5105
 7104SOL    HW122211   2.488   2.468   4.059  2.5268  1.6612 -1.0291
 7104SOL    HW222212   2.419   2.616   4.064  1.1924  1.0665 -1.2113
 7105SOL     OW22213   2.940   3.446   4.295 -0.2808  0.0355 -0.4171
 7105SOL    HW122214   2.906   3.467   4.203 -0.5955  1.7287  0.0592
 7105SOL    HW222215   2.944   3.530   4.349  0.7500 -0.7921  0.8506
 7106SOL     OW22216   1.968   1.376   1.916 -0.1853  0.0133  0.0454
 7106SOL    HW122217   1.928   1.340   2.001  2.1438 -0.1632  1.1395
 7106SOL    HW222218   2.036   1.311   1.882  0.9262  1.3547 -0.3781
 7107SOL     OW22219   3.258   6.171   6.326 -0.3915 -0.7479  0.0198
 7107SOL    HW122220   3.223   6.259   6.357 -2.9622 -1.6006 -0.2231
 7107SOL    HW222221   3.299   6.122   6.403  1.0498  0.6015  0.1566
 7108SOL     OW22222   4.494   6.155   2.013  0.7651 -0.0918  0.0430
 7108SOL    HW122223   4.571   6.198   1.967  1.1831  0.0599  0.8783
 7108SOL    HW222224   4.519   6.063   2.043 -0.2820 -1.2058 -2.1951
 7109SOL     OW22225   3.510   6.357   5.184 -0.1266  0.5186 -0.2952
 7109SOL    HW122226   3.464   6.371   5.272 -0.7867  0.1820 -0.5820
 7109SOL    HW222227   3.462   6.408   5.113 -1.5382 -1.7392 -1.0513
 7110SOL     OW22228   1.082   5.105   4.678  0.5523 -0.6202  0.3378
 7110SOL    HW122229   1.138   5.028   4.647 -0.6803 -0.8548 -1.4233
 7110SOL    HW222230   0.985   5.084   4.663  0.1771  1.2300 -0.0509
 7111SOL     OW22231   6.180   1.789   5.228 -0.7721  0.3431  0.1594
 7111SOL    HW122232   6.094   1.840   5.227 -2.2923 -2.0307 -1.9159
 7111SOL    HW222233   6.199   1.754   5.137  0.7603 -1.7971  1.2164
 7112SOL     OW22234   0.183   5.893   5.235 -0.1311 -0.8463 -0.1850
 7112SOL    HW122235   0.272   5.910   5.193  0.0828 -3.2094 -0.8348
 7112SOL    HW222236   0.167   5.960   5.308  1.6448  0.3247 -0.8037
 7113SOL     OW22237   4.279   0.126   3.823 -0.1002  0.2373 -0.3856
 7113SOL    HW122238   4.294   0.197   3.892  0.1141 -0.2255  0.0491
 7113SOL    HW222239   4.313   0.039   3.857 -1.5111 -0.3428 -0.4013
 7114SOL     OW22240   4.577   3.019   1.075 -0.3183  0.4210  0.7511
 7114SOL    HW122241   4.619   3.099   1.033 -2.0249  0.0158 -1.9373
 7114SOL    HW222242   4.482   3.039   1.098 -0.9322 -0.9335 -0.4454
 7115SOL     OW22243   4.007   3.549   5.008  0.4739  0.0821  0.1082
 7115SOL    HW122244   4.072   3.579   4.939  0.7004 -1.2252 -0.2879
 7115SOL    HW222245   3.998   3.449   5.003 -0.7365  0.1330  0.8834
 7116SOL     OW22246   0.334   6.081   6.384  0.1371 -0.4727  0.2942
 7116SOL    HW122247   0.368   6.166   6.425  0.1198 -1.1480  1.7631
 7116SOL    HW222248   0.235   6.089   6.370  0.2456  0.0044 -0.2579
 7117SOL     OW22249   3.446   0.052   1.381 -0.3098  0.0224 -0.2479
 7117SOL    HW122250   3.347   0.044   1.368 -0.7264 -0.4175  2.5122
 7117SOL    HW222251   3.468   0.144   1.412 -0.1138 -0.3787  0.8399
 7118SOL     OW22252   4.825   4.938   5.325  0.5778  0.3075 -0.0366
 7118SOL    HW122253   4.916   4.904   5.350  0.0307 -0.1529  1.4824
 7118SOL    HW222254   4.799   4.902   5.236  1.4595 -0.3991 -0.0250
 7119SOL     OW22255   2.353   5.637   5.807 -0.5886 -0.3815  0.6549
 7119SOL    HW122256   2.358   5.685   5.719 -0.1717 -1.4883  0.0484
 7119SOL    HW222257   2.382   5.698   5.880  0.5554  0.1068 -0.1673
 7120SOL     OW22258   3.812   1.400   1.787  0.0593  0.6089  0.3254
 7120SOL    HW122259   3.796   1.419   1.691 -1.3842  0.9140  0.5974
 7120SOL    HW222260   3.905   1.366   1.800  0.3970  0.9434 -1.1076
 7121SOL     OW22261   0.297   6.415   1.364  0.0917 -0.4507 -0.1986
 7121SOL    HW122262   0.209   6.419   1.411  0.6043 -0.2082  0.7559
 7121SOL    HW222263   0.338   6.325   1.377 -0.6243 -1.0464 -1.8040
 7122SOL     OW22264   4.036   2.806   0.840 -0.5570  0.2637  0.0839
 7122SOL    HW122265   4.060   2.716   0.802  0.3840  0.3521  0.4359
 7122SOL    HW222266   4.103   2.831   0.909 -0.0273  1.8435 -0.9539
 7123SOL     OW22267   3.754   4.807   0.068  0.0302  0.1318 -0.4596
 7123SOL    HW122268   3.707   4.779  -0.016  0.1137  1.9429 -1.1489
 7123SOL    HW222269   3.724   4.898   0.094  2.3396  0.8965 -0.2992
 7124SOL     OW22270   4.249   4.363   0.080 -0.6235 -0.3241  0.0277
 7124SOL    HW122271   4.327   4.302   0.094 -0.4989  0.0593  1.0419
 7124SOL    HW222272   4.221   4.402   0.167 -0.6265  1.1702 -0.6236
 7125SOL     OW22273   1.579   6.124   1.095  0.1502  0.2738  0.3076
 7125SOL    HW122274   1.596   6.037   1.048 -0.9089 -0.2462  0.8411
 7125SOL    HW222275   1.511   6.110   1.167 -0.1175  1.5664  0.3361
 7126SOL     OW22276   2.882   5.550   5.942  0.2563 -0.3398 -0.1719
 7126SOL    HW122277   2.906   5.577   5.849 -0.5523 -0.2787 -0.3731
 7126SOL    HW222278   2.953   5.580   6.005  0.3062  0.5400 -0.6345
 7127SOL     OW22279   2.118   0.747   5.214 -0.7072  0.2047  0.0087
 7127SOL    HW122280   2.057   0.716   5.141 -0.0363  2.2577 -1.5402
 7127SOL    HW222281   2.198   0.791   5.174  0.5295 -0.1093  2.0138
 7128SOL     OW22282   2.783   2.781   6.054  0.0986  0.6017  0.4266
 7128SOL    HW122283   2.840   2.861   6.036 -2.1756  2.0424 -0.9355
 7128SOL    HW222284   2.781   2.723   5.972 -2.2228  1.8605 -0.5015
 7129SOL     OW22285   0.133   5.691   0.797 -0.1300 -0.0674  0.1745
 7129SOL    HW122286   0.154   5.606   0.845 -1.4371  0.8612  2.5499
 7129SOL    HW222287   0.178   5.691   0.708  0.6025 -2.8495  0.4605
 7130SOL     OW22288   3.860   1.870   2.318 -0.1733  0.0080 -0.0135
 7130SOL    HW122289   3.803   1.802   2.271  1.2372 -0.2121 -1.4819
 7130SOL    HW222290   3.809   1.956   2.325 -1.4849 -0.7879  0.6815
 7131SOL     OW22291   1.163   2.251   3.795  1.0282 -0.4123 -0.4495
 7131SOL    HW122292   1.233   2.231   3.864 -0.7817 -0.9239  1.3212
 7131SOL    HW222293   1.121   2.165   3.766 -0.3002  0.0289  0.1052
 7132SOL     OW22294   4.508   5.562   2.440 -0.3576 -0.3659 -0.0011
 7132SOL    HW122295   4.413   5.544   2.415 -0.6998  0.4166  0.6700
 7132SOL    HW222296   4.549   5.623   2.373 -0.4384 -0.4331 -0.1122
 7133SOL     OW22297   1.456   5.863   1.707  0.2799  0.5665 -0.0625
 7133SOL    HW122298   1.529   5.888   1.644  0.9379  0.0857  0.4946
 7133SOL    HW222299   1.377   5.923   1.692  0.8098  1.1365 -0.6200
 7134SOL     OW22300   3.932   4.853   3.958  0.7087  0.1330 -0.1780
 7134SOL    HW122301   3.842   4.812   3.942  1.0693 -0.9825  0.5706
 7134SOL    HW222302   3.930   4.906   4.043  0.7238  0.1986 -0.2189
 7135SOL     OW22303   0.873   4.611   0.294  0.2005  0.0633 -0.3754
 7135SOL    HW122304   0.938   4.640   0.223 -0.6295 -1.1193 -1.6739
 7135SOL    HW222305   0.780   4.625   0.261 -0.2007 -0.0421  0.6956
 7136SOL     OW22306   1.466   3.049   3.541  0.6355 -0.4347  0.1448
 7136SOL    HW122307   1.446   3.101   3.624  1.0668 -0.6198  0.3655
 7136SOL    HW222308   1.560   3.067   3.512  1.3423 -2.3140  1.1299
 7137SOL     OW22309   0.478   5.857   1.750  0.0824 -0.0595 -0.1044
 7137SOL    HW122310   0.552   5.790   1.744  0.4077  0.2046  0.7905
 7137SOL    HW222311   0.513   5.947   1.722 -0.3474 -0.2336 -1.2842
 7138SOL     OW22312   6.941   4.858   5.920  0.1997 -0.2113  0.0076
 7138SOL    HW122313   6.977   4.873   5.828 -0.7733 -2.5993 -0.8322
 7138SOL    HW222314   7.017   4.836   5.982  0.7577  0.5089 -0.3940
 7139SOL     OW22315   5.803   5.720   1.574  0.3002 -0.0846 -0.1262
 7139SOL    HW122316   5.828   5.745   1.480  0.5265 -0.5234 -0.1886
 7139SOL    HW222317   5.857   5.774   1.638  0.3144  0.0494 -0.2499
 7140SOL     OW22318   0.575   5.310   0.019  0.0824 -0.1459 -0.1918
 7140SOL    HW122319   0.508   5.262  -0.038 -0.6680  0.5098  0.1231
 7140SOL    HW222320   0.544   5.310   0.114 -0.2742  1.4983 -0.2734
 7141SOL     OW22321   2.169   0.648   6.132  0.0681  0.5294  0.0412
 7141SOL    HW122322   2.211   0.704   6.060 -1.6658  3.2299  0.9756
 7141SOL    HW222323   2.070   0.647   6.120 -0.0606 -1.1888  0.9370
 7142SOL     OW22324   4.265   6.685   6.194  0.0261  0.7858 -0.1908
 7142SOL    HW122325   4.166   6.683   6.211  0.0977  2.6564  0.7394
 7142SOL    HW222326   4.289   6.768   6.145  1.2086  0.6540  0.1242
 7143SOL     OW22327   2.998   1.634   6.740 -0.2651 -0.2473  0.3722
 7143SOL    HW122328   2.983   1.537   6.727 -1.0627 -0.1065  0.1980
 7143SOL    HW222329   3.024   1.652   6.835 -1.5728 -0.4734  0.7907
 7144SOL     OW22330   5.983   6.846   7.006  0.1042 -0.8105  0.1834
 7144SOL    HW122331   6.038   6.763   7.016 -0.2986 -0.8942  2.1310
 7144SOL    HW222332   5.958   6.858   6.910  4.1815 -0.2965 -1.0064
 7145SOL     OW22333   0.683   1.825   0.512 -0.0793 -0.7528 -0.4029
 7145SOL    HW122334   0.586   1.825   0.490 -0.6325 -1.0092  1.8011
 7145SOL    HW222335   0.726   1.907   0.474 -1.3481 -0.1700 -0.6377
 7146SOL     OW22336   0.089   0.804   4.810 -0.5047  0.3285  0.2964
 7146SOL    HW122337   0.054   0.898   4.812  0.8531  0.9810 -2.4844
 7146SOL    HW222338   0.180   0.803   4.851  0.0203  0.5284 -0.8280
 7147SOL     OW22339   1.842   0.266   1.354  0.4587  0.0263  0.7228
 7147SOL    HW122340   1.814   0.347   1.406  1.9306  0.8401  0.3008
 7147SOL    HW222341   1.939   0.272   1.332  0.6501 -1.9627  0.8317
 7148SOL     OW22342   5.046   6.893   6.732 -0.9153  0.1270 -0.0575
 7148SOL    HW122343   5.064   6.845   6.818  1.2490  1.3168  0.2222
 7148SOL    HW222344   5.118   6.872   6.666 -1.1094  1.2970 -0.6613
 7149SOL     OW22345   0.372   3.611   0.252  0.6777 -0.0433 -0.5633
 7149SOL    HW122346   0.296   3.652   0.304  2.2945  0.0998  1.8357
 7149SOL    HW222347   0.340   3.528   0.206 -0.6369 -0.8253  1.6092
 7150SOL     OW22348   2.192   3.432   0.676 -0.1909 -0.6821  0.5217
 7150SOL    HW122349   2.277   3.391   0.710 -0.4719 -0.6657  1.2696
 7150SOL    HW222350   2.119   3.417   0.743 -0.5762  0.0418  0.2770
 7151SOL     OW22351   4.777   3.960   6.553  0.2824 -0.3741 -0.3369
 7151SOL    HW122352   4.769   4.040   6.613  0.1133 -0.4245 -0.2929
 7151SOL    HW222353   4.834   3.983   6.475 -1.0241  0.2721 -1.1297
 7152SOL     OW22354   5.205   6.419   5.680 -0.2830  0.7539 -0.3269
 7152SOL    HW122355   5.174   6.432   5.586  2.8341 -0.0634 -1.5777
 7152SOL    HW222356   5.293   6.463   5.694 -0.2675  0.1577  2.0144
 7153SOL     OW22357   5.687   5.095   2.899  0.6015  0.2198 -0.7134
 7153SOL    HW122358   5.716   5.107   2.994 -0.3686  1.2592 -0.5209
 7153SOL    HW222359   5.743   5.025   2.855 -0.5311 -2.1663  1.3631
 7154SOL     OW22360   5.711   6.176   3.615  0.5734 -0.3336  0.0740
 7154SOL    HW122361   5.676   6.264   3.582  2.7377  0.1075 -1.3086
 7154SOL    HW222362   5.724   6.115   3.537  2.3659 -0.6084  0.5378
 7155SOL     OW22363   1.169   1.525   1.103 -0.3983 -0.7059 -0.1128
 7155SOL    HW122364   1.086   1.581   1.106 -0.6812 -1.1433  0.9396
 7155SOL    HW222365   1.144   1.428   1.106  0.0899 -0.9064 -1.8734
 7156SOL     OW22366   0.662   3.174   5.396  0.1792  0.5310  0.1705
 7156SOL    HW122367   0.671   3.260   5.346  0.9267 -0.0430 -0.7064
 7156SOL    HW222368   0.739   3.162   5.458 -0.7804  1.2762  1.5778
 7157SOL     OW22369   4.676   3.625   6.058  0.6017  0.7590  0.2348
 7157SOL    HW122370   4.771   3.652   6.073  0.7832  0.8917 -1.0585
 7157SOL    HW222371   4.673   3.535   6.015  0.2818  1.8879 -2.2745
 7158SOL     OW22372   4.642   0.147   5.501  0.1519 -0.0268  0.1405
 7158SOL    HW122373   4.649   0.223   5.566  0.4574  1.3605 -1.4473
 7158SOL    HW222374   4.546   0.135   5.475  0.1463  0.0808  0.1102
 7159SOL     OW22375   6.716   5.398   2.144  0.3507  0.0116 -0.6046
 7159SOL    HW122376   6.680   5.485   2.176 -0.2000 -0.2785 -0.4087
 7159SOL    HW222377   6.662   5.323   2.185  0.2484 -0.3894 -1.4537
 7160SOL     OW22378   6.106   6.085   2.870  0.1972 -0.3395 -0.0502
 7160SOL    HW122379   6.198   6.091   2.910  0.0648  1.4951  0.0735
 7160SOL    HW222380   6.062   6.000   2.899  1.4797 -0.7777  0.6888
 7161SOL     OW22381   3.337   2.556   1.783 -0.4185 -0.3047 -0.0065
 7161SOL    HW122382   3.375   2.637   1.828 -1.2155  0.7475 -1.1509
 7161SOL    HW222383   3.404   2.518   1.719 -0.5244  0.3028 -0.4902
 7162SOL     OW22384   1.107   6.199   0.334  0.0923  0.1348 -0.1386
 7162SOL    HW122385   1.150   6.160   0.415  0.8536  0.7460 -0.2319
 7162SOL    HW222386   1.158   6.170   0.253 -0.8921 -0.7902 -0.4448
 7163SOL     OW22387   6.478   0.101   5.880 -0.4542 -0.4664 -0.2264
 7163SOL    HW122388   6.447   0.194   5.898 -2.1586 -0.9126 -0.6619
 7163SOL    HW222389   6.578   0.099   5.875 -0.3767  1.2545  0.1686
 7164SOL     OW22390   0.801   0.005   1.191 -0.1494 -0.7603  0.0118
 7164SOL    HW122391   0.801   0.103   1.167 -0.0996 -0.6324  0.5242
 7164SOL    HW222392   0.733  -0.042   1.136  0.4037 -0.5840 -0.8356
 7165SOL     OW22393   4.896   2.556   6.225 -0.3901 -0.2442  0.1761
 7165SOL    HW122394   4.831   2.612   6.275 -0.8725 -0.7849  0.1660
 7165SOL    HW222395   4.870   2.460   6.233 -0.6894 -0.3211 -1.4062
 7166SOL     OW22396   6.776   5.742   3.900  0.1671 -0.2767  0.4770
 7166SOL    HW122397   6.719   5.724   3.981 -2.1512  0.4737 -0.8804
 7166SOL    HW222398   6.871   5.720   3.921 -0.7371 -2.8084  2.5169
 7167SOL     OW22399   1.387   3.924   6.672 -0.1665  0.7609 -0.3236
 7167SOL    HW122400   1.376   3.834   6.631 -1.6901  0.6591  0.2420
 7167SOL    HW222401   1.461   3.922   6.739 -1.6353 -0.6950  1.3216
 7168SOL     OW22402   0.483   5.739   4.482  0.7054  0.0528  0.1921
 7168SOL    HW122403   0.456   5.779   4.569  2.0021 -1.4479  1.3580
 7168SOL    HW222404   0.528   5.808   4.425  0.1837  0.9609  0.8644
 7169SOL     OW22405   1.096   4.703   5.756 -0.0576 -0.0447  0.5495
 7169SOL    HW122406   1.109   4.754   5.841  2.1483  0.8233 -0.2326
 7169SOL    HW222407   1.184   4.696   5.708 -1.1468 -0.9702 -1.4057
 7170SOL     OW22408   4.149   1.854   2.292  0.0066  0.5666  0.2866
 7170SOL    HW122409   4.086   1.930   2.305  0.7727  1.4898 -1.1676
 7170SOL    HW222410   4.197   1.835   2.378 -0.5042  1.4402  0.7743
 7171SOL     OW22411   0.139   4.728   1.689  0.3382  0.3573  0.4502
 7171SOL    HW122412   0.105   4.806   1.742 -0.0203 -0.9949  2.2880
 7171SOL    HW222413   0.226   4.698   1.726  0.5024 -0.0931 -0.2852
 7172SOL     OW22414   1.961   3.069   3.025 -0.1584 -0.3214  0.7550
 7172SOL    HW122415   1.928   2.983   3.063 -1.5850  0.2154  0.8048
 7172SOL    HW222416   2.042   3.052   2.970 -1.4733 -2.0306 -0.8032
 7173SOL     OW22417   1.500   5.737   6.344  0.1124  0.0717  0.4557
 7173SOL    HW122418   1.558   5.807   6.304  2.7331 -0.7009  2.6165
 7173SOL    HW222419   1.404   5.761   6.330  0.8199  1.2422 -3.5944
 7174SOL     OW22420   5.798   1.995   1.516  0.2572 -0.5036  0.0180
 7174SOL    HW122421   5.870   1.947   1.566  0.7733  0.2371  0.0019
 7174SOL    HW222422   5.734   1.928   1.477  1.4580 -1.2337 -0.7678
 7175SOL     OW22423   5.987   1.364   7.018  0.0256  0.2546  0.1972
 7175SOL    HW122424   6.000   1.332   7.112  0.7075  0.3245  0.1341
 7175SOL    HW222425   5.908   1.318   6.977  0.6966 -0.9969  0.2645
 7176SOL     OW22426   6.583   0.886   1.002 -0.3850  0.0440 -0.2710
 7176SOL    HW122427   6.633   0.815   1.052 -2.3923 -1.7588 -0.6829
 7176SOL    HW222428   6.607   0.976   1.039  2.3915 -0.7821  0.1469
 7177SOL     OW22429   1.578   6.896   3.214 -0.1075 -0.3159  0.1309
 7177SOL    HW122430   1.480   6.908   3.226  0.0358  0.8466  0.3117
 7177SOL    HW222431   1.627   6.950   3.283  0.6530 -2.0445  0.9893
 7178SOL     OW22432   2.160   6.646   6.652 -0.9567  0.5469  0.0644
 7178SOL    HW122433   2.176   6.554   6.615 -2.6877 -0.0576  0.7297
 7178SOL    HW222434   2.231   6.708   6.618 -0.1676 -0.8634 -0.9851
 7179SOL     OW22435   3.133   4.949   6.687  0.4859 -0.3674  0.1173
 7179SOL    HW122436   3.047   4.967   6.734  1.1864  2.0688  0.5970
 7179SOL    HW222437   3.122   4.967   6.589  0.3151 -0.6119  0.0904
 7180SOL     OW22438   6.451   3.753   1.760 -0.2886 -1.1645  0.4863
 7180SOL    HW122439   6.544   3.722   1.781 -0.1408 -0.5920  0.6820
 7180SOL    HW222440   6.454   3.836   1.704 -0.6463  0.0208  2.1405
 7181SOL     OW22441   3.540   0.053   0.061 -0.1507 -0.5782  0.2700
 7181SOL    HW122442   3.561   0.077  -0.034  0.0878 -2.3158 -0.1588
 7181SOL    HW222443   3.622   0.018   0.106 -0.5962 -1.1383  0.6622
 7182SOL     OW22444   2.615   0.304   2.834 -0.7423 -0.2788 -0.1130
 7182SOL    HW122445   2.628   0.238   2.760 -2.0264  0.8274 -1.4084
 7182SOL    HW222446   2.537   0.277   2.890 -0.7272 -0.3361 -0.1202
 7183SOL     OW22447   1.611   0.738   1.545 -0.3121  0.4599 -0.0530
 7183SOL    HW122448   1.543   0.709   1.613  1.5186  1.5947  2.4013
 7183SOL    HW222449   1.590   0.831   1.515  0.2981  0.9510  0.9820
 7184SOL     OW22450   4.791   6.795   2.550  0.2259  0.0345 -0.1714
 7184SOL    HW122451   4.869   6.820   2.493  0.0377 -1.6912 -1.2563
 7184SOL    HW222452   4.758   6.704   2.524 -0.8041 -0.1911  1.7176
 7185SOL     OW22453   4.848   1.072   4.145 -0.4290 -0.0119  0.1546
 7185SOL    HW122454   4.751   1.097   4.151 -0.5935 -0.4385 -0.6409
 7185SOL    HW222455   4.879   1.079   4.050  1.2515  3.4422  0.8016
 7186SOL     OW22456   5.194   2.732   5.079  0.0794 -0.1260  0.3064
 7186SOL    HW122457   5.220   2.635   5.077  2.0065  0.3546  0.0960
 7186SOL    HW222458   5.102   2.743   5.040  0.2450 -1.7482 -0.6307
 7187SOL     OW22459   4.143   3.233   5.197 -0.0088  0.4949  0.0766
 7187SOL    HW122460   4.242   3.223   5.187 -0.2909 -1.5058 -1.3611
 7187SOL    HW222461   4.108   3.168   5.264 -0.4300  0.7828  0.1457
 7188SOL     OW22462   4.783   5.238   0.112  0.1982  0.2641  0.0758
 7188SOL    HW122463   4.756   5.291   0.032  0.4259 -1.2104 -1.0178
 7188SOL    HW222464   4.872   5.270   0.145 -0.1681  1.2642  0.1121
 7189SOL     OW22465   1.681   2.270   0.047 -0.5860  0.2971  0.2403
 7189SOL    HW122466   1.686   2.172   0.027 -1.0330  0.1748  0.7098
 7189SOL    HW222467   1.731   2.320  -0.023  0.3511 -0.3193  0.4491
 7190SOL     OW22468   6.584   6.598   6.571  0.3758 -0.2103 -0.5338
 7190SOL    HW122469   6.529   6.564   6.647 -0.7649 -0.2062 -1.3334
 7190SOL    HW222470   6.678   6.564   6.580  0.5345  0.6236  1.4053
 7191SOL     OW22471   0.496   5.184   2.206 -0.2905  0.3685  0.2973
 7191SOL    HW122472   0.579   5.219   2.248  0.4503 -3.9928  3.1140
 7191SOL    HW222473   0.416   5.224   2.251  0.4138  0.5903  1.3796
 7192SOL     OW22474   4.404   4.477   5.950 -0.4899  0.2135 -0.1260
 7192SOL    HW122475   4.489   4.424   5.951  0.7528  2.1070  0.2499
 7192SOL    HW222476   4.370   4.484   5.857  0.9778  1.1856 -0.6306
 7193SOL     OW22477   4.340   2.236   3.561  0.2584  0.2390  0.4369
 7193SOL    HW122478   4.366   2.210   3.468 -0.8430 -0.1076  0.2097
 7193SOL    HW222479   4.396   2.314   3.591  2.5433 -1.3469  0.5487
 7194SOL     OW22480   3.389   3.331   6.208  0.1350 -0.2263  0.9440
 7194SOL    HW122481   3.365   3.424   6.235 -2.6543 -0.5605 -0.0910
 7194SOL    HW222482   3.464   3.334   6.142 -1.0215  1.4533 -0.3564
 7195SOL     OW22483   2.330   4.385   4.664 -0.1363 -0.1800 -0.0348
 7195SOL    HW122484   2.317   4.372   4.566 -0.4626  0.2203 -0.0459
 7195SOL    HW222485   2.372   4.303   4.703  1.5826  0.2927 -0.7968
 7196SOL     OW22486   4.405   3.559   1.701 -0.9121 -0.1806  0.3094
 7196SOL    HW122487   4.499   3.531   1.682 -0.5691 -0.9440  2.8190
 7196SOL    HW222488   4.343   3.513   1.638  0.1556 -2.1210  0.5883
 7197SOL     OW22489   1.752   4.630   6.745 -0.5561  0.8962 -0.2565
 7197SOL    HW122490   1.786   4.598   6.656 -2.0977 -0.7791 -0.2922
 7197SOL    HW222491   1.772   4.728   6.754  0.3262  0.9411 -2.1095
 7198SOL     OW22492   0.997   1.952   3.489 -0.7088  0.0322 -0.2023
 7198SOL    HW122493   1.044   2.028   3.443  0.9059 -0.1253  1.0813
 7198SOL    HW222494   0.957   1.891   3.421 -1.1017  1.4355 -1.2837
 7199SOL     OW22495   6.672   1.924   6.016  0.4193 -0.1226  0.2255
 7199SOL    HW122496   6.686   1.965   6.106 -2.0712  0.9171  0.2141
 7199SOL    HW222497   6.748   1.861   5.996  1.5729  0.4072  2.5553
 7200SOL     OW22498   1.128   4.607   4.530 -0.2531 -0.0045 -0.2433
 7200SOL    HW122499   1.117   4.536   4.599 -2.0935  0.7140  0.2521
 7200SOL    HW222500   1.130   4.565   4.439 -0.5191 -0.7446  0.0865
 7201SOL     OW22501   5.908   5.646   4.855  0.3006  0.1315  0.2003
 7201SOL    HW122502   5.926   5.701   4.773  2.6998 -1.6232 -0.5352
 7201SOL    HW222503   5.861   5.562   4.829  2.5781 -1.2417  0.2754
 7202SOL     OW22504   4.829   0.375   6.166  0.3346 -0.0105  0.6752
 7202SOL    HW122505   4.808   0.395   6.070  0.3362  1.0796  0.8872
 7202SOL    HW222506   4.916   0.327   6.171  1.1583  1.3841  0.2243
 7203SOL     OW22507   1.722   1.626   0.080 -0.8189  0.5322 -0.6400
 7203SOL    HW122508   1.751   1.599   0.172 -1.9594  1.4815  0.0156
 7203SOL    HW222509   1.766   1.713   0.055  0.4526 -0.3203 -1.5200
 7204SOL     OW22510   5.629   1.178   2.695 -0.8434 -0.2652  0.0857
 7204SOL    HW122511   5.702   1.110   2.700 -0.4379  0.2145  0.7910
 7204SOL    HW222512   5.661   1.258   2.644 -1.6666 -1.0143 -1.6767
 7205SOL     OW22513   2.213   2.974   3.979 -0.0659  0.5333 -0.0987
 7205SOL    HW122514   2.289   2.930   4.025 -0.5286 -1.6626 -1.2677
 7205SOL    HW222515   2.222   2.962   3.880 -1.5779  0.7999 -0.3008
 7206SOL     OW22516   4.173   2.335   6.989 -0.1679 -0.0862 -0.7063
 7206SOL    HW122517   4.188   2.423   7.033 -0.2397 -0.4406  0.0587
 7206SOL    HW222518   4.162   2.347   6.891 -1.4341  0.9019 -0.4649
 7207SOL     OW22519   1.915   2.236   2.677  0.2832 -0.3516  0.3746
 7207SOL    HW122520   1.863   2.200   2.600 -1.0739  1.7682  0.1985
 7207SOL    HW222521   1.934   2.163   2.743 -1.0751 -1.6143 -0.5785
 7208SOL     OW22522   3.108   1.400   3.522 -0.7316  0.4422  0.4626
 7208SOL    HW122523   3.147   1.472   3.579  2.9972  0.2212 -1.4755
 7208SOL    HW222524   3.131   1.418   3.426  0.1081 -3.1133 -0.1389
 7209SOL     OW22525   5.982   0.775   1.020 -0.0879  0.2783  0.0395
 7209SOL    HW122526   6.067   0.814   1.057 -0.5918  1.3905  0.0904
 7209SOL    HW222527   5.913   0.848   1.012 -1.1223 -0.6438  0.2348
 7210SOL     OW22528   2.654   0.741   4.149 -0.0464 -0.0611  0.2694
 7210SOL    HW122529   2.590   0.793   4.206 -2.7758 -0.6253 -2.0593
 7210SOL    HW222530   2.710   0.804   4.095 -1.1283  0.4775 -0.2431
 7211SOL     OW22531   4.635   6.060   3.678 -0.0915  0.0944 -0.5108
 7211SOL    HW122532   4.686   6.074   3.764 -1.1181  0.3392  0.0746
 7211SOL    HW222533   4.679   5.987   3.625  1.0583  0.5302 -0.1847
 7212SOL     OW22534   0.706   4.076   3.479  0.0973 -0.4040 -0.2887
 7212SOL    HW122535   0.717   4.094   3.577  1.2841  1.2307 -0.6902
 7212SOL    HW222536   0.610   4.058   3.459 -0.6039  1.7393  0.8203
 7213SOL     OW22537   5.678   2.086   0.501  0.3073 -0.9319  0.1525
 7213SOL    HW122538   5.624   2.109   0.583  1.4373  1.2033  0.3869
 7213SOL    HW222539   5.616   2.057   0.428 -1.4410  2.4499  0.0505
 7214SOL     OW22540   5.673   0.975   0.316  0.6243 -0.2420  0.1582
 7214SOL    HW122541   5.687   1.032   0.236  0.8249 -0.7610 -0.1825
 7214SOL    HW222542   5.688   0.879   0.292 -0.7634 -0.5573  0.4592
 7215SOL     OW22543   5.491   0.216   2.296  0.4724 -0.4010 -0.2797
 7215SOL    HW122544   5.508   0.289   2.362 -0.5369 -0.1824 -0.2431
 7215SOL    HW222545   5.481   0.255   2.205 -1.3831 -0.3212 -0.0669
 7216SOL     OW22546   6.705   5.655   4.417 -0.6304  0.0145 -0.3436
 7216SOL    HW122547   6.653   5.737   4.443 -0.1741  0.4667 -0.8293
 7216SOL    HW222548   6.704   5.645   4.318  0.9976  0.5846 -0.4466
 7217SOL     OW22549   0.726   0.609   2.763  0.1537 -0.4086 -0.1820
 7217SOL    HW122550   0.654   0.678   2.757  1.3906  0.7795 -3.2501
 7217SOL    HW222551   0.744   0.588   2.859 -1.3800  2.3314  0.8100
 7218SOL     OW22552   6.400   3.760   6.251 -0.2838  0.0972 -0.4968
 7218SOL    HW122553   6.329   3.780   6.183 -1.7874 -1.4156  0.5241
 7218SOL    HW222554   6.373   3.799   6.339 -0.0815 -0.8279 -0.0052
 7219SOL     OW22555   5.157   5.601   0.779  0.2084 -0.3105  0.4371
 7219SOL    HW122556   5.071   5.584   0.731  1.0882 -1.0328 -0.9275
 7219SOL    HW222557   5.219   5.653   0.720  1.0971 -0.6792  1.0252
 7220SOL     OW22558   5.851   3.336   3.686  0.1719 -0.0147  0.4955
 7220SOL    HW122559   5.934   3.374   3.726  0.3210 -1.1823  1.3455
 7220SOL    HW222560   5.776   3.341   3.752 -0.3530  0.7163 -0.1427
 7221SOL     OW22561   5.340   3.726   4.046 -0.3385 -0.7508  0.1411
 7221SOL    HW122562   5.255   3.764   4.081 -1.4497 -3.1703  0.2636
 7221SOL    HW222563   5.360   3.640   4.093  2.4185 -0.0575  0.4042
 7222SOL     OW22564   0.482   6.633   4.532 -0.9064  0.5656  0.0481
 7222SOL    HW122565   0.476   6.673   4.623 -0.8304  2.5744 -0.7924
 7222SOL    HW222566   0.526   6.543   4.538  1.6757  1.8020  1.6923
 7223SOL     OW22567   0.380   5.464   1.920  0.6414 -0.3261  0.1620
 7223SOL    HW122568   0.367   5.505   1.830  0.8217  1.0088  0.7235
 7223SOL    HW222569   0.431   5.378   1.910 -1.0463 -1.2360 -1.1797
 7224SOL     OW22570   5.345   2.534   2.055 -0.1929 -0.8905  0.3843
 7224SOL    HW122571   5.402   2.493   1.983 -0.4185  1.8702 -1.5331
 7224SOL    HW222572   5.250   2.536   2.024 -0.1474  1.2395  0.2538
 7225SOL     OW22573   6.740   5.411   0.134  0.5407 -0.5295 -0.1733
 7225SOL    HW122574   6.691   5.347   0.074  0.4551  1.9141 -2.9467
 7225SOL    HW222575   6.675   5.466   0.186  0.4500  0.0217 -0.8584
 7226SOL     OW22576   0.372   1.256   6.365 -0.2986 -0.1221 -0.4418
 7226SOL    HW122577   0.337   1.250   6.272 -1.5812 -1.3293  0.0866
 7226SOL    HW222578   0.401   1.350   6.384  0.6769 -0.0115 -2.2680
 7227SOL     OW22579   2.845   6.354   2.915 -0.1042 -0.0894 -0.0152
 7227SOL    HW122580   2.764   6.297   2.925  0.3666 -0.9604 -1.0668
 7227SOL    HW222581   2.887   6.368   3.005 -2.3136  1.7713  0.8286
 7228SOL     OW22582   5.481   3.810   2.762 -0.3101  0.1263  0.1093
 7228SOL    HW122583   5.567   3.836   2.718 -0.3743 -0.0731 -0.1415
 7228SOL    HW222584   5.478   3.710   2.773 -0.9537  0.0297 -0.8380
 7229SOL     OW22585   6.442   1.820   5.858  0.0199 -0.1079  0.1209
 7229SOL    HW122586   6.438   1.876   5.776  0.9192 -0.8096 -0.4152
 7229SOL    HW222587   6.515   1.853   5.918  0.7929 -0.8892 -0.3596
 7230SOL     OW22588   2.156   3.360   4.267  0.3252  0.0666  0.0985
 7230SOL    HW122589   2.130   3.361   4.170 -1.2327 -1.7152  0.4517
 7230SOL    HW222590   2.178   3.267   4.295 -1.5482  0.1115  1.9881
 7231SOL     OW22591   3.068   3.377   6.682  0.0508 -0.4306 -0.1045
 7231SOL    HW122592   3.052   3.455   6.744 -0.9198 -1.6869  1.3066
 7231SOL    HW222593   3.001   3.378   6.609 -1.1260 -0.8867  0.9265
 7232SOL     OW22594   6.494   1.328   3.910  0.1549 -0.6742  0.2632
 7232SOL    HW122595   6.552   1.368   3.839 -1.2255  0.1671 -0.4053
 7232SOL    HW222596   6.542   1.332   3.998  0.6012  1.2127 -0.0309
 7233SOL     OW22597   1.175   0.742   6.412  0.3806 -0.0973 -0.5325
 7233SOL    HW122598   1.087   0.756   6.366 -0.0094 -0.4906  0.0724
 7233SOL    HW222599   1.171   0.781   6.503  0.6444 -0.5934 -0.3034
 7234SOL     OW22600   0.876   4.888   4.897 -0.1004  0.8877  0.0243
 7234SOL    HW122601   0.776   4.881   4.895 -0.3447  1.9396  3.2763
 7234SOL    HW222602   0.914   4.847   4.813 -3.2830  2.0485 -2.1904
 7235SOL     OW22603   5.633   6.928   1.738  0.2857  0.1940 -0.2832
 7235SOL    HW122604   5.646   6.830   1.754  0.7514  0.5633  1.9260
 7235SOL    HW222605   5.704   6.962   1.677 -0.0524 -0.8779 -1.3105
 7236SOL     OW22606   6.801   3.315   3.358 -0.3481 -0.7016 -0.1982
 7236SOL    HW122607   6.817   3.239   3.295 -1.4004 -0.2499 -1.0395
 7236SOL    HW222608   6.874   3.382   3.349  0.5497 -1.5547  0.4938
 7237SOL     OW22609   5.215   1.030   1.800  0.6935 -0.1888 -0.0358
 7237SOL    HW122610   5.212   1.019   1.899 -0.9064 -0.0738 -0.0470
 7237SOL    HW222611   5.201   1.126   1.776 -0.4991 -0.4489 -0.4150
 7238SOL     OW22612   5.303   3.824   6.460 -0.1342 -0.1862  0.7431
 7238SOL    HW122613   5.306   3.915   6.501  0.1107  0.7673 -1.2764
 7238SOL    HW222614   5.386   3.774   6.484  0.5996  0.8182  0.3538
 7239SOL     OW22615   6.324   4.228   3.621  0.1675 -0.0596 -0.3129
 7239SOL    HW122616   6.253   4.279   3.671 -0.5681 -1.0639 -0.2943
 7239SOL    HW222617   6.303   4.228   3.524  0.0736 -0.4517 -0.2950
 7240SOL     OW22618   2.740   0.120   0.250  0.5480  0.6190 -0.4529
 7240SOL    HW122619   2.794   0.056   0.305 -0.9267  0.4246  0.8357
 7240SOL    HW222620   2.702   0.073   0.171  0.4993  0.2049 -0.1873
 7241SOL     OW22621   2.741   0.980   3.049  0.0782 -0.3355  0.0731
 7241SOL    HW122622   2.771   0.887   3.074  1.4864  0.2094  0.5244
 7241SOL    HW222623   2.683   1.016   3.122 -0.4474 -0.8500 -0.0878
 7242SOL     OW22624   0.206   2.900   5.903 -0.0274  0.0068 -0.3210
 7242SOL    HW122625   0.110   2.879   5.884  0.1692 -0.1054 -1.2423
 7242SOL    HW222626   0.220   2.908   6.001 -0.5486 -2.2131 -0.0057
 7243SOL     OW22627   1.371   3.233   6.278  0.0476  0.1769  0.2350
 7243SOL    HW122628   1.326   3.244   6.366 -3.6082 -1.7974 -1.1588
 7243SOL    HW222629   1.445   3.166   6.287  0.4617  0.8144  1.9575
 7244SOL     OW22630   0.813   6.656   6.354  0.2520  0.0802  0.4370
 7244SOL    HW122631   0.838   6.630   6.261  0.9653  1.0059  0.3499
 7244SOL    HW222632   0.855   6.744   6.376  1.9864 -1.1526  2.4144
 7245SOL     OW22633   2.191   2.596   0.620 -0.6469 -0.6738 -0.0914
 7245SOL    HW122634   2.124   2.665   0.594  0.3077  0.9746  1.5632
 7245SOL    HW222635   2.278   2.617   0.575 -0.4028 -0.9162  0.2668
 7246SOL     OW22636   5.697   6.306   5.052  0.4403  0.5302  0.4332
 7246SOL    HW122637   5.650   6.277   4.968  2.2442 -0.9331 -0.1315
 7246SOL    HW222638   5.662   6.396   5.079 -0.9194  0.5959 -1.2984
 7247SOL     OW22639   3.603   3.543   4.141 -0.1018 -0.3730 -0.3018
 7247SOL    HW122640   3.537   3.580   4.207 -0.9268 -1.3105 -0.5847
 7247SOL    HW222641   3.692   3.534   4.186 -0.5745 -0.7055  0.6138
 7248SOL     OW22642   1.576   2.277   4.965 -0.1591  0.5876 -0.5590
 7248SOL    HW122643   1.668   2.239   4.954 -1.0152 -1.5700 -0.7542
 7248SOL    HW222644   1.578   2.375   4.945  1.8184  0.3304 -1.9700
 7249SOL     OW22645   2.281   6.901   2.024 -0.3650 -0.1792 -0.2922
 7249SOL    HW122646   2.255   6.887   1.928 -0.3156 -1.4005 -0.1415
 7249SOL    HW222647   2.321   6.817   2.060 -1.3257 -0.0734  1.1049
 7250SOL     OW22648   4.197   4.660   5.314 -0.5314 -0.6949  0.0247
 7250SOL    HW122649   4.265   4.641   5.384  0.6552  2.5048 -0.0972
 7250SOL    HW222650   4.219   4.609   5.231  1.9687  0.4482 -0.1032
 7251SOL     OW22651   1.666   5.874   3.325 -0.4390  0.6785 -0.1916
 7251SOL    HW122652   1.713   5.841   3.407 -1.3900  0.7870  0.4190
 7251SOL    HW222653   1.617   5.798   3.282 -1.6260  1.0084  0.5239
 7252SOL     OW22654   3.408   4.141   2.855 -0.4864 -0.1700  0.2250
 7252SOL    HW122655   3.349   4.216   2.885 -1.0320 -0.5187  0.0526
 7252SOL    HW222656   3.380   4.057   2.902  0.7508 -0.0915  1.1640
 7253SOL     OW22657   3.081   6.990   4.888 -0.2579  0.3367  0.0889
 7253SOL    HW122658   3.150   6.977   4.817 -0.3265  0.4610 -0.0026
 7253SOL    HW222659   3.018   7.064   4.860 -3.4976 -2.9263 -2.2084
 7254SOL     OW22660   0.695   3.312   6.435 -0.2491 -0.3505  0.0852
 7254SOL    HW122661   0.719   3.409   6.429 -1.1561  0.1843  3.2995
 7254SOL    HW222662   0.770   3.263   6.480  0.1296 -1.1511 -1.3730
 7255SOL     OW22663   5.890   2.350   1.219  0.0496  0.3466  0.0335
 7255SOL    HW122664   5.827   2.420   1.185  1.1916  1.2713 -0.2598
 7255SOL    HW222665   5.946   2.389   1.292  0.7097 -0.2557 -0.1420
 7256SOL     OW22666   2.353   0.592   4.608 -0.1962 -0.2323 -0.2149
 7256SOL    HW122667   2.274   0.597   4.669 -2.6385  0.7739 -3.1971
 7256SOL    HW222668   2.355   0.502   4.564  0.1047 -0.1283 -0.4179
 7257SOL     OW22669   1.823   1.728   5.949  0.0809 -0.3927 -0.2577
 7257SOL    HW122670   1.917   1.744   5.916 -0.2942  0.1610 -1.0870
 7257SOL    HW222671   1.826   1.667   6.028  1.1057 -0.7885 -0.5807
 7258SOL     OW22672   5.649   0.779   2.729  0.3332  0.2052  0.0971
 7258SOL    HW122673   5.640   0.679   2.726 -2.8592  0.3722  0.7550
 7258SOL    HW222674   5.666   0.813   2.637  3.0458 -0.9527  0.0634
 7259SOL     OW22675   0.067   2.483   2.033 -0.4893 -0.3830  0.4270
 7259SOL    HW122676   0.163   2.467   2.013 -0.6636 -1.5078  0.4448
 7259SOL    HW222677   0.013   2.470   1.950 -0.6342  0.2558  0.4142
 7260SOL     OW22678   5.386   2.247   0.710 -0.4916 -0.1167  0.2592
 7260SOL    HW122679   5.395   2.149   0.723  0.0241 -0.1469 -0.3051
 7260SOL    HW222680   5.436   2.295   0.783  2.0007 -0.2899 -1.2374
 7261SOL     OW22681   0.277   3.326   0.220  0.4485 -0.3233 -0.3278
 7261SOL    HW122682   0.362   3.317   0.272  0.8304 -0.4225 -0.9702
 7261SOL    HW222683   0.204   3.277   0.268  0.8754 -0.7074 -0.0605
 7262SOL     OW22684   2.757   1.123   4.936 -0.2476  0.3061  0.4546
 7262SOL    HW122685   2.735   1.219   4.918 -0.3368  0.4939  1.5218
 7262SOL    HW222686   2.850   1.104   4.905 -0.7049  0.3600 -1.0428
 7263SOL     OW22687   6.673   0.569   5.587 -0.5016  0.1908 -0.4105
 7263SOL    HW122688   6.665   0.662   5.623 -1.9735 -0.1408  0.2343
 7263SOL    HW222689   6.674   0.571   5.487  1.4101  0.9978 -0.4082
 7264SOL     OW22690   4.173   1.237   1.132 -0.1615 -0.1674 -0.2017
 7264SOL    HW122691   4.249   1.196   1.081 -0.9223 -2.1466  0.1742
 7264SOL    HW222692   4.101   1.170   1.145 -0.8605  0.8588  1.7644
 7265SOL     OW22693   3.835   1.639   0.814  0.2617  0.4030  0.0011
 7265SOL    HW122694   3.875   1.635   0.905  0.1596  0.6331  0.0563
 7265SOL    HW222695   3.907   1.623   0.746  0.0086 -1.6822  0.1668
 7266SOL     OW22696   6.194   0.245   5.511 -0.3981 -0.5224  0.2936
 7266SOL    HW122697   6.250   0.326   5.531  0.8069 -1.1222 -0.5035
 7266SOL    HW222698   6.230   0.166   5.561 -0.6042 -0.8913 -0.1344
 7267SOL     OW22699   6.986   3.858   5.942 -0.1823  0.2753  0.5818
 7267SOL    HW122700   7.021   3.822   6.028  2.1203  2.1093  0.5012
 7267SOL    HW222701   7.033   3.813   5.866  0.0008  0.7935  0.3844
 7268SOL     OW22702   3.495   5.719   1.696 -0.0719  0.2207  0.1627
 7268SOL    HW122703   3.408   5.670   1.701 -0.1455  0.4378  1.4402
 7268SOL    HW222704   3.562   5.662   1.648 -1.3147  0.7305 -2.3228
 7269SOL     OW22705   3.392   5.887   4.547  0.1459  0.7134  0.2673
 7269SOL    HW122706   3.342   5.932   4.621 -0.7954 -0.4740  0.3797
 7269SOL    HW222707   3.461   5.826   4.586  0.3314  0.8397  0.1386
 7270SOL     OW22708   1.008   1.304   2.631  0.3674  0.6327  0.0151
 7270SOL    HW122709   0.939   1.234   2.654 -1.4330  2.2436 -0.2155
 7270SOL    HW222710   1.098   1.274   2.662 -0.3668 -1.6895  0.0900
 7271SOL     OW22711   1.169   4.930   3.572  0.2293  0.2121 -0.2757
 7271SOL    HW122712   1.232   4.902   3.500  1.9134  0.6008  0.9617
 7271SOL    HW222713   1.176   5.029   3.585 -0.3147  0.1963  0.1632
 7272SOL     OW22714   5.786   5.702   1.094 -0.9595 -0.4589 -0.3143
 7272SOL    HW122715   5.798   5.800   1.078  1.2104 -0.2883  1.8373
 7272SOL    HW222716   5.813   5.651   1.012 -1.3047  0.6867 -1.1647
 7273SOL     OW22717   2.225   1.858   4.769 -0.6640 -0.4718  0.7531
 7273SOL    HW122718   2.181   1.943   4.740  1.0645 -0.1195 -1.1004
 7273SOL    HW222719   2.313   1.879   4.812 -0.4538 -1.2965  0.7472
 7274SOL     OW22720   0.598   5.500   4.361  0.2061  0.2931  0.4697
 7274SOL    HW122721   0.526   5.434   4.338  0.2983 -0.0141  1.0416
 7274SOL    HW222722   0.555   5.586   4.389  0.0321 -0.0574  1.3250
 7275SOL     OW22723   1.329   4.533   2.526 -0.5452 -0.1879  0.0486
 7275SOL    HW122724   1.378   4.609   2.484 -2.4040  2.0753  1.6870
 7275SOL    HW222725   1.232   4.558   2.537 -0.8940 -2.1466  2.1503
 7276SOL     OW22726   4.753   6.890   4.106  1.1469 -0.2868  0.3539
 7276SOL    HW122727   4.804   6.810   4.138 -1.0934 -1.4645  1.2104
 7276SOL    HW222728   4.724   6.945   4.183  2.1746  1.0710 -0.2023
 7277SOL     OW22729   5.562   1.168   1.115 -0.5353  0.3489 -0.0349
 7277SOL    HW122730   5.571   1.220   1.030 -1.2514  1.1533  0.3543
 7277SOL    HW222731   5.466   1.171   1.145 -0.4701 -0.7257  0.3055
 7278SOL     OW22732   4.024   3.142   2.988 -0.1862 -0.0940  0.1988
 7278SOL    HW122733   3.926   3.126   3.002 -0.3510 -0.0532 -0.8834
 7278SOL    HW222734   4.044   3.146   2.891  1.1779 -1.9074  0.3500
 7279SOL     OW22735   0.911   5.747   5.669 -0.3049  0.6459  0.5732
 7279SOL    HW122736   0.960   5.733   5.583  0.2065  1.2068  0.7696
 7279SOL    HW222737   0.905   5.660   5.718 -0.0924  0.4374  0.2367
 7280SOL     OW22738   4.678   0.848   5.773  0.9123 -0.4322  0.2264
 7280SOL    HW122739   4.744   0.849   5.698 -0.4515 -0.3416 -1.0195
 7280SOL    HW222740   4.596   0.799   5.745 -0.5666  1.5647  0.8027
 7281SOL     OW22741   3.958   1.044   5.159  0.9580  0.5745 -0.1704
 7281SOL    HW122742   3.985   1.121   5.216  1.8651 -0.5690  0.9947
 7281SOL    HW222743   3.982   0.958   5.204  0.0225 -0.4139 -1.4527
 7282SOL     OW22744   5.851   4.975   2.494 -0.2944  0.3609  0.2047
 7282SOL    HW122745   5.770   5.029   2.470 -0.8683 -0.5773 -0.0147
 7282SOL    HW222746   5.831   4.878   2.482  0.3131  0.0082  1.8199
 7283SOL     OW22747   1.568   1.447   3.894 -0.1282 -0.0750 -0.5071
 7283SOL    HW122748   1.524   1.530   3.928  0.4919 -0.4405  1.2607
 7283SOL    HW222749   1.574   1.380   3.968  1.9876 -0.6166 -1.1150
 7284SOL     OW22750   0.175   2.116   2.634  0.0720  0.0219  0.4021
 7284SOL    HW122751   0.222   2.121   2.722  1.1862  1.0629 -0.2181
 7284SOL    HW222752   0.222   2.051   2.574 -0.3325 -0.2514  0.3801
 7285SOL     OW22753   6.083   5.901   1.440 -0.0233 -0.7295  0.3046
 7285SOL    HW122754   5.983   5.897   1.434 -0.0418  0.5446 -0.4892
 7285SOL    HW222755   6.121   5.821   1.394 -0.6484  0.1087 -1.7954
 7286SOL     OW22756   0.917   5.743   0.908 -1.0457 -0.5174  0.2339
 7286SOL    HW122757   0.918   5.843   0.907 -1.1704 -0.4605  2.3095
 7286SOL    HW222758   0.851   5.711   0.975 -0.5951 -1.9994  0.0020
 7287SOL     OW22759   6.138   2.010   4.576 -0.2656  0.1004  0.1798
 7287SOL    HW122760   6.183   2.081   4.630  0.8097 -0.3377 -0.1158
 7287SOL    HW222761   6.040   2.009   4.597  0.1149 -0.0861  2.1618
 7288SOL     OW22762   3.133   0.877   0.399  0.1871  0.6055  0.5482
 7288SOL    HW122763   3.049   0.920   0.431 -1.1554 -0.7344 -0.9933
 7288SOL    HW222764   3.172   0.821   0.471 -1.0856  0.0518  0.8344
 7289SOL     OW22765   5.391   3.060   4.610  0.1952 -0.1311  0.1854
 7289SOL    HW122766   5.300   3.050   4.650 -0.8248  1.8898 -1.4131
 7289SOL    HW222767   5.399   3.000   4.530  0.2623 -0.3388  0.3497
 7290SOL     OW22768   1.266   6.203   5.894 -0.2943  0.1259 -0.1765
 7290SOL    HW122769   1.305   6.193   5.803 -1.1701 -1.5438 -0.3944
 7290SOL    HW222770   1.182   6.256   5.890  2.0999  4.4308  0.3937
 7291SOL     OW22771   3.930   4.583   1.574  0.2411  0.1813 -0.3259
 7291SOL    HW122772   3.853   4.641   1.600 -0.5199 -0.6866 -0.5822
 7291SOL    HW222773   3.898   4.489   1.563  1.0528  0.0440 -1.7745
 7292SOL     OW22774   3.313   6.615   5.318 -0.5046  0.0108 -0.2753
 7292SOL    HW122775   3.390   6.665   5.358  0.0691 -1.4325  0.5023
 7292SOL    HW222776   3.331   6.600   5.221  1.2143 -2.0436  0.2836
 7293SOL     OW22777   2.562   0.541   0.248 -0.1301 -0.4531 -0.3160
 7293SOL    HW122778   2.532   0.628   0.287 -2.2353 -2.9415  4.4286
 7293SOL    HW222779   2.658   0.524   0.274 -0.3166 -0.3553  0.4653
 7294SOL     OW22780   6.545   6.123   1.562  0.1577  0.0285  0.3497
 7294SOL    HW122781   6.551   6.062   1.483  0.3196 -1.2053  1.2838
 7294SOL    HW222782   6.588   6.210   1.540 -0.7081  0.0935 -1.2539
 7295SOL     OW22783   5.421   6.101   1.682 -0.8339 -0.1006  0.0678
 7295SOL    HW122784   5.389   6.010   1.657  0.2957 -0.8298  1.1651
 7295SOL    HW222785   5.443   6.104   1.780  1.1064  0.7123 -0.3325
 7296SOL     OW22786   4.565   5.697   0.009  0.6039  0.9507  0.2230
 7296SOL    HW122787   4.544   5.604  -0.024 -2.7112  1.1794  1.2893
 7296SOL    HW222788   4.587   5.755  -0.069  1.5717 -0.4267 -0.5853
 7297SOL     OW22789   3.695   0.357   1.691  0.0272  0.4749  0.0768
 7297SOL    HW122790   3.764   0.381   1.623 -0.2907  1.4656  0.0876
 7297SOL    HW222791   3.653   0.440   1.726 -0.8268 -0.0951  0.4331
 7298SOL     OW22792   6.644   3.021   5.629  0.1323  0.0317  0.3817
 7298SOL    HW122793   6.585   3.101   5.638 -0.3432 -0.3841  1.1164
 7298SOL    HW222794   6.694   3.007   5.715 -0.5002 -1.0001  0.5938
 7299SOL     OW22795   0.168   3.501   6.243  0.2463 -0.0543  0.1470
 7299SOL    HW122796   0.087   3.444   6.253 -0.1384  0.4486 -0.0414
 7299SOL    HW222797   0.221   3.499   6.328 -0.9651  1.1209  0.9820
 7300SOL     OW22798   2.211   5.814   1.620  0.1451 -0.0784 -0.3525
 7300SOL    HW122799   2.174   5.745   1.558 -1.6540  0.2326  0.3251
 7300SOL    HW222800   2.154   5.897   1.617  0.7770  0.4258  0.7342
 7301SOL     OW22801   4.438   2.600   0.867  0.4265  0.1205 -0.5119
 7301SOL    HW122802   4.401   2.548   0.789  1.2089  0.8144 -1.3668
 7301SOL    HW222803   4.537   2.587   0.871  0.3875  0.0426  0.4285
 7302SOL     OW22804   5.572   1.873   1.391  0.5892  0.2916  0.2757
 7302SOL    HW122805   5.481   1.895   1.425 -1.6849 -2.1185 -3.4717
 7302SOL    HW222806   5.604   1.788   1.433 -0.1521 -0.2580 -0.2373
 7303SOL     OW22807   4.111   5.957   2.247 -0.5579 -0.3493  0.4435
 7303SOL    HW122808   4.053   6.028   2.208  0.6614  0.7697  0.6163
 7303SOL    HW222809   4.165   5.914   2.175  1.2049  1.2658  0.7176
 7304SOL     OW22810   3.994   3.272   4.968  0.0720 -0.0314 -0.7350
 7304SOL    HW122811   4.015   3.245   5.062 -3.7340  1.3055  0.7162
 7304SOL    HW222812   3.938   3.201   4.924  1.5368 -0.4908 -1.9328
 7305SOL     OW22813   7.004   2.809   0.094  0.9270  0.8695 -0.5162
 7305SOL    HW122814   6.959   2.746   0.030 -0.2702  1.5098 -0.3344
 7305SOL    HW222815   7.056   2.877   0.042  2.1499 -0.1784 -0.7154
 7306SOL     OW22816   5.145   5.325   2.173 -0.2079  0.4181 -0.5802
 7306SOL    HW122817   5.079   5.349   2.244  0.1340 -2.2907  0.8021
 7306SOL    HW222818   5.238   5.340   2.207 -0.0382 -1.0040 -0.3440
 7307SOL     OW22819   2.404   4.909   1.624  0.3111  0.0491  0.2281
 7307SOL    HW122820   2.491   4.952   1.598  0.0866  0.3190 -0.0857
 7307SOL    HW222821   2.386   4.831   1.564  0.6914 -0.4645  0.7629
 7308SOL     OW22822   4.439   0.534   5.485  0.0104  0.5057  0.3418
 7308SOL    HW122823   4.412   0.529   5.389 -1.2149  0.2955  0.6700
 7308SOL    HW222824   4.394   0.460   5.535  2.0933 -0.5487  0.7700
 7309SOL     OW22825   4.698   4.226   2.812  0.3535 -0.3219  0.0743
 7309SOL    HW122826   4.733   4.151   2.868  0.8153  0.0049  0.2343
 7309SOL    HW222827   4.736   4.220   2.720  0.4135 -0.2741  0.0954
 7310SOL     OW22828   4.705   5.344   1.618  0.8710 -0.3960 -0.7652
 7310SOL    HW122829   4.624   5.403   1.626  0.7311 -0.6786 -0.0913
 7310SOL    HW222830   4.721   5.323   1.521  1.1287  1.0290 -1.0595
 7311SOL     OW22831   2.602   7.011   1.188  0.4127  0.8463  0.0334
 7311SOL    HW122832   2.569   6.917   1.201 -1.4613  1.5272  0.6067
 7311SOL    HW222833   2.701   7.012   1.193  0.5112 -1.1628 -0.3716
 7312SOL     OW22834   0.282   3.177   6.499  0.0976 -0.5967  0.5675
 7312SOL    HW122835   0.321   3.269   6.504 -3.0818  1.0862 -1.5729
 7312SOL    HW222836   0.333   3.123   6.432  2.4813 -0.7539  2.4025
 7313SOL     OW22837   4.528   2.315   6.304 -0.4217 -0.1452  0.1229
 7313SOL    HW122838   4.518   2.387   6.236  0.4433  0.9009  1.0529
 7313SOL    HW222839   4.486   2.344   6.390  1.8971  0.2931  1.2014
 7314SOL     OW22840   1.216   3.307   4.387  0.3714  0.4499 -0.3955
 7314SOL    HW122841   1.260   3.352   4.465 -1.4809  0.5719  0.6521
 7314SOL    HW222842   1.170   3.224   4.418  0.1348  0.1568 -1.4970
 7315SOL     OW22843   5.997   0.583   0.263  0.1537 -0.0679  0.0704
 7315SOL    HW122844   5.974   0.584   0.165  2.4978 -0.7356 -0.5758
 7315SOL    HW222845   6.040   0.670   0.287  1.5457 -0.6895 -0.0760
 7316SOL     OW22846   3.291   3.811   3.560 -0.6752 -0.1827  0.6806
 7316SOL    HW122847   3.265   3.891   3.615 -2.9099  0.1277 -0.7136
 7316SOL    HW222848   3.391   3.805   3.556 -0.4437  1.0077  2.9493
 7317SOL     OW22849   3.150   1.014   4.138 -0.4088  0.2198  0.4403
 7317SOL    HW122850   3.061   1.044   4.103  0.0149  1.6080  0.5147
 7317SOL    HW222851   3.140   0.923   4.179 -1.8985  0.5594  0.8945
 7318SOL     OW22852   2.931   1.141   0.943  0.6219  0.0719  0.4889
 7318SOL    HW122853   2.867   1.145   0.865  0.1274  1.0007  0.9252
 7318SOL    HW222854   2.995   1.217   0.937 -0.2679  0.9506  1.6859
 7319SOL     OW22855   6.182   4.043   6.744  0.4378  0.5807  0.0877
 7319SOL    HW122856   6.135   3.959   6.769  0.7359  1.1285  2.8377
 7319SOL    HW222857   6.119   4.104   6.696  0.3625 -1.3227 -2.4409
 7320SOL     OW22858   0.278   2.104   2.886 -0.0619 -0.5674 -0.5032
 7320SOL    HW122859   0.193   2.087   2.936 -0.4623 -0.0344 -0.9912
 7320SOL    HW222860   0.344   2.149   2.947 -0.2733 -0.6046 -0.2429
 7321SOL     OW22861   4.920   0.694   3.151 -0.1835 -0.1744  0.0477
 7321SOL    HW122862   4.826   0.675   3.180 -0.4979  0.5865 -0.4424
 7321SOL    HW222863   4.978   0.705   3.232 -1.1801  2.5865  0.5209
 7322SOL     OW22864   1.481   3.815   1.215  0.1109  0.0338  0.6080
 7322SOL    HW122865   1.452   3.867   1.135 -0.8085 -0.8390  0.3489
 7322SOL    HW222866   1.444   3.722   1.209 -1.3236  0.3963  2.8317
 7323SOL     OW22867   2.102   3.727   1.397  0.0084 -0.4075  0.1491
 7323SOL    HW122868   2.028   3.681   1.347  1.2829  1.8294 -4.3228
 7323SOL    HW222869   2.178   3.663   1.409 -0.7893 -1.3548  0.3789
 7324SOL     OW22870   5.835   5.664   3.324 -0.0916  0.2098  0.5472
 7324SOL    HW122871   5.931   5.646   3.301 -0.2044  0.2454  0.0541
 7324SOL    HW222872   5.832   5.731   3.399  0.2531  1.5116 -0.5717
 7325SOL     OW22873   2.663   0.202   1.806  0.1176  0.3769 -0.1702
 7325SOL    HW122874   2.761   0.216   1.820 -0.1329  0.1172  2.3083
 7325SOL    HW222875   2.617   0.193   1.895 -2.3447  1.7140 -1.1912
 7326SOL     OW22876   1.453   1.492   4.541 -0.1990  0.4769 -0.1991
 7326SOL    HW122877   1.380   1.560   4.537 -0.9558 -0.3116 -0.0773
 7326SOL    HW222878   1.485   1.482   4.635 -0.9341 -0.1992 -0.0108
 7327SOL     OW22879   2.052   3.473   4.491  0.5497  0.2497  0.6182
 7327SOL    HW122880   2.054   3.407   4.565 -2.9275 -0.4227  0.2566
 7327SOL    HW222881   2.076   3.428   4.405  0.5921  0.0631  0.7273
 7328SOL     OW22882   3.324   1.450   5.121 -0.1920  0.4055  0.5446
 7328SOL    HW122883   3.310   1.543   5.087  0.0337  0.5049  0.7188
 7328SOL    HW222884   3.385   1.453   5.201  1.1144 -0.0451 -0.3990
 7329SOL     OW22885   6.324   4.193   0.722  0.2414  0.2429 -0.1199
 7329SOL    HW122886   6.374   4.131   0.661 -0.5435 -0.2496 -0.2786
 7329SOL    HW222887   6.261   4.140   0.779  1.0805  0.6782  1.2644
 7330SOL     OW22888   2.306   2.232   0.775  0.9283 -0.1755 -0.4873
 7330SOL    HW122889   2.223   2.282   0.800  0.8120 -0.6043 -0.0016
 7330SOL    HW222890   2.306   2.143   0.820  0.7527 -0.9494 -1.9841
 7331SOL     OW22891   3.650   1.091   2.403  0.0924 -0.1158  0.3899
 7331SOL    HW122892   3.570   1.055   2.452  0.5652  0.1548  1.3945
 7331SOL    HW222893   3.720   1.019   2.398 -0.0064 -0.1846 -0.0137
 7332SOL     OW22894   2.216   4.559   5.621  0.1526 -0.2011 -0.3031
 7332SOL    HW122895   2.264   4.518   5.699  4.1389  2.2740 -1.2176
 7332SOL    HW222896   2.152   4.628   5.654 -0.3075 -1.1318  0.8260
 7333SOL     OW22897   1.546   3.518   3.123  0.7120 -0.7287 -0.8573
 7333SOL    HW122898   1.605   3.437   3.116  1.6213 -0.1492 -0.1519
 7333SOL    HW222899   1.554   3.572   3.040  0.4910 -1.0984 -1.1241
 7334SOL     OW22900   3.365   5.991   3.385 -0.6040  0.3697 -0.6803
 7334SOL    HW122901   3.464   6.002   3.385 -0.3667 -1.2575  1.3978
 7334SOL    HW222902   3.342   5.897   3.359 -1.5891  0.5964 -0.6723
 7335SOL     OW22903   0.734   2.366   3.254  0.5600 -0.6283  0.0992
 7335SOL    HW122904   0.642   2.331   3.273 -0.4879  1.8193 -0.1502
 7335SOL    HW222905   0.783   2.378   3.341 -0.1802  0.1422  0.4207
 7336SOL     OW22906   3.586   6.423   3.983 -0.2225 -0.4378  0.1316
 7336SOL    HW122907   3.603   6.332   3.946  2.4497  0.0278 -0.0024
 7336SOL    HW222908   3.604   6.492   3.913 -0.2076  0.2582  0.8036
 7337SOL     OW22909   4.564   3.352   0.872 -0.3107  0.1941  0.9104
 7337SOL    HW122910   4.475   3.395   0.892 -1.8589 -1.6545 -1.4656
 7337SOL    HW222911   4.614   3.409   0.807 -0.2666  0.6531  1.3378
 7338SOL     OW22912   0.425   4.549   0.030 -0.1595  0.3291  0.4331
 7338SOL    HW122913   0.382   4.488  -0.036  0.5456  0.0136  0.2553
 7338SOL    HW222914   0.357   4.580   0.096 -0.6957 -0.0032  0.0457
 7339SOL     OW22915   1.614   5.591   5.416 -0.3393  0.0117 -0.2093
 7339SOL    HW122916   1.583   5.649   5.492 -0.1415  0.1298 -0.2167
 7339SOL    HW222917   1.666   5.647   5.351 -1.2634  0.0980 -0.8839
 7340SOL     OW22918   2.485   5.521   1.478 -0.2564 -0.0119 -0.1791
 7340SOL    HW122919   2.442   5.545   1.565  1.1411 -1.6529  1.0597
 7340SOL    HW222920   2.581   5.548   1.480  0.1898 -1.4548 -0.5300
 7341SOL     OW22921   6.859   1.445   0.120 -0.2534  0.0210 -0.4763
 7341SOL    HW122922   6.884   1.510   0.048  0.8395  0.5480  0.3454
 7341SOL    HW222923   6.780   1.479   0.170 -0.1751  0.3336 -0.5620
 7342SOL     OW22924   1.084   5.789   0.521  0.1967 -0.1741 -0.1436
 7342SOL    HW122925   0.994   5.746   0.511 -0.0265 -0.8535  3.2980
 7342SOL    HW222926   1.145   5.757   0.449 -1.5227 -1.9479 -0.9091
 7343SOL     OW22927   4.813   4.541   0.560  0.3793 -0.0598  0.5131
 7343SOL    HW122928   4.778   4.504   0.475  0.3356  1.5294 -0.2095
 7343SOL    HW222929   4.899   4.496   0.584  0.9100  0.1403 -0.9098
 7344SOL     OW22930   3.371   7.002   5.168 -0.2786 -0.5112 -0.0319
 7344SOL    HW122931   3.317   7.079   5.132 -0.1856  0.1062  1.0888
 7344SOL    HW222932   3.340   6.917   5.126 -1.3125 -0.0204 -0.3070
 7345SOL     OW22933   3.402   4.115   6.334 -0.2414 -0.3049  0.0052
 7345SOL    HW122934   3.400   4.017   6.317 -1.1251 -0.5436  1.3704
 7345SOL    HW222935   3.418   4.132   6.431 -0.7672  0.8950 -0.0977
 7346SOL     OW22936   3.972   5.840   1.177 -0.6663  0.3147 -0.2963
 7346SOL    HW122937   3.900   5.842   1.246  1.0697  0.1459  1.6310
 7346SOL    HW222938   4.004   5.933   1.159 -2.2745  0.5499 -2.2453
 7347SOL     OW22939   3.803   1.702   1.263  0.4245 -0.5136 -0.1298
 7347SOL    HW122940   3.729   1.769   1.258  1.3762  0.4870 -2.0630
 7347SOL    HW222941   3.778   1.629   1.326 -0.6051  1.6811  2.1757
 7348SOL     OW22942   6.532   6.220   0.820 -0.2315  0.5264 -1.0299
 7348SOL    HW122943   6.577   6.299   0.779  1.8005  0.0307  0.1375
 7348SOL    HW222944   6.600   6.162   0.865 -1.9638 -0.6803  0.1523
 7349SOL     OW22945   4.232   0.622   6.609  0.1353 -0.1091 -0.1421
 7349SOL    HW122946   4.138   0.626   6.645 -0.2840  1.7875 -1.3033
 7349SOL    HW222947   4.258   0.713   6.575  2.5520 -0.5096  0.4897
 7350SOL     OW22948   2.494   2.457   3.481  0.0448 -0.0141 -0.2169
 7350SOL    HW122949   2.429   2.393   3.521 -1.0527  1.6187  0.7171
 7350SOL    HW222950   2.507   2.535   3.542 -1.1833  2.2726 -2.6528
 7351SOL     OW22951   3.278   4.724   5.268  0.0308  0.0387 -0.0536
 7351SOL    HW122952   3.194   4.778   5.263  0.0530  0.0375 -0.4372
 7351SOL    HW222953   3.328   4.732   5.182 -0.9957 -2.3021 -0.9578
 7352SOL     OW22954   6.463   2.991   2.963 -0.4332 -0.4372 -0.4657
 7352SOL    HW122955   6.392   3.042   2.915 -0.8859  0.8151  1.4120
 7352SOL    HW222956   6.422   2.940   3.039  0.5815 -0.0734  0.3508
 7353SOL     OW22957   6.741   1.484   4.168  0.3724  0.0554 -0.2400
 7353SOL    HW122958   6.836   1.502   4.196  0.4614  1.6346 -1.3873
 7353SOL    HW222959   6.679   1.517   4.239  0.6471 -2.2697  1.1751
 7354SOL     OW22960   2.403   1.770   2.337  0.1136  0.4037  0.1974
 7354SOL    HW122961   2.414   1.685   2.287  0.5433  1.5901 -1.8555
 7354SOL    HW222962   2.315   1.811   2.316 -0.1530  0.4289  1.2722
 7355SOL     OW22963   4.955   1.850   6.872 -0.5831  0.4095 -0.2750
 7355SOL    HW122964   4.878   1.889   6.923  0.1815 -0.3252  1.5446
 7355SOL    HW222965   4.933   1.756   6.846 -0.9937  0.8019 -1.4062
 7356SOL     OW22966   3.644   5.058   0.076 -0.4144  0.4990  0.0201
 7356SOL    HW122967   3.565   5.050   0.015  0.7789  0.0685 -1.5454
 7356SOL    HW222968   3.708   5.126   0.039 -0.5341  1.6717  1.8483
 7357SOL     OW22969   5.349   5.143   3.306 -0.1002 -0.2837 -0.2313
 7357SOL    HW122970   5.325   5.174   3.398 -0.3251  1.3720 -0.8136
 7357SOL    HW222971   5.272   5.091   3.267 -0.2875 -0.3586  0.2367
 7358SOL     OW22972   5.799   0.484   2.569 -0.2745  0.4342 -0.4079
 7358SOL    HW122973   5.869   0.412   2.577  1.0579  1.7879  0.7746
 7358SOL    HW222974   5.710   0.448   2.596  0.2589 -0.9105 -0.3779
 7359SOL     OW22975   4.661   0.750   3.223  0.3280 -0.0922  0.0908
 7359SOL    HW122976   4.641   0.694   3.143  0.7190 -0.0109 -0.0660
 7359SOL    HW222977   4.603   0.832   3.223  0.7458  0.2053 -0.4253
 7360SOL     OW22978   2.916   5.272   6.054 -0.4932 -0.2215  0.1680
 7360SOL    HW122979   3.005   5.233   6.077 -1.2926 -0.7434  2.6275
 7360SOL    HW222980   2.929   5.356   6.001  1.3476 -1.6449 -1.8175
 7361SOL     OW22981   0.777   6.584   3.107  0.1321  0.0661 -0.5369
 7361SOL    HW122982   0.874   6.601   3.125  0.1645 -1.1381  0.5341
 7361SOL    HW222983   0.767   6.501   3.052 -0.2916  0.1410 -0.5754
 7362SOL     OW22984   3.136   4.229   1.266 -0.3039  0.4443  0.2107
 7362SOL    HW122985   3.170   4.312   1.311 -1.1370  0.3503  1.0503
 7362SOL    HW222986   3.038   4.220   1.283 -0.1902 -0.8174  0.3105
 7363SOL     OW22987   3.966   6.920   1.275 -0.0719 -0.0552 -0.1269
 7363SOL    HW122988   4.052   6.969   1.291 -0.1348 -0.0514  0.2079
 7363SOL    HW222989   3.889   6.980   1.297 -0.1683  0.0638 -0.7808
 7364SOL     OW22990   6.504   6.133   1.835 -0.3771 -0.2237 -0.6544
 7364SOL    HW122991   6.501   6.113   1.737  0.0798  1.6876 -1.0952
 7364SOL    HW222992   6.599   6.138   1.865 -0.4811  0.5774 -0.4335
 7365SOL     OW22993   3.931   2.947   1.937 -0.1446  0.2023 -0.2064
 7365SOL    HW122994   3.982   2.880   1.883  1.1228 -0.0205  1.1862
 7365SOL    HW222995   3.962   2.943   2.032 -1.8779  0.9939  0.4250
 7366SOL     OW22996   3.920   1.354   4.092 -0.3200  0.3260 -0.0378
 7366SOL    HW122997   3.870   1.436   4.119  0.5698  0.9136 -0.1797
 7366SOL    HW222998   3.936   1.354   3.994 -0.6331 -0.2014 -0.0961
 7367SOL     OW22999   4.469   0.604   6.137 -0.4492  0.1194 -0.0723
 7367SOL    HW123000   4.440   0.554   6.218  1.8442 -0.4912  0.4653
 7367SOL    HW223001   4.464   0.702   6.154  1.8910  0.0203  1.6519
 7368SOL     OW23002   3.668   3.202   2.608  0.1568 -0.0364  0.5254
 7368SOL    HW123003   3.740   3.191   2.539  0.9983 -0.8678  1.4890
 7368SOL    HW223004   3.580   3.180   2.568  0.4244  0.9133 -0.6638
 7369SOL     OW23005   5.768   1.722   2.598 -0.4961 -0.0950 -0.2285
 7369SOL    HW123006   5.790   1.658   2.671 -0.3940 -0.5948 -0.6877
 7369SOL    HW223007   5.852   1.758   2.558 -0.5225 -0.7199 -0.8697
 7370SOL     OW23008   0.087   0.002   4.925  0.5769  0.0438  0.1097
 7370SOL    HW123009   0.145  -0.053   4.865  0.3178  0.7913 -0.8641
 7370SOL    HW223010   0.002   0.025   4.877  0.5524  1.0157  0.5982
 7371SOL     OW23011   5.169   0.970   3.060  0.2448 -0.4641  0.0750
 7371SOL    HW123012   5.088   0.961   3.118  1.2011 -0.6559  1.4187
 7371SOL    HW223013   5.151   0.927   2.972 -1.6654  0.9042 -0.2581
 7372SOL     OW23014   5.144   1.203   5.471 -0.4555  0.7384 -0.3542
 7372SOL    HW123015   5.144   1.106   5.447  1.9190  0.5737  0.1284
 7372SOL    HW223016   5.236   1.232   5.496 -1.5213  2.5451  1.9094
 7373SOL     OW23017   6.158   3.812   3.286 -0.2775 -0.3618  1.1646
 7373SOL    HW123018   6.236   3.808   3.349  0.8624 -2.1901 -0.2731
 7373SOL    HW223019   6.183   3.864   3.205 -0.8996 -0.1414  1.1098
 7374SOL     OW23020   0.207   2.304   6.050  0.0330 -0.1363 -0.1244
 7374SOL    HW123021   0.157   2.219   6.065  0.6288 -0.7644 -1.4604
 7374SOL    HW223022   0.259   2.328   6.131  2.2767 -2.7395 -0.6611
 7375SOL     OW23023   0.980   3.980   1.883  0.0567 -0.5058 -0.0049
 7375SOL    HW123024   1.018   3.932   1.804  0.3228 -0.3816  0.0474
 7375SOL    HW223025   0.995   4.078   1.873  1.6916 -0.6265  1.0443
 7376SOL     OW23026   6.434   6.468   6.786  0.4456  0.0280 -0.5335
 7376SOL    HW123027   6.395   6.505   6.871  1.1262  0.0648 -0.2298
 7376SOL    HW223028   6.480   6.382   6.806  0.8553  0.1809 -0.8159
 7377SOL     OW23029   0.567   4.380   0.999 -0.2851 -0.1451 -0.0494
 7377SOL    HW123030   0.662   4.410   1.012 -0.9413  1.7431  0.7039
 7377SOL    HW223031   0.540   4.323   1.076 -0.4924  1.3568  1.0350
 7378SOL     OW23032   2.690   5.136   5.486  0.2913  0.2381 -0.1310
 7378SOL    HW123033   2.734   5.144   5.396  0.8075  0.7127  0.1565
 7378SOL    HW223034   2.592   5.152   5.476  0.1871 -0.7249 -0.7645
 7379SOL     OW23035   6.421   0.600   5.127  0.1346 -0.0664  0.3143
 7379SOL    HW123036   6.337   0.628   5.174  0.5779  0.4780  0.8079
 7379SOL    HW223037   6.495   0.663   5.152  1.0606 -1.4250  1.1035
 7380SOL     OW23038   5.409   2.146   3.095 -0.7298  0.1463  0.5938
 7380SOL    HW123039   5.356   2.160   3.012 -0.8472 -0.1963  0.6110
 7380SOL    HW223040   5.447   2.054   3.096 -0.1268  0.3853  0.5775
 7381SOL     OW23041   3.833   0.213   1.023 -0.3386  0.5204  0.4047
 7381SOL    HW123042   3.907   0.184   1.084  0.3982 -0.1354 -0.7601
 7381SOL    HW223043   3.849   0.177   0.931 -2.4081 -0.1044  0.2361
 7382SOL     OW23044   0.877   1.953   6.603  0.2060  0.5986 -0.3969
 7382SOL    HW123045   0.779   1.931   6.605  0.1258  0.6928 -2.0060
 7382SOL    HW223046   0.894   2.019   6.530  1.7124 -0.6672 -1.2369
 7383SOL     OW23047   3.592   6.499   0.833 -0.2835 -0.5851 -0.6795
 7383SOL    HW123048   3.604   6.597   0.849 -0.1468 -0.7711  0.4676
 7383SOL    HW223049   3.508   6.468   0.879  0.2755 -1.2174 -0.0560
 7384SOL     OW23050   6.146   6.399   0.832 -0.1072  0.0786 -0.0422
 7384SOL    HW123051   6.177   6.336   0.903  0.3340 -1.3063 -1.4159
 7384SOL    HW223052   6.206   6.479   0.829 -2.1951  2.0765  3.5363
 7385SOL     OW23053   0.900   6.246   3.202  0.2241  0.2636 -0.1990
 7385SOL    HW123054   0.969   6.311   3.232 -0.3240  1.1100 -0.7333
 7385SOL    HW223055   0.943   6.157   3.186  0.9334  0.4103  0.7948
 7386SOL     OW23056   5.638   3.639   5.920  0.3860  0.1402  0.8721
 7386SOL    HW123057   5.718   3.697   5.933  1.4439 -1.6638  3.2919
 7386SOL    HW223058   5.557   3.685   5.955  0.3422  1.7903 -1.1671
 7387SOL     OW23059   6.506   6.125   4.543  0.4469  0.1743 -0.3667
 7387SOL    HW123060   6.442   6.175   4.485  0.5363  0.4495 -0.2323
 7387SOL    HW223061   6.465   6.109   4.633  0.6543  0.5658 -0.1983
 7388SOL     OW23062   1.133   4.116   2.227  0.5700 -0.1671 -0.3075
 7388SOL    HW123063   1.170   4.077   2.143  0.5222  2.5189 -1.6596
 7388SOL    HW223064   1.193   4.091   2.304  2.9876  0.6740 -1.8004
 7389SOL     OW23065   6.933   0.874   0.430 -0.6089  0.1187  0.5252
 7389SOL    HW123066   6.897   0.932   0.358  1.0769  0.2075 -0.3065
 7389SOL    HW223067   6.911   0.914   0.520  0.6991  2.2081 -0.0191
 7390SOL     OW23068   4.187   1.516   3.928  0.1568  0.2515 -0.6252
 7390SOL    HW123069   4.221   1.589   3.869  1.0697  0.8978  0.6731
 7390SOL    HW223070   4.193   1.544   4.023 -1.1316 -0.8484 -0.1892
 7391SOL     OW23071   4.165   3.393   1.992  0.5681  0.0954 -0.0085
 7391SOL    HW123072   4.265   3.399   1.985  0.5126  0.2303 -0.8767
 7391SOL    HW223073   4.130   3.340   1.915  0.0928 -1.4589  1.2262
 7392SOL     OW23074   4.275   6.381   0.486  0.2339  0.1741 -0.0050
 7392SOL    HW123075   4.333   6.449   0.531  0.8605 -0.4989  0.2233
 7392SOL    HW223076   4.179   6.402   0.503  0.4281 -0.9013  2.9697
 7393SOL     OW23077   6.050   6.132   4.389 -0.1685  0.7783  0.0725
 7393SOL    HW123078   5.969   6.139   4.449 -1.9102 -1.6966 -1.7755
 7393SOL    HW223079   6.132   6.125   4.446 -1.1816  3.0367  2.0404
 7394SOL     OW23080   2.309   3.529   5.251  0.4762 -0.3280 -0.8538
 7394SOL    HW123081   2.404   3.516   5.278  0.1210  1.8420  1.9629
 7394SOL    HW223082   2.292   3.627   5.236 -1.5492 -0.5237 -0.1126
 7395SOL     OW23083   2.135   5.594   1.813  0.2100 -0.2342  0.2005
 7395SOL    HW123084   2.108   5.599   1.909  0.2991 -1.7902  0.3289
 7395SOL    HW223085   2.134   5.686   1.773  3.5336  1.0589  2.6136
 7396SOL     OW23086   1.177   4.587   1.681  0.2976 -0.1514  0.7516
 7396SOL    HW123087   1.252   4.625   1.736  0.9275 -0.9382  0.4515
 7396SOL    HW223088   1.090   4.626   1.712  0.7723  0.3793  1.4510
 7397SOL     OW23089   6.693   5.058   3.363  0.1276  0.3674 -0.0571
 7397SOL    HW123090   6.594   5.066   3.351  0.1895 -0.6738 -1.5771
 7397SOL    HW223091   6.729   5.143   3.400 -1.0501  1.6210 -1.6227
 7398SOL     OW23092   2.038   4.621   3.305 -0.2977 -0.1345 -0.2388
 7398SOL    HW123093   2.114   4.557   3.308  0.3860  0.3898 -3.2766
 7398SOL    HW223094   1.984   4.613   3.389  1.6744 -2.2362  0.9299
 7399SOL     OW23095   4.557   1.003   5.180 -0.2828  0.7969 -0.2498
 7399SOL    HW123096   4.600   1.083   5.222 -0.2303  1.9217 -2.3529
 7399SOL    HW223097   4.615   0.968   5.107  0.4186 -2.1544  1.5343
 7400SOL     OW23098   3.806   2.937   5.083 -0.0937  0.4510  0.1852
 7400SOL    HW123099   3.901   2.909   5.094  0.1768  1.8852  2.1148
 7400SOL    HW223100   3.795   2.989   4.999  0.3479 -1.4481 -1.0969
 7401SOL     OW23101   1.519   2.609   3.301 -0.2883  0.1199 -0.1598
 7401SOL    HW123102   1.463   2.588   3.381 -0.8494 -0.4804 -0.6979
 7401SOL    HW223103   1.537   2.707   3.297  0.8074  0.0175  1.3865
 7402SOL     OW23104   4.682   5.411   4.125  0.9239  0.3054 -0.4566
 7402SOL    HW123105   4.684   5.394   4.026 -0.9904 -0.6502 -0.3875
 7402SOL    HW223106   4.614   5.481   4.145  0.8535  0.0503  0.2145
 7403SOL     OW23107   4.073   4.812   4.660  0.1781 -0.2103  0.1474
 7403SOL    HW123108   4.104   4.885   4.599  0.0272 -0.6401 -0.4560
 7403SOL    HW223109   4.148   4.785   4.720  0.3482  0.1828  0.1102
 7404SOL     OW23110   2.743   5.074   5.939 -0.0969  0.5682 -0.2044
 7404SOL    HW123111   2.828   5.118   5.968 -0.7553  0.9052  1.2909
 7404SOL    HW223112   2.675   5.079   6.013 -1.0873 -0.5940 -0.9901
 7405SOL     OW23113   3.497   6.403   5.774  0.0947 -0.6381  0.3339
 7405SOL    HW123114   3.462   6.331   5.713  0.5264  0.2421 -0.9955
 7405SOL    HW223115   3.569   6.365   5.832  0.0058 -1.3921 -0.0330
 7406SOL     OW23116   6.943   1.242   4.565 -0.4353 -0.4137  0.5252
 7406SOL    HW123117   6.976   1.328   4.605 -0.6514  0.4382 -1.0503
 7406SOL    HW223118   6.849   1.225   4.594 -0.8128  0.5264 -0.0954
 7407SOL     OW23119   1.791   5.501   4.590 -0.6359  0.0617 -0.2883
 7407SOL    HW123120   1.759   5.426   4.533 -0.7086 -0.1048 -0.0342
 7407SOL    HW223121   1.867   5.548   4.546 -0.4627 -0.2853 -0.3612
 7408SOL     OW23122   3.912   0.058   6.373  0.0452  0.1377  0.1723
 7408SOL    HW123123   3.852   0.130   6.338 -0.6945 -0.0728  0.9592
 7408SOL    HW223124   3.864  -0.030   6.370  0.5062 -0.1219  0.3332
 7409SOL     OW23125   6.089   0.155   0.472 -0.2742  0.1197 -0.1540
 7409SOL    HW123126   6.122   0.097   0.398  0.7712  0.6396 -0.1117
 7409SOL    HW223127   6.054   0.098   0.546 -2.2238 -0.4175 -1.3893
 7410SOL     OW23128   6.042   0.212   6.741 -0.1846  0.2970  0.2266
 7410SOL    HW123129   6.016   0.121   6.709 -0.2182 -0.0742  1.2736
 7410SOL    HW223130   6.024   0.279   6.668  0.2547 -0.5795 -0.7138
 7411SOL     OW23131   4.620   3.030   6.236  0.5847  0.1871  0.2576
 7411SOL    HW123132   4.581   3.079   6.314  0.3756  0.0916  0.2140
 7411SOL    HW223133   4.718   3.016   6.250  0.7596  1.1204  0.0105
 7412SOL     OW23134   2.724   0.366   4.735 -0.0405 -0.2952  0.6546
 7412SOL    HW123135   2.717   0.386   4.833 -2.0675 -1.0483  0.7133
 7412SOL    HW223136   2.707   0.450   4.684  0.2454 -0.0606  0.9362
 7413SOL     OW23137   5.241   0.555   5.551 -0.3415  0.6057  0.5678
 7413SOL    HW123138   5.188   0.531   5.470  2.7115 -0.2764 -1.3644
 7413SOL    HW223139   5.242   0.655   5.562 -0.1193  0.8075 -1.0458
 7414SOL     OW23140   4.698   2.030   4.934 -0.0807  0.3060  0.4358
 7414SOL    HW123141   4.670   2.000   5.025  1.3037  0.9114  1.0750
 7414SOL    HW223142   4.735   1.952   4.883  1.7605  0.5014  1.4150
 7415SOL     OW23143   2.875   0.769   6.014  0.3930 -0.5367  0.1890
 7415SOL    HW123144   2.883   0.675   5.982 -2.1948 -0.6038 -0.4323
 7415SOL    HW223145   2.918   0.830   5.947  3.6407 -1.2750  1.4088
 7416SOL     OW23146   2.310   0.120   2.188  0.7266 -0.2577  0.4670
 7416SOL    HW123147   2.232   0.177   2.212  2.1310  1.9488  0.1406
 7416SOL    HW223148   2.281   0.049   2.124 -1.1128  0.0843  0.8616
 7417SOL     OW23149   6.616   1.286   3.192  0.0152 -0.0817  0.2657
 7417SOL    HW123150   6.590   1.251   3.102  2.1468 -2.0555  0.3207
 7417SOL    HW223151   6.713   1.307   3.193  0.2458 -0.9570  2.3205
 7418SOL     OW23152   1.793   4.050   4.889  0.3250  0.1922 -0.1243
 7418SOL    HW123153   1.868   4.016   4.946 -0.3057  0.9988  1.2335
 7418SOL    HW223154   1.708   4.003   4.913  0.2435 -0.2177 -1.1630
 7419SOL     OW23155   6.439   3.415   4.978  0.1446 -0.4352 -0.0204
 7419SOL    HW123156   6.511   3.390   5.043  1.0096  0.5132 -0.5790
 7419SOL    HW223157   6.384   3.335   4.956  1.4005 -1.3152 -0.0263
 7420SOL     OW23158   6.311   6.652   0.906 -0.1958 -0.2056  0.0653
 7420SOL    HW123159   6.357   6.597   0.976 -0.3064  0.1721  0.4420
 7420SOL    HW223160   6.279   6.738   0.947  0.1602  0.2319 -0.5625
 7421SOL     OW23161   7.014   4.018   6.979 -0.3026  0.2173 -0.4098
 7421SOL    HW123162   6.977   4.075   7.052  2.4892  1.0717  0.4442
 7421SOL    HW223163   7.069   4.074   6.917 -3.2383 -0.2908 -3.8314
 7422SOL     OW23164   4.843   4.247   1.382  0.1945 -0.0328  0.1538
 7422SOL    HW123165   4.761   4.303   1.374  0.1688 -0.1082 -0.1336
 7422SOL    HW223166   4.845   4.180   1.308 -0.2928 -1.1026  1.0851
 7423SOL     OW23167   4.954   3.287   0.393 -0.8226 -0.0640 -0.1971
 7423SOL    HW123168   4.884   3.229   0.435  0.3964 -2.1833 -0.9138
 7423SOL    HW223169   4.998   3.342   0.464 -2.1027  0.1264  0.4942
 7424SOL     OW23170   0.907   1.328   4.711 -0.8942 -0.2062 -0.0970
 7424SOL    HW123171   0.973   1.293   4.644 -1.1147  0.7456 -0.8371
 7424SOL    HW223172   0.894   1.426   4.697 -0.9096  0.0251  1.3936
 7425SOL     OW23173   3.845   6.620   2.811  0.0836  0.0095  0.4757
 7425SOL    HW123174   3.778   6.580   2.873  2.5377 -0.9609  2.6979
 7425SOL    HW223175   3.881   6.705   2.850  1.8919 -0.7710  0.6143
 7426SOL     OW23176   3.895   3.363   3.583 -0.0257  0.6409 -0.6648
 7426SOL    HW123177   3.847   3.403   3.661  0.7076  0.0101  0.1357
 7426SOL    HW223178   3.832   3.304   3.532  0.0639 -0.8782  0.8873
 7427SOL     OW23179   3.763   1.420   1.128  0.0195 -0.5984 -0.2773
 7427SOL    HW123180   3.777   1.365   1.210 -0.3130  0.7569  0.7192
 7427SOL    HW223181   3.670   1.457   1.127  0.5596  0.8387 -0.3362
 7428SOL     OW23182   1.889   6.408   3.977  0.2980 -0.1182 -0.2278
 7428SOL    HW123183   1.840   6.489   4.007 -0.8629 -1.4581  1.7139
 7428SOL    HW223184   1.867   6.388   3.881 -1.2778  0.5300 -0.0227
 7429SOL     OW23185   0.585   6.700   2.393 -0.0193 -0.2851 -0.6427
 7429SOL    HW123186   0.675   6.664   2.371  1.2259  2.8790 -1.2068
 7429SOL    HW223187   0.516   6.655   2.335  1.3997 -1.5517 -1.4093
 7430SOL     OW23188   6.395   4.797   2.888  0.4290 -0.1336 -0.0400
 7430SOL    HW123189   6.360   4.804   2.795  0.3258  1.9363  0.1036
 7430SOL    HW223190   6.476   4.739   2.889 -0.8027 -1.9404 -1.0133
 7431SOL     OW23191   1.452   1.907   5.482 -0.0135 -0.0238 -0.3754
 7431SOL    HW123192   1.474   1.938   5.575 -1.1717  0.9616 -0.3983
 7431SOL    HW223193   1.433   1.987   5.424 -0.6389 -0.6847 -1.0982
 7432SOL     OW23194   2.161   1.957   3.610 -0.2481  0.0322  0.4449
 7432SOL    HW123195   2.260   1.949   3.606 -0.2839  0.0207 -2.0958
 7432SOL    HW223196   2.119   1.866   3.604 -0.4249  0.0561  1.2396
 7433SOL     OW23197   3.684   0.317   7.021  0.0930  0.7307 -0.0564
 7433SOL    HW123198   3.615   0.276   6.962 -0.8496 -0.1842  1.5788
 7433SOL    HW223199   3.773   0.275   7.004 -0.6115 -1.1517  0.6926
 7434SOL     OW23200   5.958   1.312   5.089 -0.1003  0.0546  0.0296
 7434SOL    HW123201   6.024   1.379   5.120 -0.3664  0.1906  0.3147
 7434SOL    HW223202   6.005   1.237   5.043  0.1227  0.8751 -1.1194
 7435SOL     OW23203   4.780   4.297   1.969 -0.0052  0.1762 -0.0741
 7435SOL    HW123204   4.785   4.331   1.875  1.5918 -3.4870 -1.5215
 7435SOL    HW223205   4.684   4.290   1.997 -0.6770 -0.7455 -2.3620
 7436SOL     OW23206   4.489   4.736   5.128 -0.1424 -0.3316  0.6146
 7436SOL    HW123207   4.439   4.668   5.074 -3.2960  2.4686 -0.3910
 7436SOL    HW223208   4.490   4.708   5.224 -1.4680 -1.7518  0.2666
 7437SOL     OW23209   5.029   0.040   0.487  0.4114 -0.1347 -1.2508
 7437SOL    HW123210   5.012   0.087   0.401  1.7320  0.1261 -1.3835
 7437SOL    HW223211   5.126   0.020   0.496  0.4723  0.7698  0.6523
 7438SOL     OW23212   3.308   6.513   6.683 -0.0177 -0.4871 -0.0549
 7438SOL    HW123213   3.294   6.463   6.768  0.6100 -1.0829 -0.3004
 7438SOL    HW223214   3.297   6.611   6.700 -0.8583 -0.6626  0.5053
 7439SOL     OW23215   1.886   5.407   0.176  0.2448 -0.2844  0.3180
 7439SOL    HW123216   1.910   5.336   0.109  2.7418  2.1750 -1.6105
 7439SOL    HW223217   1.969   5.448   0.213 -0.9060  3.5892 -0.9012
 7440SOL     OW23218   5.304   1.948   3.986  0.4677 -0.5417  0.2259
 7440SOL    HW123219   5.285   2.042   3.958  0.1327 -0.1545  1.6619
 7440SOL    HW223220   5.367   1.906   3.921 -0.1596  0.3364 -0.9875
 7441SOL     OW23221   2.152   6.266   6.895 -0.7432 -0.7959  0.0940
 7441SOL    HW123222   2.133   6.173   6.926 -1.3612 -0.6726  0.1061
 7441SOL    HW223223   2.241   6.269   6.850 -0.2797 -1.1905  0.9541
 7442SOL     OW23224   4.573   6.428   5.344  0.0791  0.1146 -0.1111
 7442SOL    HW123225   4.545   6.350   5.400  0.4449  0.2593  0.2809
 7442SOL    HW223226   4.630   6.489   5.399 -1.6582  1.5753  0.1241
 7443SOL     OW23227   0.824   6.719   0.708  0.5897 -0.1013  0.0322
 7443SOL    HW123228   0.790   6.789   0.771  0.5725  0.6778 -0.8240
 7443SOL    HW223229   0.780   6.632   0.729 -2.2434  0.9125 -1.2021
 7444SOL     OW23230   1.904   0.303   2.020 -0.1380  0.3797  0.3809
 7444SOL    HW123231   1.900   0.389   2.071  1.7430 -0.1923  1.5906
 7444SOL    HW223232   1.957   0.316   1.937 -1.5576  0.8422 -0.4789
 7445SOL     OW23233   1.562   5.404   2.877 -0.3998 -0.8021  0.6308
 7445SOL    HW123234   1.654   5.443   2.871 -1.0153  0.4857 -1.5424
 7445SOL    HW223235   1.522   5.428   2.965  0.7037  0.1502  0.9030
 7446SOL     OW23236   6.790   6.033   0.343 -0.3649 -0.0134  0.8186
 7446SOL    HW123237   6.700   6.037   0.300 -0.4244  2.5410  1.0689
 7446SOL    HW223238   6.787   6.077   0.433  1.1157  0.0243  0.8861
 7447SOL     OW23239   0.332   4.400   6.811 -0.5717  0.3374  0.3918
 7447SOL    HW123240   0.303   4.313   6.849 -0.4514  0.8389  1.7082
 7447SOL    HW223241   0.293   4.413   6.720 -3.4565  0.4426  1.5601
 7448SOL     OW23242   3.809   5.268   7.017 -1.0209 -0.5635  0.4172
 7448SOL    HW123243   3.808   5.368   7.008 -0.8170 -0.6237 -0.3470
 7448SOL    HW223244   3.796   5.227   6.927  2.9708 -1.2230 -0.0476
 7449SOL     OW23245   1.259   3.558   6.023 -0.0337 -0.1218  0.0542
 7449SOL    HW123246   1.302   3.561   5.933  0.8117  1.4528  0.4813
 7449SOL    HW223247   1.329   3.556   6.094 -0.6695  0.2877  0.7102
 7450SOL     OW23248   6.600   5.220   6.957  0.1742 -0.2866  0.5647
 7450SOL    HW123249   6.509   5.217   6.915 -0.6442 -0.3493  2.2912
 7450SOL    HW223250   6.634   5.126   6.968 -0.0304 -0.3156  0.9390
 7451SOL     OW23251   4.577   5.151   3.599 -0.3602  0.0635  0.0100
 7451SOL    HW123252   4.606   5.059   3.572 -1.0470  0.1260 -0.9939
 7451SOL    HW223253   4.656   5.202   3.634  0.2644 -0.5317 -0.5035
 7452SOL     OW23254   6.769   0.115   5.937  0.3967 -0.0403  0.1756
 7452SOL    HW123255   6.723   0.026   5.929 -0.8215  0.4449  1.3914
 7452SOL    HW223256   6.798   0.146   5.847 -0.9643 -0.7395 -0.5290
 7453SOL     OW23257   5.290   5.517   6.074  0.0024 -0.0582  0.4703
 7453SOL    HW123258   5.249   5.429   6.096  0.6883 -1.0115 -1.8115
 7453SOL    HW223259   5.264   5.544   5.981  0.1224  1.9770  0.9849
 7454SOL     OW23260   4.203   2.570   0.082  0.2361  0.2448  0.4386
 7454SOL    HW123261   4.165   2.648   0.034  1.4354  0.3000 -0.4692
 7454SOL    HW223262   4.245   2.601   0.168 -1.5124  0.2074  1.3503
 7455SOL     OW23263   0.911   6.787   4.237  0.5118 -0.3956 -0.2873
 7455SOL    HW123264   0.989   6.727   4.257  0.9659  0.4346  0.4946
 7455SOL    HW223265   0.827   6.747   4.273  0.8821 -0.3313  0.6569
 7456SOL     OW23266   2.055   2.439   6.659  0.0666  0.2487 -0.7528
 7456SOL    HW123267   1.970   2.456   6.609  0.9148  0.9473 -2.0393
 7456SOL    HW223268   2.132   2.454   6.597  1.1390  0.1493  0.5310
 7457SOL     OW23269   2.388   1.077   1.161 -0.6172  0.1408  0.9419
 7457SOL    HW123270   2.467   1.078   1.221 -0.9902 -0.7475  1.4745
 7457SOL    HW223271   2.417   1.060   1.067 -0.1380  0.3471  1.0507
 7458SOL     OW23272   1.076   4.583   5.000 -0.4732  0.0790  0.2546
 7458SOL    HW123273   1.122   4.654   4.948 -0.4655 -1.0171 -1.2984
 7458SOL    HW223274   1.025   4.624   5.075 -1.1025  1.8045 -1.0622
 7459SOL     OW23275   5.329   0.996   4.100  1.0179  0.0737 -0.6865
 7459SOL    HW123276   5.418   0.955   4.078  0.2231 -2.6003  0.5683
 7459SOL    HW223277   5.341   1.061   4.176  1.6595 -2.3271  1.4352
 7460SOL     OW23278   2.115   6.707   0.652 -0.5240 -0.1373 -0.2320
 7460SOL    HW123279   2.135   6.762   0.570  1.7842 -0.2947  0.1638
 7460SOL    HW223280   2.201   6.685   0.699 -1.6798 -1.3612  1.4015
 7461SOL     OW23281   2.947   4.816   5.498  0.5253 -0.2079 -0.1782
 7461SOL    HW123282   2.940   4.718   5.480 -0.3173 -0.3889  1.0172
 7461SOL    HW223283   2.860   4.849   5.535  1.7670  0.3075  2.4999
 7462SOL     OW23284   1.321   4.496   6.643  0.3190 -0.4549 -0.0430
 7462SOL    HW123285   1.281   4.405   6.656  1.2653 -0.6745  1.5908
 7462SOL    HW223286   1.367   4.524   6.727 -0.4083  1.7827 -0.3463
 7463SOL     OW23287   5.349   3.513   0.704 -0.0795  0.1016  0.3591
 7463SOL    HW123288   5.290   3.435   0.684 -0.7988  0.5684  0.6151
 7463SOL    HW223289   5.332   3.545   0.797 -1.3612  1.8926 -0.4444
 7464SOL     OW23290   5.371   5.555   5.215 -0.3435  0.1121 -0.6558
 7464SOL    HW123291   5.303   5.613   5.260  0.8644  1.3602 -0.3657
 7464SOL    HW223292   5.447   5.612   5.183  0.7420 -1.2913 -0.6481
 7465SOL     OW23293   6.999   3.518   0.129 -0.4372  0.2858 -0.5221
 7465SOL    HW123294   7.058   3.584   0.082 -0.1973 -0.3991 -1.1864
 7465SOL    HW223295   7.001   3.430   0.081 -2.3946  0.3783 -0.8838
 7466SOL     OW23296   0.862   0.131   6.555 -0.1900  0.0586 -0.0454
 7466SOL    HW123297   0.907   0.070   6.491  0.5519 -1.1122  1.5104
 7466SOL    HW223298   0.906   0.123   6.645 -0.0535  2.9034  0.2405
 7467SOL     OW23299   6.924   2.096   2.650  0.3004  0.1254 -0.2725
 7467SOL    HW123300   6.856   2.032   2.686  0.6805  0.3306  0.8627
 7467SOL    HW223301   7.016   2.065   2.676  0.4865  1.1373  0.3330
 7468SOL     OW23302   4.824   4.136   4.873  0.1091  0.7735 -0.5423
 7468SOL    HW123303   4.815   4.061   4.939 -0.6163  0.8373 -0.5714
 7468SOL    HW223304   4.805   4.102   4.781 -1.1771  1.2058 -0.4453
 7469SOL     OW23305   0.440   1.084   0.692  0.0890 -0.6988  0.3645
 7469SOL    HW123306   0.480   0.993   0.685 -2.5222 -2.0063  1.0015
 7469SOL    HW223307   0.367   1.094   0.624 -0.2649  0.5769  0.8991
 7470SOL     OW23308   5.309   2.001   4.853  0.0507 -0.0016  0.1266
 7470SOL    HW123309   5.273   1.908   4.854  0.4101 -0.1439  0.1063
 7470SOL    HW223310   5.291   2.045   4.942 -0.1015 -0.0971  0.1433
 7471SOL     OW23311   2.679   5.187   6.213  0.2287 -0.1110 -0.5108
 7471SOL    HW123312   2.768   5.215   6.179  1.4482 -0.3603  2.1811
 7471SOL    HW223313   2.629   5.267   6.245  0.7728 -0.2377  0.7123
 7472SOL     OW23314   6.143   0.760   6.933 -0.3932 -0.1650 -0.3272
 7472SOL    HW123315   6.050   0.723   6.936 -0.7293  0.1934 -3.4090
 7472SOL    HW223316   6.207   0.687   6.911 -0.4087  0.1297 -1.4244
 7473SOL     OW23317   4.474   5.415   1.859 -0.4307  0.5416  0.0203
 7473SOL    HW123318   4.433   5.424   1.769  0.1789  0.7358 -0.2477
 7473SOL    HW223319   4.458   5.322   1.894  0.9026 -0.1490 -1.1027
 7474SOL     OW23320   0.133   2.935   5.594  0.6566  0.3139 -0.0450
 7474SOL    HW123321   0.149   2.972   5.686 -2.1503 -0.0502  0.6988
 7474SOL    HW223322   0.192   2.856   5.580  1.6576  0.8038  1.1572
 7475SOL     OW23323   3.640   2.140   1.355  0.3312 -0.3068  0.8283
 7475SOL    HW123324   3.640   2.162   1.452 -1.1019 -1.3519  1.0960
 7475SOL    HW223325   3.666   2.221   1.302  2.0847  0.0224  2.0899
 7476SOL     OW23326   4.347   1.225   3.123  0.0860 -0.0275  0.2490
 7476SOL    HW123327   4.313   1.145   3.174 -0.3609 -1.4191 -2.0911
 7476SOL    HW223328   4.284   1.301   3.135 -1.1593 -0.9947  0.0819
 7477SOL     OW23329   2.723   2.816   5.390  0.1997 -0.3282  0.1216
 7477SOL    HW123330   2.635   2.825   5.344  0.0046 -1.2676  0.2919
 7477SOL    HW223331   2.714   2.839   5.486 -0.1177 -1.4781  0.3812
 7478SOL     OW23332   1.100   4.117   0.290  0.3865  0.0500  0.0358
 7478SOL    HW123333   1.188   4.089   0.328  1.0454  1.3456 -0.4447
 7478SOL    HW223334   1.071   4.051   0.221  0.8266 -0.5651  0.4347
 7479SOL     OW23335   5.273   4.243   2.846 -0.9433  0.2644 -0.2546
 7479SOL    HW123336   5.300   4.177   2.777 -1.5125  0.2764 -0.4924
 7479SOL    HW223337   5.348   4.256   2.911 -0.5071  0.0542 -0.7131
 7480SOL     OW23338   4.280   4.745   1.717  0.5042 -0.0007 -0.3501
 7480SOL    HW123339   4.333   4.667   1.751  1.3573  0.6253 -0.2055
 7480SOL    HW223340   4.197   4.755   1.772  0.1455 -1.0652 -0.6536
 7481SOL     OW23341   6.901   2.099   5.979 -0.1268 -0.1076  0.3753
 7481SOL    HW123342   6.952   2.096   6.065 -1.3061 -0.8636  1.0761
 7481SOL    HW223343   6.805   2.121   5.998 -0.2682  0.4132 -0.8306
 7482SOL     OW23344   3.477   2.132   4.515 -0.1421 -0.3355  0.1749
 7482SOL    HW123345   3.573   2.157   4.508 -0.5863  1.0699 -1.8375
 7482SOL    HW223346   3.445   2.145   4.609  1.9667 -2.3736  1.2746
 7483SOL     OW23347   5.209   0.556   6.593 -0.5509  0.2749  0.1656
 7483SOL    HW123348   5.307   0.536   6.593 -0.5480  0.2315 -0.8349
 7483SOL    HW223349   5.158   0.473   6.617 -0.3421  0.2791  0.6190
 7484SOL     OW23350   3.591   1.849   4.817  0.3155  0.6693  0.0944
 7484SOL    HW123351   3.508   1.827   4.766  0.1035 -0.2646  0.7991
 7484SOL    HW223352   3.576   1.930   4.873 -1.7260 -1.8441  3.6003
 7485SOL     OW23353   5.306   6.548   0.609  0.0601 -0.9933 -0.0031
 7485SOL    HW123354   5.233   6.577   0.672 -1.2887 -2.5809 -0.7358
 7485SOL    HW223355   5.271   6.551   0.516  2.0167  1.2821 -0.7603
 7486SOL     OW23356   2.169   4.173   2.697  0.1573 -0.0340  0.2036
 7486SOL    HW123357   2.217   4.253   2.661 -2.5356  1.0421 -1.2596
 7486SOL    HW223358   2.192   4.092   2.643 -0.7400  0.7565 -1.4167
 7487SOL     OW23359   3.629   4.893   4.024 -0.2221  0.6066 -0.0472
 7487SOL    HW123360   3.700   4.958   4.049  0.8082 -0.2642 -0.6555
 7487SOL    HW223361   3.581   4.926   3.942  1.6372 -0.3161 -1.5798
 7488SOL     OW23362   0.403   6.386   2.814 -0.4629 -0.1865  0.1776
 7488SOL    HW123363   0.424   6.289   2.830  0.6317  0.1700  1.0014
 7488SOL    HW223364   0.373   6.398   2.719  0.5425 -1.1493 -0.2915
 7489SOL     OW23365   3.809   3.093   4.845 -0.4149  0.1635  0.6213
 7489SOL    HW123366   3.741   3.167   4.846 -1.1287 -0.4764  2.2212
 7489SOL    HW223367   3.826   3.065   4.751 -0.3164  2.1709 -0.0192
 7490SOL     OW23368   1.353   3.495   0.508 -0.1249 -0.4137 -0.0769
 7490SOL    HW123369   1.426   3.513   0.574  0.7003 -0.2018 -1.0172
 7490SOL    HW223370   1.320   3.581   0.471  0.6474 -0.5870 -1.2202
 7491SOL     OW23371   5.714   5.309   0.989  0.0581 -0.3315 -0.1684
 7491SOL    HW123372   5.794   5.299   1.048 -1.1077 -0.6602  1.4159
 7491SOL    HW223373   5.649   5.372   1.032 -0.2815  0.4209 -1.7230
 7492SOL     OW23374   2.096   3.388   5.360 -0.6062  0.8425  0.1612
 7492SOL    HW123375   2.087   3.423   5.453 -0.5559 -0.0605  0.5093
 7492SOL    HW223376   2.188   3.405   5.327 -0.0308 -0.5433  0.9924
 7493SOL     OW23377   0.876   5.376   5.269  0.1467  0.2608  0.1115
 7493SOL    HW123378   0.913   5.287   5.294  0.1382 -0.1697 -1.3361
 7493SOL    HW223379   0.910   5.403   5.179 -0.0633  1.6083  0.4035
 7494SOL     OW23380   0.013   6.862   3.959 -0.0648  0.1147  0.3628
 7494SOL    HW123381   0.011   6.858   4.059 -1.0702  1.2556  0.4046
 7494SOL    HW223382   0.053   6.778   3.923  1.7262  0.3187  1.7658
 7495SOL     OW23383   0.330   3.385   3.847 -0.2111  0.3701  0.1353
 7495SOL    HW123384   0.355   3.293   3.820 -0.4194 -0.3257  2.1540
 7495SOL    HW223385   0.410   3.432   3.885 -0.3072  0.6892 -0.0551
 7496SOL     OW23386   6.476   3.037   3.826  0.1963 -0.2475 -0.2812
 7496SOL    HW123387   6.508   2.993   3.742 -0.1245 -0.4057 -0.3248
 7496SOL    HW223388   6.396   3.093   3.806  0.2803 -0.0699 -0.1278
 7497SOL     OW23389   5.756   6.642   1.215  0.0838  0.3964 -0.0443
 7497SOL    HW123390   5.786   6.602   1.301  1.1921 -0.2604 -0.7132
 7497SOL    HW223391   5.715   6.570   1.158  1.9362  0.1883 -1.1922
 7498SOL     OW23392   2.202   6.895   3.131  0.1072  0.9068  0.4225
 7498SOL    HW123393   2.225   6.899   3.228  1.1699  0.1463  0.2146
 7498SOL    HW223394   2.208   6.801   3.099  0.0077  1.1899 -0.4447
 7499SOL     OW23395   3.229   1.835   2.955  0.5351  0.3897 -0.7582
 7499SOL    HW123396   3.303   1.838   3.023 -0.5755  1.2133  0.4761
 7499SOL    HW223397   3.145   1.802   2.999  0.3573 -1.4420 -2.3611
 7500SOL     OW23398   5.926   2.386   6.045  0.1365 -0.1536 -0.5978
 7500SOL    HW123399   6.004   2.429   6.090  0.7870 -0.4113 -1.4599
 7500SOL    HW223400   5.854   2.454   6.031 -0.9086 -0.4302  2.4902
 7501SOL     OW23401   5.611   6.688   2.784  0.5477 -0.4168  0.1301
 7501SOL    HW123402   5.673   6.611   2.799  1.2376  0.5040  2.5222
 7501SOL    HW223403   5.534   6.681   2.847  0.1866  0.4075 -0.2049
 7502SOL     OW23404   1.430   2.795   2.506  0.8287 -0.0878 -0.3126
 7502SOL    HW123405   1.433   2.724   2.577  0.6966  2.2880  2.2619
 7502SOL    HW223406   1.512   2.787   2.448  1.9296 -1.0139  1.2841
 7503SOL     OW23407   2.250   6.537   1.407 -0.4475 -0.4973 -0.0986
 7503SOL    HW123408   2.241   6.637   1.416  1.0753 -0.4051  0.6002
 7503SOL    HW223409   2.291   6.515   1.319 -0.7392 -0.5200 -0.2323
 7504SOL     OW23410   0.525   0.622   4.076  0.4547  0.2960 -0.5224
 7504SOL    HW123411   0.517   0.693   4.146  2.1759  0.2269 -0.2157
 7504SOL    HW223412   0.480   0.653   3.992  0.8575  1.5845 -0.2866
 7505SOL     OW23413   0.473   4.665   6.488  0.2612 -0.7099  0.3976
 7505SOL    HW123414   0.443   4.744   6.434  1.0739 -1.7154 -1.6427
 7505SOL    HW223415   0.479   4.691   6.584 -1.0944  1.2246  0.0261
 7506SOL     OW23416   2.743   1.548   4.240  0.1839  0.0111  0.1156
 7506SOL    HW123417   2.742   1.633   4.293 -0.4550  0.3017 -0.3342
 7506SOL    HW223418   2.808   1.557   4.164  1.7696 -0.7357  1.3300
 7507SOL     OW23419   0.873   4.885   6.689 -0.3271  0.6635 -0.0396
 7507SOL    HW123420   0.781   4.881   6.729  0.3666 -0.7409  1.5335
 7507SOL    HW223421   0.934   4.823   6.738  0.9025 -0.3207 -2.6153
 7508SOL     OW23422   3.150   6.384   1.061 -0.2701  0.0113  0.2969
 7508SOL    HW123423   3.199   6.368   0.975 -0.6811  0.4381 -0.0192
 7508SOL    HW223424   3.214   6.419   1.129  0.8801 -3.6510  1.2961
 7509SOL     OW23425   5.902   2.636   3.886  0.4944 -0.1698 -0.2188
 7509SOL    HW123426   5.985   2.659   3.834  0.7657 -0.1395  0.2246
 7509SOL    HW223427   5.885   2.538   3.879  0.2898 -0.1052 -0.7113
 7510SOL     OW23428   1.880   4.788   1.900 -0.0871 -0.3551  0.3630
 7510SOL    HW123429   1.861   4.865   1.961 -0.9621  1.7198 -2.3560
 7510SOL    HW223430   1.977   4.787   1.878 -0.0225 -0.2166  0.6322
 7511SOL     OW23431   5.339   5.058   2.455  0.0168  0.5685  0.0280
 7511SOL    HW123432   5.266   4.996   2.425  0.9699 -0.5915  0.0498
 7511SOL    HW223433   5.299   5.146   2.480 -1.6167 -0.6003  1.7804
 7512SOL     OW23434   6.124   6.453   2.357  0.6926  0.1514 -0.3064
 7512SOL    HW123435   6.069   6.448   2.273  1.9679 -1.2698 -1.1036
 7512SOL    HW223436   6.152   6.360   2.384  0.1590  0.5483  1.8199
 7513SOL     OW23437   0.321   6.110   4.428  0.6469  0.1561 -0.2619
 7513SOL    HW123438   0.377   6.192   4.442  1.8019 -0.7296  0.5083
 7513SOL    HW223439   0.286   6.078   4.516  0.6582 -0.4702 -0.4769
 7514SOL     OW23440   0.723   5.227   1.503  0.4031  0.0470  0.6230
 7514SOL    HW123441   0.707   5.310   1.557 -0.1853  0.9639 -0.8762
 7514SOL    HW223442   0.765   5.253   1.416 -2.6856 -0.8092 -1.2662
 7515SOL     OW23443   1.072   5.695   5.458  0.8382  0.1172  0.3056
 7515SOL    HW123444   1.156   5.689   5.403 -0.1858  2.4272 -1.6907
 7515SOL    HW223445   0.993   5.685   5.398 -0.3373  1.4737  1.5717
 7516SOL     OW23446   2.384   6.827   4.917 -0.8092  0.1352  0.0245
 7516SOL    HW123447   2.329   6.818   4.833 -0.8484 -0.5656  0.1126
 7516SOL    HW223448   2.454   6.896   4.904 -0.6650 -0.1310 -0.6733
 7517SOL     OW23449   0.732   3.039   0.212  0.5128 -0.6942  0.2304
 7517SOL    HW123450   0.647   2.993   0.235 -0.1443 -0.3753 -1.4350
 7517SOL    HW223451   0.720   3.138   0.218  0.6218 -0.6351 -0.4837
 7518SOL     OW23452   3.951   1.849   5.003 -0.5524  0.2783  0.3544
 7518SOL    HW123453   3.863   1.807   5.026 -0.1438 -0.9571 -0.2590
 7518SOL    HW223454   3.997   1.794   4.933  0.8356  0.7361  0.8738
 7519SOL     OW23455   2.887   1.359   6.077  0.4970  0.0366 -0.7637
 7519SOL    HW123456   2.800   1.349   6.125  1.1733 -0.2729  0.4352
 7519SOL    HW223457   2.930   1.270   6.067  1.5743  0.3936  0.4206
 7520SOL     OW23458   2.603   1.193   6.170 -0.1235 -0.4514  0.5991
 7520SOL    HW123459   2.562   1.283   6.190  0.4225 -0.3043  1.0790
 7520SOL    HW223460   2.551   1.148   6.098 -1.1052 -0.2397  1.1538
 7521SOL     OW23461   5.085   1.343   5.235 -0.1841  0.1327  0.1895
 7521SOL    HW123462   5.112   1.293   5.318  2.3812  0.1061 -0.5772
 7521SOL    HW223463   5.143   1.314   5.159 -1.1323  1.6238 -1.1485
 7522SOL     OW23464   3.158   0.185   3.973 -0.2911  0.0497 -0.4091
 7522SOL    HW123465   3.087   0.238   4.019 -0.6142 -0.8831  0.1985
 7522SOL    HW223466   3.247   0.229   3.986 -0.6154  0.6887 -0.3270
 7523SOL     OW23467   4.212   3.248   1.660  0.4011 -0.0391  0.9844
 7523SOL    HW123468   4.131   3.250   1.719  0.1180 -0.8792  0.6350
 7523SOL    HW223469   4.206   3.321   1.592 -0.5173 -0.6517  0.3830
 7524SOL     OW23470   2.442   4.535   4.249  0.6443 -0.3757 -0.5809
 7524SOL    HW123471   2.380   4.466   4.209  0.8387 -1.0742  0.2924
 7524SOL    HW223472   2.437   4.529   4.349  0.5015  1.0434 -0.4936
 7525SOL     OW23473   6.273   4.128   6.180  0.0291  0.0798 -0.1911
 7525SOL    HW123474   6.209   4.192   6.137 -0.4897 -1.5838 -2.0729
 7525SOL    HW223475   6.366   4.164   6.172 -0.0609 -0.0713 -2.6909
 7526SOL     OW23476   6.258   2.110   1.495  0.2565 -0.0415 -0.7916
 7526SOL    HW123477   6.259   2.037   1.427  0.4204  1.9189 -3.0254
 7526SOL    HW223478   6.316   2.186   1.464  1.0735  0.5971  2.0025
 7527SOL     OW23479   3.139   5.864   2.006  0.6302 -0.1276 -0.8470
 7527SOL    HW123480   3.148   5.772   1.968  1.0013 -0.0280 -1.0009
 7527SOL    HW223481   3.229   5.901   2.026  0.4484 -0.1582  0.0812
 7528SOL     OW23482   4.171   1.762   0.474 -0.2047  0.9947 -0.2288
 7528SOL    HW123483   4.207   1.819   0.549 -1.2679  2.1484 -0.5600
 7528SOL    HW223484   4.241   1.752   0.404 -0.0355  2.0222 -0.2209
 7529SOL     OW23485   5.015   3.306   4.316  0.2890  0.0651  0.1876
 7529SOL    HW123486   4.974   3.342   4.400 -0.3120 -0.7559  0.2626
 7529SOL    HW223487   4.993   3.366   4.239 -2.4892 -1.1416 -0.0779
 7530SOL     OW23488   1.888   2.879   2.585 -0.3608 -0.3633  0.5643
 7530SOL    HW123489   1.879   2.780   2.572 -1.2215 -0.1912 -0.2488
 7530SOL    HW223490   1.983   2.906   2.569 -0.4636 -0.8232 -0.9718
 7531SOL     OW23491   4.233   1.969   4.404  0.3415 -0.3212 -0.6889
 7531SOL    HW123492   4.229   2.068   4.403 -1.2993 -0.2968  1.6710
 7531SOL    HW223493   4.261   1.936   4.313  0.1893  2.2285 -1.7400
 7532SOL     OW23494   3.969   4.421   0.958  0.1484  0.3669  0.2350
 7532SOL    HW123495   3.928   4.502   0.916 -1.1608  0.3378  1.3969
 7532SOL    HW223496   4.053   4.397   0.910  0.5786  2.4331 -0.1048
 7533SOL     OW23497   3.503   5.491   2.332 -0.0466  0.2683  0.0657
 7533SOL    HW123498   3.459   5.470   2.245 -0.7231 -2.1092  0.9116
 7533SOL    HW223499   3.599   5.465   2.328 -0.0659  0.2046  0.0181
 7534SOL     OW23500   4.965   6.749   4.761  0.2290 -0.1014 -0.0655
 7534SOL    HW123501   5.000   6.794   4.843 -0.0965 -0.7134  0.4097
 7534SOL    HW223502   4.866   6.738   4.768  0.5412 -2.9958  0.9027
 7535SOL     OW23503   1.446   5.997   4.787 -0.0158  0.4385  0.0606
 7535SOL    HW123504   1.392   5.922   4.749  1.1173  0.3523 -1.5028
 7535SOL    HW223505   1.386   6.074   4.811 -0.9404 -0.1055 -0.4843
 7536SOL     OW23506   5.260   0.488   2.784  0.7723 -0.2846 -0.7277
 7536SOL    HW123507   5.212   0.549   2.847 -0.9275 -0.5918 -1.6840
 7536SOL    HW223508   5.234   0.509   2.690  1.0021 -1.7676 -1.1486
 7537SOL     OW23509   2.129   6.627   0.161 -0.1369  0.3874  0.2397
 7537SOL    HW123510   2.137   6.527   0.165  0.4231  0.3435 -1.2351
 7537SOL    HW223511   2.157   6.659   0.070 -0.5533  1.8710  0.6038
 7538SOL     OW23512   6.413   5.798   0.081 -0.4722 -0.3367  0.2281
 7538SOL    HW123513   6.376   5.724   0.137 -1.0901 -1.2606 -1.3403
 7538SOL    HW223514   6.340   5.838   0.025  0.1594  0.4241 -0.0757
 7539SOL     OW23515   0.365   1.778   4.572 -0.5935  0.6596  0.3366
 7539SOL    HW123516   0.283   1.814   4.617 -1.1222 -0.2913  0.1449
 7539SOL    HW223517   0.428   1.744   4.642 -0.7509  0.5701  0.4357
 7540SOL     OW23518   5.040   4.454   3.514  0.6631 -0.1614 -0.4844
 7540SOL    HW123519   4.968   4.495   3.569  2.4961 -0.8615  2.6767
 7540SOL    HW223520   5.072   4.519   3.445  1.1585  2.5489  2.1176
 7541SOL     OW23521   2.217   2.956   1.719 -0.2003 -0.1822 -0.0985
 7541SOL    HW123522   2.201   3.017   1.797  0.0561 -0.7400  0.4031
 7541SOL    HW223523   2.306   2.911   1.730  0.1786  0.2900 -1.0988
 7542SOL     OW23524   5.431   6.308   2.092  0.3700  0.8109  0.3474
 7542SOL    HW123525   5.463   6.323   1.999 -1.4815  2.9991 -0.0322
 7542SOL    HW223526   5.424   6.210   2.109  0.9099  0.3541 -1.7558
 7543SOL     OW23527   3.216   0.617   1.468 -0.0831  0.1133  0.0585
 7543SOL    HW123528   3.260   0.572   1.390  0.5533  0.4304  0.2264
 7543SOL    HW223529   3.136   0.668   1.436 -1.1611 -1.5783 -0.0521
 7544SOL     OW23530   5.897   0.730   3.993 -0.0091  0.8823 -0.7768
 7544SOL    HW123531   5.845   0.732   4.079  0.0295 -3.2088 -0.4333
 7544SOL    HW223532   5.994   0.718   4.013 -0.2187 -2.5584 -1.1539
 7545SOL     OW23533   0.470   4.856   5.280 -0.3972  0.0778 -0.6011
 7545SOL    HW123534   0.402   4.874   5.209 -1.7871  0.6055  0.8228
 7545SOL    HW223535   0.491   4.941   5.329  0.0452 -0.4056  0.0611
 7546SOL     OW23536   1.618   2.755   2.258  0.2187  0.6447  0.4321
 7546SOL    HW123537   1.710   2.716   2.256  0.5742  1.4754  0.1488
 7546SOL    HW223538   1.574   2.743   2.170  0.4363  1.1287  0.2553
 7547SOL     OW23539   5.140   2.056   1.117 -0.3896 -0.8579  0.5893
 7547SOL    HW123540   5.132   2.151   1.148 -0.4293 -1.2360  1.8090
 7547SOL    HW223541   5.056   2.007   1.141 -0.4274 -1.1693 -0.1709
 7548SOL     OW23542   2.303   1.857   5.382 -0.4011 -0.1249  0.8107
 7548SOL    HW123543   2.274   1.941   5.427 -0.8070 -0.9632  2.1904
 7548SOL    HW223544   2.305   1.783   5.449 -0.7748 -1.3868 -0.5233
 7549SOL     OW23545   6.996   0.235   4.330 -0.0189  0.0841  0.2917
 7549SOL    HW123546   7.013   0.295   4.251  1.8764 -2.3971 -1.3714
 7549SOL    HW223547   6.898   0.231   4.348 -0.6206  0.3000 -2.3989
 7550SOL     OW23548   1.441   6.985   6.215 -0.3311  0.3359 -0.2974
 7550SOL    HW123549   1.527   7.001   6.264 -0.3634  0.1205 -0.1668
 7550SOL    HW223550   1.419   6.887   6.219  0.5874 -0.0115 -2.2723
 7551SOL     OW23551   0.970   3.289   3.266  0.3113  0.1564 -0.3089
 7551SOL    HW123552   0.992   3.196   3.237  0.1996  0.5217 -1.6362
 7551SOL    HW223553   1.054   3.341   3.279  0.5834 -0.8720  3.3365
 7552SOL     OW23554   2.960   6.784   5.711  0.1200  0.4832 -0.0003
 7552SOL    HW123555   3.022   6.706   5.722  0.2672  0.5272 -0.4905
 7552SOL    HW223556   2.938   6.822   5.801  0.2835  0.0589  0.2198
 7553SOL     OW23557   0.001   6.242   5.756 -0.2702  0.8320  0.2528
 7553SOL    HW123558   0.087   6.253   5.707  0.6795 -0.2239  1.5910
 7553SOL    HW223559   0.020   6.220   5.852 -2.0468  1.2552  0.7452
 7554SOL     OW23560   5.705   6.170   1.497  0.1132  0.0555  0.0179
 7554SOL    HW123561   5.630   6.211   1.550  0.1041  1.0842 -0.7727
 7554SOL    HW223562   5.791   6.215   1.521  0.2583 -0.1363 -0.1445
 7555SOL     OW23563   2.313   5.854   5.150  0.1183 -0.2901  0.1170
 7555SOL    HW123564   2.289   5.760   5.124  0.0167 -0.4301  0.7158
 7555SOL    HW223565   2.231   5.903   5.179  0.4950 -0.7256  2.0237
 7556SOL     OW23566   1.528   6.196   0.361  0.1092  0.2359 -0.1926
 7556SOL    HW123567   1.625   6.176   0.349  0.1668 -0.5005  1.2160
 7556SOL    HW223568   1.500   6.268   0.298  1.1813 -0.6446 -1.7583
 7557SOL     OW23569   3.680   5.669   6.809 -0.3103  0.3102  0.6174
 7557SOL    HW123570   3.618   5.654   6.732  1.2691 -2.0572 -0.2927
 7557SOL    HW223571   3.757   5.725   6.779 -0.6001  0.9175  0.9925
 7558SOL     OW23572   1.575   0.582   4.451  0.5188 -0.0345 -0.7635
 7558SOL    HW123573   1.625   0.543   4.529  0.6166 -0.0914 -0.8541
 7558SOL    HW223574   1.497   0.523   4.429  0.1442  0.2970 -0.3329
 7559SOL     OW23575   1.657   7.002   4.703 -0.4067 -0.4280 -0.0909
 7559SOL    HW123576   1.725   6.931   4.682 -0.3763 -0.0161 -1.4745
 7559SOL    HW223577   1.589   7.006   4.629 -1.2898 -0.0445  0.7144
 7560SOL     OW23578   2.089   0.301   4.934 -0.0832 -0.1139 -0.3325
 7560SOL    HW123579   2.086   0.331   4.839  1.2294 -0.6207 -0.5533
 7560SOL    HW223580   2.088   0.381   4.994 -2.3166  0.1844 -0.6878
 7561SOL     OW23581   3.343   0.137   4.683 -0.6382  0.0543 -0.5116
 7561SOL    HW123582   3.423   0.137   4.624 -1.4343 -0.8830 -1.6457
 7561SOL    HW223583   3.363   0.188   4.767  0.7503  0.8195 -1.2671
 7562SOL     OW23584   1.453   3.247   5.616  0.0032  0.3507  0.5718
 7562SOL    HW123585   1.355   3.230   5.608  0.1550  0.0067 -0.9413
 7562SOL    HW223586   1.475   3.337   5.577  0.4808 -0.3172 -0.7948
 7563SOL     OW23587   1.796   3.312   4.600 -0.5547 -0.2456  0.5045
 7563SOL    HW123588   1.867   3.355   4.655  1.4745  0.3625 -2.3477
 7563SOL    HW223589   1.769   3.374   4.526 -4.4469 -0.2897  1.6502
 7564SOL     OW23590   6.635   3.975   6.378  0.8071  0.0949 -0.2027
 7564SOL    HW123591   6.681   3.892   6.348  0.8042 -0.3532  0.9876
 7564SOL    HW223592   6.619   4.035   6.299 -2.2233 -2.4698 -1.7510
 7565SOL     OW23593   5.144   4.360   6.634 -0.2399  0.2155  0.1616
 7565SOL    HW123594   5.208   4.342   6.709 -0.1349 -1.2725 -0.2482
 7565SOL    HW223595   5.141   4.458   6.615  0.4472  0.5096  1.4726
 7566SOL     OW23596   4.658   5.296   0.396 -0.8285 -0.3157  0.2377
 7566SOL    HW123597   4.676   5.215   0.341  0.5213  0.2190 -0.1530
 7566SOL    HW223598   4.662   5.273   0.493 -0.2255 -0.6854  0.1297
 7567SOL     OW23599   2.928   2.091   2.674 -0.4421  0.0768 -0.3633
 7567SOL    HW123600   3.020   2.126   2.656 -1.0172  1.2058 -1.2862
 7567SOL    HW223601   2.923   2.055   2.767  0.7060  0.7309 -0.0313
 7568SOL     OW23602   5.521   3.702   0.579 -0.0266  0.3591  0.0649
 7568SOL    HW123603   5.494   3.618   0.625 -0.3221  0.3996 -0.0344
 7568SOL    HW223604   5.615   3.693   0.546  0.3396  0.4939  1.0489
 7569SOL     OW23605   4.484   4.588   1.544 -0.3915  0.0162 -0.0846
 7569SOL    HW123606   4.406   4.565   1.486 -0.5808 -0.2104  0.2518
 7569SOL    HW223607   4.463   4.563   1.639  1.1004 -2.5283 -0.3461
 7570SOL     OW23608   1.478   1.885   1.064  0.0520 -0.1482  0.4065
 7570SOL    HW123609   1.530   1.912   1.145  1.6032 -0.4061 -0.4687
 7570SOL    HW223610   1.501   1.791   1.039 -0.8733 -0.2825  0.0001
 7571SOL     OW23611   5.268   3.059   4.076  0.1198 -0.0374 -0.0227
 7571SOL    HW123612   5.239   3.103   4.161 -1.8187 -0.1800 -0.5610
 7571SOL    HW223613   5.305   2.968   4.097 -0.4875 -0.1366  0.6642
 7572SOL     OW23614   3.359   6.033   1.650  0.3601  0.0890 -0.1488
 7572SOL    HW123615   3.448   6.022   1.607 -0.7377  0.3412 -2.6306
 7572SOL    HW223616   3.329   5.946   1.689 -0.3085 -1.3167 -3.4839
 7573SOL     OW23617   4.895   6.618   6.777 -0.1253 -0.0253 -0.0333
 7573SOL    HW123618   4.888   6.609   6.877 -0.7462  1.0346  0.0291
 7573SOL    HW223619   4.808   6.649   6.740 -0.0441 -0.8749 -0.9768
 7574SOL     OW23620   6.734   2.041   3.562 -0.0320 -0.0172  0.6443
 7574SOL    HW123621   6.775   2.084   3.643 -1.7063  2.1399  0.4464
 7574SOL    HW223622   6.807   2.008   3.502  1.2888  0.0405  2.1344
 7575SOL     OW23623   1.035   0.259   6.148 -0.0256 -0.2506  0.3674
 7575SOL    HW123624   1.027   0.316   6.229 -1.3836 -0.5748  0.4759
 7575SOL    HW223625   1.129   0.223   6.142  1.3033  2.9977 -0.4472
 7576SOL     OW23626   4.113   2.051   6.795 -0.1980  0.5124  0.2677
 7576SOL    HW123627   4.207   2.056   6.828 -0.0190 -0.7845  0.0286
 7576SOL    HW223628   4.052   2.093   6.862  0.4073  0.0444  1.1421
 7577SOL     OW23629   4.925   1.599   6.785  0.4958 -0.5703  0.0186
 7577SOL    HW123630   4.845   1.540   6.777  0.1588 -0.1198  0.0486
 7577SOL    HW223631   5.008   1.546   6.766  0.2847 -1.3046  1.0294
 7578SOL     OW23632   5.209   6.273   3.514 -0.7723 -0.3710 -0.0693
 7578SOL    HW123633   5.203   6.359   3.464  2.1271  2.3591  3.7271
 7578SOL    HW223634   5.137   6.269   3.583  0.4696  0.2526  1.3137
 7579SOL     OW23635   2.389   0.660   6.344  0.1013 -0.0477  0.3428
 7579SOL    HW123636   2.440   0.740   6.312  1.6299 -1.1537 -0.1131
 7579SOL    HW223637   2.333   0.624   6.269  0.3058 -0.0637  0.1956
 7580SOL     OW23638   1.542   4.767   3.607  0.2190  0.0335 -0.7636
 7580SOL    HW123639   1.507   4.829   3.536  1.3323  0.1930 -1.2012
 7580SOL    HW223640   1.636   4.792   3.628 -0.3596  0.5421  1.4131
 7581SOL     OW23641   6.949   0.035   6.376 -0.4537  0.2658  0.0517
 7581SOL    HW123642   6.901  -0.045   6.340 -2.4945  1.8743 -1.0309
 7581SOL    HW223643   6.890   0.083   6.442  0.4948  1.1726  0.2735
 7582SOL     OW23644   1.316   0.460   5.284 -0.0999  0.5172  0.3254
 7582SOL    HW123645   1.373   0.503   5.354 -0.7271  1.7513  0.1005
 7582SOL    HW223646   1.274   0.377   5.321  2.0516 -0.6043  0.4010
 7583SOL     OW23647   4.872   3.124   2.374  0.1980  0.5019  0.1255
 7583SOL    HW123648   4.886   3.111   2.275  1.1244 -1.1713  0.4414
 7583SOL    HW223649   4.822   3.209   2.389  1.3531  1.5960 -1.7082
 7584SOL     OW23650   0.804   0.809   3.235  0.2390 -0.1923  0.0085
 7584SOL    HW123651   0.793   0.759   3.321  1.5149 -0.8337 -0.1730
 7584SOL    HW223652   0.897   0.846   3.229 -0.5097  1.7959 -0.1057
 7585SOL     OW23653   1.969   0.652   4.449  0.2935  0.6704 -0.4535
 7585SOL    HW123654   1.944   0.749   4.453  0.9541  0.8028  1.2062
 7585SOL    HW223655   2.058   0.642   4.406  0.3253  0.8174 -0.4229
 7586SOL     OW23656   1.478   1.259   3.011 -0.4493 -0.3524  0.1384
 7586SOL    HW123657   1.433   1.262   3.100 -0.5736 -1.1985  0.1153
 7586SOL    HW223658   1.568   1.217   3.020 -0.2316  0.0708 -0.0444
 7587SOL     OW23659   3.135   6.150   3.067 -0.0424  0.3327  0.5511
 7587SOL    HW123660   3.047   6.180   3.104 -0.3588 -1.2301  1.1339
 7587SOL    HW223661   3.131   6.052   3.048  0.9132  0.6295 -1.3845
 7588SOL     OW23662   0.968   2.956   4.906 -0.2285  0.2798  0.4258
 7588SOL    HW123663   1.036   2.973   4.978  1.1895  0.3036 -0.8757
 7588SOL    HW223664   0.932   2.863   4.917 -0.6688  0.5730  1.6501
 7589SOL     OW23665   0.551   5.579   3.383 -0.0485  0.1838  0.3043
 7589SOL    HW123666   0.644   5.608   3.402  0.1855 -0.9763  1.0109
 7589SOL    HW223667   0.495   5.659   3.360  1.9436  0.5892 -4.0907
 7590SOL     OW23668   0.265   1.291   6.882 -0.9362 -0.1427  0.2251
 7590SOL    HW123669   0.196   1.266   6.950 -1.2388  1.7654  0.6821
 7590SOL    HW223670   0.228   1.362   6.822 -0.4944 -1.4496 -1.6560
 7591SOL     OW23671   3.646   3.746   5.313  0.2688 -0.0361  0.3011
 7591SOL    HW123672   3.712   3.752   5.238  1.5191  0.2999  1.3930
 7591SOL    HW223673   3.666   3.666   5.370  0.6062  0.8266  1.4306
 7592SOL     OW23674   1.810   0.795   4.179  0.1233 -0.1567 -0.2940
 7592SOL    HW123675   1.809   0.813   4.278  0.6194 -1.1447 -0.0974
 7592SOL    HW223676   1.723   0.754   4.152  0.1876 -0.3740 -0.1721
 7593SOL     OW23677   0.576   0.906   5.070  0.2676  0.1727  0.5395
 7593SOL    HW123678   0.498   0.927   5.129 -1.0938  0.4005 -1.2335
 7593SOL    HW223679   0.661   0.921   5.120 -0.7972  0.7815  2.2652
 7594SOL     OW23680   1.283   3.143   4.729  0.7268 -0.3543  0.1252
 7594SOL    HW123681   1.184   3.150   4.717  0.6421  0.1885  1.0277
 7594SOL    HW223682   1.309   3.047   4.742  0.5186 -0.6754 -1.5298
 7595SOL     OW23683   1.440   4.214   1.320 -0.4139  0.0951  0.2818
 7595SOL    HW123684   1.374   4.178   1.386 -0.4217  1.8013  1.2806
 7595SOL    HW223685   1.495   4.139   1.283 -1.4296 -1.0850  1.0786
 7596SOL     OW23686   3.023   1.170   1.213 -0.3010 -0.7067  0.2559
 7596SOL    HW123687   2.965   1.159   1.133  0.5891 -1.4911 -0.2983
 7596SOL    HW223688   2.985   1.241   1.272  0.5370  2.0414 -2.2447
 7597SOL     OW23689   3.342   4.433   0.447  0.3875 -0.2500  0.4865
 7597SOL    HW123690   3.430   4.445   0.403  0.1726  0.5736  0.2655
 7597SOL    HW223691   3.353   4.377   0.529  0.7652 -1.9287 -0.6643
 7598SOL     OW23692   4.593   0.174   2.194 -0.2317  0.0787 -0.0317
 7598SOL    HW123693   4.496   0.152   2.205 -0.6469  1.4593 -0.6675
 7598SOL    HW223694   4.648   0.092   2.208 -1.2800 -0.2371  2.9604
 7599SOL     OW23695   3.537   3.537   6.900 -0.0156 -0.5405 -0.1474
 7599SOL    HW123696   3.478   3.617   6.883 -0.8532 -1.1416 -0.1104
 7599SOL    HW223697   3.633   3.566   6.899 -0.0605 -0.0742 -3.5747
 7600SOL     OW23698   2.169   0.931   4.906  0.5953 -0.0388 -0.5594
 7600SOL    HW123699   2.123   1.008   4.950 -0.5121 -1.1090  0.2233
 7600SOL    HW223700   2.262   0.957   4.883  0.7430  1.0465  1.0760
 7601SOL     OW23701   2.543   5.179   0.978  0.0774 -0.3104  0.4789
 7601SOL    HW123702   2.519   5.274   0.997  0.8780  0.0192 -0.1145
 7601SOL    HW223703   2.459   5.124   0.972 -0.3552  0.1900  1.6131
 7602SOL     OW23704   1.430   1.430   6.557 -0.0626  0.2784 -0.4398
 7602SOL    HW123705   1.425   1.530   6.556 -0.9805  0.2965  1.4840
 7602SOL    HW223706   1.526   1.401   6.562  0.1601  1.1316  0.5308
 7603SOL     OW23707   3.881   6.853   1.021 -0.3622  0.0744 -0.3055
 7603SOL    HW123708   3.903   6.917   1.094 -0.5122  0.3978 -0.5370
 7603SOL    HW223709   3.855   6.765   1.060 -1.1156  0.4491  0.0638
 7604SOL     OW23710   0.248   2.606   4.126 -0.1445 -0.5019  0.6608
 7604SOL    HW123711   0.303   2.680   4.164 -0.5423  1.2518 -1.9616
 7604SOL    HW223712   0.152   2.620   4.150 -0.3407  0.3758 -0.5726
 7605SOL     OW23713   3.380   3.994   0.624 -0.3330  0.3116 -0.3405
 7605SOL    HW123714   3.369   3.976   0.721 -2.2250  0.2330 -0.5408
 7605SOL    HW223715   3.440   3.925   0.584 -1.9205 -1.4583  0.2254
 7606SOL     OW23716   0.248   6.536   4.107  0.2402  0.1551 -0.6691
 7606SOL    HW123717   0.181   6.462   4.100  0.9936 -0.5920 -0.3234
 7606SOL    HW223718   0.242   6.577   4.198  0.7251 -0.4158 -0.3623
 7607SOL     OW23719   0.005   6.552   5.720 -0.3241 -0.6826  0.0704
 7607SOL    HW123720   0.068   6.526   5.793 -0.2031  0.5597  0.4233
 7607SOL    HW223721  -0.068   6.483   5.714 -0.2283 -0.9121  1.2334
 7608SOL     OW23722   1.062   1.042   0.161 -0.0253 -0.1325 -0.4384
 7608SOL    HW123723   1.139   1.064   0.220  0.3054 -1.7917 -0.1957
 7608SOL    HW223724   1.068   1.094   0.076  0.3494  1.1086  0.3292
 7609SOL     OW23725   2.914   1.475   4.611  0.2794  0.4265  0.2931
 7609SOL    HW123726   2.972   1.460   4.691  1.3942  0.8779 -0.3979
 7609SOL    HW223727   2.972   1.486   4.530 -0.8381 -0.3857 -0.6433
 7610SOL     OW23728   6.017   4.763   4.134  0.0651  0.5704  0.1413
 7610SOL    HW123729   5.955   4.696   4.095  0.3028  0.6593 -0.3980
 7610SOL    HW223730   6.073   4.804   4.061  1.3335 -0.1071  0.7004
 7611SOL     OW23731   6.399   2.711   7.016 -0.1703 -0.5824  0.1669
 7611SOL    HW123732   6.450   2.769   6.953  0.4879 -0.0797  1.1373
 7611SOL    HW223733   6.332   2.658   6.965  1.5998 -1.6035 -1.2305
 7612SOL     OW23734   3.459   2.185   1.090 -0.0688 -0.0995 -0.5964
 7612SOL    HW123735   3.485   2.282   1.099  1.1127 -0.5430  1.2430
 7612SOL    HW223736   3.541   2.130   1.078 -0.7107 -0.9404 -1.2229
 7613SOL     OW23737   6.388   1.156   0.621 -0.2246 -0.1726  0.0067
 7613SOL    HW123738   6.399   1.101   0.704 -1.0617 -0.5189 -0.0963
 7613SOL    HW223739   6.293   1.151   0.591 -0.2323  1.0312 -0.2228
 7614SOL     OW23740   5.660   6.124   0.209  0.1796  1.2980  0.3897
 7614SOL    HW123741   5.600   6.072   0.270  3.1547 -1.2860  1.3826
 7614SOL    HW223742   5.702   6.199   0.259  0.0737  1.2482  0.5553
 7615SOL     OW23743   6.020   4.129   5.887  0.3739  0.4509 -0.0678
 7615SOL    HW123744   6.019   4.211   5.944  2.2184 -0.2517  1.0783
 7615SOL    HW223745   6.101   4.074   5.909  0.2540 -0.6907 -2.2136
 7616SOL     OW23746   2.314   6.286   2.259 -0.1035 -0.2321  0.4016
 7616SOL    HW123747   2.328   6.325   2.168 -0.7091  0.9129  0.7786
 7616SOL    HW223748   2.216   6.288   2.281  0.1636  0.8806  1.6404
 7617SOL     OW23749   4.711   4.984   2.565  0.2084  0.1565  0.0127
 7617SOL    HW123750   4.692   5.057   2.499 -1.3149  1.0337  1.3555
 7617SOL    HW223751   4.804   4.994   2.599  0.4831  0.6322 -0.8357
 7618SOL     OW23752   3.205   0.943   0.148  0.2640 -0.6686 -0.0029
 7618SOL    HW123753   3.185   0.916   0.242 -2.6652 -3.0169 -1.1214
 7618SOL    HW223754   3.240   0.864   0.098  1.8463  0.5583 -0.9023
 7619SOL     OW23755   0.187   6.723   6.049  0.1427 -0.0044  0.5583
 7619SOL    HW123756   0.093   6.695   6.064 -0.7011  1.9633 -0.6799
 7619SOL    HW223757   0.225   6.761   6.134 -1.1463  1.7218  0.4170
 7620SOL     OW23758   2.072   3.432   1.725  0.2160 -0.2419  0.3105
 7620SOL    HW123759   2.132   3.436   1.806 -0.1309 -0.8084  0.5998
 7620SOL    HW223760   2.126   3.409   1.645  0.5477  0.2144  0.3972
 7621SOL     OW23761   5.047   4.685   0.801  0.1368 -0.0710  0.1033
 7621SOL    HW123762   4.970   4.635   0.841  1.4014 -2.5510 -0.4464
 7621SOL    HW223763   5.012   4.745   0.729 -1.5609  0.8565  1.6005
 7622SOL     OW23764   2.487   2.658   0.565 -0.2797  0.4388 -0.2662
 7622SOL    HW123765   2.480   2.592   0.639 -0.3679  1.8000  0.9789
 7622SOL    HW223766   2.549   2.732   0.591 -0.9037  1.3412 -1.2425
 7623SOL     OW23767   6.266   4.861   3.102 -0.1103 -0.2963  0.4057
 7623SOL    HW123768   6.275   4.791   3.173 -1.3082 -2.9610 -1.8665
 7623SOL    HW223769   6.319   4.834   3.022 -0.4255  1.5570 -0.4829
 7624SOL     OW23770   2.112   3.458   3.774 -0.5140  0.5474 -0.1099
 7624SOL    HW123771   2.144   3.527   3.838 -1.9806 -1.1356  2.6336
 7624SOL    HW223772   2.054   3.500   3.705 -0.0621  2.2404  0.5020
 7625SOL     OW23773   5.059   0.084   2.841  0.5397 -0.5272  0.5360
 7625SOL    HW123774   5.116   0.008   2.875 -0.5865 -1.0641  1.2947
 7625SOL    HW223775   4.963   0.056   2.841 -0.0327  1.2221  1.8373
 7626SOL     OW23776   4.327   6.705   0.946 -0.3052  0.2019  0.2999
 7626SOL    HW123777   4.257   6.635   0.929 -0.1860 -0.0170  0.6873
 7626SOL    HW223778   4.357   6.698   1.041 -0.5103  0.9822  0.4216
 7627SOL     OW23779   4.617   4.083   6.065 -0.1045 -0.2450  0.7064
 7627SOL    HW123780   4.651   4.174   6.042 -0.0468 -0.5198 -0.3468
 7627SOL    HW223781   4.565   4.047   5.988 -2.5853  0.0440  2.1155
 7628SOL     OW23782   2.183   4.464   6.313  0.5671 -0.0244 -0.3644
 7628SOL    HW123783   2.184   4.563   6.328 -1.7997  0.1353 -0.8988
 7628SOL    HW223784   2.267   4.424   6.349  2.4867  2.4018 -1.8895
 7629SOL     OW23785   5.161   3.408   2.493  0.9994  0.4279  0.3904
 7629SOL    HW123786   5.162   3.380   2.590  0.5067  1.0574  0.5823
 7629SOL    HW223787   5.195   3.501   2.485  2.5995 -0.1847 -0.2470
 7630SOL     OW23788   1.820   4.175   3.956  0.0287 -0.1726 -0.0155
 7630SOL    HW123789   1.755   4.100   3.959 -0.5244  0.3138  1.5983
 7630SOL    HW223790   1.830   4.214   4.048  2.7167 -0.3289 -0.1543
 7631SOL     OW23791   1.741   1.301   5.401  0.3526  0.2188  0.4158
 7631SOL    HW123792   1.706   1.208   5.407  0.6174  0.1428  0.8041
 7631SOL    HW223793   1.666   1.366   5.411 -0.1561  0.0561 -1.8178
 7632SOL     OW23794   4.161   5.900   0.787  0.4686  0.7219 -0.2723
 7632SOL    HW123795   4.111   5.956   0.722 -1.3372  1.4058  1.5823
 7632SOL    HW223796   4.166   5.806   0.753 -3.3668  0.2677 -0.0278
 7633SOL     OW23797   4.445   6.925   1.277 -0.3733 -0.5086 -0.6846
 7633SOL    HW123798   4.521   6.927   1.213 -1.7104 -1.1207 -2.3807
 7633SOL    HW223799   4.404   6.833   1.279 -0.0538 -0.6773  1.5020
 7634SOL     OW23800   0.600   2.500   6.137  0.2935 -0.1219 -0.3984
 7634SOL    HW123801   0.696   2.521   6.151  0.4196 -1.4448  0.9747
 7634SOL    HW223802   0.589   2.401   6.122 -0.7845  0.1108 -1.3631
 7635SOL     OW23803   1.799   4.283   3.008 -0.2476 -0.1399 -0.2341
 7635SOL    HW123804   1.871   4.236   2.957  0.2512  1.1697 -0.7746
 7635SOL    HW223805   1.754   4.218   3.069  1.0313 -1.1102 -0.2766
 7636SOL     OW23806   0.158   3.656   2.434  0.8838 -0.2048 -0.2028
 7636SOL    HW123807   0.208   3.697   2.510  2.1311 -0.8176 -0.6674
 7636SOL    HW223808   0.184   3.702   2.349  0.2368 -0.1799 -0.3926
 7637SOL     OW23809   1.040   3.603   5.849  0.5018 -0.0324  0.7638
 7637SOL    HW123810   1.054   3.694   5.808 -1.5992  0.0494  0.0963
 7637SOL    HW223811   1.085   3.600   5.939  0.7573  1.5998  0.7321
 7638SOL     OW23812   6.922   6.972   1.142 -0.1300 -0.2583  0.3016
 7638SOL    HW123813   6.919   6.954   1.044  0.7288 -1.5895  0.4938
 7638SOL    HW223814   6.964   6.894   1.189 -0.6127  0.3192  1.7397
 7639SOL     OW23815   2.807   5.220   6.654 -0.0197 -0.1076  0.2319
 7639SOL    HW123816   2.799   5.165   6.571  0.7218  0.9492 -0.5673
 7639SOL    HW223817   2.889   5.277   6.649 -0.0092  0.0571  1.6556
 7640SOL     OW23818   3.874   6.432   1.595 -0.0033  0.3713 -0.0835
 7640SOL    HW123819   3.857   6.372   1.673  1.8445  1.7936  1.5219
 7640SOL    HW223820   3.827   6.520   1.609  0.2134  0.5821 -0.6438
 7641SOL     OW23821   6.897   5.137   6.554 -0.1983  0.7021 -0.2931
 7641SOL    HW123822   6.905   5.145   6.653  1.1662 -0.5999 -0.2698
 7641SOL    HW223823   6.808   5.099   6.531 -0.5254  1.0175  0.4184
 7642SOL     OW23824   5.175   0.697   2.247  0.3202  0.1601 -0.2009
 7642SOL    HW123825   5.242   0.636   2.205 -0.2249 -1.0042  0.5799
 7642SOL    HW223826   5.150   0.663   2.338 -1.8378  0.1492 -0.7337
 7643SOL     OW23827   5.204   2.950   5.270 -0.4771 -0.1516  0.3416
 7643SOL    HW123828   5.300   2.977   5.281  0.0564 -1.9991  0.5722
 7643SOL    HW223829   5.197   2.878   5.201 -1.9491  1.0943 -0.8987
 7644SOL     OW23830   5.557   4.482   0.298  0.1151  0.3157  0.0834
 7644SOL    HW123831   5.578   4.502   0.394  2.0162 -0.1802 -0.1902
 7644SOL    HW223832   5.549   4.383   0.286  1.0372  0.2973 -0.4624
 7645SOL     OW23833   4.166   6.007   0.245 -0.3014 -0.6515  0.1732
 7645SOL    HW123834   4.246   5.952   0.270  0.9416  1.0849  0.1924
 7645SOL    HW223835   4.085   5.948   0.242  1.1288 -2.7267 -0.9885
 7646SOL     OW23836   1.228   1.967   2.473 -0.2800  0.1280  0.1029
 7646SOL    HW123837   1.184   2.056   2.461 -1.9821 -0.7966 -0.8582
 7646SOL    HW223838   1.268   1.938   2.386 -1.4742 -0.9047 -0.1279
 7647SOL     OW23839   6.746   2.761   3.752  0.4552 -0.0750  0.6949
 7647SOL    HW123840   6.710   2.791   3.840 -0.5972 -2.0900  0.9945
 7647SOL    HW223841   6.846   2.771   3.752  0.7366 -2.1926  3.0336
 7648SOL     OW23842   1.516   1.236   1.814  0.0698  0.0124  0.3133
 7648SOL    HW123843   1.543   1.142   1.838  0.1362  0.1400  0.7493
 7648SOL    HW223844   1.561   1.300   1.876 -0.1989  0.3177  0.1943
 7649SOL     OW23845   4.363   1.995   6.893  0.2368 -0.2247  0.1665
 7649SOL    HW123846   4.435   2.052   6.855  1.3587 -1.4867  0.3190
 7649SOL    HW223847   4.403   1.927   6.955 -1.1548 -0.5517  0.7611
 7650SOL     OW23848   1.330   1.029   7.012 -0.0921 -0.0794 -0.0132
 7650SOL    HW123849   1.429   1.013   7.015  0.5915  3.4006 -0.4702
 7650SOL    HW223850   1.282   0.944   7.035  2.9889 -1.3595  2.3650
 7651SOL     OW23851   1.064   0.407   6.585 -0.7452 -0.3835 -0.2074
 7651SOL    HW123852   1.036   0.432   6.677 -1.0977  2.1433 -0.9222
 7651SOL    HW223853   1.145   0.348   6.589 -1.0458 -0.7172  1.6838
 7652SOL     OW23854   0.429   0.775   3.846 -0.4063 -0.1170  0.0363
 7652SOL    HW123855   0.506   0.829   3.811 -0.9154 -0.5856 -1.9003
 7652SOL    HW223856   0.360   0.764   3.775 -1.3822 -1.3667  1.1179
 7653SOL     OW23857   0.456   1.236   0.971  0.0148 -0.2538  0.0384
 7653SOL    HW123858   0.547   1.257   1.006 -0.8063  0.5791  1.7804
 7653SOL    HW223859   0.463   1.212   0.874  2.0434 -0.0069  0.0721
 7654SOL     OW23860   5.202   1.725   4.888 -0.3235  0.2096  0.7847
 7654SOL    HW123861   5.123   1.775   4.923 -1.5047 -1.2029  0.2035
 7654SOL    HW223862   5.238   1.664   4.958 -1.2550 -0.9074  0.3188
 7655SOL     OW23863   3.678   2.336   5.415  0.6071 -0.3963  0.4914
 7655SOL    HW123864   3.589   2.362   5.378  1.2707  4.3198  1.5713
 7655SOL    HW223865   3.667   2.261   5.480 -2.2542 -1.1226 -0.7055
 7656SOL     OW23866   6.530   5.965   0.275 -0.2293  0.3687  0.2121
 7656SOL    HW123867   6.517   5.890   0.210 -0.9901  0.6760 -0.0061
 7656SOL    HW223868   6.521   5.931   0.368 -0.4488  0.1595  0.1166
 7657SOL     OW23869   0.966   4.077   3.737 -0.1280  0.1911  0.2518
 7657SOL    HW123870   0.959   3.979   3.720 -0.7208  0.6566 -2.8487
 7657SOL    HW223871   0.890   4.107   3.793  0.9171 -1.2883  2.6288
 7658SOL     OW23872   3.174   0.282   0.112  0.0770 -0.1135 -0.3733
 7658SOL    HW123873   3.198   0.282   0.014 -1.1410  0.5244 -0.6926
 7658SOL    HW223874   3.224   0.208   0.158  0.0217 -0.9914 -1.6506
 7659SOL     OW23875   5.205   6.572   4.715 -0.2970 -0.4758  0.5293
 7659SOL    HW123876   5.186   6.485   4.759  2.2695  0.0959  3.0531
 7659SOL    HW223877   5.124   6.631   4.722 -0.4289 -0.8543  3.6034
 7660SOL     OW23878   5.637   5.951   5.396  0.0393 -0.4902 -0.9780
 7660SOL    HW123879   5.546   5.985   5.374 -0.2068 -0.8002 -0.4640
 7660SOL    HW223880   5.706   6.014   5.360 -0.4137  0.7534  0.2134
 7661SOL     OW23881   0.502   6.641   5.332  0.1522  0.4079 -0.3250
 7661SOL    HW123882   0.474   6.686   5.417  1.7212 -1.5222  1.3392
 7661SOL    HW223883   0.489   6.703   5.255 -0.4280  2.5956  1.4351
 7662SOL     OW23884   4.974   6.948   1.947 -0.5843  0.5959  0.3372
 7662SOL    HW123885   5.038   6.874   1.970 -0.5514  0.8523  1.1320
 7662SOL    HW223886   5.018   7.011   1.884 -0.7248 -0.2214 -0.6073
 7663SOL     OW23887   3.035   0.822   2.147 -0.3472 -0.3317 -0.0826
 7663SOL    HW123888   3.037   0.909   2.198  0.6002 -0.8039  0.7193
 7663SOL    HW223889   2.988   0.753   2.202  1.3722 -1.0599  0.5496
 7664SOL     OW23890   0.037   1.326   4.272 -0.5822  0.6336 -0.5261
 7664SOL    HW123891   0.023   1.273   4.356 -1.3154  0.2513 -0.8823
 7664SOL    HW223892   0.067   1.264   4.199 -1.1437  0.7615 -0.8651
 7665SOL     OW23893   2.076   2.703   4.449 -0.4741  0.0574  0.2593
 7665SOL    HW123894   2.166   2.736   4.421  0.3773  0.0809  2.7396
 7665SOL    HW223895   2.026   2.777   4.494 -1.2936 -0.2511 -0.1273
 7666SOL     OW23896   5.628   5.479   3.154  0.7122 -0.3294  0.2694
 7666SOL    HW123897   5.646   5.576   3.142  0.0407 -0.2660 -0.2592
 7666SOL    HW223898   5.633   5.456   3.251  1.2204  0.1570  0.3643
 7667SOL     OW23899   3.460   6.101   1.206  0.3240  0.1974  0.3089
 7667SOL    HW123900   3.409   6.051   1.137 -0.5992  1.0755  0.3298
 7667SOL    HW223901   3.542   6.141   1.165  0.9045 -1.0309  0.2257
 7668SOL     OW23902   3.246   6.772   0.332  0.4498  0.6088  0.3685
 7668SOL    HW123903   3.297   6.846   0.376  0.8879  0.3327  0.3227
 7668SOL    HW223904   3.148   6.784   0.351  0.5708  0.8807  0.8360
 7669SOL     OW23905   3.866   2.660   6.815 -0.2943  0.2066  0.1494
 7669SOL    HW123906   3.837   2.564   6.815 -0.2306  0.1694 -1.0659
 7669SOL    HW223907   3.787   2.718   6.798 -0.4144  0.4177  1.3385
 7670SOL     OW23908   2.994   0.383   2.709 -0.5899 -0.0197 -0.3308
 7670SOL    HW123909   3.060   0.443   2.754 -0.6652 -0.9458  1.0716
 7670SOL    HW223910   2.957   0.318   2.775 -1.1218 -1.0915 -1.6287
 7671SOL     OW23911   2.776   5.611   0.178 -0.3321  0.1651  0.1176
 7671SOL    HW123912   2.678   5.593   0.187 -0.5145  0.2383 -1.4998
 7671SOL    HW223913   2.794   5.708   0.197 -0.5927  0.1916  0.2350
 7672SOL     OW23914   5.410   3.605   3.070 -0.0443  0.7672  0.4280
 7672SOL    HW123915   5.469   3.541   3.118 -1.1349  0.2838  1.1830
 7672SOL    HW223916   5.434   3.699   3.095  1.2339  0.6509 -0.2914
 7673SOL     OW23917   2.005   5.802   3.701 -0.1203 -0.1872 -0.1450
 7673SOL    HW123918   1.970   5.852   3.780 -2.1373 -2.5237  0.5723
 7673SOL    HW223919   2.056   5.722   3.733  0.0220 -0.5342 -1.2193
 7674SOL     OW23920   3.128   5.409   4.994  0.5831  0.5197 -0.2619
 7674SOL    HW123921   3.043   5.364   4.963  1.6807  0.4581 -3.5656
 7674SOL    HW223922   3.144   5.386   5.090 -2.6073 -0.2439  0.2216
 7675SOL     OW23923   1.561   5.495   1.410  0.1845  0.3484  0.2430
 7675SOL    HW123924   1.589   5.581   1.454 -1.9226  0.1085  2.2368
 7675SOL    HW223925   1.640   5.436   1.398  1.0252  0.8121  2.9515
 7676SOL     OW23926   3.636   3.043   4.473 -0.0458 -0.8973 -0.4761
 7676SOL    HW123927   3.639   3.143   4.469 -2.5739 -0.7312  0.3266
 7676SOL    HW223928   3.655   3.006   4.382  1.3416  0.2451 -0.7006
 7677SOL     OW23929   0.590   1.255   6.629 -0.4565  0.8588 -0.3293
 7677SOL    HW123930   0.672   1.246   6.574 -1.3437 -0.0226 -1.5674
 7677SOL    HW223931   0.613   1.296   6.717  1.2898  0.6030 -0.6316
 7678SOL     OW23932   3.865   6.313   4.368  0.2299 -0.2689  0.4483
 7678SOL    HW123933   3.874   6.283   4.273  0.1923  0.7002  0.1221
 7678SOL    HW223934   3.795   6.385   4.373  0.2892 -0.2555  1.1965
 7679SOL     OW23935   2.645   6.618   6.117 -0.1755 -0.2016 -0.4763
 7679SOL    HW123936   2.665   6.647   6.023  1.4460  2.0233  0.4756
 7679SOL    HW223937   2.564   6.666   6.150  0.5159  0.6965 -0.0454
 7680SOL     OW23938   0.990   5.855   4.426  0.2196 -0.5401  0.3112
 7680SOL    HW123939   1.009   5.757   4.413 -0.1536 -0.6864  0.8433
 7680SOL    HW223940   1.076   5.905   4.428  0.3629 -0.5674 -2.0936
 7681SOL     OW23941   0.199   5.579   5.287 -0.5628  0.1750 -0.3646
 7681SOL    HW123942   0.222   5.671   5.258  0.5739 -0.2662 -0.9118
 7681SOL    HW223943   0.269   5.515   5.255 -0.3731 -0.6365  1.4914
 7682SOL     OW23944   3.509   6.831   1.561 -0.1953 -0.1095 -0.4688
 7682SOL    HW123945   3.474   6.910   1.511 -1.3587 -1.6864 -2.2890
 7682SOL    HW223946   3.436   6.762   1.568  1.0074 -1.3376  0.3802
 7683SOL     OW23947   0.750   2.685   6.599 -0.1119 -0.2252  0.1520
 7683SOL    HW123948   0.755   2.586   6.582  0.9105 -0.4528  1.5227
 7683SOL    HW223949   0.693   2.701   6.680  3.1821 -0.1705  2.6877
 7684SOL     OW23950   5.306   4.119   1.780 -0.1067 -0.4894  0.3953
 7684SOL    HW123951   5.346   4.124   1.872 -1.4030 -3.6560  1.2719
 7684SOL    HW223952   5.214   4.079   1.786 -0.6793  0.2703 -2.2119
 7685SOL     OW23953   2.046   0.218   0.528  0.0483 -0.6521  0.0942
 7685SOL    HW123954   2.115   0.237   0.599  1.4005 -1.2376 -1.0192
 7685SOL    HW223955   1.975   0.159   0.566 -0.2488  0.5463  1.4738
 7686SOL     OW23956   4.677   1.387   4.681 -0.4540  0.1139 -0.4170
 7686SOL    HW123957   4.723   1.467   4.642 -0.6691 -0.0281 -0.9615
 7686SOL    HW223958   4.735   1.306   4.671 -0.4242  0.1139 -0.2563
 7687SOL     OW23959   5.121   4.067   5.128 -0.5775 -0.9365  0.5783
 7687SOL    HW123960   5.186   4.140   5.149 -1.9204  0.2539  0.8365
 7687SOL    HW223961   5.132   4.039   5.033 -1.1031  0.8106 -0.0500
 7688SOL     OW23962   0.175   1.492   2.759 -0.1205 -0.1735 -0.4754
 7688SOL    HW123963   0.134   1.578   2.730  0.3078  0.2094  0.0160
 7688SOL    HW223964   0.157   1.478   2.857 -0.0436 -0.5597 -0.5141
 7689SOL     OW23965   4.702   6.902   3.639 -0.2448 -0.0649  0.2996
 7689SOL    HW123966   4.670   6.810   3.619  2.1116 -0.9544  0.3833
 7689SOL    HW223967   4.663   6.933   3.725 -0.1623 -1.4706  0.8687
 7690SOL     OW23968   6.380   5.481   3.419 -0.4748  0.1988  0.1852
 7690SOL    HW123969   6.453   5.516   3.359 -0.9000 -0.6066 -0.8440
 7690SOL    HW223970   6.411   5.397   3.463 -1.0596 -0.6570 -0.9658
 7691SOL     OW23971   0.762   1.862   5.546 -0.3072 -0.4141  0.1675
 7691SOL    HW123972   0.795   1.781   5.594  0.3090  0.0196  0.4811
 7691SOL    HW223973   0.792   1.859   5.451  3.0680  1.2594  1.0232
 7692SOL     OW23974   2.103   4.865   3.729  0.5112 -0.4515 -0.2143
 7692SOL    HW123975   2.082   4.918   3.812  1.8013 -1.3251  0.7158
 7692SOL    HW223976   2.020   4.822   3.696 -0.1645  0.4733  0.2116
 7693SOL     OW23977   1.909   2.877   6.042  0.3838  0.3818 -0.4486
 7693SOL    HW123978   1.920   2.909   6.136 -0.8135  0.0119 -0.1659
 7693SOL    HW223979   1.999   2.872   5.998  0.8620  1.6109  0.3147
 7694SOL     OW23980   5.540   2.247   6.890  0.9550 -0.3598  0.9553
 7694SOL    HW123981   5.637   2.234   6.910  1.3632  0.5087 -0.3141
 7694SOL    HW223982   5.528   2.263   6.792 -0.5636 -1.1734  0.9814
 7695SOL     OW23983   6.028   6.024   6.112 -0.2276 -0.2423  0.1469
 7695SOL    HW123984   5.969   5.944   6.106 -0.6970  0.1459 -0.4752
 7695SOL    HW223985   6.121   5.995   6.136 -0.1314 -1.0989 -1.1661
 7696SOL     OW23986   3.423   1.342   6.327  0.1666 -0.2878  1.1052
 7696SOL    HW123987   3.388   1.391   6.407  1.0551  0.1309  1.2423
 7696SOL    HW223988   3.450   1.408   6.257 -0.2152 -0.6424  0.6167
 7697SOL     OW23989   6.011   4.203   2.372 -0.2283 -0.1484 -0.2380
 7697SOL    HW123990   5.928   4.244   2.334 -0.0833 -1.0845 -1.6456
 7697SOL    HW223991   6.028   4.115   2.328  1.0595 -0.3663  0.6316
 7698SOL     OW23992   5.264   2.325   2.312  0.2688  0.1394  0.4428
 7698SOL    HW123993   5.296   2.419   2.304 -0.5080  0.3886  0.0826
 7698SOL    HW223994   5.183   2.313   2.254  0.7373 -0.9263 -0.0212
 7699SOL     OW23995   3.836   6.596   5.049  0.2588 -0.4654  0.1450
 7699SOL    HW123996   3.902   6.523   5.031  2.4886  1.3165  0.7516
 7699SOL    HW223997   3.829   6.655   4.968 -2.1601 -1.7134 -0.6566
 7700SOL     OW23998   0.124   5.157   1.261 -0.2437  0.5212 -0.6845
 7700SOL    HW123999   0.179   5.093   1.208 -2.0506  0.8284 -3.1545
 7700SOL    HW224000   0.053   5.196   1.202 -1.1567  2.4656  1.5269
 7701SOL     OW24001   3.256   0.724   5.088 -0.1829 -0.0745  0.0487
 7701SOL    HW124002   3.355   0.713   5.095  0.3449  1.0225 -3.7229
 7701SOL    HW224003   3.211   0.636   5.106  1.4710 -0.7615  1.0762
 7702SOL     OW24004   5.513   2.128   4.739 -0.7823  0.1801 -1.0425
 7702SOL    HW124005   5.495   2.130   4.640  0.0355 -0.6841 -1.2259
 7702SOL    HW224006   5.443   2.073   4.784 -0.4947 -0.4148 -1.3103
 7703SOL     OW24007   6.743   0.103   5.653 -0.5003 -0.7710  0.2379
 7703SOL    HW124008   6.841   0.090   5.668 -0.6858 -2.1069  0.4203
 7703SOL    HW224009   6.728   0.133   5.559  0.0157 -1.7179 -0.1632
 7704SOL     OW24010   1.710   2.407   5.373 -0.1023 -0.2766  0.4566
 7704SOL    HW124011   1.639   2.437   5.310 -0.8284 -0.9998  0.9100
 7704SOL    HW224012   1.670   2.348   5.443  0.7658  0.1690  1.3518
 7705SOL     OW24013   6.674   4.556   1.617  0.1792 -0.0075  0.1386
 7705SOL    HW124014   6.683   4.462   1.585 -2.6204  0.3121 -1.9984
 7705SOL    HW224015   6.671   4.618   1.538 -0.0695  1.6608  1.3920
 7706SOL     OW24016   3.609   4.449   1.651 -0.3876  0.4340  0.4478
 7706SOL    HW124017   3.620   4.522   1.717 -0.0913  0.0559  0.8230
 7706SOL    HW224018   3.636   4.362   1.692  1.7137  0.4525 -0.7742
 7707SOL     OW24019   0.492   5.779   6.852  0.2173 -0.3571  0.2199
 7707SOL    HW124020   0.541   5.850   6.801  0.0504 -0.5804 -0.2617
 7707SOL    HW224021   0.428   5.821   6.916 -2.3431  0.0057 -2.3982
 7708SOL     OW24022   6.745   0.226   5.381  1.0094 -0.8049  0.1481
 7708SOL    HW124023   6.826   0.277   5.409  1.7358  0.3769 -3.5502
 7708SOL    HW224024   6.672   0.290   5.359  0.4237 -1.6264 -0.3398
 7709SOL     OW24025   6.496   3.978   0.671  0.1416  0.1432  0.2712
 7709SOL    HW124026   6.593   3.954   0.675 -0.0995 -0.7756  0.8847
 7709SOL    HW224027   6.444   3.901   0.633 -0.1989  1.1218 -1.3322
 7710SOL     OW24028   6.596   3.238   0.924 -0.3003  0.3272 -0.3165
 7710SOL    HW124029   6.627   3.327   0.955  0.4621  0.1193 -0.4678
 7710SOL    HW224030   6.548   3.248   0.837 -0.4667  0.6203 -0.1918
 7711SOL     OW24031   1.379   3.983   4.026 -0.0882  0.1445 -0.2024
 7711SOL    HW124032   1.388   3.954   4.122  0.3677 -0.7813 -0.5232
 7711SOL    HW224033   1.296   4.038   4.017  0.2943  0.9419  0.8898
 7712SOL     OW24034   2.056   3.338   2.190 -0.3204  0.7003  0.6854
 7712SOL    HW124035   1.964   3.364   2.162 -1.1795 -3.6212 -1.2629
 7712SOL    HW224036   2.120   3.353   2.114 -1.1924 -3.8284 -1.2576
 7713SOL     OW24037   2.693   4.941   0.424  0.3166 -0.1670 -0.0747
 7713SOL    HW124038   2.762   4.915   0.357 -0.3466 -1.9454 -0.1305
 7713SOL    HW224039   2.720   4.909   0.514 -1.2936 -2.7150 -0.4090
 7714SOL     OW24040   4.887   2.145   5.314 -0.0907 -0.7209 -0.1303
 7714SOL    HW124041   4.851   2.153   5.407 -1.9650 -2.0794 -0.6768
 7714SOL    HW224042   4.878   2.232   5.266 -0.5404 -0.4287  0.4823
 7715SOL     OW24043   2.599   3.812   6.140 -0.3552  0.2858 -0.2035
 7715SOL    HW124044   2.560   3.903   6.127 -0.0617  0.4166 -0.1744
 7715SOL    HW224045   2.671   3.797   6.072 -0.8464 -0.1767 -0.6320
 7716SOL     OW24046   2.571   1.849   0.050 -0.2314 -0.5649  0.5512
 7716SOL    HW124047   2.477   1.868   0.022  1.2213  0.8882 -4.3890
 7716SOL    HW224048   2.610   1.930   0.093 -0.9641 -0.9493  2.0018
 7717SOL     OW24049   2.997   0.494   4.558  0.1122 -0.3250 -0.0153
 7717SOL    HW124050   2.937   0.416   4.539  0.3789 -0.6622  0.5126
 7717SOL    HW224051   2.944   0.579   4.552 -0.1926 -0.5517 -0.5289
 7718SOL     OW24052   5.531   4.127   3.149 -0.1587  0.4694 -0.1403
 7718SOL    HW124053   5.627   4.133   3.175 -0.3910  2.4730  0.4458
 7718SOL    HW224054   5.506   4.031   3.136  1.3255 -0.2855  1.9307
 7719SOL     OW24055   2.397   6.416   4.444 -0.0793 -0.5532 -0.0109
 7719SOL    HW124056   2.422   6.332   4.493  0.0725  0.1555  1.1415
 7719SOL    HW224057   2.350   6.391   4.359  2.7703 -1.9130 -1.3386
 7720SOL     OW24058   5.831   1.238   0.389 -0.0031  0.0118  0.3338
 7720SOL    HW124059   5.803   1.155   0.438 -2.0249  0.4615  0.0055
 7720SOL    HW224060   5.763   1.260   0.319 -0.7616  3.1956  1.8825
 7721SOL     OW24061   6.479   6.260   3.594  0.1994  0.7775  0.1906
 7721SOL    HW124062   6.534   6.186   3.632  0.4801  0.8914  0.0084
 7721SOL    HW224063   6.538   6.325   3.546 -0.2929 -0.2361 -1.8985
 7722SOL     OW24064   1.483   4.751   5.167  0.5884 -0.4159 -0.9286
 7722SOL    HW124065   1.567   4.701   5.146  2.3373  1.5162  0.9712
 7722SOL    HW224066   1.485   4.840   5.120  1.1720  0.9382  1.4914
 7723SOL     OW24067   3.148   5.119   6.074 -0.2448  0.0027  0.0109
 7723SOL    HW124068   3.187   5.092   5.986  1.7568 -0.6041  1.0065
 7723SOL    HW224069   3.056   5.081   6.083 -1.0083  1.1468 -2.2976
 7724SOL     OW24070   0.038   6.015   0.360  0.5769 -0.4710  0.1336
 7724SOL    HW124071  -0.058   5.986   0.366  0.2315  0.5144 -0.5442
 7724SOL    HW224072   0.048   6.106   0.400  1.5359 -1.1759  1.6122
 7725SOL     OW24073   5.003   3.307   3.655  0.6416  0.2507  0.4024
 7725SOL    HW124074   4.928   3.241   3.647  0.2194  0.8282 -0.5818
 7725SOL    HW224075   4.966   3.397   3.679  1.0793  0.4103  0.4850
 7726SOL     OW24076   2.393   2.174   6.917 -0.6112  0.1781 -0.2379
 7726SOL    HW124077   2.400   2.226   7.003  0.3281 -2.3346  1.3103
 7726SOL    HW224078   2.300   2.180   6.882 -1.2505  0.5780  1.4235
 7727SOL     OW24079   6.770   5.064   2.865 -0.1817 -0.6936 -0.3077
 7727SOL    HW124080   6.750   5.007   2.945 -0.1426 -0.3849 -0.0783
 7727SOL    HW224081   6.691   5.122   2.844 -1.4312 -2.9254 -2.3471
 7728SOL     OW24082   1.383   3.898   6.317 -1.0019  0.4921  0.2672
 7728SOL    HW124083   1.326   3.949   6.381 -0.4417  2.0544 -0.4241
 7728SOL    HW224084   1.461   3.955   6.289 -0.7102 -0.4974 -1.0584
 7729SOL     OW24085   6.132   3.195   3.115 -0.0306  1.0301  0.6062
 7729SOL    HW124086   6.083   3.281   3.118 -2.1982 -0.1457  1.0118
 7729SOL    HW224087   6.124   3.149   3.204  1.1678  0.4431  0.4311
 7730SOL     OW24088   0.824   3.495   5.533  0.3826 -0.8947 -0.2388
 7730SOL    HW124089   0.798   3.450   5.618  1.4516 -2.6135 -0.7589
 7730SOL    HW224090   0.834   3.593   5.549  3.2634 -1.4386  2.3830
 7731SOL     OW24091   4.285   1.039   0.218 -0.0713  0.0417  0.5782
 7731SOL    HW124092   4.285   1.139   0.221 -0.6240  0.0777 -0.1708
 7731SOL    HW224093   4.197   1.004   0.250  0.6000 -0.2779  2.1500
 7732SOL     OW24094   3.923   1.038   6.422  0.4246  0.1521 -0.0154
 7732SOL    HW124095   3.997   0.988   6.377  1.6570  0.7711  1.2143
 7732SOL    HW224096   3.838   1.026   6.371  1.2229 -1.1253 -1.1113
 7733SOL     OW24097   5.048   6.189   2.183 -0.4573  0.3380  0.3103
 7733SOL    HW124098   5.079   6.257   2.249  1.1179 -0.5442  0.5105
 7733SOL    HW224099   4.948   6.193   2.176 -0.5822  1.0813  2.0322
 7734SOL     OW24100   3.348   4.668   5.848  0.1923 -0.0351  0.5128
 7734SOL    HW124101   3.343   4.569   5.861 -1.1320 -0.1637 -0.7049
 7734SOL    HW224102   3.263   4.700   5.806  1.4865  1.2708 -1.2612
 7735SOL     OW24103   0.060   6.369   0.093  0.1149  0.7492  0.6215
 7735SOL    HW124104   0.077   6.306   0.017 -0.8924  1.2324 -0.0315
 7735SOL    HW224105   0.133   6.437   0.096  1.6835 -0.9071  1.8744
 7736SOL     OW24106   1.405   1.594   1.254  0.1628  0.1809  0.1587
 7736SOL    HW124107   1.318   1.556   1.224  0.0812  1.0108 -0.7018
 7736SOL    HW224108   1.389   1.654   1.332 -0.1696  0.9573 -0.4884
 7737SOL     OW24109   5.031   5.445   4.715 -0.1073  0.2629 -0.3050
 7737SOL    HW124110   5.005   5.487   4.628 -0.8647  0.3310 -0.0521
 7737SOL    HW224111   4.952   5.399   4.755 -0.2324  1.5995  1.1194
 7738SOL     OW24112   3.448   1.805   6.798 -0.1295 -0.1177  0.3031
 7738SOL    HW124113   3.496   1.719   6.779 -0.6963 -0.3278 -0.2404
 7738SOL    HW224114   3.366   1.810   6.740 -1.0058  0.0265  1.5264
 7739SOL     OW24115   1.579   2.395   0.379  0.3060 -0.0662 -0.5867
 7739SOL    HW124116   1.558   2.379   0.476 -1.0139 -0.7618 -0.9582
 7739SOL    HW224117   1.643   2.326   0.347 -0.5743 -0.8924 -0.6171
 7740SOL     OW24118   2.472   6.801   5.749 -0.7440  0.2123  0.2783
 7740SOL    HW124119   2.561   6.757   5.761 -2.2355 -2.6244  1.8794
 7740SOL    HW224120   2.468   6.883   5.806  0.0104 -1.0480  2.2605
 7741SOL     OW24121   4.619   5.213   5.105  0.0824  0.1410 -0.5168
 7741SOL    HW124122   4.600   5.220   5.203  0.3740  0.4730 -0.4808
 7741SOL    HW224123   4.550   5.156   5.061 -0.0534 -0.0025 -0.1181
 7742SOL     OW24124   4.907   3.301   2.939  0.6291  0.6337 -0.0207
 7742SOL    HW124125   4.890   3.204   2.957  0.1171  1.0354  1.9858
 7742SOL    HW224126   4.863   3.329   2.854  0.1231 -0.7158 -0.2129
 7743SOL     OW24127   3.853   0.561   6.398 -0.2798  0.6726 -0.2276
 7743SOL    HW124128   3.812   0.549   6.488 -0.2157 -2.2931 -0.4840
 7743SOL    HW224129   3.950   0.535   6.402 -0.9162 -2.3991 -1.6133
 7744SOL     OW24130   0.132   0.568   2.789 -0.0728 -0.0203  0.2562
 7744SOL    HW124131   0.074   0.582   2.870  0.3090 -0.3945  0.5986
 7744SOL    HW224132   0.222   0.537   2.818 -0.1240 -0.7534 -0.3538
 7745SOL     OW24133   3.952   6.350   0.555  0.6763  0.6150  0.4231
 7745SOL    HW124134   3.947   6.405   0.472 -0.5637 -1.0213 -0.6461
 7745SOL    HW224135   3.870   6.365   0.610  0.5464  0.1985  0.3482
 7746SOL     OW24136   6.109   6.227   6.828 -0.3170 -0.4405 -0.3161
 7746SOL    HW124137   6.075   6.211   6.921 -0.0342  0.6024 -0.0199
 7746SOL    HW224138   6.078   6.317   6.796  2.9709  1.0883  0.3951
 7747SOL     OW24139   6.012   6.914   0.643 -0.4051 -0.0496  0.0998
 7747SOL    HW124140   6.050   6.822   0.640  0.0561  0.1584 -1.3205
 7747SOL    HW224141   5.939   6.922   0.575 -0.3788  0.6532  0.1479
 7748SOL     OW24142   4.980   0.791   6.214 -0.1927 -0.6444  0.2583
 7748SOL    HW124143   5.034   0.718   6.255 -1.3226 -1.0930  1.0071
 7748SOL    HW224144   4.929   0.755   6.136 -1.8264 -1.0676  1.4554
 7749SOL     OW24145   3.382   3.607   1.781  0.5658 -0.2357 -0.0368
 7749SOL    HW124146   3.402   3.572   1.690 -0.7993 -0.9577 -0.0808
 7749SOL    HW224147   3.295   3.655   1.781  1.0085  0.6053  0.6914
 7750SOL     OW24148   0.243   4.015   5.797 -0.2154  0.3678  0.0352
 7750SOL    HW124149   0.202   4.049   5.712  0.1772 -0.2955 -0.4308
 7750SOL    HW224150   0.282   3.925   5.781  1.9144  1.1793  0.3049
 7751SOL     OW24151   6.548   3.283   5.222 -0.0478  0.2246 -0.2330
 7751SOL    HW124152   6.614   3.262   5.294 -2.0764 -2.6096  0.9960
 7751SOL    HW224153   6.476   3.341   5.259 -0.4705 -0.2495 -0.3009
 7752SOL     OW24154   5.118   5.314   4.419  0.5278 -0.0634 -0.2329
 7752SOL    HW124155   5.021   5.332   4.401  0.3479 -0.3270  0.4674
 7752SOL    HW224156   5.160   5.273   4.337 -0.5191 -2.1685  0.2074
 7753SOL     OW24157   5.196   2.431   5.665  0.1002 -0.3073 -0.9140
 7753SOL    HW124158   5.203   2.349   5.722  0.4807  0.4959  0.2338
 7753SOL    HW224159   5.197   2.512   5.724  2.2288  0.6370 -2.1572
 7754SOL     OW24160   6.153   7.015   6.436  0.2126  0.7568 -0.2612
 7754SOL    HW124161   6.245   7.039   6.468  0.0798  1.4040 -0.3612
 7754SOL    HW224162   6.150   6.916   6.418  0.5054  0.4953  0.9928
 7755SOL     OW24163   1.472   6.603   6.788  0.0553  0.4707  0.6081
 7755SOL    HW124164   1.413   6.544   6.844 -0.7195 -0.9127 -1.5455
 7755SOL    HW224165   1.523   6.665   6.848 -0.3193 -1.2621  2.8724
 7756SOL     OW24166   4.238   0.364   1.863  0.0252 -0.0515  0.2043
 7756SOL    HW124167   4.233   0.361   1.763  1.0540  1.3668  0.0788
 7756SOL    HW224168   4.333   0.379   1.891 -0.2107 -0.6541  1.4198
 7757SOL     OW24169   4.011   6.727   6.275  0.2800 -0.3300  0.2657
 7757SOL    HW124170   4.018   6.823   6.248 -0.6390 -0.3263  0.0184
 7757SOL    HW224171   3.917   6.695   6.264  0.5215 -1.1968  0.5726
 7758SOL     OW24172   1.137   3.063   5.139 -0.0520  0.3543  0.2431
 7758SOL    HW124173   1.125   3.161   5.121 -2.7048 -0.1110 -0.9924
 7758SOL    HW224174   1.230   3.036   5.114  1.5408  2.9187  2.7701
 7759SOL     OW24175   0.683   0.906   4.636 -0.5310  0.0404  1.0222
 7759SOL    HW124176   0.648   0.816   4.659  1.9733 -0.7493  2.1558
 7759SOL    HW224177   0.671   0.924   4.538 -1.2611 -1.4232  0.8272
 7760SOL     OW24178   5.514   1.677   4.101  0.6660  0.1412 -0.1062
 7760SOL    HW124179   5.579   1.606   4.075  2.4104  1.6106  0.0577
 7760SOL    HW224180   5.513   1.749   4.031 -2.4119 -0.7889 -1.1911
 7761SOL     OW24181   5.600   2.480   0.083  0.0640 -0.1204  0.0083
 7761SOL    HW124182   5.627   2.408   0.020 -1.5850 -2.5035  1.8130
 7761SOL    HW224183   5.565   2.558   0.031  0.1911 -1.3346 -2.0253
 7762SOL     OW24184   1.438   2.347   5.636  0.2796  0.2338  0.0097
 7762SOL    HW124185   1.463   2.417   5.703  1.3853 -1.0492  0.9930
 7762SOL    HW224186   1.345   2.314   5.657  0.1045  0.7585  0.0886
 7763SOL     OW24187   2.044   3.023   1.035 -0.1298  0.7037 -0.4405
 7763SOL    HW124188   2.143   3.031   1.041  0.2315 -1.1563 -2.4981
 7763SOL    HW224189   2.012   3.067   0.951 -0.9495  0.6584 -0.1651
 7764SOL     OW24190   3.583   2.865   3.546 -0.4134  0.3600  0.1931
 7764SOL    HW124191   3.673   2.847   3.585  0.0609  2.7870  0.3854
 7764SOL    HW224192   3.517   2.879   3.621 -1.0693 -1.6277  0.0574
 7765SOL     OW24193   6.425   1.931   1.868 -0.6817 -0.1610 -0.2838
 7765SOL    HW124194   6.519   1.898   1.858 -0.6827  0.1777 -1.7172
 7765SOL    HW224195   6.412   1.968   1.960  1.2071  1.5920 -0.6278
 7766SOL     OW24196   1.257   2.308   0.523  0.5280  0.1044  0.7318
 7766SOL    HW124197   1.249   2.289   0.426  0.1252  0.1148  0.7597
 7766SOL    HW224198   1.182   2.368   0.552 -1.0235 -2.1344  1.6029
 7767SOL     OW24199   6.020   1.852   2.550 -0.0347 -0.6029  0.6073
 7767SOL    HW124200   6.055   1.766   2.586  1.7360 -0.0574  0.2579
 7767SOL    HW224201   6.015   1.920   2.623  0.5301 -0.4169  0.4774
 7768SOL     OW24202   4.653   5.205   2.346 -0.1152  0.0908 -0.0053
 7768SOL    HW124203   4.561   5.171   2.327 -0.6467  1.8832 -0.7913
 7768SOL    HW224204   4.691   5.247   2.264  2.0305 -1.8940 -0.1298
 7769SOL     OW24205   6.046   1.464   3.212 -0.1206 -0.3025  0.5408
 7769SOL    HW124206   6.015   1.497   3.301 -0.1581 -1.4450  0.9723
 7769SOL    HW224207   6.083   1.372   3.222 -0.6130 -0.6567 -0.7189
 7770SOL     OW24208   4.202   4.740   3.749 -0.2640  0.1041 -0.0378
 7770SOL    HW124209   4.289   4.691   3.739  0.0625  0.5231  0.6213
 7770SOL    HW224210   4.202   4.789   3.837 -0.9945  0.4514 -0.2252
 7771SOL     OW24211   1.661   6.812   5.630  0.2679  0.3832 -0.0381
 7771SOL    HW124212   1.722   6.844   5.702  1.5028 -0.3848 -0.6888
 7771SOL    HW224213   1.575   6.863   5.633  0.7557  1.1797  1.2049
 7772SOL     OW24214   4.036   0.579   4.806  0.0304  0.0199 -0.1588
 7772SOL    HW124215   4.038   0.665   4.857 -1.4216 -0.2656  0.4412
 7772SOL    HW224216   3.946   0.568   4.764  1.2464  0.4144 -3.1630
 7773SOL     OW24217   3.737   4.355   6.867  0.0006 -0.3699 -0.3785
 7773SOL    HW124218   3.641   4.345   6.892  0.3363 -0.4003  0.9612
 7773SOL    HW224219   3.790   4.386   6.947  1.4787 -2.4705 -0.4472
 7774SOL     OW24220   5.489   2.330   6.619 -0.0578 -0.0389  0.4607
 7774SOL    HW124221   5.412   2.317   6.557  0.3713  0.7432 -0.2736
 7774SOL    HW224222   5.572   2.291   6.578  0.2594  0.6135  0.4656
 7775SOL     OW24223   1.620   1.125   3.357  0.0772 -0.6125  0.3359
 7775SOL    HW124224   1.698   1.188   3.357 -0.1317 -0.3357  1.1363
 7775SOL    HW224225   1.637   1.051   3.292  0.3826  0.1941 -0.5252
 7776SOL     OW24226   2.890   4.155   6.963  0.0463  0.4831 -0.1640
 7776SOL    HW124227   2.845   4.236   7.003  1.1829  0.9315  0.2521
 7776SOL    HW224228   2.932   4.101   7.036  0.6493  0.3731 -0.5843
 7777SOL     OW24229   6.700   0.245   6.191  0.3700  0.0106  0.3561
 7777SOL    HW124230   6.709   0.198   6.103  0.0105 -0.8586  0.7723
 7777SOL    HW224231   6.790   0.249   6.235  0.5004  0.1988  0.0775
 7778SOL     OW24232   6.352   3.143   0.523  0.1101  0.2509 -0.2771
 7778SOL    HW124233   6.334   3.047   0.502  0.5564  0.2521 -0.6663
 7778SOL    HW224234   6.418   3.180   0.458  1.5023  0.2717  1.0830
 7779SOL     OW24235   2.119   2.401   0.890 -0.0010  0.0610  0.0949
 7779SOL    HW124236   2.031   2.418   0.934 -0.0232 -1.9422  0.8793
 7779SOL    HW224237   2.161   2.489   0.865 -1.9251  1.0686  0.2334
 7780SOL     OW24238   6.729   1.128   3.542  0.4092 -0.7467 -0.6306
 7780SOL    HW124239   6.718   1.090   3.634  0.2712 -1.3377 -0.8863
 7780SOL    HW224240   6.795   1.203   3.545 -0.1556 -0.2658  0.0834
 7781SOL     OW24241   2.767   4.660   5.350 -0.0802 -0.2446 -0.0244
 7781SOL    HW124242   2.773   4.583   5.414 -1.1304  0.0753  0.4954
 7781SOL    HW224243   2.807   4.635   5.263 -0.9293 -1.5901 -0.0496
 7782SOL     OW24244   5.644   4.887   0.835 -0.0248 -0.1407 -0.5032
 7782SOL    HW124245   5.735   4.881   0.876  0.7837 -0.3232 -2.2559
 7782SOL    HW224246   5.575   4.890   0.908  1.4471  1.7849  0.9080
 7783SOL     OW24247   2.421   5.778   6.654  0.0695 -0.0161 -0.0272
 7783SOL    HW124248   2.407   5.828   6.568  0.3258  0.2697  0.0959
 7783SOL    HW224249   2.418   5.680   6.636  3.2651 -0.0538 -0.9325
 7784SOL     OW24250   0.515   2.702   6.332 -0.0263  0.3062  0.5630
 7784SOL    HW124251   0.609   2.735   6.328 -0.0312  0.2347 -0.6217
 7784SOL    HW224252   0.501   2.633   6.260 -0.3697 -1.3629  2.1485
 7785SOL     OW24253   0.902   5.439   4.699  0.3099 -0.6686  0.2578
 7785SOL    HW124254   0.971   5.506   4.673 -0.8949  0.2194 -0.7766
 7785SOL    HW224255   0.882   5.380   4.621  0.9991 -1.9274  1.0136
 7786SOL     OW24256   2.808   4.697   6.029  0.3785  0.2036 -0.0158
 7786SOL    HW124257   2.737   4.629   6.012 -1.5684  1.7573  1.5171
 7786SOL    HW224258   2.872   4.698   5.951  0.6618 -3.4678  0.0151
 7787SOL     OW24259   2.789   1.895   5.943  0.1443  0.5639  0.1329
 7787SOL    HW124260   2.857   1.929   6.008  0.1626  0.4386  0.1786
 7787SOL    HW224261   2.799   1.797   5.932  2.3368  0.9753 -2.5976
 7788SOL     OW24262   1.236   4.198   1.517 -0.2809  0.6247  0.0871
 7788SOL    HW124263   1.173   4.272   1.541  0.6789  1.3878  0.3240
 7788SOL    HW224264   1.190   4.110   1.528 -1.3183  1.1649  0.1882
 7789SOL     OW24265   1.574   0.793   1.210  0.4334 -0.5561 -0.8918
 7789SOL    HW124266   1.558   0.856   1.286 -2.5827 -2.6523  0.4153
 7789SOL    HW224267   1.636   0.720   1.240  0.3021 -0.6667 -0.8897
 7790SOL     OW24268   6.000   3.969   2.207  1.1518 -0.0480  0.2419
 7790SOL    HW124269   6.027   3.873   2.215  1.1302 -0.0315  0.5185
 7790SOL    HW224270   5.925   3.977   2.141  0.3968 -0.3643  1.0389
 7791SOL     OW24271   5.768   5.565   5.610 -0.2675 -0.7469 -0.0286
 7791SOL    HW124272   5.775   5.572   5.511  1.0937 -1.9539 -0.0452
 7791SOL    HW224273   5.768   5.657   5.649  0.8663 -0.2721 -1.0683
 7792SOL     OW24274   3.482   0.210   5.605 -0.4570 -0.0015  0.0708
 7792SOL    HW124275   3.467   0.297   5.558  0.5789 -0.2658 -0.8240
 7792SOL    HW224276   3.453   0.135   5.546  3.2155 -0.4900 -1.4370
 7793SOL     OW24277   1.364   1.292   0.128  0.0372 -0.6475 -0.3679
 7793SOL    HW124278   1.385   1.271   0.223 -0.6171  0.1159 -0.0521
 7793SOL    HW224279   1.377   1.209   0.072  0.1558 -1.1683  0.4176
 7794SOL     OW24280   5.807   5.803   3.564  0.1485  0.3664 -0.2591
 7794SOL    HW124281   5.709   5.811   3.583  0.3335  1.7404  0.1913
 7794SOL    HW224282   5.859   5.858   3.629  1.1873  0.2232 -0.9370
 7795SOL     OW24283   0.581   2.595   4.629  0.0164  0.5050  0.5688
 7795SOL    HW124284   0.537   2.525   4.574 -0.2032  0.7383  0.4440
 7795SOL    HW224285   0.674   2.567   4.651 -0.6943 -0.7094  2.1713
 7796SOL     OW24286   3.606   4.157   5.635  0.0395  0.2798 -0.3211
 7796SOL    HW124287   3.698   4.123   5.616  0.7693  0.9726  1.7147
 7796SOL    HW224288   3.559   4.094   5.698 -1.2683 -0.5531 -2.0468
 7797SOL     OW24289   1.436   6.964   4.532  0.2061  0.5401 -0.0970
 7797SOL    HW124290   1.473   6.919   4.451  1.3414  1.0913  0.0988
 7797SOL    HW224291   1.371   6.903   4.577  1.3432 -0.7099 -0.1046
 7798SOL     OW24292   4.181   5.912   5.741  0.0284 -0.2137 -0.3521
 7798SOL    HW124293   4.242   5.900   5.663 -1.4109  1.1705 -1.7459
 7798SOL    HW224294   4.228   5.966   5.811  0.2074  1.4738 -1.7067
 7799SOL     OW24295   5.411   6.403   6.941  0.3570 -0.0761 -0.2058
 7799SOL    HW124296   5.501   6.360   6.948  1.8861  2.6507 -1.6383
 7799SOL    HW224297   5.417   6.497   6.973 -1.9150  0.3024 -0.7515
 7800SOL     OW24298   6.427   7.007   7.010  0.2696 -0.1511  0.4040
 7800SOL    HW124299   6.375   6.934   6.965  1.7179 -0.0688 -1.5312
 7800SOL    HW224300   6.371   7.048   7.082 -1.7028 -1.1704 -0.4662
 7801SOL     OW24301   5.810   3.833   5.804  0.1367  0.4012  0.9288
 7801SOL    HW124302   5.893   3.779   5.792  0.1328  0.5912 -0.1114
 7801SOL    HW224303   5.772   3.855   5.714 -1.0168  0.3590  1.3923
 7802SOL     OW24304   0.055   3.769   6.193  0.1992 -0.1947  0.0578
 7802SOL    HW124305   0.095   3.678   6.206  1.8365  0.4445 -0.3364
 7802SOL    HW224306   0.095   3.833   6.259 -1.2503  0.1762  0.6191
 7803SOL     OW24307   4.101   4.933   5.624  0.8150  0.1927  0.1463
 7803SOL    HW124308   4.110   4.990   5.706 -0.7311  1.6392 -0.6219
 7803SOL    HW224309   4.076   4.840   5.651 -0.5392  0.8578  1.3166
 7804SOL     OW24310   4.590   2.183   1.048 -0.3267  0.5278  0.0326
 7804SOL    HW124311   4.636   2.151   0.965  1.7668  0.9521  0.9691
 7804SOL    HW224312   4.610   2.280   1.062 -1.0755  0.5854  0.7786
 7805SOL     OW24313   6.034   3.849   1.619 -0.3443  0.0842  0.1499
 7805SOL    HW124314   5.984   3.868   1.704 -1.3085  1.1577 -0.6343
 7805SOL    HW224315   6.123   3.895   1.622  0.2222 -1.0243  1.1389
 7806SOL     OW24316   6.211   2.296   1.169  0.5580 -0.1014 -0.0543
 7806SOL    HW124317   6.290   2.353   1.147 -0.0303  0.7692  0.0437
 7806SOL    HW224318   6.175   2.322   1.259  1.7828 -2.3188  1.1522
 7807SOL     OW24319   6.381   4.881   0.316 -0.6194 -0.6120  0.3200
 7807SOL    HW124320   6.301   4.915   0.267  0.5893 -1.4882 -2.4641
 7807SOL    HW224321   6.379   4.781   0.318  0.0183 -0.6258  0.9304
 7808SOL     OW24322   6.958   6.039   4.101 -0.3257 -0.5274  0.2819
 7808SOL    HW124323   6.971   5.940   4.101 -0.3719 -0.6531  3.5983
 7808SOL    HW224324   6.998   6.077   4.184 -1.6133  2.0618 -0.2059
 7809SOL     OW24325   1.402   4.428   4.577  0.2710 -0.2237 -0.0493
 7809SOL    HW124326   1.336   4.383   4.517  1.7839 -1.6070 -0.7339
 7809SOL    HW224327   1.489   4.380   4.574  0.8470  0.5499  2.1396
 7810SOL     OW24328   3.625   1.220   6.462  0.5257 -0.0112  0.4623
 7810SOL    HW124329   3.554   1.239   6.394 -0.9554 -1.3857  1.5504
 7810SOL    HW224330   3.634   1.299   6.523  3.3947  2.1777 -2.4268
 7811SOL     OW24331   6.866   4.070   4.550 -0.1214 -0.2488 -0.3830
 7811SOL    HW124332   6.814   4.155   4.552  0.2932  0.0315 -1.1199
 7811SOL    HW224333   6.961   4.087   4.576  0.2039 -0.2942 -1.5017
 7812SOL     OW24334   0.305   2.285   3.787  0.2565 -0.1361  0.1357
 7812SOL    HW124335   0.401   2.307   3.808  0.4784  0.9204 -1.7963
 7812SOL    HW224336   0.296   2.186   3.773  0.9667 -0.2980  0.7573
 7813SOL     OW24337   6.196   1.821   0.562  0.0570 -0.3726 -0.1211
 7813SOL    HW124338   6.241   1.817   0.651 -1.0187  0.1438  0.4710
 7813SOL    HW224339   6.258   1.862   0.495  0.3954  0.5622  0.7295
 7814SOL     OW24340   2.414   5.121   3.933  0.2730  0.3802  0.4809
 7814SOL    HW124341   2.479   5.078   3.996  0.1233  0.4147  0.6598
 7814SOL    HW224342   2.426   5.082   3.842 -0.5367 -0.7774  0.8524
 7815SOL     OW24343   6.534   2.693   5.556 -0.0100 -0.1698  0.0549
 7815SOL    HW124344   6.543   2.637   5.639  0.5334 -1.0440 -0.5844
 7815SOL    HW224345   6.467   2.766   5.573  2.3372  1.6798  2.3309
 7816SOL     OW24346   2.146   5.471   3.308  0.4793 -0.1487 -0.1591
 7816SOL    HW124347   2.205   5.417   3.368 -0.4548  1.5086  2.4711
 7816SOL    HW224348   2.201   5.535   3.256  1.2337 -0.6909 -0.0537
 7817SOL     OW24349   5.387   3.176   6.052  0.1137  0.1124 -0.0367
 7817SOL    HW124350   5.421   3.207   6.141 -0.4049 -2.2133  1.0332
 7817SOL    HW224351   5.461   3.131   6.002 -0.3931 -1.5993  0.6981
 7818SOL     OW24352   5.940   2.507   4.539  0.0670  0.1561 -0.6758
 7818SOL    HW124353   5.923   2.417   4.498  1.9704 -1.4613  1.7658
 7818SOL    HW224354   5.912   2.505   4.635  1.4652  1.6926 -0.1984
 7819SOL     OW24355   6.308   1.233   2.638 -0.4777  0.0440 -0.8414
 7819SOL    HW124356   6.335   1.306   2.701 -1.1579 -1.2093  0.9697
 7819SOL    HW224357   6.208   1.229   2.632 -0.4330 -0.3431 -1.4302
 7820SOL     OW24358   1.554   6.249   5.526 -0.2335 -0.0305  0.1241
 7820SOL    HW124359   1.514   6.191   5.455  0.5208 -0.9936  0.4631
 7820SOL    HW224360   1.501   6.333   5.534 -1.2725 -0.6080 -0.4713
 7821SOL     OW24361   3.316   4.844   0.238  0.3851  0.4738 -0.1468
 7821SOL    HW124362   3.264   4.759   0.238  0.5118  0.3839  1.0042
 7821SOL    HW224363   3.331   4.874   0.143 -1.3450  0.2716 -0.5176
 7822SOL     OW24364   1.910   4.936   4.410 -0.4844 -0.2842 -0.3973
 7822SOL    HW124365   1.847   4.870   4.451 -0.3734  0.0462  0.3254
 7822SOL    HW224366   1.974   4.969   4.480  0.3255 -0.4201 -1.0572
 7823SOL     OW24367   0.885   2.129   6.842 -0.0630  0.1096  0.3415
 7823SOL    HW124368   0.913   2.085   6.756  0.3250 -1.1700  1.1041
 7823SOL    HW224369   0.918   2.076   6.919 -0.7023  1.0651  1.3015
 7824SOL     OW24370   1.815   3.341   5.025  0.2171  0.2200 -0.2208
 7824SOL    HW124371   1.760   3.387   4.956  0.8035  0.6818 -0.3848
 7824SOL    HW224372   1.821   3.398   5.107 -1.7248 -0.9680  0.8105
 7825SOL     OW24373   0.294   2.408   0.152  0.4132 -0.0593 -0.4950
 7825SOL    HW124374   0.313   2.388   0.248 -0.2710 -1.9197 -0.7093
 7825SOL    HW224375   0.247   2.496   0.145 -0.9974 -0.6392  1.0419
 7826SOL     OW24376   0.869   2.520   6.167 -0.2714 -0.4350  0.1271
 7826SOL    HW124377   0.945   2.570   6.209 -0.3220 -0.2307 -0.0180
 7826SOL    HW224378   0.844   2.566   6.081  0.1021 -1.0773 -0.3375
 7827SOL     OW24379   6.915   4.436   5.097 -0.0426 -0.7812 -0.4260
 7827SOL    HW124380   6.934   4.356   5.039 -1.6175 -1.4580 -0.0835
 7827SOL    HW224381   6.823   4.469   5.078  0.2478  0.3855  0.1189
 7828SOL     OW24382   2.450   4.450   0.996  0.2649  0.3060  0.4358
 7828SOL    HW124383   2.536   4.486   1.032  2.2222 -2.9774 -0.5666
 7828SOL    HW224384   2.467   4.402   0.911 -2.3070 -1.7131  0.9464
 7829SOL     OW24385   3.547   4.523   0.995 -0.3938  0.1733  0.0004
 7829SOL    HW124386   3.616   4.460   1.030 -0.2468  0.9305  1.1632
 7829SOL    HW224387   3.500   4.482   0.917  0.9208 -0.6146 -0.4031
 7830SOL     OW24388   1.982   5.610   4.136  0.0887 -0.0837 -0.3129
 7830SOL    HW124389   1.891   5.573   4.154 -0.3379  1.3136  0.5682
 7830SOL    HW224390   2.035   5.543   4.084 -1.2054 -1.1954 -0.2749
 7831SOL     OW24391   2.405   6.385   6.123 -0.3676 -0.0727  0.1071
 7831SOL    HW124392   2.362   6.449   6.060  0.7975 -0.1127 -0.7658
 7831SOL    HW224393   2.503   6.402   6.127 -0.5086  0.5401  2.6685
 7832SOL     OW24394   0.426   0.709   4.337 -0.2129  0.6852 -0.0732
 7832SOL    HW124395   0.366   0.769   4.391 -1.2267  1.2531 -1.7516
 7832SOL    HW224396   0.400   0.614   4.353 -1.2431  0.9003 -0.3750
 7833SOL     OW24397   0.207   0.822   1.977 -0.3672 -0.5084 -0.1749
 7833SOL    HW124398   0.304   0.840   1.962 -0.2729 -3.1025 -4.2401
 7833SOL    HW224399   0.153   0.900   1.945  0.3563 -0.5868 -1.6775
 7834SOL     OW24400   0.900   4.809   5.613  0.3868  0.0659 -0.3180
 7834SOL    HW124401   0.808   4.789   5.647  0.3908  0.4121 -0.0981
 7834SOL    HW224402   0.968   4.761   5.669  0.2938 -1.1641 -1.2145
 7835SOL     OW24403   4.355   2.343   5.392 -0.7050 -0.0419  0.1838
 7835SOL    HW124404   4.327   2.373   5.483 -1.2220  0.0682 -0.0089
 7835SOL    HW224405   4.443   2.294   5.398 -1.0005 -0.5075  0.8147
 7836SOL     OW24406   2.791   3.506   5.334  0.1787  0.2361  0.3272
 7836SOL    HW124407   2.841   3.450   5.268 -0.5778  1.5482 -1.4892
 7836SOL    HW224408   2.813   3.478   5.427  1.3209 -1.7024 -0.4738
 7837SOL     OW24409   1.692   6.435   0.079 -0.3345 -0.2558 -0.3696
 7837SOL    HW124410   1.693   6.426  -0.021 -0.3974  1.2620 -0.5231
 7837SOL    HW224411   1.598   6.449   0.110 -0.0721  1.8959 -0.3918
 7838SOL     OW24412   3.859   4.719   1.138 -0.2303 -0.1608  0.5338
 7838SOL    HW124413   3.949   4.717   1.181 -0.0032 -0.4574  0.0559
 7838SOL    HW224414   3.788   4.704   1.207  0.1639 -1.3661  0.7001
 7839SOL     OW24415   4.917   5.573   5.563 -0.0511  0.0493 -0.3002
 7839SOL    HW124416   5.013   5.546   5.560 -0.1588 -0.2353 -1.7235
 7839SOL    HW224417   4.862   5.507   5.511 -0.8534  0.8625 -0.5042
 7840SOL     OW24418   0.602   1.153   3.130  0.1958 -0.0529 -0.1869
 7840SOL    HW124419   0.506   1.131   3.109  0.6674 -0.0736 -2.6043
 7840SOL    HW224420   0.641   1.081   3.188 -0.6607 -1.1912 -0.9777
 7841SOL     OW24421   4.078   1.847   5.253 -0.4416  0.2727  0.3207
 7841SOL    HW124422   4.097   1.943   5.272 -0.1932  0.1437  0.7266
 7841SOL    HW224423   4.056   1.837   5.156 -0.0335  0.6746  0.1775
 7842SOL     OW24424   0.452   7.006   1.922  0.3063 -0.1686 -0.0783
 7842SOL    HW124425   0.549   6.988   1.937 -0.4747 -3.8366  1.9294
 7842SOL    HW224426   0.426   6.972   1.832  0.4726 -1.6947  0.4137
 7843SOL     OW24427   6.586   0.274   4.058  0.1464  0.2786 -0.2530
 7843SOL    HW124428   6.568   0.285   4.156  0.1776 -2.1755  0.0786
 7843SOL    HW224429   6.502   0.292   4.007  0.3643  2.5471  0.0865
 7844SOL     OW24430   5.859   6.455   3.411 -0.0110 -0.2882 -0.2686
 7844SOL    HW124431   5.789   6.413   3.354 -0.6483 -2.0397  1.7052
 7844SOL    HW224432   5.850   6.423   3.505  1.6812  1.6591  0.6369
 7845SOL     OW24433   0.266   2.891   0.490  0.4699  0.6346 -0.3337
 7845SOL    HW124434   0.303   2.957   0.556  0.4957  0.5771 -0.2914
 7845SOL    HW224435   0.167   2.886   0.501  0.2365  1.9397 -1.4657
 7846SOL     OW24436   5.906   0.009   6.592  0.1265  0.4790  0.4549
 7846SOL    HW124437   5.978   0.001   6.523 -0.1832  0.7356  0.1041
 7846SOL    HW224438   5.817  -0.006   6.550 -0.0962  1.0444  0.7135
 7847SOL     OW24439   6.601   4.325   4.033 -0.2074  0.3858  0.2702
 7847SOL    HW124440   6.549   4.284   3.957  0.3997  0.3590 -0.1375
 7847SOL    HW224441   6.610   4.423   4.017  0.1824  0.3328  0.1459
 7848SOL     OW24442   6.030   5.805   2.206 -0.4053  0.0198  0.3080
 7848SOL    HW124443   5.960   5.741   2.240 -1.5464  1.2714  0.4114
 7848SOL    HW224444   6.120   5.762   2.212 -1.2988 -2.2922 -1.4162
 7849SOL     OW24445   5.741   5.560   1.319  0.2736  0.1782  0.0456
 7849SOL    HW124446   5.756   5.635   1.255  0.0922 -0.6481 -0.9913
 7849SOL    HW224447   5.647   5.527   1.311  0.3538 -0.1630  0.4765
 7850SOL     OW24448   0.999   0.738   3.910 -0.1793  0.2777 -0.0832
 7850SOL    HW124449   0.958   0.823   3.876 -0.2829 -0.9258 -3.2219
 7850SOL    HW224450   1.092   0.730   3.876  0.7936  0.3011  2.3745
 7851SOL     OW24451   1.767   3.458   6.912  0.7472 -0.1698 -0.5370
 7851SOL    HW124452   1.830   3.413   6.975  1.3832  0.5896 -0.6187
 7851SOL    HW224453   1.812   3.473   6.825 -0.3173 -1.7386 -1.4048
 7852SOL     OW24454   0.859   2.956   0.611  0.3423  0.1298 -0.0696
 7852SOL    HW124455   0.953   2.985   0.591  0.5298  1.3176  2.2601
 7852SOL    HW224456   0.858   2.857   0.627  1.0587  0.0091 -0.6763
 7853SOL     OW24457   4.496   3.215   1.607  0.1022 -0.2959  0.3634
 7853SOL    HW124458   4.544   3.178   1.686 -0.1849 -2.4122 -0.3704
 7853SOL    HW224459   4.400   3.231   1.630  0.7563  2.5851  1.4230
 7854SOL     OW24460   4.516   1.658   1.590  0.3513 -0.1370 -0.1893
 7854SOL    HW124461   4.421   1.673   1.619  0.2433 -1.9874  0.5223
 7854SOL    HW224462   4.526   1.686   1.495  0.2942  4.5372  0.9111
 7855SOL     OW24463   5.243   5.818   3.436 -0.7528  0.5877 -0.2917
 7855SOL    HW124464   5.167   5.883   3.440 -0.7368  0.6817 -1.2002
 7855SOL    HW224465   5.211   5.726   3.457 -1.4320  0.3934 -2.0077
 7856SOL     OW24466   2.566   6.277   0.468  0.2160  0.5479 -0.3201
 7856SOL    HW124467   2.627   6.332   0.412  1.8366  0.5623  1.3420
 7856SOL    HW224468   2.478   6.266   0.422  0.6371  2.5496 -1.7277
 7857SOL     OW24469   0.564   3.066   0.003 -0.5602 -0.2880 -0.7158
 7857SOL    HW124470   0.501   3.030   0.072  2.1848 -2.3483  0.9246
 7857SOL    HW224471   0.638   3.116   0.048  0.8349 -0.9280 -2.1993
 7858SOL     OW24472   6.854   4.980   6.200  0.1613 -1.2534 -0.7325
 7858SOL    HW124473   6.861   4.880   6.203 -0.7684 -1.3754 -1.8582
 7858SOL    HW224474   6.809   5.008   6.115 -0.1232  0.1016 -0.1674
 7859SOL     OW24475   4.806   1.325   1.923 -0.1379  0.2401 -0.2169
 7859SOL    HW124476   4.875   1.332   1.995 -0.7341  0.5727  0.3251
 7859SOL    HW224477   4.839   1.371   1.841 -0.0518  1.1288  0.3026
 7860SOL     OW24478   0.987   1.088   2.373 -0.3017  0.6326 -0.3912
 7860SOL    HW124479   1.079   1.124   2.359 -0.0213 -0.0718 -0.3854
 7860SOL    HW224480   0.921   1.162   2.363  0.2208  1.0261 -0.9926
 7861SOL     OW24481   0.454   5.213   0.784 -0.0790  0.3163 -0.1919
 7861SOL    HW124482   0.442   5.120   0.818 -0.9354  0.1976 -0.7825
 7861SOL    HW224483   0.479   5.273   0.860  0.0995 -0.3198  0.2637
 7862SOL     OW24484   2.624   5.546   0.484 -0.6987  0.2441 -0.4996
 7862SOL    HW124485   2.593   5.502   0.568 -0.3924  0.2117 -0.4019
 7862SOL    HW224486   2.722   5.567   0.492 -0.7231  0.4537 -0.7549
 7863SOL     OW24487   0.533   3.041   4.412  0.4091  0.2237  0.1675
 7863SOL    HW124488   0.454   3.093   4.444 -0.0174 -0.9365  1.0730
 7863SOL    HW224489   0.520   2.944   4.432  2.0324 -0.0072  0.2642
 7864SOL     OW24490   2.149   6.041   4.675  0.0481 -0.2601 -0.1413
 7864SOL    HW124491   2.174   6.027   4.771 -0.3727 -0.2936 -0.0369
 7864SOL    HW224492   2.052   6.020   4.662  0.2671 -0.9857 -0.7194
 7865SOL     OW24493   6.701   5.313   3.688 -0.6614  0.1162  0.0161
 7865SOL    HW124494   6.769   5.371   3.732 -0.9522 -0.0211  0.6622
 7865SOL    HW224495   6.733   5.219   3.685  0.7955  0.6155 -3.0514
 7866SOL     OW24496   0.930   0.420   4.872 -0.4509  0.3697 -0.0058
 7866SOL    HW124497   0.861   0.402   4.802 -0.0395 -0.9022 -0.1121
 7866SOL    HW224498   0.905   0.502   4.924 -2.2035 -0.2445  0.1715
 7867SOL     OW24499   3.845   6.202   0.944  0.4939  0.3462  0.4069
 7867SOL    HW124500   3.941   6.176   0.951  0.7284  0.8253 -0.8066
 7867SOL    HW224501   3.808   6.168   0.857 -0.2736  0.6793  0.5944
 7868SOL     OW24502   3.372   5.708   6.341 -0.7599  0.1796  0.0866
 7868SOL    HW124503   3.339   5.632   6.284 -1.3290 -1.7451  2.8031
 7868SOL    HW224504   3.299   5.737   6.403 -0.0590  2.0038  0.1210
 7869SOL     OW24505   5.070   5.016   1.234 -0.0622 -0.7460  0.3622
 7869SOL    HW124506   5.033   5.079   1.165 -1.0515  1.8041  3.0215
 7869SOL    HW224507   5.002   4.944   1.252 -0.0623 -1.0639 -0.8108
 7870SOL     OW24508   0.337   2.125   4.803  0.5152  0.3270 -0.4264
 7870SOL    HW124509   0.253   2.143   4.752  0.9361  0.2916 -1.1464
 7870SOL    HW224510   0.343   2.028   4.825  0.4117  0.3121 -0.4628
 7871SOL     OW24511   4.248   3.253   0.592 -0.0053  0.5213 -0.2281
 7871SOL    HW124512   4.276   3.330   0.535  2.0397  0.4482  0.5875
 7871SOL    HW224513   4.241   3.171   0.536 -1.7744  1.1537 -1.0214
 7872SOL     OW24514   0.890   4.315   4.519 -0.4516 -0.2846 -1.0204
 7872SOL    HW124515   0.946   4.363   4.586 -0.8568 -1.6125  0.3373
 7872SOL    HW224516   0.948   4.283   4.444  0.1693  0.4943 -0.8803
 7873SOL     OW24517   3.777   1.409   0.444  0.5205  0.0717  0.3303
 7873SOL    HW124518   3.702   1.438   0.384  2.7213 -1.1523 -3.3575
 7873SOL    HW224519   3.861   1.455   0.417  2.1009 -2.3415  0.8458
 7874SOL     OW24520   5.649   3.226   6.801  0.2358 -0.7146 -0.1571
 7874SOL    HW124521   5.692   3.249   6.888 -1.2780 -1.2286  0.7647
 7874SOL    HW224522   5.578   3.158   6.816 -0.9955  0.1841 -1.5852
 7875SOL     OW24523   0.827   6.195   0.266  0.3489  0.3718  0.2355
 7875SOL    HW124524   0.852   6.144   0.348  0.7974 -1.4927 -1.0072
 7875SOL    HW224525   0.907   6.204   0.207 -0.2438  0.6178 -0.5509
 7876SOL     OW24526   1.086   5.161   2.936 -0.5336  0.1517 -0.5573
 7876SOL    HW124527   1.129   5.164   3.026 -0.0757  0.2726 -0.7758
 7876SOL    HW224528   1.069   5.066   2.910  1.4658 -0.0354 -1.3309
 7877SOL     OW24529   1.723   3.762   1.048 -0.1037  0.4511 -0.3278
 7877SOL    HW124530   1.677   3.775   1.136  2.8736  1.6111  1.2084
 7877SOL    HW224531   1.741   3.851   1.006 -0.4750 -0.0427 -1.5639
 7878SOL     OW24532   2.928   1.350   1.389  0.3400  0.2517 -0.0815
 7878SOL    HW124533   2.835   1.334   1.354 -0.2387 -1.9192  2.1550
 7878SOL    HW224534   2.959   1.441   1.360 -2.3157  0.9041 -1.2190
 7879SOL     OW24535   2.242   4.498   1.317  0.5548 -0.3165  0.2086
 7879SOL    HW124536   2.224   4.529   1.224  3.3557 -1.0495 -0.6647
 7879SOL    HW224537   2.211   4.404   1.328  0.2916 -0.2547 -0.0053
 7880SOL     OW24538   0.765   3.413   3.147  0.1239  0.2747 -0.0115
 7880SOL    HW124539   0.842   3.364   3.188 -0.1704 -1.4506 -1.4165
 7880SOL    HW224540   0.721   3.356   3.078 -0.9998  2.0971 -0.8997
 7881SOL     OW24541   3.826   0.780   3.331 -0.8607 -0.4756  0.1568
 7881SOL    HW124542   3.907   0.814   3.283 -0.8865 -0.1991  0.3123
 7881SOL    HW224543   3.850   0.757   3.425 -1.0754  0.0705  0.3457
 7882SOL     OW24544   6.313   0.065   5.655 -0.1379 -0.4098 -0.4983
 7882SOL    HW124545   6.333  -0.021   5.608 -0.2334 -0.0988 -1.1173
 7882SOL    HW224546   6.390   0.089   5.714 -1.7589 -3.1280  3.1444
 7883SOL     OW24547   6.455   6.907   4.918  0.1728  0.2422  0.2913
 7883SOL    HW124548   6.509   6.946   4.993  0.7064 -0.0301  0.0507
 7883SOL    HW224549   6.359   6.931   4.931  0.1854 -0.2097  1.3201
 7884SOL     OW24550   0.092   1.227   1.710 -0.6125  0.5670  0.0304
 7884SOL    HW124551   0.092   1.323   1.682 -0.8315  0.7696  0.7017
 7884SOL    HW224552  -0.002   1.195   1.719 -0.6233  1.0307  2.2110
 7885SOL     OW24553   6.925   5.916   0.765 -0.1768 -1.0892  0.1459
 7885SOL    HW124554   6.976   5.997   0.735 -0.2149 -0.8930  0.6021
 7885SOL    HW224555   6.984   5.836   0.761 -0.7841 -1.5063 -2.6084
 7886SOL     OW24556   3.819   3.216   6.169 -0.6342  0.5423 -0.1343
 7886SOL    HW124557   3.747   3.163   6.215 -0.2199 -0.8371 -1.0303
 7886SOL    HW224558   3.849   3.290   6.230 -1.5342  0.0303  0.9823
 7887SOL     OW24559   4.258   1.554   0.829  0.5065  0.4243  0.5571
 7887SOL    HW124560   4.183   1.602   0.783  0.1097 -1.8178 -1.3218
 7887SOL    HW224561   4.336   1.548   0.767  0.6727 -1.0017  0.8810
 7888SOL     OW24562   3.747   5.374   4.374 -0.6910  0.1689  0.1261
 7888SOL    HW124563   3.812   5.362   4.299  3.1114  0.6110  3.0438
 7888SOL    HW224564   3.685   5.296   4.378  0.2838 -0.8123 -2.2322
 7889SOL     OW24565   6.989   3.880   3.674 -0.0766 -0.3260  0.0647
 7889SOL    HW124566   7.000   3.781   3.675  1.4836 -0.1889 -1.1599
 7889SOL    HW224567   6.926   3.906   3.602  0.0278 -0.3774 -0.0450
 7890SOL     OW24568   0.544   0.692   3.169 -0.0742 -0.1247 -0.3284
 7890SOL    HW124569   0.620   0.747   3.203  1.3576 -1.7138 -0.8205
 7890SOL    HW224570   0.484   0.668   3.245  0.1713  0.7602  0.1551
 7891SOL     OW24571   6.303   3.474   3.245 -0.0581  0.5696  0.4172
 7891SOL    HW124572   6.374   3.519   3.299 -0.6345 -0.6266  2.2680
 7891SOL    HW224573   6.213   3.500   3.279 -0.4242 -0.5678  0.3793
 7892SOL     OW24574   2.489   2.464   3.760 -0.1177  0.0024  0.2768
 7892SOL    HW124575   2.458   2.376   3.723  0.1972  0.2597 -0.6322
 7892SOL    HW224576   2.434   2.488   3.840 -0.3757 -0.9004  0.3797
 7893SOL     OW24577   4.646   6.968   3.021 -0.1532 -0.0916 -0.5078
 7893SOL    HW124578   4.696   6.902   2.964  0.0784  0.3515 -0.8279
 7893SOL    HW224579   4.583   6.920   3.081  0.4215 -0.6443 -0.3387
 7894SOL     OW24580   3.529   5.587   1.042 -0.0052 -0.5748  0.2371
 7894SOL    HW124581   3.518   5.501   1.092 -4.9214 -0.4270 -0.1515
 7894SOL    HW224582   3.522   5.570   0.944 -1.9222  0.2709  0.1935
 7895SOL     OW24583   6.636   0.753   5.202  0.4546 -0.2110 -0.4988
 7895SOL    HW124584   6.664   0.754   5.106 -0.4008 -0.7189 -0.7649
 7895SOL    HW224585   6.717   0.744   5.260  1.1826  2.1520 -1.0587
 7896SOL     OW24586   4.434   4.119   6.546 -0.0537 -1.0713  0.4040
 7896SOL    HW124587   4.376   4.109   6.466 -0.6579 -0.3520  0.7363
 7896SOL    HW224588   4.473   4.030   6.571 -0.2213 -1.3764 -0.4068
 7897SOL     OW24589   1.053   2.691   6.254 -0.1270  0.4047  0.4114
 7897SOL    HW124590   1.073   2.762   6.187 -0.7520  1.1869  1.0298
 7897SOL    HW224591   1.137   2.668   6.304  0.4315 -0.4654 -0.8564
 7898SOL     OW24592   5.575   0.807   3.577 -0.8872 -0.3232 -0.4560
 7898SOL    HW124593   5.639   0.878   3.549 -0.2096 -1.3982 -1.7738
 7898SOL    HW224594   5.614   0.755   3.653  0.2233 -1.4458 -1.7227
 7899SOL     OW24595   3.520   1.068   2.116 -0.4969 -0.1387  0.7458
 7899SOL    HW124596   3.599   1.113   2.074 -0.4176 -1.9379 -1.1768
 7899SOL    HW224597   3.552   0.996   2.178 -0.5324 -1.3597 -0.5800
 7900SOL     OW24598   5.643   6.300   0.815  0.4025  0.0366 -0.4287
 7900SOL    HW124599   5.589   6.222   0.846  1.0320  0.3140  1.4987
 7900SOL    HW224600   5.616   6.324   0.721 -4.1938  1.3333  0.9346
 7901SOL     OW24601   5.273   4.641   2.163  0.3039  0.4542 -0.0260
 7901SOL    HW124602   5.228   4.611   2.080  1.9388 -1.1740 -0.3892
 7901SOL    HW224603   5.312   4.732   2.149 -1.8011  1.4159 -0.0512
 7902SOL     OW24604   3.926   3.765   5.605 -0.3136  0.2248  0.4023
 7902SOL    HW124605   3.985   3.777   5.526  0.9037 -0.6604  1.1371
 7902SOL    HW224606   3.849   3.706   5.581 -0.6668  1.0061 -0.4420
 7903SOL     OW24607   6.517   3.229   1.464  0.1440  0.2100 -0.6828
 7903SOL    HW124608   6.538   3.261   1.557 -0.8155  2.5875 -1.1930
 7903SOL    HW224609   6.602   3.208   1.416  0.6085 -3.1593  1.3074
 7904SOL     OW24610   6.894   1.343   3.517  0.3860 -0.6286 -0.3821
 7904SOL    HW124611   6.915   1.441   3.515 -0.7962 -0.3513 -2.8104
 7904SOL    HW224612   6.907   1.304   3.426 -1.6156 -2.1698 -0.0880
 7905SOL     OW24613   2.431   1.333   1.402  0.0915 -0.5574 -0.1103
 7905SOL    HW124614   2.391   1.420   1.373  0.2807  0.0763  1.3967
 7905SOL    HW224615   2.360   1.264   1.412 -0.6858  0.4832  2.2939
 7906SOL     OW24616   0.634   4.889   6.827 -1.0232  0.2734  0.3496
 7906SOL    HW124617   0.620   4.791   6.815  1.2979 -0.0135 -0.4533
 7906SOL    HW224618   0.575   4.938   6.762 -2.7740 -0.4938  1.2777
 7907SOL     OW24619   0.687   2.096   1.285 -0.0761  0.1831  0.6695
 7907SOL    HW124620   0.677   2.027   1.356 -1.2735 -1.2513 -0.8426
 7907SOL    HW224621   0.605   2.154   1.283  0.5604  1.1615  1.3516
 7908SOL     OW24622   0.013   0.401   4.920 -0.4263 -0.2684  0.0510
 7908SOL    HW124623   0.096   0.437   4.964 -0.2343 -1.5727  0.8171
 7908SOL    HW224624  -0.035   0.342   4.985 -1.7044  0.0695 -0.5588
 7909SOL     OW24625   3.967   2.123   4.008  0.3682 -0.1317 -0.2611
 7909SOL    HW124626   3.869   2.106   3.998  0.4267 -1.3370  0.9309
 7909SOL    HW224627   4.018   2.045   3.971  1.0122  1.3123 -2.7271
 7910SOL     OW24628   6.645   3.348   6.378 -0.2850  0.4903 -0.3598
 7910SOL    HW124629   6.632   3.333   6.476 -0.6169  0.6033 -0.3830
 7910SOL    HW224630   6.570   3.405   6.344 -0.1914  0.4166 -0.6863
 7911SOL     OW24631   0.859   6.766   0.030  0.1566 -0.4838  0.7216
 7911SOL    HW124632   0.767   6.806   0.029  0.4791  0.3523  1.8310
 7911SOL    HW224633   0.852   6.667   0.040 -0.6718 -0.2177  4.2037
 7912SOL     OW24634   1.449   5.742   4.481  0.5131  0.5201 -0.1581
 7912SOL    HW124635   1.449   5.656   4.430 -0.1821 -0.1017  0.8517
 7912SOL    HW224636   1.542   5.780   4.481  0.7711 -0.0690 -0.8553
 7913SOL     OW24637   3.002   0.250   5.757 -0.3607 -0.4913 -0.3104
 7913SOL    HW124638   2.991   0.228   5.854 -0.8102 -0.1267 -0.2765
 7913SOL    HW224639   3.011   0.165   5.705 -1.3053 -0.7419 -0.0900
 7914SOL     OW24640   5.028   5.352   6.761 -0.3267  1.0869  0.2310
 7914SOL    HW124641   5.010   5.329   6.665 -0.9443 -1.2854  0.8325
 7914SOL    HW224642   5.115   5.401   6.768  1.8085 -2.0911 -1.2828
 7915SOL     OW24643   2.166   1.454   2.261 -0.0691 -0.4458  0.1880
 7915SOL    HW124644   2.161   1.357   2.240 -2.2007 -0.4637  0.5985
 7915SOL    HW224645   2.262   1.480   2.276  0.5670 -2.3731 -0.3228
 7916SOL     OW24646   4.377   4.924   5.864  0.1269  0.1019 -0.1000
 7916SOL    HW124647   4.383   4.873   5.778  0.2900 -1.7787  0.9792
 7916SOL    HW224648   4.347   5.018   5.845  0.0676 -0.2916 -2.1818
 7917SOL     OW24649   3.895   4.011   4.675 -0.0507  0.3706  0.1689
 7917SOL    HW124650   3.877   4.098   4.630 -0.9694  0.5089  0.7945
 7917SOL    HW224651   3.884   4.020   4.774 -0.3654 -0.4944  0.2278
 7918SOL     OW24652   5.143   1.662   2.466 -0.0484 -0.5328  0.4257
 7918SOL    HW124653   5.178   1.575   2.432  1.3810  0.2427 -0.1925
 7918SOL    HW224654   5.220   1.719   2.497 -0.7262  1.2455 -0.9484
 7919SOL     OW24655   6.326   0.623   3.656 -0.1443  0.0822 -0.0293
 7919SOL    HW124656   6.249   0.591   3.712  0.4875  1.0145  1.4311
 7919SOL    HW224657   6.291   0.659   3.570 -1.0444 -2.5572 -0.8787
 7920SOL     OW24658   5.315   6.073   2.258 -0.3964  0.0956  0.4801
 7920SOL    HW124659   5.229   6.111   2.222  1.2518  0.8673 -3.0783
 7920SOL    HW224660   5.316   5.974   2.243 -0.4156  0.1791 -0.0954
 7921SOL     OW24661   4.673   5.631   3.064  0.3272 -0.2659 -0.1862
 7921SOL    HW124662   4.772   5.631   3.078  0.1432  0.4339  1.3497
 7921SOL    HW224663   4.637   5.538   3.076  0.3918  0.0090  2.9758
 7922SOL     OW24664   0.777   3.620   4.945 -0.3074  0.7094  0.1472
 7922SOL    HW124665   0.759   3.534   4.898  2.4036 -1.7661  3.1245
 7922SOL    HW224666   0.727   3.621   5.032  1.7066  0.8288  1.3642
 7923SOL     OW24667   1.243   2.559   2.681 -0.3557 -0.5954  0.6566
 7923SOL    HW124668   1.205   2.474   2.719 -1.9819 -0.0204  0.3771
 7923SOL    HW224669   1.230   2.561   2.582 -2.9944  1.1979  0.9470
 7924SOL     OW24670   3.545   5.837   4.034 -0.3402 -0.4278 -0.0660
 7924SOL    HW124671   3.532   5.741   4.061 -0.1127 -0.0047  1.6681
 7924SOL    HW224672   3.589   5.887   4.109 -1.9594  1.4116 -0.2616
 7925SOL     OW24673   1.489   1.125   5.925  0.0653 -0.1691 -0.3013
 7925SOL    HW124674   1.573   1.128   5.979 -1.7340  0.6961  2.7131
 7925SOL    HW224675   1.461   1.030   5.911  1.6301 -0.4736 -1.5864
 7926SOL     OW24676   4.031   0.871   3.205  0.0880 -0.0993  0.6388
 7926SOL    HW124677   4.111   0.820   3.238  0.8728  1.0375  0.5342
 7926SOL    HW224678   4.035   0.880   3.106  0.7537  1.4423  0.7858
 7927SOL     OW24679   4.758   1.205   3.426  0.2855  0.3601  0.2329
 7927SOL    HW124680   4.785   1.195   3.331 -0.8473 -3.1905  0.1150
 7927SOL    HW224681   4.660   1.189   3.435  0.1950  1.5999  1.8995
 7928SOL     OW24682   0.951   4.265   0.819 -0.1981 -0.2353  0.3394
 7928SOL    HW124683   0.874   4.202   0.815 -1.4141  1.2044  0.4919
 7928SOL    HW224684   0.950   4.315   0.906  1.6280 -1.0504  0.8909
 7929SOL     OW24685   3.549   4.012   5.345 -0.5551 -0.4449 -0.2049
 7929SOL    HW124686   3.620   3.943   5.333  1.2457  1.3227 -0.3563
 7929SOL    HW224687   3.553   4.048   5.438 -0.2250  0.6819 -0.6317
 7930SOL     OW24688   3.682   0.133   3.215  0.5525 -0.0398  0.3677
 7930SOL    HW124689   3.740   0.102   3.290 -0.9123 -0.1914  1.4953
 7930SOL    HW224690   3.599   0.076   3.212  0.4096  0.2033 -1.1478
 7931SOL     OW24691   2.359   1.425   5.967  0.1659  0.4437  0.6624
 7931SOL    HW124692   2.409   1.416   5.881 -0.3001 -1.0892  0.5210
 7931SOL    HW224693   2.262   1.441   5.947  0.0669  0.1420  0.8999
 7932SOL     OW24694   3.672   0.757   2.582  0.5382  0.0398  1.1045
 7932SOL    HW124695   3.741   0.747   2.511 -0.1361 -2.5982  0.7480
 7932SOL    HW224696   3.716   0.782   2.668  1.6835  0.3219  0.4507
 7933SOL     OW24697   0.607   2.496   5.617  0.2849 -0.0053 -0.0581
 7933SOL    HW124698   0.528   2.545   5.653  1.0231  3.3526 -2.5034
 7933SOL    HW224699   0.578   2.427   5.551 -0.6589  2.0496 -1.8818
 7934SOL     OW24700   5.438   3.058   5.323  0.3042  0.1224 -0.0431
 7934SOL    HW124701   5.525   3.013   5.345  0.5094 -0.6836 -2.3148
 7934SOL    HW224702   5.456   3.154   5.298  0.3779  0.2926  0.6387
 7935SOL     OW24703   5.139   5.431   1.663 -0.3567  0.5714  0.3232
 7935SOL    HW124704   5.120   5.435   1.761 -3.4854  1.0134 -0.2023
 7935SOL    HW224705   5.158   5.336   1.637  2.4049  0.6769  1.5540
 7936SOL     OW24706   2.044   5.236   2.086 -0.1533 -0.4881 -0.0987
 7936SOL    HW124707   2.116   5.210   2.151  1.1814  1.2033 -0.8197
 7936SOL    HW224708   2.079   5.229   1.993 -0.9672  0.2059 -0.4736
 7937SOL     OW24709   5.193   1.924   6.210 -0.3223 -0.3986 -0.1475
 7937SOL    HW124710   5.168   1.992   6.280 -0.8588  0.1322 -0.8385
 7937SOL    HW224711   5.206   1.835   6.253  0.9041  0.2329  0.8670
 7938SOL     OW24712   0.093   4.755   3.655  0.2997  0.2455  0.0471
 7938SOL    HW124713   0.015   4.805   3.692  1.2050  1.3184  0.5694
 7938SOL    HW224714   0.106   4.778   3.559  0.5478  0.8056  0.2143
 7939SOL     OW24715   5.704   0.008   4.525  0.1195  0.3402  0.4902
 7939SOL    HW124716   5.622  -0.018   4.576 -1.2698 -1.5494 -2.4447
 7939SOL    HW224717   5.683   0.088   4.469 -1.0479 -2.1049 -2.8760
 7940SOL     OW24718   2.468   5.292   5.953  0.6107  0.3414 -0.1852
 7940SOL    HW124719   2.464   5.194   5.935 -0.6136  0.8105 -2.8736
 7940SOL    HW224720   2.384   5.321   5.999  1.7661 -0.0943  2.3680
 7941SOL     OW24721   0.928   0.370   1.388 -0.2635 -0.1685  0.2451
 7941SOL    HW124722   0.925   0.276   1.423  0.7826  1.0637  4.0661
 7941SOL    HW224723   1.023   0.400   1.381 -0.6040  0.7827 -0.5676
 7942SOL     OW24724   0.220   6.706   1.170 -0.5171 -0.0915 -0.1149
 7942SOL    HW124725   0.267   6.625   1.204 -1.2470 -0.1290  0.8576
 7942SOL    HW224726   0.170   6.750   1.245 -0.6550  0.8965 -0.7579
 7943SOL     OW24727   6.071   2.490   6.631  0.1427 -0.1749 -0.2754
 7943SOL    HW124728   5.988   2.519   6.583  0.4827  0.2028 -0.6392
 7943SOL    HW224729   6.134   2.447   6.566 -0.2973 -1.6350  0.2281
 7944SOL     OW24730   5.859   3.903   3.991 -0.7421  0.0079  0.6315
 7944SOL    HW124731   5.812   3.820   3.962 -0.1890  0.7043 -2.7135
 7944SOL    HW224732   5.955   3.881   4.012 -0.7365 -0.3003  0.3020
 7945SOL     OW24733   4.086   0.168   1.147 -0.3038  0.1117 -0.3266
 7945SOL    HW124734   4.113   0.076   1.118  1.8037  0.2275  1.0508
 7945SOL    HW224735   4.156   0.233   1.118 -1.1691  1.1075 -0.2111
 7946SOL     OW24736   1.190   1.973   5.111  0.2185 -0.2742 -0.2513
 7946SOL    HW124737   1.272   2.016   5.147  0.0469  0.1733 -0.3814
 7946SOL    HW224738   1.199   1.874   5.114  0.8372 -0.2257 -0.4330
 7947SOL     OW24739   4.131   5.457   6.678 -0.8086 -0.1604 -0.1947
 7947SOL    HW124740   4.121   5.429   6.773  1.5565 -0.7301 -0.0437
 7947SOL    HW224741   4.171   5.383   6.625  2.1781  1.5289 -0.5737
 7948SOL     OW24742   0.846   4.199   4.998 -0.4808  0.4753 -0.1823
 7948SOL    HW124743   0.896   4.204   5.085 -0.5104 -0.2403 -0.1247
 7948SOL    HW224744   0.909   4.174   4.925 -0.7128 -0.2149 -0.1464
 7949SOL     OW24745   0.999   3.996   2.456 -0.5888  0.7177 -0.6678
 7949SOL    HW124746   0.987   3.916   2.398  1.0423 -1.5100  1.8567
 7949SOL    HW224747   1.088   4.038   2.436 -0.3466  0.3890 -0.2834
 7950SOL     OW24748   3.794   6.899   3.097 -0.8042  0.4678 -0.0359
 7950SOL    HW124749   3.778   6.997   3.114 -2.2689  0.3589 -0.7284
 7950SOL    HW224750   3.709   6.855   3.069  0.6864 -0.0406 -4.4909
 7951SOL     OW24751   2.479   4.057   6.114 -0.3722  0.1519 -0.1701
 7951SOL    HW124752   2.383   4.053   6.086 -0.0450  0.1795 -1.3500
 7951SOL    HW224753   2.523   4.136   6.072 -0.4490  1.7454  2.4935
 7952SOL     OW24754   5.660   5.742   6.861  0.1508 -0.3253  0.2637
 7952SOL    HW124755   5.618   5.661   6.903  1.2110 -1.2246 -0.3496
 7952SOL    HW224756   5.631   5.748   6.765  0.6011 -0.3622  0.1240
 7953SOL     OW24757   3.540   5.006   1.761  0.0307  0.0630 -0.2954
 7953SOL    HW124758   3.636   4.977   1.761 -0.4598 -1.9156  2.1428
 7953SOL    HW224759   3.482   4.928   1.783 -2.0162  1.5844  0.0148
 7954SOL     OW24760   0.560   5.106   3.920  0.7751  0.6702 -0.2405
 7954SOL    HW124761   0.519   5.191   3.953  1.2499  0.5051  0.7814
 7954SOL    HW224762   0.520   5.082   3.831  1.3548  2.4823 -1.0236
 7955SOL     OW24763   6.924   6.910   5.542 -0.1461 -0.5507 -0.4156
 7955SOL    HW124764   6.942   6.944   5.634 -0.1011  1.2948 -1.0728
 7955SOL    HW224765   6.986   6.834   5.522  0.5894 -0.2620  0.6704
 7956SOL     OW24766   5.533   4.864   2.432  0.5614  0.1700 -0.0849
 7956SOL    HW124767   5.460   4.920   2.470  0.8274  0.0025  0.6809
 7956SOL    HW224768   5.554   4.895   2.339 -0.2293  0.4497 -0.1759
 7957SOL     OW24769   1.312   4.637   0.871 -0.8578 -0.1414 -0.0147
 7957SOL    HW124770   1.355   4.700   0.936 -2.2351  0.0051  0.7890
 7957SOL    HW224771   1.323   4.672   0.778  2.9999 -1.3943 -0.2002
 7958SOL     OW24772   2.422   5.847   3.702 -0.0261 -0.3016 -0.1005
 7958SOL    HW124773   2.482   5.858   3.781  1.0306 -0.6249 -0.8453
 7958SOL    HW224774   2.329   5.875   3.727  0.6371  1.2422  0.7628
 7959SOL     OW24775   5.284   6.193   0.480  0.5826 -0.0109  0.3897
 7959SOL    HW124776   5.189   6.173   0.454  0.6274 -2.6712  1.9658
 7959SOL    HW224777   5.325   6.253   0.411 -1.6783 -0.2495 -1.2741
 7960SOL     OW24778   0.316   1.103   2.160  0.6113  0.0947  0.1402
 7960SOL    HW124779   0.393   1.099   2.097  0.2648  1.8771 -0.4551
 7960SOL    HW224780   0.319   1.025   2.222  3.0752  0.2810  0.3469
 7961SOL     OW24781   0.382   6.942   0.424 -0.1179  0.5834 -0.3759
 7961SOL    HW124782   0.449   6.898   0.365 -1.3876  0.4683 -1.7844
 7961SOL    HW224783   0.356   6.880   0.498  1.1053  0.5351  0.0292
 7962SOL     OW24784   1.718   4.666   1.004 -0.3629  0.9077 -0.0078
 7962SOL    HW124785   1.696   4.744   0.945  1.4522  0.7732 -0.9398
 7962SOL    HW224786   1.814   4.672   1.033 -0.8507  0.2301  1.8298
 7963SOL     OW24787   0.468   5.705   5.574 -0.0534 -0.1233 -0.2349
 7963SOL    HW124788   0.370   5.687   5.571 -0.1389  0.2783  0.0540
 7963SOL    HW224789   0.509   5.657   5.651  0.3261 -1.8855 -1.4760
 7964SOL     OW24790   5.046   5.866   3.729 -0.2343  0.0945  0.7287
 7964SOL    HW124791   5.018   5.928   3.802  1.4433  0.5766  0.9923
 7964SOL    HW224792   5.008   5.775   3.747 -1.7637  0.7354  0.9419
 7965SOL     OW24793   4.027   0.947   0.276 -0.4942 -0.1803  0.0575
 7965SOL    HW124794   3.945   0.989   0.313 -0.3678 -0.8242  1.0904
 7965SOL    HW224795   4.024   0.848   0.290  0.3419 -0.2448 -0.1295
 7966SOL     OW24796   0.785   0.643   4.917 -0.0813 -0.4517 -0.2314
 7966SOL    HW124797   0.797   0.733   4.959  1.4817  0.0635 -1.6516
 7966SOL    HW224798   0.728   0.652   4.835  0.5013 -0.6457 -0.6654
 7967SOL     OW24799   2.679   0.583   4.443 -0.4801  0.1571  0.2374
 7967SOL    HW124800   2.737   0.599   4.524 -1.0206  1.0295  0.4627
 7967SOL    HW224801   2.738   0.566   4.364  0.0637 -0.3934  0.7391
 7968SOL     OW24802   4.378   1.698   0.313 -0.1049  0.4099  0.3394
 7968SOL    HW124803   4.357   1.640   0.234  1.1385  1.8009 -1.0744
 7968SOL    HW224804   4.415   1.785   0.282 -0.8377  1.5433  2.4466
 7969SOL     OW24805   4.738   2.807   4.198  0.2307 -0.1021 -0.0822
 7969SOL    HW124806   4.720   2.778   4.104  0.2500 -0.0137 -0.1135
 7969SOL    HW224807   4.792   2.891   4.196  1.1243 -0.6571  0.0065
 7970SOL     OW24808   0.898   2.587   4.155 -0.2032  0.4114 -0.6708
 7970SOL    HW124809   0.892   2.655   4.228  0.9925 -2.1102  1.9676
 7970SOL    HW224810   0.811   2.583   4.106 -1.7066  1.0662  1.7739
 7971SOL     OW24811   2.896   1.212   2.443 -0.4932 -0.4116 -0.2376
 7971SOL    HW124812   2.924   1.245   2.533 -1.5594 -4.3013  1.7282
 7971SOL    HW224813   2.918   1.281   2.374  0.9075  2.5115  2.8555
 7972SOL     OW24814   5.157   0.354   3.164 -0.3281 -0.3100  0.2404
 7972SOL    HW124815   5.162   0.391   3.071 -1.2161 -0.6163  0.0595
 7972SOL    HW224816   5.223   0.401   3.222 -0.7778  0.9215 -0.1994
 7973SOL     OW24817   5.905   1.691   3.098 -0.4520  0.3165  0.1815
 7973SOL    HW124818   5.866   1.737   3.177  1.1363 -0.6796  1.6148
 7973SOL    HW224819   5.949   1.606   3.127 -1.6189 -1.1909 -2.0796
 7974SOL     OW24820   4.217   5.007   4.512  0.1242 -0.1371  0.0146
 7974SOL    HW124821   4.229   5.082   4.578  1.8156 -0.3665  0.0116
 7974SOL    HW224822   4.305   4.963   4.496 -0.8897 -2.3844  0.2875
 7975SOL     OW24823   1.593   6.825   1.474 -0.7219 -0.2496  0.0310
 7975SOL    HW124824   1.494   6.839   1.471 -0.9801 -1.5964  1.1148
 7975SOL    HW224825   1.613   6.727   1.468  0.6263  0.0767 -1.3652
 7976SOL     OW24826   0.653   0.723   5.455 -0.0332 -0.2074 -0.0119
 7976SOL    HW124827   0.693   0.800   5.405  0.1738 -0.2820  0.0360
 7976SOL    HW224828   0.723   0.653   5.468  0.0199 -0.0303  0.7075
 7977SOL     OW24829   3.910   0.271   1.488 -0.7973 -0.0752  0.3477
 7977SOL    HW124830   3.871   0.301   1.401 -1.8882 -2.1639  0.0472
 7977SOL    HW224831   3.849   0.205   1.531  0.3927 -0.1512  2.0386
 7978SOL     OW24832   4.383   2.234   0.195 -0.0186  0.3609  0.2594
 7978SOL    HW124833   4.410   2.320   0.239  3.7786  0.1455 -1.2770
 7978SOL    HW224834   4.338   2.253   0.108 -0.5701  0.7614  0.6246
 7979SOL     OW24835   4.624   6.068   3.336 -0.1673 -0.0044 -0.5721
 7979SOL    HW124836   4.646   5.999   3.267  1.6508 -0.2945  0.2479
 7979SOL    HW224837   4.620   6.024   3.426 -1.1525  0.6117 -0.2986
 7980SOL     OW24838   3.398   1.670   1.407  0.0181  0.2877  0.1010
 7980SOL    HW124839   3.322   1.672   1.472 -0.3480 -1.1497 -0.2599
 7980SOL    HW224840   3.444   1.759   1.407  0.5178  0.1357  2.8954
 7981SOL     OW24841   0.225   5.881   3.167  0.1574  0.3583  0.2317
 7981SOL    HW124842   0.274   5.917   3.247  0.0557  1.6429 -0.2494
 7981SOL    HW224843   0.150   5.943   3.144 -0.6614 -0.7114 -0.0588
 7982SOL     OW24844   6.030   4.619   0.397 -0.4083 -0.0017  0.3341
 7982SOL    HW124845   6.026   4.519   0.399  0.5612 -0.0514  0.5800
 7982SOL    HW224846   5.949   4.657   0.441  1.0811 -0.7546  4.1405
 7983SOL     OW24847   3.927   2.943   1.367 -0.3566  0.4482  0.4392
 7983SOL    HW124848   3.831   2.951   1.340 -0.3975  0.1986  0.5118
 7983SOL    HW224849   3.958   3.030   1.405 -1.4381 -0.3504  3.3513
 7984SOL     OW24850   5.405   1.238   1.501 -0.0950  0.1876  0.2467
 7984SOL    HW124851   5.497   1.208   1.526 -1.0838 -2.6116  0.8549
 7984SOL    HW224852   5.363   1.285   1.579  0.2618  0.0775  0.5079
 7985SOL     OW24853   5.043   0.802   6.910  0.2404  0.4368 -0.0617
 7985SOL    HW124854   4.953   0.839   6.934 -1.3731 -1.9070 -2.0368
 7985SOL    HW224855   5.111   0.835   6.976 -1.9737  2.4833  1.3676
 7986SOL     OW24856   4.422   3.584   0.973  0.3084  0.2466 -0.0736
 7986SOL    HW124857   4.402   3.667   0.921  0.6920  1.5004  1.6782
 7986SOL    HW224858   4.338   3.552   1.017  0.4233  0.4739  0.3118
 7987SOL     OW24859   0.038   4.222   5.284  0.6517 -0.0608  0.6220
 7987SOL    HW124860  -0.001   4.306   5.323 -1.6502  0.3989 -2.3448
 7987SOL    HW224861  -0.023   4.145   5.303 -0.0773  0.0201 -1.1849
 7988SOL     OW24862   1.837   6.903   5.822 -0.2746  0.2514 -0.5803
 7988SOL    HW124863   1.908   6.964   5.787  0.2806 -0.4329 -0.6845
 7988SOL    HW224864   1.812   6.930   5.914  0.6194  0.1058 -0.2779
 7989SOL     OW24865   3.441   5.278   7.003 -0.6322 -0.4312 -0.2822
 7989SOL    HW124866   3.428   5.363   7.054 -0.1043 -1.1310  1.0666
 7989SOL    HW224867   3.388   5.205   7.046  0.9386 -1.3640  0.1499
 7990SOL     OW24868   1.183   2.454   3.054  0.4242 -0.1774 -0.3477
 7990SOL    HW124869   1.281   2.443   3.070  1.0095  1.5776 -2.3064
 7990SOL    HW224870   1.140   2.493   3.136  1.3328 -0.9479  0.5221
 7991SOL     OW24871   1.998   4.824   0.279  0.6307  0.4395 -0.6591
 7991SOL    HW124872   2.074   4.758   0.285 -1.7198 -2.3073  2.0354
 7991SOL    HW224873   1.925   4.785   0.222 -0.9247  0.4489  1.2302
 7992SOL     OW24874   4.011   1.549   6.988 -0.2532  0.1678 -0.0284
 7992SOL    HW124875   4.041   1.464   6.944 -0.4545 -0.3795  0.8695
 7992SOL    HW224876   4.060   1.626   6.947 -1.6669 -0.1119 -2.4121
 7993SOL     OW24877   1.784   0.202   6.158 -0.4494  0.9435  0.0904
 7993SOL    HW124878   1.706   0.200   6.096  0.2661  1.9222 -0.8904
 7993SOL    HW224879   1.753   0.197   6.253 -1.6640  0.9262 -0.3002
 7994SOL     OW24880   6.319   2.006   5.610  0.2538 -0.1582 -0.6652
 7994SOL    HW124881   6.341   2.093   5.654 -0.9061  0.1756 -0.7336
 7994SOL    HW224882   6.363   2.004   5.520  0.3125  0.3393 -0.6540
 7995SOL     OW24883   4.312   5.141   3.630  0.0767  0.0308 -0.6909
 7995SOL    HW124884   4.412   5.141   3.634  0.0666  2.0632  1.8962
 7995SOL    HW224885   4.275   5.107   3.717 -1.4893  0.2791 -1.2223
 7996SOL     OW24886   3.481   1.751   6.410  0.0423 -0.1366 -0.1251
 7996SOL    HW124887   3.472   1.668   6.465 -1.2222  0.5984  0.8196
 7996SOL    HW224888   3.565   1.745   6.355 -0.3802 -2.3619 -0.6685
 7997SOL     OW24889   6.873   3.138   0.763  0.0133  0.7386 -0.0371
 7997SOL    HW124890   6.812   3.217   0.777  1.7372  1.9629  0.9767
 7997SOL    HW224891   6.875   3.083   0.846 -1.4175 -0.6094 -0.8436
 7998SOL     OW24892   5.170   5.884   6.280  0.6756 -0.6972 -0.4653
 7998SOL    HW124893   5.070   5.877   6.278  0.6676 -0.6563 -2.5897
 7998SOL    HW224894   5.196   5.975   6.310  0.1020 -0.8887  0.6610
 7999SOL     OW24895   2.272   2.437   6.472  0.1995  0.2018  0.3652
 7999SOL    HW124896   2.258   2.487   6.387  2.8491 -1.4437 -1.1701
 7999SOL    HW224897   2.355   2.470   6.517 -0.5955  0.3226  1.8209
 8000SOL     OW24898   4.842   0.203   5.306  0.0365 -0.0653 -0.4554
 8000SOL    HW124899   4.911   0.131   5.314 -0.3118 -0.5489 -1.5220
 8000SOL    HW224900   4.775   0.194   5.379  0.3417 -0.4424 -0.2192
 8001SOL     OW24901   0.943   4.888   0.071 -0.5707  0.0036 -0.2553
 8001SOL    HW124902   0.846   4.895   0.092 -0.3507  0.5973  0.6284
 8001SOL    HW224903   0.976   4.798   0.097 -1.4563 -1.3105 -3.1974
 8002SOL     OW24904   4.333   3.018   0.755 -0.6169 -0.8303 -0.6394
 8002SOL    HW124905   4.427   3.011   0.787 -0.4952  2.3808  0.0614
 8002SOL    HW224906   4.333   3.032   0.656 -0.3544 -1.0938 -0.6758
 8003SOL     OW24907   5.780   4.396   2.890 -0.4404 -0.0820  0.4225
 8003SOL    HW124908   5.774   4.492   2.862 -0.5674  0.3108  1.7455
 8003SOL    HW224909   5.798   4.339   2.810  1.3106  1.2170 -0.1502
 8004SOL     OW24910   2.464   1.691   4.248  0.2882 -0.0739 -0.3534
 8004SOL    HW124911   2.546   1.747   4.247  0.4161 -0.2533  0.0543
 8004SOL    HW224912   2.393   1.735   4.302  0.3687 -0.2779 -0.0817
 8005SOL     OW24913   3.087   0.915   2.864 -0.1815 -0.2916 -0.6607
 8005SOL    HW124914   3.116   1.011   2.862 -1.1560  0.1508  2.2180
 8005SOL    HW224915   3.116   0.870   2.779  0.8412  2.3532 -1.8378
 8006SOL     OW24916   2.770   4.528   1.630  0.5350  0.0960  0.2449
 8006SOL    HW124917   2.838   4.539   1.557 -1.1217  0.2233 -1.3664
 8006SOL    HW224918   2.816   4.520   1.718  2.6595 -0.7412 -0.8662
 8007SOL     OW24919   6.779   1.510   5.700  0.2529 -0.8610 -0.6739
 8007SOL    HW124920   6.841   1.433   5.714  1.2493 -0.0349 -0.3794
 8007SOL    HW224921   6.706   1.484   5.637  0.3505 -2.1512 -0.2728
 8008SOL     OW24922   6.211   4.179   1.558  0.0044  0.6854 -0.1580
 8008SOL    HW124923   6.210   4.128   1.472  1.3961  0.0453  0.1692
 8008SOL    HW224924   6.117   4.202   1.584 -0.6253 -1.0295 -0.7371
 8009SOL     OW24925   6.634   7.011   4.262  0.0856  0.8602 -0.7574
 8009SOL    HW124926   6.711   7.065   4.229  0.0434  0.2659 -1.8662
 8009SOL    HW224927   6.602   7.049   4.349  2.1056  0.6457  0.1325
 8010SOL     OW24928   1.135   2.854   6.064  0.8357  0.6818 -0.3954
 8010SOL    HW124929   1.200   2.820   5.995  0.1438 -2.0009  0.1530
 8010SOL    HW224930   1.173   2.935   6.108  3.9040 -0.8093 -0.0394
 8011SOL     OW24931   1.005   5.467   0.998  0.4711 -0.3726 -0.1158
 8011SOL    HW124932   1.018   5.556   0.954 -0.9681 -0.2166 -0.2588
 8011SOL    HW224933   0.982   5.480   1.094 -0.8584 -0.5322 -0.4007
 8012SOL     OW24934   3.151   4.905   3.298  0.2219  0.4120  0.1546
 8012SOL    HW124935   3.184   4.939   3.386  3.1846 -0.0759 -0.6497
 8012SOL    HW224936   3.165   4.806   3.294 -1.6444  0.1268 -0.2122
 8013SOL     OW24937   6.453   6.037   6.478 -0.3848 -0.0582  0.7677
 8013SOL    HW124938   6.409   6.064   6.564 -0.9590  0.8934  0.1963
 8013SOL    HW224939   6.508   6.113   6.443 -0.0408 -0.4874  0.3581
 8014SOL     OW24940   2.905   0.654   5.162 -0.4946 -0.9400  0.4298
 8014SOL    HW124941   2.959   0.602   5.228 -2.5527 -1.7332  1.5756
 8014SOL    HW224942   2.835   0.707   5.210  0.3016  1.4267 -0.8683
 8015SOL     OW24943   2.258   0.919   4.498  0.0371  0.4519 -0.5628
 8015SOL    HW124944   2.247   0.923   4.597  3.6401 -1.1439  0.0531
 8015SOL    HW224945   2.232   0.828   4.466 -1.2475  1.0051 -1.1904
 8016SOL     OW24946   5.921   5.549   3.640  0.1404 -0.4690 -0.7299
 8016SOL    HW124947   5.879   5.626   3.592  1.0949 -0.0517 -0.9085
 8016SOL    HW224948   5.926   5.470   3.578  0.0497 -0.3755 -0.8563
 8017SOL     OW24949   0.474   3.878   0.052  0.1129 -0.0009  0.0227
 8017SOL    HW124950   0.398   3.876   0.117  0.7013  2.2296  0.8802
 8017SOL    HW224951   0.559   3.854   0.100  0.2556 -0.4643 -0.4496
 8018SOL     OW24952   5.084   3.226   4.942  0.2012  0.0632 -0.2795
 8018SOL    HW124953   5.079   3.241   5.041  1.5023  0.5247 -0.2722
 8018SOL    HW224954   5.158   3.163   4.921  1.2410  1.5058 -1.0858
 8019SOL     OW24955   2.829   4.771   2.684 -0.3920 -0.2184 -0.1894
 8019SOL    HW124956   2.746   4.715   2.689 -0.8930  0.3124 -2.0358
 8019SOL    HW224957   2.832   4.832   2.763 -0.6982 -1.6402  0.9624
 8020SOL     OW24958   4.861   6.428   1.636  0.2026  0.5178  0.0055
 8020SOL    HW124959   4.781   6.399   1.582  0.5117  1.5194 -1.0123
 8020SOL    HW224960   4.944   6.414   1.583  0.8114 -1.0249  1.2597
 8021SOL     OW24961   0.016   2.411   1.470 -0.1383  0.4444  0.0333
 8021SOL    HW124962  -0.070   2.463   1.477  0.2218  0.9325  1.1500
 8021SOL    HW224963  -0.003   2.314   1.487 -0.6684  0.3381 -1.0989
 8022SOL     OW24964   6.748   4.058   3.701  0.1305  0.5600 -0.3565
 8022SOL    HW124965   6.727   3.997   3.625 -0.8727 -1.5332  1.4705
 8022SOL    HW224966   6.665   4.104   3.730  0.1447  0.1075  0.4437
 8023SOL     OW24967   0.090   6.450   3.152 -0.6202  1.0734 -0.1075
 8023SOL    HW124968   0.155   6.379   3.179  0.9436  2.6058  0.3627
 8023SOL    HW224969   0.111   6.481   3.059 -0.7294  1.4986  0.0072
 8024SOL     OW24970   4.910   4.611   4.643  0.5045 -0.0618 -0.3080
 8024SOL    HW124971   4.889   4.605   4.546 -1.5822 -0.5373  0.1350
 8024SOL    HW224972   4.900   4.522   4.686 -0.0295  0.4204  0.6066
 8025SOL     OW24973   3.172   6.374   6.912 -0.3690 -0.4275 -0.5949
 8025SOL    HW124974   3.128   6.324   6.837 -0.9199 -2.3498  0.9174
 8025SOL    HW224975   3.102   6.421   6.965 -0.0206  0.6031 -1.0232
 8026SOL     OW24976   2.338   2.868   6.904  0.4659  0.2921 -0.3833
 8026SOL    HW124977   2.434   2.861   6.930  0.1763  0.8433  0.8765
 8026SOL    HW224978   2.299   2.776   6.897  0.9972  0.0799 -0.5680
 8027SOL     OW24979   5.313   3.277   6.419  0.2000 -0.1408 -0.4916
 8027SOL    HW124980   5.243   3.336   6.378  0.4322 -0.1377 -0.8876
 8027SOL    HW224981   5.372   3.332   6.478  0.9099  0.1966 -1.4804
 8028SOL     OW24982   5.018   6.373   0.241 -0.9981  0.2678  0.3844
 8028SOL    HW124983   5.042   6.285   0.283  0.6530  0.4510 -0.1129
 8028SOL    HW224984   5.074   6.387   0.160 -2.4917  0.9974 -0.5507
 8029SOL     OW24985   2.610   4.684   5.677  0.4155  0.2989  0.8590
 8029SOL    HW124986   2.654   4.771   5.700  1.5091  0.3855 -1.3200
 8029SOL    HW224987   2.671   4.608   5.699  1.0915  0.3368 -0.7275
 8030SOL     OW24988   4.226   2.625   0.366  0.1639 -0.3913  0.1936
 8030SOL    HW124989   4.183   2.702   0.319 -0.6994 -1.3075 -0.5654
 8030SOL    HW224990   4.156   2.558   0.391  1.0245 -1.4651 -0.1865
 8031SOL     OW24991   4.460   5.942   1.178  0.1257 -0.6051 -0.2199
 8031SOL    HW124992   4.446   5.854   1.222  0.0910 -0.3549  0.2787
 8031SOL    HW224993   4.555   5.972   1.193  0.5930 -1.2681 -1.7025
 8032SOL     OW24994   5.810   3.454   6.548  0.1719  0.0454 -0.2473
 8032SOL    HW124995   5.793   3.500   6.635 -0.1045  1.3289 -0.9403
 8032SOL    HW224996   5.762   3.367   6.545  0.2550 -0.0487  0.9104
 8033SOL     OW24997   5.702   0.592   1.574 -0.1347  0.3157  0.0092
 8033SOL    HW124998   5.603   0.590   1.560 -0.2223  1.6269  0.2924
 8033SOL    HW224999   5.726   0.671   1.630  1.1479  0.4332 -0.6665
 8034SOL     OW25000   0.676   1.607   6.121  0.0168 -0.0353 -0.2861
 8034SOL    HW125001   0.760   1.560   6.094  0.1193 -0.5310  0.8411
 8034SOL    HW225002   0.697   1.673   6.193 -0.7303 -1.0437  0.9014
 8035SOL     OW25003   4.566   0.060   0.386  0.1151 -0.4952 -0.1237
 8035SOL    HW125004   4.532   0.054   0.293  0.4563 -0.0900 -0.2789
 8035SOL    HW225005   4.512   0.001   0.446  0.8716 -1.9654 -0.8493
 8036SOL     OW25006   6.902   5.251   1.125  0.0516  0.5198  0.2566
 8036SOL    HW125007   6.853   5.198   1.194  0.6085  0.3153  0.5008
 8036SOL    HW225008   6.838   5.311   1.077 -0.3146  0.7756  1.0524
 8037SOL     OW25009   1.760   2.555   3.020  0.0557  0.0513  0.9547
 8037SOL    HW125010   1.681   2.557   2.959 -0.0098  1.9729  1.0192
 8037SOL    HW225011   1.790   2.461   3.035 -2.6450 -0.8028  1.4843
 8038SOL     OW25012   6.165   1.620   4.487  0.3262 -0.0036 -0.0492
 8038SOL    HW125013   6.090   1.609   4.552  1.1663 -1.9018  0.6473
 8038SOL    HW225014   6.128   1.648   4.398 -0.8998  1.8681  0.9784
 8039SOL     OW25015   2.720   5.394   4.224 -0.7014 -0.1554 -0.2987
 8039SOL    HW125016   2.674   5.442   4.148  0.2274 -0.4122 -1.0476
 8039SOL    HW225017   2.652   5.349   4.281 -1.6183  2.0507  0.4479
 8040SOL     OW25018   4.589   6.057   4.702 -0.0813 -0.6911  0.1030
 8040SOL    HW125019   4.655   6.008   4.646  0.7439 -1.5552  1.7613
 8040SOL    HW225020   4.592   6.155   4.679  1.8868 -0.6901  0.2455
 8041SOL     OW25021   3.866   3.262   0.362  0.6318  0.4023 -0.0444
 8041SOL    HW125022   3.771   3.238   0.342  0.5439 -0.1938  0.9597
 8041SOL    HW225023   3.878   3.267   0.462  1.5474  0.9060 -0.1723
 8042SOL     OW25024   0.779   4.830   5.349  0.1151 -0.8626 -0.4563
 8042SOL    HW125025   0.691   4.876   5.339  0.4361 -0.0271  0.4418
 8042SOL    HW225026   0.816   4.847   5.441  1.2971 -1.0661 -0.8746
 8043SOL     OW25027   3.379   6.735   2.680  0.3839  0.2049 -0.1933
 8043SOL    HW125028   3.457   6.789   2.709  0.8447 -0.3163 -0.4552
 8043SOL    HW225029   3.381   6.723   2.580  0.9587 -1.3040 -0.0249
 8044SOL     OW25030   3.298   3.344   1.931 -0.1841  0.3105  0.7059
 8044SOL    HW125031   3.299   3.276   1.857 -1.1646  0.5455  0.4607
 8044SOL    HW225032   3.321   3.434   1.894  0.2451  0.2690  0.8668
 8045SOL     OW25033   1.208   3.168   3.909 -0.3534 -0.3796 -0.3074
 8045SOL    HW125034   1.283   3.198   3.851 -0.9774 -0.1824 -1.0257
 8045SOL    HW225035   1.173   3.080   3.877 -0.4481 -0.4573  0.0057
 8046SOL     OW25036   4.250   6.062   5.112 -0.4739 -0.1537 -0.3443
 8046SOL    HW125037   4.161   6.030   5.078 -0.5469 -0.0696 -0.2338
 8046SOL    HW225038   4.319   5.992   5.096  0.0582  0.8574 -3.0409
 8047SOL     OW25039   3.347   5.464   3.734 -0.6107  0.0437  0.7237
 8047SOL    HW125040   3.351   5.551   3.684  0.7729 -0.2438  0.2751
 8047SOL    HW225041   3.261   5.418   3.714 -1.2710  1.2055  0.7930
 8048SOL     OW25042   5.001   0.929   5.927 -0.4298 -0.4062 -0.0085
 8048SOL    HW125043   5.070   0.982   5.976  0.6859 -0.3992 -1.4927
 8048SOL    HW225044   5.021   0.831   5.935 -1.3857 -0.5231  1.1499
 8049SOL     OW25045   1.695   6.458   6.795 -0.2764  0.3722 -0.2333
 8049SOL    HW125046   1.621   6.520   6.771  0.9313  2.0803  0.2617
 8049SOL    HW225047   1.777   6.482   6.743  0.3807 -0.4507  0.3948
 8050SOL     OW25048   6.173   3.154   4.302  0.7226  1.2083 -0.0762
 8050SOL    HW125049   6.078   3.126   4.318  1.2635 -0.3331  0.7491
 8050SOL    HW225050   6.220   3.162   4.390  1.3202  2.1094 -0.4684
 8051SOL     OW25051   2.563   2.539   4.447  0.2097  0.1543 -0.2717
 8051SOL    HW125052   2.563   2.441   4.467 -0.4516  0.4809  1.5580
 8051SOL    HW225053   2.619   2.587   4.515 -0.3756  1.1474 -0.4650
 8052SOL     OW25054   4.270   1.757   3.794 -0.5043  0.6947 -0.3949
 8052SOL    HW125055   4.366   1.775   3.776 -0.2216 -0.7430 -0.4530
 8052SOL    HW225056   4.215   1.785   3.716  0.0354  0.2591 -0.9407
 8053SOL     OW25057   3.478   2.948   1.623  0.1104 -0.2937 -0.2532
 8053SOL    HW125058   3.539   2.885   1.576 -1.3003 -2.0537  0.1765
 8053SOL    HW225059   3.383   2.925   1.601 -0.4677  1.1561  0.5925
 8054SOL     OW25060   4.935   5.104   4.276  0.7510  0.0910  0.6341
 8054SOL    HW125061   4.893   5.014   4.262  1.0026 -0.0103  0.5148
 8054SOL    HW225062   5.020   5.093   4.329  0.8896  0.2334  0.4447
 8055SOL     OW25063   2.822   1.243   5.460  0.2922 -0.1018 -0.5924
 8055SOL    HW125064   2.868   1.325   5.427  0.8971 -0.9184 -1.8664
 8055SOL    HW225065   2.864   1.162   5.418 -0.5119 -1.0483  0.3601
 8056SOL     OW25066   4.953   3.208   1.572  0.0242 -0.3853 -0.5356
 8056SOL    HW125067   4.927   3.127   1.519 -0.6791 -0.5097 -0.0316
 8056SOL    HW225068   4.887   3.220   1.647 -0.2344  0.9980 -0.9618
 8057SOL     OW25069   3.733   0.480   4.193 -0.3079  0.5114 -0.8516
 8057SOL    HW125070   3.831   0.465   4.205 -0.6666 -1.2555  0.2197
 8057SOL    HW225071   3.690   0.395   4.163 -2.1110 -0.0653  2.8206
 8058SOL     OW25072   1.958   6.379   1.903 -0.1314 -0.1871  0.0422
 8058SOL    HW125073   2.022   6.308   1.873  0.3279  1.2012 -2.6530
 8058SOL    HW225074   1.939   6.368   2.000  2.3043 -2.1098  0.4101
 8059SOL     OW25075   0.986   1.201   4.478  0.5901 -0.2224 -0.0352
 8059SOL    HW125076   1.086   1.205   4.470  0.5613  0.6826 -0.0601
 8059SOL    HW225077   0.960   1.120   4.531  1.3617 -0.2052  0.3887
 8060SOL     OW25078   6.540   3.004   5.134  0.1778  0.2839 -0.6493
 8060SOL    HW125079   6.544   2.920   5.188 -0.1547  0.3025 -0.5919
 8060SOL    HW225080   6.503   3.078   5.191  1.0947  0.6371 -0.4917
 8061SOL     OW25081   3.930   4.840   2.988 -0.0847 -0.3177 -0.1111
 8061SOL    HW125082   3.949   4.811   3.082  2.0653  0.8596 -0.1332
 8061SOL    HW225083   3.992   4.793   2.925  0.5403  1.1016 -0.5929
 8062SOL     OW25084   2.668   1.144   0.219  0.1231  0.0750  0.1206
 8062SOL    HW125085   2.620   1.220   0.264  0.6059 -0.0526  0.8714
 8062SOL    HW225086   2.758   1.133   0.260 -0.1189 -1.2057  0.3318
 8063SOL     OW25087   3.574   2.019   6.925 -0.5055  0.2293 -0.3350
 8063SOL    HW125088   3.562   1.980   7.017 -1.8715 -1.0118 -1.0051
 8063SOL    HW225089   3.541   1.955   6.857 -1.8243  2.1049 -1.5626
 8064SOL     OW25090   5.778   3.068   6.173  0.5637  0.3629 -0.0501
 8064SOL    HW125091   5.686   3.099   6.199 -0.0038 -1.5001  0.3425
 8064SOL    HW225092   5.781   2.968   6.175  2.3846  0.3615 -0.8856
 8065SOL     OW25093   3.408   6.414   0.023  0.4565 -0.0661  1.0111
 8065SOL    HW125094   3.323   6.383  -0.020  0.9392 -1.5899  1.1013
 8065SOL    HW225095   3.438   6.499  -0.021 -2.3461  1.9217  2.5606
 8066SOL     OW25096   2.444   0.911   2.405 -0.3535  0.0812 -0.1830
 8066SOL    HW125097   2.409   0.844   2.339 -1.5146 -0.4828  0.9580
 8066SOL    HW225098   2.536   0.887   2.433  0.4194  0.6847 -2.0442
 8067SOL     OW25099   4.546   0.695   2.331 -0.0497 -0.0840 -0.8264
 8067SOL    HW125100   4.581   0.779   2.373 -0.1858 -0.3874 -0.1011
 8067SOL    HW225101   4.447   0.693   2.336  0.0115 -0.8546  0.2625
 8068SOL     OW25102   6.760   2.667   4.127  0.1130  0.4327  0.3178
 8068SOL    HW125103   6.697   2.726   4.075  2.0329  1.9124 -0.4577
 8068SOL    HW225104   6.708   2.595   4.172 -1.8280 -0.3612 -2.8337
 8069SOL     OW25105   0.434   6.801   2.142 -0.4148 -0.0636 -0.3106
 8069SOL    HW125106   0.493   6.732   2.100  1.1703  0.0314  1.5663
 8069SOL    HW225107   0.474   6.891   2.130 -0.3679  0.0527  0.6222
 8070SOL     OW25108   3.147   1.181   2.823  0.4483 -0.3695 -0.0553
 8070SOL    HW125109   3.229   1.222   2.863  0.3166 -1.2853  1.1930
 8070SOL    HW225110   3.136   1.214   2.729  1.9095  0.2184 -0.0448
 8071SOL     OW25111   5.749   4.506   0.085 -0.2562 -0.7935 -0.7004
 8071SOL    HW125112   5.770   4.604   0.076  0.7560 -0.7695  1.2463
 8071SOL    HW225113   5.666   4.496   0.140  1.4113 -0.9723  1.9839
 8072SOL     OW25114   4.209   6.783   2.733  0.2040  0.1931  0.5644
 8072SOL    HW125115   4.222   6.879   2.759  0.2371 -0.0382  1.4404
 8072SOL    HW225116   4.119   6.752   2.764 -1.0073  0.7035 -2.1420
 8073SOL     OW25117   5.447   5.740   5.474 -0.6029 -0.0339  0.1025
 8073SOL    HW125118   5.512   5.703   5.408 -2.1279 -0.1996 -1.3694
 8073SOL    HW225119   5.448   5.840   5.470 -0.0911 -0.0201  0.4599
 8074SOL     OW25120   3.087   4.890   0.756  0.1517 -0.1051  0.3032
 8074SOL    HW125121   3.140   4.845   0.828 -0.3047  0.4090  0.9714
 8074SOL    HW225122   3.095   4.989   0.766 -1.5984  0.0032  0.9442
 8075SOL     OW25123   6.409   2.605   4.760 -0.1520  0.3419  0.0239
 8075SOL    HW125124   6.352   2.682   4.788 -0.8980 -0.4050  0.6082
 8075SOL    HW225125   6.493   2.639   4.718  0.2384  1.4743  1.6642
 8076SOL     OW25126   5.393   2.879   0.280 -0.0428  0.7350  0.1065
 8076SOL    HW125127   5.473   2.904   0.334 -0.8346  1.7323  0.8661
 8076SOL    HW225128   5.316   2.859   0.342 -0.0096 -1.7604 -0.5240
 8077SOL     OW25129   5.873   0.323   6.933 -0.5944 -0.4044 -0.8276
 8077SOL    HW125130   5.783   0.279   6.934 -0.8992  0.1728 -1.8019
 8077SOL    HW225131   5.929   0.282   6.860  1.3537 -3.4292  2.0550
 8078SOL     OW25132   6.630   3.946   0.945 -0.2917 -0.0771  0.4025
 8078SOL    HW125133   6.707   4.000   0.911 -0.0721 -0.3033  0.5335
 8078SOL    HW225134   6.550   3.961   0.887 -0.1494  0.1651  0.2701
 8079SOL     OW25135   0.289   2.140   0.755 -0.6883  0.1537  0.2334
 8079SOL    HW125136   0.325   2.056   0.714  0.1029  0.5837  0.0070
 8079SOL    HW225137   0.223   2.118   0.826 -2.0083 -0.6177 -1.1860
 8080SOL     OW25138   4.557   4.418   6.794 -0.2395  0.2300  0.0645
 8080SOL    HW125139   4.613   4.376   6.865 -0.9254  1.2600  1.2319
 8080SOL    HW225140   4.604   4.408   6.706  2.3164  1.9072  1.1118
 8081SOL     OW25141   4.975   2.614   4.354 -0.1499 -0.2299 -0.1754
 8081SOL    HW125142   4.886   2.648   4.386 -0.3021  0.2547 -1.0810
 8081SOL    HW225143   4.977   2.615   4.254  0.0055 -2.4918 -0.2439
 8082SOL     OW25144   1.010   2.871   4.061  0.3245  0.0374  0.0272
 8082SOL    HW125145   0.934   2.826   4.015  1.1406  0.1938 -1.5543
 8082SOL    HW225146   0.977   2.953   4.108 -0.8899 -1.2605  1.5559
 8083SOL     OW25147   0.145   2.569   4.903 -0.0467  0.1585 -0.4483
 8083SOL    HW125148   0.111   2.511   4.829  0.7461 -0.5210 -0.2839
 8083SOL    HW225149   0.229   2.614   4.874 -1.5252  2.6432 -1.2296
 8084SOL     OW25150   4.675   0.793   0.339 -0.5960  0.3640  0.7846
 8084SOL    HW125151   4.628   0.741   0.410 -1.2976  0.8446  0.6722
 8084SOL    HW225152   4.641   0.764   0.249  0.9446 -0.9222  0.5554
 8085SOL     OW25153   6.236   4.017   3.073  0.3609 -0.2201  0.2318
 8085SOL    HW125154   6.159   3.996   3.014 -0.2380  0.0842  0.8854
 8085SOL    HW225155   6.241   4.116   3.087  1.0578 -0.2137 -0.0566
 8086SOL     OW25156   1.930   5.319   4.897  0.2585 -0.7177  0.4714
 8086SOL    HW125157   1.881   5.268   4.826  1.0325 -0.5489 -0.1971
 8086SOL    HW225158   1.983   5.393   4.855 -0.8029  0.6190  1.4251
 8087SOL     OW25159   2.791   2.401   1.078 -0.0673  0.0452  0.0390
 8087SOL    HW125160   2.857   2.367   1.011 -1.1498  0.8851 -1.5254
 8087SOL    HW225161   2.757   2.324   1.133 -0.1305 -0.9124 -1.2860
 8088SOL     OW25162   4.680   1.194   2.727 -0.0152  0.2186 -0.0767
 8088SOL    HW125163   4.612   1.233   2.788 -0.9355 -1.2188 -0.1339
 8088SOL    HW225164   4.655   1.214   2.632  0.4424  0.9265 -0.0528
 8089SOL     OW25165   0.665   2.709   6.875 -0.0643  0.0539  0.0452
 8089SOL    HW125166   0.747   2.725   6.931 -1.9287 -1.7293  3.6270
 8089SOL    HW225167   0.604   2.787   6.882 -0.1727 -0.0501  0.2628
 8090SOL     OW25168   6.150   6.564   4.919  0.4601 -0.5804 -0.0944
 8090SOL    HW125169   6.249   6.579   4.923  0.0521  2.7396  2.6410
 8090SOL    HW225170   6.113   6.610   4.838  0.9493  0.2239  0.1261
 8091SOL     OW25171   0.500   3.194   3.342  0.1025  0.2117  0.4460
 8091SOL    HW125172   0.527   3.104   3.307  1.6395  1.3131 -1.3818
 8091SOL    HW225173   0.401   3.203   3.337  0.0201 -0.9704 -0.4603
 8092SOL     OW25174   5.534   1.687   4.376  0.2005  0.1273 -0.7409
 8092SOL    HW125175   5.521   1.710   4.280  0.4404  1.5329 -0.4604
 8092SOL    HW225176   5.479   1.748   4.433 -2.1240 -2.3997 -0.0184
 8093SOL     OW25177   6.117   4.927   1.179  0.8028 -0.6319  0.4643
 8093SOL    HW125178   6.066   4.851   1.220  0.7747 -0.4600  0.7450
 8093SOL    HW225179   6.140   4.994   1.249  0.2981 -0.0805  0.1144
 8094SOL     OW25180   6.317   3.367   1.119  0.0668 -0.0041 -0.6757
 8094SOL    HW125181   6.361   3.422   1.190  0.0966 -0.6154 -0.2095
 8094SOL    HW225182   6.305   3.273   1.152  0.1985 -0.3328 -1.5263
 8095SOL     OW25183   0.900   2.554   5.596 -0.1622  0.1094  0.0795
 8095SOL    HW125184   0.800   2.547   5.592 -0.0818 -0.5350 -1.6303
 8095SOL    HW225185   0.926   2.647   5.623 -1.2234  0.8272 -1.2643
 8096SOL     OW25186   4.660   0.125   6.749 -0.2065 -0.6531 -0.1523
 8096SOL    HW125187   4.596   0.200   6.768  0.8580 -0.0948  1.4697
 8096SOL    HW225188   4.665   0.109   6.650  2.0292  3.7338 -0.9799
 8097SOL     OW25189   6.059   2.604   5.528  0.1884 -0.2259 -0.2819
 8097SOL    HW125190   6.044   2.506   5.539  0.8159 -0.3699 -0.6501
 8097SOL    HW225191   6.056   2.627   5.431  0.5219  0.0361 -0.2307
 8098SOL     OW25192   2.578   2.377   4.165  0.0680 -0.0734 -0.0656
 8098SOL    HW125193   2.558   2.281   4.180  0.7563 -0.0889  0.8702
 8098SOL    HW225194   2.552   2.430   4.246  1.2322  0.2706  0.1057
 8099SOL     OW25195   5.096   1.657   3.778  0.4339  0.0613 -0.5353
 8099SOL    HW125196   5.047   1.605   3.847 -1.1050  1.6687 -0.3400
 8099SOL    HW225197   5.194   1.651   3.795  0.2536 -2.0114 -0.0323
 8100SOL     OW25198   6.864   5.443   3.318  0.0542 -0.2036 -0.0505
 8100SOL    HW125199   6.876   5.344   3.320  0.1082 -0.1947  0.0515
 8100SOL    HW225200   6.937   5.484   3.262  0.5210 -0.1478  0.5856
 8101SOL     OW25201   6.346   1.813   1.279 -0.7080 -0.2595 -0.0170
 8101SOL    HW125202   6.393   1.902   1.278 -0.1213 -0.5682  0.2020
 8101SOL    HW225203   6.353   1.772   1.188 -0.7217 -0.2171 -0.0375
 8102SOL     OW25204   1.064   5.679   4.821  0.1496 -0.4947  0.3696
 8102SOL    HW125205   1.112   5.619   4.885  1.5090  0.1666  0.0183
 8102SOL    HW225206   0.977   5.707   4.860  0.4429 -1.0083  1.4365
 8103SOL     OW25207   3.736   0.583   3.135 -0.5063  0.4346  0.2190
 8103SOL    HW125208   3.684   0.512   3.182  0.0128  0.6071  1.0647
 8103SOL    HW225209   3.782   0.641   3.202  0.0388  0.8469 -0.4970
 8104SOL     OW25210   1.967   6.346   0.146 -0.5108  0.1258  0.5574
 8104SOL    HW125211   2.004   6.346   0.053 -2.3538 -2.0010 -0.2640
 8104SOL    HW225212   1.872   6.378   0.144 -0.8962 -0.9092  1.5429
 8105SOL     OW25213   1.215   1.659   3.766 -0.0253  0.1894 -0.3180
 8105SOL    HW125214   1.258   1.623   3.683 -0.6048 -0.1908 -0.4582
 8105SOL    HW225215   1.163   1.586   3.811 -0.3652  0.5950 -0.0513
 8106SOL     OW25216   6.996   2.236   6.568 -0.6106 -0.3199  0.4039
 8106SOL    HW125217   7.058   2.274   6.637 -2.3239  0.6010  1.5025
 8106SOL    HW225218   6.954   2.311   6.517 -1.0355 -0.9238 -0.1462
 8107SOL     OW25219   0.215   5.377   1.455  0.1843  0.2685  0.3919
 8107SOL    HW125220   0.174   5.305   1.399  1.0623  0.7444 -0.9164
 8107SOL    HW225221   0.288   5.421   1.404 -0.5760  2.3618  1.0126
 8108SOL     OW25222   1.470   1.694   6.637  0.6773 -0.2869 -0.0144
 8108SOL    HW125223   1.464   1.768   6.704 -1.2329  0.9531 -1.4585
 8108SOL    HW225224   1.560   1.695   6.594  1.3274 -0.0249  1.2944
 8109SOL     OW25225   1.019   4.859   3.773 -0.2009 -0.1593  0.1791
 8109SOL    HW125226   1.095   4.848   3.837 -0.2105  1.5104  0.5073
 8109SOL    HW225227   1.051   4.907   3.691 -0.7253 -0.1692 -0.0354
 8110SOL     OW25228   1.579   6.970   6.830 -0.2675 -0.2649 -0.0337
 8110SOL    HW125229   1.633   6.895   6.868  1.2819  0.5682 -0.5040
 8110SOL    HW225230   1.559   7.035   6.903  0.2172 -0.0967 -0.0454
 8111SOL     OW25231   3.928   6.005   3.940  0.5105 -0.0523  0.3927
 8111SOL    HW125232   3.884   5.918   3.921  0.0271  0.5551 -1.4986
 8111SOL    HW225233   3.858   6.076   3.951  0.9056  0.1585  1.7105
 8112SOL     OW25234   4.798   2.684   4.719  0.1470  0.6131 -0.0296
 8112SOL    HW125235   4.775   2.722   4.630 -0.7496 -0.4188 -0.2585
 8112SOL    HW225236   4.717   2.644   4.761  1.0238 -1.1403  0.1243
 8113SOL     OW25237   3.704   2.469   5.893 -0.2367 -0.8711 -0.0749
 8113SOL    HW125238   3.720   2.536   5.965 -0.1107 -2.0625  1.0576
 8113SOL    HW225239   3.668   2.385   5.934 -1.6751 -1.0533 -1.6065
 8114SOL     OW25240   3.501   4.122   0.425  0.1775 -0.4896  0.2189
 8114SOL    HW125241   3.449   4.083   0.501  0.2170 -1.1126 -0.0695
 8114SOL    HW225242   3.464   4.212   0.402  0.6814  0.0743  1.5100
 8115SOL     OW25243   2.236   1.188   2.225 -0.2014 -0.6586  0.5863
 8115SOL    HW125244   2.311   1.191   2.159 -0.2632  2.0665  0.5273
 8115SOL    HW225245   2.273   1.172   2.317  0.5295  0.8921  0.5902
 8116SOL     OW25246   4.713   3.011   5.385  0.1241 -0.0548 -0.0064
 8116SOL    HW125247   4.724   3.068   5.304 -1.7862  1.5587  0.7848
 8116SOL    HW225248   4.765   3.051   5.461  2.3175 -1.8307 -0.4761
 8117SOL     OW25249   4.761   2.787   6.094 -0.0932 -0.0545  0.0855
 8117SOL    HW125250   4.804   2.857   6.149  0.6575 -0.2378 -0.2575
 8117SOL    HW225251   4.721   2.828   6.012  0.4854 -0.0455 -0.1945
 8118SOL     OW25252   6.495   2.316   2.747 -0.5615 -0.1093  0.3173
 8118SOL    HW125253   6.588   2.283   2.763 -0.6618 -0.2831  0.5514
 8118SOL    HW225254   6.492   2.368   2.661 -0.6120 -1.5752 -0.6076
 8119SOL     OW25255   1.067   0.614   2.897 -0.2650 -0.4096  0.0057
 8119SOL    HW125256   1.039   0.519   2.889 -2.5067  0.1085  0.9716
 8119SOL    HW225257   1.167   0.620   2.896 -0.0211 -2.9415  1.6709
 8120SOL     OW25258   5.646   3.467   3.115  0.1646 -0.0093 -0.0250
 8120SOL    HW125259   5.724   3.518   3.079  1.1962 -1.6140 -0.1455
 8120SOL    HW225260   5.621   3.394   3.050 -1.2492  0.2778  0.1564
 8121SOL     OW25261   0.341   4.632   2.690  0.1753  0.6421 -0.7667
 8121SOL    HW125262   0.263   4.643   2.628 -2.6286  2.2737  2.6777
 8121SOL    HW225263   0.328   4.550   2.745  0.4920  1.2774  0.2884
 8122SOL     OW25264   6.007   5.419   0.508 -0.2728  0.1474  0.1420
 8122SOL    HW125265   5.918   5.387   0.474 -0.2415  1.4162 -1.2266
 8122SOL    HW225266   6.026   5.510   0.471  3.0721 -1.3593 -2.4629
 8123SOL     OW25267   0.845   5.781   0.260  0.7241 -0.1207 -0.1475
 8123SOL    HW125268   0.807   5.742   0.344  0.4556 -1.6229 -0.9203
 8123SOL    HW225269   0.778   5.842   0.218 -0.3982 -1.7610 -0.8379
 8124SOL     OW25270   1.063   6.409   2.971 -0.1852 -0.0741  0.4916
 8124SOL    HW125271   0.977   6.368   3.002  0.0785 -2.0547 -1.1608
 8124SOL    HW225272   1.044   6.474   2.897 -0.1946 -2.6001 -1.8967
 8125SOL     OW25273   4.201   5.538   3.760 -0.6178  0.0104 -0.8291
 8125SOL    HW125274   4.187   5.460   3.699 -0.9110  0.3110 -1.1514
 8125SOL    HW225275   4.239   5.614   3.708  1.5979 -0.5358 -0.1311
 8126SOL     OW25276   6.583   5.907   2.683  0.2632  0.6282 -0.3398
 8126SOL    HW125277   6.617   5.915   2.589 -1.7757  0.6461 -1.1431
 8126SOL    HW225278   6.486   5.933   2.685 -0.3957 -1.6541  1.3167
 8127SOL     OW25279   3.694   5.916   0.389 -0.1927 -0.2559 -0.4615
 8127SOL    HW125280   3.793   5.918   0.372  0.0707 -0.9115  0.8300
 8127SOL    HW225281   3.660   6.009   0.401  0.6962 -0.0945  1.2008
 8128SOL     OW25282   2.532   2.886   5.949 -0.2628  0.5509  0.2604
 8128SOL    HW125283   2.537   2.928   6.039  2.4766 -0.0614  0.4693
 8128SOL    HW225284   2.586   2.939   5.884  0.1448 -0.5540 -0.3399
 8129SOL     OW25285   3.912   5.311   4.732 -0.5386 -0.1372 -0.0692
 8129SOL    HW125286   3.970   5.254   4.674 -0.9878 -0.0143 -0.6528
 8129SOL    HW225287   3.924   5.284   4.828  1.0165  0.3762 -0.0976
 8130SOL     OW25288   6.455   1.837   6.350  0.7968  0.3245  0.3528
 8130SOL    HW125289   6.392   1.910   6.377 -0.9094 -0.1420 -2.0445
 8130SOL    HW225290   6.402   1.754   6.330  2.6212 -1.4397  2.3646
 8131SOL     OW25291   3.131   2.982   1.050  0.2083  0.2119  0.4332
 8131SOL    HW125292   3.144   2.925   1.131  1.0190 -0.1213  0.0798
 8131SOL    HW225293   3.162   2.932   0.969 -2.2129 -0.1836 -0.3422
 8132SOL     OW25294   5.687   4.355   1.265  0.2658  0.4141  0.1954
 8132SOL    HW125295   5.656   4.266   1.231  1.3521 -0.0947  0.5116
 8132SOL    HW225296   5.608   4.409   1.294 -0.4373 -0.2840 -0.3786
 8133SOL     OW25297   5.450   5.344   1.664  0.3409  0.4163  0.6972
 8133SOL    HW125298   5.408   5.291   1.738  1.1104 -1.7646 -0.3223
 8133SOL    HW225299   5.535   5.300   1.636 -0.4140  0.5467 -2.1483
 8134SOL     OW25300   3.808   3.695   2.374  0.0248 -0.2083 -0.2126
 8134SOL    HW125301   3.796   3.605   2.333 -0.0584 -0.1149 -0.3922
 8134SOL    HW225302   3.791   3.765   2.306 -0.2474 -0.0499  0.0170
 8135SOL     OW25303   4.656   5.801   2.321  0.1861  0.4076 -0.7683
 8135SOL    HW125304   4.614   5.868   2.259 -0.3689  2.3366  1.5744
 8135SOL    HW225305   4.728   5.845   2.374 -0.5812 -0.6591  1.2776
 8136SOL     OW25306   3.090   6.110   2.565  0.0581  0.3329  0.0678
 8136SOL    HW125307   3.123   6.155   2.648  0.1225 -0.5549  0.5481
 8136SOL    HW225308   3.068   6.178   2.496  1.3952  1.0217  0.2916
 8137SOL     OW25309   2.137   3.539   6.072  0.3814  0.4573  0.3354
 8137SOL    HW125310   2.171   3.445   6.064 -0.6365  0.1017 -0.0650
 8137SOL    HW225311   2.213   3.603   6.062  1.0445 -0.3150  0.2875
 8138SOL     OW25312   4.131   1.606   2.645  0.2247  0.1113 -0.0584
 8138SOL    HW125313   4.149   1.587   2.741 -0.7934  1.8092  0.5009
 8138SOL    HW225314   4.044   1.565   2.618  0.7974 -0.8934 -0.4635
 8139SOL     OW25315   1.430   2.621   4.728  0.0536  0.2425 -0.2960
 8139SOL    HW125316   1.497   2.634   4.655  0.0639 -0.2853 -0.3855
 8139SOL    HW225317   1.478   2.613   4.816  0.0278  1.0962 -0.1979
 8140SOL     OW25318   5.156   1.000   2.609  0.6860  0.4211 -0.2094
 8140SOL    HW125319   5.235   0.992   2.669  0.7431  2.8139  0.1399
 8140SOL    HW225320   5.090   1.064   2.650 -1.5347 -1.5872 -0.4164
 8141SOL     OW25321   4.725   1.631   0.262  0.0217 -0.3830 -0.3146
 8141SOL    HW125322   4.662   1.566   0.304  0.0913  0.2708  0.8415
 8141SOL    HW225323   4.816   1.590   0.256  0.0140 -0.4787  0.1876
 8142SOL     OW25324   2.441   6.051   2.318  0.0772  0.5115 -0.0185
 8142SOL    HW125325   2.540   6.063   2.325  0.3260 -1.9198  5.0683
 8142SOL    HW225326   2.397   6.140   2.308  2.6772  2.1269  1.8248
 8143SOL     OW25327   5.193   5.276   6.199  0.1041 -0.0519  0.3110
 8143SOL    HW125328   5.167   5.196   6.145 -1.0996  0.9926 -0.7280
 8143SOL    HW225329   5.240   5.247   6.282  1.4468 -1.7506 -0.9671
 8144SOL     OW25330   1.328   0.203   0.553 -0.0708  0.6352 -0.0315
 8144SOL    HW125331   1.401   0.259   0.593  0.4532 -2.0370  3.1920
 8144SOL    HW225332   1.246   0.259   0.543  0.8225  2.3634  1.6051
 8145SOL     OW25333   6.351   4.270   5.577 -0.5870  0.2306 -0.2191
 8145SOL    HW125334   6.360   4.292   5.674 -0.4808 -2.0139  0.3230
 8145SOL    HW225335   6.307   4.181   5.566 -0.2803  0.2696 -2.2434
 8146SOL     OW25336   0.478   6.364   4.494  0.6927 -0.0079 -0.2757
 8146SOL    HW125337   0.551   6.329   4.552  1.3344 -1.2532 -1.7751
 8146SOL    HW225338   0.505   6.357   4.398 -0.5303  1.5461 -0.7774
 8147SOL     OW25339   1.373   1.150   3.804 -0.3752  1.1396 -0.1566
 8147SOL    HW125340   1.322   1.078   3.851 -0.2868  1.3114  0.2030
 8147SOL    HW225341   1.321   1.235   3.806 -0.2832  1.1975 -0.2038
 8148SOL     OW25342   5.133   5.970   5.716  0.4473 -0.1760  0.2343
 8148SOL    HW125343   5.122   5.902   5.789 -2.2107 -1.0013 -0.8070
 8148SOL    HW225344   5.146   5.924   5.629 -0.1817  0.6542 -0.3212
 8149SOL     OW25345   2.062   0.386   5.612 -0.3275  0.1645 -0.2537
 8149SOL    HW125346   2.116   0.324   5.555  0.7393  0.7097  0.1329
 8149SOL    HW225347   1.970   0.394   5.574 -0.4015 -1.4123 -0.4755
 8150SOL     OW25348   6.888   4.260   0.320 -0.4111  0.5046  0.2278
 8150SOL    HW125349   6.832   4.221   0.246 -0.2975 -0.6722  0.7405
 8150SOL    HW225350   6.828   4.287   0.396 -0.2955 -1.2724  1.0092
 8151SOL     OW25351   6.034   4.288   3.411 -0.5496  0.6615  0.4224
 8151SOL    HW125352   5.938   4.276   3.384 -0.7050 -1.1291  1.6004
 8151SOL    HW225353   6.062   4.382   3.393 -2.1173  0.8747 -1.1702
 8152SOL     OW25354   5.006   1.880   4.970 -0.1617 -0.0006  0.1972
 8152SOL    HW125355   4.908   1.869   4.954 -0.3006  2.1235 -0.7369
 8152SOL    HW225356   5.023   1.894   5.068 -0.9219  0.5623  0.2584
 8153SOL     OW25357   6.113   1.712   0.271 -0.4100  0.1100  0.1431
 8153SOL    HW125358   6.087   1.644   0.340 -0.9639 -0.5065 -0.6439
 8153SOL    HW225359   6.099   1.673   0.180 -0.4728  1.1931 -0.3223
 8154SOL     OW25360   6.088   1.539   2.562  0.3004 -1.6171 -0.6663
 8154SOL    HW125361   6.073   1.556   2.465  1.3446  1.1449 -0.4464
 8154SOL    HW225362   6.040   1.457   2.590 -4.7841  0.4172 -2.3310
 8155SOL     OW25363   2.047   4.234   4.552 -0.3294  0.5111  0.4030
 8155SOL    HW125364   2.009   4.158   4.499  1.6734  0.0582 -0.4638
 8155SOL    HW225365   2.080   4.200   4.640 -1.5577  0.8458  1.0178
 8156SOL     OW25366   0.571   4.695   1.121  0.0248  0.1035  0.2439
 8156SOL    HW125367   0.540   4.633   1.193  2.1563 -0.6814  0.5724
 8156SOL    HW225368   0.523   4.674   1.036 -0.3352 -1.0169  0.7079
 8157SOL     OW25369   1.747   4.949   3.323 -0.1509  0.0305  0.3335
 8157SOL    HW125370   1.817   4.967   3.392  0.0296  0.3043  0.0807
 8157SOL    HW225371   1.774   4.870   3.268 -0.6147 -0.6052  1.0012
 8158SOL     OW25372   6.190   4.282   5.307 -0.8034  0.8330 -0.0165
 8158SOL    HW125373   6.221   4.354   5.244 -2.3730  2.6166  1.1238
 8158SOL    HW225374   6.092   4.294   5.324 -1.0292 -1.4197  0.4963
 8159SOL     OW25375   1.010   5.962   5.855  0.2809  0.3391  0.1400
 8159SOL    HW125376   1.109   5.974   5.847  0.4435 -0.8698  0.1069
 8159SOL    HW225377   0.979   5.896   5.786 -0.4489  0.2813  0.5165
 8160SOL     OW25378   5.392   4.313   2.403 -0.6008 -0.1707  0.1477
 8160SOL    HW125379   5.394   4.241   2.334  0.8631  0.7042 -0.7671
 8160SOL    HW225380   5.415   4.273   2.492  0.8940 -0.7582 -0.4645
 8161SOL     OW25381   0.137   3.508   0.882 -0.3731  0.0833 -0.8281
 8161SOL    HW125382   0.124   3.409   0.883  2.9624 -0.4753 -1.0109
 8161SOL    HW225383   0.082   3.550   0.955  2.1589 -2.6177  2.9992
 8162SOL     OW25384   6.372   6.578   4.096 -0.4041 -0.0857 -0.3268
 8162SOL    HW125385   6.444   6.608   4.033  0.6798 -1.0537  0.4010
 8162SOL    HW225386   6.408   6.577   4.189 -1.9959  1.4068  0.3679
 8163SOL     OW25387   3.675   4.855   5.725 -0.5147 -0.2020  0.5370
 8163SOL    HW125388   3.730   4.938   5.716 -3.1742  1.4990 -1.7879
 8163SOL    HW225389   3.611   4.849   5.648 -2.9334 -2.5417  2.5258
 8164SOL     OW25390   5.004   2.942   0.090  0.2593 -0.6994 -0.4774
 8164SOL    HW125391   4.965   3.033   0.104  1.7683 -0.1615  0.4951
 8164SOL    HW225392   4.939   2.873   0.119 -0.2440  0.1317  0.4287
 8165SOL     OW25393   1.145   2.454   4.165  0.9266  0.1842  0.4403
 8165SOL    HW125394   1.063   2.510   4.177  0.7590 -0.2884  1.7136
 8165SOL    HW225395   1.120   2.368   4.121  1.1742  1.0301 -1.4608
 8166SOL     OW25396   2.622   1.336   3.353  0.2585 -0.6078  0.4416
 8166SOL    HW125397   2.548   1.403   3.362 -0.3220 -1.3494  1.4472
 8166SOL    HW225398   2.700   1.378   3.307 -1.8331 -0.6237 -3.6434
 8167SOL     OW25399   2.745   2.357   3.768  0.3198 -0.3312  0.3813
 8167SOL    HW125400   2.761   2.322   3.676 -2.6677 -2.1831  0.4491
 8167SOL    HW225401   2.667   2.420   3.767  0.2877 -0.3252  1.6236
 8168SOL     OW25402   1.932   3.999   3.324  0.5441 -0.4064  0.1562
 8168SOL    HW125403   2.023   4.000   3.366  0.0352  0.1463  1.3140
 8168SOL    HW225404   1.928   3.927   3.254  2.2674  0.4452 -0.8848
 8169SOL     OW25405   2.436   5.521   6.565 -0.3910 -0.0330  0.1547
 8169SOL    HW125406   2.471   5.512   6.472  1.1141 -1.3968  0.8005
 8169SOL    HW225407   2.471   5.446   6.621 -0.3075  1.4047  2.1188
 8170SOL     OW25408   5.648   2.616   4.504 -0.4308 -0.1244 -0.8712
 8170SOL    HW125409   5.693   2.528   4.496  0.8939  0.4520 -0.0281
 8170SOL    HW225410   5.619   2.630   4.599  0.3881  0.8200 -0.7509
 8171SOL     OW25411   3.325   1.389   0.258  0.0854  0.4792  0.5236
 8171SOL    HW125412   3.296   1.326   0.186  1.4999 -0.5951  0.8338
 8171SOL    HW225413   3.245   1.434   0.298 -0.6614  1.9511 -2.4095
 8172SOL     OW25414   0.210   0.327   5.316  0.2142  0.1141  0.0447
 8172SOL    HW125415   0.206   0.417   5.359  0.6879 -1.2089  3.0497
 8172SOL    HW225416   0.131   0.273   5.343  0.5757 -0.8317 -0.7232
 8173SOL     OW25417   6.141   5.918   3.395 -0.0607 -0.1692 -0.0989
 8173SOL    HW125418   6.187   5.830   3.410 -1.2159 -0.9822 -1.1336
 8173SOL    HW225419   6.207   5.983   3.354  1.2755  0.0487  2.2255
 8174SOL     OW25420   3.735   0.480   3.744  0.4568  0.4399  0.0337
 8174SOL    HW125421   3.746   0.443   3.652  1.6558 -0.6369  0.5762
 8174SOL    HW225422   3.653   0.440   3.786 -0.0614  0.8908 -0.5305
 8175SOL     OW25423   0.579   1.693   5.192 -0.1444  0.0189 -0.1993
 8175SOL    HW125424   0.554   1.774   5.245  0.5635  1.5221 -2.0662
 8175SOL    HW225425   0.621   1.626   5.253 -1.6367  0.6013  1.5655
 8176SOL     OW25426   1.934   0.052   6.815  0.4939  0.6321 -0.0065
 8176SOL    HW125427   2.003   0.122   6.795  1.2824 -0.2434 -0.4284
 8176SOL    HW225428   1.959   0.004   6.899  0.0717  0.7040  0.1637
 8177SOL     OW25429   2.845   1.776   1.804  0.1164 -0.1957  0.4464
 8177SOL    HW125430   2.886   1.770   1.895 -1.5172 -1.2319  1.1597
 8177SOL    HW225431   2.890   1.848   1.752  0.3433  1.2211  2.4738
 8178SOL     OW25432   2.120   6.138   1.880 -0.0941  0.2431 -0.6145
 8178SOL    HW125433   2.160   6.140   1.971  0.6303  0.0968 -0.9265
 8178SOL    HW225434   2.037   6.082   1.882  1.2774 -1.9013 -0.5736
 8179SOL     OW25435   0.237   0.737   3.629 -0.0331 -0.0200 -0.0862
 8179SOL    HW125436   0.173   0.810   3.603 -1.4824 -1.3243 -0.3328
 8179SOL    HW225437   0.260   0.683   3.548  1.6725  0.6199 -0.0596
 8180SOL     OW25438   3.767   5.403   6.196  0.0071  0.7152 -0.3371
 8180SOL    HW125439   3.672   5.398   6.166 -1.2469  0.6696  3.1742
 8180SOL    HW225440   3.772   5.452   6.283  3.0737 -0.2110  0.1305
 8181SOL     OW25441   5.380   5.967   6.764  0.4211 -0.1363  0.6328
 8181SOL    HW125442   5.388   5.980   6.863 -1.9304 -1.6479  1.0981
 8181SOL    HW225443   5.283   5.970   6.738  0.9951  0.2768 -1.6531
 8182SOL     OW25444   3.171   3.549   3.567 -0.5693 -0.4998  0.0666
 8182SOL    HW125445   3.228   3.486   3.621  0.4046 -0.9408 -1.4042
 8182SOL    HW225446   3.191   3.643   3.593  0.7349 -0.6553 -0.2656
 8183SOL     OW25447   1.621   6.828   4.041  0.4749 -0.4653  0.1708
 8183SOL    HW125448   1.700   6.776   4.075 -0.1440 -0.7592  1.2175
 8183SOL    HW225449   1.653   6.906   3.987  1.5170 -0.2642  1.0360
 8184SOL     OW25450   0.622   5.447   5.321 -0.0870  0.2050  0.0879
 8184SOL    HW125451   0.557   5.372   5.306 -0.7437  0.4553  1.5485
 8184SOL    HW225452   0.715   5.415   5.300 -0.2547 -1.2649  1.4277
 8185SOL     OW25453   6.850   5.647   5.365 -0.5156  0.7226  0.1112
 8185SOL    HW125454   6.909   5.570   5.343 -1.5461  0.2380 -1.0092
 8185SOL    HW225455   6.873   5.725   5.307 -1.5739  0.2370 -0.9861
 8186SOL     OW25456   0.239   6.352   0.656  0.0455  0.5957 -0.4476
 8186SOL    HW125457   0.300   6.343   0.577  0.3631  1.1381 -0.2738
 8186SOL    HW225458   0.156   6.401   0.628  0.8336  2.2022 -0.1281
 8187SOL     OW25459   1.677   5.532   5.723  0.5325 -0.5466  0.4635
 8187SOL    HW125460   1.634   5.614   5.685  0.6931 -0.1762  1.0548
 8187SOL    HW225461   1.608   5.460   5.732  0.6858 -0.9512 -1.3385
 8188SOL     OW25462   2.127   1.727   3.336 -0.5128  0.0963 -0.7389
 8188SOL    HW125463   2.137   1.819   3.298 -1.1956 -0.1333 -1.5024
 8188SOL    HW225464   2.087   1.666   3.267  1.7589 -1.2838 -0.9375
 8189SOL     OW25465   0.581   4.910   4.117 -0.1261  0.1380  0.2501
 8189SOL    HW125466   0.529   4.958   4.046 -0.7391  1.3186  1.4562
 8189SOL    HW225467   0.587   4.968   4.198  1.0767 -0.9450  0.9617
 8190SOL     OW25468   5.461   3.121   2.525 -0.6535 -0.3955  0.5269
 8190SOL    HW125469   5.441   3.038   2.473 -0.5918 -0.2062  0.1985
 8190SOL    HW225470   5.560   3.137   2.525 -0.7281  0.1033 -0.0756
 8191SOL     OW25471   4.667   4.477   1.297  0.4479  0.3539  0.3113
 8191SOL    HW125472   4.688   4.571   1.324  0.4478  1.1176 -2.1304
 8191SOL    HW225473   4.675   4.468   1.198 -1.3516 -1.7806  0.2768
 8192SOL     OW25474   1.020   5.435   2.847 -0.0698  0.5757  0.2286
 8192SOL    HW125475   1.040   5.340   2.872 -1.7033  0.1935  0.1827
 8192SOL    HW225476   1.106   5.486   2.838  0.7659 -0.0856  3.3594
 8193SOL     OW25477   1.460   3.737   2.320  0.8474 -0.1578 -0.2525
 8193SOL    HW125478   1.384   3.711   2.260 -0.2724  0.8994  0.6584
 8193SOL    HW225479   1.479   3.834   2.311  0.8196 -0.0252  0.9009
 8194SOL     OW25480   6.124   6.753   1.400  0.1558 -0.7381  0.5148
 8194SOL    HW125481   6.062   6.828   1.379 -2.1037 -2.3648  0.9988
 8194SOL    HW225482   6.138   6.747   1.498  1.1394 -0.3741  0.4087
 8195SOL     OW25483   6.212   5.413   2.437  0.4736  0.0724 -0.5957
 8195SOL    HW125484   6.271   5.366   2.371 -0.2699  1.8961 -2.6909
 8195SOL    HW225485   6.116   5.392   2.417  0.2685 -0.4460  0.8322
 8196SOL     OW25486   1.726   6.191   2.640 -0.6986  0.5348  0.1538
 8196SOL    HW125487   1.691   6.268   2.693 -2.0913  1.6604 -2.2114
 8196SOL    HW225488   1.650   6.133   2.612 -0.1522  0.4742 -1.3007
 8197SOL     OW25489   3.716   1.609   2.642  0.3442 -0.7345  0.5017
 8197SOL    HW125490   3.792   1.545   2.634  1.1517  0.1392  1.0691
 8197SOL    HW225491   3.661   1.605   2.558  2.4420  0.4191 -1.0331
 8198SOL     OW25492   2.103   5.316   6.495 -0.0113  0.0652  0.2060
 8198SOL    HW125493   2.019   5.367   6.515  1.3320  2.1263  0.9085
 8198SOL    HW225494   2.171   5.335   6.566  0.9756 -1.8080 -0.1735
 8199SOL     OW25495   6.617   3.852   0.016  0.2479  0.3738  0.6040
 8199SOL    HW125496   6.599   3.770   0.069 -3.1461  0.2749 -0.4552
 8199SOL    HW225497   6.531   3.888  -0.021  2.1633  1.1805 -3.7378
 8200SOL     OW25498   5.702   6.412   6.863  0.1130 -0.3527  1.0006
 8200SOL    HW125499   5.705   6.450   6.771 -0.1822  0.1919  1.2161
 8200SOL    HW225500   5.705   6.312   6.857 -0.5396 -0.3451  0.3673
 8201SOL     OW25501   5.979   2.227   5.243 -0.1649  0.1735  0.2378
 8201SOL    HW125502   5.999   2.130   5.232 -0.6130  0.0513  0.4839
 8201SOL    HW225503   6.052   2.281   5.202  1.5451 -0.2266  2.5802
 8202SOL     OW25504   2.617   5.222   0.708  0.3324  0.2394  0.4946
 8202SOL    HW125505   2.614   5.134   0.659 -0.5500 -0.0733  1.0757
 8202SOL    HW225506   2.585   5.208   0.802 -2.6529  1.6574 -0.1746
 8203SOL     OW25507   0.306   3.211   1.062  0.5802  0.2802  0.3443
 8203SOL    HW125508   0.402   3.237   1.056  0.2737  1.1858 -1.4260
 8203SOL    HW225509   0.285   3.144   0.990 -0.3282  0.8896  0.0186
 8204SOL     OW25510   5.802   3.459   2.454 -0.4311 -0.0076  0.0262
 8204SOL    HW125511   5.822   3.554   2.480  3.6033 -0.9730  1.2449
 8204SOL    HW225512   5.767   3.410   2.533 -0.6389 -0.0030 -0.0619
 8205SOL     OW25513   0.798   3.018   0.958  0.7098 -0.2682 -0.2210
 8205SOL    HW125514   0.717   3.051   0.910  1.7402 -0.5899 -2.3182
 8205SOL    HW225515   0.819   3.079   1.034 -3.0101 -1.6427  2.1994
 8206SOL     OW25516   3.197   0.529   2.201 -0.0558 -0.3654 -0.0930
 8206SOL    HW125517   3.113   0.581   2.187  1.0226  1.4073 -0.2987
 8206SOL    HW225518   3.258   0.541   2.122  1.0546 -0.3010  0.7506
 8207SOL     OW25519   3.838   3.997   5.760  0.4476 -0.3024 -0.4765
 8207SOL    HW125520   3.804   3.958   5.846 -0.3584 -0.1395 -0.7110
 8207SOL    HW225521   3.863   3.924   5.697 -3.4161 -0.6407 -1.8770
 8208SOL     OW25522   0.458   0.629   5.611  0.3118  0.7576  0.2502
 8208SOL    HW125523   0.527   0.674   5.554  1.9314 -0.5380  1.1078
 8208SOL    HW225524   0.477   0.649   5.708  1.4721 -2.1422  0.7185
 8209SOL     OW25525   0.456   1.373   1.747  0.3350 -0.4787 -0.3395
 8209SOL    HW125526   0.437   1.275   1.756  0.8019 -0.6964 -1.4608
 8209SOL    HW225527   0.534   1.397   1.803  0.7145 -0.9298 -0.6612
 8210SOL     OW25528   3.100   1.008   0.716  0.3559 -0.0458 -0.0587
 8210SOL    HW125529   3.141   0.919   0.696  1.0324 -0.0067  1.0665
 8210SOL    HW225530   3.171   1.071   0.746 -0.4152  0.2159  1.2946
 8211SOL     OW25531   3.583   4.767   0.860  0.4486 -0.2552  0.7176
 8211SOL    HW125532   3.557   4.684   0.909 -2.6951 -0.0335 -0.3679
 8211SOL    HW225533   3.588   4.844   0.924  0.4663 -0.7221  1.2857
 8212SOL     OW25534   1.250   2.017   1.753 -0.2989  0.6735 -0.4779
 8212SOL    HW125535   1.177   1.988   1.815 -0.2417 -3.5831 -2.1176
 8212SOL    HW225536   1.211   2.067   1.676 -1.1537  0.4238 -0.2120
 8213SOL     OW25537   4.959   4.328   0.175 -0.0898  0.0409 -0.1937
 8213SOL    HW125538   4.880   4.368   0.222 -0.1615 -1.5864  1.1481
 8213SOL    HW225539   5.027   4.399   0.157 -0.2694  0.8355  1.9685
 8214SOL     OW25540   5.311   2.595   3.324  0.2121 -0.0775 -0.2790
 8214SOL    HW125541   5.217   2.604   3.292  0.0913  0.2378  0.1569
 8214SOL    HW225542   5.335   2.498   3.331 -0.8593 -0.2322  1.8176
 8215SOL     OW25543   1.892   4.797   3.139  0.1429  0.5410 -0.0170
 8215SOL    HW125544   1.968   4.840   3.092  1.0231 -0.4987  0.4177
 8215SOL    HW225545   1.926   4.729   3.204 -1.1912 -1.1125 -0.9532
 8216SOL     OW25546   5.780   4.128   3.227 -0.0597 -0.1311  0.2618
 8216SOL    HW125547   5.802   4.220   3.262 -2.3302  0.2577  0.8442
 8216SOL    HW225548   5.837   4.061   3.275  1.4502  0.9114  0.0301
 8217SOL     OW25549   0.754   5.517   6.291  0.5147 -0.3378 -0.2918
 8217SOL    HW125550   0.838   5.466   6.310  1.2426  0.7543 -0.5003
 8217SOL    HW225551   0.714   5.550   6.377 -0.0081 -1.2946 -0.1478
 8218SOL     OW25552   4.620   3.843   0.673  0.5853 -0.4462  0.4077
 8218SOL    HW125553   4.601   3.941   0.684  5.0223  0.5653  1.0629
 8218SOL    HW225554   4.632   3.802   0.763 -1.3460 -1.7171  0.1355
 8219SOL     OW25555   5.724   4.037   5.951  0.1249 -0.1665 -0.4372
 8219SOL    HW125556   5.779   4.121   5.947  1.9003 -1.2681 -0.1755
 8219SOL    HW225557   5.772   3.963   5.903 -1.7120 -0.9060 -1.2366
 8220SOL     OW25558   5.520   3.733   2.403  0.1840  0.4078 -0.4471
 8220SOL    HW125559   5.596   3.788   2.439  0.5885 -1.4488  1.7637
 8220SOL    HW225560   5.557   3.661   2.344  0.1269 -0.1630  0.1978
 8221SOL     OW25561   6.637   5.190   2.323  0.4149  0.2185  0.0151
 8221SOL    HW125562   6.681   5.104   2.348  1.1214 -0.1918 -2.3795
 8221SOL    HW225563   6.658   5.260   2.391  0.5967 -1.2559  1.5176
 8222SOL     OW25564   3.835   2.112   3.220 -0.0327  0.1135 -0.8024
 8222SOL    HW125565   3.830   2.118   3.120  1.1795 -1.9401 -1.0436
 8222SOL    HW225566   3.898   2.181   3.255 -1.0076  1.3240 -1.3494
 8223SOL     OW25567   1.055   4.386   6.424 -0.1475 -0.3053  0.1439
 8223SOL    HW125568   1.007   4.453   6.480  0.3128  0.5978 -0.5263
 8223SOL    HW225569   1.077   4.426   6.335  0.0705 -1.3684 -0.2968
 8224SOL     OW25570   2.180   4.333   3.711  0.0096 -0.4019 -0.1023
 8224SOL    HW125571   2.190   4.275   3.631 -0.2480  0.4754 -0.7861
 8224SOL    HW225572   2.218   4.424   3.692 -1.3768  0.2760  0.2418
 8225SOL     OW25573   4.272   0.700   2.249  0.4315 -0.4048 -0.0616
 8225SOL    HW125574   4.317   0.776   2.202  1.0401 -0.2263  0.7719
 8225SOL    HW225575   4.244   0.631   2.183  0.9436 -0.0000 -0.7155
 8226SOL     OW25576   3.704   0.309   0.377  0.1489  0.3363  0.2927
 8226SOL    HW125577   3.721   0.397   0.334  0.9518 -0.8216 -1.9404
 8226SOL    HW225578   3.620   0.269   0.340  0.2036 -0.1634  0.6959
 8227SOL     OW25579   6.630   5.647   4.133  1.1480 -0.2506 -0.4298
 8227SOL    HW125580   6.545   5.619   4.177 -0.0743  0.1513 -2.3670
 8227SOL    HW225581   6.682   5.566   4.105  1.2954 -0.5007  0.5444
 8228SOL     OW25582   0.382   1.103   2.616  0.3231  0.0354 -0.1529
 8228SOL    HW125583   0.432   1.036   2.562 -1.6665 -0.3750 -1.6233
 8228SOL    HW225584   0.300   1.060   2.655 -0.6900  1.4215 -0.6594
 8229SOL     OW25585   3.859   5.043   5.605 -0.1653  0.0759  0.0338
 8229SOL    HW125586   3.865   5.137   5.639 -0.8229 -0.4743  1.8003
 8229SOL    HW225587   3.949   5.000   5.609 -0.1156  0.2201  0.5112
 8230SOL     OW25588   3.785   5.474   3.131  0.4937  0.6242  0.4701
 8230SOL    HW125589   3.843   5.547   3.094 -0.5299  0.6290 -1.2182
 8230SOL    HW225590   3.801   5.389   3.080 -1.3610  0.7782 -0.4608
 8231SOL     OW25591   3.085   5.579   1.888 -0.1398  0.8283  0.5942
 8231SOL    HW125592   2.997   5.574   1.840  0.4721 -1.0487 -0.4103
 8231SOL    HW225593   3.081   5.522   1.970  0.6184 -0.5562 -0.3045
 8232SOL     OW25594   3.370   1.219   0.451  0.7324  0.3217 -0.4352
 8232SOL    HW125595   3.380   1.285   0.377 -0.9679 -0.9675 -1.9324
 8232SOL    HW225596   3.281   1.174   0.443 -0.3530  1.4124  3.5379
 8233SOL     OW25597   1.810   0.380   3.431 -0.0357 -0.7912 -0.0167
 8233SOL    HW125598   1.893   0.401   3.482 -1.9262  1.6647  2.3363
 8233SOL    HW225599   1.807   0.436   3.348  0.2574 -0.2022  0.3635
 8234SOL     OW25600   1.834   2.659   5.433  0.2237  0.4866 -0.1134
 8234SOL    HW125601   1.833   2.562   5.456  0.5618  0.1695 -1.4004
 8234SOL    HW225602   1.914   2.702   5.474  0.3719  0.1049  0.0030
 8235SOL     OW25603   6.678   4.083   0.185  0.1502 -0.7921 -0.4531
 8235SOL    HW125604   6.634   4.110   0.270  1.6049 -0.1275  0.1109
 8235SOL    HW225605   6.628   4.005   0.145 -0.4619 -1.2042  1.0590
 8236SOL     OW25606   6.115   6.900   3.807  0.1414 -0.3584 -0.2812
 8236SOL    HW125607   6.120   6.922   3.709  1.1985  0.0092 -0.1518
 8236SOL    HW225608   6.155   6.810   3.823  0.9268  0.0245 -0.0519
 8237SOL     OW25609   4.114   0.164   6.552 -0.0454 -0.1146 -0.2304
 8237SOL    HW125610   4.088   0.189   6.645  1.8924  0.0100  0.3167
 8237SOL    HW225611   4.033   0.132   6.502 -1.0280 -0.7188  1.6567
 8238SOL     OW25612   0.345   1.024   5.912  0.2284 -0.1803 -0.0078
 8238SOL    HW125613   0.343   1.111   5.960 -1.3379 -0.7536  1.0138
 8238SOL    HW225614   0.320   1.038   5.816 -1.1594  0.3392  0.4215
 8239SOL     OW25615   5.634   2.878   6.962 -0.4491 -0.0975 -0.0090
 8239SOL    HW125616   5.590   2.789   6.969  0.7455 -0.6967  0.1392
 8239SOL    HW225617   5.566   2.947   6.937 -1.3969 -1.0359 -0.0900
 8240SOL     OW25618   3.512   2.902   2.524  0.1928  0.3154 -0.1048
 8240SOL    HW125619   3.543   2.867   2.435 -0.7248  0.9013 -0.6758
 8240SOL    HW225620   3.475   2.994   2.512  1.7076  1.1576  1.2055
 8241SOL     OW25621   4.065   6.081   0.593  0.2055 -0.0172  0.1780
 8241SOL    HW125622   4.107   6.010   0.537 -2.6939 -0.7161 -1.3474
 8241SOL    HW225623   4.039   6.158   0.534 -0.1043  0.6125  1.1205
 8242SOL     OW25624   1.311   2.252   4.948  0.1936 -0.2051 -0.1284
 8242SOL    HW125625   1.411   2.251   4.942  0.2771  0.2680  0.9480
 8242SOL    HW225626   1.272   2.203   4.870  1.2783 -1.0279 -0.1646
 8243SOL     OW25627   0.742   5.195   5.541  0.0825  0.4851 -0.3318
 8243SOL    HW125628   0.748   5.246   5.627  0.7023 -0.9344  0.5080
 8243SOL    HW225629   0.824   5.211   5.486  1.7558 -1.8250  1.2755
 8244SOL     OW25630   2.176   5.242   4.597 -0.1386  0.1976  0.0319
 8244SOL    HW125631   2.257   5.262   4.652 -0.2422 -0.2515  0.3529
 8244SOL    HW225632   2.135   5.156   4.628  1.0013 -1.2010 -2.0953
 8245SOL     OW25633   4.327   2.775   6.839 -0.0608  0.0294 -0.2753
 8245SOL    HW125634   4.374   2.858   6.869  0.9516  0.9225 -3.8904
 8245SOL    HW225635   4.242   2.765   6.891  0.8523  2.0310  1.8154
 8246SOL     OW25636   6.587   2.848   5.959  0.0772 -0.1051 -0.1822
 8246SOL    HW125637   6.662   2.895   5.913  1.5168 -1.5388  0.6083
 8246SOL    HW225638   6.559   2.768   5.906 -0.8350  0.3538 -0.4146
 8247SOL     OW25639   0.740   6.914   0.523 -0.2083 -0.2827  0.6053
 8247SOL    HW125640   0.758   6.824   0.563  0.5720 -0.5417 -0.2954
 8247SOL    HW225641   0.665   6.906   0.457 -0.2384 -0.2485  0.6360
 8248SOL     OW25642   0.538   3.568   3.632 -0.6467 -0.5784  0.3174
 8248SOL    HW125643   0.472   3.635   3.597 -0.5232  0.0636  1.2667
 8248SOL    HW225644   0.531   3.484   3.580 -1.4619 -0.1422 -0.3006
 8249SOL     OW25645   0.719   4.413   2.300  0.9067 -0.0921 -0.3131
 8249SOL    HW125646   0.815   4.384   2.306  0.8807 -0.2173 -0.4886
 8249SOL    HW225647   0.714   4.503   2.257  0.9819  0.1415  0.1550
 8250SOL     OW25648   2.882   3.558   4.039 -0.1642 -0.1005 -0.6165
 8250SOL    HW125649   2.885   3.658   4.045 -1.4302 -0.0483 -0.6233
 8250SOL    HW225650   2.876   3.530   3.943 -0.1123 -0.1726 -0.5991
 8251SOL     OW25651   3.797   0.180   3.799  0.7072  0.3271  0.7126
 8251SOL    HW125652   3.880   0.167   3.854  0.9120  0.6553  0.4804
 8251SOL    HW225653   3.797   0.271   3.759  0.8955 -0.1384 -0.3903
 8252SOL     OW25654   2.366   4.763   4.125  0.3104  0.0035  0.9955
 8252SOL    HW125655   2.424   4.801   4.053 -0.9525  0.9124  0.3978
 8252SOL    HW225656   2.416   4.694   4.177  0.9359 -1.4999 -1.4653
 8253SOL     OW25657   2.941   3.735   5.290  0.4453  0.1978 -0.4403
 8253SOL    HW125658   2.893   3.648   5.303 -1.0084  1.2143  1.4306
 8253SOL    HW225659   3.010   3.724   5.219 -1.7918 -1.6449 -2.5020
 8254SOL     OW25660   6.509   5.281   3.902  0.5641 -0.0969  0.6480
 8254SOL    HW125661   6.564   5.225   3.841  0.3672  0.1053  0.2838
 8254SOL    HW225662   6.457   5.348   3.849 -0.0118 -0.2659  0.9860
 8255SOL     OW25663   4.142   5.174   5.356  0.0537 -0.1310 -0.0513
 8255SOL    HW125664   4.223   5.128   5.390  0.2549 -0.1339 -0.5334
 8255SOL    HW225665   4.080   5.108   5.314  0.0375 -0.0589 -0.1426
 8256SOL     OW25666   5.929   5.279   3.914  0.1668 -0.2286 -0.1318
 8256SOL    HW125667   6.000   5.230   3.965  0.2478  0.0068 -0.0173
 8256SOL    HW225668   5.925   5.374   3.945 -2.5341 -1.0364  2.3051
 8257SOL     OW25669   0.325   4.721   3.780  0.3383  0.0930  0.3208
 8257SOL    HW125670   0.236   4.713   3.735  1.2250  1.2297 -1.7579
 8257SOL    HW225671   0.395   4.676   3.724  1.1177 -0.8121  1.9349
 8258SOL     OW25672   4.877   1.973   1.145  0.4441 -0.8204  0.0707
 8258SOL    HW125673   4.784   1.999   1.173  1.0259 -0.9821  2.3659
 8258SOL    HW225674   4.871   1.907   1.069 -1.1706  1.5833 -2.0639
 8259SOL     OW25675   6.359   0.534   0.286 -0.1758  0.0375 -0.2275
 8259SOL    HW125676   6.351   0.521   0.187  0.5381  0.4595 -0.3426
 8259SOL    HW225677   6.439   0.590   0.307 -1.3074  1.5087  0.4577
 8260SOL     OW25678   3.582   6.576   6.694  0.1649 -0.0759  0.5279
 8260SOL    HW125679   3.483   6.568   6.680 -0.2926  2.6546  1.5471
 8260SOL    HW225680   3.605   6.672   6.712  2.7883 -0.8911  1.9782
 8261SOL     OW25681   5.918   6.783   2.575 -0.3368 -0.0903  0.1095
 8261SOL    HW125682   5.899   6.880   2.590 -0.3108 -0.0911  0.1470
 8261SOL    HW225683   6.012   6.763   2.602  0.0374  0.1144 -0.9981
 8262SOL     OW25684   6.432   2.424   2.024 -0.3325  0.0248  0.1019
 8262SOL    HW125685   6.486   2.340   2.038  1.2885  0.9425 -0.3965
 8262SOL    HW225686   6.404   2.460   2.113 -0.7013 -0.8316  0.3400
 8263SOL     OW25687   6.553   2.713   0.732 -0.2144  0.5218  0.0298
 8263SOL    HW125688   6.457   2.716   0.703 -0.1822  2.4016 -0.0047
 8263SOL    HW225689   6.601   2.793   0.696  0.6724  1.1307  2.3864
 8264SOL     OW25690   0.495   5.699   2.706 -0.0420  0.4043  0.1210
 8264SOL    HW125691   0.492   5.599   2.714  0.2055  0.4027  0.1974
 8264SOL    HW225692   0.428   5.729   2.638 -0.3937  0.2174  0.3833
 8265SOL     OW25693   1.715   0.863   2.477  0.0058  0.0153  0.0717
 8265SOL    HW125694   1.674   0.942   2.431  1.1252  0.8720  0.5194
 8265SOL    HW225695   1.740   0.887   2.571 -0.2499 -1.0744  0.4398
 8266SOL     OW25696   3.062   0.340   3.067 -0.4670 -0.0360  0.1131
 8266SOL    HW125697   3.149   0.382   3.042 -0.2093  0.0983  1.1872
 8266SOL    HW225698   3.004   0.407   3.115 -0.1678 -0.7807  1.5734
 8267SOL     OW25699   5.305   3.118   0.146 -0.0897  0.3051  0.0773
 8267SOL    HW125700   5.271   3.146   0.236 -1.8791  1.4069 -0.8944
 8267SOL    HW225701   5.355   3.032   0.155 -0.0735  0.4718  2.1360
 8268SOL     OW25702   1.719   6.328   6.516  0.2489 -0.2721 -0.6314
 8268SOL    HW125703   1.750   6.258   6.451  5.1950  0.8110  0.1823
 8268SOL    HW225704   1.760   6.311   6.605 -2.4912  1.0006  0.9867
 8269SOL     OW25705   0.446   4.401   6.530  0.1145  0.2514 -0.4244
 8269SOL    HW125706   0.398   4.360   6.453  1.6882  1.5074 -2.1607
 8269SOL    HW225707   0.459   4.499   6.513  1.4898  0.3442  0.9099
 8270SOL     OW25708   2.895   6.704   4.159  0.1062  0.6617  0.4809
 8270SOL    HW125709   2.912   6.767   4.083  0.7464  0.4367  0.4304
 8270SOL    HW225710   2.964   6.632   4.158 -1.9467 -1.4259 -0.8978
 8271SOL     OW25711   0.283   6.858   3.387 -0.0559 -0.3165 -0.0519
 8271SOL    HW125712   0.304   6.889   3.480 -1.1834 -0.0131  0.1250
 8271SOL    HW225713   0.213   6.786   3.391  0.2508 -0.6508 -0.6418
 8272SOL     OW25714   1.511   1.796   2.540  0.7411 -0.0530 -0.4831
 8272SOL    HW125715   1.529   1.801   2.442 -1.2449 -1.4149 -0.9792
 8272SOL    HW225716   1.450   1.871   2.567  2.0669  0.9016 -0.0605
 8273SOL     OW25717   3.154   0.285   2.310  0.1097  0.2633 -0.3974
 8273SOL    HW125718   3.102   0.239   2.239  0.7349  1.7738 -1.9042
 8273SOL    HW225719   3.187   0.373   2.276  0.2145  1.1731  1.8631
 8274SOL     OW25720   4.831   3.821   2.140 -0.4675  0.6235  0.1281
 8274SOL    HW125721   4.777   3.765   2.077 -0.6789  1.3672 -0.3601
 8274SOL    HW225722   4.862   3.764   2.216 -1.2941  0.0087  0.0228
 8275SOL     OW25723   5.774   3.066   0.504  0.2912 -0.0000  0.3407
 8275SOL    HW125724   5.835   3.003   0.455 -0.4302 -0.7721  0.3925
 8275SOL    HW225725   5.700   3.013   0.547 -2.4573  1.0786 -2.6092
 8276SOL     OW25726   0.140   0.970   2.656 -0.6718  0.6621  0.2714
 8276SOL    HW125727   0.146   0.885   2.604 -0.3366 -0.5711  2.2210
 8276SOL    HW225728   0.059   0.967   2.715  0.5180  0.7147  1.9668
 8277SOL     OW25729   1.796   6.515   1.731 -0.4666  0.1033  0.2477
 8277SOL    HW125730   1.850   6.452   1.787 -0.3845 -1.3003 -1.3371
 8277SOL    HW225731   1.699   6.499   1.748 -0.4920  2.1871  2.6175
 8278SOL     OW25732   2.743   2.415   6.645 -0.2840  0.0392  0.2378
 8278SOL    HW125733   2.842   2.406   6.641 -0.2390  0.2571  0.9131
 8278SOL    HW225734   2.702   2.323   6.652 -0.1126 -0.0244  0.4137
 8279SOL     OW25735   1.614   4.929   4.088 -0.5216  0.2906 -0.3961
 8279SOL    HW125736   1.698   4.964   4.047 -2.0806  2.6585 -1.8053
 8279SOL    HW225737   1.602   4.833   4.064  0.3326  0.6935 -2.6501
 8280SOL     OW25738   3.531   2.021   0.347  0.1399  0.0491  0.1368
 8280SOL    HW125739   3.604   2.064   0.399  1.4120 -2.5911  0.7200
 8280SOL    HW225740   3.570   1.974   0.267 -0.6898 -2.1562  0.9325
 8281SOL     OW25741   5.582   6.429   3.626 -0.1682  0.3026  0.3024
 8281SOL    HW125742   5.642   6.481   3.687  0.0541  0.3658  0.0334
 8281SOL    HW225743   5.572   6.478   3.540 -0.8613  0.4470  0.4539
 8282SOL     OW25744   0.984   2.726   0.685  0.5957 -0.2194  0.2706
 8282SOL    HW125745   0.977   2.669   0.767 -0.2897 -1.3738 -0.5584
 8282SOL    HW225746   1.057   2.793   0.697  2.2239 -2.0188  1.0157
 8283SOL     OW25747   2.322   0.756   0.105 -0.2581 -0.1710 -0.1466
 8283SOL    HW125748   2.304   0.659   0.088 -1.9911 -0.1741  1.3188
 8283SOL    HW225749   2.412   0.780   0.071 -0.7925 -1.6698 -2.9064
 8284SOL     OW25750   4.655   3.657   1.187 -0.3103  0.5975  0.6456
 8284SOL    HW125751   4.569   3.684   1.145 -0.6179  0.9987  1.5052
 8284SOL    HW225752   4.701   3.738   1.223  0.8534  0.5063 -0.5614
 8285SOL     OW25753   3.472   2.966   2.126 -0.2273  0.0385  0.0950
 8285SOL    HW125754   3.507   3.060   2.130 -1.4854  0.5030  0.6615
 8285SOL    HW225755   3.377   2.968   2.097 -0.2118 -1.0860 -0.0402
 8286SOL     OW25756   0.847   1.085   1.088  0.2906  0.1210 -0.1167
 8286SOL    HW125757   0.927   1.064   1.145  2.6973 -0.1772 -3.2789
 8286SOL    HW225758   0.768   1.034   1.121  1.8841 -1.0966  2.0606
 8287SOL     OW25759   2.120   6.815   4.242  0.0540 -0.1207  0.0061
 8287SOL    HW125760   2.070   6.871   4.308 -0.7882 -0.7232 -0.1104
 8287SOL    HW225761   2.208   6.789   4.281  0.5095  1.3434  0.0330
 8288SOL     OW25762   3.717   0.090   2.394 -0.4881  0.1826 -0.1951
 8288SOL    HW125763   3.656   0.159   2.356  0.6654  0.6675 -1.2104
 8288SOL    HW225764   3.767   0.129   2.472 -2.2159 -0.5466  1.3453
 8289SOL     OW25765   0.210   5.955   6.748 -0.0296 -0.4374  0.1994
 8289SOL    HW125766   0.125   5.926   6.791  1.6217 -3.8502  1.5026
 8289SOL    HW225767   0.226   5.903   6.665  0.9784 -0.1584  0.2015
 8290SOL     OW25768   5.995   3.245   0.477  0.1556 -0.0383 -0.1329
 8290SOL    HW125769   6.047   3.169   0.439  0.9127  0.5913 -0.3736
 8290SOL    HW225770   5.908   3.210   0.514  1.1877 -1.2803  1.2518
 8291SOL     OW25771   3.495   0.278   1.498  0.1836  0.2994  0.2111
 8291SOL    HW125772   3.466   0.350   1.436 -0.6471 -0.5437 -0.4194
 8291SOL    HW225773   3.566   0.312   1.560  0.7182  1.2752 -0.9220
 8292SOL     OW25774   4.213   1.516   4.516  0.1623 -0.1326 -0.0061
 8292SOL    HW125775   4.282   1.456   4.557 -0.5111 -0.8908  0.0690
 8292SOL    HW225776   4.238   1.611   4.530  1.6930 -0.3804 -0.8530
 8293SOL     OW25777   6.306   5.061   4.999 -0.3320 -0.0905 -0.1671
 8293SOL    HW125778   6.290   5.060   5.098 -0.6386 -1.1031 -0.2168
 8293SOL    HW225779   6.401   5.085   4.981 -0.0037 -0.8873  0.4240
 8294SOL     OW25780   6.012   1.830   1.173  0.2999 -0.0016 -0.6737
 8294SOL    HW125781   6.058   1.789   1.253  0.3680 -0.8975 -1.1623
 8294SOL    HW225782   6.006   1.928   1.186 -0.9161 -0.2674  1.0694
 8295SOL     OW25783   5.347   2.043   6.599  0.5165 -0.0765  0.1476
 8295SOL    HW125784   5.276   2.104   6.635  0.0902 -1.0499  1.0176
 8295SOL    HW225785   5.337   2.034   6.500  0.3401  0.9273  0.0621
 8296SOL     OW25786   2.001   3.697   5.426 -0.2019  0.4194 -0.1040
 8296SOL    HW125787   2.083   3.708   5.369 -1.0169  1.0492 -1.1884
 8296SOL    HW225788   1.949   3.782   5.427 -0.8800  0.0109  0.5346
 8297SOL     OW25789   0.614   0.849   2.416  0.5997  0.3595 -0.2835
 8297SOL    HW125790   0.707   0.827   2.446  0.3911  0.8030  0.7608
 8297SOL    HW225791   0.552   0.840   2.494 -0.2264  0.1512 -0.9490
 8298SOL     OW25792   6.408   0.745   2.122  0.2429 -0.2500 -0.3180
 8298SOL    HW125793   6.402   0.744   2.022 -0.1547  0.3353 -0.3047
 8298SOL    HW225794   6.365   0.828   2.157  2.9075  0.9984  0.1856
 8299SOL     OW25795   5.220   2.125   1.885 -0.2487  0.0782 -0.5102
 8299SOL    HW125796   5.260   2.181   1.957  1.4759 -0.9092 -0.6267
 8299SOL    HW225797   5.230   2.028   1.909 -0.6037 -0.2373 -1.5735
 8300SOL     OW25798   0.835   5.086   3.184 -0.1346  0.0013 -0.7101
 8300SOL    HW125799   0.908   5.154   3.197  0.3966 -0.3434 -1.7205
 8300SOL    HW225800   0.780   5.113   3.105 -0.6144 -0.1608 -0.4301
 8301SOL     OW25801   3.703   2.772   0.040  0.2204 -0.2623  0.3755
 8301SOL    HW125802   3.673   2.820   0.123  0.5069  0.5631  0.0133
 8301SOL    HW225803   3.767   2.700   0.064 -0.1909 -0.4461  0.9330
 8302SOL     OW25804   6.534   5.862   4.437 -0.8125  0.7234  0.0406
 8302SOL    HW125805   6.565   5.924   4.509  1.4375  2.4153 -2.2009
 8302SOL    HW225806   6.435   5.871   4.425 -1.4589 -0.3768  3.4616
 8303SOL     OW25807   6.410   0.652   1.843  0.8222 -0.5242  0.0170
 8303SOL    HW125808   6.326   0.656   1.788  1.7268 -0.6706 -1.4126
 8303SOL    HW225809   6.450   0.561   1.837  1.3131 -0.3349  0.3443
 8304SOL     OW25810   1.353   3.593   1.665  0.4694 -0.6382 -0.6186
 8304SOL    HW125811   1.404   3.608   1.750  0.7518  0.2042 -0.9303
 8304SOL    HW225812   1.416   3.598   1.588  0.0807 -0.6012 -0.9361
 8305SOL     OW25813   2.387   0.091   3.563  0.2052 -0.3292 -0.3660
 8305SOL    HW125814   2.333   0.025   3.511  0.2976 -0.7321  0.0442
 8305SOL    HW225815   2.452   0.136   3.501  1.1803 -1.7062 -0.3879
 8306SOL     OW25816   1.624   2.327   3.746  0.4008  0.1586 -0.9103
 8306SOL    HW125817   1.631   2.266   3.825  1.5550 -0.7190 -1.6582
 8306SOL    HW225818   1.612   2.421   3.777 -2.6724 -0.5055  0.2698
 8307SOL     OW25819   5.156   5.475   1.928 -0.1846 -0.5017 -0.1992
 8307SOL    HW125820   5.155   5.450   2.025 -0.1038  1.0147  0.2265
 8307SOL    HW225821   5.186   5.570   1.919  0.1200 -0.7278 -1.7465
 8308SOL     OW25822   3.992   6.578   3.504 -0.1507  0.1193  0.5877
 8308SOL    HW125823   4.060   6.507   3.520 -0.4665 -0.4227 -0.4340
 8308SOL    HW225824   3.901   6.543   3.524 -0.2665  0.3800  0.5286
 8309SOL     OW25825   4.823   0.178   1.486 -0.1755 -0.2101 -0.6041
 8309SOL    HW125826   4.798   0.118   1.411 -1.0101 -0.1607 -0.3752
 8309SOL    HW225827   4.820   0.127   1.572  1.4965 -0.4651 -0.6577
 8310SOL     OW25828   0.387   5.491   0.353 -0.1348 -0.2147 -0.2691
 8310SOL    HW125829   0.448   5.570   0.346 -1.6908  1.0870  0.1948
 8310SOL    HW225830   0.405   5.444   0.440 -1.3467  1.5765  1.0205
 8311SOL     OW25831   5.853   1.164   0.876 -0.5841  0.2750  0.4922
 8311SOL    HW125832   5.935   1.150   0.820 -1.1400 -0.0555 -0.2532
 8311SOL    HW225833   5.877   1.155   0.973 -0.2903 -3.0179  0.2246
 8312SOL     OW25834   4.792   0.487   0.472 -0.0053  0.3359 -0.0124
 8312SOL    HW125835   4.795   0.389   0.489  1.2457  0.3548 -0.0433
 8312SOL    HW225836   4.754   0.505   0.381 -0.8683 -0.0755  0.2604
 8313SOL     OW25837   6.033   2.522   3.585  0.1940  0.3666  0.5554
 8313SOL    HW125838   6.093   2.573   3.523 -0.9566  1.0014 -0.0727
 8313SOL    HW225839   6.071   2.524   3.677  0.7692  1.3729  0.3165
 8314SOL     OW25840   1.528   0.161   3.238  0.3038  0.2553  0.1707
 8314SOL    HW125841   1.448   0.145   3.296  0.1162  2.9904  0.8024
 8314SOL    HW225842   1.612   0.153   3.293  0.2828  0.2481  0.2018
 8315SOL     OW25843   3.518   4.832   0.415 -0.0370 -0.7949  0.0972
 8315SOL    HW125844   3.460   4.875   0.346 -0.6797 -1.1058  0.4294
 8315SOL    HW225845   3.460   4.798   0.490  0.3830 -2.7776 -0.4345
 8316SOL     OW25846   0.985   4.671   6.846 -0.7921 -0.3497  0.3318
 8316SOL    HW125847   0.976   4.748   6.910  1.0421  1.0193 -0.9322
 8316SOL    HW225848   1.056   4.609   6.879 -0.0849  0.1774 -0.1627
 8317SOL     OW25849   1.652   5.076   1.115  0.3659 -0.5333 -0.2934
 8317SOL    HW125850   1.736   5.103   1.069  0.7704 -1.1618  0.0610
 8317SOL    HW225851   1.671   5.059   1.212 -0.3372  0.1206 -0.0304
 8318SOL     OW25852   3.656   0.840   4.602  0.8681  0.0504  0.2066
 8318SOL    HW125853   3.576   0.835   4.542 -0.1870 -2.0561  1.6223
 8318SOL    HW225854   3.734   0.797   4.557  0.8573  0.9349 -0.6813
 8319SOL     OW25855   2.646   2.939   6.873 -0.2285 -0.2766 -0.1192
 8319SOL    HW125856   2.733   2.987   6.867  0.3882 -1.1955  0.9663
 8319SOL    HW225857   2.653   2.850   6.828  0.4014 -1.6454  2.4714
 8320SOL     OW25858   3.957   4.739   0.594 -0.0311 -0.3600 -0.3453
 8320SOL    HW125859   3.915   4.718   0.683 -1.9750  0.5079 -0.9960
 8320SOL    HW225860   3.885   4.761   0.528  1.4601  0.6829 -1.7002
 8321SOL     OW25861   6.881   6.345   2.059  0.1058  0.0028  0.4221
 8321SOL    HW125862   6.832   6.263   2.029 -2.2787  1.0898  1.1834
 8321SOL    HW225863   6.855   6.368   2.152 -0.7839  2.6916 -0.4097
 8322SOL     OW25864   6.254   0.001   0.780  0.5084  0.3954 -0.3637
 8322SOL    HW125865   6.250  -0.061   0.858 -0.8767  1.4868  0.4851
 8322SOL    HW225866   6.198  -0.036   0.706  0.6518  0.0554 -0.3052
 8323SOL     OW25867   0.758   6.964   1.451 -0.1635  0.2681  0.2663
 8323SOL    HW125868   0.660   6.961   1.437 -0.0398 -2.0883 -0.5505
 8323SOL    HW225869   0.804   6.974   1.363  0.3496  0.8085  0.5871
 8324SOL     OW25870   6.341   1.769   3.935 -0.5277  1.0074 -0.3391
 8324SOL    HW125871   6.295   1.684   3.961  0.6736  0.7025  0.8979
 8324SOL    HW225872   6.436   1.750   3.911  0.4202  2.2351  2.1464
 8325SOL     OW25873   3.355   3.182   4.399 -0.2593 -0.2351 -0.2597
 8325SOL    HW125874   3.255   3.174   4.397 -0.1654 -1.8354 -0.3053
 8325SOL    HW225875   3.395   3.091   4.415  1.1797  0.4599  0.2638
 8326SOL     OW25876   5.119   3.494   5.957  0.2646 -0.2135  0.0456
 8326SOL    HW125877   5.097   3.591   5.967 -0.6116 -0.2829 -0.9875
 8326SOL    HW225878   5.108   3.448   6.045 -1.6445  0.1914  0.0546
 8327SOL     OW25879   6.955   3.081   6.152  0.0617 -0.2548 -0.1033
 8327SOL    HW125880   6.931   2.986   6.173  0.2211 -0.0214  1.1704
 8327SOL    HW225881   6.875   3.128   6.116 -0.6827 -0.2251  1.5424
 8328SOL     OW25882   2.232   1.282   3.513 -0.3995  0.2434  0.0383
 8328SOL    HW125883   2.267   1.365   3.471 -1.0889  0.6457  0.2369
 8328SOL    HW225884   2.132   1.283   3.511 -0.4616  0.2378  1.5837
 8329SOL     OW25885   6.251   2.950   4.626  0.5484  0.1298 -0.0083
 8329SOL    HW125886   6.255   3.041   4.585 -0.3202  0.3157  0.2878
 8329SOL    HW225887   6.206   2.887   4.564 -0.9242  0.4518  0.6846
 8330SOL     OW25888   3.702   0.848   6.380 -0.1649 -0.2418  0.1849
 8330SOL    HW125889   3.730   0.779   6.313 -0.1070  0.6390 -0.7158
 8330SOL    HW225890   3.692   0.936   6.335  3.6809  1.3348  1.9226
 8331SOL     OW25891   2.682   5.375   1.300 -0.0331 -0.3134 -0.1690
 8331SOL    HW125892   2.599   5.387   1.354 -0.2466 -0.2646 -0.5020
 8331SOL    HW225893   2.705   5.278   1.295  1.0843 -0.1781  1.6226
 8332SOL     OW25894   4.928   0.524   3.644  0.4486  0.1628 -0.6592
 8332SOL    HW125895   4.837   0.530   3.685 -0.2398 -0.4547 -2.0396
 8332SOL    HW225896   4.980   0.607   3.667  0.0997 -0.1161  1.3693
 8333SOL     OW25897   1.957   5.952   6.175 -0.2849 -0.3120  0.3962
 8333SOL    HW125898   2.024   5.887   6.139  0.1123  0.0719  0.4261
 8333SOL    HW225899   1.914   6.001   6.100  0.1319  0.0853  0.4100
 8334SOL     OW25900   1.154   0.315   2.292 -0.4315 -0.3352 -0.5454
 8334SOL    HW125901   1.125   0.227   2.254 -0.6375 -0.0715 -1.0179
 8334SOL    HW225902   1.254   0.317   2.297 -0.4471 -0.8546  0.1180
 8335SOL     OW25903   5.372   5.380   5.861 -0.9384 -0.1151 -0.1510
 8335SOL    HW125904   5.451   5.439   5.846 -0.3029 -1.1214 -0.8659
 8335SOL    HW225905   5.346   5.336   5.775 -0.8022 -1.6078  0.5437
 8336SOL     OW25906   1.859   3.129   0.809  0.1101  0.0805  0.2133
 8336SOL    HW125907   1.835   3.153   0.715  2.5020 -0.6664 -0.6588
 8336SOL    HW225908   1.805   3.051   0.838 -0.1175 -0.1612 -0.8213
 8337SOL     OW25909   5.959   6.247   1.591 -0.0126  0.0627  0.0309
 8337SOL    HW125910   5.987   6.290   1.505  1.1868 -0.8579 -0.0753
 8337SOL    HW225911   5.981   6.307   1.667  0.4903  0.1699 -0.1946
 8338SOL     OW25912   0.130   5.306   6.099  0.3131  0.1961  0.2686
 8338SOL    HW125913   0.085   5.264   6.178 -1.0476 -0.1837 -0.6862
 8338SOL    HW225914   0.092   5.396   6.083  1.0951  0.5693  0.4581
 8339SOL     OW25915   0.352   1.701   4.009  0.0047 -0.4732  0.3017
 8339SOL    HW125916   0.316   1.788   4.044 -1.2591  0.7244 -3.5020
 8339SOL    HW225917   0.316   1.626   4.065  0.6618  1.2797  3.3435
 8340SOL     OW25918   5.116   5.046   3.221  0.4312  0.0287  0.0297
 8340SOL    HW125919   5.092   4.949   3.211 -2.2136  0.5373  0.9142
 8340SOL    HW225920   5.093   5.094   3.136  0.8654  0.0711 -0.0679
 8341SOL     OW25921   2.278   5.391   1.371 -0.2453  0.5186  0.3584
 8341SOL    HW125922   2.248   5.310   1.423  0.4431  0.0433  0.0338
 8341SOL    HW225923   2.358   5.431   1.415 -1.0587  1.5162  0.9694
 8342SOL     OW25924   2.560   1.898   1.444 -0.2900 -0.0920  0.3732
 8342SOL    HW125925   2.573   1.987   1.488  0.8311 -0.4787  0.8572
 8342SOL    HW225926   2.547   1.827   1.513 -0.0270 -0.4767  0.0392
 8343SOL     OW25927   0.803   0.294   5.700  0.4073 -0.0019 -0.4116
 8343SOL    HW125928   0.802   0.289   5.800  0.6060 -1.3779 -0.4587
 8343SOL    HW225929   0.729   0.354   5.669  1.0164  1.3045  0.5841
 8344SOL     OW25930   2.676   6.480   6.801 -0.1543 -0.0494  0.4275
 8344SOL    HW125931   2.712   6.566   6.764  1.7124 -0.7870  0.4492
 8344SOL    HW225932   2.745   6.409   6.794 -1.6529 -1.5685  0.4638
 8345SOL     OW25933   5.044   0.102   3.810 -0.7021 -0.3088 -0.5914
 8345SOL    HW125934   4.954   0.140   3.787 -0.0013  1.9858  0.1824
 8345SOL    HW225935   5.065   0.122   3.906  0.4946 -1.1248 -0.6602
 8346SOL     OW25936   4.700   4.433   3.602  0.1559 -0.0751 -0.1206
 8346SOL    HW125937   4.631   4.413   3.672  0.3730 -1.1226 -0.1926
 8346SOL    HW225938   4.684   4.375   3.522 -0.6777  1.7758 -1.3622
 8347SOL     OW25939   3.068   6.409   4.876  0.3452 -0.2782 -0.2667
 8347SOL    HW125940   3.025   6.461   4.802 -1.1452  0.4015  1.0032
 8347SOL    HW225941   3.039   6.314   4.872 -1.3733  0.1721  0.5676
 8348SOL     OW25942   3.504   0.892   0.714  0.3185 -0.2545 -0.3439
 8348SOL    HW125943   3.528   0.981   0.675  1.1057 -0.5155 -0.4631
 8348SOL    HW225944   3.547   0.881   0.803  0.8381 -0.8219 -0.6591
 8349SOL     OW25945   6.267   0.988   0.277  0.4951  0.4691 -0.6621
 8349SOL    HW125946   6.217   0.904   0.300 -0.2758  1.0509 -0.1716
 8349SOL    HW225947   6.365   0.968   0.273  0.4037 -0.2641  0.3418
 8350SOL     OW25948   5.067   0.728   4.752 -0.3345 -0.0335 -0.8124
 8350SOL    HW125949   5.028   0.819   4.769  1.4293  0.4817  0.9010
 8350SOL    HW225950   5.146   0.736   4.692 -0.6034 -0.5607 -1.2507
 8351SOL     OW25951   2.300   5.637   2.363  0.0853 -0.2515  0.3298
 8351SOL    HW125952   2.350   5.692   2.430 -1.1448  0.6289  0.5542
 8351SOL    HW225953   2.203   5.637   2.385 -0.8880  2.5017 -2.9929
 8352SOL     OW25954   6.267   6.084   1.355  0.2655 -0.4157  0.4520
 8352SOL    HW125955   6.329   6.029   1.299 -0.2443 -1.4164  0.8523
 8352SOL    HW225956   6.212   6.024   1.413  0.2429  0.5637  1.4766
 8353SOL     OW25957   1.663   1.660   1.370  0.8023  0.2797  0.1035
 8353SOL    HW125958   1.750   1.626   1.406 -0.6588 -0.9497  2.8445
 8353SOL    HW225959   1.599   1.583   1.362 -0.5319  1.3995 -0.2853
 8354SOL     OW25960   2.507   0.122   0.427 -0.5831 -0.2799 -0.0761
 8354SOL    HW125961   2.481   0.036   0.471  0.3357 -0.7254 -0.3826
 8354SOL    HW225962   2.601   0.116   0.395  0.1379  1.4839  1.4971
 8355SOL     OW25963   3.581   1.845   0.152  0.2428 -0.0309 -0.1831
 8355SOL    HW125964   3.531   1.776   0.204  0.4021  0.3146  0.4380
 8355SOL    HW225965   3.653   1.800   0.098 -0.6252 -0.5143 -0.9778
 8356SOL     OW25966   3.016   5.151   0.851  0.0992  0.2647  0.4274
 8356SOL    HW125967   2.933   5.124   0.901 -0.4681  0.0068 -0.6154
 8356SOL    HW225968   3.003   5.132   0.754  1.9876 -1.3096  0.4165
 8357SOL     OW25969   5.214   5.506   3.254  0.5349  0.4103 -0.6303
 8357SOL    HW125970   5.222   5.531   3.350  0.1716  1.6002 -0.8919
 8357SOL    HW225971   5.142   5.437   3.244 -0.0682  0.9475 -0.1403
 8358SOL     OW25972   2.376   2.760   4.419 -0.3744 -0.1399 -0.5277
 8358SOL    HW125973   2.431   2.677   4.424 -1.8954 -1.1329  0.4437
 8358SOL    HW225974   2.355   2.792   4.511  0.1744  1.3298 -0.8937
 8359SOL     OW25975   2.414   4.668   5.485  0.6415 -0.4386  0.0720
 8359SOL    HW125976   2.347   4.638   5.552  1.1853 -0.3170  0.6801
 8359SOL    HW225977   2.501   4.686   5.530  0.8587  0.2106 -0.5698
 8360SOL     OW25978   4.449   6.882   3.202  0.0287 -0.1617 -0.0243
 8360SOL    HW125979   4.397   6.966   3.185  1.8011  0.6799 -1.7052
 8360SOL    HW225980   4.522   6.900   3.268 -0.9301 -0.9768  1.2859
 8361SOL     OW25981   0.142   0.551   3.828  0.1524 -0.0390  1.0867
 8361SOL    HW125982   0.236   0.575   3.805 -0.0245  2.0713  2.2907
 8361SOL    HW225983   0.080   0.588   3.759  0.0998  0.2180  1.2675
 8362SOL     OW25984   3.939   3.288   6.977 -0.1326  0.6063  0.0192
 8362SOL    HW125985   3.848   3.248   6.962  0.6130 -0.8935 -0.7776
 8362SOL    HW225986   3.935   3.351   7.054 -1.9448  0.9357 -0.2842
 8363SOL     OW25987   0.202   3.990   0.931  0.3594  0.2045 -0.0387
 8363SOL    HW125988   0.289   3.941   0.926 -0.4303 -1.1309 -3.6859
 8363SOL    HW225989   0.128   3.925   0.947 -0.2769  0.8574 -0.2759
 8364SOL     OW25990   5.895   4.947   6.681 -0.1887 -0.2409 -0.3925
 8364SOL    HW125991   5.881   5.038   6.720 -1.3923 -0.4926 -0.1797
 8364SOL    HW225992   5.952   4.893   6.742  2.7353  1.1298 -1.7159
 8365SOL     OW25993   0.557   4.266   4.351 -0.1300 -0.0685 -0.1691
 8365SOL    HW125994   0.535   4.360   4.374  1.6052  0.6253 -1.1958
 8365SOL    HW225995   0.473   4.214   4.339 -1.1117  1.0606  1.4393
 8366SOL     OW25996   3.124   4.614   1.722 -0.0754 -0.4499 -0.3466
 8366SOL    HW125997   3.082   4.658   1.643 -0.9461  1.0046  0.8725
 8366SOL    HW225998   3.053   4.576   1.781  0.1329  2.4393  1.9820
 8367SOL     OW25999   3.342   5.103   4.016 -0.4205 -0.1867  0.3461
 8367SOL    HW126000   3.396   5.063   4.090 -0.1052  0.8193  0.6676
 8367SOL    HW226001   3.393   5.098   3.930 -0.9570 -1.7473  0.0726
 8368SOL     OW26002   2.088   4.267   4.842 -0.2077  0.3146  0.4745
 8368SOL    HW126003   2.135   4.309   4.920  1.5317 -0.4788 -0.0883
 8368SOL    HW226004   2.128   4.177   4.823 -3.0487 -1.1493  0.9024
 8369SOL     OW26005   3.270   3.213   2.182  0.1653 -0.4021  0.0050
 8369SOL    HW126006   3.223   3.125   2.168  2.8207 -1.9268 -0.0020
 8369SOL    HW226007   3.297   3.250   2.093  0.3933 -0.3756  0.0857
 8370SOL     OW26008   1.843   1.391   5.705  0.2831 -0.7440  0.6224
 8370SOL    HW126009   1.837   1.484   5.669  0.6618 -1.3126 -0.9537
 8370SOL    HW226010   1.762   1.371   5.760  0.0858  0.4244  0.7696
 8371SOL     OW26011   0.589   4.312   0.126 -0.0427 -0.2935  0.3397
 8371SOL    HW126012   0.539   4.396   0.107 -0.3204 -0.3776  0.6998
 8371SOL    HW226013   0.569   4.244   0.055  0.9985  0.2841 -0.5533
 8372SOL     OW26014   6.658   2.307   1.247 -0.3468  0.0275 -0.1121
 8372SOL    HW126015   6.717   2.280   1.171  0.6658 -1.0353  1.0058
 8372SOL    HW226016   6.712   2.312   1.331 -1.7525 -0.5114  0.8651
 8373SOL     OW26017   2.250   0.674   4.365  0.4734 -0.1330  0.6958
 8373SOL    HW126018   2.271   0.720   4.279  0.1952 -1.7192 -0.2775
 8373SOL    HW226019   2.335   0.649   4.411  0.6716 -0.8317 -0.0177
 8374SOL     OW26020   5.437   6.554   5.657  0.6022  0.2778  0.0221
 8374SOL    HW126021   5.436   6.618   5.733  0.3957  0.9202 -0.5043
 8374SOL    HW226022   5.531   6.538   5.627  0.7843 -0.8905  1.1436
 8375SOL     OW26023   3.356   0.469   1.255 -0.3964  0.2407 -0.6091
 8375SOL    HW126024   3.288   0.468   1.182 -0.0326  2.6213 -1.0391
 8375SOL    HW226025   3.440   0.510   1.222  0.4099 -0.3539  0.6367
 8376SOL     OW26026   3.781   0.313   4.463  0.1611  0.5866  0.5776
 8376SOL    HW126027   3.779   0.317   4.363  0.1400 -2.2423  0.3932
 8376SOL    HW226028   3.874   0.292   4.494 -0.4438 -2.0423  0.8604
 8377SOL     OW26029   3.712   4.699   1.350 -0.0495 -0.1449 -0.4282
 8377SOL    HW126030   3.667   4.757   1.418 -0.2146  0.2043 -0.8291
 8377SOL    HW226031   3.709   4.603   1.380  1.9882  0.2275  1.2431
 8378SOL     OW26032   4.515   4.471   4.291  0.1234  0.3767 -0.0172
 8378SOL    HW126033   4.532   4.373   4.296 -2.1768 -0.0957 -0.4292
 8378SOL    HW226034   4.486   4.505   4.380  0.4185  0.5826  0.0013
 8379SOL     OW26035   4.900   3.414   2.388  0.3664 -0.0579  0.7316
 8379SOL    HW126036   4.887   3.431   2.290 -0.6269  0.9372  1.0133
 8379SOL    HW226037   4.995   3.432   2.413  0.7252 -0.6942 -0.1056
 8380SOL     OW26038   5.118   0.517   1.924 -0.5208 -0.3985  0.3924
 8380SOL    HW126039   5.207   0.554   1.949 -0.0346 -1.4041  0.1916
 8380SOL    HW226040   5.048   0.556   1.984  0.0945  0.1435  0.7724
 8381SOL     OW26041   1.634   6.385   4.968  1.2616  0.1621 -0.0619
 8381SOL    HW126042   1.641   6.353   5.063 -1.1010  2.2253  0.8942
 8381SOL    HW226043   1.656   6.482   4.963 -3.6935  1.4967 -0.5306
 8382SOL     OW26044   6.223   3.606   0.177 -0.0632 -0.0129 -0.7744
 8382SOL    HW126045   6.200   3.646   0.265  0.8897  0.4560 -0.7233
 8382SOL    HW226046   6.186   3.663   0.104 -2.3684 -1.3199 -0.7107
 8383SOL     OW26047   1.965   1.237   4.267 -0.2033 -0.0035  0.0092
 8383SOL    HW126048   2.046   1.193   4.305  0.2216  0.4443 -0.3657
 8383SOL    HW226049   1.949   1.202   4.174 -0.4618 -0.1171  0.0958
 8384SOL     OW26050   1.603   1.136   2.087 -0.5364 -0.3795 -0.6780
 8384SOL    HW126051   1.508   1.128   2.117  0.0773 -0.6055  1.2989
 8384SOL    HW226052   1.621   1.066   2.018 -1.8815 -0.0941 -1.3647
 8385SOL     OW26053   3.730   1.068   6.226  0.0156  0.1909 -0.5331
 8385SOL    HW126054   3.706   1.108   6.138 -0.1632  1.1427 -0.0676
 8385SOL    HW226055   3.738   1.141   6.295 -2.2572 -0.7432  0.8147
 8386SOL     OW26056   6.570   3.418   2.000 -0.4244 -0.4532 -0.0490
 8386SOL    HW126057   6.557   3.333   2.052  0.0450  0.5711  1.8211
 8386SOL    HW226058   6.666   3.427   1.974  0.3916  1.2385  3.0824
 8387SOL     OW26059   0.887   0.387   3.157 -0.2474  0.3192 -0.7537
 8387SOL    HW126060   0.939   0.306   3.187 -2.9979 -1.7960 -1.2645
 8387SOL    HW226061   0.939   0.435   3.086  1.7409 -0.6496 -0.0146
 8388SOL     OW26062   2.027   0.238   3.767  0.1954 -0.0890 -0.0026
 8388SOL    HW126063   2.085   0.265   3.844 -0.4229  1.6265 -0.0928
 8388SOL    HW226064   2.048   0.295   3.687 -0.9753 -0.0362 -0.2942
 8389SOL     OW26065   5.059   2.465   2.511 -0.0490 -0.1571  0.5402
 8389SOL    HW126066   4.973   2.419   2.535 -0.9983  1.5203  0.4864
 8389SOL    HW226067   5.136   2.404   2.531 -1.2600 -1.8939  0.1039
 8390SOL     OW26068   4.832   2.458   6.538  0.2210  0.3432  0.2325
 8390SOL    HW126069   4.789   2.540   6.499  0.0049 -0.1415 -0.5932
 8390SOL    HW226070   4.843   2.390   6.466  2.1743  0.3517  0.4693
 8391SOL     OW26071   5.735   0.137   1.602  0.0495  0.0447  0.7271
 8391SOL    HW126072   5.796   0.208   1.566  0.6052 -0.5980  0.3732
 8391SOL    HW226073   5.658   0.124   1.539  2.1409 -2.6162 -1.5218
 8392SOL     OW26074   4.109   3.279   4.698 -0.0193  0.0936  0.2070
 8392SOL    HW126075   4.207   3.299   4.688 -0.0053  0.6833  1.3115
 8392SOL    HW226076   4.082   3.293   4.793 -1.3162  0.5361 -0.2049
 8393SOL     OW26077   5.552   6.836   0.497  0.8528 -0.1540 -0.3324
 8393SOL    HW126078   5.475   6.885   0.457  2.3128  1.7689 -0.9397
 8393SOL    HW226079   5.523   6.794   0.583 -0.5870  1.5303  0.0816
 8394SOL     OW26080   5.232   1.418   2.370  0.3733 -0.1084 -0.1190
 8394SOL    HW126081   5.231   1.318   2.368 -0.7006 -0.1063  0.0726
 8394SOL    HW226082   5.302   1.452   2.306 -0.2817 -0.9506 -1.3267
 8395SOL     OW26083   2.911   1.122   4.092 -0.1181 -0.5359  0.6717
 8395SOL    HW126084   2.904   1.202   4.033  0.6673 -0.1046  1.1454
 8395SOL    HW226085   2.872   1.144   4.182 -0.9112 -1.0461  0.4575
 8396SOL     OW26086   5.168   4.376   4.868 -0.5663 -0.2110  0.0243
 8396SOL    HW126087   5.226   4.454   4.842  1.1674 -1.2568  0.5518
 8396SOL    HW226088   5.176   4.360   4.966  0.0616 -1.7305 -0.2378
 8397SOL     OW26089   0.136   6.116   2.296  0.1755 -0.0763 -0.2578
 8397SOL    HW126090   0.125   6.065   2.211 -0.4268 -2.1960  1.0440
 8397SOL    HW226091   0.200   6.068   2.356 -1.8925 -0.3955  1.7999
 8398SOL     OW26092   5.155   2.066   4.433  0.3109  0.2546  0.0888
 8398SOL    HW126093   5.173   2.164   4.440  0.0599  0.2627  0.6921
 8398SOL    HW226094   5.076   2.050   4.374  2.4001  0.1976 -2.9487
 8399SOL     OW26095   1.648   3.767   1.960 -0.2795  0.4517 -0.2365
 8399SOL    HW126096   1.694   3.773   1.871 -1.9807 -0.0994 -1.2081
 8399SOL    HW226097   1.592   3.684   1.962 -2.7705  2.0190  0.0660
 8400SOL     OW26098   0.482   6.689   6.404  0.5713  0.2617 -1.0911
 8400SOL    HW126099   0.553   6.746   6.362  0.1896  0.2694 -1.7456
 8400SOL    HW226100   0.517   6.596   6.417  0.6872  0.2533 -1.4548
 8401SOL     OW26101   1.946   6.793   5.439 -0.6579  0.0343 -0.2118
 8401SOL    HW126102   1.996   6.712   5.407 -0.8185 -0.3251  0.4365
 8401SOL    HW226103   1.852   6.768   5.460 -1.0226  0.6275 -1.0477
 8402SOL     OW26104   4.096   1.008   1.783 -0.1757  0.2201 -1.0159
 8402SOL    HW126105   4.153   0.949   1.726 -1.1352 -0.5362 -1.2176
 8402SOL    HW226106   4.004   0.970   1.788 -1.0069  2.0480 -1.6849
 8403SOL     OW26107   4.259   5.755   4.192  0.6198 -0.2912 -0.2379
 8403SOL    HW126108   4.179   5.703   4.222  0.5554 -0.5003 -0.7604
 8403SOL    HW226109   4.229   5.845   4.160  0.8044  0.3549  1.3156
 8404SOL     OW26110   1.402   0.598   0.530 -0.7609  0.1409  0.0639
 8404SOL    HW126111   1.437   0.664   0.596  2.6589 -0.1192 -1.2606
 8404SOL    HW226112   1.359   0.646   0.453 -0.9125  0.6638  0.4736
 8405SOL     OW26113   2.800   6.257   5.859 -0.2012  0.2255 -0.0335
 8405SOL    HW126114   2.816   6.210   5.946 -2.1075  1.5503  1.1018
 8405SOL    HW226115   2.702   6.270   5.846 -0.0564 -0.8665 -2.9329
 8406SOL     OW26116   5.706   1.693   6.810  0.6789 -0.6763 -0.0890
 8406SOL    HW126117   5.613   1.730   6.819  0.7340  0.0107 -1.9820
 8406SOL    HW226118   5.772   1.760   6.844  0.4978 -1.2333  1.4175
 8407SOL     OW26119   5.299   0.898   5.668 -0.2209  0.0971 -0.2714
 8407SOL    HW126120   5.393   0.888   5.635  0.4503  0.3542  1.4774
 8407SOL    HW226121   5.293   0.865   5.762 -1.9017  0.0780 -0.3543
 8408SOL     OW26122   2.964   3.797   0.006 -0.1900  0.3858  1.0164
 8408SOL    HW126123   2.897   3.829  -0.060 -0.9753 -0.4893  1.3777
 8408SOL    HW226124   2.962   3.856   0.087 -0.2872  0.5573  0.8886
 8409SOL     OW26125   2.846   2.232   0.444 -0.2240 -0.0445  0.4606
 8409SOL    HW126126   2.809   2.322   0.469  0.3271  0.1122  0.7211
 8409SOL    HW226127   2.860   2.228   0.345  0.5006  0.4467  0.5402
 8410SOL     OW26128   0.233   3.247   1.643 -0.0148 -0.4279  0.1100
 8410SOL    HW126129   0.176   3.244   1.561  2.1413 -2.1285 -1.4427
 8410SOL    HW226130   0.179   3.217   1.722 -2.0967  1.0879 -0.6453
 8411SOL     OW26131   1.197   5.718   0.859  0.2285 -0.5431  0.4465
 8411SOL    HW126132   1.241   5.758   0.939 -1.0852  0.9653  0.4621
 8411SOL    HW226133   1.097   5.722   0.870  0.0034 -0.0094 -1.3931
 8412SOL     OW26134   2.465   3.505   6.998 -0.2921  0.8658  0.2399
 8412SOL    HW126135   2.489   3.557   6.916  0.1749  1.6735  0.8722
 8412SOL    HW226136   2.547   3.460   7.034 -0.7550 -0.6017 -0.4838
 8413SOL     OW26137   2.576   6.615   4.810  0.1210  0.0645  0.8294
 8413SOL    HW126138   2.646   6.607   4.881  0.5632  0.2100  0.4193
 8413SOL    HW226139   2.510   6.685   4.836  1.4364  1.6155  0.1661
 8414SOL     OW26140   3.366   0.757   1.128 -0.5477  0.0002 -0.1476
 8414SOL    HW126141   3.291   0.704   1.087  0.5206 -2.4304  0.8460
 8414SOL    HW226142   3.330   0.842   1.166 -2.2640  0.3052 -2.2511
 8415SOL     OW26143   4.402   2.992   5.787  0.3142  0.0172 -0.0724
 8415SOL    HW126144   4.334   2.932   5.744  1.0220 -0.0825 -1.0796
 8415SOL    HW226145   4.446   3.048   5.717  2.1006 -0.7418  0.3876
 8416SOL     OW26146   0.173   2.766   5.213 -0.1222 -0.0201  0.4056
 8416SOL    HW126147   0.084   2.793   5.252 -0.7018  0.1544 -0.9785
 8416SOL    HW226148   0.238   2.841   5.224 -1.2337  1.3820 -1.8813
 8417SOL     OW26149   2.368   1.689   5.602  0.7179  0.4037  0.0800
 8417SOL    HW126150   2.296   1.626   5.629  2.1894 -1.3138  0.1585
 8417SOL    HW226151   2.411   1.729   5.683 -1.7813  3.5520  0.0700
 8418SOL     OW26152   0.573   6.375   3.557  0.0778  0.3625 -0.7114
 8418SOL    HW126153   0.573   6.423   3.644  1.4057 -1.5005  0.3717
 8418SOL    HW226154   0.591   6.440   3.483 -1.2892  2.0133  0.3255
 8419SOL     OW26155   4.197   2.274   3.962  0.0191  0.0713 -0.9385
 8419SOL    HW126156   4.249   2.312   4.039 -0.1468 -0.8173 -0.3715
 8419SOL    HW226157   4.113   2.231   3.997  0.1192 -0.6552 -1.5798
 8420SOL     OW26158   3.825   1.375   3.841 -0.6798  0.6999  0.3642
 8420SOL    HW126159   3.725   1.366   3.847 -0.5908 -0.3326  0.5361
 8420SOL    HW226160   3.848   1.447   3.776 -1.5316  0.8155  0.1711
 8421SOL     OW26161   4.543   6.975   2.511  0.3024  0.4629 -0.1642
 8421SOL    HW126162   4.620   6.920   2.479  2.1685  3.0553 -0.4528
 8421SOL    HW226163   4.533   6.964   2.610  1.1927  0.2413 -0.0862
 8422SOL     OW26164   5.256   1.358   4.443  0.3050 -0.4747 -0.1489
 8422SOL    HW126165   5.188   1.421   4.480 -2.3694 -2.2309 -1.7189
 8422SOL    HW226166   5.284   1.294   4.515  1.0461  0.7982  0.7411
 8423SOL     OW26167   4.500   5.610   4.212  0.3272  0.3287  0.3189
 8423SOL    HW126168   4.508   5.619   4.311 -0.4269 -0.1759  0.4311
 8423SOL    HW226169   4.440   5.683   4.177  0.8743  0.7226  0.1795
 8424SOL     OW26170   2.857   0.710   4.606 -0.4846 -0.3103 -0.2793
 8424SOL    HW126171   2.900   0.788   4.559  2.8150 -2.2482 -0.7932
 8424SOL    HW226172   2.864   0.722   4.705  1.6134 -0.6475 -0.3394
 8425SOL     OW26173   3.655   3.748   2.593 -0.6646  0.0602 -0.6535
 8425SOL    HW126174   3.722   3.718   2.526  0.2802  0.2617  0.1757
 8425SOL    HW226175   3.701   3.767   2.680 -1.9954 -1.2592  0.3851
 8426SOL     OW26176   3.095   3.040   2.455 -0.7925 -1.1927 -0.3478
 8426SOL    HW126177   3.030   3.106   2.419 -2.0282 -3.0680 -1.7599
 8426SOL    HW226178   3.147   3.000   2.379  1.6552 -0.2043  0.6816
 8427SOL     OW26179   3.656   3.975   2.247  0.1404  0.2220  0.5395
 8427SOL    HW126180   3.564   3.973   2.285 -0.3221 -0.5334 -0.5602
 8427SOL    HW226181   3.660   4.042   2.172 -0.0629 -1.0578 -0.6651
 8428SOL     OW26182   6.713   1.440   3.738 -0.5024  0.1058  0.3874
 8428SOL    HW126183   6.778   1.400   3.802  0.5341  2.2181  0.7615
 8428SOL    HW226184   6.733   1.407   3.646  1.1298  0.6657  0.4968
 8429SOL     OW26185   2.790   6.313   3.532 -0.9428 -0.8295 -0.0008
 8429SOL    HW126186   2.741   6.397   3.556  2.1420  0.3594  2.8380
 8429SOL    HW226187   2.839   6.279   3.611  2.9541 -1.7859 -2.5549
 8430SOL     OW26188   4.187   0.017   6.269 -0.3425 -0.0718 -0.0511
 8430SOL    HW126189   4.271  -0.004   6.319 -0.9087 -2.8288 -0.0925
 8430SOL    HW226190   4.110   0.019   6.332 -0.3366  2.5263  0.0001
 8431SOL     OW26191   2.475   4.478   5.186  0.0855  0.1065 -0.1314
 8431SOL    HW126192   2.494   4.521   5.275  1.3030 -1.2945  0.3298
 8431SOL    HW226193   2.468   4.379   5.198  0.6428 -0.1403 -1.6458
 8432SOL     OW26194   7.018   5.654   3.983 -0.4836  0.5621 -0.4223
 8432SOL    HW126195   7.080   5.711   3.929  0.7010 -0.5026 -0.2259
 8432SOL    HW226196   7.026   5.679   4.079  3.5419 -2.7963  0.4001
 8433SOL     OW26197   5.845   0.363   1.536  0.5723  0.3054  0.1101
 8433SOL    HW126198   5.795   0.447   1.560 -0.0627  0.3991 -1.4634
 8433SOL    HW226199   5.943   0.379   1.549  0.4336  1.1759  0.1910
 8434SOL     OW26200   4.421   6.066   4.456  0.0576 -0.0566  0.6256
 8434SOL    HW126201   4.330   6.085   4.418 -0.3180 -0.5594  1.2600
 8434SOL    HW226202   4.450   6.143   4.513  0.8818  0.9795 -1.0937
 8435SOL     OW26203   0.214   1.487   1.883 -0.6347 -0.3083  0.2802
 8435SOL    HW126204   0.226   1.454   1.976  1.7064  2.6722  1.2119
 8435SOL    HW226205   0.300   1.480   1.833 -1.1445  0.5549 -0.7852
 8436SOL     OW26206   0.550   5.694   5.309  0.1052  0.4387 -0.2676
 8436SOL    HW126207   0.591   5.602   5.307  1.2442  0.8757  1.5364
 8436SOL    HW226208   0.512   5.712   5.399  1.9702  2.6061  0.1551
 8437SOL     OW26209   3.886   6.464   0.989 -0.6745  0.3781 -0.5768
 8437SOL    HW126210   3.848   6.375   0.962 -1.3240  0.3097  0.4929
 8437SOL    HW226211   3.812   6.526   1.012 -0.1913  0.9110 -0.4472
 8438SOL     OW26212   2.320   4.127   1.454 -0.5236  0.1924 -0.0021
 8438SOL    HW126213   2.388   4.109   1.525  0.0765 -0.0290 -0.6142
 8438SOL    HW226214   2.299   4.043   1.404  1.2142  0.7988 -1.9274
 8439SOL     OW26215   5.685   5.621   2.874 -0.2952 -0.1686 -0.0395
 8439SOL    HW126216   5.761   5.589   2.930  0.0747  0.9166  0.1071
 8439SOL    HW226217   5.718   5.691   2.810 -1.5419  2.1721  1.7078
 8440SOL     OW26218   2.540   6.667   2.479  0.2339  0.8844  0.3884
 8440SOL    HW126219   2.555   6.678   2.381  0.6961 -0.5526  0.2776
 8440SOL    HW226220   2.621   6.699   2.529  1.0315 -0.6559  0.1437
 8441SOL     OW26221   1.111   2.603   6.708 -0.3697 -0.3876 -0.3878
 8441SOL    HW126222   1.186   2.566   6.765 -0.4475 -3.0562 -1.8355
 8441SOL    HW226223   1.024   2.590   6.756 -0.1358  0.9708  0.4767
 8442SOL     OW26224   1.989   3.867   0.203  0.5536  0.1941 -0.1375
 8442SOL    HW126225   1.990   3.791   0.138  2.2343 -1.0428  1.2508
 8442SOL    HW226226   2.059   3.934   0.176 -1.0377  1.4123 -1.4548
 8443SOL     OW26227   1.264   2.791   3.570  0.0218 -0.7150 -0.2778
 8443SOL    HW126228   1.308   2.702   3.555 -0.5347 -0.9933 -0.3112
 8443SOL    HW226229   1.330   2.864   3.555  0.5039 -1.1260 -0.1924
 8444SOL     OW26230   4.944   5.523   5.118 -0.5407 -0.6252 -0.7247
 8444SOL    HW126231   4.923   5.602   5.060  1.8589 -0.2001 -1.1036
 8444SOL    HW226232   4.991   5.453   5.064  0.5611 -0.7816  0.3859
 8445SOL     OW26233   3.318   6.139   0.767  0.2614  0.3663 -0.3262
 8445SOL    HW126234   3.393   6.166   0.707  1.6566 -0.4565  1.0047
 8445SOL    HW226235   3.291   6.045   0.746  1.0408 -0.0745  0.5843
 8446SOL     OW26236   6.470   1.032   4.911  0.4110  0.0725  0.4639
 8446SOL    HW126237   6.460   1.024   4.812 -1.0918  0.3840  0.5649
 8446SOL    HW226238   6.383   1.059   4.952  1.5518  2.3419  1.6324
 8447SOL     OW26239   3.304   2.115   4.845  0.5742 -0.0343  0.0985
 8447SOL    HW126240   3.265   2.188   4.900  1.0830 -0.2566  0.7681
 8447SOL    HW226241   3.242   2.036   4.845  0.8141 -0.2287  0.8007
 8448SOL     OW26242   1.942   6.152   3.318 -0.0345  0.9070  0.0689
 8448SOL    HW126243   2.005   6.183   3.247 -0.2779  1.7331  0.2122
 8448SOL    HW226244   1.970   6.062   3.350 -0.0290  0.4165 -1.2231
 8449SOL     OW26245   0.797   2.192   3.659  0.1821 -0.0961 -0.1496
 8449SOL    HW126246   0.860   2.126   3.700 -0.3479 -1.1958 -1.0569
 8449SOL    HW226247   0.847   2.275   3.634  0.8380 -0.0975  1.1018
 8450SOL     OW26248   4.358   0.456   1.430 -0.3321 -0.5225 -0.0994
 8450SOL    HW126249   4.414   0.373   1.429  0.8930  0.2591  0.2084
 8450SOL    HW226250   4.372   0.507   1.345 -0.4365 -0.2351  0.0525
 8451SOL     OW26251   3.812   3.801   1.805 -0.0329 -0.5080 -0.4420
 8451SOL    HW126252   3.869   3.882   1.818  0.6811 -1.1222  0.3538
 8451SOL    HW226253   3.769   3.776   1.891  0.8723 -1.7873 -0.3419
 8452SOL     OW26254   5.559   1.521   5.657 -0.1811  0.2475  0.2336
 8452SOL    HW126255   5.500   1.599   5.637 -1.2331 -0.4432  0.5747
 8452SOL    HW226256   5.583   1.520   5.754 -0.4202 -0.0235  0.2910
 8453SOL     OW26257   0.629   0.281   0.656 -0.2548 -0.2476 -0.5977
 8453SOL    HW126258   0.577   0.197   0.665 -1.4663  0.3869 -1.4436
 8453SOL    HW226259   0.695   0.272   0.581 -0.3297 -0.4602 -0.6384
 8454SOL     OW26260   5.248   6.472   1.810 -0.2341  0.1451 -0.0066
 8454SOL    HW126261   5.345   6.457   1.797  0.2094  1.1096  1.8077
 8454SOL    HW226262   5.198   6.445   1.728  1.1939 -3.4567  0.1550
 8455SOL     OW26263   5.669   1.687   2.250  0.2922 -0.4391 -0.0227
 8455SOL    HW126264   5.693   1.783   2.239 -0.4445 -0.4291 -1.8358
 8455SOL    HW226265   5.610   1.675   2.330  0.6267  0.5510  0.3821
 8456SOL     OW26266   3.849   0.206   2.599  0.0830  0.6001 -0.2254
 8456SOL    HW126267   3.944   0.175   2.600 -0.4749 -1.4522  2.0266
 8456SOL    HW226268   3.844   0.300   2.633  1.1946  0.0538  1.6193
 8457SOL     OW26269   0.587   0.063   6.522 -0.1924 -0.4685 -0.3341
 8457SOL    HW126270   0.665   0.121   6.546  1.7472 -3.0197 -0.0259
 8457SOL    HW226271   0.612   0.006   6.444 -1.2911 -2.2124  0.5460
 8458SOL     OW26272   6.822   6.392   0.006  0.3589 -0.1209  0.3929
 8458SOL    HW126273   6.819   6.304  -0.039  2.5130  1.3732 -3.0451
 8458SOL    HW226274   6.914   6.410   0.040  0.1750  1.1002  0.3222
 8459SOL     OW26275   2.338   4.220   3.510  0.1227 -0.0680 -0.0407
 8459SOL    HW126276   2.405   4.173   3.567  0.8701 -0.2139 -1.0113
 8459SOL    HW226277   2.378   4.304   3.474 -0.0205 -0.4212 -1.0471
 8460SOL     OW26278   3.471   3.460   2.139 -0.0633 -0.0160 -0.3718
 8460SOL    HW126279   3.439   3.553   2.155 -0.9301 -0.0565 -1.7675
 8460SOL    HW226280   3.410   3.414   2.076  0.2529 -1.6079  0.4338
 8461SOL     OW26281   6.394   3.640   2.284 -0.1136  0.1083  0.4408
 8461SOL    HW126282   6.476   3.664   2.233 -1.1502  0.6767 -1.0368
 8461SOL    HW226283   6.336   3.581   2.228 -0.8151 -0.1091  1.3699
 8462SOL     OW26284   2.870   2.988   1.710  0.0282 -0.0233 -0.3017
 8462SOL    HW126285   2.771   2.979   1.698  0.2234  0.6079 -3.1890
 8462SOL    HW226286   2.890   3.072   1.759 -0.8567  0.4469 -0.7198
 8463SOL     OW26287   5.763   1.207   4.337  0.5633 -0.0821  0.1461
 8463SOL    HW126288   5.790   1.206   4.241 -0.8629  0.5684 -0.2916
 8463SOL    HW226289   5.680   1.153   4.350  1.1716 -0.8083  1.1690
 8464SOL     OW26290   6.719   0.318   4.326 -0.6112 -0.2106  0.2981
 8464SOL    HW126291   6.651   0.290   4.394 -0.1624 -0.4258  0.6673
 8464SOL    HW226292   6.779   0.387   4.366  0.2357 -1.0138  0.4418
 8465SOL     OW26293   2.585   0.738   5.729  0.0744  0.5723  0.0574
 8465SOL    HW126294   2.654   0.680   5.772  0.1948  1.8095  1.6158
 8465SOL    HW226295   2.623   0.780   5.646  1.8305  2.5290  1.7573
 8466SOL     OW26296   0.238   6.505   2.329  0.3812  0.4331  0.0460
 8466SOL    HW126297   0.151   6.547   2.304 -0.3504 -0.4581  0.9947
 8466SOL    HW226298   0.254   6.425   2.271  0.8797  0.9335 -0.5274
 8467SOL     OW26299   4.050   4.082   7.001  0.4861  0.2837 -0.4356
 8467SOL    HW126300   4.109   4.153   6.962 -0.9145  1.2916 -0.8366
 8467SOL    HW226301   3.991   4.123   7.070  0.9803 -0.9205  0.7271
 8468SOL     OW26302   3.245   3.642   0.517  0.1438 -0.3757  0.1300
 8468SOL    HW126303   3.166   3.584   0.498  1.1129 -1.3104 -1.3057
 8468SOL    HW226304   3.302   3.648   0.435  2.5758 -1.3522  1.6440
 8469SOL     OW26305   4.313   4.271   6.745  0.2536 -0.7147 -0.0420
 8469SOL    HW126306   4.372   4.336   6.793  0.8618 -1.2696 -0.0135
 8469SOL    HW226307   4.365   4.230   6.670 -0.3130 -0.7322 -0.4232
 8470SOL     OW26308   2.530   3.404   5.864 -0.2917  0.0954  0.1988
 8470SOL    HW126309   2.514   3.306   5.851  0.4125  0.1691 -1.5435
 8470SOL    HW226310   2.534   3.449   5.774  1.4207  1.3642  0.8565
 8471SOL     OW26311   5.016   1.665   5.707 -0.6639 -0.6823  0.1363
 8471SOL    HW126312   4.953   1.712   5.769 -0.1850  0.1578 -0.0048
 8471SOL    HW226313   4.979   1.575   5.685 -4.5267  1.5444 -3.9649
 8472SOL     OW26314   1.515   6.269   3.358  0.0062  0.2215 -0.1354
 8472SOL    HW126315   1.556   6.298   3.271  0.3599  1.1343  0.3176
 8472SOL    HW226316   1.513   6.347   3.421  2.1818 -1.0393  1.6224
 8473SOL     OW26317   5.404   6.674   0.026 -0.2011  0.5778  0.3394
 8473SOL    HW126318   5.489   6.666   0.078  0.4712  2.7799 -0.3252
 8473SOL    HW226319   5.342   6.737   0.072  0.4965  2.7483 -1.5385
 8474SOL     OW26320   3.629   3.915   0.872  0.3094 -0.2795 -0.1658
 8474SOL    HW126321   3.680   3.870   0.799  0.3250  0.1512 -0.4227
 8474SOL    HW226322   3.665   3.885   0.961 -0.7889 -2.0801 -0.2842
 8475SOL     OW26323   5.397   1.505   3.705 -0.1838  0.1065 -0.1658
 8475SOL    HW126324   5.440   1.460   3.783 -1.5907 -0.5264  0.2591
 8475SOL    HW226325   5.354   1.437   3.646 -2.0431  0.8329  0.2968
 8476SOL     OW26326   6.019   2.090   4.133 -0.0921 -0.6984  0.9051
 8476SOL    HW126327   6.047   2.045   4.218  1.4250  0.8458  1.2952
 8476SOL    HW226328   5.934   2.141   4.149 -0.0878 -0.8241  1.3520
 8477SOL     OW26329   3.080   0.187   3.702 -0.0882 -0.4484 -0.7362
 8477SOL    HW126330   2.980   0.175   3.702 -0.3837  1.6338 -0.2933
 8477SOL    HW226331   3.117   0.154   3.789 -0.8182  1.3871  0.3383
 8478SOL     OW26332   0.393   6.927   5.066 -0.1442  0.2883  0.0181
 8478SOL    HW126333   0.322   6.997   5.072  0.7243  1.2712 -0.7540
 8478SOL    HW226334   0.420   6.914   4.971  0.6694 -0.1061  0.2855
 8479SOL     OW26335   4.333   6.793   2.241 -0.0168 -0.4141 -0.1058
 8479SOL    HW126336   4.247   6.754   2.273 -1.9337  1.1531 -2.8450
 8479SOL    HW226337   4.406   6.726   2.250 -1.1224 -1.3721  3.5311
 8480SOL     OW26338   2.294   6.788   2.431  0.5611 -0.3909 -0.1444
 8480SOL    HW126339   2.379   6.739   2.450  0.9957  1.0792  2.1997
 8480SOL    HW226340   2.300   6.880   2.469 -0.5644  1.2541 -3.5724
 8481SOL     OW26341   4.691   0.748   4.496 -0.0023  0.0477 -0.9768
 8481SOL    HW126342   4.763   0.817   4.491 -0.3010  0.5084  0.5188
 8481SOL    HW226343   4.670   0.715   4.404  1.0883  0.9576 -1.5814
 8482SOL     OW26344   5.801   0.862   2.930  0.5676  0.7611  0.4046
 8482SOL    HW126345   5.726   0.839   2.868  0.3466  0.8400  0.6429
 8482SOL    HW226346   5.868   0.788   2.930 -0.7621 -0.5367  2.1706
 8483SOL     OW26347   4.242   6.732   3.101 -1.0533 -0.2794 -0.0563
 8483SOL    HW126348   4.158   6.755   3.150 -0.5880 -0.0769  0.6613
 8483SOL    HW226349   4.318   6.785   3.139 -0.0744 -2.4294  1.1633
 8484SOL     OW26350   1.143   0.449   5.975 -0.1146  0.0593 -0.0418
 8484SOL    HW126351   1.162   0.533   6.027  0.9359 -0.3761  0.2991
 8484SOL    HW226352   1.090   0.386   6.032  0.2740 -0.0583  0.1923
 8485SOL     OW26353   6.817   3.614   0.668  0.6383  0.0921 -0.6573
 8485SOL    HW126354   6.906   3.571   0.671  0.2070 -0.9391 -1.8622
 8485SOL    HW226355   6.828   3.712   0.651  1.5071 -0.2595 -2.2759
 8486SOL     OW26356   4.461   2.508   3.579 -0.4707  0.2315  0.0204
 8486SOL    HW126357   4.511   2.527   3.663 -0.6432 -1.8264  0.6496
 8486SOL    HW226358   4.512   2.544   3.501  0.8794  0.1508  0.8331
 8487SOL     OW26359   5.214   2.413   0.175  0.0150 -0.0817  0.0676
 8487SOL    HW126360   5.242   2.509   0.181 -0.7534  0.3714 -2.4982
 8487SOL    HW226361   5.288   2.355   0.209  1.7718  1.2935 -1.1870
 8488SOL     OW26362   1.603   3.433   6.625 -0.0307  0.1867 -0.4266
 8488SOL    HW126363   1.695   3.397   6.642  0.9420  1.4764 -2.5234
 8488SOL    HW226364   1.547   3.363   6.581  1.0081  0.3243 -2.0552
 8489SOL     OW26365   2.897   6.801   5.220  0.3297 -0.1923  0.0505
 8489SOL    HW126366   2.953   6.752   5.287 -0.6900 -2.8656 -0.9103
 8489SOL    HW226367   2.809   6.823   5.261  0.0249 -1.0512 -0.1307
 8490SOL     OW26368   4.599   4.308   1.612 -0.5321 -0.0080  0.3918
 8490SOL    HW126369   4.559   4.388   1.567  1.3603  1.0453  0.5155
 8490SOL    HW226370   4.531   4.268   1.674 -1.7497  1.0421 -0.2059
 8491SOL     OW26371   6.911   0.433   6.977 -0.3256  0.1589 -0.1178
 8491SOL    HW126372   6.982   0.434   7.048  0.6067 -2.0284 -0.9320
 8491SOL    HW226373   6.832   0.381   7.010 -1.2997  1.9261  0.4866
 8492SOL     OW26374   6.353   4.450   4.979 -0.0464 -0.0668  0.4790
 8492SOL    HW126375   6.369   4.354   4.955 -1.7682  0.2932 -2.5227
 8492SOL    HW226376   6.417   4.508   4.929  0.0113  0.4531  1.1415
 8493SOL     OW26377   4.281   2.995   1.192  0.4765  0.0216 -0.0403
 8493SOL    HW126378   4.282   3.063   1.118  0.1346 -0.2636 -0.3083
 8493SOL    HW226379   4.305   2.905   1.155  1.5166  0.0932  0.4198
 8494SOL     OW26380   4.328   6.823   6.951  0.6786 -0.0179 -0.3975
 8494SOL    HW126381   4.345   6.742   7.006  1.2960  1.3269  1.5033
 8494SOL    HW226382   4.414   6.873   6.937  0.5008 -0.1588 -2.4192
 8495SOL     OW26383   1.510   2.276   0.991  0.0754  0.3038 -0.0987
 8495SOL    HW126384   1.448   2.208   1.032 -0.7645  0.4382 -1.1119
 8495SOL    HW226385   1.489   2.366   1.028  0.4656  0.1749  0.4427
 8496SOL     OW26386   0.880   2.763   4.375 -0.2415 -0.0944 -0.3380
 8496SOL    HW126387   0.892   2.854   4.335 -0.7904 -0.8338 -2.3002
 8496SOL    HW226388   0.920   2.761   4.466 -0.0429  2.0524 -0.3344
 8497SOL     OW26389   4.833   2.822   3.404  0.1501 -0.2401 -0.0142
 8497SOL    HW126390   4.822   2.824   3.305  2.0317  0.0902 -0.2587
 8497SOL    HW226391   4.849   2.915   3.438  2.3759 -0.6294  0.1654
 8498SOL     OW26392   5.680   6.453   1.027 -0.0297 -0.0680 -0.0598
 8498SOL    HW126393   5.680   6.415   0.934 -0.2490 -0.3821  0.0644
 8498SOL    HW226394   5.649   6.383   1.091 -0.0803  0.2111  0.2237
 8499SOL     OW26395   6.173   4.453   0.783 -0.5186  0.2068  0.1510
 8499SOL    HW126396   6.239   4.383   0.755 -1.5412 -1.2835  1.2748
 8499SOL    HW226397   6.217   4.516   0.847 -0.2404 -0.9483  1.1303
 8500SOL     OW26398   4.703   0.859   4.979  0.2584 -0.5883 -0.0385
 8500SOL    HW126399   4.763   0.808   5.040  1.4322 -0.5768 -1.1144
 8500SOL    HW226400   4.627   0.801   4.949  1.0716 -1.4357 -0.5289
 8501SOL     OW26401   2.551   2.131   0.601 -0.1156 -0.0460 -0.6607
 8501SOL    HW126402   2.479   2.200   0.594 -0.4571 -0.0820  1.6827
 8501SOL    HW226403   2.622   2.163   0.664  0.8491 -0.9070 -1.2753
 8502SOL     OW26404   1.870   6.691   4.084 -0.3548  0.7670  0.2702
 8502SOL    HW126405   1.919   6.643   4.156 -1.0997 -1.5695 -0.6857
 8502SOL    HW226406   1.934   6.743   4.028  1.2554 -2.6929 -1.3370
 8503SOL     OW26407   3.141   5.467   2.738 -0.3596  0.2282  0.3016
 8503SOL    HW126408   3.212   5.491   2.805 -0.1024 -2.9300  1.3383
 8503SOL    HW226409   3.166   5.504   2.649  2.8373 -0.9561  0.5445
 8504SOL     OW26410   2.660   5.433   3.826  0.0156 -0.2572 -0.5111
 8504SOL    HW126411   2.613   5.522   3.822  1.7620  0.8474  1.5321
 8504SOL    HW226412   2.741   5.436   3.768  0.1455 -0.4661 -0.3410
 8505SOL     OW26413   4.963   2.241   3.808  0.0452 -0.2128  0.6420
 8505SOL    HW126414   4.899   2.236   3.884  0.8192  1.4738  1.4717
 8505SOL    HW226415   4.921   2.289   3.731 -0.3917 -1.0179  0.3682
 8506SOL     OW26416   0.000   5.611   0.437  0.2134  0.0286 -0.7166
 8506SOL    HW126417  -0.083   5.667   0.436  0.9453  1.1632 -0.2368
 8506SOL    HW226418   0.074   5.660   0.392  1.2324  0.0634  0.8861
 8507SOL     OW26419   0.222   1.089   4.958 -0.1604  0.2326 -0.4285
 8507SOL    HW126420   0.226   1.026   5.036 -0.3058  0.0536 -0.5624
 8507SOL    HW226421   0.268   1.175   4.981 -1.3063  0.6707  0.3171
 8508SOL     OW26422   0.579   3.210   5.837 -0.3844  0.1595 -0.0408
 8508SOL    HW126423   0.520   3.162   5.901 -0.7832  1.6061  0.6982
 8508SOL    HW226424   0.623   3.143   5.776 -1.0487 -1.1111  0.8360
 8509SOL     OW26425   0.112   1.501   4.996 -0.5311 -0.9536 -0.0193
 8509SOL    HW126426   0.070   1.492   5.086 -1.1783 -3.9479 -0.5294
 8509SOL    HW226427   0.194   1.445   4.991  0.6743  0.7730 -0.7151
 8510SOL     OW26428   4.797   5.188   2.939 -0.1968  0.0848 -0.2429
 8510SOL    HW126429   4.734   5.169   2.864 -0.4531  1.3138 -0.3601
 8510SOL    HW226430   4.890   5.197   2.903 -0.0363 -1.0155 -0.1619
 8511SOL     OW26431   5.817   5.425   6.828  0.1471  0.8760  0.5246
 8511SOL    HW126432   5.840   5.413   6.731 -0.9165  0.6779  0.2808
 8511SOL    HW226433   5.891   5.473   6.874  1.1659  0.0163 -0.1463
 8512SOL     OW26434   4.243   2.378   6.290  0.4170  0.3768  0.3822
 8512SOL    HW126435   4.286   2.447   6.348  0.5201  0.9641 -0.3705
 8512SOL    HW226436   4.313   2.331   6.237  0.2799  0.1875  0.3693
 8513SOL     OW26437   6.949   4.255   1.476  0.4358 -0.2388  0.6065
 8513SOL    HW126438   6.978   4.348   1.502  2.1828 -0.9221  1.2004
 8513SOL    HW226439   6.862   4.235   1.521  0.1883  0.9859  0.7341
 8514SOL     OW26440   3.061   3.252   5.518 -0.4825 -0.1399  0.1560
 8514SOL    HW126441   3.117   3.214   5.445 -0.9005 -1.5767  0.5508
 8514SOL    HW226442   3.111   3.248   5.604 -0.1925  1.0599  0.0536
 8515SOL     OW26443   3.723   0.295   5.319  0.0568 -0.1503  0.5242
 8515SOL    HW126444   3.786   0.313   5.244 -2.2586  1.6258 -1.1456
 8515SOL    HW226445   3.748   0.350   5.399  2.5116 -2.0239  1.1899
 8516SOL     OW26446   5.524   3.857   3.902 -0.2053  0.4974  0.4105
 8516SOL    HW126447   5.430   3.851   3.936 -0.6684 -0.3626 -0.9568
 8516SOL    HW226448   5.567   3.767   3.907 -0.2369  0.3799 -1.0948
 8517SOL     OW26449   1.506   1.657   6.214  0.1827 -0.2584  0.3288
 8517SOL    HW126450   1.526   1.755   6.221 -0.8195 -0.0651  0.7532
 8517SOL    HW226451   1.434   1.643   6.146  0.8109 -0.7781 -0.2318
 8518SOL     OW26452   5.636   4.966   0.086 -0.0797 -0.3581  1.0129
 8518SOL    HW126453   5.627   4.991   0.183 -0.3268 -0.3591  0.9897
 8518SOL    HW226454   5.549   4.928   0.053 -0.6088  1.4284  0.2551
 8519SOL     OW26455   1.396   3.152   1.178 -0.2147  0.0070 -0.0637
 8519SOL    HW126456   1.427   3.235   1.130  1.5985  0.0967  1.1437
 8519SOL    HW226457   1.324   3.177   1.243  1.4477  1.0199  1.4872
 8520SOL     OW26458   3.785   3.189   6.561  0.1750 -0.2910  0.3869
 8520SOL    HW126459   3.839   3.106   6.543 -1.1216 -1.0362 -0.2463
 8520SOL    HW226460   3.706   3.165   6.618 -0.7080  0.3240 -0.5540
 8521SOL     OW26461   2.140   6.915   5.618 -0.1519 -0.5747  0.1281
 8521SOL    HW126462   2.187   6.883   5.700  0.2873  0.2841  0.2304
 8521SOL    HW226463   2.129   6.840   5.553  2.5180 -0.5617 -0.4544
 8522SOL     OW26464   1.085   1.284   1.120 -0.3978  0.5077  0.3223
 8522SOL    HW126465   1.108   1.247   1.211 -0.2164 -1.1290 -0.3462
 8522SOL    HW226466   1.017   1.224   1.077  2.3093 -1.0461 -2.1426
 8523SOL     OW26467   1.923   1.784   1.713 -0.0607  0.0108 -0.3872
 8523SOL    HW126468   2.009   1.757   1.757 -0.4886 -0.0947  0.3975
 8523SOL    HW226469   1.886   1.707   1.661  1.0202  0.4619 -1.9120
 8524SOL     OW26470   4.415   6.560   5.135 -0.2425  0.5227 -0.2764
 8524SOL    HW126471   4.449   6.651   5.110  0.7983 -0.3099 -2.1476
 8524SOL    HW226472   4.471   6.522   5.208  0.5074  0.6825 -0.7489
 8525SOL     OW26473   5.965   3.432   1.166  0.3766  0.0163 -0.4081
 8525SOL    HW126474   5.928   3.372   1.095  2.2310 -0.3585 -1.0906
 8525SOL    HW226475   5.973   3.525   1.131  1.6926 -0.2524 -0.8678
 8526SOL     OW26476   0.431   5.396   6.362  0.1295 -0.1968 -0.2016
 8526SOL    HW126477   0.404   5.407   6.457  0.1510  0.5102 -0.2736
 8526SOL    HW226478   0.520   5.440   6.347  0.7397 -1.4037 -0.2566
 8527SOL     OW26479   2.365   0.080   5.657 -0.0774  0.1027  0.0478
 8527SOL    HW126480   2.350   0.137   5.738 -1.9437  0.7056 -0.6789
 8527SOL    HW226481   2.295   0.009   5.652 -0.7621  0.8391 -1.6617
 8528SOL     OW26482   4.886   1.131   2.224 -0.5149  0.5081 -0.3520
 8528SOL    HW126483   4.819   1.076   2.175 -0.0012 -0.6495  0.2195
 8528SOL    HW226484   4.854   1.150   2.316 -0.3524  0.5119 -0.2946
 8529SOL     OW26485   4.738   6.623   5.490 -0.4327 -0.5466  0.0324
 8529SOL    HW126486   4.650   6.664   5.465  0.4176  0.5363 -1.3015
 8529SOL    HW226487   4.807   6.648   5.422  1.1295 -0.6236  1.5312
 8530SOL     OW26488   4.150   3.625   4.489 -0.1769 -0.5931 -0.0840
 8530SOL    HW126489   4.233   3.627   4.433 -0.1261 -0.8502 -0.0208
 8530SOL    HW226490   4.098   3.709   4.476  0.9421  0.3336  1.1590
 8531SOL     OW26491   6.746   5.264   4.362  0.1925 -0.0436 -0.4226
 8531SOL    HW126492   6.751   5.301   4.269  0.3746 -0.4021 -0.5564
 8531SOL    HW226493   6.652   5.273   4.396  0.1041  0.0035 -0.6761
 8532SOL     OW26494   1.126   5.287   0.811 -0.0256 -0.0015 -0.5563
 8532SOL    HW126495   1.069   5.335   0.878  0.1270 -0.0093 -0.4213
 8532SOL    HW226496   1.130   5.190   0.834  1.5055  0.2865  0.4751
 8533SOL     OW26497   2.408   6.382   4.832  0.1786 -0.5612 -0.6087
 8533SOL    HW126498   2.502   6.408   4.853 -0.1711 -0.1504  0.5200
 8533SOL    HW226499   2.372   6.325   4.906 -0.2211 -1.3450 -1.3918
 8534SOL     OW26500   2.184   1.814   1.853  0.3519 -0.7603  0.0130
 8534SOL    HW126501   2.172   1.752   1.931 -0.5108 -1.0383 -0.3286
 8534SOL    HW226502   2.184   1.908   1.885  1.0333 -0.9088  0.4663
 8535SOL     OW26503   6.474   6.822   1.559 -0.7123 -0.5203  0.8315
 8535SOL    HW126504   6.482   6.906   1.611  2.4558  0.3055 -0.7146
 8535SOL    HW226505   6.393   6.772   1.588 -0.5690  1.1066  4.5996
 8536SOL     OW26506   3.920   1.899   4.205  0.3096  0.2018 -0.5884
 8536SOL    HW126507   3.987   1.904   4.132  0.8724  0.6956 -0.0462
 8536SOL    HW226508   3.900   1.990   4.240 -0.8587  0.0976 -0.9156
 8537SOL     OW26509   5.534   1.549   3.298 -0.7347  0.9418  0.6490
 8537SOL    HW126510   5.529   1.614   3.374 -1.4301  0.8951  0.6522
 8537SOL    HW226511   5.477   1.583   3.222 -0.5117  0.6999  0.3744
 8538SOL     OW26512   2.303   3.035   1.061  0.5907  0.0559  0.2530
 8538SOL    HW126513   2.293   2.937   1.078 -0.3475  0.2717  1.0199
 8538SOL    HW226514   2.348   3.077   1.139  0.9483  0.2512 -0.0550
 8539SOL     OW26515   4.643   2.762   1.209  0.1552 -0.9749  0.1733
 8539SOL    HW126516   4.637   2.789   1.305  0.1114 -1.4365  0.3008
 8539SOL    HW226517   4.592   2.828   1.153  0.1289 -0.7394  0.4698
 8540SOL     OW26518   5.428   0.562   3.537  0.3334  0.5248  0.4668
 8540SOL    HW126519   5.425   0.496   3.612  1.3047  0.4114  0.4082
 8540SOL    HW226520   5.481   0.642   3.565  1.1324  0.2625 -0.2680
 8541SOL     OW26521   6.889   1.997   2.393  0.0396  0.1439 -0.0505
 8541SOL    HW126522   6.915   2.020   2.487  1.2262  0.8105 -0.5265
 8541SOL    HW226523   6.793   2.020   2.379 -0.2201 -0.1631  1.0537
 8542SOL     OW26524   3.966   4.604   6.320  0.0179  0.3760  0.2101
 8542SOL    HW126525   3.953   4.691   6.368  0.1877 -0.1189  1.1865
 8542SOL    HW226526   4.006   4.620   6.230  0.2987  1.2849  0.4902
 8543SOL     OW26527   5.308   2.949   6.682 -0.4061 -0.3086  0.3978
 8543SOL    HW126528   5.237   3.003   6.638 -1.6238 -0.6887  1.7843
 8543SOL    HW226529   5.301   2.854   6.652  0.1553 -0.1707 -0.1901
 8544SOL     OW26530   6.400   1.511   4.419  0.5657 -0.0854 -0.1709
 8544SOL    HW126531   6.328   1.575   4.446  0.9514  0.1495  0.3264
 8544SOL    HW226532   6.489   1.554   4.432  0.8325 -0.7478  0.2521
 8545SOL     OW26533   4.300   1.713   4.853 -0.3296 -0.0540  0.4275
 8545SOL    HW126534   4.201   1.701   4.848 -0.3462  0.5639 -2.1365
 8545SOL    HW226535   4.323   1.809   4.838  0.7112 -0.4751 -0.9241
 8546SOL     OW26536   4.688   2.033   0.812 -0.6933 -0.1903 -0.1381
 8546SOL    HW126537   4.646   2.013   0.723 -1.1411 -0.7673  0.1975
 8546SOL    HW226538   4.780   1.993   0.814 -0.5263  0.1695 -0.4856
 8547SOL     OW26539   1.919   4.659   1.390  0.3859 -0.0100 -0.3095
 8547SOL    HW126540   1.929   4.697   1.298  1.9821  0.2638 -0.0502
 8547SOL    HW226541   2.009   4.635   1.426 -0.0112  1.4888  1.8594
 8548SOL     OW26542   6.293   2.348   0.529 -0.4390  0.2235  0.3224
 8548SOL    HW126543   6.378   2.340   0.476 -1.1902 -1.1395 -0.7136
 8548SOL    HW226544   6.236   2.420   0.490 -0.9929 -0.7805 -0.7600
 8549SOL     OW26545   5.278   3.012   4.916  0.1559  0.0633 -0.3007
 8549SOL    HW126546   5.352   2.955   4.881  2.3311  2.3330  0.3499
 8549SOL    HW226547   5.225   2.960   4.983  0.1350 -2.1121 -1.9105
 8550SOL     OW26548   1.111   3.502   5.058  0.4800 -0.0913  0.1830
 8550SOL    HW126549   1.032   3.447   5.087  0.0747  0.5048  0.2348
 8550SOL    HW226550   1.161   3.533   5.139  0.7535 -0.4448  0.1510
 8551SOL     OW26551   2.859   4.891   1.348 -0.0732 -0.0570 -0.1346
 8551SOL    HW126552   2.902   4.839   1.422  1.1169  1.4378  0.2648
 8551SOL    HW226553   2.824   4.827   1.279 -1.1378 -1.4829  1.6358
 8552SOL     OW26554   3.823   6.804   4.820 -0.9546 -0.2261 -0.5474
 8552SOL    HW126555   3.851   6.831   4.728 -0.9347  0.6942 -0.2828
 8552SOL    HW226556   3.901   6.813   4.883 -0.3011 -3.0297 -0.8220
 8553SOL     OW26557   6.157   5.552   6.634  0.1651  0.2679 -0.4641
 8553SOL    HW126558   6.202   5.617   6.573  0.7341 -0.7349 -1.1510
 8553SOL    HW226559   6.201   5.556   6.724 -2.0816  3.3246  0.6701
 8554SOL     OW26560   0.188   6.641   0.385 -0.4199  0.1890 -0.0967
 8554SOL    HW126561   0.166   6.738   0.399 -2.3592 -0.0609 -1.1204
 8554SOL    HW226562   0.207   6.625   0.289 -1.8752 -0.7343 -0.2559
 8555SOL     OW26563   1.291   4.707   3.260  0.3240 -0.2074 -0.8332
 8555SOL    HW126564   1.333   4.657   3.336 -1.5298  0.0099  0.3877
 8555SOL    HW226565   1.263   4.642   3.189  0.6391 -0.5734 -0.6275
 8556SOL     OW26566   4.830   0.631   4.023 -0.1849 -0.1000  0.0258
 8556SOL    HW126567   4.921   0.606   3.989  0.1239  2.1328 -1.0284
 8556SOL    HW226568   4.774   0.662   3.946 -2.1125 -2.0207  0.5604
 8557SOL     OW26569   5.848   2.849   2.483 -0.6440  0.2823  0.0307
 8557SOL    HW126570   5.902   2.798   2.416  0.2256  0.5032  0.5420
 8557SOL    HW226571   5.752   2.851   2.454 -0.3800 -0.0829 -0.9210
 8558SOL     OW26572   0.480   3.848   1.270 -0.6495  0.7442  0.7578
 8558SOL    HW126573   0.393   3.802   1.254 -1.1943  1.2797  2.0263
 8558SOL    HW226574   0.474   3.903   1.353  0.6719  1.3887  0.4583
 8559SOL     OW26575   0.769   1.358   4.446  0.3054  0.3859 -0.0730
 8559SOL    HW126576   0.855   1.307   4.452  0.6302  0.9589  0.3340
 8559SOL    HW226577   0.694   1.303   4.481  0.3259 -0.5014 -1.3379
 8560SOL     OW26578   1.067   1.866   6.800  0.0709  0.3191  0.2298
 8560SOL    HW126579   1.027   1.892   6.888 -1.1269 -0.7942  0.0334
 8560SOL    HW226580   1.006   1.894   6.726  0.2842 -0.2217 -0.1538
 8561SOL     OW26581   3.608   6.724   5.122  0.0314 -0.1491  0.4003
 8561SOL    HW126582   3.690   6.666   5.112 -0.9210 -1.3003 -1.3506
 8561SOL    HW226583   3.608   6.767   5.212  1.8598 -1.2201  0.9640
 8562SOL     OW26584   4.648   2.233   5.503  0.1498  0.6244  0.6325
 8562SOL    HW126585   4.679   2.254   5.596  1.7513  1.7593 -0.1205
 8562SOL    HW226586   4.649   2.316   5.448  2.8367 -0.6111 -1.3953
 8563SOL     OW26587   2.165   5.882   0.169  0.2214 -0.2405  0.0181
 8563SOL    HW126588   2.263   5.901   0.163  0.8090 -2.9540 -0.2867
 8563SOL    HW226589   2.143   5.845   0.260 -0.2688 -0.7855 -0.3078
 8564SOL     OW26590   1.234   6.418   1.527  0.7579  0.1119  0.5990
 8564SOL    HW126591   1.179   6.500   1.541 -0.3905 -0.4527 -0.4626
 8564SOL    HW226592   1.310   6.439   1.465  0.6259  0.4305  0.5440
 8565SOL     OW26593   3.876   2.047   1.928 -0.5645 -0.1871 -0.5103
 8565SOL    HW126594   3.814   2.120   1.954  0.2816  0.0556  0.9898
 8565SOL    HW226595   3.916   2.067   1.838 -2.4191 -0.2345 -1.3798
 8566SOL     OW26596   6.656   2.283   4.061 -0.2542 -0.2425  0.2344
 8566SOL    HW126597   6.612   2.359   4.110  0.0755  0.2881 -0.2854
 8566SOL    HW226598   6.744   2.313   4.026 -2.2842  0.9813 -4.6646
 8567SOL     OW26599   5.550   5.743   0.402  0.1780  0.0092 -0.0632
 8567SOL    HW126600   5.624   5.724   0.467 -0.2936  0.6173  0.6578
 8567SOL    HW226601   5.517   5.656   0.364  0.5984 -0.3382  0.3473
 8568SOL     OW26602   4.025   0.360   0.738 -0.8693  0.3954  0.4426
 8568SOL    HW126603   4.082   0.283   0.768 -1.6753 -0.2660  0.3018
 8568SOL    HW226604   3.935   0.326   0.710 -2.2448  1.6525  2.9727
 8569SOL     OW26605   5.231   1.672   6.298  0.0673  0.1490  0.5940
 8569SOL    HW126606   5.327   1.655   6.320  0.5615  1.9721  0.0798
 8569SOL    HW226607   5.202   1.613   6.223  1.0298  0.1195  0.2369
 8570SOL     OW26608   6.554   5.400   0.504  0.2109  0.1585 -0.5024
 8570SOL    HW126609   6.456   5.417   0.518  0.3653  0.3485  0.4192
 8570SOL    HW226610   6.593   5.478   0.455 -0.1464 -0.0322 -1.0981
 8571SOL     OW26611   0.446   6.411   6.083 -0.0740  0.2657  0.0797
 8571SOL    HW126612   0.379   6.442   6.150 -2.4538 -0.4458 -1.8063
 8571SOL    HW226613   0.490   6.491   6.041 -0.3323  0.7907  0.7844
 8572SOL     OW26614   1.483   4.599   6.862 -0.9556  0.2247 -0.3391
 8572SOL    HW126615   1.442   4.659   6.931 -0.9832  0.1893 -0.3249
 8572SOL    HW226616   1.582   4.613   6.861 -0.9297  0.0678 -0.1393
 8573SOL     OW26617   4.445   0.488   4.211 -0.2186  0.3964 -0.3270
 8573SOL    HW126618   4.411   0.400   4.242  0.4498 -0.0251 -0.7754
 8573SOL    HW226619   4.370   0.554   4.211 -0.1045  0.6930  3.0463
 8574SOL     OW26620   1.137   1.862   3.993 -0.3272  0.1204 -0.9696
 8574SOL    HW126621   1.189   1.946   4.014  2.6168 -1.9482  0.8834
 8574SOL    HW226622   1.169   1.824   3.907  1.9644 -1.4830  0.4659
 8575SOL     OW26623   3.528   5.296   4.843 -0.4111  0.1320  0.6075
 8575SOL    HW126624   3.579   5.377   4.873  0.8853 -0.3121 -0.2952
 8575SOL    HW226625   3.544   5.221   4.908  1.9116 -0.6494 -0.7309
 8576SOL     OW26626   3.155   0.481   1.076 -0.8898  0.5605 -0.0355
 8576SOL    HW126627   3.060   0.510   1.087 -0.7954  2.3427 -2.8206
 8576SOL    HW226628   3.159   0.405   1.011 -0.4642 -0.5098  1.1894
 8577SOL     OW26629   6.997   1.148   3.668 -0.0732  0.0063  0.4597
 8577SOL    HW126630   6.962   1.217   3.605 -0.7045  0.3306  1.1536
 8577SOL    HW226631   7.061   1.190   3.732  1.3124 -0.5052 -0.5406
 8578SOL     OW26632   6.409   0.893   5.282  0.0299  0.6129 -0.3048
 8578SOL    HW126633   6.347   0.927   5.211  0.9494  1.2445 -0.8331
 8578SOL    HW226634   6.492   0.857   5.239 -0.1088 -0.5488  0.3678
 8579SOL     OW26635   2.093   3.615   2.120  0.1820  0.2059 -0.1832
 8579SOL    HW126636   2.000   3.592   2.091  0.3020 -0.4532 -0.0614
 8579SOL    HW226637   2.155   3.540   2.094  0.8228  1.0024 -1.0114
 8580SOL     OW26638   2.938   6.562   0.416  0.0189 -0.2837  0.2682
 8580SOL    HW126639   2.940   6.662   0.412 -0.0109 -0.3020 -0.2089
 8580SOL    HW226640   2.922   6.533   0.510  1.2121  0.1441  0.6168
 8581SOL     OW26641   2.850   3.232   0.606 -0.1135 -0.7659 -0.1916
 8581SOL    HW126642   2.891   3.203   0.693  0.5819  3.0487  0.9490
 8581SOL    HW226643   2.752   3.211   0.607 -0.0184 -1.2668  1.3009
 8582SOL     OW26644   4.155   4.327   0.596 -0.3866 -0.5155 -0.5960
 8582SOL    HW126645   4.188   4.234   0.582 -0.4945 -0.8785  1.2390
 8582SOL    HW226646   4.142   4.343   0.694 -0.1892  1.5071 -0.8565
 8583SOL     OW26647   4.697   0.506   5.640  0.0616 -0.5915  0.1761
 8583SOL    HW126648   4.756   0.583   5.614  0.2103 -1.4541 -2.3069
 8583SOL    HW226649   4.611   0.512   5.590 -0.1407 -1.7474  0.3693
 8584SOL     OW26650   6.039   6.186   0.056 -0.6547  0.3434  0.3896
 8584SOL    HW126651   6.037   6.250   0.133 -0.1960 -0.6043  1.2041
 8584SOL    HW226652   5.946   6.173   0.021 -0.9024  0.5803  0.9467
 8585SOL     OW26653   1.966   1.314   1.526  0.9085 -0.3397  0.2917
 8585SOL    HW126654   1.899   1.258   1.478 -1.1359  0.2821  2.2479
 8585SOL    HW226655   2.053   1.264   1.533  0.3498 -1.6279 -1.3258
 8586SOL     OW26656   4.485   4.864   3.767 -0.2739 -0.1404 -0.1127
 8586SOL    HW126657   4.434   4.779   3.778 -0.4368 -0.1905 -1.1733
 8586SOL    HW226658   4.514   4.874   3.672  0.6133  0.5049  0.2088
 8587SOL     OW26659   0.642   6.303   2.322 -0.3705  0.9768  0.1819
 8587SOL    HW126660   0.726   6.344   2.288  0.2848 -0.4537  0.0015
 8587SOL    HW226661   0.659   6.207   2.346 -1.9234  0.6918  0.2425
 8588SOL     OW26662   2.921   3.394   5.858 -0.0983  0.4884 -0.2518
 8588SOL    HW126663   2.886   3.424   5.769 -0.5513  1.6769  0.3014
 8588SOL    HW226664   3.000   3.334   5.844 -1.1068 -0.6391 -1.4837
 8589SOL     OW26665   1.968   2.216   5.551  0.2115  0.2853 -0.0296
 8589SOL    HW126666   1.872   2.236   5.572 -0.2776 -0.5959 -1.3318
 8589SOL    HW226667   1.982   2.218   5.452  1.4416 -0.0435  0.1229
 8590SOL     OW26668   4.831   6.000   6.239 -0.4533  0.0357 -0.4593
 8590SOL    HW126669   4.741   6.029   6.208  0.5882  1.4846 -2.4259
 8590SOL    HW226670   4.849   5.907   6.208 -0.3892  0.5958 -2.2074
 8591SOL     OW26671   1.423   0.719   5.458  0.3892 -0.1606 -0.2592
 8591SOL    HW126672   1.352   0.747   5.523  0.6817 -1.4683  0.6521
 8591SOL    HW226673   1.398   0.751   5.366 -1.4262 -0.6408  0.0296
 8592SOL     OW26674   5.721   6.571   0.048  0.1025 -0.3622  0.6739
 8592SOL    HW126675   5.820   6.568   0.061  0.2449 -0.4046 -0.3291
 8592SOL    HW226676   5.696   6.514  -0.030 -0.1488  3.2831 -2.1656
 8593SOL     OW26677   6.446   3.988   1.612  0.7380  0.2441 -0.2444
 8593SOL    HW126678   6.379   4.060   1.630  0.9325  0.5505 -0.7034
 8593SOL    HW226679   6.481   3.998   1.518  1.9579  0.5320  0.2193
 8594SOL     OW26680   3.754   3.058   3.771  0.7263 -0.3104  0.1590
 8594SOL    HW126681   3.695   2.992   3.818  0.8448  0.3966  1.3487
 8594SOL    HW226682   3.809   3.011   3.703 -0.2581 -1.1979 -0.0470
 8595SOL     OW26683   0.089   3.837   6.674  0.4294 -0.1306 -0.8735
 8595SOL    HW126684  -0.002   3.820   6.636  1.3102  0.9737 -3.7524
 8595SOL    HW226685   0.091   3.928   6.716  0.1238 -0.3106 -0.4609
 8596SOL     OW26686   1.947   4.520   3.030 -0.3129  0.2002  0.5474
 8596SOL    HW126687   1.984   4.519   3.123 -1.8021  0.7282  1.1804
 8596SOL    HW226688   1.897   4.435   3.013  0.0159  0.0733  0.1925
 8597SOL     OW26689   2.516   1.066   0.527 -1.0802  0.0219  0.2173
 8597SOL    HW126690   2.490   0.970   0.526  0.7609 -0.5465 -1.8594
 8597SOL    HW226691   2.484   1.110   0.443  2.9049 -0.3601 -1.7651
 8598SOL     OW26692   0.081   2.936   3.966  0.4269  0.7532 -0.0569
 8598SOL    HW126693   0.038   2.846   3.962  1.6113 -0.0780  2.8351
 8598SOL    HW226694   0.153   2.941   3.897  0.0669 -0.3608 -0.5404
 8599SOL     OW26695   0.427   0.823   2.609 -0.5531  0.4518 -0.2535
 8599SOL    HW126696   0.456   0.751   2.672 -1.7634  1.1960  1.2008
 8599SOL    HW226697   0.333   0.805   2.580 -0.9479  1.5490  0.3072
 8600SOL     OW26698   6.217   2.647   5.749 -0.4588  0.0280  0.4357
 8600SOL    HW126699   6.188   2.580   5.680 -1.3096  0.2847  0.5380
 8600SOL    HW226700   6.251   2.729   5.703 -1.4016  0.3584  0.3188
 8601SOL     OW26701   0.911   6.785   4.585 -0.4591 -1.0637 -0.1205
 8601SOL    HW126702   0.829   6.771   4.531 -2.4019  1.4234  1.9294
 8601SOL    HW226703   0.959   6.867   4.552 -1.9362  0.7809  1.9988
 8602SOL     OW26704   0.671   5.858   3.370  0.4189  0.4505  0.0499
 8602SOL    HW126705   0.678   5.846   3.271  0.6258  1.1546 -0.0291
 8602SOL    HW226706   0.732   5.794   3.416  1.1778  0.8938 -0.3265
 8603SOL     OW26707   5.276   3.030   2.134 -0.5077  0.4166  0.1083
 8603SOL    HW126708   5.215   3.085   2.191 -1.1529  0.5411 -0.6915
 8603SOL    HW226709   5.300   3.082   2.052 -1.3721 -0.5893 -0.8090
 8604SOL     OW26710   5.016   3.806   4.574  0.1147 -0.1253  0.0452
 8604SOL    HW126711   5.100   3.760   4.545  0.0365  0.0921 -0.5483
 8604SOL    HW226712   4.991   3.776   4.666  1.1082  0.1794  0.4229
 8605SOL     OW26713   3.035   5.040   1.682 -0.4743 -0.4910 -0.0088
 8605SOL    HW126714   3.084   5.001   1.760  0.6654 -1.2498 -1.0812
 8605SOL    HW226715   3.009   5.135   1.703  0.9309 -0.2649  0.7947
 8606SOL     OW26716   4.866   3.787   4.192  0.3119  0.6607 -0.1931
 8606SOL    HW126717   4.925   3.867   4.205 -0.4119  1.7114 -2.7062
 8606SOL    HW226718   4.892   3.741   4.108 -0.2986 -0.8790  0.4368
 8607SOL     OW26719   2.564   0.838   0.014  0.2798  0.2660  0.2797
 8607SOL    HW126720   2.591   0.762  -0.045  1.1512 -0.8042  1.9563
 8607SOL    HW226721   2.646   0.889   0.041  0.1190 -0.1948  1.7380
 8608SOL     OW26722   5.138   5.621   2.396 -0.3173  0.4416  0.2480
 8608SOL    HW126723   5.234   5.594   2.406 -0.8920 -1.4801  0.9664
 8608SOL    HW226724   5.114   5.623   2.299  0.5138  1.2387  0.0490
 8609SOL     OW26725   6.244   6.275   4.922 -0.1775  0.3957  0.2939
 8609SOL    HW126726   6.172   6.331   4.963 -0.5995 -1.1226  1.7097
 8609SOL    HW226727   6.333   6.302   4.960  0.1514  2.6255 -1.8357
 8610SOL     OW26728   0.773   6.601   5.436 -0.6204  0.2318  0.3786
 8610SOL    HW126729   0.689   6.580   5.386 -0.6461  0.3197  0.3831
 8610SOL    HW226730   0.841   6.640   5.373  0.3508 -2.1670 -0.1743
 8611SOL     OW26731   2.789   1.080   1.520  0.6794 -0.2046 -0.5900
 8611SOL    HW126732   2.745   1.169   1.513 -1.2633 -0.9622  1.0925
 8611SOL    HW226733   2.862   1.083   1.589  0.5911  0.0764 -0.5105
 8612SOL     OW26734   5.191   3.400   3.471 -0.4963 -0.5204  0.8000
 8612SOL    HW126735   5.275   3.345   3.473 -1.1839 -1.5860  1.1298
 8612SOL    HW226736   5.120   3.353   3.523 -1.3211  0.3484  0.4725
 8613SOL     OW26737   1.388   6.228   0.891  0.5030  0.4389  0.1657
 8613SOL    HW126738   1.450   6.183   0.955 -1.5584 -2.5746  0.2408
 8613SOL    HW226739   1.414   6.204   0.797 -0.1485 -0.3003  0.1704
 8614SOL     OW26740   1.228   2.812   2.928 -0.0446 -0.1256  0.2768
 8614SOL    HW126741   1.325   2.825   2.951 -0.0319 -1.5422  1.1577
 8614SOL    HW226742   1.219   2.801   2.829  0.8085 -0.7525  0.2545
 8615SOL     OW26743   2.999   2.517   6.352 -0.1704 -0.4881  0.4625
 8615SOL    HW126744   3.047   2.569   6.423  1.4979 -1.7305  0.3057
 8615SOL    HW226745   2.974   2.427   6.389 -1.5335 -0.2184  0.2246
 8616SOL     OW26746   0.161   4.132   6.722  0.2394 -0.2696 -0.5616
 8616SOL    HW126747   0.095   4.171   6.658 -0.2881  1.0086  0.7236
 8616SOL    HW226748   0.253   4.137   6.682 -0.2510 -0.9071 -1.8293
 8617SOL     OW26749   0.114   1.479   1.496  0.2908 -0.4505  0.2876
 8617SOL    HW126750   0.201   1.494   1.543  0.3026  0.1604  0.0839
 8617SOL    HW226751   0.127   1.490   1.398 -0.2073  0.6390  0.3272
 8618SOL     OW26752   3.015   6.739   3.399 -0.1332 -0.2854  0.2749
 8618SOL    HW126753   2.927   6.716   3.357  1.2153 -2.6468 -1.4755
 8618SOL    HW226754   3.049   6.661   3.450  1.8136 -0.1276 -0.6879
 8619SOL     OW26755   4.172   5.954   6.932 -0.0412  0.2514 -0.5009
 8619SOL    HW126756   4.078   5.975   6.957  0.3699  2.6372 -0.7181
 8619SOL    HW226757   4.224   5.929   7.014  0.2215  3.5847  0.4620
 8620SOL     OW26758   5.732   5.342   4.502 -0.1211 -0.3659 -0.1285
 8620SOL    HW126759   5.676   5.383   4.431 -0.6108 -0.2953  0.2994
 8620SOL    HW226760   5.678   5.275   4.553  0.5737 -1.3231 -0.6144
 8621SOL     OW26761   0.144   0.655   3.358 -0.3227 -0.2452  0.1774
 8621SOL    HW126762   0.084   0.578   3.381 -0.5556  0.1953  1.0892
 8621SOL    HW226763   0.236   0.621   3.338 -0.7080 -0.8684 -0.6109
 8622SOL     OW26764   5.287   4.838   0.002  0.8735  0.7740  0.6766
 8622SOL    HW126765   5.292   4.924  -0.049 -3.3843  0.6370 -0.3409
 8622SOL    HW226766   5.205   4.839   0.060 -0.2230 -3.1299 -0.5203
 8623SOL     OW26767   6.855   1.588   3.332  0.2737  0.3089  0.0221
 8623SOL    HW126768   6.868   1.512   3.269  0.1258  0.9312 -0.7808
 8623SOL    HW226769   6.942   1.612   3.375  0.5085  0.2996 -0.4451
 8624SOL     OW26770   5.753   3.639   3.617  0.5922  0.6949 -0.1004
 8624SOL    HW126771   5.810   3.713   3.651 -0.3112  1.9360 -1.2118
 8624SOL    HW226772   5.807   3.581   3.556  1.5865 -0.2146  1.5660
 8625SOL     OW26773   3.225   0.055   5.880 -0.2654  0.9431  0.2676
 8625SOL    HW126774   3.216   0.073   5.782 -0.0543 -2.3138 -0.4522
 8625SOL    HW226775   3.136   0.066   5.925 -0.5254  1.7159 -0.4287
 8626SOL     OW26776   3.730   3.560   1.683  0.0818 -0.2918 -0.4791
 8626SOL    HW126777   3.773   3.491   1.741  1.2968 -0.3738 -1.4402
 8626SOL    HW226778   3.756   3.651   1.716 -0.1266 -0.3144 -0.2452
 8627SOL     OW26779   3.617   0.612   1.762  0.0001  0.0466 -0.0348
 8627SOL    HW126780   3.554   0.651   1.829  0.5229 -0.2113  0.6258
 8627SOL    HW226781   3.650   0.684   1.701 -0.3562  0.3186  0.0934
 8628SOL     OW26782   6.157   0.760   1.455  0.4601 -0.1047  0.0383
 8628SOL    HW126783   6.084   0.703   1.417  2.3191 -0.7570 -2.8558
 8628SOL    HW226784   6.155   0.753   1.555 -4.2217  1.0477  0.2670
 8629SOL     OW26785   0.643   6.015   5.082  0.8518  0.4405 -0.4927
 8629SOL    HW126786   0.616   6.089   5.020  0.4853  0.5604 -0.1884
 8629SOL    HW226787   0.667   6.053   5.171 -2.4673 -0.0407  0.7270
 8630SOL     OW26788   5.188   6.566   3.817 -0.1134  0.1647  0.2107
 8630SOL    HW126789   5.147   6.580   3.907  1.4838  1.1896  0.8286
 8630SOL    HW226790   5.232   6.476   3.814  2.8617  1.4466  1.7811
 8631SOL     OW26791   4.188   0.668   3.303  0.0447  0.0628  0.5024
 8631SOL    HW126792   4.155   0.664   3.398 -1.4448 -1.2909 -0.0385
 8631SOL    HW226793   4.247   0.589   3.285  2.0602  1.4002  0.8537
 8632SOL     OW26794   4.538   0.521   2.694  0.4518  0.2150 -0.0057
 8632SOL    HW126795   4.460   0.551   2.639 -0.0357 -0.4439  0.3105
 8632SOL    HW226796   4.619   0.574   2.669 -0.1755  1.1576 -0.0892
 8633SOL     OW26797   6.356   6.160   3.361  0.5811  0.3151  0.0788
 8633SOL    HW126798   6.341   6.246   3.312  3.5631  0.7616 -0.2538
 8633SOL    HW226799   6.377   6.179   3.457 -1.3460 -0.2805  0.6542
 8634SOL     OW26800   6.618   6.746   0.543  0.2795  0.2686 -0.6770
 8634SOL    HW126801   6.604   6.697   0.629  0.6658  0.4825 -0.4887
 8634SOL    HW226802   6.555   6.710   0.474  1.6719 -1.6837 -1.0292
 8635SOL     OW26803   6.675   4.377   6.620  0.2662  0.9160 -0.1084
 8635SOL    HW126804   6.716   4.285   6.622  1.2672  1.3416 -0.3817
 8635SOL    HW226805   6.692   4.418   6.530 -0.2523  1.3391 -0.0144
 8636SOL     OW26806   3.842   1.182   0.039  0.4945 -0.2742  0.1833
 8636SOL    HW126807   3.817   1.087   0.061  1.8110 -0.8284 -0.5751
 8636SOL    HW226808   3.833   1.196  -0.060 -0.8628  0.7829  0.4236
 8637SOL     OW26809   2.077   0.791   3.194 -0.2270  0.3303 -0.3747
 8637SOL    HW126810   2.094   0.696   3.220 -0.1564  0.1370 -1.1079
 8637SOL    HW226811   1.989   0.796   3.145 -0.6543  0.7826  0.4341
 8638SOL     OW26812   5.464   4.545   1.281 -0.2021  0.7986  0.4419
 8638SOL    HW126813   5.465   4.640   1.313 -0.3431  0.8633  0.2552
 8638SOL    HW226814   5.410   4.489   1.345 -0.9129  1.0258  0.0454
 8639SOL     OW26815   6.229   3.111   1.202 -0.7941 -0.2552  0.0045
 8639SOL    HW126816   6.143   3.130   1.250 -2.1607 -1.0377 -2.0141
 8639SOL    HW226817   6.269   3.027   1.238 -1.7939 -0.8358 -0.2204
 8640SOL     OW26818   6.039   5.432   0.794  0.2933 -0.1517  0.2117
 8640SOL    HW126819   6.039   5.344   0.842 -0.8185  0.5368  1.5440
 8640SOL    HW226820   6.024   5.417   0.697  1.3021 -1.5018  0.2248
 8641SOL     OW26821   4.902   3.757   2.981  0.7184  0.3178 -0.2666
 8641SOL    HW126822   4.856   3.755   2.892 -0.0760 -0.8034  0.1461
 8641SOL    HW226823   4.901   3.666   3.021 -1.4810  1.2415  2.1253
 8642SOL     OW26824   5.044   0.649   1.466 -0.2209  0.4451  0.3067
 8642SOL    HW126825   4.982   0.572   1.465  2.0729 -1.5863 -2.2467
 8642SOL    HW226826   5.089   0.656   1.555 -0.3739 -1.2628  0.5328
 8643SOL     OW26827   5.222   5.810   6.559 -0.2206  0.4811  0.3283
 8643SOL    HW126828   5.223   5.805   6.459  2.0139 -0.3942  0.3234
 8643SOL    HW226829   5.300   5.759   6.595 -1.4680  0.0401  2.5852
 8644SOL     OW26830   6.013   2.632   6.301 -0.0444 -0.2710 -0.2838
 8644SOL    HW126831   6.038   2.537   6.317  0.6302 -0.1200 -0.3790
 8644SOL    HW226832   6.079   2.673   6.237 -0.0824  0.3758  0.0841
 8645SOL     OW26833   0.383   4.068   4.208  0.2936 -0.2634 -0.3941
 8645SOL    HW126834   0.415   4.042   4.299  2.4467  0.0611 -0.9898
 8645SOL    HW226835   0.435   4.017   4.138 -0.2549  0.5698 -1.4445
 8646SOL     OW26836   4.303   6.110   1.767 -0.1960 -0.0189 -0.0460
 8646SOL    HW126837   4.368   6.154   1.829  0.1876 -0.3336 -0.2223
 8646SOL    HW226838   4.294   6.014   1.790 -0.5942  0.0205 -0.0302
 8647SOL     OW26839   4.398   5.918   0.908 -0.5581  0.0835  0.3624
 8647SOL    HW126840   4.407   5.899   1.006 -1.1499 -0.9891  0.2292
 8647SOL    HW226841   4.303   5.904   0.881 -0.4454  0.6166 -0.3201
 8648SOL     OW26842   4.678   0.002   4.356 -0.3422  0.3845  0.2166
 8648SOL    HW126843   4.663   0.101   4.357  1.5532  0.7728 -1.4915
 8648SOL    HW226844   4.735  -0.024   4.434  0.3193  0.8965 -0.0810
 8649SOL     OW26845   6.134   4.006   5.224 -0.3251 -0.2245 -0.0853
 8649SOL    HW126846   6.162   4.095   5.262  0.7476 -0.0208 -1.2705
 8649SOL    HW226847   6.178   3.993   5.135 -2.9062 -0.6002 -1.3776
 8650SOL     OW26848   6.366   6.233   2.200 -0.1886  0.4921 -0.0756
 8650SOL    HW126849   6.424   6.306   2.163  1.4886 -1.2217 -1.0222
 8650SOL    HW226850   6.392   6.214   2.294  1.0012 -0.4073 -0.5593
 8651SOL     OW26851   4.971   5.314   2.395 -0.0260 -0.6863  0.2313
 8651SOL    HW126852   4.888   5.369   2.400  0.1439 -0.4806  1.0093
 8651SOL    HW226853   4.947   5.217   2.397 -0.3847 -0.7029 -2.0427
 8652SOL     OW26854   7.013   2.323   4.256 -0.0791 -0.5681  0.0435
 8652SOL    HW126855   6.949   2.400   4.244  0.1297 -0.4966 -0.6612
 8652SOL    HW226856   7.084   2.328   4.187  1.1380 -0.2292  1.2854
 8653SOL     OW26857   0.193   2.677   0.148  0.1178 -0.1953  0.3789
 8653SOL    HW126858   0.105   2.724   0.139  0.0683 -0.1735  0.9224
 8653SOL    HW226859   0.231   2.695   0.239  0.6115 -0.3349  0.2072
 8654SOL     OW26860   1.168   6.525   0.546  0.5836 -0.0933  0.2895
 8654SOL    HW126861   1.120   6.612   0.546 -0.8531 -0.8419  1.1473
 8654SOL    HW226862   1.262   6.538   0.577  0.8499  1.3483 -1.0131
 8655SOL     OW26863   5.704   0.346   4.922  0.2633  0.1713  0.3096
 8655SOL    HW126864   5.733   0.287   4.997  1.2538 -0.5317 -0.5828
 8655SOL    HW226865   5.731   0.305   4.835  2.0719  2.4440 -0.3335
 8656SOL     OW26866   6.765   3.051   1.546 -0.5081  0.0572 -0.8928
 8656SOL    HW126867   6.849   2.998   1.556  0.8834  2.0566 -1.4034
 8656SOL    HW226868   6.693   3.009   1.600  1.6544  0.0291  2.2353
 8657SOL     OW26869   1.370   5.838   0.629 -0.1526  0.6446 -0.2895
 8657SOL    HW126870   1.290   5.833   0.569  0.2207 -1.6159 -0.6941
 8657SOL    HW226871   1.359   5.773   0.704  1.3971  0.0958 -0.5055
 8658SOL     OW26872   1.288   3.893   5.581 -0.1005  0.1670 -0.1846
 8658SOL    HW126873   1.193   3.871   5.602 -0.5571  2.0515 -0.0839
 8658SOL    HW226874   1.298   3.992   5.573  2.0424  0.0689  0.6851
 8659SOL     OW26875   3.650   6.641   3.826  0.3604  0.7176 -0.3388
 8659SOL    HW126876   3.709   6.631   3.746  0.6535  0.1401 -0.0515
 8659SOL    HW226877   3.689   6.710   3.888  1.6162 -0.7931  0.6215
 8660SOL     OW26878   4.948   4.352   6.416 -0.1675 -0.3351 -0.3634
 8660SOL    HW126879   4.980   4.323   6.325  2.4268 -2.2242  0.9967
 8660SOL    HW226880   5.013   4.320   6.485 -3.8327 -2.2718  2.5740
 8661SOL     OW26881   5.796   4.761   3.563  0.6561  0.5082 -0.0372
 8661SOL    HW126882   5.714   4.816   3.583  1.0727  0.7228  1.1912
 8661SOL    HW226883   5.777   4.700   3.487 -0.4357  1.0221 -0.2006
 8662SOL     OW26884   0.430   1.978   1.708  0.1233 -0.3108 -0.4470
 8662SOL    HW126885   0.399   1.885   1.689  0.8446 -1.2545  2.4019
 8662SOL    HW226886   0.527   1.986   1.684  0.7468 -1.1657  1.5209
 8663SOL     OW26887   2.720   6.454   0.642 -0.2189  0.6981 -0.2401
 8663SOL    HW126888   2.638   6.405   0.609 -0.8721  2.6330 -1.6952
 8663SOL    HW226889   2.778   6.391   0.694 -1.7341 -1.1984 -0.7286
 8664SOL     OW26890   4.092   5.389   6.942  0.3172  0.4267  0.4448
 8664SOL    HW126891   4.156   5.448   6.992  0.2687  0.6850  0.2090
 8664SOL    HW226892   4.002   5.393   6.986  0.9355 -1.5550  2.0250
 8665SOL     OW26893   3.263   5.340   4.758 -0.5300 -0.4234 -0.3955
 8665SOL    HW126894   3.224   5.324   4.849 -0.5497  3.3978  0.4554
 8665SOL    HW226895   3.362   5.350   4.766 -0.4906 -0.4422 -0.8593
 8666SOL     OW26896   6.572   5.774   5.823 -0.0939 -0.2824  0.2616
 8666SOL    HW126897   6.496   5.727   5.868 -1.1925 -1.0503 -2.1957
 8666SOL    HW226898   6.650   5.713   5.814 -0.2184 -0.4437  0.2792
 8667SOL     OW26899   5.898   2.849   3.499  0.3655 -0.0951  1.0447
 8667SOL    HW126900   5.838   2.777   3.466  0.4081 -0.1411  1.0671
 8667SOL    HW226901   5.885   2.861   3.598  1.8516 -1.5216  1.4608
 8668SOL     OW26902   5.733   3.387   3.971 -0.4047  0.5893 -0.1732
 8668SOL    HW126903   5.817   3.356   4.016 -0.9767  1.9379  1.9491
 8668SOL    HW226904   5.655   3.337   4.007 -0.9832  2.3411  1.1721
 8669SOL     OW26905   3.087   6.445   0.218  0.2833  0.2379 -0.3270
 8669SOL    HW126906   3.159   6.387   0.255  2.0493  1.5969 -1.4624
 8669SOL    HW226907   3.040   6.492   0.292  0.7825 -0.4393  0.4252
 8670SOL     OW26908   5.913   4.852   0.919 -0.1100  0.1188 -0.9214
 8670SOL    HW126909   5.876   4.876   1.009  1.2636  1.7771 -0.7392
 8670SOL    HW226910   5.905   4.753   0.905  0.0158 -0.2431  1.2114
 8671SOL     OW26911   2.907   5.922   2.170 -0.2281 -0.2940 -0.2943
 8671SOL    HW126912   2.825   5.873   2.139  0.0664 -0.6841 -0.4646
 8671SOL    HW226913   2.988   5.885   2.123  0.3265 -1.3561  1.3882
 8672SOL     OW26914   2.690   5.464   4.818 -0.1542  0.3655 -0.3812
 8672SOL    HW126915   2.657   5.453   4.724  0.0932  1.3752 -0.5980
 8672SOL    HW226916   2.685   5.560   4.844  0.0633  0.1368  0.5415
 8673SOL     OW26917   5.646   3.842   1.796 -0.5068  0.1808  0.6846
 8673SOL    HW126918   5.594   3.910   1.849 -0.2542  0.4911  0.5422
 8673SOL    HW226919   5.719   3.889   1.745  0.6964 -0.3789  1.8342
 8674SOL     OW26920   1.014   0.261   4.387  0.1923 -0.1882 -0.2038
 8674SOL    HW126921   1.036   0.170   4.423  1.8582  0.9611  1.9712
 8674SOL    HW226922   1.055   0.272   4.297  2.5551 -0.6419  0.7422
 8675SOL     OW26923   1.077   6.185   2.575  0.1529 -0.0553 -0.8790
 8675SOL    HW126924   1.163   6.157   2.617  0.1707  0.8522 -0.2823
 8675SOL    HW226925   1.001   6.136   2.617  0.3247 -0.4173 -0.9914
 8676SOL     OW26926   4.287   1.194   4.793 -0.1167 -0.5858  0.0656
 8676SOL    HW126927   4.274   1.249   4.875  1.9816  1.8578 -1.0989
 8676SOL    HW226928   4.207   1.203   4.734 -1.2266 -1.5915  1.3511
 8677SOL     OW26929   0.731   3.438   5.795 -0.1482 -0.1378 -0.5593
 8677SOL    HW126930   0.730   3.535   5.818  0.6698 -0.2213 -0.1290
 8677SOL    HW226931   0.643   3.397   5.818 -0.3270  0.3968 -0.2818
 8678SOL     OW26932   1.732   1.867   6.713 -0.2637 -0.1867 -0.3489
 8678SOL    HW126933   1.692   1.956   6.695 -1.6174 -0.5794  0.5754
 8678SOL    HW226934   1.742   1.817   6.627 -1.7506 -0.0646 -0.6192
 8679SOL     OW26935   5.063   0.715   3.400  0.1323 -0.2927 -0.5406
 8679SOL    HW126936   5.116   0.800   3.399  1.1411 -0.8808  0.2919
 8679SOL    HW226937   5.065   0.676   3.492 -0.7431 -0.9699 -0.7935
 8680SOL     OW26938   6.598   4.702   5.560  0.2091 -0.4118  0.0789
 8680SOL    HW126939   6.601   4.605   5.586  1.4378  0.0345  1.7215
 8680SOL    HW226940   6.524   4.747   5.608  0.2695 -0.3201  0.0843
 8681SOL     OW26941   4.703   3.422   1.299  0.7322 -0.3359  0.0245
 8681SOL    HW126942   4.802   3.415   1.305  0.8101  0.1528 -0.5830
 8681SOL    HW226943   4.678   3.515   1.269  0.1610 -0.8421 -1.1321
 8682SOL     OW26944   2.318   4.846   2.329  0.4086 -0.5075 -0.0803
 8682SOL    HW126945   2.336   4.940   2.301 -1.7357 -0.3000 -0.9383
 8682SOL    HW226946   2.243   4.844   2.395  0.0429 -1.6399 -0.5034
 8683SOL     OW26947   5.769   2.580   0.264 -0.0545  0.3852 -0.1528
 8683SOL    HW126948   5.745   2.573   0.361  0.1731  2.5103  0.0986
 8683SOL    HW226949   5.691   2.549   0.209 -0.8434  0.7823  0.7050
 8684SOL     OW26950   0.374   2.337   2.459 -0.5498  0.3744 -0.0230
 8684SOL    HW126951   0.406   2.263   2.400 -0.0974 -0.9313  1.7824
 8684SOL    HW226952   0.452   2.391   2.491 -0.5840 -0.0903  0.8664
 8685SOL     OW26953   3.131   2.106   5.634  0.1535  0.4254  0.0352
 8685SOL    HW126954   3.111   2.140   5.542 -0.9328  0.5433  0.2962
 8685SOL    HW226955   3.205   2.161   5.674  0.4379  0.5615 -0.6492
 8686SOL     OW26956   6.789   2.032   4.628 -0.4034 -0.3962 -0.7513
 8686SOL    HW126957   6.716   2.100   4.630 -2.2364 -2.2353 -0.9476
 8686SOL    HW226958   6.844   2.045   4.545 -0.2130  1.2886 -0.3867
 8687SOL     OW26959   3.376   1.783   3.771 -0.3696 -0.5148 -0.1243
 8687SOL    HW126960   3.376   1.758   3.868 -0.4590  0.3998  0.1147
 8687SOL    HW226961   3.445   1.729   3.723  1.6895  0.9867  0.9777
 8688SOL     OW26962   0.566   5.309   3.464  0.5050  0.0706  0.0263
 8688SOL    HW126963   0.573   5.399   3.420  1.0381 -0.3264 -0.7253
 8688SOL    HW226964   0.644   5.296   3.526  0.9119 -0.2148 -0.5322
 8689SOL     OW26965   6.136   4.711   0.633 -0.1559  0.3209  0.2878
 8689SOL    HW126966   6.108   4.635   0.692  2.2267 -1.0988 -0.2717
 8689SOL    HW226967   6.115   4.689   0.538 -1.6892  1.5179  0.2913
 8690SOL     OW26968   6.346   1.431   1.687 -0.3081  0.3460  0.2275
 8690SOL    HW126969   6.434   1.467   1.721  0.1597  0.6898 -1.2777
 8690SOL    HW226970   6.361   1.339   1.650 -0.6276  0.3255  0.1546
 8691SOL     OW26971   5.273   0.109   0.751  0.7676 -0.2726 -0.3194
 8691SOL    HW126972   5.363   0.131   0.789  1.0354 -3.7641  1.4535
 8691SOL    HW226973   5.202   0.137   0.816  0.7970 -0.6279 -0.1361
 8692SOL     OW26974   1.092   7.011   4.510  0.0193 -0.0847  0.4687
 8692SOL    HW126975   1.157   6.976   4.442  0.6645 -3.0658  2.4461
 8692SOL    HW226976   1.136   7.017   4.599 -1.9632 -0.6011  1.5477
 8693SOL     OW26977   4.944   2.835   6.525 -0.7249  0.4784  0.3705
 8693SOL    HW126978   4.906   2.880   6.606 -0.2871 -1.0997  1.4964
 8693SOL    HW226979   5.020   2.776   6.552 -1.6709 -1.4365 -0.9405
 8694SOL     OW26980   4.791   6.869   6.360  0.5974 -0.3997  0.2897
 8694SOL    HW126981   4.851   6.827   6.429  1.2182 -0.6354 -0.3827
 8694SOL    HW226982   4.766   6.801   6.292 -0.2512 -0.2397  0.4224
 8695SOL     OW26983   3.339   5.040   6.324  0.4144  0.0779 -0.2064
 8695SOL    HW126984   3.346   5.107   6.398 -0.9802  1.5452 -1.3035
 8695SOL    HW226985   3.275   5.075   6.255  0.5016 -1.9255 -1.3645
 8696SOL     OW26986   3.985   5.588   0.603 -0.0345  0.1238  0.0648
 8696SOL    HW126987   3.919   5.661   0.619  2.0489  2.2401 -0.3748
 8696SOL    HW226988   4.018   5.593   0.508 -0.1770 -1.7185 -0.1161
 8697SOL     OW26989   5.338   6.948   1.792  0.4040  0.7508 -0.2558
 8697SOL    HW126990   5.437   6.944   1.778  0.2652  0.4803 -1.2252
 8697SOL    HW226991   5.318   6.943   1.890  1.3788  1.6616  0.0047
 8698SOL     OW26992   6.633   1.223   4.574 -0.0512  0.3862  0.4821
 8698SOL    HW126993   6.683   1.290   4.520  0.1247 -0.3507 -0.2757
 8698SOL    HW226994   6.571   1.271   4.636  1.2380  1.3018  1.1174
 8699SOL     OW26995   0.899   1.744   3.828  0.6434  0.1483  0.4060
 8699SOL    HW126996   0.826   1.735   3.896  0.3621  2.6662  0.5474
 8699SOL    HW226997   0.859   1.744   3.736  0.8865 -1.9083  0.2535
 8700SOL     OW26998   2.730   1.887   4.595 -0.0446 -1.0518 -0.4426
 8700SOL    HW126999   2.789   1.963   4.567 -1.1867 -0.3095 -0.8803
 8700SOL    HW227000   2.782   1.824   4.653  0.5293  0.7837  1.1019
 8701SOL     OW27001   2.026   6.719   3.328 -0.1157  0.1042 -0.5687
 8701SOL    HW127002   1.984   6.637   3.367 -2.0393  1.3863  0.1807
 8701SOL    HW227003   2.031   6.709   3.228  1.9315 -1.8866 -0.3404
 8702SOL     OW27004   5.323   5.539   1.469  0.3031 -0.3738  0.0834
 8702SOL    HW127005   5.230   5.523   1.502  0.3398  1.2184  1.0790
 8702SOL    HW227006   5.388   5.487   1.525  0.0966 -0.6120  0.1032
 8703SOL     OW27007   0.776   4.942   1.619  0.4054  0.2539 -0.0255
 8703SOL    HW127008   0.704   4.979   1.560  1.6238  0.6506 -1.3032
 8703SOL    HW227009   0.740   4.933   1.712 -1.3723  0.1944 -0.6666
 8704SOL     OW27010   0.362   3.232   2.480 -0.0429  0.0565  0.4106
 8704SOL    HW127011   0.436   3.166   2.471 -0.5804 -0.5977  0.6758
 8704SOL    HW227012   0.274   3.184   2.482 -0.5014  0.8350 -0.1734
 8705SOL     OW27013   3.760   6.548   4.190  0.5091  0.1347  0.0594
 8705SOL    HW127014   3.690   6.601   4.237  0.8157 -0.9092  1.7667
 8705SOL    HW227015   3.718   6.494   4.117 -0.4152 -0.1790  0.8037
 8706SOL     OW27016   5.542   2.329   5.815  0.7456 -0.2967 -0.0022
 8706SOL    HW127017   5.566   2.361   5.723  1.7688 -0.4125  0.2129
 8706SOL    HW227018   5.496   2.402   5.865  2.5056  0.6885  0.2780
 8707SOL     OW27019   4.446   3.733   5.960 -0.0049 -0.0015 -0.2846
 8707SOL    HW127020   4.538   3.696   5.968 -0.6178 -1.5505 -0.1075
 8707SOL    HW227021   4.393   3.708   6.040 -0.8039  0.2196 -0.7345
 8708SOL     OW27022   4.058   2.113   1.144 -0.6181 -0.0822  0.6419
 8708SOL    HW127023   4.023   2.188   1.200  0.2086  0.8896 -0.1054
 8708SOL    HW227024   4.158   2.114   1.146 -0.5668  0.0940 -0.9716
 8709SOL     OW27025   0.098   3.247   0.827  0.2110 -0.2441 -0.5035
 8709SOL    HW127026   0.018   3.198   0.792  0.7068 -0.4936 -1.3346
 8709SOL    HW227027   0.181   3.196   0.802  0.6930  0.6457 -0.7632
 8710SOL     OW27028   6.457   4.585   5.264 -0.4288 -0.5541 -0.2123
 8710SOL    HW127029   6.370   4.598   5.312 -1.7101 -1.8690 -2.0775
 8710SOL    HW227030   6.443   4.530   5.182  1.7963  1.0347 -1.7945
 8711SOL     OW27031   1.580   1.832   3.780 -0.4933  0.2099 -0.1374
 8711SOL    HW127032   1.598   1.883   3.696 -1.5297 -1.4459 -1.4404
 8711SOL    HW227033   1.654   1.767   3.797 -1.3086 -1.0091 -1.0563
 8712SOL     OW27034   3.772   0.808   0.405 -0.1327 -0.0087 -0.2333
 8712SOL    HW127035   3.734   0.900   0.403 -0.9202 -0.3400 -1.3056
 8712SOL    HW227036   3.788   0.780   0.500 -0.2292  1.0812  0.1112
 8713SOL     OW27037   5.696   3.933   1.428 -0.2616  0.2505 -0.3573
 8713SOL    HW127038   5.766   3.861   1.423 -1.5909 -1.1847  0.4913
 8713SOL    HW227039   5.735   4.014   1.473  1.4525  0.3327 -1.8863
 8714SOL     OW27040   2.096   1.706   4.058  0.1486  0.4633  0.2312
 8714SOL    HW127041   2.077   1.687   4.154 -0.3860  0.4462  0.1239
 8714SOL    HW227042   2.128   1.623   4.013 -0.1611  0.3300  0.2581
 8715SOL     OW27043   6.600   2.031   1.013  0.1635 -0.1862  0.6174
 8715SOL    HW127044   6.629   2.113   0.963 -0.1224 -1.0290 -0.9766
 8715SOL    HW227045   6.681   1.986   1.052  0.8557 -1.2384 -1.8251
 8716SOL     OW27046   5.842   0.841   0.713 -0.7662 -0.2548 -0.2021
 8716SOL    HW127047   5.810   0.751   0.741 -1.3113 -0.1386 -0.4422
 8716SOL    HW227048   5.937   0.853   0.741 -0.5913 -1.0291 -0.4493
 8717SOL     OW27049   2.818   1.995   6.327 -0.2023  0.3579 -0.3112
 8717SOL    HW127050   2.730   2.014   6.282  0.3214  1.3205 -0.9624
 8717SOL    HW227051   2.882   1.956   6.261  0.1155  0.4292 -0.0490
 8718SOL     OW27052   1.659   1.274   4.989 -0.1716 -0.3887  0.7355
 8718SOL    HW127053   1.686   1.177   4.995 -2.1185 -1.0027  0.3200
 8718SOL    HW227054   1.605   1.298   5.069  0.1551  0.3215  0.7457
 8719SOL     OW27055   6.123   1.610   0.002  0.3339  0.3082  0.2009
 8719SOL    HW127056   6.122   1.662  -0.084 -1.0976  1.6149  0.9571
 8719SOL    HW227057   6.075   1.524  -0.011  0.2658  0.4210 -0.3346
 8720SOL     OW27058   5.322   4.128   5.430  0.0870  0.6480 -0.2492
 8720SOL    HW127059   5.283   4.170   5.348 -0.9200 -0.8736 -0.5813
 8720SOL    HW227060   5.283   4.037   5.443  3.5724 -1.0557 -0.6530
 8721SOL     OW27061   0.225   2.002   6.031 -0.0521 -0.6442 -0.5694
 8721SOL    HW127062   0.313   1.960   6.007 -0.7728 -0.8192 -3.2864
 8721SOL    HW227063   0.168   1.934   6.078  0.4649 -1.2604 -0.8132
 8722SOL     OW27064   3.643   2.383   1.207 -0.0485  0.0073  0.0783
 8722SOL    HW127065   3.621   2.436   1.288 -0.1633  1.0463 -0.6094
 8722SOL    HW227066   3.710   2.433   1.152  0.2848 -0.8384 -0.2960
 8723SOL     OW27067   6.202   6.950   2.427 -0.0915 -0.6024  0.2060
 8723SOL    HW127068   6.159   6.898   2.501 -0.9100  0.3597  0.4337
 8723SOL    HW227069   6.300   6.931   2.425 -0.3424 -1.9660  0.4154
 8724SOL     OW27070   4.649   0.542   3.786  0.4243  0.3892 -0.0159
 8724SOL    HW127071   4.645   0.472   3.857  1.7561  0.3093 -0.0078
 8724SOL    HW227072   4.579   0.524   3.717 -0.7946  0.3788  1.1661
 8725SOL     OW27073   1.969   5.871   0.667 -0.2034 -0.2939 -0.2794
 8725SOL    HW127074   1.941   5.965   0.685 -1.9280 -1.0683  1.3955
 8725SOL    HW227075   1.946   5.813   0.745 -0.2940 -2.3375 -1.7307
 8726SOL     OW27076   1.473   5.253   0.991  0.4005  0.6589 -0.1839
 8726SOL    HW127077   1.450   5.329   1.052 -2.5775  0.3980 -0.8491
 8726SOL    HW227078   1.534   5.190   1.039 -0.6856  1.1842  2.0406
 8727SOL     OW27079   5.733   0.972   1.139  0.6083  0.0177 -0.5117
 8727SOL    HW127080   5.664   1.044   1.127  1.5313  1.0744  0.3516
 8727SOL    HW227081   5.688   0.888   1.167 -0.3586  0.6393 -0.1378
 8728SOL     OW27082   4.601   5.854   4.020  0.6382  0.2080 -0.0728
 8728SOL    HW127083   4.698   5.835   4.034  0.6847  1.1021  0.9222
 8728SOL    HW227084   4.577   5.940   4.064 -0.6476 -0.0929 -0.1429
 8729SOL     OW27085   4.861   3.990   3.463  0.2767 -0.4118  0.1553
 8729SOL    HW127086   4.768   3.961   3.485  0.8671 -1.9902  0.7426
 8729SOL    HW227087   4.880   3.970   3.367 -0.3578  1.0296 -0.2990
 8730SOL     OW27088   4.994   5.008   2.694  0.4040 -0.2253  0.1638
 8730SOL    HW127089   5.017   4.953   2.614  0.6358  0.3748 -0.1866
 8730SOL    HW227090   5.076   5.019   2.751  0.6902  0.8097 -0.4163
 8731SOL     OW27091   0.889   0.960   2.100  0.1017  0.0527 -0.1402
 8731SOL    HW127092   0.972   1.015   2.094  0.4288 -0.4798 -0.5276
 8731SOL    HW227093   0.825   1.003   2.164  0.8898  0.1670  0.5830
 8732SOL     OW27094   6.057   5.232   0.963 -0.1457  0.1266  0.7735
 8732SOL    HW127095   6.151   5.205   0.982  0.4905  1.7875  0.2428
 8732SOL    HW227096   6.014   5.268   1.046 -0.6645 -1.5127  1.2435
 8733SOL     OW27097   6.707   1.343   2.782 -0.7135  0.2178 -0.1716
 8733SOL    HW127098   6.706   1.416   2.849 -0.4755 -0.0017  0.0739
 8733SOL    HW227099   6.801   1.327   2.751 -0.0585 -2.7171  2.7886
 8734SOL     OW27100   6.909   0.887   0.693  0.7271  0.0338  0.2080
 8734SOL    HW127101   6.903   0.983   0.723  1.1659 -0.1949  1.0579
 8734SOL    HW227102   6.817   0.849   0.683  0.5086  0.8011 -1.0447
 8735SOL     OW27103   0.046   4.688   6.954  0.1678 -0.1434  0.0612
 8735SOL    HW127104   0.128   4.729   6.995 -0.2299  0.2180  0.4997
 8735SOL    HW227105   0.001   4.755   6.895  0.5613 -0.5614 -0.7396
 8736SOL     OW27106   1.340   4.681   5.617  0.1345 -0.4185 -0.5797
 8736SOL    HW127107   1.349   4.632   5.530  1.5269  0.5108 -0.9739
 8736SOL    HW227108   1.393   4.765   5.614  0.5370 -0.5690  1.3270
 8737SOL     OW27109   3.566   4.931   6.203 -0.1232 -0.3127  0.4147
 8737SOL    HW127110   3.534   4.917   6.109  2.1844  0.6761 -0.5942
 8737SOL    HW227111   3.489   4.959   6.260 -1.1952  1.3692 -1.7168
 8738SOL     OW27112   0.879   2.705   4.970 -0.1629 -0.4856  0.6277
 8738SOL    HW127113   0.809   2.718   5.040  0.2795  0.4778  0.9049
 8738SOL    HW227114   0.902   2.608   4.963  1.2347 -0.4330  3.2519
 8739SOL     OW27115   0.394   3.221   4.659 -0.6127 -0.0489 -0.2645
 8739SOL    HW127116   0.317   3.283   4.648 -0.8788 -0.6748 -2.2043
 8739SOL    HW227117   0.480   3.270   4.646 -0.7713  0.1612 -0.5064
 8740SOL     OW27118   7.007   6.380   0.952  0.2530  0.3206 -0.1277
 8740SOL    HW127119   7.069   6.372   1.030 -0.0354  0.1828  0.0886
 8740SOL    HW227120   7.001   6.476   0.924 -0.0708  0.4501  0.3717
 8741SOL     OW27121   1.875   4.977   0.640 -0.1902  0.6118  0.1172
 8741SOL    HW127122   1.829   4.920   0.571  0.8473 -0.9046  0.6374
 8741SOL    HW227123   1.963   5.008   0.604 -1.3732  3.3254 -0.7858
 8742SOL     OW27124   4.441   5.853   0.441 -0.0030  0.2642  0.3716
 8742SOL    HW127125   4.499   5.910   0.499  1.0854 -0.9062  0.4792
 8742SOL    HW227126   4.498   5.786   0.393 -0.9975  0.5768 -1.3151
 8743SOL     OW27127   1.751   4.794   2.379 -0.1071  0.7931  0.5638
 8743SOL    HW127128   1.791   4.876   2.338 -0.7718  0.4560 -0.8037
 8743SOL    HW227129   1.752   4.720   2.313 -0.0137 -0.1584  1.6107
 8744SOL     OW27130   3.898   1.747   6.704  0.1683  0.0940  0.0543
 8744SOL    HW127131   3.901   1.679   6.631  1.1656  0.8328 -0.6177
 8744SOL    HW227132   3.986   1.747   6.752 -0.4185 -0.2645  1.1625
 8745SOL     OW27133   4.635   1.961   1.238  0.3613 -0.1679  0.3720
 8745SOL    HW127134   4.624   2.046   1.185 -2.6105 -0.9117 -0.3630
 8745SOL    HW227135   4.622   1.980   1.335 -1.7148  0.0403  0.0820
 8746SOL     OW27136   5.260   3.270   3.126  0.2437  0.3132 -0.2691
 8746SOL    HW127137   5.338   3.274   3.189 -0.9955  2.2573  1.2982
 8746SOL    HW227138   5.247   3.177   3.093  2.4090 -0.2890  0.4764
 8747SOL     OW27139   5.447   2.146   4.189  0.4314  0.3463 -0.5653
 8747SOL    HW127140   5.396   2.232   4.180  0.0923  0.0434 -1.6362
 8747SOL    HW227141   5.394   2.071   4.148 -0.2086 -0.7714  2.0880
 8748SOL     OW27142   0.735   6.441   0.482 -0.3933 -0.0564  0.0246
 8748SOL    HW127143   0.824   6.447   0.437 -0.0541 -0.1519  0.6737
 8748SOL    HW227144   0.692   6.353   0.460 -0.1279 -0.1985  0.0730
 8749SOL     OW27145   4.129   1.686   3.441  0.1639  0.1963  0.0924
 8749SOL    HW127146   4.190   1.623   3.490  1.8738  1.9041  0.2777
 8749SOL    HW227147   4.041   1.691   3.489  0.2208 -1.5399  0.4198
 8750SOL     OW27148   0.746   0.493   5.111 -0.5339  0.2200 -0.2161
 8750SOL    HW127149   0.822   0.433   5.136 -1.3600 -1.8284 -2.2629
 8750SOL    HW227150   0.771   0.546   5.029 -0.7967  0.6449 -0.0241
 8751SOL     OW27151   6.531   6.254   0.334 -0.0676  0.0622 -0.2797
 8751SOL    HW127152   6.560   6.315   0.260 -2.5898 -0.3546 -1.7479
 8751SOL    HW227153   6.500   6.167   0.295  0.3387 -0.9275  1.4836
 8752SOL     OW27154   1.234   1.446   6.348  0.2532  0.1740 -0.0554
 8752SOL    HW127155   1.293   1.428   6.427  1.4017  1.7697 -0.4897
 8752SOL    HW227156   1.248   1.540   6.318 -2.3121  0.5108 -0.4028
 8753SOL     OW27157   5.051   0.946   6.425 -0.4874  0.3951  0.4367
 8753SOL    HW127158   5.031   0.890   6.344 -1.1684 -0.1164  0.9477
 8753SOL    HW227159   5.077   0.887   6.501  0.5248  0.9009  0.4976
 8754SOL     OW27160   2.062   0.006   6.020 -0.1442  0.2991 -0.0704
 8754SOL    HW127161   1.981  -0.045   6.051  0.6994 -0.8675  0.3236
 8754SOL    HW227162   2.091   0.069   6.092 -0.9841  1.0830 -0.4106
 8755SOL     OW27163   2.257   0.859   0.346 -0.2552 -0.3989 -0.1471
 8755SOL    HW127164   2.228   0.950   0.317  0.8276  1.0202  2.7656
 8755SOL    HW227165   2.285   0.805   0.266 -0.2580  2.0617 -1.9096
 8756SOL     OW27166   2.128   6.132   4.350  0.3096  0.2597 -0.6066
 8756SOL    HW127167   2.062   6.099   4.417 -1.1656  0.7585 -1.7572
 8756SOL    HW227168   2.200   6.063   4.338 -0.1215 -0.4072  0.4919
 8757SOL     OW27169   4.054   5.192   3.809  0.5641 -0.4680  0.5772
 8757SOL    HW127170   4.129   5.148   3.859  0.8461 -1.2414 -0.4851
 8757SOL    HW227171   3.993   5.123   3.771  1.9055 -0.1193 -2.5125
 8758SOL     OW27172   5.374   0.066   2.632 -0.0424 -0.3052  0.1833
 8758SOL    HW127173   5.280   0.060   2.597  0.3114  0.8988 -1.1060
 8758SOL    HW227174   5.375   0.124   2.713 -0.6204 -1.6320  1.1697
 8759SOL     OW27175   5.095   1.327   6.722  0.6463  0.0408 -0.0990
 8759SOL    HW127176   5.036   1.257   6.682 -0.2301  0.7930 -0.1557
 8759SOL    HW227177   5.095   1.317   6.822  0.2945  0.1264 -0.0870
 8760SOL     OW27178   0.788   3.474   4.093  0.4427 -0.2796  0.6034
 8760SOL    HW127179   0.857   3.492   4.163  0.6152  2.5600 -0.1606
 8760SOL    HW227180   0.831   3.439   4.011  0.6891 -0.5208  0.8365
 8761SOL     OW27181   5.242   6.763   1.224  0.2781  0.1577 -0.3094
 8761SOL    HW127182   5.159   6.746   1.277  0.3405  0.7516 -0.0088
 8761SOL    HW227183   5.265   6.682   1.169 -1.5062  0.5963 -1.7834
 8762SOL     OW27184   0.550   4.550   1.734 -0.4195 -0.1233  0.3883
 8762SOL    HW127185   0.523   4.454   1.725 -1.6930  0.2800 -0.2835
 8762SOL    HW227186   0.633   4.556   1.790  0.1392 -1.6705 -0.2200
 8763SOL     OW27187   0.887   5.755   6.704  0.1501  0.5305 -0.2789
 8763SOL    HW127188   0.876   5.753   6.803  1.3653  0.8338 -0.1212
 8763SOL    HW227189   0.800   5.779   6.661 -0.4623  0.1127  0.6885
 8764SOL     OW27190   0.951   3.487   1.617  0.0945  0.2879 -0.1368
 8764SOL    HW127191   0.909   3.472   1.528 -0.0466 -1.8095  0.2379
 8764SOL    HW227192   1.039   3.439   1.621 -1.5979 -3.0368  2.0574
 8765SOL     OW27193   5.805   0.984   3.584  0.3772  0.4397 -0.4175
 8765SOL    HW127194   5.862   0.933   3.648  1.7189 -0.2248 -2.0671
 8765SOL    HW227195   5.846   1.074   3.567 -1.0895  1.4899  1.1832
 8766SOL     OW27196   1.739   4.235   2.339  0.3124 -0.4071 -0.1529
 8766SOL    HW127197   1.708   4.322   2.376 -0.7892 -0.7450 -0.2594
 8766SOL    HW227198   1.796   4.188   2.406  0.7079  0.2714 -0.0022
 8767SOL     OW27199   5.799   1.879   4.369 -0.2667 -0.0186 -0.2234
 8767SOL    HW127200   5.734   1.807   4.392 -0.8226  0.2436 -0.9383
 8767SOL    HW227201   5.863   1.847   4.300 -1.7852  0.7668 -2.0879
 8768SOL     OW27202   6.971   2.862   5.420  0.0219 -0.1811  0.3824
 8768SOL    HW127203   7.038   2.902   5.482  0.9806 -0.6263 -0.3351
 8768SOL    HW227204   6.952   2.927   5.346  0.7230 -0.5787 -0.1636
 8769SOL     OW27205   2.299   0.007   6.862 -0.1973 -0.1480 -0.4665
 8769SOL    HW127206   2.338   0.057   6.939  0.6848  0.4101 -1.2452
 8769SOL    HW227207   2.234   0.066   6.814 -0.4296 -0.3416 -0.3867
 8770SOL     OW27208   7.009   0.385   2.655 -0.1335 -0.2481  0.0824
 8770SOL    HW127209   7.070   0.452   2.697  0.2101 -0.6701  0.2680
 8770SOL    HW227210   6.919   0.426   2.639  0.9207  1.3037 -2.7076
 8771SOL     OW27211   3.538   2.867   4.670  0.8117  0.3668  0.4808
 8771SOL    HW127212   3.598   2.789   4.689  0.2354 -0.2869 -0.2965
 8771SOL    HW227213   3.579   2.923   4.597  0.2862 -0.3346 -0.3772
 8772SOL     OW27214   6.127   0.330   5.975 -0.3793  0.6223 -0.0767
 8772SOL    HW127215   6.105   0.390   5.898  0.0448  0.6371 -0.1883
 8772SOL    HW227216   6.225   0.312   5.976 -0.4369  0.3230  0.2450
 8773SOL     OW27217   2.735   0.054   3.106  0.1235  0.3209 -0.2318
 8773SOL    HW127218   2.808   0.039   3.040  1.5832  0.9737  1.1628
 8773SOL    HW227219   2.682  -0.030   3.117  2.2755 -1.0120  0.5805
 8774SOL     OW27220   0.518   1.216   7.006  0.0693  0.4626  0.6330
 8774SOL    HW127221   0.462   1.240   6.927 -0.1396  0.2510  0.7140
 8774SOL    HW227222   0.465   1.232   7.090  0.7180  1.8649  0.7914
 8775SOL     OW27223   0.561   5.744   4.900 -0.2876 -0.2487  0.2693
 8775SOL    HW127224   0.654   5.765   4.929 -0.2609  0.0471 -0.0211
 8775SOL    HW227225   0.497   5.774   4.971 -0.4157  2.8914 -0.9780
 8776SOL     OW27226   3.434   3.450   4.410 -0.2115  0.6669  0.1465
 8776SOL    HW127227   3.527   3.412   4.409 -0.1683  0.7736 -1.1853
 8776SOL    HW227228   3.368   3.376   4.405 -0.1339  0.6707 -1.8375
 8777SOL     OW27229   5.988   5.291   1.832  0.1062  0.0938 -0.4245
 8777SOL    HW127230   6.050   5.266   1.906 -0.7354 -2.6127 -0.5425
 8777SOL    HW227231   5.947   5.380   1.851  0.1833 -0.3601  2.1869
 8778SOL     OW27232   1.994   2.298   2.312 -0.4623  0.0790  0.5549
 8778SOL    HW127233   2.055   2.330   2.385  1.3038 -0.4619 -0.6363
 8778SOL    HW227234   1.980   2.200   2.321  1.2987 -0.3448 -0.8724
 8779SOL     OW27235   1.410   3.440   0.920 -0.4729  0.2631  0.4815
 8779SOL    HW127236   1.319   3.439   0.879  0.6654 -0.0719 -2.2733
 8779SOL    HW227237   1.448   3.348   0.919  0.4492  0.6377  0.2303
 8780SOL     OW27238   1.360   0.162   4.742  0.0381  0.0554  0.2608
 8780SOL    HW127239   1.406   0.088   4.692 -2.1722 -1.4940  0.4086
 8780SOL    HW227240   1.347   0.134   4.837 -0.3418  0.8882  0.4591
 8781SOL     OW27241   2.050   2.662   1.801 -0.0634  0.3582  0.0406
 8781SOL    HW127242   2.039   2.746   1.748  0.2364  1.2214  1.3130
 8781SOL    HW227243   2.145   2.651   1.829  0.4086 -1.6379 -2.0400
 8782SOL     OW27244   5.170   1.750   3.338  0.5037 -0.7917  0.2029
 8782SOL    HW127245   5.092   1.796   3.380  1.8570  0.0440  1.9588
 8782SOL    HW227246   5.161   1.651   3.350 -0.1289 -0.6855  0.6739
 8783SOL     OW27247   5.482   2.916   6.110 -0.8996  0.1879 -0.0129
 8783SOL    HW127248   5.420   2.994   6.095 -1.6901  0.0949  2.4289
 8783SOL    HW227249   5.462   2.845   6.042 -0.4241  1.9021 -2.0461
 8784SOL     OW27250   0.251   1.532   0.345  0.0095  0.0588 -0.6276
 8784SOL    HW127251   0.217   1.507   0.255  0.3195  2.8398 -1.6331
 8784SOL    HW227252   0.180   1.581   0.395  0.7558  1.2136 -0.6364
 8785SOL     OW27253   4.562   3.802   0.195 -0.9993 -0.2942 -0.3353
 8785SOL    HW127254   4.599   3.780   0.105  0.8459 -0.6902  0.4694
 8785SOL    HW227255   4.615   3.753   0.265 -2.1325  0.3180  0.9907
 8786SOL     OW27256   0.731   1.358   5.780 -0.1474  0.5689  0.6458
 8786SOL    HW127257   0.808   1.337   5.839  0.8532  1.0707 -0.4456
 8786SOL    HW227258   0.694   1.273   5.741 -0.1896  0.3227  1.2209
 8787SOL     OW27259   5.152   2.723   0.750  0.2137 -0.1467  0.4306
 8787SOL    HW127260   5.187   2.716   0.657  0.9513 -1.0331  0.7703
 8787SOL    HW227261   5.225   2.707   0.815 -0.4928 -0.4530  1.1635
 8788SOL     OW27262   0.715   2.767   5.166  0.6110 -0.8994 -0.7089
 8788SOL    HW127263   0.778   2.835   5.204 -1.0428  0.6516 -0.6215
 8788SOL    HW227264   0.689   2.702   5.238 -0.0401  0.1333  0.0232
 8789SOL     OW27265   5.967   0.544   2.047  0.7653 -0.3507 -0.5842
 8789SOL    HW127266   5.936   0.496   2.129 -0.5964  0.1999 -0.7419
 8789SOL    HW227267   5.929   0.499   1.966 -1.2165  1.4085 -0.6948
 8790SOL     OW27268   3.902   1.496   4.585  0.6850  1.1085 -0.1046
 8790SOL    HW127269   3.861   1.585   4.608  2.0936  1.8244 -0.2555
 8790SOL    HW227270   3.978   1.510   4.522 -0.0279 -0.3698 -1.3439
 8791SOL     OW27271   3.418   6.449   4.530  0.1852 -0.3690  0.2842
 8791SOL    HW127272   3.448   6.364   4.487 -1.2726  0.0384 -1.6746
 8791SOL    HW227273   3.332   6.434   4.578  0.0270 -0.0325  0.1057
 8792SOL     OW27274   4.350   0.060   2.226 -0.2056  0.3538 -0.0658
 8792SOL    HW127275   4.291   0.094   2.299 -0.7658  0.2784 -0.4758
 8792SOL    HW227276   4.356  -0.039   2.229 -2.1751  0.1316 -1.5441
 8793SOL     OW27277   0.672   3.619   3.293  0.1245 -0.3236 -0.0414
 8793SOL    HW127278   0.577   3.604   3.321  0.2589 -0.1902  0.4994
 8793SOL    HW227279   0.699   3.547   3.230 -0.6253  0.1591 -0.9385
 8794SOL     OW27280   2.793   6.150   2.026 -0.3173  0.2922  0.5507
 8794SOL    HW127281   2.859   6.223   2.009  1.5600 -1.3462  0.3175
 8794SOL    HW227282   2.836   6.080   2.083 -1.7702 -1.0110  0.1193
 8795SOL     OW27283   3.983   0.328   4.863 -0.2404 -0.8706  1.3390
 8795SOL    HW127284   4.016   0.419   4.840  0.3067 -1.5947 -0.9392
 8795SOL    HW227285   3.891   0.315   4.826 -0.5084 -1.0904  2.0670
 8796SOL     OW27286   5.178   2.700   6.583  0.3275 -0.0034 -0.0229
 8796SOL    HW127287   5.152   2.611   6.620 -0.6285  0.3528  0.1861
 8796SOL    HW227288   5.180   2.696   6.483  0.4109 -0.2814 -0.0117
 8797SOL     OW27289   6.381   6.297   5.554 -0.0379  0.5980  0.6771
 8797SOL    HW127290   6.321   6.332   5.482 -0.7136 -1.5459  0.1219
 8797SOL    HW227291   6.462   6.255   5.512 -0.5194 -0.8239  1.1035
 8798SOL     OW27292   2.368   3.694   6.075  0.5318 -0.8154 -0.1786
 8798SOL    HW127293   2.463   3.701   6.105  0.6589 -0.1746 -0.7213
 8798SOL    HW227294   2.317   3.773   6.109  0.2283 -1.0759 -0.0234
 8799SOL     OW27295   3.605   1.823   0.862  0.0413 -0.4175  0.5377
 8799SOL    HW127296   3.548   1.786   0.788  0.0050 -0.4186  0.5661
 8799SOL    HW227297   3.679   1.759   0.883 -0.0747 -0.5162  0.6485
 8800SOL     OW27298   4.756   3.503   5.438  0.1884  0.4076 -0.0655
 8800SOL    HW127299   4.828   3.437   5.416 -0.9279 -1.1253  0.6568
 8800SOL    HW227300   4.702   3.524   5.356 -1.5519 -2.2811  0.2613
 8801SOL     OW27301   4.440   6.629   4.817 -0.4689  0.2299  0.0517
 8801SOL    HW127302   4.496   6.548   4.834  1.1488  1.6722  2.2084
 8801SOL    HW227303   4.343   6.604   4.820 -0.0512 -1.4270  2.0527
 8802SOL     OW27304   2.465   0.359   1.101  0.2239  0.8223 -0.2069
 8802SOL    HW127305   2.452   0.455   1.075  0.9407  0.9558 -0.0912
 8802SOL    HW227306   2.391   0.304   1.061  0.8075  1.1500 -1.8259
 8803SOL     OW27307   3.700   6.104   2.577 -0.0007  0.2885  0.1806
 8803SOL    HW127308   3.641   6.060   2.510 -1.2104  1.3787  0.4955
 8803SOL    HW227309   3.681   6.067   2.668  1.4690 -1.0171 -0.0025
 8804SOL     OW27310   2.614   0.366   2.100 -0.2720  0.5532 -0.1374
 8804SOL    HW127311   2.635   0.380   2.196 -1.1029 -2.3430  0.5663
 8804SOL    HW227312   2.518   0.391   2.083 -0.3700  0.2566 -0.0182
 8805SOL     OW27313   5.937   6.334   3.676  0.5842 -1.1270 -0.4449
 8805SOL    HW127314   5.934   6.381   3.765 -1.8912  1.0081 -1.4926
 8805SOL    HW227315   5.864   6.265   3.673  0.5688 -1.0954 -0.8437
 8806SOL     OW27316   1.223   4.536   2.084  0.1095  0.4585  0.0026
 8806SOL    HW127317   1.221   4.438   2.065 -0.6228  0.1688  1.4265
 8806SOL    HW227318   1.130   4.573   2.085  0.3496  1.0891 -0.1381
 8807SOL     OW27319   6.424   6.509   1.115 -0.2647  0.2862 -0.3863
 8807SOL    HW127320   6.497   6.441   1.129 -0.8001 -0.3843 -0.7503
 8807SOL    HW227321   6.368   6.514   1.197  0.1357  0.7498 -0.1323
 8808SOL     OW27322   6.482   2.885   6.806  0.3600  0.0899 -0.4859
 8808SOL    HW127323   6.480   2.817   6.734 -0.0552  2.0830 -2.4736
 8808SOL    HW227324   6.575   2.893   6.843  0.2236 -2.1299  0.4705
 8809SOL     OW27325   5.923   4.003   1.088  0.6926 -0.7126  0.3795
 8809SOL    HW127326   5.927   4.001   0.988 -2.7204  0.1011  0.1273
 8809SOL    HW227327   5.998   4.060   1.123  0.1775  1.5704 -1.9493
 8810SOL     OW27328   6.452   1.808   4.912  0.0938  0.8717 -0.2348
 8810SOL    HW127329   6.413   1.788   4.822 -0.3027  1.1259 -0.1208
 8810SOL    HW227330   6.438   1.729   4.972  1.3175  0.2621 -0.6994
 8811SOL     OW27331   0.647   1.587   4.275 -0.1864 -0.1650 -0.7466
 8811SOL    HW127332   0.572   1.521   4.276 -0.8377  0.5630 -0.6460
 8811SOL    HW227333   0.728   1.545   4.318 -0.0677 -1.4613 -2.1436
 8812SOL     OW27334   2.374   2.201   6.617 -0.2119 -0.7469  0.0112
 8812SOL    HW127335   2.321   2.233   6.539 -1.7264 -1.4461  0.7108
 8812SOL    HW227336   2.318   2.207   6.700  0.1780 -3.1239  0.5186
 8813SOL     OW27337   0.259   5.054   1.486  0.6303 -0.1864 -0.1443
 8813SOL    HW127338   0.226   5.087   1.574  0.8301  0.2506 -0.2289
 8813SOL    HW227339   0.196   5.083   1.414  1.4326  1.0740 -0.3662
 8814SOL     OW27340   5.486   6.545   4.647  0.1729  0.3074 -0.0981
 8814SOL    HW127341   5.401   6.569   4.696 -0.5547 -0.0957 -1.1308
 8814SOL    HW227342   5.502   6.612   4.574 -0.0503 -0.4207 -0.8307
 8815SOL     OW27343   0.213   5.507   4.094  0.8194  0.2638  0.2825
 8815SOL    HW127344   0.175   5.486   4.184  0.7482  0.8406  0.3876
 8815SOL    HW227345   0.139   5.521   4.029  0.8654  0.2844  0.2343
 8816SOL     OW27346   1.665   5.525   2.160 -0.0002 -0.3245  0.1378
 8816SOL    HW127347   1.624   5.567   2.241 -0.4726 -1.2914  0.4153
 8816SOL    HW227348   1.618   5.558   2.078  0.3412  0.4982  0.2722
 8817SOL     OW27349   3.079   3.424   5.238  0.7087  0.1984  1.0304
 8817SOL    HW127350   3.122   3.389   5.322  0.6879 -2.2453  0.1034
 8817SOL    HW227351   3.120   3.512   5.214  2.3165 -0.1266  2.3671
 8818SOL     OW27352   6.868   3.542   6.043 -0.4153  0.6660 -0.2622
 8818SOL    HW127353   6.868   3.504   6.135  1.7380 -0.3087 -0.5994
 8818SOL    HW227354   6.799   3.614   6.037  0.0445  1.4424  2.3868
 8819SOL     OW27355   5.711   1.378   6.156 -0.4038  0.2220  0.1106
 8819SOL    HW127356   5.713   1.280   6.171  1.4977  0.2438  0.1708
 8819SOL    HW227357   5.616   1.407   6.140 -0.9434 -1.6471 -0.3143
 8820SOL     OW27358   6.873   2.514   2.603 -0.0522 -0.3924 -0.3156
 8820SOL    HW127359   6.973   2.510   2.611 -0.1232 -2.2564  0.2180
 8820SOL    HW227360   6.848   2.540   2.510  0.9212 -0.0377 -0.4944
 8821SOL     OW27361   1.690   0.342   1.054  0.4387 -0.4166  0.2475
 8821SOL    HW127362   1.600   0.378   1.078  1.1708  1.3349  0.4844
 8821SOL    HW227363   1.705   0.255   1.102 -0.5552 -0.0255  1.3106
 8822SOL     OW27364   1.692   1.464   2.333 -0.6081  0.0159  0.1919
 8822SOL    HW127365   1.767   1.503   2.385 -0.9982 -1.2969  1.8306
 8822SOL    HW227366   1.729   1.406   2.260 -0.0420  0.0870  0.4179
 8823SOL     OW27367   1.589   3.847   6.828  0.3107 -0.2780 -0.0078
 8823SOL    HW127368   1.672   3.875   6.875  0.0769  0.5130 -0.0524
 8823SOL    HW227369   1.537   3.784   6.886  0.5558 -0.1571  0.3429
 8824SOL     OW27370   5.280   2.441   1.454  0.9194  0.2948  0.3458
 8824SOL    HW127371   5.367   2.412   1.416 -0.4880 -1.3438 -1.9295
 8824SOL    HW227372   5.273   2.541   1.450  2.5942  0.4399  0.4381
 8825SOL     OW27373   3.222   1.832   6.351 -0.5749 -0.3637  0.6006
 8825SOL    HW127374   3.302   1.772   6.355  0.7326  0.9245 -2.7246
 8825SOL    HW227375   3.247   1.923   6.383 -0.3397  0.3027 -1.3594
 8826SOL     OW27376   5.556   6.370   2.989  0.5601  0.0015  0.3709
 8826SOL    HW127377   5.483   6.438   2.975  1.5994  1.3925  1.3983
 8826SOL    HW227378   5.580   6.329   2.902 -0.4876  0.5391 -0.1950
 8827SOL     OW27379   0.294   0.444   4.393 -0.4755 -0.4247 -0.0298
 8827SOL    HW127380   0.212   0.390   4.414 -0.8860  0.3615  0.4534
 8827SOL    HW227381   0.373   0.383   4.389 -0.6791 -0.9129  1.9581
 8828SOL     OW27382   1.630   0.356   5.170 -0.2453  0.2090 -0.0321
 8828SOL    HW127383   1.680   0.312   5.244 -1.6164  0.5508  1.1575
 8828SOL    HW227384   1.534   0.327   5.173 -0.0772 -0.8271 -2.5478
 8829SOL     OW27385   0.758   0.548   0.740 -0.7007 -0.1000 -1.0734
 8829SOL    HW127386   0.734   0.617   0.672 -0.9655 -0.0745 -0.9578
 8829SOL    HW227387   0.718   0.460   0.715  0.5893 -0.4910 -1.8189
 8830SOL     OW27388   1.594   1.044   6.999 -0.2862 -0.0951  0.3202
 8830SOL    HW127389   1.692   1.025   7.006 -0.0863 -0.8489 -2.8956
 8830SOL    HW227390   1.579   1.115   6.930 -2.0828 -2.1697 -1.5932
 8831SOL     OW27391   5.598   0.017   2.479 -0.4591  0.1844  0.3556
 8831SOL    HW127392   5.511   0.038   2.524 -0.8788  1.0122 -0.8103
 8831SOL    HW227393   5.613  -0.082   2.481 -1.1106  0.0897  1.1236
 8832SOL     OW27394   5.131   0.040   2.564 -0.3185  0.0960 -1.1206
 8832SOL    HW127395   5.094   0.030   2.656 -0.3499  2.2716 -0.8549
 8832SOL    HW227396   5.095   0.123   2.522  1.2813  0.2243 -2.3294
 8833SOL     OW27397   0.768   5.407   2.702  0.2976  0.0816  0.4449
 8833SOL    HW127398   0.823   5.384   2.622  0.3264  2.1156 -0.1797
 8833SOL    HW227399   0.827   5.411   2.783  1.1918  2.3098 -0.2280
 8834SOL     OW27400   4.530   4.389   5.632  0.4510 -0.1339 -0.2246
 8834SOL    HW127401   4.458   4.334   5.674 -1.3516  2.0633 -0.2831
 8834SOL    HW227402   4.511   4.400   5.535  1.9220 -1.0679 -0.6514
 8835SOL     OW27403   3.251   6.956   6.215  0.1742  0.5692  0.5274
 8835SOL    HW127404   3.265   7.053   6.198  1.3256  0.2860 -0.1734
 8835SOL    HW227405   3.315   6.902   6.161 -0.7114 -0.6049  0.6079
 8836SOL     OW27406   5.444   2.241   1.021 -0.2994 -0.5939  0.3013
 8836SOL    HW127407   5.397   2.168   1.069  1.7906  0.1808  3.8959
 8836SOL    HW227408   5.541   2.217   1.009  0.1868  1.0688  0.5879
 8837SOL     OW27409   1.071   0.515   2.470 -0.4095 -0.1546 -0.4349
 8837SOL    HW127410   0.999   0.479   2.529 -0.6237 -0.6625 -0.9972
 8837SOL    HW227411   1.078   0.459   2.388 -0.4317  0.8109 -1.1145
 8838SOL     OW27412   2.907   0.841   6.277 -0.2002  0.6772  0.4693
 8838SOL    HW127413   2.900   0.941   6.280 -1.3026  0.6738 -0.9754
 8838SOL    HW227414   2.902   0.810   6.182 -0.5138 -0.8039  0.9420
 8839SOL     OW27415   5.129   5.046   4.835 -0.3897 -0.2287 -0.1077
 8839SOL    HW127416   5.103   4.964   4.782 -1.2136  0.0884 -0.1995
 8839SOL    HW227417   5.104   5.033   4.931  0.3804 -0.4789  0.0645
 8840SOL     OW27418   4.786   2.042   1.668  0.1347 -0.0267  0.4941
 8840SOL    HW127419   4.807   2.005   1.759  0.0954 -0.6107  0.2733
 8840SOL    HW227420   4.870   2.074   1.624  0.2128 -0.1291  0.5691
 8841SOL     OW27421   4.735   0.221   3.023  0.1565 -0.3220  0.7615
 8841SOL    HW127422   4.691   0.133   3.007  0.8215 -0.5348  0.0641
 8841SOL    HW227423   4.770   0.258   2.937 -1.0411  1.1388  0.8672
 8842SOL     OW27424   2.535   2.203   1.081  0.3918  1.0654  0.2469
 8842SOL    HW127425   2.436   2.217   1.072  0.0994 -0.8769 -0.0634
 8842SOL    HW227426   2.563   2.225   1.174 -1.0077 -1.6045  1.4076
 8843SOL     OW27427   6.878   2.212   5.026  0.7412 -0.5458  0.1556
 8843SOL    HW127428   6.884   2.136   4.961  0.1894  0.1652 -0.7559
 8843SOL    HW227429   6.897   2.178   5.118 -3.2103 -2.6773  0.4352
 8844SOL     OW27430   5.941   2.793   0.008 -0.1047 -0.3316 -0.0233
 8844SOL    HW127431   5.851   2.833  -0.009 -0.2610 -0.2533  0.9082
 8844SOL    HW227432   6.001   2.809  -0.071 -0.6922  0.2279 -0.3641
 8845SOL     OW27433   6.698   2.891   6.959 -0.2651 -0.5896 -0.3050
 8845SOL    HW127434   6.721   2.851   7.047 -0.5027 -1.0122 -0.4295
 8845SOL    HW227435   6.728   2.986   6.956  1.7148 -1.1733 -0.5585
 8846SOL     OW27436   3.034   4.116   5.088  0.4675 -0.1186  0.2388
 8846SOL    HW127437   3.055   4.175   5.166  0.4492  1.0903 -0.6524
 8846SOL    HW227438   2.969   4.162   5.028  0.9185 -0.7998 -0.7894
 8847SOL     OW27439   1.916   0.939   3.535  0.1332  0.4051  0.2277
 8847SOL    HW127440   1.961   0.912   3.450 -0.4334  0.5083 -0.1108
 8847SOL    HW227441   1.981   0.931   3.611  0.1433 -1.4013  0.0662
 8848SOL     OW27442   6.891   2.711   2.361  0.3338  0.1479 -0.4867
 8848SOL    HW127443   6.964   2.730   2.296  1.4176 -1.7703  0.0949
 8848SOL    HW227444   6.875   2.792   2.418  1.8779  0.6601 -0.7309
 8849SOL     OW27445   2.598   6.997   0.849  0.3497  0.1655 -0.0140
 8849SOL    HW127446   2.577   6.905   0.882 -0.0515  0.0569 -0.5675
 8849SOL    HW227447   2.546   7.063   0.903 -2.6337 -0.1647 -2.2165
 8850SOL     OW27448   4.216   2.657   6.630  0.8471  0.4296  0.0178
 8850SOL    HW127449   4.165   2.720   6.570  0.4819  0.5379  0.4347
 8850SOL    HW227450   4.243   2.705   6.713 -1.8512 -0.6193  1.6458
 8851SOL     OW27451   1.238   0.371   1.398 -0.0199  0.6555 -0.4579
 8851SOL    HW127452   1.252   0.331   1.489 -2.1052  1.0553  0.0921
 8851SOL    HW227453   1.292   0.455   1.390  0.5165  0.3870  0.2573
 8852SOL     OW27454   1.547   3.640   4.570 -0.6137  0.3757  0.1276
 8852SOL    HW127455   1.522   3.706   4.641 -1.0430  0.5100 -0.1501
 8852SOL    HW227456   1.640   3.658   4.539 -0.6790  0.7568  0.1532
 8853SOL     OW27457   3.141   6.326   2.390 -0.1968  0.2431 -0.0487
 8853SOL    HW127458   3.204   6.256   2.358 -1.1564 -0.9862  0.6809
 8853SOL    HW227459   3.137   6.400   2.323  1.5153  0.0579 -0.4086
 8854SOL     OW27460   5.985   3.230   6.232 -0.4283  0.2432 -0.5309
 8854SOL    HW127461   5.908   3.169   6.212 -0.6159  0.7837 -1.5645
 8854SOL    HW227462   6.038   3.194   6.309 -1.2997 -0.5110 -0.2681
 8855SOL     OW27463   4.858   4.356   1.627  0.1986 -0.1367 -0.2211
 8855SOL    HW127464   4.758   4.345   1.627  0.0800  0.8819 -0.7243
 8855SOL    HW227465   4.895   4.321   1.541  0.2418 -0.2497 -0.1559
 8856SOL     OW27466   5.654   1.261   5.828  0.1115 -0.3353  0.5356
 8856SOL    HW127467   5.725   1.235   5.893  0.3900  0.6667  0.6550
 8856SOL    HW227468   5.683   1.238   5.735  0.5302 -0.0855  0.6016
 8857SOL     OW27469   6.514   1.557   6.833  0.0602 -0.3993 -0.0099
 8857SOL    HW127470   6.515   1.650   6.869  0.4378 -0.6364  0.6179
 8857SOL    HW227471   6.605   1.533   6.799  0.2596 -0.8928  0.8168
 8858SOL     OW27472   6.211   5.121   5.240 -0.7006  0.3320 -0.1416
 8858SOL    HW127473   6.197   5.219   5.222  1.0862  0.7787  0.6500
 8858SOL    HW227474   6.281   5.111   5.310  1.3671 -1.5944 -2.3427
 8859SOL     OW27475   0.443   6.278   3.785 -0.1520 -0.3514  0.2488
 8859SOL    HW127476   0.503   6.287   3.705  0.3491  1.4730  0.7885
 8859SOL    HW227477   0.467   6.195   3.836  0.5395 -0.7197 -0.6429
 8860SOL     OW27478   6.128   1.747   1.450  0.5451 -0.0825 -0.3048
 8860SOL    HW127479   6.085   1.803   1.520  2.0592  2.0092 -0.9532
 8860SOL    HW227480   6.225   1.769   1.443  0.9012 -1.7667 -1.6145
 8861SOL     OW27481   1.928   1.695   0.772 -0.0095  0.7547  0.2518
 8861SOL    HW127482   1.869   1.620   0.741 -0.4138  0.9563  0.5234
 8861SOL    HW227483   1.905   1.718   0.867  0.9369  0.4180  0.5764
 8862SOL     OW27484   4.229   4.693   4.433 -0.1133  0.1367  0.4044
 8862SOL    HW127485   4.131   4.717   4.435 -0.3641 -0.9130  1.7369
 8862SOL    HW227486   4.254   4.650   4.519  0.6168 -3.2153 -1.3504
 8863SOL     OW27487   2.674   2.848   0.648 -0.0319 -0.0467 -0.2102
 8863SOL    HW127488   2.750   2.842   0.712 -0.1723  2.4717  0.3094
 8863SOL    HW227489   2.594   2.888   0.694 -0.3096  1.2937 -1.7479
 8864SOL     OW27490   5.355   1.885   4.477  0.0829 -0.2526 -0.1963
 8864SOL    HW127491   5.280   1.950   4.480  1.2442  1.1216  1.6407
 8864SOL    HW227492   5.346   1.820   4.553  1.0056  0.2598  0.3655
 8865SOL     OW27493   4.633   1.119   1.155 -0.5234  0.0362  0.1808
 8865SOL    HW127494   4.628   1.204   1.208 -0.6498  0.0161  0.2007
 8865SOL    HW227495   4.706   1.127   1.087 -1.1648  0.5430 -0.4692
 8866SOL     OW27496   5.847   1.738   1.860  0.0559  0.2509  0.0080
 8866SOL    HW127497   5.889   1.680   1.930  0.2773  0.3556 -0.0380
 8866SOL    HW227498   5.755   1.763   1.889  0.5513  1.2274  0.7839
 8867SOL     OW27499   6.761   3.124   5.025 -0.9475  0.3316 -0.5307
 8867SOL    HW127500   6.832   3.055   5.017 -0.0683  1.0649  0.6632
 8867SOL    HW227501   6.676   3.082   5.056 -0.6260 -0.3090 -0.5179
 8868SOL     OW27502   6.892   1.973   4.868  0.2652  0.1883  0.0716
 8868SOL    HW127503   6.871   1.987   4.771  1.3870  0.9048 -0.0861
 8868SOL    HW227504   6.923   1.879   4.883  1.4989  0.4780 -0.5467
 8869SOL     OW27505   3.325   6.126   2.301  0.1426 -0.4370  0.0437
 8869SOL    HW127506   3.272   6.065   2.241  0.5969 -0.4470 -0.3518
 8869SOL    HW227507   3.326   6.088   2.394  0.2236 -0.9145 -0.1456
 8870SOL     OW27508   1.584   7.008   2.186 -0.2140  0.4160  0.3999
 8870SOL    HW127509   1.601   6.910   2.193  0.9392  0.4269 -1.5611
 8870SOL    HW227510   1.667   7.059   2.211 -1.0608  0.9745  2.2729
 8871SOL     OW27511   6.393   6.266   0.577  0.3397  0.3385 -0.0713
 8871SOL    HW127512   6.468   6.272   0.511  0.6707  0.0171  0.2698
 8871SOL    HW227513   6.431   6.258   0.669 -0.0510 -1.9270 -0.0416
 8872SOL     OW27514   0.043   2.852   3.500  0.4907 -0.2702 -0.3319
 8872SOL    HW127515   0.091   2.805   3.574 -0.6511 -0.6861  0.1773
 8872SOL    HW227516  -0.035   2.796   3.470 -0.9475  1.2871  0.3269
 8873SOL     OW27517   0.837   1.326   2.424  0.2143  0.5071 -0.1382
 8873SOL    HW127518   0.878   1.369   2.343 -0.8307  0.4197 -0.7266
 8873SOL    HW227519   0.897   1.340   2.503  1.6008 -0.0015 -1.0586
 8874SOL     OW27520   1.384   6.966   5.651  0.1117 -0.1117 -0.1260
 8874SOL    HW127521   1.422   7.053   5.622 -0.7739  0.5295  0.5826
 8874SOL    HW227522   1.355   6.972   5.746  0.4628 -1.3271  0.0788
 8875SOL     OW27523   5.866   3.418   4.650 -0.7655  0.5396  0.5295
 8875SOL    HW127524   5.842   3.321   4.648 -0.0766  0.3761 -0.3502
 8875SOL    HW227525   5.890   3.448   4.558 -0.1792  1.3404  0.9325
 8876SOL     OW27526   6.390   1.297   1.210  0.8261  0.0376 -0.6141
 8876SOL    HW127527   6.385   1.381   1.263  0.9578  0.3013 -1.0115
 8876SOL    HW227528   6.361   1.315   1.116  1.5024 -0.2013 -0.8762
 8877SOL     OW27529   0.798   5.156   0.984  0.0092 -0.7359 -0.1244
 8877SOL    HW127530   0.778   5.059   0.970 -0.3865 -0.4748 -1.6269
 8877SOL    HW227531   0.752   5.210   0.913 -0.9070  0.6986  1.4644
 8878SOL     OW27532   6.908   5.290   1.545  0.5561 -0.2565 -0.0913
 8878SOL    HW127533   7.003   5.321   1.543  0.3750  0.3075 -1.1616
 8878SOL    HW227534   6.899   5.212   1.606  1.6165 -0.0276  0.3774
 8879SOL     OW27535   0.742   4.964   3.761 -0.6846  0.2178 -0.1207
 8879SOL    HW127536   0.680   5.000   3.831 -3.1250 -2.8645 -0.4753
 8879SOL    HW227537   0.830   4.941   3.804 -1.2848  0.6172  1.4081
 8880SOL     OW27538   4.657   0.912   2.477 -0.2436  0.2861  0.4515
 8880SOL    HW127539   4.637   0.872   2.566 -0.0554  0.8446  0.7458
 8880SOL    HW227540   4.748   0.883   2.447 -0.0817  0.5432  0.6929
 8881SOL     OW27541   3.962   5.877   3.261  0.4726 -0.4146  0.0445
 8881SOL    HW127542   4.033   5.924   3.208 -0.7363 -0.3838 -1.6384
 8881SOL    HW227543   3.876   5.926   3.251  0.0657 -0.7563  1.6058
 8882SOL     OW27544   4.839   2.353   5.118 -0.6650  0.0823 -0.6960
 8882SOL    HW127545   4.827   2.451   5.135  1.6956  0.2453  0.6212
 8882SOL    HW227546   4.792   2.327   5.034 -1.5526  2.2834 -0.9522
 8883SOL     OW27547   6.871   6.185   3.665  0.3503 -0.5718  0.1401
 8883SOL    HW127548   6.813   6.248   3.613 -0.0004  0.7051  1.9730
 8883SOL    HW227549   6.816   6.141   3.736  1.5897  0.8611  2.0914
 8884SOL     OW27550   4.516   4.390   6.440  0.0706  0.5283 -0.2149
 8884SOL    HW127551   4.452   4.407   6.365 -3.0443 -0.1851  2.0969
 8884SOL    HW227552   4.496   4.300   6.480  0.6349  1.5033  2.3802
 8885SOL     OW27553   6.256   5.702   3.501  0.3518 -0.0021  0.1999
 8885SOL    HW127554   6.329   5.757   3.543 -0.5000  0.4472  1.1366
 8885SOL    HW227555   6.296   5.620   3.460  1.4381  0.4638  0.2743
 8886SOL     OW27556   3.825   6.085   1.614 -0.2460 -0.4066  0.6788
 8886SOL    HW127557   3.811   5.993   1.650  0.7057 -0.0197  2.1142
 8886SOL    HW227558   3.909   6.123   1.651  0.1883  0.4917 -1.0916
 8887SOL     OW27559   2.448   1.551   2.177  0.9348 -0.2568  0.6655
 8887SOL    HW127560   2.505   1.473   2.206  2.2006  0.8916  1.4089
 8887SOL    HW227561   2.425   1.542   2.080  0.2759 -1.9998  0.9429
 8888SOL     OW27562   3.592   0.672   6.891 -0.9148  0.0370 -0.0741
 8888SOL    HW127563   3.680   0.651   6.934 -0.2561  3.0356  0.3125
 8888SOL    HW227564   3.517   0.644   6.952 -0.0719  1.3595  1.6541
 8889SOL     OW27565   0.290   5.187   4.531  0.2119  0.2539  0.7623
 8889SOL    HW127566   0.196   5.188   4.497  0.9526 -0.0908 -1.4568
 8889SOL    HW227567   0.295   5.131   4.613 -1.3978 -0.3178  0.5037
 8890SOL     OW27568   0.754   6.419   4.355  0.0547 -0.2042  0.4954
 8890SOL    HW127569   0.796   6.351   4.415  1.2821 -1.6134 -1.8164
 8890SOL    HW227570   0.687   6.374   4.296 -0.8085  1.0695  0.4616
 8891SOL     OW27571   6.934   3.511   6.706  0.3809  0.0944  0.1187
 8891SOL    HW127572   6.944   3.600   6.661  1.3995  0.0922  0.3086
 8891SOL    HW227573   7.013   3.495   6.765  0.0661 -0.8173  0.3046
 8892SOL     OW27574   1.290   6.446   4.442 -0.3817 -0.5131 -0.2516
 8892SOL    HW127575   1.337   6.432   4.355 -1.1689  1.1469 -0.9913
 8892SOL    HW227576   1.208   6.502   4.427  0.9290  2.2423  1.8686
 8893SOL     OW27577   1.382   4.927   5.821  0.4172 -0.2999  0.3674
 8893SOL    HW127578   1.333   4.907   5.905  2.9056 -0.2546  1.9379
 8893SOL    HW227579   1.350   5.014   5.783 -1.8048 -1.0749  0.3575
 8894SOL     OW27580   4.726   1.944   2.505  0.7056  0.1902  0.4469
 8894SOL    HW127581   4.655   2.013   2.512 -0.4697 -1.0525  1.1141
 8894SOL    HW227582   4.723   1.883   2.584  1.5723 -0.7652 -0.2150
 8895SOL     OW27583   0.261   3.600   4.272  0.0732  0.0992 -0.0711
 8895SOL    HW127584   0.282   3.504   4.294  1.2655  0.1103 -1.0435
 8895SOL    HW227585   0.347   3.651   4.261 -0.4902  1.9002  2.8820
 8896SOL     OW27586   1.117   0.304   4.094  1.0921  0.0361 -0.0570
 8896SOL    HW127587   1.057   0.381   4.071  0.2290 -0.4040  0.6231
 8896SOL    HW227588   1.205   0.315   4.048  0.4721  0.6701 -1.1385
 8897SOL     OW27589   1.848   5.052   3.967 -0.0198  0.1000  0.1719
 8897SOL    HW127590   1.938   5.023   3.933  0.2460  0.5950  0.4365
 8897SOL    HW227591   1.787   5.069   3.889  0.8317  2.0290 -0.1237
 8898SOL     OW27592   0.119   3.731   4.576  0.3153  0.2799 -0.4368
 8898SOL    HW127593   0.061   3.764   4.650  1.5082 -1.4991  1.3839
 8898SOL    HW227594   0.202   3.787   4.571  0.4986  0.0425 -0.0462
 8899SOL     OW27595   1.153   5.334   1.917 -0.0090 -0.3018 -0.3103
 8899SOL    HW127596   1.145   5.253   1.974 -1.4636 -0.3079 -0.4807
 8899SOL    HW227597   1.243   5.335   1.873  1.3358 -0.0532  2.2886
 8900SOL     OW27598   3.426   0.236   4.039  0.0111 -0.2884  0.1001
 8900SOL    HW127599   3.453   0.294   3.962 -1.4480 -0.9271 -0.9472
 8900SOL    HW227600   3.469   0.147   4.031  2.4956  0.6547  1.8751
 8901SOL     OW27601   0.833   4.127   6.262  0.4841  0.2775 -0.1296
 8901SOL    HW127602   0.800   4.112   6.169 -0.3207 -1.1347  0.3347
 8901SOL    HW227603   0.806   4.218   6.293 -0.8274  0.1028 -0.6715
 8902SOL     OW27604   0.863   4.955   5.951 -0.7487 -0.1697  0.0382
 8902SOL    HW127605   0.917   4.935   6.033 -1.3930  0.3204  0.5892
 8902SOL    HW227606   0.921   5.002   5.884  0.0801 -1.5311 -0.2433
 8903SOL     OW27607   0.903   6.781   3.643  0.4375  0.3516 -0.0006
 8903SOL    HW127608   0.821   6.817   3.600  0.7574  0.5766 -0.4268
 8903SOL    HW227609   0.927   6.838   3.722  0.8826  1.0189 -0.6103
 8904SOL     OW27610   6.529   0.361   2.724 -0.7546  0.0531 -0.6991
 8904SOL    HW127611   6.608   0.310   2.758 -2.0807 -0.6037  1.6745
 8904SOL    HW227612   6.533   0.369   2.625  2.7273  0.8475 -0.6049
 8905SOL     OW27613   1.531   4.499   1.074 -0.6380 -0.2536 -0.0745
 8905SOL    HW127614   1.600   4.567   1.051  0.9350 -1.5182  0.6999
 8905SOL    HW227615   1.488   4.466   0.990  1.0330 -0.7729 -0.7666
 8906SOL     OW27616   0.466   0.079   0.636  0.0725  0.2048 -0.3752
 8906SOL    HW127617   0.413   0.074   0.721 -0.6456  0.3090 -0.8058
 8906SOL    HW227618   0.409   0.048   0.560  0.4402  0.8605 -0.9264
 8907SOL     OW27619   3.864   2.768   5.621  0.2181  0.4090  0.2098
 8907SOL    HW127620   3.830   2.713   5.545 -0.0461  0.4277  0.3162
 8907SOL    HW227621   3.834   2.863   5.609 -2.6099 -0.1543  2.0083
 8908SOL     OW27622   1.806   5.766   6.920  0.6583  0.3246  0.2315
 8908SOL    HW127623   1.785   5.724   7.008 -0.3706 -0.5084 -0.3867
 8908SOL    HW227624   1.774   5.861   6.920  0.4530  0.2577  0.6778
 8909SOL     OW27625   3.166   6.504   0.681 -0.0155  0.2330  0.1184
 8909SOL    HW127626   3.076   6.548   0.680 -0.1222  0.0120 -1.4801
 8909SOL    HW227627   3.166   6.427   0.618  0.6742 -1.0848  1.6580
 8910SOL     OW27628   0.420   1.805   3.761 -0.0773 -0.1229  0.1839
 8910SOL    HW127629   0.452   1.736   3.695  0.0993  0.0822  0.0557
 8910SOL    HW227630   0.426   1.767   3.853 -0.8683 -0.6222  0.0443
 8911SOL     OW27631   6.891   4.157   5.565  0.4184 -0.1908 -0.3750
 8911SOL    HW127632   6.860   4.250   5.585 -1.7810 -0.7871 -0.7813
 8911SOL    HW227633   6.860   4.130   5.474  1.0923 -1.3029 -0.2921
 8912SOL     OW27634   3.909   3.055   4.611  0.0654  0.0774 -0.0032
 8912SOL    HW127635   4.001   3.086   4.634 -0.8154  1.7336  1.5576
 8912SOL    HW227636   3.872   3.111   4.537 -0.5504  1.0548  1.0178
 8913SOL     OW27637   4.510   4.930   2.843  0.1684  0.2418  0.0758
 8913SOL    HW127638   4.546   4.845   2.805  0.8339  0.1895  0.8105
 8913SOL    HW227639   4.494   4.995   2.770  1.5973  0.2092 -0.2888
 8914SOL     OW27640   4.925   3.969   6.332 -0.2505 -0.2816  0.1860
 8914SOL    HW127641   4.916   3.902   6.259  1.7013 -2.2417  1.6000
 8914SOL    HW227642   4.963   4.054   6.295  0.2220 -1.0488 -1.1579
 8915SOL     OW27643   2.576   0.120   4.184  0.0594 -0.3220  0.0774
 8915SOL    HW127644   2.589   0.209   4.228 -2.3341 -0.2925  0.8652
 8915SOL    HW227645   2.629   0.050   4.232  2.0997  0.6635 -0.6557
 8916SOL     OW27646   6.538   6.534   2.155 -0.6765  0.5682 -0.3827
 8916SOL    HW127647   6.529   6.536   2.056 -1.9618  1.2447 -0.2832
 8916SOL    HW227648   6.449   6.554   2.197 -0.6457 -1.6864  0.9376
 8917SOL     OW27649   5.943   2.773   1.112  0.1020 -0.5717 -0.0064
 8917SOL    HW127650   5.957   2.864   1.151 -1.1893 -0.0248 -0.7563
 8917SOL    HW227651   6.017   2.713   1.141 -0.8778 -0.3101  3.5304
 8918SOL     OW27652   1.104   1.497   3.212  0.3351  0.1216 -1.0606
 8918SOL    HW127653   1.187   1.547   3.235  0.7662 -0.8978 -0.2907
 8918SOL    HW227654   1.046   1.553   3.153  1.8391  0.6095 -2.1238
 8919SOL     OW27655   5.448   3.640   1.896  0.2008 -0.0141 -0.0379
 8919SOL    HW127656   5.457   3.542   1.881 -2.5015 -0.1421 -1.4731
 8919SOL    HW227657   5.502   3.689   1.827 -0.6236 -0.5553 -1.1075
 8920SOL     OW27658   2.265   2.012   0.572  0.3088 -0.2835  0.0619
 8920SOL    HW127659   2.171   2.018   0.606  0.6141  1.8825  0.6686
 8920SOL    HW227660   2.322   2.080   0.618  2.0065 -0.9996 -0.8788
 8921SOL     OW27661   1.393   2.562   0.861 -0.5824  0.3038 -0.5139
 8921SOL    HW127662   1.456   2.624   0.907 -0.0982 -0.3716 -0.2474
 8921SOL    HW227663   1.311   2.550   0.916  0.2168 -0.9158  0.4690
 8922SOL     OW27664   2.090   4.643   4.017  0.4637 -0.2396 -0.2539
 8922SOL    HW127665   2.186   4.659   4.040  0.1987  0.1000  0.6644
 8922SOL    HW227666   2.081   4.555   3.970  0.9767 -1.3540  1.5932
 8923SOL     OW27667   4.956   1.450   3.962  0.2699 -0.0002  0.6272
 8923SOL    HW127668   4.875   1.492   4.003 -0.5516 -0.5139 -0.4154
 8923SOL    HW227669   4.948   1.351   3.965  0.3599 -0.0562 -0.3930
 8924SOL     OW27670   4.117   6.097   4.384  1.1672  0.6744 -0.5835
 8924SOL    HW127671   4.134   6.052   4.297 -0.2002  0.3798 -0.7293
 8924SOL    HW227672   4.088   6.030   4.452  0.8635  1.0849 -0.2979
 8925SOL     OW27673   0.728   6.677   4.401 -0.0161  0.0876  0.4281
 8925SOL    HW127674   0.737   6.580   4.376  0.4028 -0.0055  0.9205
 8925SOL    HW227675   0.643   6.690   4.453 -0.0897 -0.0109  0.3320
 8926SOL     OW27676   6.301   4.964   6.494 -0.1141  0.1847 -0.0240
 8926SOL    HW127677   6.323   5.055   6.530 -1.0459  0.7135 -0.7367
 8926SOL    HW227678   6.201   4.951   6.495 -0.1062 -0.1821 -1.4448
 8927SOL     OW27679   2.382   1.677   6.546 -0.1944 -0.7057  0.7217
 8927SOL    HW127680   2.345   1.770   6.552 -0.1197 -0.5643 -0.6720
 8927SOL    HW227681   2.478   1.678   6.573  0.3960  0.0541 -1.2031
 8928SOL     OW27682   6.792   6.370   5.692 -0.1822  0.7017 -0.2920
 8928SOL    HW127683   6.875   6.315   5.680 -0.9518 -0.5166 -0.1470
 8928SOL    HW227684   6.744   6.341   5.774 -1.4878  0.4078 -1.1309
 8929SOL     OW27685   0.070   1.620   3.431 -0.4261 -0.0631 -0.3634
 8929SOL    HW127686   0.140   1.580   3.491  0.5930  0.7384 -0.9840
 8929SOL    HW227687   0.114   1.659   3.350 -1.6900 -0.3275 -1.2089
 8930SOL     OW27688   1.153   5.196   2.664  0.5773 -0.3446 -0.1423
 8930SOL    HW127689   1.146   5.206   2.763  1.8859 -1.1136  0.0424
 8930SOL    HW227690   1.063   5.169   2.628  0.2176 -0.5960  0.8938
 8931SOL     OW27691   4.904   2.958   6.278  0.4837 -0.0497  0.6139
 8931SOL    HW127692   4.986   2.985   6.229  0.8161 -1.3672  0.4115
 8931SOL    HW227693   4.929   2.903   6.358 -0.2145 -1.5166 -0.1333
 8932SOL     OW27694   6.468   3.878   3.086 -0.3200 -0.2788  0.4435
 8932SOL    HW127695   6.386   3.931   3.106  1.1580  1.6305  1.8655
 8932SOL    HW227696   6.491   3.822   3.166  0.8268  0.7394  0.8581
 8933SOL     OW27697   6.302   3.479   6.561 -0.1309 -0.4866  0.7395
 8933SOL    HW127698   6.315   3.380   6.570  0.7755 -0.3182  1.3711
 8933SOL    HW227699   6.276   3.518   6.649  0.7372  0.0139  0.7829
 8934SOL     OW27700   1.890   6.854   2.728  0.3996  0.4944 -0.1022
 8934SOL    HW127701   1.961   6.829   2.795 -2.0234  1.4855  3.0854
 8934SOL    HW227702   1.805   6.808   2.751 -0.2549 -0.3601 -3.5931
 8935SOL     OW27703   1.465   5.882   0.281 -0.2282 -0.0597 -0.1784
 8935SOL    HW127704   1.502   5.958   0.333  0.1372 -0.0603 -0.4370
 8935SOL    HW227705   1.451   5.910   0.186 -1.1400  0.0238 -0.0335
 8936SOL     OW27706   3.770   2.897   6.454  0.6248  0.2503 -0.3867
 8936SOL    HW127707   3.679   2.890   6.494  0.0691 -0.5662 -1.7010
 8936SOL    HW227708   3.767   2.960   6.377  1.6251  1.6584  0.6873
 8937SOL     OW27709   1.064   0.641   0.287  0.5814 -0.2634 -0.2350
 8937SOL    HW127710   1.150   0.689   0.270  1.3957 -1.7729 -0.5776
 8937SOL    HW227711   1.029   0.665   0.378  0.3826  1.7578 -0.7984
 8938SOL     OW27712   4.905   6.468   2.143  0.2643 -0.3030 -0.5558
 8938SOL    HW127713   5.003   6.482   2.133  0.4214 -0.5308  0.6183
 8938SOL    HW227714   4.860   6.489   2.056  1.2530  0.6110 -0.8672
 8939SOL     OW27715   4.736   2.745   4.453  0.4526  0.1256  0.4734
 8939SOL    HW127716   4.673   2.668   4.446  0.7209 -0.0109 -0.6467
 8939SOL    HW227717   4.734   2.798   4.368  2.5259 -0.4526 -0.0042
 8940SOL     OW27718   4.281   0.295   4.023 -0.1792  0.7278 -0.1820
 8940SOL    HW127719   4.273   0.388   3.986  2.5545  0.8989 -0.5048
 8940SOL    HW227720   4.272   0.297   4.122 -1.2479  1.1386 -0.2694
 8941SOL     OW27721   4.704   2.627   0.792 -0.2951  0.3436 -0.0058
 8941SOL    HW127722   4.767   2.639   0.868  0.0814 -1.1587 -0.0399
 8941SOL    HW227723   4.750   2.577   0.718 -0.8331  1.2626 -0.9786
 8942SOL     OW27724   1.355   0.524   6.444  1.2811  0.5828  0.1142
 8942SOL    HW127725   1.285   0.596   6.447  0.5578 -0.1282  1.1206
 8942SOL    HW227726   1.323   0.445   6.496  2.9576  0.3313  0.8150
 8943SOL     OW27727   4.463   3.291   1.342  0.0420  0.0442  0.2237
 8943SOL    HW127728   4.550   3.338   1.328 -0.3539  0.7482  0.1041
 8943SOL    HW227729   4.464   3.245   1.430  0.1694  0.8693  0.6593
 8944SOL     OW27730   4.263   4.988   6.484  0.5403  0.3412  0.2072
 8944SOL    HW127731   4.177   5.021   6.447  0.6981 -0.9282 -1.4153
 8944SOL    HW227732   4.292   4.907   6.433  3.4410  1.5701 -0.2696
 8945SOL     OW27733   3.905   1.627   3.697 -0.0387 -0.0968  0.3391
 8945SOL    HW127734   4.004   1.620   3.709  0.0007 -0.7732 -0.3018
 8945SOL    HW227735   3.873   1.714   3.734  1.1131  1.1359 -1.4400
 8946SOL     OW27736   1.878   6.009   4.624 -0.4428 -0.0793  0.0764
 8946SOL    HW127737   1.807   6.063   4.670 -1.1477 -2.6788  2.2850
 8946SOL    HW227738   1.835   5.942   4.563  0.2693 -0.0912 -0.4340
 8947SOL     OW27739   2.873   3.949   5.926 -0.4564  0.6676  0.1743
 8947SOL    HW127740   2.931   3.921   6.003  1.4863 -0.1822 -1.5109
 8947SOL    HW227741   2.839   3.868   5.878 -2.2345  1.1781  0.4951
 8948SOL     OW27742   0.294   4.614   3.451 -0.5928 -0.1311 -0.6997
 8948SOL    HW127743   0.247   4.697   3.422 -1.1518 -0.4762 -0.8119
 8948SOL    HW227744   0.382   4.637   3.491 -0.8711  0.5388 -0.4592
 8949SOL     OW27745   2.509   0.596   4.833  0.0807 -0.5818  0.2897
 8949SOL    HW127746   2.441   0.567   4.900 -1.4498  1.8629 -0.0685
 8949SOL    HW227747   2.469   0.596   4.742  0.9671 -0.3231 -0.1111
 8950SOL     OW27748   4.083   2.513   5.480  0.2840  0.0814 -0.1578
 8950SOL    HW127749   4.019   2.564   5.424 -1.0516 -1.1635  0.1672
 8950SOL    HW227750   4.167   2.566   5.493  0.1828  0.8559 -2.3609
 8951SOL     OW27751   2.817   1.125   6.345 -0.1089 -0.2674 -0.2655
 8951SOL    HW127752   2.743   1.140   6.280  0.0144  0.6431 -0.2034
 8951SOL    HW227753   2.778   1.116   6.437 -0.3540 -2.2957 -0.5156
 8952SOL     OW27754   7.008   0.221   3.072 -0.0549 -0.2774  0.2768
 8952SOL    HW127755   7.076   0.163   3.028 -0.0120 -0.8521  1.0708
 8952SOL    HW227756   7.027   0.226   3.170 -1.3432 -0.7284  0.5690
 8953SOL     OW27757   1.901   2.557   5.691 -0.3067  0.5379  0.0191
 8953SOL    HW127758   1.986   2.596   5.655 -1.5664  1.5608 -2.0212
 8953SOL    HW227759   1.853   2.626   5.745 -0.4828  0.4192  0.0147
 8954SOL     OW27760   3.628   6.262   6.610  0.2891 -0.3812  0.2213
 8954SOL    HW127761   3.664   6.338   6.664 -0.1185  0.5493 -0.7770
 8954SOL    HW227762   3.542   6.290   6.567  1.1191 -0.7079 -1.7615
 8955SOL     OW27763   6.452   2.665   3.370  0.5370  0.2663 -0.4088
 8955SOL    HW127764   6.466   2.629   3.278  0.3186 -0.4489 -0.1711
 8955SOL    HW227765   6.537   2.653   3.423  1.6791  3.3315 -1.3437
 8956SOL     OW27766   1.161   2.711   5.057  0.4471  0.6322 -0.0206
 8956SOL    HW127767   1.061   2.713   5.050  0.3534 -0.9944  0.4446
 8956SOL    HW227768   1.192   2.617   5.074  2.0477  1.1372  0.0715
 8957SOL     OW27769   2.918   6.998   3.387 -0.3335 -0.2270  0.3119
 8957SOL    HW127770   2.943   6.902   3.405  0.5651  0.1145  0.9852
 8957SOL    HW227771   2.904   7.011   3.289 -2.0591 -1.3992  0.3652
 8958SOL     OW27772   6.051   1.175   5.369 -0.1109  0.0519  0.3002
 8958SOL    HW127773   5.954   1.165   5.349 -0.3418  0.4071  1.1881
 8958SOL    HW227774   6.073   1.271   5.386  0.5627  0.0834 -0.6677
 8959SOL     OW27775   3.037   5.011   6.441  0.2212 -0.1968  0.1832
 8959SOL    HW127776   3.077   4.949   6.373  1.0551 -1.0880  1.4401
 8959SOL    HW227777   3.012   5.097   6.397  2.6361  0.0452 -0.8857
 8960SOL     OW27778   3.933   4.836   6.479 -0.4098 -0.2237  0.1278
 8960SOL    HW127779   3.967   4.926   6.453 -2.5930  0.4900 -0.5312
 8960SOL    HW227780   3.912   4.836   6.577 -1.6073  0.4677 -0.0987
 8961SOL     OW27781   2.232   2.707   2.934 -0.1875  0.1863 -0.0355
 8961SOL    HW127782   2.237   2.768   2.855 -1.4872  0.7940  0.3263
 8961SOL    HW227783   2.223   2.761   3.018 -0.3279 -0.4842  0.3937
 8962SOL     OW27784   5.968   0.855   6.256  0.3835 -0.0987 -0.6875
 8962SOL    HW127785   5.953   0.916   6.334 -0.3574  1.4112 -1.9535
 8962SOL    HW227786   6.064   0.827   6.253  0.9215  1.6210 -0.4722
 8963SOL     OW27787   0.577   6.586   3.776  0.3189  0.7221 -0.2723
 8963SOL    HW127788   0.513   6.641   3.829 -0.0872  0.0311 -0.0225
 8963SOL    HW227789   0.651   6.553   3.836  0.7746  1.3143 -0.5054
 8964SOL     OW27790   0.206   3.732   1.928 -0.2244  0.5827 -0.4059
 8964SOL    HW127791   0.155   3.741   1.843 -2.9917 -0.9561  0.9492
 8964SOL    HW227792   0.175   3.802   1.993 -1.9543 -1.3541  0.9774
 8965SOL     OW27793   1.339   3.131   1.758 -0.3442 -0.1649  0.3695
 8965SOL    HW127794   1.394   3.211   1.782  2.1681 -1.9799  1.1487
 8965SOL    HW227795   1.263   3.122   1.822 -1.5974  2.3013 -0.6110
 8966SOL     OW27796   2.954   3.183   5.128 -0.4839 -0.2008  0.0361
 8966SOL    HW127797   3.000   3.265   5.163 -2.3472  0.5162  0.9189
 8966SOL    HW227798   2.979   3.170   5.032  0.4029  0.9861  0.0838
 8967SOL     OW27799   5.156   6.720   1.914  0.3956 -0.3530  0.1410
 8967SOL    HW127800   5.232   6.774   1.951 -0.0453  0.4324 -0.0932
 8967SOL    HW227801   5.193   6.649   1.853  0.8486  1.4924 -1.8606
 8968SOL     OW27802   6.103   4.095   3.817  0.3700  0.2568 -0.2835
 8968SOL    HW127803   6.178   4.063   3.875  1.0386  1.4540 -0.4599
 8968SOL    HW227804   6.036   4.143   3.872  0.7425  0.9369 -0.4184
 8969SOL     OW27805   0.676   1.896   3.193 -0.0045 -0.4955 -0.2379
 8969SOL    HW127806   0.687   1.981   3.141  0.3429  0.1862  0.9036
 8969SOL    HW227807   0.765   1.867   3.228 -0.1929 -1.0876 -0.2416
 8970SOL     OW27808   2.204   1.691   0.861 -0.3745  0.5886  0.0931
 8970SOL    HW127809   2.270   1.631   0.815 -0.0084  2.3397 -1.8340
 8970SOL    HW227810   2.113   1.677   0.822  0.0227  2.4193 -1.6359
 8971SOL     OW27811   4.130   5.316   2.198 -0.1412  0.3377  0.4125
 8971SOL    HW127812   4.037   5.288   2.223 -0.2337 -2.1628 -2.1592
 8971SOL    HW227813   4.183   5.234   2.173  2.4048  1.8194  0.6524
 8972SOL     OW27814   0.049   6.030   6.415 -0.0316  0.1071  0.4752
 8972SOL    HW127815   0.045   5.984   6.326  2.4540 -1.5630  1.1065
 8972SOL    HW227816  -0.000   5.975   6.483 -0.4667  0.4883  0.4722
 8973SOL     OW27817   0.556   4.174   6.071 -0.3340  0.4019  1.1374
 8973SOL    HW127818   0.481   4.176   6.137 -1.8335  0.7218 -0.5084
 8973SOL    HW227819   0.562   4.261   6.023  1.0962  0.3753  1.1984
 8974SOL     OW27820   5.876   2.355   3.853  0.1124 -0.0307  0.1111
 8974SOL    HW127821   5.909   2.271   3.897 -0.5182 -0.1640  0.3361
 8974SOL    HW227822   5.778   2.349   3.839  0.3640 -0.1960 -1.7947
 8975SOL     OW27823   4.058   1.131   5.490  0.3694 -0.0678  0.6115
 8975SOL    HW127824   4.001   1.085   5.558 -1.1760  0.2649 -0.4380
 8975SOL    HW227825   4.058   1.229   5.507 -0.7681  0.1209 -0.3909
 8976SOL     OW27826   2.050   0.113   2.428  0.2654  0.2211  0.0916
 8976SOL    HW127827   2.074   0.207   2.403  2.8124  0.2847  2.3001
 8976SOL    HW227828   2.043   0.058   2.345 -1.2552  2.3020 -1.2552
 8977SOL     OW27829   5.326   3.508   5.753  0.7185 -0.2641 -0.3138
 8977SOL    HW127830   5.262   3.490   5.828  0.7638 -3.3596 -0.8952
 8977SOL    HW227831   5.317   3.604   5.724 -2.3331 -0.0978  0.8018
 8978SOL     OW27832   6.146   2.629   1.157 -0.1897 -0.3357  1.2225
 8978SOL    HW127833   6.129   2.538   1.195  0.9512 -0.8588  0.5524
 8978SOL    HW227834   6.204   2.621   1.075 -1.6587  0.8394  0.0061
 8979SOL     OW27835   1.087   3.680   4.818 -0.0829  0.0362  0.4271
 8979SOL    HW127836   1.142   3.598   4.801 -1.2476 -0.8459  0.7450
 8979SOL    HW227837   1.025   3.663   4.894 -0.7704  1.0042  0.1028
 8980SOL     OW27838   4.113   3.514   5.509  0.4642  0.0183 -0.4240
 8980SOL    HW127839   4.030   3.463   5.530 -0.2226  1.2233 -0.1119
 8980SOL    HW227840   4.133   3.507   5.411 -0.5557  0.5054 -0.6732
 8981SOL     OW27841   1.876   2.599   4.306 -0.0554 -0.2509  0.1201
 8981SOL    HW127842   1.857   2.501   4.316 -0.9598 -0.0268  0.7471
 8981SOL    HW227843   1.952   2.625   4.365  2.0769 -1.0950 -2.1258
 8982SOL     OW27844   3.958   2.270   0.768  0.5859 -0.5233 -0.0407
 8982SOL    HW127845   3.859   2.260   0.758  0.8688 -2.3096 -1.6330
 8982SOL    HW227846   3.979   2.362   0.799 -1.6523 -0.6217  2.0520
 8983SOL     OW27847   2.941   4.767   0.544  0.2309 -0.0487 -0.0909
 8983SOL    HW127848   2.939   4.815   0.456  0.0805  0.0219 -0.0483
 8983SOL    HW227849   3.001   4.816   0.607  2.4385 -1.4517 -0.9450
 8984SOL     OW27850   0.008   0.879   3.598 -0.3664 -0.5313 -0.2461
 8984SOL    HW127851  -0.007   0.976   3.616  1.2244 -0.3171  0.0718
 8984SOL    HW227852  -0.077   0.838   3.563 -1.2922  0.7755  0.3806
 8985SOL     OW27853   3.375   3.733   5.376 -0.5562 -0.4963 -0.2816
 8985SOL    HW127854   3.466   3.746   5.337 -1.6446  0.4893 -2.6949
 8985SOL    HW227855   3.348   3.816   5.425 -0.9131 -0.0045 -1.2863
 8986SOL     OW27856   2.944   5.357   1.393  0.0029  0.4332 -0.2569
 8986SOL    HW127857   2.964   5.266   1.357  0.4112  1.1911 -2.1045
 8986SOL    HW227858   2.861   5.392   1.349  0.2127  1.2042 -0.0503
 8987SOL     OW27859   3.464   5.489   3.979  0.3351  0.3532 -0.3171
 8987SOL    HW127860   3.415   5.476   3.893 -0.1177  0.3330 -0.0557
 8987SOL    HW227861   3.561   5.507   3.959  0.8769 -2.4880 -0.7697
 8988SOL     OW27862   1.847   2.869   3.379 -0.4533  0.2062  0.9011
 8988SOL    HW127863   1.877   2.810   3.454 -0.2548  1.5834  1.9360
 8988SOL    HW227864   1.867   2.824   3.292 -0.1886 -1.1870  1.6469
 8989SOL     OW27865   2.922   1.529   6.332 -0.1730  0.3437 -0.1966
 8989SOL    HW127866   2.968   1.588   6.266  1.6853 -0.5797  0.2153
 8989SOL    HW227867   2.939   1.433   6.309 -0.9990 -0.0192  0.6093
 8990SOL     OW27868   1.056   6.091   5.050  0.0880 -0.7257 -0.3887
 8990SOL    HW127869   0.969   6.042   5.061 -0.9273  1.0275 -0.1553
 8990SOL    HW227870   1.037   6.187   5.028  1.9458  0.1577  1.5676
 8991SOL     OW27871   2.035   3.339   4.739  0.0546  0.1568 -0.7514
 8991SOL    HW127872   2.076   3.247   4.735  0.0374  0.0117  1.1740
 8991SOL    HW227873   2.034   3.370   4.834 -4.4555  0.0774 -0.5846
 8992SOL     OW27874   6.236   2.767   1.803 -0.6710 -0.0124  0.1367
 8992SOL    HW127875   6.177   2.840   1.837  0.8582  0.2052  2.5527
 8992SOL    HW227876   6.234   2.766   1.703 -3.3510  1.0803  0.1002
 8993SOL     OW27877   4.365   5.649   6.727 -0.2321 -0.6925 -0.0139
 8993SOL    HW127878   4.370   5.557   6.767 -0.1306 -0.4091  0.6399
 8993SOL    HW227879   4.277   5.660   6.680 -0.9070 -0.6232  1.2023
 8994SOL     OW27880   2.735   5.303   2.753 -0.4400 -0.3213  0.4375
 8994SOL    HW127881   2.800   5.350   2.694 -1.1178 -1.0594 -0.9540
 8994SOL    HW227882   2.718   5.358   2.835  0.2637  0.9066 -0.2107
 8995SOL     OW27883   0.058   6.123   3.494  0.0046  0.0924 -0.5933
 8995SOL    HW127884  -0.024   6.130   3.551 -0.1268 -1.6646 -0.5040
 8995SOL    HW227885   0.046   6.049   3.428  1.6699 -0.4727 -0.3053
 8996SOL     OW27886   5.038   6.907   4.973 -0.0484 -0.5514  0.1305
 8996SOL    HW127887   5.076   6.864   5.055  0.5641  1.9579  1.2433
 8996SOL    HW227888   5.000   6.996   4.996 -0.9212 -0.2659 -2.1385
 8997SOL     OW27889   1.306   5.783   4.722 -0.0700 -0.7496 -0.0602
 8997SOL    HW127890   1.349   5.772   4.632  0.4171 -0.8786  0.1849
 8997SOL    HW227891   1.217   5.738   4.721 -0.5330  0.1344 -0.7955
 8998SOL     OW27892   0.986   6.882   6.301 -0.0146  0.4774 -0.1154
 8998SOL    HW127893   1.037   6.880   6.387  0.6555 -0.1265 -0.5159
 8998SOL    HW227894   1.049   6.868   6.225 -0.7855 -0.3424 -0.6197
 8999SOL     OW27895   4.291   0.762   0.073  0.4574  0.0627  0.1642
 8999SOL    HW127896   4.389   0.750   0.089  0.2947 -1.0816  0.4161
 8999SOL    HW227897   4.271   0.859   0.058  1.5938  0.3320  0.2882
 9000SOL     OW27898   0.324   4.957   0.454  0.3812 -0.0513 -0.3370
 9000SOL    HW127899   0.362   5.009   0.377  1.4455 -1.5921 -0.9070
 9000SOL    HW227900   0.359   4.864   0.451 -0.5595 -0.4932  1.3220
 9001SOL     OW27901   0.896   5.841   6.083 -0.3437  0.6133  0.8178
 9001SOL    HW127902   0.803   5.850   6.047 -0.5357 -0.5516  1.0045
 9001SOL    HW227903   0.960   5.886   6.020 -0.7977 -0.4485 -0.4308
 9002SOL     OW27904   4.110   5.677   5.037 -0.3597  0.4590  0.5610
 9002SOL    HW127905   4.059   5.761   5.020 -2.9647 -1.4292 -1.9030
 9002SOL    HW227906   4.058   5.617   5.097 -0.3324 -0.8318 -0.6447
 9003SOL     OW27907   4.168   6.517   2.431  0.3943  0.3604  0.3869
 9003SOL    HW127908   4.102   6.532   2.358  0.5622  0.0661  0.1742
 9003SOL    HW227909   4.195   6.421   2.433 -0.0966  0.2282  1.2532
 9004SOL     OW27910   6.372   4.611   1.640 -0.3590  0.1148  0.1230
 9004SOL    HW127911   6.467   4.580   1.646 -1.0347 -2.0741  0.2436
 9004SOL    HW227912   6.364   4.702   1.683  1.6994  0.4662 -0.1381
 9005SOL     OW27913   5.145   0.354   4.162 -0.4138  0.4164 -0.4270
 9005SOL    HW127914   5.151   0.413   4.243  1.0127 -0.7573  0.3707
 9005SOL    HW227915   5.092   0.273   4.183 -1.3191  0.8042 -1.1515
 9006SOL     OW27916   4.089   5.670   1.616  0.1586  0.0212  0.2529
 9006SOL    HW127917   4.141   5.610   1.677  1.7434  0.2320 -0.8301
 9006SOL    HW227918   4.016   5.715   1.668  1.5779  0.3549  2.0468
 9007SOL     OW27919   6.522   6.902   4.660 -0.3933 -0.7444 -0.2031
 9007SOL    HW127920   6.490   6.912   4.755  1.2329  0.5893  0.2613
 9007SOL    HW227921   6.619   6.880   4.660 -0.1682  0.1119 -1.5575
 9008SOL     OW27922   5.142   4.399   1.589  0.1820  0.1202 -0.3396
 9008SOL    HW127923   5.122   4.406   1.491  1.2444 -0.9700 -0.6694
 9008SOL    HW227924   5.057   4.393   1.640 -0.3818 -0.5495 -1.3215
 9009SOL     OW27925   2.785   6.510   1.209  0.0794  0.5366 -0.2223
 9009SOL    HW127926   2.720   6.434   1.217 -0.0067  0.6667  0.3528
 9009SOL    HW227927   2.805   6.546   1.300  1.2196  0.2781 -0.3612
 9010SOL     OW27928   1.657   5.735   5.181 -0.2286  0.4893  0.5683
 9010SOL    HW127929   1.577   5.785   5.148 -0.7290 -0.4212  0.3808
 9010SOL    HW227930   1.735   5.798   5.188  0.0940  0.6839 -2.8963
 9011SOL     OW27931   2.364   0.610   1.094 -0.4348  0.0048  0.0284
 9011SOL    HW127932   2.273   0.612   1.053  0.0704  0.5462 -1.0934
 9011SOL    HW227933   2.360   0.650   1.185 -1.2653  0.2763 -0.1204
 9012SOL     OW27934   1.947   6.663   5.878  0.2992  0.6799 -0.2575
 9012SOL    HW127935   1.877   6.595   5.857  0.4358  1.0986 -2.2274
 9012SOL    HW227936   1.910   6.755   5.862  0.6883  0.9983  0.6144
 9013SOL     OW27937   1.759   6.201   4.772 -0.5254  0.2905  0.2343
 9013SOL    HW127938   1.834   6.264   4.751 -0.4016 -0.5366 -2.1138
 9013SOL    HW227939   1.701   6.241   4.843 -0.5611  3.1955 -1.2608
 9014SOL     OW27940   4.330   4.703   4.764  0.8197  0.4815 -0.1843
 9014SOL    HW127941   4.337   4.645   4.845 -2.0756  0.9309  0.5023
 9014SOL    HW227942   4.391   4.782   4.774 -0.1437  1.0075  2.0509
 9015SOL     OW27943   3.230   4.778   6.091  0.1347  0.2591 -0.6684
 9015SOL    HW127944   3.280   4.754   6.175  1.2493  0.5221 -1.2406
 9015SOL    HW227945   3.265   4.725   6.015 -0.6140  0.3010 -1.0429
 9016SOL     OW27946   5.969   4.070   0.570 -0.4659 -0.3478 -0.8868
 9016SOL    HW127947   6.047   4.020   0.533  0.6120  0.5982  0.0211
 9016SOL    HW227948   5.907   4.095   0.496  0.2794 -0.7985 -1.6753
 9017SOL     OW27949   3.349   0.420   6.048  0.5814  0.3367  0.0025
 9017SOL    HW127950   3.442   0.457   6.045  0.4438  0.6191 -1.1867
 9017SOL    HW227951   3.311   0.416   5.955 -1.3784  2.2320  0.6182
 9018SOL     OW27952   4.419   4.799   0.446  0.0803  0.3379 -0.4282
 9018SOL    HW127953   4.323   4.820   0.468 -0.0789 -0.0534 -0.7444
 9018SOL    HW227954   4.476   4.819   0.526 -0.4939 -1.1132  0.3990
 9019SOL     OW27955   5.715   4.265   2.338  0.0266 -0.0273 -0.5702
 9019SOL    HW127956   5.678   4.312   2.258  0.1758 -0.4133 -0.8715
 9019SOL    HW227957   5.680   4.171   2.340 -0.3870  0.1342  0.1047
 9020SOL     OW27958   6.271   3.634   4.226  0.6388 -0.6694  0.5521
 9020SOL    HW127959   6.214   3.612   4.147  2.6641 -1.7939 -0.6641
 9020SOL    HW227960   6.322   3.553   4.254  1.3493  0.1929  1.8505
 9021SOL     OW27961   0.341   1.540   4.463  0.4331 -0.1588  0.6867
 9021SOL    HW127962   0.336   1.470   4.535 -0.8653 -0.9692 -0.1480
 9021SOL    HW227963   0.349   1.630   4.505  0.9068 -0.7006  1.8144
 9022SOL     OW27964   3.966   3.890   0.538 -0.2924 -0.4893  0.0812
 9022SOL    HW127965   3.939   3.874   0.443 -0.0862 -0.3429 -0.0020
 9022SOL    HW227966   3.894   3.856   0.598 -1.2249  0.9454 -0.1611
 9023SOL     OW27967   6.684   3.430   6.730 -0.2127  0.4647  0.3849
 9023SOL    HW127968   6.780   3.459   6.722 -0.2852  0.5456 -0.2865
 9023SOL    HW227969   6.628   3.509   6.755 -0.0857  0.3914  0.8950
 9024SOL     OW27970   0.781   3.734   3.998 -0.3295  0.4301  0.7371
 9024SOL    HW127971   0.806   3.652   4.049 -0.5635  0.3076  0.6561
 9024SOL    HW227972   0.842   3.809   4.025 -0.2927  0.3036  1.0170
 9025SOL     OW27973   0.332   6.081   2.479 -0.4993 -0.3622 -0.3985
 9025SOL    HW127974   0.426   6.058   2.456 -0.6201 -1.0846 -0.1651
 9025SOL    HW227975   0.326   6.180   2.497  0.7348 -0.6909  2.1308
 9026SOL     OW27976   6.541   2.509   6.340 -0.2101  0.2379 -0.2148
 9026SOL    HW127977   6.570   2.587   6.285  3.6716 -0.4974  0.4585
 9026SOL    HW227978   6.460   2.467   6.299 -1.6903  3.7918 -1.2789
 9027SOL     OW27979   1.176   4.943   3.216  0.3362 -0.5873  0.4869
 9027SOL    HW127980   1.219   4.861   3.255 -0.3992 -0.8370  0.7936
 9027SOL    HW227981   1.134   4.920   3.128  2.0919  0.0017 -0.5480
 9028SOL     OW27982   2.048   4.255   6.208  0.1957 -0.3323 -0.3336
 9028SOL    HW127983   2.041   4.197   6.289  0.6928 -0.5066 -0.4129
 9028SOL    HW227984   2.102   4.336   6.230 -0.1064 -0.1264 -0.3489
 9029SOL     OW27985   4.615   5.581   4.738  0.1574 -0.1893  0.0344
 9029SOL    HW127986   4.659   5.604   4.651  2.9450 -0.7480  1.1896
 9029SOL    HW227987   4.619   5.661   4.798 -1.7524  0.1897 -0.2658
 9030SOL     OW27988   3.505   2.083   1.871  0.1235 -0.2550 -0.1584
 9030SOL    HW127989   3.544   2.106   1.960  0.2967 -1.1354  0.0022
 9030SOL    HW227990   3.559   2.125   1.799 -0.6651  1.4196  0.1609
 9031SOL     OW27991   3.577   6.355   6.114  0.0655 -0.0853  0.0517
 9031SOL    HW127992   3.483   6.325   6.131  0.0760  0.1912  0.6336
 9031SOL    HW227993   3.641   6.285   6.146  0.0919  0.5628  1.4944
 9032SOL     OW27994   5.205   3.647   1.205 -0.0493 -0.2856  0.6325
 9032SOL    HW127995   5.189   3.656   1.303  0.5075 -0.2902  0.7282
 9032SOL    HW227996   5.302   3.632   1.188  0.3158  2.2631 -0.0719
 9033SOL     OW27997   1.622   6.740   2.210 -0.0435 -0.6037  0.0789
 9033SOL    HW127998   1.653   6.697   2.295  0.2199 -1.0052 -0.2172
 9033SOL    HW227999   1.526   6.716   2.194 -0.3321  0.0946  0.6483
 9034SOL     OW28000   4.234   6.304   5.859 -0.3997 -0.3117 -0.1876
 9034SOL    HW128001   4.199   6.231   5.917 -1.1012 -0.8080 -1.1990
 9034SOL    HW228002   4.235   6.390   5.910  0.6968 -1.0648  1.1040
 9035SOL     OW28003   3.673   4.611   5.870 -0.0860  0.3934 -0.2916
 9035SOL    HW128004   3.646   4.701   5.837 -1.1898  0.1466 -0.1144
 9035SOL    HW228005   3.725   4.563   5.800 -1.3018  0.3658 -1.2022
 9036SOL     OW28006   6.932   5.922   5.813  0.2996 -0.0200 -0.1315
 9036SOL    HW128007   6.886   5.964   5.891 -0.4110 -1.0537  0.0273
 9036SOL    HW228008   7.030   5.916   5.831 -0.0046 -1.4242  1.2744
 9037SOL     OW28009   6.186   5.980   1.679 -0.2683  0.5559 -0.5841
 9037SOL    HW128010   6.122   5.937   1.615 -1.6044  1.2658  0.2233
 9037SOL    HW228011   6.211   6.071   1.645 -2.7410  1.9025  0.8450
 9038SOL     OW28012   6.868   2.605   5.299 -0.8908 -0.0919  0.4470
 9038SOL    HW128013   6.911   2.669   5.362  1.4402  0.3651 -1.4689
 9038SOL    HW228014   6.863   2.515   5.341 -0.2502  0.3987  1.6201
 9039SOL     OW28015   2.765   5.458   6.442 -0.3311  0.0301  0.0441
 9039SOL    HW128016   2.763   5.531   6.509 -2.1304  0.8489 -0.8212
 9039SOL    HW228017   2.729   5.491   6.355  0.1478 -1.5094 -0.7931
 9040SOL     OW28018   2.278   1.110   2.495  0.2536  0.1411  0.2256
 9040SOL    HW128019   2.335   1.031   2.476 -0.6562 -0.6759  0.7893
 9040SOL    HW228020   2.288   1.135   2.592 -0.8718 -0.4670  0.5137
 9041SOL     OW28021   6.029   1.638   3.418  0.4537 -0.0418 -0.0582
 9041SOL    HW128022   5.967   1.710   3.385  1.3611  0.8637  0.1708
 9041SOL    HW228023   6.059   1.660   3.511  0.1190 -1.1378  0.3202
 9042SOL     OW28024   6.141   5.469   4.741 -0.5895 -0.5049  0.2751
 9042SOL    HW128025   6.098   5.435   4.657 -0.5864 -0.1994  0.1500
 9042SOL    HW228026   6.070   5.480   4.811 -0.4135 -1.9151  0.6955
 9043SOL     OW28027   0.974   2.513   0.494  0.3858 -0.1813  0.4563
 9043SOL    HW128028   0.955   2.597   0.544  0.6874 -0.6039  1.3279
 9043SOL    HW228029   1.010   2.534   0.403  1.4460  0.6500  1.0432
 9044SOL     OW28030   1.687   0.611   0.556  0.1297  0.0180 -0.1762
 9044SOL    HW128031   1.732   0.577   0.474 -1.4708  0.1337 -1.1474
 9044SOL    HW228032   1.591   0.584   0.555  0.1435 -0.2896  1.8557
 9045SOL     OW28033   3.934   0.572   2.942 -0.0776 -0.1356  0.1079
 9045SOL    HW128034   3.864   0.561   3.012 -1.5260  0.4806 -1.1697
 9045SOL    HW228035   4.022   0.590   2.985 -1.1372  1.4717  1.7394
 9046SOL     OW28036   2.932   3.538   2.404  0.1578 -0.5725  0.0044
 9046SOL    HW128037   2.896   3.580   2.487  2.0445  1.4960 -0.1187
 9046SOL    HW228038   3.029   3.518   2.416  0.6163  0.3300 -1.8622
 9047SOL     OW28039   0.217   4.552   5.049 -0.1317  0.4800 -0.0202
 9047SOL    HW128040   0.118   4.549   5.062 -0.0047  0.6561  1.0884
 9047SOL    HW228041   0.254   4.459   5.052 -0.1206  0.5058  0.8516
 9048SOL     OW28042   0.200   0.921   5.225 -0.8198  0.0508 -0.1677
 9048SOL    HW128043   0.284   0.890   5.269 -0.8099  0.3778  0.0489
 9048SOL    HW228044   0.152   0.985   5.285 -1.4741 -0.5031 -0.0767
 9049SOL     OW28045   2.757   4.358   5.391 -0.0899  0.4440 -0.0077
 9049SOL    HW128046   2.802   4.371   5.303  0.0019 -0.1725 -0.0540
 9049SOL    HW228047   2.662   4.331   5.377  0.0009  0.0728  0.0756
 9050SOL     OW28048   1.521   2.527   5.214  0.1194  0.3428  0.2878
 9050SOL    HW128049   1.536   2.614   5.261  0.3085  0.1278  0.6328
 9050SOL    HW228050   1.424   2.503   5.218  0.4988 -1.2228  3.3837
 9051SOL     OW28051   3.412   6.014   2.615  0.3170 -0.0692  0.1667
 9051SOL    HW128052   3.417   5.931   2.670 -2.0675 -0.8698 -0.6953
 9051SOL    HW228053   3.418   6.094   2.675 -2.3710 -0.9069  1.7371
 9052SOL     OW28054   2.179   2.992   0.313 -0.1655 -0.5313  0.1630
 9052SOL    HW128055   2.262   2.940   0.294 -0.8147 -0.5802 -3.1569
 9052SOL    HW228056   2.193   3.049   0.394  2.7376 -1.2406  0.2711
 9053SOL     OW28057   6.887   0.250   0.892  0.7891 -0.1529  0.0901
 9053SOL    HW128058   6.899   0.155   0.920  0.4134 -0.1347  0.3196
 9053SOL    HW228059   6.816   0.293   0.948  0.2667 -0.0231 -0.6527
 9054SOL     OW28060   1.271   5.540   2.851  0.0812  0.1714  0.1374
 9054SOL    HW128061   1.247   5.616   2.791 -2.1679  0.5764  1.4549
 9054SOL    HW228062   1.363   5.508   2.828  0.2250  1.8212 -1.9115
 9055SOL     OW28063   0.391   1.828   5.620  0.5190  0.1467 -0.3405
 9055SOL    HW128064   0.400   1.906   5.682 -0.1284 -0.6712  0.8217
 9055SOL    HW228065   0.299   1.827   5.581  0.8647  0.5492 -1.1877
 9056SOL     OW28066   1.303   1.675   3.262 -0.0865 -0.6428 -0.0523
 9056SOL    HW128067   1.395   1.671   3.303 -0.8882 -1.3767  1.7953
 9056SOL    HW228068   1.245   1.735   3.316 -0.6346  0.0992 -1.4190
 9057SOL     OW28069   6.232   3.431   4.669  0.2658 -0.4341  0.2027
 9057SOL    HW128070   6.302   3.501   4.680  1.7331 -1.7614 -0.2533
 9057SOL    HW228071   6.171   3.456   4.593  2.2622 -0.7617 -1.5906
 9058SOL     OW28072   2.456   1.366   6.421  0.2471 -0.5574  0.4379
 9058SOL    HW128073   2.519   1.436   6.457  1.3297 -1.0848 -0.3774
 9058SOL    HW228074   2.418   1.315   6.498 -0.6105  0.9374  1.0583
 9059SOL     OW28075   2.974   1.845   4.011 -0.1406  0.6074 -0.0091
 9059SOL    HW128076   3.038   1.832   4.087 -1.4046 -0.2861  0.9429
 9059SOL    HW228077   3.026   1.856   3.926  1.3054 -1.6081  0.4804
 9060SOL     OW28078   6.738   2.417   6.032 -0.5206 -0.6917 -0.2323
 9060SOL    HW128079   6.765   2.482   5.961 -1.0119 -1.2002 -0.8980
 9060SOL    HW228080   6.644   2.387   6.015 -0.3640 -1.4324  0.1753
 9061SOL     OW28081   2.641   5.109   4.754 -0.1360 -0.7621  0.2694
 9061SOL    HW128082   2.688   5.127   4.668 -0.3190  0.1967  0.3594
 9061SOL    HW228083   2.631   5.010   4.767 -0.7026 -0.9023 -1.1330
 9062SOL     OW28084   0.917   3.788   3.755  0.0815  0.0684 -0.5867
 9062SOL    HW128085   0.880   3.722   3.821  0.5229  1.7117  1.4192
 9062SOL    HW228086   1.016   3.778   3.749  0.0938  0.2189 -0.6449
 9063SOL     OW28087   3.090   2.610   1.743 -0.6797 -0.2847  0.3920
 9063SOL    HW128088   3.188   2.611   1.760 -0.6954  1.1247  0.5318
 9063SOL    HW228089   3.052   2.523   1.774  0.2828 -0.2434  1.8171
 9064SOL     OW28090   5.728   4.782   6.312 -0.4428  0.6175 -0.4080
 9064SOL    HW128091   5.733   4.761   6.410  1.1865 -1.7270 -0.9334
 9064SOL    HW228092   5.775   4.869   6.295  1.1528  0.0247  0.6580
 9065SOL     OW28093   3.656   2.175   1.645  0.2573 -0.0537  0.4632
 9065SOL    HW128094   3.731   2.116   1.614 -0.0956 -0.7860  0.9719
 9065SOL    HW228095   3.685   2.224   1.727  0.3969  0.1533  0.2925
 9066SOL     OW28096   5.800   7.011   0.484 -0.0603 -0.5345  0.0561
 9066SOL    HW128097   5.727   6.998   0.550  0.4598 -0.4881  0.6509
 9066SOL    HW228098   5.803   7.107   0.456 -0.0670 -0.4862  0.2212
 9067SOL     OW28099   6.567   7.007   3.415  0.2520 -0.2953  0.3529
 9067SOL    HW128100   6.473   7.030   3.389  0.4470 -0.3985 -0.4719
 9067SOL    HW228101   6.569   6.976   3.510 -0.5570 -0.3665  0.3512
 9068SOL     OW28102   2.722   4.946   5.681  0.1591 -0.2163  0.3817
 9068SOL    HW128103   2.733   4.984   5.772 -0.3422  0.0840  0.3150
 9068SOL    HW228104   2.704   5.019   5.615 -0.8752 -0.5567  0.2658
 9069SOL     OW28105   2.755   1.807   0.957 -0.7850  0.6633  0.1047
 9069SOL    HW128106   2.724   1.713   0.940 -0.3035  0.5871 -0.3652
 9069SOL    HW228107   2.833   1.828   0.898 -1.2661  1.5618 -0.2327
 9070SOL     OW28108   1.285   3.712   4.492 -0.0353  0.3275  0.4535
 9070SOL    HW128109   1.192   3.692   4.521 -0.1454  0.6389  0.3129
 9070SOL    HW228110   1.343   3.632   4.509 -0.2598  0.2439  0.8228
 9071SOL     OW28111   3.362   2.782   0.314 -0.0878  0.3067 -0.3392
 9071SOL    HW128112   3.400   2.749   0.401 -0.2458  1.4049  0.1594
 9071SOL    HW228113   3.281   2.838   0.332 -0.8475 -0.4611 -1.2835
 9072SOL     OW28114   3.684   3.232   6.947  0.1804  0.1639  0.5334
 9072SOL    HW128115   3.630   3.174   6.885 -0.3578  2.1171 -0.9263
 9072SOL    HW228116   3.623   3.287   7.004  0.6405  0.5047  0.7048
 9073SOL     OW28117   2.051   0.253   1.745  0.7681  1.1036 -0.1489
 9073SOL    HW128118   2.087   0.318   1.678 -0.8318  0.9217 -1.2426
 9073SOL    HW228119   2.051   0.161   1.706 -1.8080  1.2415 -0.6483
 9074SOL     OW28120   5.823   5.539   1.866 -0.0845 -0.0243  0.0022
 9074SOL    HW128121   5.859   5.631   1.852  1.5316 -0.6211  0.0074
 9074SOL    HW228122   5.731   5.532   1.826  0.2697  1.2352 -1.0809
 9075SOL     OW28123   6.789   6.941   0.651  0.5585  0.4145 -0.2028
 9075SOL    HW128124   6.735   7.011   0.697  1.1623  0.8555 -0.1387
 9075SOL    HW228125   6.729   6.877   0.604 -0.0482  0.2923  0.7213
 9076SOL     OW28126   3.415   1.966   6.107  0.2747  0.0338  0.1198
 9076SOL    HW128127   3.387   1.993   6.200  0.5439 -0.9842  0.5033
 9076SOL    HW228128   3.514   1.972   6.100  0.2268  0.4284 -0.2075
 9077SOL     OW28129   5.505   5.509   1.028 -0.4586  0.1441 -0.5951
 9077SOL    HW128130   5.458   5.461   0.954 -0.9924 -1.0490  0.4892
 9077SOL    HW228131   5.455   5.593   1.051 -1.8067 -0.8327  0.1844
 9078SOL     OW28132   4.546   2.910   0.228 -0.2043 -0.4506  0.2253
 9078SOL    HW128133   4.542   2.820   0.184 -1.7738 -0.8031  1.0076
 9078SOL    HW228134   4.531   2.899   0.326 -1.3438  0.7296  0.2135
 9079SOL     OW28135   1.061   6.388   5.867  0.1396 -0.3154  0.1345
 9079SOL    HW128136   1.015   6.431   5.789 -2.0259 -1.3406  0.7770
 9079SOL    HW228137   1.094   6.459   5.929 -1.5336  0.4911  0.1512
 9080SOL     OW28138   3.875   0.648   1.413 -0.0472  0.6976  0.1325
 9080SOL    HW128139   3.928   0.582   1.360  0.0011  0.2914  0.6735
 9080SOL    HW228140   3.917   0.659   1.503 -0.6559  0.6693  0.4231
 9081SOL     OW28141   0.014   0.984   4.324  0.1951  0.4836  0.3871
 9081SOL    HW128142   0.016   0.889   4.295 -0.0073  0.4789  0.3857
 9081SOL    HW228143  -0.080   1.009   4.350  0.5186  0.1959  1.9870
 9082SOL     OW28144   0.856   6.412   2.202 -0.3846 -0.2161  0.1972
 9082SOL    HW128145   0.853   6.317   2.171 -1.3296 -0.1590  0.0828
 9082SOL    HW228146   0.902   6.469   2.133 -0.8071 -0.4071 -0.2466
 9083SOL     OW28147   2.601   6.211   3.004 -0.2265 -0.0405 -0.6298
 9083SOL    HW128148   2.613   6.205   3.103  1.2537  0.7524 -0.7196
 9083SOL    HW228149   2.506   6.232   2.983 -0.7197 -0.9447  0.5754
 9084SOL     OW28150   2.836   3.262   1.811  0.3727 -0.6716 -0.3398
 9084SOL    HW128151   2.771   3.327   1.773  1.2542 -0.4224 -1.4752
 9084SOL    HW228152   2.883   3.304   1.889  0.0344 -0.4213 -0.2685
 9085SOL     OW28153   1.841   2.335   6.855 -0.2139  0.2288  0.3018
 9085SOL    HW128154   1.869   2.246   6.821 -0.5536 -0.3706  1.5221
 9085SOL    HW228155   1.801   2.389   6.781  2.1840  0.3306 -1.0046
 9086SOL     OW28156   5.620   3.100   1.073  0.4992  0.3776 -0.0329
 9086SOL    HW128157   5.617   3.035   1.149  2.3397  0.6903  0.3681
 9086SOL    HW228158   5.590   3.055   0.989 -0.3133 -0.3494  0.6338
 9087SOL     OW28159   4.903   3.042   2.636  0.2224 -0.5253 -0.5634
 9087SOL    HW128160   4.991   2.996   2.647  0.1705 -0.5667 -0.3249
 9087SOL    HW228161   4.887   3.059   2.539  0.5882 -0.3300 -0.5902
 9088SOL     OW28162   6.497   5.380   1.255  0.1423 -0.1302 -0.4634
 9088SOL    HW128163   6.564   5.451   1.275  0.9551 -0.7713 -0.8354
 9088SOL    HW228164   6.412   5.399   1.305  1.0534 -0.0475  1.1148
 9089SOL     OW28165   3.485   1.126   6.908  0.2058 -0.3377 -0.0512
 9089SOL    HW128166   3.561   1.178   6.868 -1.1317  1.4857 -0.3572
 9089SOL    HW228167   3.403   1.183   6.910 -1.3394 -2.4327 -0.2676
 9090SOL     OW28168   0.431   2.117   2.282  0.1824  0.4976 -0.3639
 9090SOL    HW128169   0.479   2.149   2.201 -0.4102  1.1401 -0.4698
 9090SOL    HW228170   0.336   2.094   2.258  0.4023 -0.6997 -0.1489
 9091SOL     OW28171   4.455   2.450   5.147  0.1281 -0.1022  0.2463
 9091SOL    HW128172   4.405   2.369   5.176  1.7442 -0.8147  1.1565
 9091SOL    HW228173   4.391   2.517   5.109 -1.1667 -2.0512 -1.1726
 9092SOL     OW28174   0.492   3.710   4.211  0.6166 -0.2310 -0.0929
 9092SOL    HW128175   0.500   3.764   4.127  1.5640 -0.0381  0.1145
 9092SOL    HW228176   0.583   3.683   4.242  0.2799 -0.2339  0.9224
 9093SOL     OW28177   1.743   0.205   4.782 -0.0368  0.3511 -0.3975
 9093SOL    HW128178   1.706   0.114   4.765  0.2528  0.5754 -2.5941
 9093SOL    HW228179   1.752   0.220   4.880 -0.2423 -1.9080  0.0197
 9094SOL     OW28180   1.571   2.257   2.982 -0.6639 -1.0583  0.2370
 9094SOL    HW128181   1.654   2.257   3.036  0.0925 -1.7106 -0.8842
 9094SOL    HW228182   1.513   2.334   3.010  0.2441 -0.6737  1.1235
 9095SOL     OW28183   5.468   6.277   5.432 -0.4448 -0.1237  0.2852
 9095SOL    HW128184   5.559   6.294   5.392  0.2242 -0.9429  1.4039
 9095SOL    HW228185   5.460   6.327   5.518  0.0096 -2.1507  1.5565
 9096SOL     OW28186   0.353   6.545   3.388 -0.5208  0.2875 -0.3481
 9096SOL    HW128187   0.413   6.617   3.423 -2.2744  1.1247  1.1068
 9096SOL    HW228188   0.391   6.508   3.304  1.2906  1.7449 -0.2365
 9097SOL     OW28189   1.545   4.389   1.492  0.0551 -0.5525 -0.0445
 9097SOL    HW128190   1.486   4.324   1.445 -1.3895  0.3425  0.4595
 9097SOL    HW228191   1.615   4.423   1.428 -0.1260 -1.4349 -0.7327
 9098SOL     OW28192   6.742   5.578   5.761  0.2095  0.6471 -0.3726
 9098SOL    HW128193   6.743   5.570   5.860 -0.0174  1.1423 -0.3250
 9098SOL    HW228194   6.835   5.582   5.727  0.3406 -1.2136 -0.3407
 9099SOL     OW28195   2.825   0.427   5.012 -0.0735  0.1457 -0.5769
 9099SOL    HW128196   2.773   0.415   5.097  0.0858 -0.2799 -0.5360
 9099SOL    HW228197   2.887   0.505   5.022  1.0992 -0.8597  0.2917
 9100SOL     OW28198   1.195   5.224   4.902 -0.0696  0.2922  0.7145
 9100SOL    HW128199   1.134   5.297   4.935  0.3809  1.0246 -0.0409
 9100SOL    HW228200   1.162   5.190   4.814 -0.4834 -0.6918  1.2299
 9101SOL     OW28201   5.721   4.619   2.122  0.0532  0.0338  0.4969
 9101SOL    HW128202   5.745   4.556   2.047  0.9841  0.3233  0.5434
 9101SOL    HW228203   5.664   4.571   2.188 -0.0252 -0.4915  0.0598
 9102SOL     OW28204   4.603   1.528   5.636 -0.6081  0.1155  0.2746
 9102SOL    HW128205   4.638   1.466   5.706 -2.8200  0.2055  1.5732
 9102SOL    HW228206   4.679   1.564   5.582  0.9389 -1.9099  0.9659
 9103SOL     OW28207   6.518   1.546   2.047  0.2143  0.4821 -0.1336
 9103SOL    HW128208   6.597   1.495   2.015 -1.8328 -2.7393 -0.5261
 9103SOL    HW228209   6.453   1.557   1.972  0.2874  3.3642  0.0844
 9104SOL     OW28210   4.939   2.118   6.217 -0.6415  0.7449 -0.3336
 9104SOL    HW128211   4.957   2.162   6.129  1.6037 -0.3098 -0.4766
 9104SOL    HW228212   4.875   2.043   6.203 -2.0210  1.9404 -0.6421
 9105SOL     OW28213   4.306   2.835   0.965 -0.1383  0.1721  0.0009
 9105SOL    HW128214   4.371   2.761   0.947 -1.1643 -0.5013 -1.0716
 9105SOL    HW228215   4.295   2.890   0.883 -1.1431  0.0886  0.0636
 9106SOL     OW28216   2.015   4.617   0.034 -0.4811 -0.1910 -0.3697
 9106SOL    HW128217   1.941   4.666   0.080  0.2689  1.3284 -0.7266
 9106SOL    HW228218   2.100   4.632   0.084 -0.1492 -0.7225 -0.7730
 9107SOL     OW28219   3.982   0.940   2.625  0.1971  0.2513 -0.1942
 9107SOL    HW128220   3.940   0.929   2.535 -0.4978  2.1423 -0.1378
 9107SOL    HW228221   4.018   0.852   2.656 -0.0968 -0.5555 -2.0379
 9108SOL     OW28222   5.533   5.801   6.638 -0.1016 -0.4283 -0.1025
 9108SOL    HW128223   5.565   5.838   6.550  0.7721 -2.5368 -0.7490
 9108SOL    HW228224   5.478   5.870   6.685  1.8817  1.8544 -0.9154
 9109SOL     OW28225   6.924   5.174   3.187 -0.2074  0.4377  0.6559
 9109SOL    HW128226   6.932   5.075   3.197 -0.6381  0.4836  1.5139
 9109SOL    HW228227   6.893   5.196   3.095  0.1749 -0.2057  0.3665
 9110SOL     OW28228   2.717   0.496   2.656  0.3602  0.2215 -0.0807
 9110SOL    HW128229   2.787   0.550   2.702  0.8086 -0.3767 -0.0493
 9110SOL    HW228230   2.688   0.421   2.716  0.1434  0.0990 -0.3343
 9111SOL     OW28231   5.298   3.880   6.213  0.5337 -0.8788  0.3196
 9111SOL    HW128232   5.320   3.978   6.204 -0.6215 -0.6511 -0.1696
 9111SOL    HW228233   5.295   3.856   6.310 -0.8806 -0.0084  0.5184
 9112SOL     OW28234   6.444   4.212   1.145 -0.0693  0.1012  0.1751
 9112SOL    HW128235   6.477   4.184   1.055 -0.9350 -1.4866  0.3237
 9112SOL    HW228236   6.419   4.309   1.142  2.5544  0.8371 -0.4945
 9113SOL     OW28237   5.904   6.612   3.974 -0.0313 -0.0697  0.5025
 9113SOL    HW128238   5.848   6.680   4.021 -2.1202  0.2336 -2.1692
 9113SOL    HW228239   6.001   6.635   3.986 -0.6149  2.9136  0.4471
 9114SOL     OW28240   5.997   1.108   6.787 -0.1960 -0.3098  0.2472
 9114SOL    HW128241   6.056   1.106   6.868  0.0019 -0.1967  0.1077
 9114SOL    HW228242   6.051   1.134   6.707 -0.2072 -1.2601 -0.0777
 9115SOL     OW28243   5.758   4.122   3.812  0.4829  0.0656 -0.6787
 9115SOL    HW128244   5.755   4.044   3.874 -0.9163  1.1286  0.6607
 9115SOL    HW228245   5.831   4.184   3.840  0.6301 -0.0371 -0.8346
 9116SOL     OW28246   0.963   5.989   3.141 -0.0302  0.0018 -0.2036
 9116SOL    HW128247   1.046   5.957   3.188  0.7617  0.3010 -1.3549
 9116SOL    HW228248   0.896   5.915   3.140  0.4127 -0.4234  0.3070
 9117SOL     OW28249   2.897   5.905   1.485  0.6371  0.9785 -0.3845
 9117SOL    HW128250   2.965   5.833   1.495 -1.4617 -1.0201  0.2711
 9117SOL    HW228251   2.899   5.965   1.565 -0.0867 -0.6615  0.9147
 9118SOL     OW28252   5.400   4.338   6.791 -0.3372  0.7738  0.4165
 9118SOL    HW128253   5.461   4.414   6.814 -0.3616  0.8936  0.0940
 9118SOL    HW228254   5.414   4.263   6.855  1.1730  0.2315 -0.4935
 9119SOL     OW28255   3.413   0.232   0.410 -0.0849  0.0722 -0.1633
 9119SOL    HW128256   3.353   0.180   0.350 -0.5423 -0.1330  0.4648
 9119SOL    HW228257   3.359   0.278   0.481  0.4797  0.0071  0.3221
 9120SOL     OW28258   6.704   4.978   4.059 -0.1708  0.5857  0.6516
 9120SOL    HW128259   6.772   5.034   4.107  1.5895 -1.3657  0.5384
 9120SOL    HW228260   6.698   5.008   3.964  1.1402  0.2971  0.4546
 9121SOL     OW28261   4.928   1.524   5.093  0.0257 -0.5248 -0.4492
 9121SOL    HW128262   4.886   1.444   5.051  0.6474 -0.8339 -0.5012
 9121SOL    HW228263   4.995   1.494   5.162  0.2007 -0.0519 -0.4107
 9122SOL     OW28264   6.862   2.181   1.496 -0.1015  0.3117  0.4629
 9122SOL    HW128265   6.868   2.082   1.511  1.3914  0.2186 -0.5222
 9122SOL    HW228266   6.807   2.222   1.569 -1.3023 -1.3065  0.5313
 9123SOL     OW28267   0.233   6.956   5.328  0.4739  0.0679 -0.0564
 9123SOL    HW128268   0.328   6.968   5.358 -0.2913 -0.1521  2.6499
 9123SOL    HW228269   0.214   6.858   5.316  0.6931  0.1388 -1.1445
 9124SOL     OW28270   2.209   4.657   0.221 -0.4943 -0.4008 -0.7547
 9124SOL    HW128271   2.276   4.587   0.195 -1.9052 -1.0659 -2.8472
 9124SOL    HW228272   2.253   4.747   0.222  1.0429 -1.1256  0.6708
 9125SOL     OW28273   3.997   6.636   2.227 -0.1207  0.1391 -0.1301
 9125SOL    HW128274   3.920   6.584   2.192 -0.8547  0.1956  1.3253
 9125SOL    HW228275   3.965   6.726   2.257 -0.0023 -0.6745  2.6703
 9126SOL     OW28276   3.790   5.532   0.002 -0.2932  0.0914 -0.2199
 9126SOL    HW128277   3.859   5.603   0.015 -1.2877  0.7571  1.9932
 9126SOL    HW228278   3.724   5.562  -0.067  0.7309  0.1573 -1.1808
 9127SOL     OW28279   1.197   3.125   0.028  0.1423  0.5496  0.2565
 9127SOL    HW128280   1.220   3.048  -0.032 -0.0436  2.0284 -1.8079
 9127SOL    HW228281   1.270   3.192   0.027 -0.0246  0.7760  1.4502
 9128SOL     OW28282   0.867   2.822   0.026  0.4954  0.5971 -0.3948
 9128SOL    HW128283   0.892   2.901  -0.030 -1.5869  0.8164 -1.0926
 9128SOL    HW228284   0.810   2.852   0.102 -1.4837 -0.3225 -1.4383
 9129SOL     OW28285   6.502   2.591   1.631  0.2008 -0.2033 -0.1154
 9129SOL    HW128286   6.431   2.578   1.699  0.9188  0.1849  0.7256
 9129SOL    HW228287   6.462   2.631   1.548 -0.7265 -0.9685 -0.0457
 9130SOL     OW28288   3.167   3.706   0.794 -0.2023  0.0039  0.7352
 9130SOL    HW128289   3.214   3.790   0.822 -2.6480  1.2361  1.4695
 9130SOL    HW228290   3.163   3.703   0.694  0.3628  0.4963  0.6872
 9131SOL     OW28291   0.467   2.253   1.261 -0.1149  0.6311 -0.1855
 9131SOL    HW128292   0.407   2.328   1.290 -0.5570 -0.1774  1.1124
 9131SOL    HW228293   0.432   2.166   1.297  1.9262  0.1435  0.8285
 9132SOL     OW28294   1.449   0.585   2.191 -0.3880  0.4373  0.1901
 9132SOL    HW128295   1.522   0.584   2.260 -0.0048  0.5286 -0.2096
 9132SOL    HW228296   1.361   0.568   2.236 -0.2572  1.3493  0.8398
 9133SOL     OW28297   4.752   5.883   5.917 -0.2294  0.1775  0.4536
 9133SOL    HW128298   4.805   5.845   5.840  0.5584 -0.9031  1.4937
 9133SOL    HW228299   4.741   5.981   5.904  1.2387  0.2717 -0.2668
 9134SOL     OW28300   3.967   3.402   6.716  0.4710 -0.4724 -0.3048
 9134SOL    HW128301   3.963   3.401   6.815  0.4077 -1.7556 -0.3089
 9134SOL    HW228302   3.901   3.337   6.679  1.8416 -1.4638 -1.1241
 9135SOL     OW28303   6.672   5.303   0.999  0.3730 -0.5547  0.0676
 9135SOL    HW128304   6.628   5.331   0.913  0.2981 -3.8786 -1.1187
 9135SOL    HW228305   6.614   5.331   1.075  0.6935  2.9665 -0.7722
 9136SOL     OW28306   1.516   6.964   0.905  0.1414 -0.0274 -0.2168
 9136SOL    HW128307   1.553   6.882   0.949  0.8270 -0.8599 -2.2466
 9136SOL    HW228308   1.491   6.943   0.811  0.4968  2.1635 -0.8511
 9137SOL     OW28309   5.574   6.170   3.870 -0.1555 -0.3311 -0.0979
 9137SOL    HW128310   5.636   6.139   3.798  0.7059 -0.0002  0.4736
 9137SOL    HW228311   5.486   6.194   3.831  0.1996 -0.4430 -0.9947
 9138SOL     OW28312   2.279   4.962   5.025  0.4141  0.1323 -0.2468
 9138SOL    HW128313   2.250   4.899   5.097  1.3471 -0.2973 -0.2322
 9138SOL    HW228314   2.277   5.056   5.060 -3.1319  0.4332 -0.9273
 9139SOL     OW28315   0.000   0.007   0.182  0.0706  0.0405 -0.0803
 9139SOL    HW128316   0.044   0.030   0.095  1.4429  0.3905  0.6674
 9139SOL    HW228317  -0.096   0.036   0.180 -0.1571 -0.7026 -1.7572
 9140SOL     OW28318   0.573   5.283   1.204 -0.7584 -0.8016  0.0660
 9140SOL    HW128319   0.667   5.282   1.237 -1.1195  1.0593  1.2644
 9140SOL    HW228320   0.537   5.190   1.207  0.6050 -1.3429  0.8726
 9141SOL     OW28321   1.961   6.476   3.425 -0.2611  0.3453 -0.1026
 9141SOL    HW128322   1.878   6.422   3.443  1.0777 -1.2448  1.6839
 9141SOL    HW228323   2.005   6.442   3.342  0.4363 -1.2568  0.8666
 9142SOL     OW28324   3.259   5.668   4.053 -0.2068 -0.5151  0.4633
 9142SOL    HW128325   3.305   5.753   4.080  0.3187  0.4702 -3.0724
 9142SOL    HW228326   3.326   5.604   4.016 -1.2388 -0.0020 -2.5346
 9143SOL     OW28327   4.957   4.448   3.117 -0.0543  0.5438  0.5393
 9143SOL    HW128328   4.869   4.417   3.154  0.0880 -2.3518 -1.2046
 9143SOL    HW228329   5.015   4.482   3.191 -1.0513 -1.6493  2.4365
 9144SOL     OW28330   3.466   3.567   5.099 -0.0303 -0.1055  0.7717
 9144SOL    HW128331   3.446   3.469   5.087 -0.1815 -0.3306  2.5701
 9144SOL    HW228332   3.557   3.587   5.062 -0.6174 -0.5573 -1.0487
 9145SOL     OW28333   2.604   5.785   6.346 -0.0504  0.7306  0.5641
 9145SOL    HW128334   2.545   5.706   6.362 -0.5872  0.5972 -1.7860
 9145SOL    HW228335   2.550   5.868   6.347 -0.2310  0.6604 -1.0102
 9146SOL     OW28336   5.070   3.221   5.210  0.3402  0.6683  0.1444
 9146SOL    HW128337   5.124   3.138   5.224 -0.2263  0.2100 -0.3202
 9146SOL    HW228338   5.072   3.277   5.293 -1.1574 -0.9140  1.3073
 9147SOL     OW28339   5.202   6.768   6.507 -0.1486 -0.3277  0.4322
 9147SOL    HW128340   5.192   6.746   6.410 -1.5272  0.4139  0.3824
 9147SOL    HW228341   5.208   6.684   6.560  2.0239 -0.7613 -0.3821
 9148SOL     OW28342   3.802   5.201   1.166  0.3250  0.0441  0.3148
 9148SOL    HW128343   3.845   5.230   1.252  0.1437  2.7701 -0.4088
 9148SOL    HW228344   3.809   5.275   1.099 -0.7551 -1.4909 -1.5964
 9149SOL     OW28345   1.947   2.981   1.775 -0.6250 -0.3772 -0.3407
 9149SOL    HW128346   2.042   2.968   1.745 -0.5244 -0.6996  0.0994
 9149SOL    HW228347   1.934   3.076   1.802 -0.2292 -0.4879  0.2598
 9150SOL     OW28348   3.581   1.494   6.142 -0.0802  0.1883 -0.2286
 9150SOL    HW128349   3.627   1.456   6.061 -2.1724 -0.1683 -1.3321
 9150SOL    HW228350   3.646   1.549   6.194  1.6799 -0.6298 -1.4379
 9151SOL     OW28351   0.050   3.739   1.699  0.2556  0.0527 -0.0026
 9151SOL    HW128352   0.099   3.654   1.680  1.5042  0.8166 -0.3426
 9151SOL    HW228353  -0.041   3.736   1.658  1.1166 -0.2478 -1.9899
 9152SOL     OW28354   2.499   4.122   6.685  0.6800  0.7407  0.6280
 9152SOL    HW128355   2.509   4.024   6.671 -0.3471  0.5854  0.8950
 9152SOL    HW228356   2.531   4.146   6.777  1.8567  0.8272  0.2143
 9153SOL     OW28357   1.203   3.368   1.586  0.3271  0.3334 -0.7117
 9153SOL    HW128358   1.276   3.433   1.606  0.6838 -0.6155  1.3192
 9153SOL    HW228359   1.231   3.276   1.613 -1.1895 -0.2299 -0.9305
 9154SOL     OW28360   4.835   4.990   3.589 -0.1748  0.0097 -0.0109
 9154SOL    HW128361   4.839   5.028   3.681  0.8133  0.4016 -0.2025
 9154SOL    HW228362   4.846   4.891   3.594  1.7525  0.1918  0.1924
 9155SOL     OW28363   1.288   6.025   4.157 -0.1373 -0.3069  0.2672
 9155SOL    HW128364   1.352   6.063   4.090 -0.0379  0.4593  0.7741
 9155SOL    HW228365   1.199   6.010   4.114  0.6644 -2.5125 -0.7604
 9156SOL     OW28366   6.626   3.134   4.594  0.3005 -0.0882  0.1080
 9156SOL    HW128367   6.606   3.045   4.634  1.9172 -0.7187 -0.3789
 9156SOL    HW228368   6.647   3.199   4.667 -0.6345 -0.1568  0.4507
 9157SOL     OW28369   1.849   4.128   6.033 -0.0818  0.0100 -0.1391
 9157SOL    HW128370   1.893   4.169   6.113 -1.6960 -2.4639  2.1857
 9157SOL    HW228371   1.901   4.049   6.003 -1.5382 -1.5256  1.1608
 9158SOL     OW28372   1.777   2.805   3.959  0.1852  0.2684 -0.0650
 9158SOL    HW128373   1.821   2.816   4.048 -1.2825  0.8531  0.6309
 9158SOL    HW228374   1.687   2.849   3.961 -1.3714 -2.6182 -0.7278
 9159SOL     OW28375   3.244   1.691   2.074  0.5527 -0.4678  0.0844
 9159SOL    HW128376   3.286   1.745   2.002 -0.7230  0.9544  0.3493
 9159SOL    HW228377   3.294   1.704   2.160  3.0581 -3.4025 -0.7378
 9160SOL     OW28378   2.059   1.236   5.666 -0.5860 -0.6306  0.3583
 9160SOL    HW128379   1.975   1.288   5.678  0.4820  1.3258 -0.1773
 9160SOL    HW228380   2.071   1.213   5.569  0.4267  0.8346  0.1063
 9161SOL     OW28381   5.988   3.939   1.871 -0.3321 -0.0847 -0.0294
 9161SOL    HW128382   5.912   3.962   1.933 -0.8422  1.0605 -1.0213
 9161SOL    HW228383   6.051   4.017   1.867 -0.9822  0.3903 -1.8919
 9162SOL     OW28384   5.330   1.210   1.227  0.3567  0.1074  0.3086
 9162SOL    HW128385   5.234   1.182   1.225  1.3134 -3.6504 -0.6660
 9162SOL    HW228386   5.363   1.209   1.322  0.0806 -1.3855  0.4103
 9163SOL     OW28387   2.207   3.994   3.383  0.0537 -0.0443 -0.2234
 9163SOL    HW128388   2.245   4.077   3.422 -1.3294  0.3673  0.3237
 9163SOL    HW228389   2.235   3.915   3.437  0.5593  0.1854 -0.1522
 9164SOL     OW28390   4.606   6.862   1.669  0.0748  0.6873 -0.0032
 9164SOL    HW128391   4.558   6.784   1.628  0.2761 -0.1427  1.3024
 9164SOL    HW228392   4.564   6.947   1.637  0.7913  0.1411 -2.6398
 9165SOL     OW28393   5.139   6.808   0.261  0.1476  0.2662 -0.4519
 9165SOL    HW128394   5.111   6.862   0.182 -1.5587 -0.3306 -0.2812
 9165SOL    HW228395   5.216   6.854   0.307  1.0953  0.6895 -2.3440
 9166SOL     OW28396   3.406   5.504   0.123 -0.2417  0.5073 -0.1964
 9166SOL    HW128397   3.404   5.489   0.222 -0.8007 -1.1266 -0.4229
 9166SOL    HW228398   3.472   5.576   0.101 -1.8081  2.6112  1.5510
 9167SOL     OW28399   2.635   6.374   5.030  0.2840  0.6267 -0.6467
 9167SOL    HW128400   2.709   6.435   5.059 -0.3509  1.2166 -0.2421
 9167SOL    HW228401   2.672   6.282   5.016  1.2881  1.1183 -1.4111
 9168SOL     OW28402   6.021   5.538   4.186 -0.0785 -0.1373  0.1422
 9168SOL    HW128403   5.961   5.590   4.246 -1.1822 -1.0078 -0.1732
 9168SOL    HW228404   6.010   5.440   4.205  1.5087 -0.3012  0.3148
 9169SOL     OW28405   3.550   0.172   6.818 -0.4403 -0.3906  0.6037
 9169SOL    HW128406   3.470   0.191   6.761  0.2047  1.4783  0.2446
 9169SOL    HW228407   3.634   0.185   6.765  0.1397 -1.3835  1.2385
 9170SOL     OW28408   2.131   2.431   5.982  0.1761  0.1505 -0.0292
 9170SOL    HW128409   2.216   2.394   6.020 -1.8305 -3.6092  1.3430
 9170SOL    HW228410   2.133   2.422   5.882  1.2898 -0.0035 -0.0108
 9171SOL     OW28411   4.668   5.976   6.950  0.3598 -0.0846 -0.2729
 9171SOL    HW128412   4.615   6.045   6.901 -1.0306 -0.1469  1.1114
 9171SOL    HW228413   4.721   5.923   6.884  0.3216  1.3161 -1.4923
 9172SOL     OW28414   4.611   1.918   5.998  0.0595  0.0256 -0.7022
 9172SOL    HW128415   4.579   1.963   6.081  1.5095 -0.9379  0.4359
 9172SOL    HW228416   4.620   1.986   5.925 -2.6454  0.6326 -0.5535
 9173SOL     OW28417   4.783   4.108   0.193  0.1313  0.2117 -0.1255
 9173SOL    HW128418   4.847   4.185   0.185 -0.2227  0.7432  1.6760
 9173SOL    HW228419   4.777   4.080   0.289 -0.8577 -1.1165 -0.5553
 9174SOL     OW28420   6.365   3.807   1.049  0.3409 -0.2752 -0.1902
 9174SOL    HW128421   6.441   3.845   1.102 -1.1499 -0.9149  2.6162
 9174SOL    HW228422   6.395   3.724   1.003  1.6674  0.2093 -0.2444
 9175SOL     OW28423   2.410   0.138   0.058  0.0764  0.0497 -0.4413
 9175SOL    HW128424   2.318   0.158   0.091  0.4151  0.1230  0.4958
 9175SOL    HW228425   2.459   0.224   0.044  0.5083 -0.0201  0.5724
 9176SOL     OW28426   1.201   6.259   3.488  0.2512 -0.1741 -0.6065
 9176SOL    HW128427   1.276   6.247   3.553  0.2261 -0.7104 -0.6727
 9176SOL    HW228428   1.134   6.187   3.501  0.3811 -0.4466 -1.4074
 9177SOL     OW28429   1.075   5.270   4.469 -0.4782  0.4446 -0.4964
 9177SOL    HW128430   1.097   5.216   4.550 -0.2247  1.2119 -0.0473
 9177SOL    HW228431   0.983   5.308   4.478  0.0373  1.6259  0.0587
 9178SOL     OW28432   0.586   4.619   3.266  0.3356  0.4331 -0.2988
 9178SOL    HW128433   0.643   4.550   3.311  0.4749  0.3680 -0.5768
 9178SOL    HW228434   0.640   4.702   3.250 -0.0476  0.9169  0.7749
 9179SOL     OW28435   4.857   6.311   2.620  0.8536 -0.4861  0.5739
 9179SOL    HW128436   4.865   6.257   2.704  0.4182 -1.0266  0.2714
 9179SOL    HW228437   4.941   6.364   2.606  1.2844 -1.0770  0.8811
 9180SOL     OW28438   6.356   0.468   5.588 -0.5208  0.1839  0.2041
 9180SOL    HW128439   6.364   0.566   5.568  0.9902  0.1615  0.5862
 9180SOL    HW228440   6.446   0.432   5.615 -1.1721 -1.1913  0.6151
 9181SOL     OW28441   2.572   1.091   3.237 -0.2721  0.2820 -0.2425
 9181SOL    HW128442   2.482   1.067   3.272 -0.7269  0.5232 -1.2186
 9181SOL    HW228443   2.599   1.181   3.271 -0.0713 -0.0991  0.6343
 9182SOL     OW28444   0.367   1.378   3.113  0.2448 -0.3634  0.7586
 9182SOL    HW128445   0.356   1.279   3.114  2.1730 -0.6215  0.8090
 9182SOL    HW228446   0.427   1.406   3.188  0.8037  0.6776 -0.0373
 9183SOL     OW28447   3.943   2.061   5.598 -0.4695  0.2968 -0.0510
 9183SOL    HW128448   3.976   2.155   5.601  0.5986 -0.0891  1.8097
 9183SOL    HW228449   4.021   1.998   5.595 -1.1431 -0.5775 -3.8160
 9184SOL     OW28450   1.844   5.127   0.887  0.4757 -0.2321  0.1507
 9184SOL    HW128451   1.854   5.088   0.795 -0.2776 -0.5701  0.2061
 9184SOL    HW228452   1.932   5.123   0.934  0.6520 -0.9396 -0.2201
 9185SOL     OW28453   2.063   6.453   5.073  0.2513 -0.0517  0.2543
 9185SOL    HW128454   1.986   6.516   5.075  0.9980  0.8637  0.8456
 9185SOL    HW228455   2.085   6.423   5.166  1.5796  0.9351  0.2917
 9186SOL     OW28456   4.376   5.232   6.600  0.9258 -0.1378 -0.2211
 9186SOL    HW128457   4.379   5.224   6.700 -1.7468  1.4197  0.0753
 9186SOL    HW228458   4.362   5.141   6.560  0.0071 -0.5496  0.9653
 9187SOL     OW28459   5.397   3.819   1.662 -0.3441 -0.1203 -0.0363
 9187SOL    HW128460   5.419   3.902   1.714 -0.3726 -1.0832  1.5632
 9187SOL    HW228461   5.298   3.806   1.661 -0.3137 -0.3678  0.1039
 9188SOL     OW28462   0.047   1.752   4.023 -0.1694 -0.2725  0.2923
 9188SOL    HW128463   0.091   1.838   4.048  0.3950 -0.9773  1.8676
 9188SOL    HW228464   0.081   1.679   4.082  0.8223 -2.0094 -2.2310
 9189SOL     OW28465   3.959   1.780   6.165 -0.5760 -0.1767 -0.1682
 9189SOL    HW128466   3.970   1.866   6.214  0.6372 -0.2897 -0.2094
 9189SOL    HW228467   4.019   1.710   6.205 -0.2584 -0.5266 -1.2054
 9190SOL     OW28468   3.703   0.129   5.779  0.3574  0.6701  0.3382
 9190SOL    HW128469   3.667   0.111   5.871 -0.4676  1.6586  0.2230
 9190SOL    HW228470   3.656   0.208   5.740  0.8061  0.3435 -0.8870
 9191SOL     OW28471   5.392   5.754   1.090  0.8820  0.3785  0.2033
 9191SOL    HW128472   5.435   5.844   1.093  0.8791  0.3913 -0.0835
 9191SOL    HW228473   5.293   5.764   1.097  0.7443  0.5343 -1.5094
 9192SOL     OW28474   5.918   5.284   4.293 -0.3049  0.7662 -0.6060
 9192SOL    HW128475   5.830   5.301   4.336 -0.1739 -0.9953  0.4657
 9192SOL    HW228476   5.916   5.193   4.250  1.4365  0.0296  0.7546
 9193SOL     OW28477   2.577   3.277   1.497 -0.2057  0.8512 -0.5146
 9193SOL    HW128478   2.531   3.199   1.540  0.4207 -0.1424 -1.5689
 9193SOL    HW228479   2.627   3.329   1.566  0.1636 -0.2512  0.0716
 9194SOL     OW28480   3.420   6.645   3.676  0.2888  0.0431 -0.3426
 9194SOL    HW128481   3.497   6.637   3.740  0.6505 -1.4419 -0.9247
 9194SOL    HW228482   3.367   6.726   3.698  1.5388  0.6329  0.6065
 9195SOL     OW28483   0.664   3.388   4.705 -0.4439  0.2701  0.1675
 9195SOL    HW128484   0.720   3.305   4.714 -0.2144  0.4716  0.6512
 9195SOL    HW228485   0.676   3.426   4.614  0.5280  0.5247  0.3848
 9196SOL     OW28486   6.539   4.230   2.783 -0.5853  0.0390  0.2116
 9196SOL    HW128487   6.578   4.168   2.852  1.7252  1.4082  0.1970
 9196SOL    HW228488   6.467   4.181   2.733 -0.8023 -1.7072  2.0608
 9197SOL     OW28489   4.081   2.445   0.482  0.8403  0.3599 -0.0568
 9197SOL    HW128490   4.010   2.391   0.436  1.4410  0.1795 -0.7847
 9197SOL    HW228491   4.045   2.479   0.569  1.2130 -3.3423  1.7538
 9198SOL     OW28492   0.542   2.936   5.453  0.4317  0.2548 -0.3914
 9198SOL    HW128493   0.576   3.027   5.430 -0.0681  0.9252  1.3723
 9198SOL    HW228494   0.612   2.885   5.502 -0.4275  1.0136  1.7301
 9199SOL     OW28495   0.404   3.826   2.270 -0.0810 -0.6306 -0.4968
 9199SOL    HW128496   0.453   3.892   2.214  0.8134 -1.7786 -1.1208
 9199SOL    HW228497   0.418   3.734   2.233 -0.5565 -1.2838  0.8621
 9200SOL     OW28498   5.215   5.100   2.027 -0.2373  0.1001 -0.2666
 9200SOL    HW128499   5.139   5.094   1.963 -0.9920  1.1826  0.4903
 9200SOL    HW228500   5.196   5.170   2.096  0.2332 -1.4668  1.5556
 9201SOL     OW28501   6.419   0.144   2.527  0.2235  0.5369 -0.0004
 9201SOL    HW128502   6.375   0.178   2.611  0.8387  1.7674 -0.1529
 9201SOL    HW228503   6.432   0.045   2.534 -0.5308  0.4892  0.9823
 9202SOL     OW28504   1.935   5.314   3.664 -1.1718 -0.2664  0.3412
 9202SOL    HW128505   1.866   5.250   3.697 -0.8487 -0.3721  0.8281
 9202SOL    HW228506   1.924   5.402   3.709 -1.4106 -0.0774 -0.0849
 9203SOL     OW28507   5.413   1.410   2.935  0.2719  0.1768 -0.1238
 9203SOL    HW128508   5.376   1.449   3.020  0.6495 -0.1267  0.1819
 9203SOL    HW228509   5.480   1.339   2.957 -1.3968 -1.6487 -0.6431
 9204SOL     OW28510   4.006   5.745   1.990 -0.2208  0.1690 -0.3611
 9204SOL    HW128511   3.949   5.809   1.938  0.1999  0.1029 -0.9098
 9204SOL    HW228512   3.956   5.660   2.006 -1.7853  1.4903  2.5817
 9205SOL     OW28513   5.101   2.118   0.499  0.2065 -0.9408  0.1399
 9205SOL    HW128514   5.128   2.072   0.414  2.2527 -1.8505  1.2133
 9205SOL    HW228515   5.182   2.144   0.551 -0.9504  1.4716  0.9080
 9206SOL     OW28516   6.296   0.663   5.907  0.2150  0.0171 -0.2089
 9206SOL    HW128517   6.283   0.575   5.862 -3.4894 -0.0289  0.6054
 9206SOL    HW228518   6.243   0.733   5.858 -0.2977  0.8727  1.4851
 9207SOL     OW28519   6.179   6.745   0.263  0.7538 -0.2819 -0.3096
 9207SOL    HW128520   6.121   6.794   0.198  1.6929  0.8510 -0.3185
 9207SOL    HW228521   6.122   6.698   0.331 -0.2477 -1.4693 -1.9077
 9208SOL     OW28522   5.849   4.995   1.770  0.0994 -0.1045  0.5650
 9208SOL    HW128523   5.931   4.938   1.768  0.3688  0.2912  0.1923
 9208SOL    HW228524   5.838   5.034   1.862  0.2061 -0.3313  0.6750
 9209SOL     OW28525   4.989   6.884   3.710 -0.1948  0.5720  0.3028
 9209SOL    HW128526   4.897   6.908   3.679 -0.3665 -0.5752 -0.1095
 9209SOL    HW228527   5.031   6.963   3.755 -1.3521  1.1269  0.4308
 9210SOL     OW28528   2.867   6.780   0.070  0.0551  0.2319 -0.4428
 9210SOL    HW128529   2.773   6.788   0.104 -0.0906 -0.4138 -0.6744
 9210SOL    HW228530   2.885   6.685   0.044  1.1084  0.1235  0.5773
 9211SOL     OW28531   5.043   5.607   0.465 -0.3253  0.0196 -0.2995
 9211SOL    HW128532   4.998   5.554   0.393 -0.1189  0.0621 -0.4593
 9211SOL    HW228533   4.992   5.691   0.481 -1.4980 -0.8801  0.9664
 9212SOL     OW28534   0.467   4.164   6.675 -0.0101 -0.1486 -0.3704
 9212SOL    HW128535   0.484   4.108   6.594  1.8357  0.9216 -0.7943
 9212SOL    HW228536   0.481   4.261   6.652  0.2985  0.1987  1.1437
 9213SOL     OW28537   6.780   5.393   4.079 -0.1117 -0.0116 -0.0405
 9213SOL    HW128538   6.876   5.411   4.058  0.2990 -2.1943 -0.2193
 9213SOL    HW228539   6.732   5.365   3.995 -0.8796  0.8732  0.0834
 9214SOL     OW28540   2.082   1.460   5.952 -0.2331  0.6503  0.1835
 9214SOL    HW128541   2.045   1.401   6.024 -0.7932  0.6268 -0.1164
 9214SOL    HW228542   2.006   1.500   5.901  0.1328 -0.6785 -1.4861
 9215SOL     OW28543   6.178   3.795   4.557  0.4649 -0.0910 -0.3856
 9215SOL    HW128544   6.269   3.816   4.594 -0.3801  0.8964  1.2065
 9215SOL    HW228545   6.129   3.736   4.621 -0.2675 -0.0630 -0.9159
 9216SOL     OW28546   0.600   2.478   2.493 -0.8388 -0.2007  0.1202
 9216SOL    HW128547   0.582   2.497   2.396 -0.0741 -1.1544 -0.2335
 9216SOL    HW228548   0.629   2.562   2.539 -2.0907  0.4606 -0.2466
 9217SOL     OW28549   4.869   3.426   0.793  0.0522 -0.5396 -0.5213
 9217SOL    HW128550   4.853   3.496   0.723  0.3390 -1.6356 -1.7245
 9217SOL    HW228551   4.916   3.467   0.871  0.8405  0.4763 -1.4941
 9218SOL     OW28552   5.196   6.645   6.257 -0.2983 -0.3527 -0.1000
 9218SOL    HW128553   5.265   6.612   6.193 -0.6113  1.2168 -1.3339
 9218SOL    HW228554   5.116   6.677   6.205 -0.6766  0.7063  1.0928
 9219SOL     OW28555   4.164   3.587   6.652 -0.6284  0.3746 -0.2146
 9219SOL    HW128556   4.223   3.510   6.625  0.7060  1.4382 -0.4639
 9219SOL    HW228557   4.074   3.552   6.678  0.3911 -1.4350  1.1469
 9220SOL     OW28558   2.135   1.956   5.214  0.6564 -0.4406 -0.1503
 9220SOL    HW128559   2.065   1.993   5.275  0.6936  2.6736 -1.7515
 9220SOL    HW228560   2.211   1.920   5.267 -0.8529 -1.1940  1.5892
 9221SOL     OW28561   1.223   1.107   2.676 -0.1236  0.3058 -0.0729
 9221SOL    HW128562   1.275   1.100   2.762  0.1651 -0.1907 -0.2801
 9221SOL    HW228563   1.137   1.057   2.685  0.0264  0.0315 -0.1594
 9222SOL     OW28564   2.366   6.132   3.189  0.5043 -0.2681  0.1322
 9222SOL    HW128565   2.443   6.099   3.243  1.3012  0.3155 -0.6160
 9222SOL    HW228566   2.321   6.207   3.237 -0.6365 -1.6497  1.3277
 9223SOL     OW28567   6.671   1.811   4.148 -0.2574  0.1965 -0.0602
 9223SOL    HW128568   6.698   1.737   4.087  1.0765  1.2118 -0.7511
 9223SOL    HW228569   6.753   1.855   4.186 -1.0172  1.2679  0.4020
 9224SOL     OW28570   2.399   5.299   4.726 -0.6117 -0.5169 -0.2571
 9224SOL    HW128571   2.473   5.231   4.724 -0.7080 -0.6186 -0.3728
 9224SOL    HW228572   2.411   5.364   4.651  0.2780  0.4453  0.6748
 9225SOL     OW28573   6.990   6.707   4.747 -0.0587 -0.2808 -0.2250
 9225SOL    HW128574   6.905   6.704   4.799 -0.6091 -0.1390 -1.0879
 9225SOL    HW228575   6.984   6.642   4.671  0.1998  0.4516 -0.8859
 9226SOL     OW28576   1.675   6.285   4.333 -0.0121 -0.2934 -0.3120
 9226SOL    HW128577   1.767   6.266   4.297 -0.5213 -1.1732 -1.2021
 9226SOL    HW228578   1.638   6.202   4.374 -0.4858  0.0071 -0.1350
 9227SOL     OW28579   3.687   0.473   0.912  0.0816  0.0975 -0.8157
 9227SOL    HW128580   3.779   0.504   0.885  0.7118 -0.1963  0.8629
 9227SOL    HW228581   3.692   0.380   0.948 -0.7594  0.3172 -0.0894
 9228SOL     OW28582   4.121   3.289   2.721  0.5329  0.0846  0.2519
 9228SOL    HW128583   4.119   3.206   2.665 -4.0681 -0.9480  1.5217
 9228SOL    HW228584   4.113   3.369   2.662 -0.3031 -0.7495 -0.8281
 9229SOL     OW28585   5.370   6.120   5.771 -0.1057  0.1797  0.1328
 9229SOL    HW128586   5.456   6.070   5.780 -1.5521 -2.3245  0.9589
 9229SOL    HW228587   5.304   6.063   5.722 -1.7099  1.5149  0.6746
 9230SOL     OW28588   2.334   0.496   5.045  1.0398  0.1129  0.0633
 9230SOL    HW128589   2.374   0.414   5.087  0.9309 -1.3182 -2.4409
 9230SOL    HW228590   2.236   0.499   5.064  1.3648  0.7637  1.7915
 9231SOL     OW28591   4.476   1.381   1.687  0.0183 -0.2786 -0.5992
 9231SOL    HW128592   4.532   1.321   1.629 -1.2927 -0.1932 -2.0143
 9231SOL    HW228593   4.505   1.476   1.674  1.7287 -0.4745  1.2295
 9232SOL     OW28594   1.829   3.935   0.419 -0.2072 -0.6906  0.0259
 9232SOL    HW128595   1.899   3.922   0.350 -0.3544 -0.9984 -0.0683
 9232SOL    HW228596   1.751   3.984   0.379  0.4515  0.7476  0.4463
 9233SOL     OW28597   6.160   0.360   5.164 -0.9565 -0.0049 -0.0137
 9233SOL    HW128598   6.107   0.403   5.238 -0.2594 -0.3406  0.6970
 9233SOL    HW228599   6.229   0.300   5.204 -1.5565 -1.3767 -0.9826
 9234SOL     OW28600   2.103   5.554   6.880 -0.1529 -0.1804 -0.2087
 9234SOL    HW128601   2.036   5.550   6.954 -1.2339  0.0706 -1.1430
 9234SOL    HW228602   2.099   5.644   6.837  1.5321  0.2036  0.3736
 9235SOL     OW28603   6.988   6.929   3.520  0.0855  0.0789  0.4888
 9235SOL    HW128604   6.921   6.858   3.544 -0.1186 -0.0432 -0.4118
 9235SOL    HW228605   6.967   7.013   3.570 -0.9654  0.1476 -0.0343
 9236SOL     OW28606   1.221   4.272   5.976  0.6142  0.5251 -0.4441
 9236SOL    HW128607   1.178   4.209   6.040 -1.1153  2.0728  0.0251
 9236SOL    HW228608   1.150   4.315   5.920  1.9122  0.6975 -2.0303
 9237SOL     OW28609   4.896   4.515   4.363  0.1507 -0.3644  0.2696
 9237SOL    HW128610   4.821   4.518   4.296 -1.2842 -1.0637  1.7751
 9237SOL    HW228611   4.930   4.421   4.372  0.6401 -0.1970  0.2158
 9238SOL     OW28612   1.937   3.665   4.949 -0.8058  0.0259 -0.6585
 9238SOL    HW128613   1.907   3.609   5.026  1.5046 -0.3512  0.0760
 9238SOL    HW228614   1.998   3.612   4.891  0.2631  1.3024 -0.7736
 9239SOL     OW28615   0.207   6.087   0.143  0.4752  0.0863  0.2407
 9239SOL    HW128616   0.286   6.148   0.146  0.1723  0.5959 -1.2948
 9239SOL    HW228617   0.162   6.087   0.232  1.3490  0.9357  0.7041
 9240SOL     OW28618   3.932   1.313   6.328  0.1240 -0.0820  0.3265
 9240SOL    HW128619   3.956   1.234   6.384  1.3437  0.6766  0.9336
 9240SOL    HW228620   3.996   1.322   6.252  0.6284  0.8532  0.8299
 9241SOL     OW28621   4.317   5.819   6.264 -0.1912 -0.3456 -0.4256
 9241SOL    HW128622   4.244   5.875   6.226  0.4894 -1.3558 -3.4551
 9241SOL    HW228623   4.390   5.808   6.196  1.5544 -1.6091  1.5232
 9242SOL     OW28624   2.599   0.771   6.007 -0.0321 -0.4759  0.1948
 9242SOL    HW128625   2.563   0.768   5.914 -0.3457 -0.9257  0.3303
 9242SOL    HW228626   2.698   0.785   6.004  0.0814 -1.3435 -0.2279
 9243SOL     OW28627   0.221   0.612   1.782 -0.3963  0.2443 -0.3445
 9243SOL    HW128628   0.302   0.580   1.734 -1.3342 -1.1967 -1.0199
 9243SOL    HW228629   0.249   0.666   1.862  1.1920  0.7700 -1.2119
 9244SOL     OW28630   3.208   5.855   0.743  0.2189  0.3492  0.4231
 9244SOL    HW128631   3.154   5.865   0.827 -2.9125 -2.4337 -0.9836
 9244SOL    HW228632   3.221   5.757   0.723  0.2951  0.8553 -2.5654
 9245SOL     OW28633   0.336   4.386   2.848  0.0728  0.1268 -0.6787
 9245SOL    HW128634   0.383   4.418   2.931  0.4125 -0.5490 -0.5962
 9245SOL    HW228635   0.348   4.287   2.840 -0.3409  0.1224 -1.3006
 9246SOL     OW28636   4.685   1.406   6.764 -0.1869 -0.2878 -0.8208
 9246SOL    HW128637   4.653   1.325   6.714  0.3495 -0.9238 -0.1561
 9246SOL    HW228638   4.709   1.380   6.857  0.7046  0.4942 -0.8171
 9247SOL     OW28639   2.430   6.420   2.002 -0.3430 -0.2672 -0.2311
 9247SOL    HW128640   2.382   6.443   1.917  1.4417 -1.2594 -1.5803
 9247SOL    HW228641   2.469   6.329   1.994 -1.0393 -0.8487  2.1302
 9248SOL     OW28642   3.401   6.875   6.424  0.0529 -0.3941 -0.5120
 9248SOL    HW128643   3.327   6.894   6.360 -0.2149 -0.0288 -0.0990
 9248SOL    HW228644   3.365   6.828   6.505 -0.4128  2.7346  1.2855
 9249SOL     OW28645   4.248   1.242   6.992 -0.0930 -0.5238 -0.0757
 9249SOL    HW128646   4.334   1.230   6.942 -1.3488  0.6807 -2.7414
 9249SOL    HW228647   4.266   1.289   7.079  1.9039 -0.0190 -0.7024
 9250SOL     OW28648   0.217   3.518   1.612  0.2173 -0.9812  0.3535
 9250SOL    HW128649   0.305   3.565   1.604 -0.4233  0.2521  0.3358
 9250SOL    HW228650   0.232   3.422   1.635  1.5687 -0.8329  0.1293
 9251SOL     OW28651   4.348   0.875   6.805  0.1837 -0.2050 -0.3761
 9251SOL    HW128652   4.334   0.882   6.706  0.5345  1.1820 -0.3466
 9251SOL    HW228653   4.261   0.891   6.852 -0.7386 -3.9884 -0.4760
 9252SOL     OW28654   4.442   0.902   6.093 -0.4146 -0.2059  0.0177
 9252SOL    HW128655   4.383   0.889   6.013 -3.5675  2.1710  1.7127
 9252SOL    HW228656   4.466   0.999   6.101  0.1923 -0.4694  1.6837
 9253SOL     OW28657   4.462   5.100   4.308 -0.2404  0.1124  0.1219
 9253SOL    HW128658   4.445   5.005   4.334 -0.9262 -0.1518 -1.2182
 9253SOL    HW228659   4.464   5.108   4.209 -0.2292  1.5129  0.2105
 9254SOL     OW28660   6.521   6.628   1.838  0.0159 -0.3277 -0.5836
 9254SOL    HW128661   6.618   6.609   1.854  0.3089 -1.5044 -3.1502
 9254SOL    HW228662   6.482   6.676   1.917  3.5298  3.5940 -0.9175
 9255SOL     OW28663   0.949   1.700   1.069 -0.6297  0.1013 -0.1275
 9255SOL    HW128664   0.980   1.690   0.975 -0.0598  0.2707  0.0369
 9255SOL    HW228665   0.947   1.797   1.093 -1.7003  0.1227 -0.2640
 9256SOL     OW28666   2.994   6.838   0.323  0.4337 -0.0467 -0.4149
 9256SOL    HW128667   2.951   6.916   0.367  1.4349 -0.8844  2.2327
 9256SOL    HW228668   2.965   6.834   0.227  1.6826  4.5707 -1.2581
 9257SOL     OW28669   6.263   6.578   5.433  0.1126  0.2443 -0.1061
 9257SOL    HW128670   6.343   6.538   5.476  0.0917  1.0647  0.7439
 9257SOL    HW228671   6.270   6.571   5.334  1.0287 -0.0586 -0.0216
 9258SOL     OW28672   5.065   4.211   3.018 -0.0349 -0.4250  0.3526
 9258SOL    HW128673   5.014   4.293   3.044 -0.6274 -0.0154 -1.9296
 9258SOL    HW228674   5.143   4.237   2.961 -0.7984 -1.4850 -1.2441
 9259SOL     OW28675   1.295   2.227   0.276  0.5930 -0.5236  0.5625
 9259SOL    HW128676   1.243   2.142   0.268  1.5225 -1.0121 -0.5973
 9259SOL    HW228677   1.332   2.252   0.186  2.9811 -0.6170  1.4427
 9260SOL     OW28678   5.861   3.703   4.975  0.4655 -0.1521 -0.4030
 9260SOL    HW128679   5.912   3.720   4.891  0.4787  0.1087 -0.3438
 9260SOL    HW228680   5.805   3.621   4.965  0.7870 -0.3564 -0.5198
 9261SOL     OW28681   1.622   1.927   1.303  0.4570 -0.2448 -0.0330
 9261SOL    HW128682   1.718   1.955   1.301  0.7726 -1.3167 -1.3889
 9261SOL    HW228683   1.617   1.830   1.325 -0.2893 -0.2675 -0.2928
 9262SOL     OW28684   6.887   6.504   6.642 -0.3327  0.5145 -0.0673
 9262SOL    HW128685   6.873   6.409   6.666  0.6998  0.6555  1.1581
 9262SOL    HW228686   6.982   6.530   6.659 -0.8541  2.0542  0.6956
 9263SOL     OW28687   3.235   4.908   2.916  0.0007 -0.6432  0.3196
 9263SOL    HW128688   3.161   4.868   2.970  0.4424  0.5823  1.8699
 9263SOL    HW228689   3.202   4.924   2.822 -2.2753  1.3685  1.3523
 9264SOL     OW28690   6.768   4.448   4.292 -0.0954  0.4038 -0.2019
 9264SOL    HW128691   6.857   4.483   4.261  0.4991 -0.0521  0.9215
 9264SOL    HW228692   6.696   4.512   4.265  0.6136  0.9720 -0.8036
 9265SOL     OW28693   3.932   0.252   2.991 -0.1035  0.2525  0.0975
 9265SOL    HW128694   4.016   0.282   2.946  0.0149  0.4521  0.4490
 9265SOL    HW228695   3.924   0.296   3.081 -1.6926  2.0349 -0.8337
 9266SOL     OW28696   0.443   5.496   1.335  0.3232  0.0791  0.4234
 9266SOL    HW128697   0.440   5.575   1.273  1.4148  0.7656  1.2243
 9266SOL    HW228698   0.477   5.417   1.285  0.0063  0.3136 -0.1794
 9267SOL     OW28699   0.916   1.367   3.364 -0.3728  0.4290 -0.1076
 9267SOL    HW128700   0.923   1.427   3.444 -0.9523 -1.1796  1.1850
 9267SOL    HW228701   0.981   1.399   3.294  0.1524  1.8706  0.9687
 9268SOL     OW28702   5.848   5.444   1.544 -0.2460 -0.7451 -0.8157
 9268SOL    HW128703   5.816   5.486   1.460  1.6085  0.3534 -1.0334
 9268SOL    HW228704   5.852   5.512   1.617 -0.3454 -1.3246 -0.2573
 9269SOL     OW28705   3.238   5.405   1.476 -0.3704  0.4081  0.3550
 9269SOL    HW128706   3.231   5.306   1.490 -0.3967  0.4154  0.3928
 9269SOL    HW228707   3.186   5.430   1.394  0.8750  0.1769 -0.5258
 9270SOL     OW28708   1.743   0.170   5.651  0.2983  0.3206  0.0634
 9270SOL    HW128709   1.826   0.118   5.669 -0.0612 -0.4901 -0.5345
 9270SOL    HW228710   1.767   0.264   5.629  0.9753  0.3784  0.9762
 9271SOL     OW28711   1.460   4.581   4.794 -0.0681 -0.2858 -0.2131
 9271SOL    HW128712   1.546   4.545   4.830 -1.5124 -0.5714  3.3469
 9271SOL    HW228713   1.436   4.532   4.710  1.8820 -2.1066  0.2156
 9272SOL     OW28714   5.787   5.819   0.560 -0.6893 -0.2447  0.2677
 9272SOL    HW128715   5.879   5.837   0.524  0.1101 -0.1176  2.2570
 9272SOL    HW228716   5.745   5.904   0.588 -0.8699 -0.4444  0.6073
 9273SOL     OW28717   0.297   5.264   3.451 -0.2304 -0.4316  0.0783
 9273SOL    HW128718   0.311   5.165   3.463  0.7935 -0.1153  1.7444
 9273SOL    HW228719   0.383   5.312   3.468 -0.9384  0.8249  0.1764
 9274SOL     OW28720   1.750   3.513   0.946  0.0032  0.7325 -0.4230
 9274SOL    HW128721   1.714   3.460   1.023 -0.0495 -0.9830 -1.5626
 9274SOL    HW228722   1.762   3.608   0.973  1.4903 -0.1040  2.2066
 9275SOL     OW28723   7.021   3.255   6.553 -0.2164  0.1633 -0.5122
 9275SOL    HW128724   7.115   3.230   6.528 -0.4703 -1.8814  0.3687
 9275SOL    HW228725   7.022   3.332   6.616  1.0112 -0.9761  0.9088
 9276SOL     OW28726   1.598   3.059   6.348 -0.9276 -0.6573 -0.2645
 9276SOL    HW128727   1.553   2.978   6.385 -0.6340 -0.2894  0.9417
 9276SOL    HW228728   1.620   3.044   6.252 -2.3181 -1.3915 -0.4872
 9277SOL     OW28729   4.961   5.362   3.183  0.1035 -0.3538  0.2595
 9277SOL    HW128730   4.927   5.294   3.248  1.7077 -1.7628 -0.3089
 9277SOL    HW228731   5.017   5.317   3.114  1.4377  1.5924 -0.0010
 9278SOL     OW28732   2.656   6.924   4.391  0.9097 -0.0172  0.5669
 9278SOL    HW128733   2.755   6.939   4.391  0.6702  1.7789 -0.3660
 9278SOL    HW228734   2.633   6.855   4.460  2.7215  0.1280  1.3742
 9279SOL     OW28735   3.510   5.477   1.437  0.5014 -0.2486  0.1031
 9279SOL    HW128736   3.481   5.416   1.511  1.6732 -0.0178  0.7927
 9279SOL    HW228737   3.513   5.426   1.351  0.8733 -1.0174  0.5543
 9280SOL     OW28738   6.834   4.484   0.568  0.3013  0.4328  0.0832
 9280SOL    HW128739   6.750   4.445   0.529  1.0789  0.3879 -1.6232
 9280SOL    HW228740   6.824   4.491   0.667 -1.3774 -0.3942  0.0108
 9281SOL     OW28741   0.234   4.842   0.065  0.6793 -0.0382  0.2322
 9281SOL    HW128742   0.158   4.902   0.088 -1.5277 -1.4591 -2.6650
 9281SOL    HW228743   0.320   4.893   0.068 -0.5377  2.0523  2.0195
 9282SOL     OW28744   2.529   0.806   4.402 -0.2747 -0.4171  0.7207
 9282SOL    HW128745   2.451   0.822   4.462  0.7817 -0.6094  2.1852
 9282SOL    HW228746   2.572   0.719   4.424  0.6699 -0.0808  0.3003
 9283SOL     OW28747   5.205   5.350   0.506  0.2917  0.0957  0.4014
 9283SOL    HW128748   5.164   5.429   0.551 -1.4878  0.2862 -1.4382
 9283SOL    HW228749   5.262   5.381   0.430 -0.0231 -0.3649 -0.0289
 9284SOL     OW28750   5.445   6.341   2.456 -0.0852  0.2467 -0.0664
 9284SOL    HW128751   5.453   6.245   2.483 -1.9563  0.1160  0.1384
 9284SOL    HW228752   5.521   6.365   2.395 -0.2365 -1.7004 -1.0818
 9285SOL     OW28753   0.353   4.692   1.855  0.0665 -0.0008 -0.0856
 9285SOL    HW128754   0.425   4.630   1.825 -1.1642 -1.0146 -1.0552
 9285SOL    HW228755   0.299   4.649   1.928 -1.7500 -0.8104 -1.7998
 9286SOL     OW28756   5.627   6.702   6.527 -0.0321 -0.1434 -0.3464
 9286SOL    HW128757   5.548   6.758   6.500 -1.0731 -1.0502  0.6858
 9286SOL    HW228758   5.595   6.623   6.579  1.5581 -0.6894 -0.1519
 9287SOL     OW28759   3.634   2.262   0.735  0.4689  0.2390  0.0245
 9287SOL    HW128760   3.555   2.305   0.779  0.0265 -0.8703  0.3529
 9287SOL    HW228761   3.668   2.189   0.794  2.9674  1.9224  0.8204
 9288SOL     OW28762   3.307   1.273   4.546  0.0914  0.3644 -0.1252
 9288SOL    HW128763   3.323   1.195   4.607  0.7880 -0.4419 -1.3172
 9288SOL    HW228764   3.213   1.269   4.511 -0.6247  1.3358  1.5547
 9289SOL     OW28765   2.066   5.357   4.025  0.6399  0.1455 -0.1845
 9289SOL    HW128766   2.045   5.296   4.101  0.2668  0.9596  0.3831
 9289SOL    HW228767   2.163   5.379   4.027  0.9438 -1.0407 -0.8681
 9290SOL     OW28768   5.813   1.684   3.697  0.7993 -0.2009  0.3908
 9290SOL    HW128769   5.902   1.722   3.675  1.4238 -0.4869  2.1925
 9290SOL    HW228770   5.812   1.586   3.677  1.1016 -0.3114  0.8984
 9291SOL     OW28771   0.875   4.616   3.834  0.0576 -0.0315 -0.1437
 9291SOL    HW128772   0.863   4.669   3.918  0.5845 -1.2812  0.7534
 9291SOL    HW228773   0.904   4.677   3.760  0.3486  0.9735  0.7733
 9292SOL     OW28774   1.508   3.090   0.674 -0.3080 -0.3395 -0.6120
 9292SOL    HW128775   1.547   3.114   0.585 -2.1169 -2.0425 -1.9404
 9292SOL    HW228776   1.420   3.137   0.686  0.4374  0.8049  0.8674
 9293SOL     OW28777   4.475   0.746   4.888 -0.2888  0.2897 -0.1657
 9293SOL    HW128778   4.431   0.809   4.823 -1.0212 -0.0996 -0.0626
 9293SOL    HW228779   4.433   0.758   4.978  0.9517  1.0658  0.3325
 9294SOL     OW28780   5.502   6.171   6.421 -0.4244 -0.2113  0.8795
 9294SOL    HW128781   5.528   6.190   6.326 -1.0532  4.6662  1.4399
 9294SOL    HW228782   5.584   6.152   6.475  0.6002  2.0823  0.2260
 9295SOL     OW28783   0.718   4.824   3.530  0.3136 -0.4240 -0.0744
 9295SOL    HW128784   0.732   4.890   3.456 -3.6941 -0.0297 -0.7279
 9295SOL    HW228785   0.704   4.873   3.616 -0.6668 -0.5271 -0.1702
 9296SOL     OW28786   3.053   3.811   5.530  0.5750  0.0505 -0.3732
 9296SOL    HW128787   3.128   3.877   5.530 -1.0530  1.9816 -0.2684
 9296SOL    HW228788   3.038   3.778   5.437  1.8741 -0.8153 -0.3141
 9297SOL     OW28789   1.032   5.941   3.757  0.3605  0.3059  0.4674
 9297SOL    HW128790   1.109   5.880   3.739 -0.1411  0.2344 -1.6507
 9297SOL    HW228791   0.948   5.887   3.765  0.0924  0.5994 -0.2708
 9298SOL     OW28792   0.859   3.940   0.690 -0.1794  0.1476 -0.4252
 9298SOL    HW128793   0.801   4.001   0.744  1.4810  1.0058  0.4547
 9298SOL    HW228794   0.862   3.973   0.595  0.9914  1.7034  0.1178
 9299SOL     OW28795   2.426   1.417   5.401  0.5192 -0.7377  0.0735
 9299SOL    HW128796   2.331   1.442   5.383  0.6324 -0.1758  0.2371
 9299SOL    HW228797   2.486   1.494   5.381  0.8037 -0.6184  1.2678
 9300SOL     OW28798   2.877   5.802   4.708  0.2136  0.3220  0.0374
 9300SOL    HW128799   2.829   5.785   4.621 -1.5140 -0.0718  1.0217
 9300SOL    HW228800   2.967   5.759   4.705 -0.5878 -1.3915 -0.8500
 9301SOL     OW28801   6.120   2.708   4.474  0.0111  0.7015 -0.2427
 9301SOL    HW128802   6.072   2.628   4.510  2.8022 -1.2841 -0.6373
 9301SOL    HW228803   6.082   2.732   4.384 -1.8401  0.8434  0.5217
 9302SOL     OW28804   4.303   5.482   4.033 -0.5235  0.5263  0.0140
 9302SOL    HW128805   4.380   5.540   4.057  0.8815 -1.3832  0.4027
 9302SOL    HW228806   4.256   5.520   3.953  2.4134  0.4830 -1.9065
 9303SOL     OW28807   2.160   4.934   5.854 -0.3003  0.5149  0.1258
 9303SOL    HW128808   2.137   5.022   5.811 -0.9576  0.3542  0.1390
 9303SOL    HW228809   2.135   4.937   5.951 -0.3842  0.2919  0.1115
 9304SOL     OW28810   5.720   5.414   0.473 -0.0857  0.1372 -0.6861
 9304SOL    HW128811   5.714   5.372   0.564  1.1649 -0.8022 -0.9991
 9304SOL    HW228812   5.661   5.364   0.409 -0.6314  0.5259 -0.4918
 9305SOL     OW28813   2.986   1.596   1.298  0.0296 -0.0804  0.0266
 9305SOL    HW128814   2.920   1.671   1.293  1.3794  1.1003 -1.1701
 9305SOL    HW228815   3.071   1.624   1.252  0.7090 -2.2236 -0.1044
 9306SOL     OW28816   6.738   5.835   4.762 -0.0080  0.0872  0.7847
 9306SOL    HW128817   6.796   5.753   4.759  0.4138  0.3506  1.6158
 9306SOL    HW228818   6.644   5.809   4.742  0.2194 -0.5063  0.4368
 9307SOL     OW28819   6.748   2.682   1.223  0.5155 -0.1332  0.2375
 9307SOL    HW128820   6.843   2.700   1.250  0.3051  1.2164  0.1060
 9307SOL    HW228821   6.743   2.677   1.123  0.1054  2.0082  0.1111
 9308SOL     OW28822   4.565   1.868   6.607 -0.2815  0.4486 -0.2374
 9308SOL    HW128823   4.569   1.947   6.668  0.5396  0.4605 -0.2921
 9308SOL    HW228824   4.573   1.784   6.661 -0.8736  0.4135 -0.2053
 9309SOL     OW28825   3.628   6.615   5.633 -0.5817 -0.7108 -0.3497
 9309SOL    HW128826   3.576   6.551   5.689  0.2885 -0.6615  0.5566
 9309SOL    HW228827   3.660   6.690   5.691  0.9200 -1.0137 -0.7462
 9310SOL     OW28828   5.898   1.683   6.293  0.7156  0.1396 -0.1291
 9310SOL    HW128829   5.904   1.655   6.197  0.1201 -0.6155  0.0386
 9310SOL    HW228830   5.869   1.605   6.348 -3.3948  1.5781  0.0556
 9311SOL     OW28831   1.025   2.791   5.594 -0.3139  0.3560  0.4257
 9311SOL    HW128832   1.092   2.759   5.528 -1.4075  0.6324 -0.8652
 9311SOL    HW228833   1.072   2.836   5.670  1.0207 -0.8130  0.3401
 9312SOL     OW28834   0.241   1.909   4.148 -0.1315  0.0930 -0.2711
 9312SOL    HW128835   0.199   1.858   4.223  0.2427  0.5931  0.2929
 9312SOL    HW228836   0.264   2.001   4.179 -1.2739  0.8036 -1.4232
 9313SOL     OW28837   2.301   6.722   1.747  0.4625 -0.2278  0.6319
 9313SOL    HW128838   2.226   6.657   1.758 -0.6656  1.0472  0.7673
 9313SOL    HW228839   2.274   6.793   1.682  2.1036 -0.4894 -0.3980
 9314SOL     OW28840   6.307   5.486   1.578 -0.3945 -0.4178  0.1953
 9314SOL    HW128841   6.399   5.448   1.568  0.0250  0.8111 -0.8029
 9314SOL    HW228842   6.304   5.549   1.655 -1.0029 -2.1278  1.6332
 9315SOL     OW28843   4.104   4.063   5.643  0.3582  0.5788  0.0005
 9315SOL    HW128844   4.012   4.052   5.679  0.1519  0.3856 -0.5737
 9315SOL    HW228845   4.164   3.993   5.681  0.3860  1.0016  0.7492
 9316SOL     OW28846   4.146   4.427   0.313 -0.4026 -0.5500 -0.0370
 9316SOL    HW128847   4.093   4.347   0.286  0.3932 -0.4527 -2.0704
 9316SOL    HW228848   4.173   4.419   0.409 -0.7345 -2.4799 -0.0810
 9317SOL     OW28849   3.048   6.291   1.985  0.1190  0.0369 -0.5160
 9317SOL    HW128850   3.132   6.240   1.965  1.1291  1.8011 -1.0175
 9317SOL    HW228851   3.069   6.367   2.046 -1.3272 -0.0556  0.1419
 9318SOL     OW28852   3.481   0.258   2.968  0.1014  0.3147 -0.1860
 9318SOL    HW128853   3.564   0.203   2.956  0.6297  1.0956 -0.1503
 9318SOL    HW228854   3.403   0.197   2.980  0.4108 -0.4647 -1.8338
 9319SOL     OW28855   3.150   2.173   7.004 -0.0473 -0.4375 -0.0393
 9319SOL    HW128856   3.148   2.164   6.905 -0.6850 -1.2309  0.0361
 9319SOL    HW228857   3.219   2.112   7.042 -0.2782 -0.6434  0.0519
 9320SOL     OW28858   5.460   0.370   6.448  0.9938 -0.0386  0.8475
 9320SOL    HW128859   5.461   0.466   6.423 -1.4800  0.2703  1.6140
 9320SOL    HW228860   5.518   0.318   6.385  0.5419  1.6228 -1.0426
 9321SOL     OW28861   1.381   1.258   3.257 -0.2172  0.2265  0.2628
 9321SOL    HW128862   1.294   1.219   3.289 -0.3770  1.2604  1.1753
 9321SOL    HW228863   1.457   1.211   3.303 -0.3383 -0.0779  0.1510
 9322SOL     OW28864   0.484   2.971   0.276 -0.2125  0.2520  0.0002
 9322SOL    HW128865   0.426   3.015   0.345 -1.2668 -1.5116  0.2926
 9322SOL    HW228866   0.433   2.898   0.231  0.8935  0.5103 -1.7535
 9323SOL     OW28867   0.364   1.808   2.604 -0.2984 -0.5110 -0.2395
 9323SOL    HW128868   0.341   1.755   2.685  0.4928 -1.2707 -0.4956
 9323SOL    HW228869   0.285   1.863   2.577 -1.6018 -2.4761 -0.6732
 9324SOL     OW28870   0.699   4.162   1.821  0.1309 -0.3206 -0.3497
 9324SOL    HW128871   0.750   4.214   1.889  0.3163 -1.8166  0.6828
 9324SOL    HW228872   0.601   4.173   1.837  0.1685 -0.3553 -0.1022
 9325SOL     OW28873   0.096   6.667   3.327 -0.1109 -0.0031  0.4441
 9325SOL    HW128874   0.071   6.631   3.237 -0.5490 -2.3982  1.4494
 9325SOL    HW228875   0.180   6.623   3.358  0.1814  0.9997  1.1128
 9326SOL     OW28876   4.011   5.068   6.356  0.3664  0.4970 -0.8825
 9326SOL    HW128877   3.916   5.061   6.324 -0.6799  2.0603  1.5921
 9326SOL    HW228878   4.026   5.158   6.396  2.7812  0.1062 -0.7801
 9327SOL     OW28879   1.860   1.739   3.183  0.1653  0.2243 -0.0588
 9327SOL    HW128880   1.829   1.644   3.177 -2.9718  0.9826  2.0621
 9327SOL    HW228881   1.877   1.763   3.279  2.7055  1.3860 -0.6944
 9328SOL     OW28882   0.892   0.817   2.466 -0.2308  0.2633  0.5683
 9328SOL    HW128883   0.940   0.895   2.426  0.4026 -1.1003 -1.5363
 9328SOL    HW228884   0.936   0.791   2.552  0.9037  0.9112  0.2137
 9329SOL     OW28885   0.365   5.449   6.625 -0.6864  0.2825  0.0370
 9329SOL    HW128886   0.420   5.446   6.708  0.4334  1.2901 -0.6470
 9329SOL    HW228887   0.281   5.396   6.639  0.3203 -1.0827  1.1727
 9330SOL     OW28888   1.199   7.014   1.952 -0.1679 -0.1639 -0.1423
 9330SOL    HW128889   1.123   7.066   1.990 -0.6775  0.0241 -1.3815
 9330SOL    HW228890   1.286   7.055   1.982 -0.5397  0.0653  0.6618
 9331SOL     OW28891   1.224   3.979   4.478  0.2103 -0.1781  0.0512
 9331SOL    HW128892   1.258   3.886   4.464  0.3567  0.0971 -1.5846
 9331SOL    HW228893   1.129   3.985   4.447  0.4760  0.4174 -0.6887
 9332SOL     OW28894   5.348   6.513   6.453  0.4128  0.0394  0.7745
 9332SOL    HW128895   5.295   6.500   6.537  1.1685  1.0299  1.4238
 9332SOL    HW228896   5.286   6.538   6.378 -0.3306 -1.3751  0.8801
 9333SOL     OW28897   1.099   3.853   6.330  0.3426 -0.7355  0.2106
 9333SOL    HW128898   1.035   3.860   6.253  2.6450 -2.7381 -2.0389
 9333SOL    HW228899   1.193   3.852   6.296  1.6076  0.6681  3.2905
 9334SOL     OW28900   6.392   0.090   0.571 -0.2726  0.4206 -0.9676
 9334SOL    HW128901   6.337   0.070   0.653 -0.9869  0.8739 -1.3231
 9334SOL    HW228902   6.361   0.177   0.532  1.1208  1.0043 -0.8294
 9335SOL     OW28903   6.542   5.326   1.567 -0.9527 -0.3416  0.0576
 9335SOL    HW128904   6.626   5.379   1.582  0.0101 -1.6637 -0.4739
 9335SOL    HW228905   6.551   5.236   1.609 -1.4906 -1.0663 -1.3270
 9336SOL     OW28906   3.442   2.509   6.830  0.0468 -0.0126 -0.0135
 9336SOL    HW128907   3.521   2.448   6.832 -0.9770 -1.3847  2.4281
 9336SOL    HW228908   3.369   2.467   6.776 -0.0933 -0.2057  0.3239
 9337SOL     OW28909   3.036   0.772   4.888 -0.6737 -0.7394 -0.6190
 9337SOL    HW128910   2.939   0.748   4.882 -1.4158  1.1957  1.8592
 9337SOL    HW228911   3.067   0.762   4.982 -0.4815  5.0876  0.2906
 9338SOL     OW28912   4.707   6.089   1.716  0.3042 -0.1696  0.4880
 9338SOL    HW128913   4.730   6.007   1.768  3.7447  1.1291  1.3079
 9338SOL    HW228914   4.752   6.086   1.627  0.0387  0.6145  0.3178
 9339SOL     OW28915   0.860   1.927   6.150 -0.6023 -0.0868  0.3925
 9339SOL    HW128916   0.802   1.901   6.073 -0.9791  0.3534  0.5223
 9339SOL    HW228917   0.874   2.026   6.149 -2.2511  0.2122  2.0039
 9340SOL     OW28918   2.932   4.890   2.053  0.3648 -0.6489 -0.5676
 9340SOL    HW128919   2.902   4.796   2.035 -1.5240  0.2907 -2.9384
 9340SOL    HW228920   2.880   4.953   1.995  2.5333  1.7677 -0.0738
 9341SOL     OW28921   6.222   5.650   1.360  0.4084 -0.1424 -0.6858
 9341SOL    HW128922   6.320   5.661   1.348  0.4052 -1.0348 -1.8087
 9341SOL    HW228923   6.204   5.575   1.424  0.4904 -0.8104 -1.4198
 9342SOL     OW28924   2.719   0.134   5.147  0.4332  0.9359  0.3023
 9342SOL    HW128925   2.661   0.207   5.182  0.4466  1.4362 -0.6695
 9342SOL    HW228926   2.676   0.092   5.067  1.3611  1.2949 -0.4157
 9343SOL     OW28927   5.194   4.641   6.616  0.3591  0.2631  0.2400
 9343SOL    HW128928   5.250   4.699   6.556  1.9457 -1.2856  0.1596
 9343SOL    HW228929   5.100   4.676   6.617  0.9249  1.9628 -0.9354
 9344SOL     OW28930   4.267   0.341   4.585 -0.0407 -0.1069  0.3975
 9344SOL    HW128931   4.322   0.293   4.654 -0.7963  1.7358  2.4031
 9344SOL    HW228932   4.251   0.435   4.615 -0.7483  0.6811 -2.1663
 9345SOL     OW28933   1.379   4.446   6.113 -0.3428 -0.5277 -0.8412
 9345SOL    HW128934   1.320   4.382   6.064 -1.7123  0.8242 -1.0071
 9345SOL    HW228935   1.441   4.394   6.172  0.4271 -2.1261 -2.9197
 9346SOL     OW28936   3.957   5.683   2.421 -0.0046  0.0261  0.3722
 9346SOL    HW128937   3.870   5.700   2.467  1.2237 -1.2270  3.4116
 9346SOL    HW228938   3.999   5.770   2.395 -1.2171  0.7267  0.7037
 9347SOL     OW28939   4.765   5.207   1.844 -0.5326 -0.3149  0.8287
 9347SOL    HW128940   4.724   5.119   1.823 -0.2402 -0.0708 -0.9455
 9347SOL    HW228941   4.743   5.273   1.772  0.9997  0.4693  1.0224
 9348SOL     OW28942   2.402   3.927   1.680  0.0103  0.1259  0.0075
 9348SOL    HW128943   2.498   3.901   1.689 -0.0268  0.0148  0.0800
 9348SOL    HW228944   2.344   3.847   1.697 -0.1886  0.7222  2.6053
 9349SOL     OW28945   0.405   3.537   3.045  0.5324 -0.1990  0.1045
 9349SOL    HW128946   0.413   3.622   2.993  0.5865 -0.3123 -0.0731
 9349SOL    HW228947   0.390   3.558   3.141  0.6380  0.0124  0.0750
 9350SOL     OW28948   1.177   0.486   0.660 -0.5587 -0.2170  0.5385
 9350SOL    HW128949   1.134   0.540   0.733 -1.9056  0.3577 -0.6467
 9350SOL    HW228950   1.260   0.532   0.629 -0.5036  0.0277  1.0342
 9351SOL     OW28951   3.411   3.689   5.708  0.0792  0.0175 -0.2555
 9351SOL    HW128952   3.466   3.730   5.636  1.2281 -1.5626 -0.3365
 9351SOL    HW228953   3.376   3.601   5.677 -0.2507 -0.2167  0.7483
 9352SOL     OW28954   2.600   1.507   6.086 -0.6091  0.2094 -0.0646
 9352SOL    HW128955   2.520   1.457   6.053 -0.6503 -0.0174  0.3678
 9352SOL    HW228956   2.648   1.548   6.009 -1.0505  0.2089 -0.3412
 9353SOL     OW28957   1.341   3.027   3.270 -0.3991  0.2045  0.5382
 9353SOL    HW128958   1.391   3.107   3.237  0.2550 -0.9519 -1.4727
 9353SOL    HW228959   1.350   3.020   3.369  0.5503  1.9209  0.6133
 9354SOL     OW28960   6.077   0.896   3.109  0.3013 -0.0549 -0.5667
 9354SOL    HW128961   6.080   0.991   3.079 -1.4576  0.2478  0.1149
 9354SOL    HW228962   6.018   0.843   3.048  0.6249 -0.5333 -0.4698
 9355SOL     OW28963   1.140   2.862   3.166 -0.2357  0.0064 -0.5793
 9355SOL    HW128964   1.156   2.843   3.069  1.1029 -3.0585  0.1345
 9355SOL    HW228965   1.216   2.915   3.202 -0.6012  0.9133 -1.0849
 9356SOL     OW28966   4.973   2.802   2.026 -0.4484  0.0059  0.3557
 9356SOL    HW128967   5.033   2.728   1.997 -0.2117  1.1127 -2.1972
 9356SOL    HW228968   4.882   2.765   2.049 -0.1487 -1.1277 -0.2418
 9357SOL     OW28969   0.477   3.391   0.432  0.2029 -0.2471 -0.4419
 9357SOL    HW128970   0.572   3.364   0.413  0.9499  1.0895  1.1608
 9357SOL    HW228971   0.454   3.471   0.377 -0.2636 -0.9683 -1.3336
 9358SOL     OW28972   5.293   4.633   2.437 -0.1260 -0.0646 -0.5111
 9358SOL    HW128973   5.307   4.592   2.347 -0.6853 -0.0331 -0.6133
 9358SOL    HW228974   5.272   4.561   2.504  1.7092 -0.2668 -0.0860
 9359SOL     OW28975   2.785   0.061   6.563  0.1599 -0.3756  0.2024
 9359SOL    HW128976   2.804  -0.033   6.536  0.6546 -0.3663  0.4957
 9359SOL    HW228977   2.734   0.107   6.491 -2.3680 -1.6148  1.0927
 9360SOL     OW28978   1.005   0.081   3.892 -0.7250 -0.1598 -0.5530
 9360SOL    HW128979   1.088   0.100   3.944 -1.9193  0.8888  1.0786
 9360SOL    HW228980   0.957   0.166   3.873 -0.4079 -0.5210 -3.3732
 9361SOL     OW28981   1.086   0.009   0.271  0.4306 -0.0482  0.1318
 9361SOL    HW128982   1.066   0.036   0.365  0.9254  0.2327  0.1601
 9361SOL    HW228983   1.016   0.046   0.210  0.1124 -0.2271  0.3884
 9362SOL     OW28984   1.291   1.766   2.975 -0.0384 -0.0179  0.0642
 9362SOL    HW128985   1.213   1.828   2.984 -0.3000 -0.5379  1.8052
 9362SOL    HW228986   1.291   1.702   3.052  3.3157  1.3366  1.3528
 9363SOL     OW28987   0.490   0.243   5.831 -0.1661  0.5007  0.2562
 9363SOL    HW128988   0.523   0.302   5.757 -0.0208  0.3180  0.1747
 9363SOL    HW228989   0.401   0.276   5.863 -0.6226  0.0969 -0.5626
 9364SOL     OW28990   3.214   4.476   1.374  0.0395 -0.5564  0.1875
 9364SOL    HW128991   3.273   4.525   1.310  1.3690 -2.2086  0.0821
 9364SOL    HW228992   3.270   4.426   1.440 -1.1570 -2.7711 -0.3514
 9365SOL     OW28993   2.015   0.996   2.875  0.7711  0.1732  0.2444
 9365SOL    HW128994   2.097   0.981   2.819  0.8157 -0.0991  0.3785
 9365SOL    HW228995   2.007   1.093   2.899  0.0180  0.5330 -1.3620
 9366SOL     OW28996   2.020   2.203   1.778  0.3989  0.7600  0.0971
 9366SOL    HW128997   2.111   2.179   1.813  0.4464 -0.3356 -0.6837
 9366SOL    HW228998   2.013   2.172   1.683 -1.0496  0.1309  0.3808
 9367SOL     OW28999   5.739   6.037   2.536 -0.1208  0.2051 -0.1578
 9367SOL    HW129000   5.639   6.039   2.529 -0.1291  0.2025 -0.0464
 9367SOL    HW229001   5.779   6.106   2.476 -0.1934  0.2594 -0.1436
 9368SOL     OW29002   4.837   3.234   1.816  0.5173 -0.2554  0.2304
 9368SOL    HW129003   4.765   3.172   1.848  0.8639 -0.3616  0.8108
 9368SOL    HW229004   4.867   3.292   1.891  1.2445 -0.4135  0.0683
 9369SOL     OW29005   0.206   1.898   5.123 -0.4434 -0.0225  0.2061
 9369SOL    HW129006   0.191   1.939   5.213  0.0582 -0.9058  0.7103
 9369SOL    HW229007   0.304   1.888   5.106 -0.4839  1.4827 -1.0863
 9370SOL     OW29008   5.710   6.801   3.533 -0.1501 -0.5710 -0.3738
 9370SOL    HW129009   5.786   6.863   3.555 -0.9972 -0.1267  1.5399
 9370SOL    HW229010   5.727   6.712   3.576 -1.0622 -0.2064  0.7967
 9371SOL     OW29011   0.657   6.448   1.358 -0.0413  0.4679  0.3101
 9371SOL    HW129012   0.604   6.370   1.390  0.8242 -0.5958 -0.7687
 9371SOL    HW229013   0.599   6.530   1.356 -1.0814 -0.2387  1.0196
 9372SOL     OW29014   5.518   6.910   4.691 -0.2487  0.3892 -0.8263
 9372SOL    HW129015   5.421   6.913   4.716 -0.6273  3.2910 -2.2140
 9372SOL    HW229016   5.530   6.852   4.610 -0.9139  0.3251 -0.8839
 9373SOL     OW29017   4.075   3.039   5.388  0.1814  0.1720  0.1443
 9373SOL    HW129018   4.162   3.033   5.437  0.8519  1.4287 -0.8352
 9373SOL    HW229019   4.055   2.951   5.345  1.8974  0.3340 -1.1001
 9374SOL     OW29020   6.005   3.381   0.226 -0.2523  0.4754 -0.1682
 9374SOL    HW129021   6.059   3.464   0.242 -1.5520  0.9986  1.8185
 9374SOL    HW229022   6.000   3.328   0.310 -0.8852 -0.7688 -0.9654
 9375SOL     OW29023   5.801   1.418   3.657  0.1073  0.6683  0.4601
 9375SOL    HW129024   5.724   1.397   3.717 -0.7050  0.9259 -0.4589
 9375SOL    HW229025   5.855   1.336   3.640  0.6130  0.6823  1.8769
 9376SOL     OW29026   2.655   2.301   2.366  0.1537  0.5081 -0.1321
 9376SOL    HW129027   2.734   2.260   2.320 -0.5525 -0.9980 -0.0424
 9376SOL    HW229028   2.636   2.251   2.451 -2.0358 -0.3865 -1.0927
 9377SOL     OW29029   0.159   4.106   5.561  0.0362 -0.5161 -0.8532
 9377SOL    HW129030   0.060   4.100   5.554 -0.1037  0.4577 -0.0041
 9377SOL    HW229031   0.199   4.118   5.470 -0.8374  1.6336 -1.0059
 9378SOL     OW29032   5.024   0.338   5.775 -0.2888  0.0436  0.3135
 9378SOL    HW129033   5.042   0.271   5.847  0.4180  0.7338  0.8032
 9378SOL    HW229034   4.932   0.375   5.786 -0.2478  0.0180  0.7687
 9379SOL     OW29035   4.755   3.975   0.459  0.1562 -0.3120 -0.0246
 9379SOL    HW129036   4.783   3.892   0.411  2.8953 -0.8450  2.2279
 9379SOL    HW229037   4.688   3.952   0.530 -1.9991  0.1135 -1.7811
 9380SOL     OW29038   0.959   2.807   4.636  0.1102 -0.6226 -0.0256
 9380SOL    HW129039   0.946   2.739   4.708  0.8652 -1.1097 -0.3367
 9380SOL    HW229040   0.984   2.895   4.678 -0.9768 -0.4912  0.3809
 9381SOL     OW29041   1.243   0.949   0.833 -0.3825  0.3165  0.3711
 9381SOL    HW129042   1.266   1.045   0.813  0.0251  0.3670  1.0594
 9381SOL    HW229043   1.273   0.926   0.925  0.5899 -0.8066 -0.1998
 9382SOL     OW29044   5.591   1.311   3.846 -0.0168  0.6444 -0.5038
 9382SOL    HW129045   5.529   1.315   3.925 -2.1902 -1.7013 -1.9502
 9382SOL    HW229046   5.678   1.272   3.875 -0.5289  0.4359  0.8589
 9383SOL     OW29047   5.478   5.154   5.994  0.0247  0.3651 -0.3591
 9383SOL    HW129048   5.498   5.084   5.925  0.1147 -0.4906  0.5090
 9383SOL    HW229049   5.426   5.228   5.953  2.1055  1.0403 -1.9151
 9384SOL     OW29050   4.287   5.735   1.203 -0.1359  0.2982  0.7817
 9384SOL    HW129051   4.219   5.805   1.227 -0.6776  0.4484 -1.0709
 9384SOL    HW229052   4.241   5.652   1.171  0.5353  0.1724  0.0980
 9385SOL     OW29053   2.043   6.380   2.272  0.5471  0.1079  0.4227
 9385SOL    HW129054   1.985   6.328   2.336  1.0747 -0.5986  0.3458
 9385SOL    HW229055   2.036   6.477   2.292 -0.4522  0.0057  0.5887
 9386SOL     OW29056   4.439   0.826   5.594 -0.2497 -0.3896  0.1364
 9386SOL    HW129057   4.475   0.856   5.506 -0.8169 -0.8798 -0.2766
 9386SOL    HW229058   4.427   0.726   5.592 -2.5228 -0.1545 -0.1068
 9387SOL     OW29059   4.537   4.633   0.276 -0.8060  0.0541  0.5473
 9387SOL    HW129060   4.539   4.676   0.186  0.6237  0.3658  0.7002
 9387SOL    HW229061   4.500   4.697   0.343  0.3552  0.7025  0.5886
 9388SOL     OW29062   6.794   4.911   2.642 -1.0274 -0.3899  0.2578
 9388SOL    HW129063   6.809   4.964   2.725  2.9765 -1.7539  0.6795
 9388SOL    HW229064   6.777   4.815   2.667  1.8142 -1.1493 -0.2820
 9389SOL     OW29065   2.312   0.811   5.668  0.2223  0.1204 -0.1008
 9389SOL    HW129066   2.306   0.898   5.618  1.0317 -0.9012 -2.1178
 9389SOL    HW229067   2.407   0.795   5.695 -0.0020  0.0616  0.6705
 9390SOL     OW29068   3.531   5.196   5.579  0.2992  0.2072 -0.0704
 9390SOL    HW129069   3.595   5.268   5.606 -0.3038  0.5149  0.5721
 9390SOL    HW229070   3.438   5.222   5.606  0.0396 -0.6890 -0.0693
 9391SOL     OW29071   5.800   0.424   5.862  0.7214  0.3583  0.2360
 9391SOL    HW129072   5.764   0.456   5.950 -0.9354  0.6116 -0.4916
 9391SOL    HW229073   5.807   0.325   5.862  1.6092  0.4075  0.9511
 9392SOL     OW29074   0.650   1.478   6.791 -0.6131 -0.7481 -0.4882
 9392SOL    HW129075   0.563   1.521   6.817 -0.2520 -0.9994  1.2582
 9392SOL    HW229076   0.690   1.527   6.714 -0.3898  1.9090  1.1957
 9393SOL     OW29077   5.788   1.032   0.058 -0.8315 -0.0955 -0.2511
 9393SOL    HW129078   5.881   0.999   0.077 -0.3457  1.6204  0.5406
 9393SOL    HW229079   5.734   0.958   0.019  0.9342 -1.0792 -0.9493
 9394SOL     OW29080   6.350   0.483   2.288  0.5878 -0.3733 -0.7032
 9394SOL    HW129081   6.365   0.563   2.230  2.0903 -1.3642 -1.7492
 9394SOL    HW229082   6.300   0.413   2.237 -1.0276 -0.0270  0.3163
 9395SOL     OW29083   0.859   2.204   0.922  0.0452  0.4232 -0.3689
 9395SOL    HW129084   0.778   2.215   0.863 -1.2037  0.4447  1.2874
 9395SOL    HW229085   0.910   2.123   0.893 -1.1510 -0.2102 -0.7818
 9396SOL     OW29086   0.960   0.298   5.180  0.0760 -0.0322 -0.1019
 9396SOL    HW129087   0.980   0.221   5.119  1.7099  0.6261 -0.4521
 9396SOL    HW229088   1.036   0.311   5.243  0.5435  2.2288 -1.0450
 9397SOL     OW29089   2.861   0.914   2.573  0.3350  0.9025  0.0806
 9397SOL    HW129090   2.952   0.890   2.540  0.2412  0.0316  0.4453
 9397SOL    HW229091   2.867   0.956   2.663  0.1987 -1.9825  1.5514
 9398SOL     OW29092   2.172   0.980   1.316  0.4385 -0.3242 -0.1342
 9398SOL    HW129093   2.095   0.979   1.252  0.9191  2.1167 -0.8347
 9398SOL    HW229094   2.239   1.048   1.286  3.5980 -3.2243 -0.3529
 9399SOL     OW29095   0.164   0.160   0.010  0.1021 -0.9261  0.3140
 9399SOL    HW129096   0.229   0.143   0.084  0.9541 -1.3887 -0.5131
 9399SOL    HW229097   0.212   0.154  -0.078 -0.8818 -0.3748 -0.2799
 9400SOL     OW29098   3.879   1.628   4.206  0.2708  0.1945 -0.7592
 9400SOL    HW129099   3.790   1.618   4.251  1.4287 -0.2332  1.6615
 9400SOL    HW229100   3.902   1.725   4.197  0.4776  0.3099  0.7105
 9401SOL     OW29101   3.358   7.013   2.447 -0.3301 -0.2844  0.0119
 9401SOL    HW129102   3.437   6.961   2.478 -0.3544 -1.1893 -1.3224
 9401SOL    HW229103   3.353   7.100   2.495  3.0238  1.0366 -1.6841
 9402SOL     OW29104   3.054   5.712   5.334 -0.2291  0.1158  0.2656
 9402SOL    HW129105   3.017   5.789   5.386 -0.5296  0.7996 -0.9115
 9402SOL    HW229106   2.992   5.634   5.340 -1.1099  0.7360 -0.4076
 9403SOL     OW29107   0.506   6.896   3.241 -0.2715  0.5078 -0.0139
 9403SOL    HW129108   0.414   6.868   3.269 -0.1831 -0.8142 -0.9649
 9403SOL    HW229109   0.570   6.874   3.314 -0.3243 -1.1544 -0.4258
 9404SOL     OW29110   1.639   4.317   4.523  0.1258  0.0847  0.4868
 9404SOL    HW129111   1.683   4.406   4.529 -0.5147  0.3011  2.7492
 9404SOL    HW229112   1.686   4.252   4.582 -0.0426 -0.8137 -0.3375
 9405SOL     OW29113   5.903   5.337   2.451  0.4686 -0.1330  0.7901
 9405SOL    HW129114   5.881   5.340   2.353  1.0710  1.0954  0.6695
 9405SOL    HW229115   5.832   5.285   2.499 -2.2812  2.8251  0.3095
 9406SOL     OW29116   6.504   0.986   4.630  0.5173  0.8502 -0.4098
 9406SOL    HW129117   6.522   0.923   4.554 -0.4558  0.9899 -0.7726
 9406SOL    HW229118   6.548   1.074   4.610  1.0826  0.5839 -0.3499
 9407SOL     OW29119   1.358   0.208   2.677  0.3091 -0.8044 -0.4730
 9407SOL    HW129120   1.337   0.159   2.593  0.4000 -0.2492 -0.8212
 9407SOL    HW229121   1.458   0.211   2.690  0.5142  1.6287 -1.9010
 9408SOL     OW29122   3.361   0.331   4.891  0.4793  0.7666 -0.1203
 9408SOL    HW129123   3.444   0.368   4.932  0.1868  0.2967  0.9313
 9408SOL    HW229124   3.306   0.287   4.962 -0.5074  0.7798 -0.8625
 9409SOL     OW29125   6.090   4.488   4.897 -0.1991 -0.3994 -0.2681
 9409SOL    HW129126   6.078   4.539   4.812 -1.4605 -3.0518 -1.8096
 9409SOL    HW229127   6.187   4.486   4.921 -0.1443  3.8015  0.7591
 9410SOL     OW29128   3.760   0.032   1.654 -0.6251  0.3056 -0.5864
 9410SOL    HW129129   3.676   0.086   1.665 -2.0866 -1.7054 -1.3741
 9410SOL    HW229130   3.764  -0.005   1.561  1.3063  0.5803 -0.6498
 9411SOL     OW29131   0.372   5.170   2.628 -0.3629 -0.4975  0.0360
 9411SOL    HW129132   0.398   5.200   2.720  0.5442  1.0291 -0.6821
 9411SOL    HW229133   0.403   5.077   2.613  1.0606 -0.1471  0.6704
 9412SOL     OW29134   5.948   2.992   1.295 -0.3809  0.2522  0.1427
 9412SOL    HW129135   5.963   3.072   1.353  0.1301  0.2130  0.0677
 9412SOL    HW229136   5.852   2.965   1.300 -0.9401  1.8560 -1.1192
 9413SOL     OW29137   3.830   5.230   3.021 -0.4674 -0.2905 -0.1146
 9413SOL    HW129138   3.803   5.171   2.945 -0.3686  2.0848 -2.1108
 9413SOL    HW229139   3.927   5.254   3.012  0.3531 -2.1783  2.4193
 9414SOL     OW29140   2.910   5.771   1.209 -0.0189 -1.0877 -0.4489
 9414SOL    HW129141   2.929   5.812   1.299 -1.6032  0.9906 -0.9888
 9414SOL    HW229142   2.986   5.712   1.183  1.3413 -0.2720  1.4330
 9415SOL     OW29143   0.729   0.300   2.326 -0.1261  0.0764  0.0544
 9415SOL    HW129144   0.726   0.361   2.247 -1.7529  1.3875  1.0680
 9415SOL    HW229145   0.783   0.344   2.399  0.6273 -0.7422  0.0110
 9416SOL     OW29146   2.327   1.553   0.644  0.0958  0.3357  0.4318
 9416SOL    HW129147   2.368   1.644   0.637 -0.0579  0.4228  0.6318
 9416SOL    HW229148   2.243   1.550   0.590  1.1205 -0.2968 -1.2024
 9417SOL     OW29149   1.979   1.294   4.734 -0.3569  0.1065 -0.1287
 9417SOL    HW129150   2.066   1.319   4.777 -1.3998 -0.2333  2.3338
 9417SOL    HW229151   1.931   1.377   4.705  0.2610  0.3519 -0.4914
 9418SOL     OW29152   3.160   2.707   6.501 -0.3342  0.3797  0.2021
 9418SOL    HW129153   3.241   2.697   6.442 -0.3100 -0.8370  0.4209
 9418SOL    HW229154   3.167   2.643   6.577 -1.8132 -0.1939 -0.1174
 9419SOL     OW29155   2.161   4.904   3.079  0.2607 -0.2343  0.1717
 9419SOL    HW129156   2.122   4.990   3.046 -0.6143 -0.3971  0.7438
 9419SOL    HW229157   2.174   4.842   3.002 -2.1324 -0.7559  0.0886
 9420SOL     OW29158   0.639   6.239   3.256  0.2372 -0.4468 -0.1049
 9420SOL    HW129159   0.720   6.231   3.199 -1.0409  0.0408 -2.0831
 9420SOL    HW229160   0.646   6.321   3.313  1.0142 -0.2833 -0.4265
 9421SOL     OW29161   0.660   4.240   4.104  0.1693  0.5031 -0.3719
 9421SOL    HW129162   0.639   4.319   4.046  0.4875  2.0304  1.4967
 9421SOL    HW229163   0.626   4.257   4.196  2.7540 -0.2951  0.8058
 9422SOL     OW29164   2.484   1.990   2.503  0.4348 -0.1680 -0.1380
 9422SOL    HW129165   2.454   1.910   2.450  0.2537 -0.3638  0.2599
 9422SOL    HW229166   2.415   2.014   2.570  1.3529 -0.9217  1.1271
 9423SOL     OW29167   2.899   1.747   5.591 -0.2054 -0.0649  0.2740
 9423SOL    HW129168   2.946   1.769   5.506 -0.4049  0.0786  0.1997
 9423SOL    HW229169   2.885   1.830   5.644 -0.2166 -0.1326  0.3775
 9424SOL     OW29170   3.623   5.905   3.401 -0.2280 -0.2663  0.4522
 9424SOL    HW129171   3.654   5.949   3.317  1.7532 -1.7561  0.3250
 9424SOL    HW229172   3.632   5.805   3.392  0.1478 -0.4572  2.4402
 9425SOL     OW29173   6.252   5.626   2.226 -0.6879  0.1023  0.8468
 9425SOL    HW129174   6.273   5.653   2.320  0.6635  1.7702  0.1137
 9425SOL    HW229175   6.337   5.618   2.174 -1.2989 -2.2817  0.0994
 9426SOL     OW29176   2.400   5.613   2.825  0.0242 -0.4691  0.4660
 9426SOL    HW129177   2.352   5.689   2.868 -1.2156 -0.1191 -1.3762
 9426SOL    HW229178   2.486   5.646   2.786  0.0892 -0.2831  0.7683
 9427SOL     OW29179   2.521   5.281   4.366 -0.1944 -0.3243 -0.0608
 9427SOL    HW129180   2.463   5.299   4.287  0.6697 -2.6553 -1.3248
 9427SOL    HW229181   2.525   5.182   4.383  1.9362 -0.1070  1.1150
 9428SOL     OW29182   4.169   0.301   1.596  0.4446  0.0378  0.1434
 9428SOL    HW129183   4.086   0.262   1.556 -1.2008  2.2172  1.2040
 9428SOL    HW229184   4.211   0.365   1.532  0.6897 -0.2563  0.0106
 9429SOL     OW29185   2.158   3.768   1.892  0.0507 -0.2935  0.1792
 9429SOL    HW129186   2.132   3.724   1.978 -1.2816 -0.7732 -0.4404
 9429SOL    HW229187   2.224   3.711   1.843  0.1268 -0.4528  0.4656
 9430SOL     OW29188   0.695   5.708   2.323 -0.2191 -0.1830 -0.2400
 9430SOL    HW129189   0.669   5.784   2.263 -0.6575 -0.1086  0.0389
 9430SOL    HW229190   0.706   5.741   2.416  0.3375 -0.3233 -0.2522
 9431SOL     OW29191   6.349   5.616   6.373  0.2395  0.2436 -0.2895
 9431SOL    HW129192   6.307   5.706   6.385  0.1273  0.2742 -0.8684
 9431SOL    HW229193   6.282   5.552   6.336 -0.1156 -0.5030  1.5535
 9432SOL     OW29194   6.362   6.057   4.783 -0.6618  0.2301 -0.4342
 9432SOL    HW129195   6.337   6.150   4.808  1.3617  0.9121 -0.7914
 9432SOL    HW229196   6.288   6.015   4.731 -2.3212  1.0044  1.2130
 9433SOL     OW29197   1.809   5.917   2.721  0.3732 -0.2158 -0.1829
 9433SOL    HW129198   1.731   5.856   2.733 -1.0581  1.5492 -0.1447
 9433SOL    HW229199   1.778   6.004   2.684  1.8879  1.5310  2.3557
 9434SOL     OW29200   6.509   3.791   3.962 -0.4038 -0.3350  0.3855
 9434SOL    HW129201   6.596   3.827   3.927  0.4219 -0.5892  2.0598
 9434SOL    HW229202   6.527   3.716   4.026 -1.6886  1.1463  2.6171
 9435SOL     OW29203   1.950   0.267   5.957  0.0528  0.0606  0.1839
 9435SOL    HW129204   1.883   0.231   6.021  0.4527 -0.4687  0.3136
 9435SOL    HW229205   2.005   0.191   5.920 -0.0630  0.3721 -0.6608
 9436SOL     OW29206   3.487   1.688   5.465 -0.4683  0.1673  0.0968
 9436SOL    HW129207   3.511   1.713   5.559  0.8312  0.4766 -0.2951
 9436SOL    HW229208   3.564   1.708   5.405 -1.2312 -0.1680 -1.0205
 9437SOL     OW29209   6.476   6.292   5.098 -0.0031 -0.4317 -0.1265
 9437SOL    HW129210   6.388   6.265   5.137 -0.2153  0.7722  0.2734
 9437SOL    HW229211   6.550   6.245   5.145 -0.4735 -3.6116 -2.2353
 9438SOL     OW29212   7.009   5.032   2.239  0.5252 -0.4575  0.4658
 9438SOL    HW129213   6.922   4.993   2.210  0.4164 -0.3376  0.6345
 9438SOL    HW229214   7.041   4.986   2.321  1.1537 -1.2432 -0.1956
 9439SOL     OW29215   6.610   3.791   2.131  0.3157 -0.1644  0.4525
 9439SOL    HW129216   6.652   3.802   2.041  1.2842  0.3962  0.9527
 9439SOL    HW229217   6.678   3.757   2.196 -0.1800  0.1292  1.1411
 9440SOL     OW29218   3.177   6.825   4.477 -0.4702  0.0050  0.3439
 9440SOL    HW129219   3.174   6.725   4.469 -1.0997  0.0952 -0.7104
 9440SOL    HW229220   3.217   6.850   4.566  0.4545 -1.1692  0.2831
 9441SOL     OW29221   2.160   5.246   5.132 -0.0108 -0.0825 -0.6672
 9441SOL    HW129222   2.083   5.270   5.072  0.6333 -0.3027 -1.6122
 9441SOL    HW229223   2.244   5.285   5.095  0.2601  0.6819  0.6999
 9442SOL     OW29224   6.730   4.655   1.303 -0.0993  0.0429  0.3710
 9442SOL    HW129225   6.730   4.667   1.204 -0.0924 -1.8880  0.1002
 9442SOL    HW229226   6.701   4.562   1.326 -1.3567  0.8108  2.2506
 9443SOL     OW29227   1.769   3.360   1.195 -0.5348  0.1850 -0.4809
 9443SOL    HW129228   1.760   3.316   1.284 -0.7992 -0.5241 -0.8539
 9443SOL    HW229229   1.820   3.446   1.205  0.5667 -0.5253  0.1500
 9444SOL     OW29230   1.022   2.009   0.055  0.0194 -0.6492  0.1947
 9444SOL    HW129231   0.956   1.935   0.068  1.2034 -1.8914 -0.5691
 9444SOL    HW229232   1.076   2.020   0.139 -1.6972  0.9996  1.1598
 9445SOL     OW29233   0.096   4.783   1.396  0.2682  0.6501  0.3390
 9445SOL    HW129234   0.138   4.789   1.487 -0.6652  4.4991  0.6907
 9445SOL    HW229235   0.164   4.807   1.326  0.9187 -2.0707 -0.0836
 9446SOL     OW29236   4.407   4.281   1.005 -0.0513 -0.2187 -0.1808
 9446SOL    HW129237   4.393   4.185   0.980 -0.8933  0.0215 -0.6516
 9446SOL    HW229238   4.409   4.289   1.105 -0.9385 -0.5918 -0.1277
 9447SOL     OW29239   5.725   0.592   2.323  0.0777  0.6630 -0.0723
 9447SOL    HW129240   5.745   0.566   2.417 -0.6856 -1.4127 -0.4289
 9447SOL    HW229241   5.669   0.675   2.322 -2.9451 -1.1717  1.5365
 9448SOL     OW29242   5.306   0.025   0.479 -0.1082 -0.6344  0.2991
 9448SOL    HW129243   5.385   0.062   0.431  0.1044 -0.5159  0.7359
 9448SOL    HW229244   5.314   0.044   0.577  0.0489 -1.8898  0.5443
 9449SOL     OW29245   5.350   0.127   5.449  0.4000 -0.2263 -0.9475
 9449SOL    HW129246   5.382   0.077   5.529  0.7046 -0.7396 -1.3846
 9449SOL    HW229247   5.393   0.218   5.448  2.4652 -1.1303 -1.8787
 9450SOL     OW29248   1.932   5.636   3.324  0.9932 -0.4667  0.9259
 9450SOL    HW129249   1.834   5.620   3.309  0.8212  1.2906 -0.1154
 9450SOL    HW229250   1.980   5.549   3.326 -0.4631 -1.3162  0.4601
 9451SOL     OW29251   3.552   3.273   3.052 -0.1219 -0.2663 -0.3274
 9451SOL    HW129252   3.637   3.221   3.039  0.0745  0.2327 -1.1752
 9451SOL    HW229253   3.551   3.312   3.144  0.3922 -0.5891 -0.1757
 9452SOL     OW29254   3.052   3.286   0.425  0.0141  0.0654  0.2678
 9452SOL    HW129255   2.973   3.241   0.467 -0.9236  1.2196 -0.1834
 9452SOL    HW229256   3.136   3.257   0.471 -0.6737 -1.1429  0.7990
 9453SOL     OW29257   3.325   4.954   7.000 -0.1535  0.3459 -0.5919
 9453SOL    HW129258   3.234   4.994   7.011  0.3751  1.2661  0.7826
 9453SOL    HW229259   3.318   4.871   6.945 -1.9401 -0.0384  0.1234
 9454SOL     OW29260   2.243   2.583   6.240  0.5390  0.2909  0.2557
 9454SOL    HW129261   2.288   2.671   6.257  2.3850 -0.8193  1.5511
 9454SOL    HW229262   2.244   2.564   6.141  1.9805  0.8265  0.1386
 9455SOL     OW29263   2.184   1.291   0.900 -0.3832  0.5391  0.3522
 9455SOL    HW129264   2.123   1.285   0.979 -0.3682  1.3802  0.4351
 9455SOL    HW229265   2.262   1.350   0.922  0.8537 -1.0839  0.4827
 9456SOL     OW29266   2.387   4.183   1.728  0.0868  0.0573  0.3153
 9456SOL    HW129267   2.399   4.085   1.718 -0.3449 -0.1305  1.5093
 9456SOL    HW229268   2.297   4.210   1.695 -0.7875 -0.3538  2.2093
 9457SOL     OW29269   5.619   3.964   6.226 -0.3669 -0.1360  0.3719
 9457SOL    HW129270   5.564   3.881   6.232  0.4263 -0.7064 -0.0170
 9457SOL    HW229271   5.613   4.002   6.133 -0.9096  0.3766  0.6108
 9458SOL     OW29272   1.187   0.040   5.864 -0.3161  0.1434 -0.8532
 9458SOL    HW129273   1.087   0.031   5.857 -0.3857  0.5134 -0.3488
 9458SOL    HW229274   1.210   0.110   5.932  0.2847  0.3361 -1.2465
 9459SOL     OW29275   5.146   6.858   2.898  0.0445 -0.2982  0.0551
 9459SOL    HW129276   5.155   6.784   2.832  1.4240 -0.2914  0.2140
 9459SOL    HW229277   5.192   6.833   2.983 -0.5113  0.2574  0.5269
 9460SOL     OW29278   1.303   2.330   6.357 -0.2848 -0.2010  0.1554
 9460SOL    HW129279   1.283   2.322   6.259  0.7536 -4.4959  0.0779
 9460SOL    HW229280   1.402   2.324   6.371 -0.4361  0.0918  1.4817
 9461SOL     OW29281   1.176   2.568   2.372 -0.1123 -0.0184 -0.4375
 9461SOL    HW129282   1.210   2.646   2.320  1.0760  0.1592  0.5387
 9461SOL    HW229283   1.227   2.486   2.346 -0.0023 -0.0688 -0.0744
 9462SOL     OW29284   6.735   3.159   3.902 -0.2283  0.4469 -0.3588
 9462SOL    HW129285   6.820   3.115   3.875  1.1922  2.4382  0.6455
 9462SOL    HW229286   6.657   3.107   3.866  1.3581 -1.9032 -0.5656
 9463SOL     OW29287   6.601   3.203   6.615 -0.2751 -0.1140  0.2416
 9463SOL    HW129288   6.614   3.271   6.687 -0.6936 -0.4557  0.6500
 9463SOL    HW229289   6.658   3.123   6.635 -1.5052 -0.8299  1.0148
 9464SOL     OW29290   4.587   5.118   5.917 -0.4208 -0.6384  0.0830
 9464SOL    HW129291   4.531   5.048   5.962 -1.2869 -1.2476 -1.8383
 9464SOL    HW229292   4.543   5.146   5.832  1.1110  0.5278 -0.3642
 9465SOL     OW29293   5.133   6.479   5.950  0.1710  0.3908 -0.2322
 9465SOL    HW129294   5.164   6.432   5.868 -0.2602 -0.7960  0.2630
 9465SOL    HW229295   5.057   6.540   5.927 -1.5603 -1.6870 -0.3912
 9466SOL     OW29296   3.460   3.528   0.303 -0.2340  0.1058 -0.1300
 9466SOL    HW129297   3.519   3.446   0.305  0.4140  0.5523 -0.4504
 9466SOL    HW229298   3.377   3.508   0.251 -1.1221 -1.0185  1.6590
 9467SOL     OW29299   1.112   4.789   2.565 -0.1560  0.2092  0.5065
 9467SOL    HW129300   1.123   4.780   2.664 -0.8298 -1.4330  0.4526
 9467SOL    HW229301   1.079   4.703   2.527  1.4869  0.3522 -1.3622
 9468SOL     OW29302   1.498   3.623   0.731  1.0773 -0.3033 -0.4348
 9468SOL    HW129303   1.581   3.567   0.721  1.6802  0.2106  1.3744
 9468SOL    HW229304   1.451   3.599   0.815 -0.0631  0.1474 -0.9245
 9469SOL     OW29305   1.538   4.002   3.376 -0.1267  0.3235  0.0173
 9469SOL    HW129306   1.598   4.056   3.316 -0.5559 -0.3722 -1.0581
 9469SOL    HW229307   1.544   3.906   3.351  0.7254 -0.1994  2.0077
 9470SOL     OW29308   6.696   4.248   1.610  0.6489 -0.1849  0.1874
 9470SOL    HW129309   6.603   4.238   1.574  0.1111  1.8154  0.9423
 9470SOL    HW229310   6.722   4.163   1.657 -1.0702 -0.5166  0.6093
 9471SOL     OW29311   1.484   2.573   1.536  0.3044 -0.0193 -0.2055
 9471SOL    HW129312   1.569   2.599   1.582  0.6298 -0.6263 -0.4504
 9471SOL    HW229313   1.428   2.654   1.523  0.3630  0.2279  0.9264
 9472SOL     OW29314   5.776   1.152   5.230 -0.5876  0.2597 -0.1370
 9472SOL    HW129315   5.764   1.078   5.164 -1.1802  0.8234 -0.6691
 9472SOL    HW229316   5.795   1.238   5.182 -0.2115  0.5205  0.4591
 9473SOL     OW29317   2.795   6.175   6.860  0.2575 -0.0567 -0.5255
 9473SOL    HW129318   2.705   6.168   6.818 -0.0277  0.4552 -0.0140
 9473SOL    HW229319   2.863   6.198   6.790 -0.0088 -0.4354 -0.9099
 9474SOL     OW29320   4.108   6.858   4.083  0.3614  0.3672 -0.1427
 9474SOL    HW129321   4.015   6.824   4.097  0.2349  0.5898 -0.4213
 9474SOL    HW229322   4.167   6.827   4.157 -0.1557  1.0770  0.5773
 9475SOL     OW29323   2.846   3.564   0.616  0.4633 -0.2749  0.5915
 9475SOL    HW129324   2.886   3.588   0.527 -0.4202 -0.4319  0.1396
 9475SOL    HW229325   2.852   3.465   0.630  1.0692 -0.1918  0.9449
 9476SOL     OW29326   3.490   3.371   0.063 -0.5499 -0.3281 -0.4149
 9476SOL    HW129327   3.397   3.387   0.097 -0.0211  3.0494 -0.2533
 9476SOL    HW229328   3.511   3.436  -0.010  1.3161 -1.8066 -1.2893
 9477SOL     OW29329   1.149   3.278   5.954 -0.2030  0.3816  0.6591
 9477SOL    HW129330   1.171   3.355   6.015 -0.0656 -1.4295  3.0194
 9477SOL    HW229331   1.182   3.193   5.994 -2.1439 -1.1950 -0.8784
 9478SOL     OW29332   5.559   4.918   5.867 -0.3225 -0.2663 -0.5871
 9478SOL    HW129333   5.612   4.972   5.801 -1.2449 -0.2391 -1.3302
 9478SOL    HW229334   5.621   4.866   5.926  0.5919  1.3547 -0.0502
 9479SOL     OW29335   0.182   5.792   3.796 -0.4906  0.1085  0.2696
 9479SOL    HW129336   0.164   5.749   3.707 -1.6134 -1.8775  1.3854
 9479SOL    HW229337   0.281   5.802   3.808 -0.3315  1.7615 -1.7520
 9480SOL     OW29338   1.477   2.920   1.329 -0.2470  0.7412 -0.0886
 9480SOL    HW129339   1.520   2.840   1.287  0.1066  0.0495  1.4892
 9480SOL    HW229340   1.472   2.994   1.263  0.6532 -0.1438 -1.1961
 9481SOL     OW29341   1.630   2.073   3.893  0.4569  0.0002  0.2918
 9481SOL    HW129342   1.723   2.063   3.928  0.5660 -0.2410 -0.0554
 9481SOL    HW229343   1.594   1.983   3.868  0.6234  0.2245 -0.8156
 9482SOL     OW29344   5.702   2.455   2.573 -0.0987 -0.0501  0.8491
 9482SOL    HW129345   5.796   2.449   2.606 -0.3089  0.0817  1.4824
 9482SOL    HW229346   5.641   2.409   2.637 -0.7207  1.6490  1.5296
 9483SOL     OW29347   0.941   1.660   1.521  0.2174 -0.1343 -0.5815
 9483SOL    HW129348   0.899   1.647   1.431 -0.3835  0.9840 -0.4817
 9483SOL    HW229349   0.939   1.757   1.545 -1.8351 -0.6496  1.7027
 9484SOL     OW29350   0.163   1.110   4.150  0.1076 -0.1326  0.5319
 9484SOL    HW129351   0.241   1.065   4.106 -0.9449 -0.8471 -0.6778
 9484SOL    HW229352   0.112   1.043   4.205 -0.4264 -0.0106  0.1988
 9485SOL     OW29353   6.932   5.416   3.820  0.0218 -0.0135  0.2835
 9485SOL    HW129354   6.981   5.359   3.754 -0.5986 -0.4314  0.1732
 9485SOL    HW229355   6.982   5.501   3.836  0.9733 -0.5934  0.4535
 9486SOL     OW29356   3.593   5.945   2.281  0.1914  0.3535  0.1640
 9486SOL    HW129357   3.586   5.899   2.193  0.7457  0.3076  0.1419
 9486SOL    HW229358   3.589   5.877   2.354 -1.9869  0.5221  0.2624
 9487SOL     OW29359   3.788   3.788   2.824  0.4128 -0.2741 -0.2113
 9487SOL    HW129360   3.793   3.818   2.919  1.1815 -0.7942 -0.0808
 9487SOL    HW229361   3.791   3.688   2.820  2.7068 -0.2357 -0.8844
 9488SOL     OW29362   0.698   0.647   3.438 -0.9269  0.1450  0.1564
 9488SOL    HW129363   0.674   0.558   3.401  0.5516  0.3352 -1.3646
 9488SOL    HW229364   0.729   0.637   3.533 -2.9508 -0.6071  0.7875
 9489SOL     OW29365   3.581   5.236   0.874 -0.6288  0.2816 -0.5161
 9489SOL    HW129366   3.611   5.321   0.831  2.1283 -0.5795 -0.4866
 9489SOL    HW229367   3.505   5.198   0.821 -1.6263  2.4861 -0.7852
 9490SOL     OW29368   5.312   1.926   5.937  0.3593 -0.2414 -0.0604
 9490SOL    HW129369   5.272   1.953   6.024  0.3273 -1.0657  0.1888
 9490SOL    HW229370   5.412   1.918   5.947  0.1945 -2.2047  0.4448
 9491SOL     OW29371   5.455   6.013   0.028  0.3438  0.0080  0.2913
 9491SOL    HW129372   5.536   6.036   0.081  1.4950  0.8283 -1.7450
 9491SOL    HW229373   5.376   6.063   0.064  0.8733 -0.1886  1.7934
 9492SOL     OW29374   1.753   4.816   0.471  0.5382  0.1200 -0.1166
 9492SOL    HW129375   1.808   4.741   0.509  1.0645  0.4891 -0.1417
 9492SOL    HW229376   1.658   4.786   0.461  0.7796 -0.6002 -0.2937
 9493SOL     OW29377   6.373   5.459   3.765  0.2490 -0.3888 -0.6051
 9493SOL    HW129378   6.459   5.487   3.722  0.4797 -0.4996 -0.2165
 9493SOL    HW229379   6.308   5.536   3.762  0.8883  0.2194  0.4830
 9494SOL     OW29380   4.451   4.762   5.637  0.0877 -0.3127 -0.3463
 9494SOL    HW129381   4.412   4.680   5.677  0.0295  0.0433  0.3460
 9494SOL    HW229382   4.548   4.767   5.658  0.3981 -0.9056 -1.5773
 9495SOL     OW29383   0.310   0.558   4.658  0.1918  0.0689  0.1241
 9495SOL    HW129384   0.312   0.523   4.564 -2.4248  0.9191 -0.3388
 9495SOL    HW229385   0.225   0.529   4.702  0.9286  0.5043  1.9428
 9496SOL     OW29386   6.847   6.162   0.571 -0.0438  0.7468 -0.0088
 9496SOL    HW129387   6.916   6.139   0.639 -0.1154 -2.1343 -0.7699
 9496SOL    HW229388   6.784   6.230   0.609  0.8015  0.3706  2.2187
 9497SOL     OW29389   0.168   5.259   5.444 -0.1959 -0.1265  0.3236
 9497SOL    HW129390   0.129   5.202   5.516 -0.4397 -0.9799 -0.4661
 9497SOL    HW229391   0.213   5.338   5.485 -0.9586 -0.2122  1.3685
 9498SOL     OW29392   4.380   0.201   6.507 -0.2571 -0.6183  0.0627
 9498SOL    HW129393   4.280   0.192   6.511 -0.3789  0.3290 -0.4799
 9498SOL    HW229394   4.414   0.238   6.594 -0.5222  0.1585 -0.1517
 9499SOL     OW29395   3.322   4.285   6.558  0.0579 -0.4675  0.6365
 9499SOL    HW129396   3.302   4.375   6.595  1.3644  0.4719 -0.7960
 9499SOL    HW229397   3.237   4.242   6.527 -0.3130  2.0263 -2.3702
 9500SOL     OW29398   3.994   5.646   6.531 -0.0991 -0.4689 -0.4420
 9500SOL    HW129399   4.046   5.731   6.536 -0.7968 -0.1097  1.7864
 9500SOL    HW229400   4.042   5.575   6.582 -0.5268 -0.8564 -0.5768
 9501SOL     OW29401   4.221   1.181   5.272 -0.9389 -0.5444  0.4490
 9501SOL    HW129402   4.284   1.246   5.315  1.7121 -2.8284  0.3202
 9501SOL    HW229403   4.185   1.118   5.340 -0.7072 -1.0868  0.0792
 9502SOL     OW29404   3.664   2.103   5.550  0.0861 -0.1169 -0.3046
 9502SOL    HW129405   3.600   2.034   5.587  0.0693  0.0377 -0.0449
 9502SOL    HW229406   3.757   2.067   5.554  0.0399 -0.2604 -0.4887
 9503SOL     OW29407   1.382   5.623   2.540 -0.3615  0.3396  0.0802
 9503SOL    HW129408   1.318   5.548   2.524  0.7107 -1.2380  2.5302
 9503SOL    HW229409   1.342   5.709   2.508 -3.1385 -0.7604  0.3059
 9504SOL     OW29410   6.310   3.077   1.603 -0.9311  0.4857  0.1006
 9504SOL    HW129411   6.215   3.098   1.626 -0.8357  0.4593  0.5293
 9504SOL    HW229412   6.330   3.111   1.511 -2.3476 -2.5150 -1.4613
 9505SOL     OW29413   6.014   4.048   3.561  0.2281 -0.4875 -0.7258
 9505SOL    HW129414   6.057   4.067   3.649  0.8471  0.5948 -1.2385
 9505SOL    HW229415   6.021   4.129   3.503 -1.8614 -0.5271 -1.0987
 9506SOL     OW29416   0.670   2.244   0.727 -0.1819 -0.3576  0.5896
 9506SOL    HW129417   0.629   2.160   0.762 -1.9307 -0.4650 -1.4767
 9506SOL    HW229418   0.598   2.303   0.689  1.0634  1.8072  1.3668
 9507SOL     OW29419   0.401   3.549   4.521 -0.3409 -0.0648  0.0793
 9507SOL    HW129420   0.474   3.493   4.483  0.2994  0.4260  0.5670
 9507SOL    HW229421   0.345   3.586   4.447  0.4541  0.2888 -0.3513
 9508SOL     OW29422   4.993   1.053   0.241 -0.0190  0.3742 -0.3304
 9508SOL    HW129423   5.091   1.069   0.233 -0.0039  0.0584 -0.7827
 9508SOL    HW229424   4.960   1.091   0.328  0.4274  0.8247 -0.3571
 9509SOL     OW29425   2.352   0.145   3.819  0.3644 -0.1581  0.8548
 9509SOL    HW129426   2.350   0.245   3.829  0.1080 -0.1540  0.7674
 9509SOL    HW229427   2.351   0.121   3.722  1.3989 -0.2274  0.8505
 9510SOL     OW29428   0.892   3.770   2.336  0.7711  0.5207 -0.1097
 9510SOL    HW129429   0.877   3.807   2.245  0.6738  1.5048  0.2948
 9510SOL    HW229430   0.810   3.720   2.365  0.9304 -0.0981 -0.6827
 9511SOL     OW29431   1.956   0.835   2.391 -0.1541 -0.0994  0.5667
 9511SOL    HW129432   1.865   0.843   2.432  0.0805 -1.1955  1.3502
 9511SOL    HW229433   2.025   0.849   2.462  0.2889  0.6547 -0.0114
 9512SOL     OW29434   0.251   3.231   5.229  0.4499 -0.2117 -0.6371
 9512SOL    HW129435   0.237   3.282   5.314  2.6212  1.1182 -1.0106
 9512SOL    HW229436   0.286   3.292   5.158  0.3423 -1.6509 -1.9947
 9513SOL     OW29437   6.977   4.858   5.614 -0.3753 -0.4312 -0.2423
 9513SOL    HW129438   6.973   4.917   5.534  0.2626  0.4314  0.3408
 9513SOL    HW229439   6.977   4.762   5.585 -1.4227 -0.1622 -1.1954
 9514SOL     OW29440   2.756   2.637   5.770  0.3196 -0.1427 -0.0105
 9514SOL    HW129441   2.667   2.592   5.782  0.2818  0.2792  1.4593
 9514SOL    HW229442   2.825   2.567   5.751 -0.2666 -0.4934 -0.9722
 9515SOL     OW29443   2.449   5.826   4.863 -0.5059 -0.6525 -0.3933
 9515SOL    HW129444   2.365   5.820   4.808 -1.9406 -0.4129  1.6761
 9515SOL    HW229445   2.425   5.834   4.959  1.9246  0.1058  0.2037
 9516SOL     OW29446   5.739   5.526   5.337 -0.0634  0.5443  0.1501
 9516SOL    HW129447   5.770   5.458   5.271 -1.3495  0.9875 -0.9756
 9516SOL    HW229448   5.679   5.592   5.291  0.4260  1.9157  1.3993
 9517SOL     OW29449   0.593   4.932   2.158 -0.5836  0.0345 -0.4550
 9517SOL    HW129450   0.545   5.019   2.173  1.2551  1.1039 -0.4571
 9517SOL    HW229451   0.608   4.887   2.246  0.0385  0.6332 -0.2400
 9518SOL     OW29452   1.913   3.539   6.677  0.1025  0.2355 -0.2722
 9518SOL    HW129453   1.921   3.454   6.624  1.0847 -0.0483  0.3012
 9518SOL    HW229454   1.941   3.616   6.619 -3.4594  0.6205 -1.7561
 9519SOL     OW29455   3.918   3.037   4.083  0.0886  0.0582 -0.2415
 9519SOL    HW129456   3.932   3.026   3.984  0.8842 -0.2340 -0.1035
 9519SOL    HW229457   3.973   3.114   4.116 -1.2866  1.0874 -0.2600
 9520SOL     OW29458   4.643   0.772   0.975 -0.5850 -0.1197  0.1967
 9520SOL    HW129459   4.690   0.778   1.063  0.3905  1.0427 -0.3792
 9520SOL    HW229460   4.550   0.807   0.984 -1.0276 -1.4364  1.0954
 9521SOL     OW29461   4.422   6.618   3.314  0.8178 -0.7682 -0.2096
 9521SOL    HW129462   4.344   6.557   3.298  0.0933 -0.4452  1.7257
 9521SOL    HW229463   4.422   6.690   3.245 -1.0898 -0.3510  0.1506
 9522SOL     OW29464   2.603   6.703   1.567  0.4352 -0.6343  0.2714
 9522SOL    HW129465   2.574   6.616   1.606 -1.2049 -0.6872 -0.9578
 9522SOL    HW229466   2.559   6.778   1.617 -0.3801 -0.6359 -0.4360
 9523SOL     OW29467   2.708   5.900   6.977 -0.0061 -0.1653 -0.2089
 9523SOL    HW129468   2.611   5.907   6.955  0.0765 -1.3204 -1.0588
 9523SOL    HW229469   2.755   5.982   6.947 -1.1164  1.7287  2.7933
 9524SOL     OW29470   1.365   4.641   1.884  0.6415 -0.0837 -0.5007
 9524SOL    HW129471   1.304   4.599   1.951 -1.0290  0.3469 -1.6796
 9524SOL    HW229472   1.416   4.570   1.836 -0.2906 -0.6052 -0.7433
 9525SOL     OW29473   2.664   0.481   6.437  0.8243  0.0775  0.2325
 9525SOL    HW129474   2.748   0.535   6.438  0.7463  0.2046  0.0935
 9525SOL    HW229475   2.595   0.525   6.494  0.9263 -0.1504  0.5327
 9526SOL     OW29476   4.377   5.472   5.478  0.5313  0.8689 -0.1481
 9526SOL    HW129477   4.347   5.539   5.411  0.4510  2.0884  1.0684
 9526SOL    HW229478   4.465   5.499   5.517  2.6361 -1.8707 -2.5348
 9527SOL     OW29479   3.242   0.201   2.583 -0.1043  0.3583  0.3152
 9527SOL    HW129480   3.167   0.144   2.617 -0.3642  0.0892 -0.6603
 9527SOL    HW229481   3.208   0.257   2.507  0.5321  0.7053  0.2830
 9528SOL     OW29482   6.134   1.631   6.470 -0.0019 -0.6084 -0.1506
 9528SOL    HW129483   6.057   1.605   6.412  1.6501  1.0296 -3.3522
 9528SOL    HW229484   6.187   1.550   6.495 -1.6329 -1.5211  0.5124
 9529SOL     OW29485   3.120   6.496   2.175 -0.3058  0.1674  0.3002
 9529SOL    HW129486   3.065   6.546   2.108 -1.5177 -1.1182  0.3029
 9529SOL    HW229487   3.216   6.519   2.162 -0.8274  3.0818  0.7961
 9530SOL     OW29488   1.191   2.826   2.674 -0.1601  0.0396 -0.8881
 9530SOL    HW129489   1.217   2.735   2.642 -1.3400 -0.7730  0.3215
 9530SOL    HW229490   1.144   2.875   2.601  0.0427 -0.5205 -1.3996
 9531SOL     OW29491   2.810   3.881   6.819 -0.3541  0.0108 -0.3780
 9531SOL    HW129492   2.811   3.958   6.756  0.1648  0.5836  0.3225
 9531SOL    HW229493   2.820   3.796   6.767 -2.9700  0.2235 -1.3759
 9532SOL     OW29494   6.837   3.159   4.432  0.0275 -0.5148 -0.0949
 9532SOL    HW129495   6.802   3.176   4.339  0.8626 -1.3408 -0.5764
 9532SOL    HW229496   6.770   3.107   4.484  0.2314 -1.4868 -0.7841
 9533SOL     OW29497   1.342   3.543   2.503  0.1530  0.0685 -0.1881
 9533SOL    HW129498   1.376   3.629   2.466  0.4400  0.1509  0.2541
 9533SOL    HW229499   1.287   3.562   2.584  0.2110 -0.1629 -0.0934
 9534SOL     OW29500   4.029   6.568   4.240  0.3244 -0.4015  0.4317
 9534SOL    HW129501   4.066   6.553   4.148 -1.7810  1.0241 -0.7476
 9534SOL    HW229502   3.929   6.571   4.234  0.0606 -1.7548  3.0459
 9535SOL     OW29503   0.192   1.543   4.188  0.2700  0.3557  0.2552
 9535SOL    HW129504   0.245   1.546   4.273 -0.7921 -0.1651  0.9441
 9535SOL    HW229505   0.158   1.450   4.173  1.4111  0.1432 -1.3646
 9536SOL     OW29506   2.796   3.450   5.610  0.1421  0.0439 -0.1666
 9536SOL    HW129507   2.776   3.353   5.599 -0.1019  0.1786 -0.9357
 9536SOL    HW229508   2.712   3.499   5.633 -0.2123  0.4006 -2.0346
 9537SOL     OW29509   1.230   2.451   5.123  0.4901  0.1396 -0.2246
 9537SOL    HW129510   1.246   2.379   5.056  1.2222  0.9081 -0.9008
 9537SOL    HW229511   1.241   2.414   5.215 -0.9073 -1.0147 -0.4947
 9538SOL     OW29512   4.008   6.300   6.202 -0.4226 -0.0843 -0.3833
 9538SOL    HW129513   4.075   6.338   6.265 -1.5941 -1.2145  1.6306
 9538SOL    HW229514   4.001   6.359   6.121  3.1927 -0.1180 -0.8540
 9539SOL     OW29515   3.044   3.395   1.969 -0.4075 -0.2204  0.1584
 9539SOL    HW129516   3.061   3.387   1.871 -1.8724 -0.8957 -0.0733
 9539SOL    HW229517   3.130   3.392   2.019  0.3227 -0.3189 -1.0779
 9540SOL     OW29518   4.205   5.200   1.794 -0.4028  0.2162  0.2502
 9540SOL    HW129519   4.124   5.155   1.833 -1.3584  1.3995 -0.2904
 9540SOL    HW229520   4.286   5.173   1.846 -1.1270 -1.0423  0.7793
 9541SOL     OW29521   1.710   4.991   0.023  0.2309  0.0080  0.4496
 9541SOL    HW129522   1.629   4.987   0.080  0.0004  1.0921  0.2190
 9541SOL    HW229523   1.683   4.992  -0.074  0.4903  0.6389  0.3750
 9542SOL     OW29524   0.372   5.392   2.478  0.4050 -0.1171  0.1279
 9542SOL    HW129525   0.357   5.301   2.518 -1.3961  0.4309  0.8101
 9542SOL    HW229526   0.312   5.404   2.399  1.8877 -0.1265 -1.0367
 9543SOL     OW29527   2.195   0.341   6.489 -0.2638 -0.1786  0.7327
 9543SOL    HW129528   2.197   0.359   6.391 -0.3974  4.0820  1.3080
 9543SOL    HW229529   2.101   0.345   6.523 -0.0363  0.5928  1.3107
 9544SOL     OW29530   1.897   3.222   4.115 -0.1832  0.5234  0.3006
 9544SOL    HW129531   1.944   3.255   4.033 -0.1757  3.3359  1.3341
 9544SOL    HW229532   1.938   3.136   4.145  0.5149 -0.0135 -1.9969
 9545SOL     OW29533   6.007   6.018   2.403  0.0453 -0.2905  0.2270
 9545SOL    HW129534   5.972   5.962   2.328  0.8420  0.1318 -0.4856
 9545SOL    HW229535   5.970   6.111   2.396  0.7853 -0.0101 -0.1767
 9546SOL     OW29536   3.248   3.093   6.263  0.5158 -0.2724  0.4694
 9546SOL    HW129537   3.280   3.187   6.255 -0.7775  0.3342  1.9378
 9546SOL    HW229538   3.149   3.089   6.250  0.5764 -1.4691  0.2126
 9547SOL     OW29539   4.087   1.283   4.322 -0.2775 -0.5045 -0.2479
 9547SOL    HW129540   4.026   1.340   4.268 -0.9523  0.8133  1.8069
 9547SOL    HW229541   4.160   1.339   4.361 -1.1750 -0.8544  2.1468
 9548SOL     OW29542   5.630   6.261   5.911 -0.1338 -0.2541 -0.2241
 9548SOL    HW129543   5.633   6.205   5.829 -1.3483 -0.9464  0.1792
 9548SOL    HW229544   5.579   6.345   5.893  1.2771  0.5247 -0.6975
 9549SOL     OW29545   3.874   1.861   2.595  0.0357  0.1824 -0.0594
 9549SOL    HW129546   3.889   1.873   2.497  0.1432 -0.8539 -0.1764
 9549SOL    HW229547   3.807   1.788   2.611 -0.2350  0.5658  0.6345
 9550SOL     OW29548   5.784   3.348   0.005 -0.3940  0.3530 -0.4224
 9550SOL    HW129549   5.688   3.350   0.032 -0.4234 -2.6555  0.0706
 9550SOL    HW229550   5.841   3.334   0.087  0.3001  0.2270 -0.9156
 9551SOL     OW29551   0.655   2.676   0.305 -0.3028 -0.0804  0.0204
 9551SOL    HW129552   0.642   2.590   0.255 -0.3873  0.3932 -0.7849
 9551SOL    HW229553   0.753   2.700   0.306  0.2117 -1.8257  3.0429
 9552SOL     OW29554   1.499   0.969   6.197 -0.3671  0.3577  0.1327
 9552SOL    HW129555   1.483   0.983   6.294 -2.2441 -0.8075  0.0480
 9552SOL    HW229556   1.438   1.029   6.145 -0.8181 -0.4358 -0.2803
 9553SOL     OW29557   5.488   1.901   6.819 -0.8845 -0.0939 -0.2266
 9553SOL    HW129558   5.410   1.935   6.767 -1.0986 -1.9579 -1.2433
 9553SOL    HW229559   5.485   1.936   6.912 -1.1588  2.3921 -1.1044
 9554SOL     OW29560   3.533   1.665   3.557  0.5438  0.3249  0.6579
 9554SOL    HW129561   3.582   1.748   3.530 -0.1498  0.1099 -1.4552
 9554SOL    HW229562   3.586   1.584   3.529 -0.4191  0.0923 -0.5672
 9555SOL     OW29563   1.131   6.410   3.280  0.2772  0.4672  0.5993
 9555SOL    HW129564   1.196   6.398   3.205 -1.1110  0.7528 -0.7097
 9555SOL    HW229565   1.149   6.343   3.351  0.2568 -1.3490 -1.0160
 9556SOL     OW29566   1.204   2.245   1.004 -0.7255 -0.2700  0.1122
 9556SOL    HW129567   1.224   2.169   1.065  3.8012  1.8188  1.7193
 9556SOL    HW229568   1.233   2.221   0.911  1.0196 -0.5230  0.6693
 9557SOL     OW29569   4.958   0.201   1.201  0.2820  0.7159 -0.1719
 9557SOL    HW129570   4.913   0.165   1.283 -2.0429  1.9070 -0.8314
 9557SOL    HW229571   4.980   0.127   1.139  2.2531 -0.2354  1.5346
 9558SOL     OW29572   3.696   0.047   4.786 -0.4266 -0.6485  0.1596
 9558SOL    HW129573   3.644  -0.010   4.851  0.3329 -0.8060  0.6433
 9558SOL    HW229574   3.673   0.143   4.800 -1.7334 -0.8144 -0.6729
 9559SOL     OW29575   1.421   4.976   0.891  0.4538 -0.3067  0.6710
 9559SOL    HW129576   1.336   4.998   0.844  0.0280 -0.1252  1.5146
 9559SOL    HW229577   1.458   5.059   0.933  1.6686 -0.1280 -0.6470
 9560SOL     OW29578   2.614   0.082   2.659  0.0302  0.6821  0.0153
 9560SOL    HW129579   2.619  -0.011   2.694 -0.8523  0.8685  0.6844
 9560SOL    HW229580   2.541   0.088   2.590  1.3178  0.4684 -1.4037
 9561SOL     OW29581   0.447   1.834   6.024 -0.1929  0.3026  0.1636
 9561SOL    HW129582   0.516   1.872   5.963 -0.2388  0.4680  0.2123
 9561SOL    HW229583   0.464   1.737   6.039 -1.4927 -0.3206 -1.9455
 9562SOL     OW29584   0.698   5.828   2.586 -0.6098 -0.0743  0.0461
 9562SOL    HW129585   0.628   5.782   2.640 -0.4012 -2.2917 -1.4398
 9562SOL    HW229586   0.780   5.841   2.641 -0.4139 -2.2179  0.3573
 9563SOL     OW29587   4.706   0.161   0.019  0.0387 -0.2347 -0.4838
 9563SOL    HW129588   4.609   0.150   0.038  0.4377 -0.7462  1.4449
 9563SOL    HW229589   4.738   0.084  -0.037 -0.3360 -0.9208  0.2322
 9564SOL     OW29590   0.186   0.103   1.632 -0.2317 -0.0997  0.7762
 9564SOL    HW129591   0.224   0.150   1.553 -1.5408 -0.5109 -0.1404
 9564SOL    HW229592   0.095   0.139   1.652 -1.3697 -2.2661 -0.0691
 9565SOL     OW29593   2.782   1.623   3.965  0.0839 -0.0111 -0.6868
 9565SOL    HW129594   2.881   1.614   3.948  0.3440  0.0352  0.6909
 9565SOL    HW229595   2.757   1.719   3.964 -0.3243 -0.0936 -2.8783
 9566SOL     OW29596   1.898   4.618   0.566  0.4068 -0.0542 -0.5221
 9566SOL    HW129597   1.828   4.570   0.619  0.6415 -1.1833 -1.1990
 9566SOL    HW229598   1.948   4.552   0.509  1.1519  0.9173 -1.0254
 9567SOL     OW29599   0.670   3.758   2.777 -0.3747 -0.0251  0.2996
 9567SOL    HW129600   0.707   3.673   2.740 -1.4061  0.0323 -0.9391
 9567SOL    HW229601   0.580   3.741   2.816  0.2990  0.1081  1.9967
 9568SOL     OW29602   4.279   2.105   5.654 -0.2339 -0.3621  0.6066
 9568SOL    HW129603   4.342   2.175   5.621 -0.5882 -0.6074 -0.6656
 9568SOL    HW229604   4.234   2.137   5.737 -0.6641  1.0927 -0.1494
 9569SOL     OW29605   6.574   4.812   3.242  0.4900 -0.4210 -0.2718
 9569SOL    HW129606   6.607   4.863   3.321 -0.2819 -0.4731  0.0939
 9569SOL    HW229607   6.495   4.757   3.268 -0.5233  0.4772 -1.3653
 9570SOL     OW29608   0.255   2.646   2.776 -0.8216  0.2241 -0.5813
 9570SOL    HW129609   0.278   2.736   2.739  0.0237 -0.5737 -2.0882
 9570SOL    HW229610   0.244   2.653   2.875  1.2842  1.6210 -0.3777
 9571SOL     OW29611   6.948   1.027   6.695  0.1626  0.0007 -0.2131
 9571SOL    HW129612   7.008   1.026   6.614  1.3342 -0.4197  0.6436
 9571SOL    HW229613   6.904   0.938   6.705  2.3080 -0.9724  1.2433
 9572SOL     OW29614   3.943   4.894   3.371 -0.0865  0.1679 -0.0212
 9572SOL    HW129615   3.852   4.865   3.402  0.0680 -1.2181 -0.7729
 9572SOL    HW229616   4.004   4.902   3.449 -0.4096 -0.6375  0.3267
 9573SOL     OW29617   5.008   6.249   5.745 -0.2070  0.0648  0.1544
 9573SOL    HW129618   5.033   6.152   5.756 -0.1560  0.3447  4.7879
 9573SOL    HW229619   5.091   6.304   5.737 -0.1869 -0.1473 -1.2715
 9574SOL     OW29620   5.274   4.009   0.637  0.1987  0.0835 -0.7971
 9574SOL    HW129621   5.320   3.923   0.619  1.4510  0.8083 -1.1716
 9574SOL    HW229622   5.190   4.015   0.583 -0.3338 -1.2318 -0.1512
 9575SOL     OW29623   4.550   6.039   2.846 -0.5111  0.0871 -0.3934
 9575SOL    HW129624   4.641   5.997   2.842 -0.2752  0.6531 -2.5256
 9575SOL    HW229625   4.521   6.063   2.753 -2.4650  0.7546  0.3379
 9576SOL     OW29626   0.749   0.147   4.436 -0.1618 -0.7246  0.5644
 9576SOL    HW129627   0.823   0.212   4.418 -0.4682 -0.2899  0.8657
 9576SOL    HW229628   0.749   0.124   4.533 -1.2357  0.2906  0.8289
 9577SOL     OW29629   0.095   4.211   3.563 -0.4393 -0.1534 -0.3094
 9577SOL    HW129630   0.162   4.285   3.570 -0.2178 -0.3745 -0.0743
 9577SOL    HW229631   0.142   4.127   3.536 -1.0279  0.3087 -3.0102
 9578SOL     OW29632   1.810   2.957   0.228  0.2338  0.6126 -0.2092
 9578SOL    HW129633   1.900   2.952   0.185 -0.6881  0.1141 -2.1614
 9578SOL    HW229634   1.773   2.865   0.238 -1.3772  0.9621 -2.4084
 9579SOL     OW29635   0.283   4.975   1.815  0.2343 -0.0972 -0.2534
 9579SOL    HW129636   0.325   4.884   1.806  2.0238  0.2912  2.8223
 9579SOL    HW229637   0.194   4.966   1.859  0.3896 -0.3863  0.0068
 9580SOL     OW29638   6.134   2.713   3.770 -0.0226 -0.6874  0.4930
 9580SOL    HW129639   6.166   2.779   3.702  0.0875 -1.0295  0.2043
 9580SOL    HW229640   6.212   2.665   3.810 -0.1102 -0.7587  0.5785
 9581SOL     OW29641   3.936   1.109   6.680 -0.1229 -0.2076  0.6560
 9581SOL    HW129642   3.968   1.038   6.744  0.6188 -1.3838 -0.9442
 9581SOL    HW229643   3.936   1.072   6.587 -0.8884  1.5539 -0.0875
 9582SOL     OW29644   4.103   5.987   3.046  0.2841 -0.7573 -0.1324
 9582SOL    HW129645   4.201   5.977   3.057  0.3137  0.2926  0.6183
 9582SOL    HW229646   4.072   5.926   2.973  1.5989 -0.5026 -0.9296
 9583SOL     OW29647   0.170   3.914   0.239  0.4883  0.5899 -0.0233
 9583SOL    HW129648   0.074   3.905   0.267 -0.0363 -0.3369 -1.9325
 9583SOL    HW229649   0.185   4.006   0.203  0.9968  1.5605  2.4853
 9584SOL     OW29650   2.382   1.124   5.154 -0.0289  0.1785 -0.0425
 9584SOL    HW129651   2.469   1.078   5.171  0.5931  1.6869  1.1404
 9584SOL    HW229652   2.399   1.209   5.105 -0.7387  0.8530  0.8439
 9585SOL     OW29653   2.710   5.625   3.374 -0.7863 -0.3656 -0.7935
 9585SOL    HW129654   2.696   5.609   3.277 -2.5231  2.3223 -1.0586
 9585SOL    HW229655   2.635   5.680   3.411  0.3690 -0.4002  1.8555
 9586SOL     OW29656   4.072   0.674   2.700 -0.1985  0.2852 -0.0032
 9586SOL    HW129657   3.993   0.623   2.736 -0.8822  0.4287 -1.2282
 9586SOL    HW229658   4.156   0.623   2.720 -0.5224  0.3690  1.7620
 9587SOL     OW29659   4.268   6.161   6.555 -0.5326  0.7648  0.6513
 9587SOL    HW129660   4.301   6.186   6.646  1.6223  0.1205  0.1084
 9587SOL    HW229661   4.288   6.065   6.537 -0.0480  1.1031 -0.8179
 9588SOL     OW29662   4.899   6.213   6.111 -0.5266 -0.1173  0.0103
 9588SOL    HW129663   4.989   6.253   6.130  0.0610 -1.0462 -0.7204
 9588SOL    HW229664   4.887   6.131   6.166  0.0987 -1.3470 -1.6028
 9589SOL     OW29665   3.699   1.461   6.599 -0.2414  0.2651  0.0517
 9589SOL    HW129666   3.696   1.512   6.685 -0.0908 -4.5774  3.3169
 9589SOL    HW229667   3.788   1.473   6.556  1.1284 -0.0209  2.6288
 9590SOL     OW29668   4.958   0.949   1.071 -0.0191  0.5178 -0.2871
 9590SOL    HW129669   4.933   0.891   1.148 -0.9607  1.7444  0.3690
 9590SOL    HW229670   4.988   0.892   0.994 -1.3888 -0.8542  0.1508
 9591SOL     OW29671   5.462   1.451   6.899  0.1442 -0.3464 -0.7387
 9591SOL    HW129672   5.554   1.461   6.936  0.5072 -0.1669 -1.6443
 9591SOL    HW229673   5.453   1.508   6.817 -2.1791  3.2020  1.7154
 9592SOL     OW29674   2.711   6.116   4.982  0.1153 -0.1161 -0.0540
 9592SOL    HW129675   2.657   6.063   5.048 -0.2029  0.5336  0.2149
 9592SOL    HW229676   2.691   6.083   4.890  0.0207 -0.5538  0.1200
 9593SOL     OW29677   6.701   2.082   3.177  0.0985  0.3050 -0.5697
 9593SOL    HW129678   6.612   2.043   3.202  0.2856  0.2509  0.0022
 9593SOL    HW229679   6.686   2.159   3.115 -0.3158 -0.1038 -0.9949
 9594SOL     OW29680   6.733   5.510   3.016 -0.1197 -0.7101  0.6686
 9594SOL    HW129681   6.742   5.608   2.997 -1.5863 -0.5472  0.6863
 9594SOL    HW229682   6.644   5.478   2.983  0.2739 -2.0043  0.8194
 9595SOL     OW29683   0.704   4.862   2.425 -0.0198 -0.4336  0.5059
 9595SOL    HW129684   0.604   4.866   2.429  0.0096  1.8618  0.6428
 9595SOL    HW229685   0.741   4.851   2.517 -0.1309 -0.3692  0.5584
 9596SOL     OW29686   1.010   5.083   1.494  0.5189 -0.3712 -0.2088
 9596SOL    HW129687   0.934   5.046   1.548 -1.0745  0.1916 -1.9376
 9596SOL    HW229688   0.996   5.058   1.398  1.8922  0.7921 -0.7320
 9597SOL     OW29689   1.194   2.157   1.511 -0.8419  0.3066  0.1190
 9597SOL    HW129690   1.107   2.147   1.463 -0.1747 -1.7649 -0.7802
 9597SOL    HW229691   1.207   2.253   1.537 -1.7173  1.3726 -2.9498
 9598SOL     OW29692   1.487   3.318   2.822  0.2870 -0.5644  0.7305
 9598SOL    HW129693   1.516   3.222   2.818 -2.0271 -1.2873 -2.8653
 9598SOL    HW229694   1.392   3.325   2.794  0.0526  2.7596  1.9428
 9599SOL     OW29695   5.989   0.032   3.995  0.3654 -0.2512  0.0191
 9599SOL    HW129696   6.020  -0.034   3.927 -2.0502  0.6994 -2.2111
 9599SOL    HW229697   6.066   0.085   4.029  2.0617 -2.7822  0.3560
 9600SOL     OW29698   4.023   0.998   1.223 -0.1354 -0.8408 -0.4266
 9600SOL    HW129699   3.926   0.998   1.200  0.2869  1.9011 -2.8300
 9600SOL    HW229700   4.036   1.044   1.311 -0.9387  0.2025 -0.8304
 9601SOL     OW29701   0.221   3.489   2.078 -0.2633 -0.3072  0.3289
 9601SOL    HW129702   0.282   3.537   2.141 -0.7382 -1.5084  1.7634
 9601SOL    HW229703   0.201   3.548   1.999  1.4441  0.7115  0.5995
 9602SOL     OW29704   3.673   4.681   6.448  0.0663  0.3567  0.1446
 9602SOL    HW129705   3.730   4.763   6.457 -0.3252  0.5323  1.2079
 9602SOL    HW229706   3.592   4.692   6.505  0.7469 -1.4185  1.5175
 9603SOL     OW29707   5.899   1.839   5.976  0.3627  0.3134 -0.0388
 9603SOL    HW129708   5.990   1.800   5.989  0.6892  1.2737  0.7061
 9603SOL    HW229709   5.830   1.770   5.995  0.9318 -0.2177  0.1291
 9604SOL     OW29710   4.041   0.019   3.022 -0.6344 -0.1875 -0.2496
 9604SOL    HW129711   3.975  -0.054   3.041 -0.9267 -0.5467 -2.4057
 9604SOL    HW229712   3.991   0.105   3.007 -0.3394  0.3309  1.4373
 9605SOL     OW29713   6.242   6.265   1.069  0.1521  0.6547  0.3751
 9605SOL    HW129714   6.283   6.341   1.120 -1.0176  1.0012  0.8415
 9605SOL    HW229715   6.156   6.240   1.112  1.2658 -2.0569  1.2364
 9606SOL     OW29716   0.758   0.610   5.744 -0.3511  0.5740  0.0990
 9606SOL    HW129717   0.829   0.582   5.810  0.1351  2.1553  0.2782
 9606SOL    HW229718   0.668   0.591   5.782 -0.0869  1.7680  1.4039
 9607SOL     OW29719   1.856   1.681   5.551 -0.3236 -0.4016  0.1470
 9607SOL    HW129720   1.762   1.652   5.534 -0.2228 -1.2722  0.9862
 9607SOL    HW229721   1.877   1.761   5.495 -1.5807 -0.1617 -0.0145
 9608SOL     OW29722   4.891   3.230   6.471  0.0556 -0.4755  0.0786
 9608SOL    HW129723   4.893   3.246   6.372 -1.3926 -0.4049  0.0364
 9608SOL    HW229724   4.838   3.148   6.491  1.5723 -1.3482  0.7378
 9609SOL     OW29725   4.273   1.757   1.698  0.5514 -0.1605  0.3779
 9609SOL    HW129726   4.267   1.853   1.722 -3.1559  0.5392 -2.5542
 9609SOL    HW229727   4.250   1.701   1.778 -1.0354  1.5268  1.1635
 9610SOL     OW29728   1.025   3.897   5.725  0.7496 -0.2704 -0.1287
 9610SOL    HW129729   1.076   3.879   5.809 -1.5826 -0.3111  1.3794
 9610SOL    HW229730   0.982   3.987   5.731 -1.0846 -1.0885 -0.3447
 9611SOL     OW29731   1.047   6.649   0.214 -0.4688  0.0070 -0.0395
 9611SOL    HW129732   0.987   6.729   0.216 -1.9310 -0.9653 -1.8918
 9611SOL    HW229733   1.011   6.579   0.276 -0.0737  0.1822  0.3932
 9612SOL     OW29734   0.280   2.036   3.709 -0.0872  0.3780 -0.5090
 9612SOL    HW129735   0.339   1.958   3.728  1.9486  1.8897 -0.1652
 9612SOL    HW229736   0.190   2.021   3.748  0.7856 -1.0443  1.0987
 9613SOL     OW29737   0.508   4.624   3.605 -0.0017  0.3707 -0.4136
 9613SOL    HW129738   0.590   4.678   3.588 -0.9792  2.0624  0.0311
 9613SOL    HW229739   0.521   4.531   3.570  1.6523  0.9319 -1.3786
 9614SOL     OW29740   4.938   1.834   0.185 -0.5248  0.0071 -0.4333
 9614SOL    HW129741   5.021   1.869   0.142  0.2431 -1.8451 -0.5613
 9614SOL    HW229742   4.934   1.735   0.173 -1.3831 -0.3058  1.9199
 9615SOL     OW29743   3.747   5.869   1.926 -0.5763 -0.2524 -0.4522
 9615SOL    HW129744   3.727   5.967   1.928 -2.3428 -0.5631 -1.1843
 9615SOL    HW229745   3.672   5.819   1.970 -0.6782 -1.3925 -1.8698
 9616SOL     OW29746   5.219   3.887   5.460 -0.5250  0.2679  0.6481
 9616SOL    HW129747   5.134   3.837   5.471 -1.0242  0.7775 -0.6013
 9616SOL    HW229748   5.290   3.826   5.425 -1.2580  0.4587 -1.3321
 9617SOL     OW29749   0.986   1.478   2.244 -0.1400 -0.1970 -0.4156
 9617SOL    HW129750   1.068   1.421   2.249 -1.0630 -1.4752  1.9437
 9617SOL    HW229751   1.013   1.574   2.235  1.6347 -0.5732  0.3854
 9618SOL     OW29752   2.580   2.140   1.587 -0.3168 -0.0194  0.2591
 9618SOL    HW129753   2.499   2.092   1.621 -1.0155 -0.0102 -1.3224
 9618SOL    HW229754   2.637   2.166   1.664 -1.5507 -0.4964  1.3810
 9619SOL     OW29755   1.337   1.940   6.713 -0.7165 -0.1406  0.2316
 9619SOL    HW129756   1.239   1.921   6.709 -0.8048  0.4310 -0.8863
 9619SOL    HW229757   1.358   2.014   6.650  0.6232 -1.0767 -0.4681
 9620SOL     OW29758   5.617   1.156   4.650 -0.3056 -0.9712  0.1764
 9620SOL    HW129759   5.672   1.239   4.657  0.2717 -1.2429 -0.9253
 9620SOL    HW229760   5.620   1.121   4.556 -1.6434 -1.4913  0.2995
 9621SOL     OW29761   6.806   1.674   2.503 -0.0437  0.3941  0.0780
 9621SOL    HW129762   6.847   1.649   2.415 -0.8190  1.3361 -0.5724
 9621SOL    HW229763   6.739   1.604   2.529  0.0975  0.1748 -0.1441
 9622SOL     OW29764   4.452   0.290   5.192 -0.0825 -0.0428  0.1424
 9622SOL    HW129765   4.487   0.285   5.098  0.8635  1.5512  0.3740
 9622SOL    HW229766   4.480   0.208   5.242  0.4357 -0.3580 -0.6326
 9623SOL     OW29767   0.329   5.390   0.612 -0.0769 -0.4706 -0.3355
 9623SOL    HW129768   0.231   5.400   0.633  0.1329  0.0553  0.4201
 9623SOL    HW229769   0.364   5.308   0.656 -0.0703 -0.4106 -0.2302
 9624SOL     OW29770   6.669   4.010   2.935 -0.2262  0.1747  0.5187
 9624SOL    HW129771   6.736   4.060   2.991  2.0349 -2.5508  0.4766
 9624SOL    HW229772   6.594   3.979   2.993 -1.3957  2.9518  0.6536
 9625SOL     OW29773   4.233   0.042   2.811  0.0619  0.6025 -0.0904
 9625SOL    HW129774   4.182   0.098   2.747 -1.0809 -0.6721 -0.3522
 9625SOL    HW229775   4.188   0.044   2.900  0.9462  1.3901  0.3474
 9626SOL     OW29776   2.117   0.699   0.502  0.3039 -0.3254  0.0899
 9626SOL    HW129777   2.183   0.629   0.529  1.2611  0.6268  0.2628
 9626SOL    HW229778   2.157   0.758   0.433 -0.2732  0.4157  0.3723
 9627SOL     OW29779   0.900   0.615   5.521 -0.0326 -0.2882 -0.2957
 9627SOL    HW129780   0.993   0.581   5.532 -0.3754 -1.3107 -0.4515
 9627SOL    HW229781   0.854   0.616   5.610 -0.4009 -1.3759 -0.4687
 9628SOL     OW29782   4.946   1.629   3.059  0.7896  0.7951 -0.5682
 9628SOL    HW129783   4.992   1.714   3.085  1.7482  0.4653 -1.1506
 9628SOL    HW229784   4.895   1.643   2.974  0.3550  0.9770 -0.2814
 9629SOL     OW29785   3.115   0.579   2.858 -0.0195 -0.5145  0.3857
 9629SOL    HW129786   3.159   0.542   2.941  0.9803 -0.1857  0.0196
 9629SOL    HW229787   3.178   0.642   2.813 -1.9863  2.3970  1.4592
 9630SOL     OW29788   6.181   3.877   5.962  0.4734  0.5044 -0.4621
 9630SOL    HW129789   6.106   3.864   5.897  1.5087 -2.7401 -1.1656
 9630SOL    HW229790   6.265   3.898   5.913  1.0820 -1.1152 -0.1721
 9631SOL     OW29791   1.072   5.075   0.961 -0.0458  0.6043  0.3369
 9631SOL    HW129792   1.001   5.144   0.978 -0.5771 -0.1852  1.4596
 9631SOL    HW229793   1.108   5.043   1.048  0.7973  0.0724 -0.2002
 9632SOL     OW29794   6.736   6.413   2.285 -0.4558 -0.0638  0.0342
 9632SOL    HW129795   6.703   6.353   2.358 -1.1844 -0.8428 -0.9038
 9632SOL    HW229796   6.661   6.467   2.248  0.3721  2.3040  1.5766
 9633SOL     OW29797   0.004   0.111   5.363 -0.1713  0.1033 -0.0106
 9633SOL    HW129798  -0.077   0.058   5.389 -1.2022  1.7633  0.2952
 9633SOL    HW229799   0.083   0.050   5.357 -1.3197 -1.4747  0.2114
 9634SOL     OW29800   6.763   6.832   6.769 -0.4805 -0.0827 -0.3218
 9634SOL    HW129801   6.821   6.882   6.833 -1.5575  0.2478  0.4328
 9634SOL    HW229802   6.743   6.741   6.805  0.2161 -0.5088 -0.9684
 9635SOL     OW29803   6.545   4.817   5.104 -0.3746  0.6071 -0.6217
 9635SOL    HW129804   6.607   4.887   5.139  0.6861 -0.3145 -0.6036
 9635SOL    HW229805   6.511   4.761   5.179  1.3173 -0.9001 -0.9112
 9636SOL     OW29806   4.454   2.465   0.302  0.2542  0.0236 -0.1314
 9636SOL    HW129807   4.393   2.532   0.346  0.6485 -0.0006  0.4577
 9636SOL    HW229808   4.541   2.463   0.350  0.4320 -0.5370 -0.4758
 9637SOL     OW29809   1.839   0.080   0.632 -0.2315 -0.4012  0.1284
 9637SOL    HW129810   1.835  -0.016   0.658  0.0123 -0.6667 -0.7714
 9637SOL    HW229811   1.761   0.129   0.671 -0.1612 -0.8868  0.8845
 9638SOL     OW29812   6.295   1.099   5.718 -0.1651  0.1452  0.1025
 9638SOL    HW129813   6.336   1.132   5.803  0.1251  1.0911 -0.3902
 9638SOL    HW229814   6.201   1.131   5.711 -0.4064 -0.4847  0.3648
 9639SOL     OW29815   3.573   1.472   1.328  0.7621 -0.0350 -0.5851
 9639SOL    HW129816   3.546   1.376   1.328  0.9565 -0.1188  0.8737
 9639SOL    HW229817   3.494   1.528   1.353  0.3512  0.3191 -2.5219
 9640SOL     OW29818   2.017   1.298   3.129 -0.5524 -0.1943  0.2173
 9640SOL    HW129819   2.068   1.383   3.116 -1.4138  0.1428 -1.1504
 9640SOL    HW229820   2.081   1.221   3.134  0.2080  0.4580  1.0062
 9641SOL     OW29821   4.846   5.393   5.914  0.1501 -0.0056 -1.0592
 9641SOL    HW129822   4.878   5.306   5.877 -1.2465 -0.8641 -0.3236
 9641SOL    HW229823   4.880   5.404   6.007  0.5708  0.4003 -1.2530
 9642SOL     OW29824   4.429   0.888   4.422 -0.0811 -0.5176  0.0535
 9642SOL    HW129825   4.513   0.892   4.475 -0.3532 -0.4791  0.4894
 9642SOL    HW229826   4.448   0.911   4.327  0.1342  0.9970  0.4485
 9643SOL     OW29827   5.293   3.693   3.425  0.6190 -0.2657 -0.8351
 9643SOL    HW129828   5.278   3.596   3.402 -1.0460 -0.4266  0.7248
 9643SOL    HW229829   5.357   3.699   3.501 -0.2960 -0.2545 -0.0440
 9644SOL     OW29830   3.675   0.522   6.632 -0.3997  0.8354  0.1759
 9644SOL    HW129831   3.616   0.481   6.563 -0.3785  1.5309 -0.2661
 9644SOL    HW229832   3.622   0.585   6.688 -0.1962  1.0566  0.1236
 9645SOL     OW29833   3.025   5.358   5.573  0.3165 -0.1872 -0.9972
 9645SOL    HW129834   2.930   5.379   5.598  0.2660 -0.3675 -1.0378
 9645SOL    HW229835   3.034   5.260   5.555  1.0597 -0.6467  1.4779
 9646SOL     OW29836   1.694   5.780   3.871  0.3204 -0.0309  0.8278
 9646SOL    HW129837   1.637   5.788   3.952  0.7682 -1.3915  1.3057
 9646SOL    HW229838   1.639   5.748   3.794 -0.7841  3.9651 -0.2841
 9647SOL     OW29839   5.100   1.531   5.430  0.1073  0.5216 -0.5265
 9647SOL    HW129840   5.186   1.489   5.401  0.1083 -0.1887  0.4638
 9647SOL    HW229841   5.053   1.470   5.494 -0.5155  1.4712 -0.0627
 9648SOL     OW29842   4.267   3.030   1.472  0.4518  0.4794 -0.3086
 9648SOL    HW129843   4.254   3.052   1.375  1.9444 -0.8045 -0.8362
 9648SOL    HW229844   4.240   3.109   1.527 -1.5723  0.8227 -1.6684
 9649SOL     OW29845   2.222   3.944   1.241  0.1051  0.8941  0.3510
 9649SOL    HW129846   2.175   3.964   1.155  1.5555  0.3380 -0.6309
 9649SOL    HW229847   2.173   3.873   1.290  1.0890 -1.4563 -1.8165
 9650SOL     OW29848   1.833   1.253   2.124 -0.2339  0.2479 -0.4007
 9650SOL    HW129849   1.877   1.178   2.173 -0.0982 -0.5126 -1.6394
 9650SOL    HW229850   1.742   1.223   2.093 -0.4559  0.8287 -0.3159
 9651SOL     OW29851   6.192   3.495   6.846  0.5044  0.2971  0.2104
 9651SOL    HW129852   6.207   3.397   6.837  0.5765  0.2467  0.8457
 9651SOL    HW229853   6.095   3.512   6.867  0.5682  0.3366  0.4744
 9652SOL     OW29854   1.059   5.903   2.101  0.0952 -0.5534 -0.1105
 9652SOL    HW129855   1.154   5.873   2.114 -0.4050 -1.7716  0.8813
 9652SOL    HW229856   1.019   5.928   2.189 -0.1499  1.1936 -0.6631
 9653SOL     OW29857   5.971   6.164   5.591  0.4583  0.0682 -0.3986
 9653SOL    HW129858   6.066   6.191   5.605  0.8514 -0.1315 -2.4211
 9653SOL    HW229859   5.953   6.077   5.637  0.7219  0.9793  1.5068
 9654SOL     OW29860   1.833   2.035   2.359 -0.0623 -0.3737  0.0343
 9654SOL    HW129861   1.905   1.995   2.302  0.9034 -0.6497  1.3993
 9654SOL    HW229862   1.846   2.006   2.454 -2.5507 -1.2526  0.1875
 9655SOL     OW29863   5.167   1.319   1.893  0.0371  0.5829  0.3111
 9655SOL    HW129864   5.163   1.232   1.942 -1.6925  0.9968  0.9922
 9655SOL    HW229865   5.155   1.395   1.957  0.5414  1.2860 -0.3989
 9656SOL     OW29866   2.126   0.906   3.694 -0.3520  0.2491  0.7704
 9656SOL    HW129867   2.186   0.838   3.651 -0.2950  0.2084  0.9125
 9656SOL    HW229868   2.175   0.992   3.705 -1.3295  1.3295 -2.2281
 9657SOL     OW29869   1.020   0.030   5.006 -0.3804  0.2833  0.2238
 9657SOL    HW129870   1.105  -0.022   5.008 -1.8697 -2.5085 -2.0155
 9657SOL    HW229871   1.018   0.088   4.925 -0.6630  0.2499  0.2055
 9658SOL     OW29872   4.923   1.201   3.002  0.2346  0.1803 -0.6990
 9658SOL    HW129873   4.943   1.187   2.905  0.1624 -0.1668 -0.6647
 9658SOL    HW229874   5.007   1.227   3.050  0.4688 -0.5748 -0.6856
 9659SOL     OW29875   1.780   3.264   6.292 -0.0108  0.1889  0.2157
 9659SOL    HW129876   1.705   3.207   6.325 -0.1561  0.5566  0.5186
 9659SOL    HW229877   1.810   3.231   6.202  0.0008 -0.4539  0.4496
 9660SOL     OW29878   0.905   4.010   1.319  0.3166  0.4912 -0.2316
 9660SOL    HW129879   0.964   3.972   1.247  1.3996  0.7766  0.4918
 9660SOL    HW229880   0.918   4.109   1.324 -0.1083  0.5362  0.0463
 9661SOL     OW29881   4.711   2.737   2.026 -0.1182  0.5177  0.2033
 9661SOL    HW129882   4.653   2.690   1.960 -2.2600  0.4896  1.9529
 9661SOL    HW229883   4.699   2.836   2.017  0.6206  0.5644 -0.3058
 9662SOL     OW29884   6.478   2.586   2.504  0.8563 -0.4713 -0.1344
 9662SOL    HW129885   6.553   2.549   2.450  0.7971 -2.0596  0.8108
 9662SOL    HW229886   6.513   2.621   2.591  0.5443 -0.8891  0.1590
 9663SOL     OW29887   3.229   5.295   4.317  0.1764 -0.2423 -0.7462
 9663SOL    HW129888   3.318   5.252   4.303 -0.2047 -1.1026 -0.6559
 9663SOL    HW229889   3.171   5.233   4.371 -1.3006 -0.8280 -2.8489
 9664SOL     OW29890   2.910   6.282   3.179  0.4188  0.6643  0.5398
 9664SOL    HW129891   2.957   6.276   3.268  0.2627 -1.2431  0.5476
 9664SOL    HW229892   2.813   6.264   3.192  0.3844  0.4497 -0.0003
 9665SOL     OW29893   6.988   4.649   4.908 -0.1166 -0.3243 -0.1911
 9665SOL    HW129894   6.967   4.589   4.985 -0.7437 -0.4984 -0.4905
 9665SOL    HW229895   6.920   4.722   4.904  0.4849  0.2624  0.0082
 9666SOL     OW29896   5.665   4.889   4.939 -0.2840  0.1580  0.0070
 9666SOL    HW129897   5.651   4.913   5.035 -0.2128 -1.3404  0.4167
 9666SOL    HW229898   5.716   4.803   4.933 -0.1808  0.2903 -1.3807
 9667SOL     OW29899   3.935   4.027   4.282  0.4376  0.0731  0.5803
 9667SOL    HW129900   3.862   4.046   4.348  1.0833 -0.5177  1.4825
 9667SOL    HW229901   3.956   4.111   4.231 -0.4747  0.3901  0.7029
 9668SOL     OW29902   6.619   1.409   4.867 -0.2852  0.1081 -0.0608
 9668SOL    HW129903   6.526   1.373   4.852 -0.0914  0.0826 -1.2896
 9668SOL    HW229904   6.668   1.348   4.929 -1.1157  0.1594  0.6557
 9669SOL     OW29905   1.116   6.850   1.739  0.3988 -0.3839 -0.0774
 9669SOL    HW129906   1.154   6.857   1.832  0.6786  0.2611 -0.2354
 9669SOL    HW229907   1.154   6.923   1.682  1.1053 -1.4570 -1.0124
 9670SOL     OW29908   6.001   4.073   4.826  0.6569  0.2816  0.4257
 9670SOL    HW129909   5.934   4.066   4.901  0.0052 -1.0614 -0.2486
 9670SOL    HW229910   5.972   4.014   4.751  2.3039  0.1442 -0.1225
 9671SOL     OW29911   0.777   0.155   0.467 -0.5518 -0.1815  0.3207
 9671SOL    HW129912   0.762   0.155   0.368 -0.7692  0.5143  0.3514
 9671SOL    HW229913   0.782   0.060   0.499  0.7989 -0.4280 -0.5413
 9672SOL     OW29914   0.993   1.065   5.651  0.0170  0.4819 -0.0749
 9672SOL    HW129915   0.972   1.124   5.729  1.6485  1.3034 -0.2242
 9672SOL    HW229916   1.084   1.086   5.616 -0.5177 -0.1118 -1.9880
 9673SOL     OW29917   3.321   1.535   7.022  0.3344 -0.3926 -0.2098
 9673SOL    HW129918   3.263   1.614   7.002  1.4992  0.6498  0.3795
 9673SOL    HW229919   3.416   1.564   7.024  0.6776 -1.5114  1.4747
 9674SOL     OW29920   3.731   5.322   2.628  0.2034  0.2598  0.4228
 9674SOL    HW129921   3.825   5.343   2.653  0.9803 -2.0910 -0.3120
 9674SOL    HW229922   3.729   5.268   2.545 -1.8283  0.4130  0.3132
 9675SOL     OW29923   5.448   2.806   2.164  0.3540  0.1938 -0.3269
 9675SOL    HW129924   5.385   2.883   2.156  1.6054  1.1997 -0.7757
 9675SOL    HW229925   5.436   2.745   2.086  1.5112  1.6075 -1.6582
 9676SOL     OW29926   0.822   1.868   4.564  0.3904  0.0197  0.1480
 9676SOL    HW129927   0.884   1.932   4.518  1.7959 -1.0874  0.3884
 9676SOL    HW229928   0.745   1.847   4.504  0.7145  0.7661 -0.5439
 9677SOL     OW29929   0.256   4.841   5.064  0.3738 -0.3577  0.1942
 9677SOL    HW129930   0.177   4.891   5.030  1.6755  0.1674 -2.2804
 9677SOL    HW229931   0.252   4.746   5.033  0.5956 -0.3866  0.2511
 9678SOL     OW29932   4.036   3.660   3.039 -0.0356 -0.0214  0.2550
 9678SOL    HW129933   4.106   3.729   3.024 -1.7739  1.5587 -1.0657
 9678SOL    HW229934   4.058   3.578   2.987  1.6329 -0.1992  1.1838
 9679SOL     OW29935   0.202   3.079   2.012 -0.2281 -0.2501  0.0068
 9679SOL    HW129936   0.230   3.012   1.944 -0.7439 -0.8956  0.4137
 9679SOL    HW229937   0.283   3.121   2.053  0.0936 -0.4416 -0.4261
 9680SOL     OW29938   5.999   4.899   3.098 -0.2784 -0.1875 -0.2765
 9680SOL    HW129939   6.098   4.894   3.083 -0.2746  1.0001 -0.7392
 9680SOL    HW229940   5.952   4.875   3.013 -0.3707 -0.0202 -0.2734
 9681SOL     OW29941   1.642   0.441   4.077  0.2957 -0.0689  0.4198
 9681SOL    HW129942   1.720   0.413   4.134  0.1208 -2.4080 -0.3882
 9681SOL    HW229943   1.672   0.451   3.982 -0.0961  0.5283  0.3522
 9682SOL     OW29944   6.188   4.110   1.859 -0.3935  0.4715 -0.2319
 9682SOL    HW129945   6.146   4.186   1.809 -1.0053  1.4476  1.6857
 9682SOL    HW229946   6.226   4.144   1.945  1.6285 -0.9586 -0.5041
 9683SOL     OW29947   3.000   1.114   4.801 -0.1206 -0.0007  0.2715
 9683SOL    HW129948   3.023   1.197   4.853  0.8967 -0.2435  0.2151
 9683SOL    HW229949   3.083   1.067   4.773 -0.6647 -0.3521 -0.8384
 9684SOL     OW29950   1.627   3.707   4.000 -0.3151  0.2045 -0.3101
 9684SOL    HW129951   1.552   3.675   4.058  0.9927  0.1106  1.4520
 9684SOL    HW229952   1.649   3.637   3.932 -1.3332 -0.0759 -0.3605
 9685SOL     OW29953   1.589   1.255   6.813 -0.7491 -0.0372 -0.2633
 9685SOL    HW129954   1.661   1.321   6.794 -0.6000  0.5252  2.0349
 9685SOL    HW229955   1.509   1.302   6.852 -0.7350 -1.1420  1.1740
 9686SOL     OW29956   4.635   3.464   1.563 -0.1976  0.1468  0.8975
 9686SOL    HW129957   4.652   3.484   1.466 -0.5062  1.1703  1.0432
 9686SOL    HW229958   4.584   3.378   1.570  0.7295 -0.4799  0.2210
 9687SOL     OW29959   2.903   1.736   4.722 -0.2769  0.3053 -0.3184
 9687SOL    HW129960   2.921   1.657   4.664  2.3013 -0.3531  1.1829
 9687SOL    HW229961   2.891   1.705   4.817 -3.5675  1.4141 -0.2317
 9688SOL     OW29962   6.770   0.064   4.836 -0.0585 -0.7346 -0.3780
 9688SOL    HW129963   6.772   0.153   4.790 -2.0312 -1.2924 -1.6640
 9688SOL    HW229964   6.792  -0.008   4.771  1.4427 -1.2555  0.6352
 9689SOL     OW29965   2.075   4.243   5.700  0.1607 -0.3936 -0.8950
 9689SOL    HW129966   2.020   4.322   5.726  1.2020  0.3979 -1.0164
 9689SOL    HW229967   2.139   4.269   5.628  0.6314 -1.3032 -0.8192
 9690SOL     OW29968   5.551   4.613   0.814 -0.7259 -1.1603  0.4334
 9690SOL    HW129969   5.469   4.637   0.763  0.5816 -0.0109 -1.2632
 9690SOL    HW229970   5.608   4.694   0.827 -0.0947 -1.8105  2.0694
 9691SOL     OW29971   2.247   5.555   1.140  0.2798 -0.3914 -0.4175
 9691SOL    HW129972   2.228   5.486   1.210 -1.4591  0.9902  0.5663
 9691SOL    HW229973   2.215   5.644   1.172  0.2938  0.4581 -2.6067
 9692SOL     OW29974   2.229   5.240   0.779  0.0140 -0.4809 -0.2152
 9692SOL    HW129975   2.224   5.311   0.849  0.3289 -2.0465  1.4605
 9692SOL    HW229976   2.285   5.272   0.703 -0.7133  1.4358  0.0072
 9693SOL     OW29977   5.517   0.207   0.882 -0.4603  0.4005  0.1950
 9693SOL    HW129978   5.582   0.222   0.808 -2.3018  0.0394 -1.5763
 9693SOL    HW229979   5.522   0.112   0.912 -1.0765  0.0215 -0.8656
 9694SOL     OW29980   6.603   1.551   0.495 -0.2840 -0.2691 -0.2005
 9694SOL    HW129981   6.568   1.543   0.402 -0.7021 -1.1872  0.0245
 9694SOL    HW229982   6.687   1.499   0.504  0.6346  1.1229 -0.4740
 9695SOL     OW29983   0.476   5.055   6.676 -0.7416 -0.9647  0.5297
 9695SOL    HW129984   0.407   5.050   6.604 -0.4687 -0.1672  0.2069
 9695SOL    HW229985   0.434   5.089   6.761 -1.0260 -1.7461  0.7065
 9696SOL     OW29986   2.579   3.013   6.197  0.3057  0.1230 -0.2792
 9696SOL    HW129987   2.679   3.006   6.198  0.3951  1.1794 -0.8153
 9696SOL    HW229988   2.551   3.096   6.245 -0.2659  0.3171 -0.9396
 9697SOL     OW29989   0.501   5.552   5.795  0.1355 -0.6035  0.1591
 9697SOL    HW129990   0.420   5.503   5.828 -1.1536  1.9686  1.0562
 9697SOL    HW229991   0.557   5.580   5.873 -0.4087  1.3414 -0.0988
 9698SOL     OW29992   4.907   1.256   4.535  0.1858  0.0418  0.3063
 9698SOL    HW129993   4.973   1.195   4.580 -1.2630 -0.8610  1.3185
 9698SOL    HW229994   4.941   1.282   4.445  0.6421 -2.7615 -0.4278
 9699SOL     OW29995   1.736   1.753   5.263  0.5976 -0.8939 -0.1500
 9699SOL    HW129996   1.660   1.752   5.198 -1.4983  0.4508  2.0826
 9699SOL    HW229997   1.777   1.662   5.269 -0.3215 -1.4647 -1.9757
 9700SOL     OW29998   3.937   3.910   3.246 -0.4225  0.6099  0.1058
 9700SOL    HW129999   4.003   3.842   3.277 -0.2209  0.8152  0.1223
 9700SOL    HW230000   3.948   3.925   3.147 -2.1004 -1.2203 -0.4329
 9701SOL     OW30001   3.845   4.434   5.725  0.3811 -0.0060 -0.1057
 9701SOL    HW130002   3.930   4.408   5.679  1.8280  1.6682  1.4571
 9701SOL    HW230003   3.841   4.389   5.814  1.0211  1.9674  0.9708
 9702SOL     OW30004   6.607   1.805   0.617  0.0682  0.1227  0.7628
 9702SOL    HW130005   6.622   1.712   0.585 -0.2034 -0.1637  1.4656
 9702SOL    HW230006   6.657   1.820   0.703  0.7354  0.8659  0.2639
 9703SOL     OW30007   0.757   6.071   5.326  0.4423  0.2134 -0.0295
 9703SOL    HW130008   0.842   6.124   5.329 -0.2801  1.3228  1.5579
 9703SOL    HW230009   0.701   6.093   5.405 -0.2762 -2.3253  0.2410
 9704SOL     OW30010   2.433   1.864   3.745  1.1501  1.4132  0.5558
 9704SOL    HW130011   2.434   1.930   3.821  2.3679  1.1114  0.8296
 9704SOL    HW230012   2.467   1.776   3.778 -0.0574  0.7606  0.0884
 9705SOL     OW30013   3.950   2.907   5.879 -0.0880  0.1686 -0.0884
 9705SOL    HW130014   3.917   2.843   5.810 -2.1465  1.1940 -0.1621
 9705SOL    HW230015   4.000   2.982   5.835 -1.6291  0.9647 -0.5722
 9706SOL     OW30016   5.470   3.692   3.633  0.1617  0.5827  0.4757
 9706SOL    HW130017   5.486   3.626   3.707  0.6152  1.2997  1.0275
 9706SOL    HW230018   5.549   3.694   3.572  0.4991  1.2029  0.9241
 9707SOL     OW30019   1.560   5.743   1.941 -0.5030  0.2933 -0.1305
 9707SOL    HW130020   1.537   5.817   1.878 -0.0876 -1.7069 -2.8054
 9707SOL    HW230021   1.507   5.662   1.917 -0.0146 -0.6842  1.8931
 9708SOL     OW30022   1.572   1.627   1.016  0.4627 -0.6950  0.6338
 9708SOL    HW130023   1.665   1.660   1.031  0.5066 -0.1725 -0.7187
 9708SOL    HW230024   1.530   1.604   1.105  1.6708 -0.4133  1.2948
 9709SOL     OW30025   1.028   1.215   3.642 -0.1156  0.1217 -0.2843
 9709SOL    HW130026   0.941   1.221   3.690 -0.3341 -2.3767 -0.2241
 9709SOL    HW230027   1.014   1.229   3.544 -0.6921 -0.7199 -0.3338
 9710SOL     OW30028   2.748   0.707   3.111 -0.4945  0.2695  0.2447
 9710SOL    HW130029   2.780   0.674   3.022  1.5135  3.1356 -0.2379
 9710SOL    HW230030   2.801   0.664   3.184  0.6475  0.8693 -0.2192
 9711SOL     OW30031   0.828   3.243   0.790  0.4077  0.4787 -0.4327
 9711SOL    HW130032   0.780   3.245   0.702 -0.0892 -0.4060 -0.2022
 9711SOL    HW230033   0.847   3.148   0.815  1.9039  0.7891 -0.2943
 9712SOL     OW30034   5.654   3.499   4.804 -0.3372  0.0806 -0.4502
 9712SOL    HW130035   5.741   3.481   4.757 -0.4825  2.2674 -1.6550
 9712SOL    HW230036   5.622   3.414   4.847  2.7937 -0.6181  0.7666
 9713SOL     OW30037   1.993   4.127   2.907 -0.2090 -0.1883 -0.0158
 9713SOL    HW130038   2.019   4.031   2.895  0.0078 -0.6058  3.0929
 9713SOL    HW230039   2.027   4.180   2.830 -0.1722 -2.5398 -1.7361
 9714SOL     OW30040   3.350   0.249   2.106 -0.2284 -0.3083 -0.3366
 9714SOL    HW130041   3.352   0.315   2.031 -2.8326 -1.3879 -1.4522
 9714SOL    HW230042   3.442   0.239   2.143  0.3658  3.6414 -0.3248
 9715SOL     OW30043   0.359   6.403   0.893  0.6007  0.2154  0.0911
 9715SOL    HW130044   0.315   6.385   0.806  0.3998 -1.0862  0.4344
 9715SOL    HW230045   0.387   6.499   0.898  1.1315  0.1816 -1.6279
 9716SOL     OW30046   3.612   1.291   5.605 -0.1309  0.3630  0.1927
 9716SOL    HW130047   3.688   1.342   5.565  0.9750 -1.5325 -0.2655
 9716SOL    HW230048   3.567   1.239   5.533 -0.8222  0.1847  0.7490
 9717SOL     OW30049   5.895   3.919   3.354 -0.5249 -0.3762 -0.2182
 9717SOL    HW130050   5.953   3.957   3.426  1.2947  2.4314 -2.9064
 9717SOL    HW230051   5.950   3.863   3.292 -1.1406  0.4095 -1.5237
 9718SOL     OW30052   5.658   4.038   1.155 -0.3083  0.2285  0.3822
 9718SOL    HW130053   5.670   3.995   1.245 -1.2378  1.4924  1.1313
 9718SOL    HW230054   5.748   4.052   1.114  0.0814 -1.3149  0.6307
 9719SOL     OW30055   0.118   6.929   2.012  0.2894 -0.1279  0.4136
 9719SOL    HW130056   0.187   6.976   1.956 -2.0875  0.3796 -2.3332
 9719SOL    HW230057   0.074   6.995   2.073  0.6915  0.0209  0.5483
 9720SOL     OW30058   0.403   0.590   1.369 -0.4706 -0.2227  0.3736
 9720SOL    HW130059   0.473   0.520   1.360 -0.9697 -0.7621  0.5877
 9720SOL    HW230060   0.322   0.550   1.412 -0.6899  0.5354  0.6785
 9721SOL     OW30061   0.463   1.803   2.240 -0.1348 -0.9262  0.3474
 9721SOL    HW130062   0.534   1.858   2.282  0.2454 -1.9970  1.1611
 9721SOL    HW230063   0.465   1.710   2.278 -1.2224 -1.3066 -0.4432
 9722SOL     OW30064   0.250   6.486   5.422 -0.3908  0.0088  0.4052
 9722SOL    HW130065   0.192   6.563   5.449 -1.4303 -0.7109  0.3133
 9722SOL    HW230066   0.344   6.516   5.414 -0.5454  0.9564  1.7529
 9723SOL     OW30067   5.940   6.070   3.294 -0.0928 -0.3464  0.0762
 9723SOL    HW130068   5.847   6.034   3.287  0.0372 -0.7213  0.2027
 9723SOL    HW230069   5.999   5.998   3.332  0.0355  0.2213  0.9878
 9724SOL     OW30070   6.093   3.059   0.339 -0.0613  0.0206 -0.0112
 9724SOL    HW130071   6.170   3.025   0.392  0.6724  0.4015 -0.8038
 9724SOL    HW230072   6.021   2.989   0.335  1.0102 -1.0951 -0.8025
 9725SOL     OW30073   3.311   3.718   3.280 -0.7776 -0.2457 -0.3545
 9725SOL    HW130074   3.291   3.746   3.374 -2.3463  0.5417 -0.8807
 9725SOL    HW230075   3.252   3.768   3.217 -0.1641 -1.1801 -1.7333
 9726SOL     OW30076   4.453   5.009   5.043 -1.1983  0.6880  0.1445
 9726SOL    HW130077   4.358   5.033   5.024 -1.6270 -0.3590  0.8905
 9726SOL    HW230078   4.459   4.913   5.070 -0.1801  1.1823  1.8534
 9727SOL     OW30079   3.000   0.007   5.604 -0.1697 -0.2275  0.3233
 9727SOL    HW130080   2.913  -0.003   5.556 -0.1679  0.4190  0.1786
 9727SOL    HW230081   3.026  -0.081   5.645 -0.8952 -0.4147  0.3848
 9728SOL     OW30082   1.475   5.904   6.635  0.0181  0.2120 -0.1674
 9728SOL    HW130083   1.384   5.941   6.658 -0.3443 -1.5077  1.3857
 9728SOL    HW230084   1.464   5.827   6.572  0.1969 -1.0884  1.3296
 9729SOL     OW30085   5.297   5.225   3.584  0.2597 -0.0169 -0.2770
 9729SOL    HW130086   5.323   5.136   3.621  0.3691  0.1849  0.1475
 9729SOL    HW230087   5.372   5.290   3.600  0.3405  0.0541 -0.9348
 9730SOL     OW30088   5.874   5.616   3.891 -0.3366  0.4134 -0.1481
 9730SOL    HW130089   5.870   5.716   3.891  0.8703  0.4861 -0.9891
 9730SOL    HW230090   5.892   5.583   3.798 -2.2553 -0.6918 -0.2007
 9731SOL     OW30091   4.609   6.088   0.911 -0.3900 -0.1100 -0.3480
 9731SOL    HW130092   4.596   6.184   0.887 -1.3068  0.2224  1.3258
 9731SOL    HW230093   4.521   6.041   0.913 -0.0157 -0.8509 -0.5394
 9732SOL     OW30094   3.370   6.290   2.643  0.5899 -0.3124 -0.2809
 9732SOL    HW130095   3.280   6.270   2.682  1.2178 -1.5479  0.6065
 9732SOL    HW230096   3.363   6.295   2.543 -0.6659  0.8523 -0.1643
 9733SOL     OW30097   6.244   4.008   5.620 -0.5404 -0.5227  0.6745
 9733SOL    HW130098   6.144   4.001   5.614 -0.4742 -0.2819 -1.1167
 9733SOL    HW230099   6.286   3.941   5.558  0.3584  1.1853 -0.6330
 9734SOL     OW30100   0.860   1.294   6.776  0.6609  0.7364 -0.1915
 9734SOL    HW130101   0.923   1.348   6.720 -0.8011  0.9273 -1.7168
 9734SOL    HW230102   0.810   1.355   6.837 -0.1386  0.9908 -1.0771
 9735SOL     OW30103   2.891   5.557   0.508  0.4118  0.1785 -0.1085
 9735SOL    HW130104   2.912   5.472   0.460 -1.7982  0.2092 -1.2808
 9735SOL    HW230105   2.899   5.634   0.445 -1.0144  0.4057 -0.0446
 9736SOL     OW30106   3.393   1.804   1.883 -0.4331 -0.9467  0.0588
 9736SOL    HW130107   3.430   1.896   1.873  0.6975 -1.3274  0.5467
 9736SOL    HW230108   3.444   1.741   1.824 -1.8599 -1.1231 -1.0614
 9737SOL     OW30109   3.527   6.943   5.770 -0.0183 -0.0635 -0.1972
 9737SOL    HW130110   3.608   6.886   5.784  0.9678  1.6983  1.8365
 9737SOL    HW230111   3.551   7.039   5.782 -2.2897  0.5779 -0.2986
 9738SOL     OW30112   2.367   0.775   1.323 -0.3025  0.6076  0.9315
 9738SOL    HW130113   2.282   0.828   1.324 -0.5842  0.3295 -1.6397
 9738SOL    HW230114   2.445   0.836   1.336 -0.7826  1.1163  1.5186
 9739SOL     OW30115   5.425   5.056   2.963  0.0742  0.3290 -0.0619
 9739SOL    HW130116   5.417   5.142   3.014  0.1051 -0.5238  1.4427
 9739SOL    HW230117   5.519   5.045   2.932 -0.5300  2.2319 -2.9094
 9740SOL     OW30118   6.477   2.029   3.704  0.1870 -0.0928  0.3732
 9740SOL    HW130119   6.564   1.997   3.666 -0.6315 -1.9793 -0.0612
 9740SOL    HW230120   6.477   2.015   3.803  0.5552  0.3722  0.4405
 9741SOL     OW30121   2.503   2.369   2.968 -0.6048  0.0731  0.0946
 9741SOL    HW130122   2.458   2.425   3.037  0.0867  1.5971 -0.6577
 9741SOL    HW230123   2.468   2.275   2.973 -3.1716  0.9717  0.1520
 9742SOL     OW30124   3.825   1.862   3.799  0.2527 -0.4691 -0.0784
 9742SOL    HW130125   3.836   1.956   3.830  0.0196 -0.2124 -0.7628
 9742SOL    HW230126   3.743   1.822   3.840 -0.5850  0.1752 -1.0699
 9743SOL     OW30127   2.172   1.491   5.339 -0.7186  0.2785 -0.0695
 9743SOL    HW130128   2.173   1.547   5.256  0.0126  0.1788 -0.1367
 9743SOL    HW230129   2.102   1.420   5.331 -1.1700  0.7377 -0.2797
 9744SOL     OW30130   2.534   6.365   0.973  0.3200 -0.0516  0.2278
 9744SOL    HW130131   2.506   6.312   0.892  0.4706 -1.2550  0.9334
 9744SOL    HW230132   2.574   6.452   0.944  1.1419 -0.8178 -1.0374
 9745SOL     OW30133   6.927   2.565   6.162 -0.5618 -0.0135  0.0563
 9745SOL    HW130134   6.858   2.502   6.126  1.0066 -1.5099 -0.4515
 9745SOL    HW230135   6.992   2.588   6.090  0.4910 -0.0555  0.9713
 9746SOL     OW30136   0.349   5.378   5.083 -0.0312  0.0798  0.5801
 9746SOL    HW130137   0.307   5.397   4.995  1.6122 -1.0386 -0.4982
 9746SOL    HW230138   0.361   5.279   5.094  3.8764  0.3353 -0.0434
 9747SOL     OW30139   6.598   6.545   5.507 -0.6053  0.1662  0.0308
 9747SOL    HW130140   6.653   6.510   5.583 -0.8330 -2.7002 -0.9831
 9747SOL    HW230141   6.655   6.601   5.448 -0.1837  1.6222  1.7288
 9748SOL     OW30142   2.160   3.086   3.430  0.0243 -0.2066  0.0942
 9748SOL    HW130143   2.186   3.175   3.467 -0.5916 -0.8705  2.3205
 9748SOL    HW230144   2.188   3.079   3.335 -0.3254  2.5270 -0.2762
 9749SOL     OW30145   6.467   5.227   3.495  0.0830  0.2654  0.0055
 9749SOL    HW130146   6.516   5.244   3.581  1.3073 -2.7103  0.0043
 9749SOL    HW230147   6.416   5.142   3.502  1.0635 -0.6103 -2.5340
 9750SOL     OW30148   2.370   5.621   3.205  0.3600 -0.4154  0.5706
 9750SOL    HW130149   2.327   5.703   3.167  0.2508 -0.5592  0.3790
 9750SOL    HW230150   2.463   5.612   3.170  0.3187 -0.4558  0.4707
 9751SOL     OW30151   1.280   3.426   6.873 -0.3314  0.2499  0.5016
 9751SOL    HW130152   1.315   3.332   6.868  0.9369  0.6141  1.8914
 9751SOL    HW230153   1.350   3.486   6.911 -0.1392  2.3173 -2.7333
 9752SOL     OW30154   4.643   5.368   3.861 -0.1238  0.0132 -0.1346
 9752SOL    HW130155   4.598   5.422   3.790 -0.0276 -0.6141 -0.6764
 9752SOL    HW230156   4.607   5.275   3.861 -0.8411  0.2616  1.3041
 9753SOL     OW30157   6.283   6.327   6.376  0.2297 -0.1491  0.4497
 9753SOL    HW130158   6.274   6.391   6.453  0.3316 -0.5836  0.8258
 9753SOL    HW230159   6.344   6.252   6.401  2.0194  0.8064 -0.8006
 9754SOL     OW30160   0.522   5.405   0.978 -0.5133 -1.0206  0.3077
 9754SOL    HW130161   0.547   5.341   1.050  1.0902  0.1462  0.8627
 9754SOL    HW230162   0.581   5.486   0.984 -0.0244 -1.0466 -2.5500
 9755SOL     OW30163   3.182   1.751   4.983  0.1233  0.1428  0.1703
 9755SOL    HW130164   3.221   1.811   4.913  1.2373 -0.4359  0.2701
 9755SOL    HW230165   3.228   1.767   5.070 -1.0204  0.6159  0.7091
 9756SOL     OW30166   5.631   2.740   6.550 -0.5084  0.1326  0.0375
 9756SOL    HW130167   5.583   2.815   6.505 -0.6113  0.0360 -0.0155
 9756SOL    HW230168   5.565   2.684   6.599 -0.2889  0.8100  1.1482
 9757SOL     OW30169   4.845   1.332   5.365  0.1061  0.3418 -0.1325
 9757SOL    HW130170   4.927   1.350   5.311 -1.1184  1.9618 -1.5622
 9757SOL    HW230171   4.871   1.299   5.456  2.3668  2.1017 -0.0679
 9758SOL     OW30172   4.322   2.490   0.624  0.2062 -0.4330 -0.6063
 9758SOL    HW130173   4.352   2.396   0.641  0.3585 -0.4163 -0.7874
 9758SOL    HW230174   4.239   2.489   0.568  0.1749 -0.4600 -0.5597
 9759SOL     OW30175   3.039   5.643   1.488  0.0886 -0.3369 -0.1122
 9759SOL    HW130176   2.969   5.576   1.512  0.2438 -1.1298 -1.8170
 9759SOL    HW230177   3.107   5.648   1.562  0.4787 -2.6001 -0.2525
 9760SOL     OW30178   5.622   4.530   0.552  0.5392 -0.5507  0.2606
 9760SOL    HW130179   5.689   4.599   0.525 -0.8332  0.3137 -1.1152
 9760SOL    HW230180   5.600   4.540   0.648  0.0837  1.1974 -0.0001
 9761SOL     OW30181   3.889   5.499   1.897  0.0296 -0.2610  0.2382
 9761SOL    HW130182   3.904   5.440   1.818 -0.0492  0.1361 -0.0754
 9761SOL    HW230183   3.853   5.444   1.973 -1.4991 -0.3613 -0.5204
 9762SOL     OW30184   4.342   1.563   2.926 -0.2554 -0.4917  0.7011
 9762SOL    HW130185   4.370   1.652   2.963 -1.4270  0.5306 -0.7285
 9762SOL    HW230186   4.386   1.549   2.838 -1.0951 -0.6945  0.3016
 9763SOL     OW30187   1.097   4.031   0.815 -0.2098  0.0905 -0.8658
 9763SOL    HW130188   1.061   4.122   0.835  1.3629  0.9865 -1.9325
 9763SOL    HW230189   1.026   3.976   0.771 -1.3971  0.5173  0.4274
 9764SOL     OW30190   0.657   3.479   4.414 -0.8007  0.4439 -0.3565
 9764SOL    HW130191   0.658   3.393   4.364 -0.0498 -0.2149  0.7273
 9764SOL    HW230192   0.714   3.546   4.366 -2.0654  0.6300 -1.6486
 9765SOL     OW30193   6.917   0.350   6.335  0.7123  0.0008  0.5574
 9765SOL    HW130194   6.903   0.444   6.364  0.8841  0.1334  0.2119
 9765SOL    HW230195   6.933   0.292   6.415 -0.1219  0.1392  0.8310
 9766SOL     OW30196   3.081   1.367   2.277  0.4596  0.0395 -0.2716
 9766SOL    HW130197   3.119   1.455   2.303  3.3097 -0.4625 -2.3017
 9766SOL    HW230198   3.155   1.301   2.264 -1.2681 -1.6205 -2.4509
 9767SOL     OW30199   4.519   1.782   5.731  0.3993 -0.4856 -0.0199
 9767SOL    HW130200   4.594   1.719   5.753  1.8845  1.1068 -0.3488
 9767SOL    HW230201   4.554   1.856   5.674 -2.2435 -1.7354 -3.5850
 9768SOL     OW30202   4.847   3.054   4.238 -0.1322 -0.0752  0.4833
 9768SOL    HW130203   4.804   3.103   4.162 -0.8450 -1.2217  0.1348
 9768SOL    HW230204   4.945   3.074   4.239 -0.0781 -0.2149 -0.8671
 9769SOL     OW30205   0.207   2.395   0.780 -0.3344 -0.2370  0.0118
 9769SOL    HW130206   0.205   2.413   0.682 -0.9140 -0.9990 -0.1297
 9769SOL    HW230207   0.266   2.317   0.799  0.7161  0.6168  0.4181
 9770SOL     OW30208   1.039   3.368   6.280  0.3346  0.4547 -0.5362
 9770SOL    HW130209   1.129   3.406   6.299 -0.4086  1.5230  1.0514
 9770SOL    HW230210   0.975   3.441   6.256 -0.3610 -0.1624 -0.6176
 9771SOL     OW30211   2.341   5.536   3.879  0.3181 -0.4095  0.2802
 9771SOL    HW130212   2.430   5.581   3.888  0.0402  0.1891  0.0317
 9771SOL    HW230213   2.329   5.506   3.785  0.0778 -0.1171  0.2175
 9772SOL     OW30214   6.744   6.277   2.651 -0.1529  0.3530 -0.0373
 9772SOL    HW130215   6.813   6.314   2.713 -1.6256  1.6401  0.9179
 9772SOL    HW230216   6.693   6.205   2.698  1.4759 -1.6894 -1.2598
 9773SOL     OW30217   6.055   1.091   4.805 -0.0382 -0.3691 -0.0501
 9773SOL    HW130218   6.013   1.121   4.718 -0.2239 -0.9446 -0.1623
 9773SOL    HW230219   6.035   0.994   4.820  2.0643 -0.9332 -0.5751
 9774SOL     OW30220   5.941   4.968   5.185  0.2829 -0.0349 -0.0370
 9774SOL    HW130221   5.946   4.903   5.109 -2.5655  0.5591 -0.8754
 9774SOL    HW230222   6.028   5.016   5.194  0.5372  0.3988 -3.4324
 9775SOL     OW30223   3.900   2.323   5.263 -0.1648 -0.4104  0.3518
 9775SOL    HW130224   3.860   2.254   5.202 -0.6014  0.6887 -0.6460
 9775SOL    HW230225   3.832   2.350   5.332 -1.7163  2.2476 -1.9936
 9776SOL     OW30226   0.253   3.683   3.606 -0.0978 -0.0434  0.2907
 9776SOL    HW130227   0.200   3.625   3.668 -0.4548 -0.3445 -0.2881
 9776SOL    HW230228   0.191   3.739   3.553  0.2136  0.2739  0.2579
 9777SOL     OW30229   4.669   5.437   6.474  0.2747 -0.2055 -0.2741
 9777SOL    HW130230   4.605   5.437   6.551 -0.1687 -0.6917 -0.6337
 9777SOL    HW230231   4.699   5.343   6.455  1.5486  0.0727  0.2455
 9778SOL     OW30232   5.298   3.805   5.733 -0.5687 -0.1553 -0.2506
 9778SOL    HW130233   5.369   3.868   5.764  1.4553 -2.3917 -0.0081
 9778SOL    HW230234   5.271   3.828   5.639  1.6649 -0.1421 -0.9539
 9779SOL     OW30235   5.410   2.650   6.231 -0.0208  0.3894 -0.4714
 9779SOL    HW130236   5.399   2.749   6.240 -0.9622  0.1073  2.0248
 9779SOL    HW230237   5.496   2.622   6.275 -0.3845 -0.0420 -0.0260
 9780SOL     OW30238   0.904   5.335   0.521 -0.5780  0.5324 -0.7303
 9780SOL    HW130239   0.812   5.356   0.556 -0.2829 -0.9547  1.1116
 9780SOL    HW230240   0.972   5.384   0.575 -0.0307 -2.8313  2.0568
 9781SOL     OW30241   1.800   6.878   6.101 -0.2175 -0.2997  0.2561
 9781SOL    HW130242   1.831   6.790   6.136 -1.8666 -0.1776  2.2967
 9781SOL    HW230243   1.774   6.937   6.178  0.0408  1.6735 -1.0847
 9782SOL     OW30244   6.355   6.912   1.258 -0.1612  0.4352  0.3648
 9782SOL    HW130245   6.317   6.868   1.339  0.4271 -0.9131 -0.0728
 9782SOL    HW230246   6.455   6.909   1.263 -0.1013 -1.2537 -1.2313
 9783SOL     OW30247   0.638   1.062   4.844  0.1638 -0.0800 -0.3426
 9783SOL    HW130248   0.625   1.006   4.925  0.4708 -0.4057 -0.5149
 9783SOL    HW230249   0.653   1.003   4.764  2.3410  0.2336 -0.2245
 9784SOL     OW30250   5.256   0.375   4.830 -0.5203  0.1601 -0.0777
 9784SOL    HW130251   5.260   0.371   4.930  1.0532  1.7453 -0.0152
 9784SOL    HW230252   5.333   0.323   4.792  0.0921  1.2589 -0.3697
 9785SOL     OW30253   6.524   4.023   1.321  0.2652 -0.2907 -0.3778
 9785SOL    HW130254   6.492   4.099   1.264 -2.1983 -0.2762  0.8983
 9785SOL    HW230255   6.558   3.950   1.262 -1.4362  0.0449 -1.8848
 9786SOL     OW30256   3.738   0.142   2.864  0.1267 -0.4155 -0.2552
 9786SOL    HW130257   3.750   0.149   2.765 -0.0402  1.2299 -0.1827
 9786SOL    HW230258   3.793   0.212   2.909 -0.2864 -0.7414  0.7853
 9787SOL     OW30259   4.361   4.602   2.652  0.4570  0.4107  0.1199
 9787SOL    HW130260   4.434   4.670   2.658  0.8595  0.0705 -0.7728
 9787SOL    HW230261   4.392   4.516   2.693  0.6442  0.2052 -0.4387
 9788SOL     OW30262   1.343   0.812   5.218  0.1497 -0.1362 -0.1518
 9788SOL    HW130263   1.313   0.726   5.176  1.4197  0.1290 -1.7111
 9788SOL    HW230264   1.423   0.847   5.169 -0.2273  1.8576  0.5555
 9789SOL     OW30265   2.522   2.498   2.266  0.2210  0.5312  0.1362
 9789SOL    HW130266   2.577   2.440   2.327 -0.4765  1.3685  1.6292
 9789SOL    HW230267   2.538   2.594   2.288  0.5871  0.9055 -1.6234
 9790SOL     OW30268   5.836   3.289   5.750  0.4598 -0.1352 -0.3538
 9790SOL    HW130269   5.773   3.351   5.796 -1.5394 -1.4657 -1.1144
 9790SOL    HW230270   5.891   3.240   5.818 -0.1739  0.2218  0.4343
 9791SOL     OW30271   1.206   4.021   6.963 -0.1213  0.1066 -0.1904
 9791SOL    HW130272   1.161   4.026   6.874 -2.7539  0.0020  1.0400
 9791SOL    HW230273   1.278   4.089   6.968  0.6397 -0.4293 -2.6582
 9792SOL     OW30274   3.961   4.977   1.651 -0.2531  0.3631 -0.4319
 9792SOL    HW130275   4.015   4.896   1.627 -0.3712  0.0863  0.2171
 9792SOL    HW230276   3.920   5.015   1.568  0.0927 -0.0365 -0.7891
 9793SOL     OW30277   6.061   6.114   3.820 -0.0880 -0.0216 -0.5225
 9793SOL    HW130278   6.076   6.204   3.861 -0.2988 -0.0288 -0.4307
 9793SOL    HW230279   5.964   6.102   3.800  0.0672  0.1698 -1.4634
 9794SOL     OW30280   2.773   3.386   6.756  0.1971  0.3326  0.0798
 9794SOL    HW130281   2.676   3.376   6.778  0.7122 -0.9296  2.0783
 9794SOL    HW230282   2.796   3.329   6.678 -0.4971 -0.0843  0.1738
 9795SOL     OW30283   0.805   3.868   2.084 -0.0711 -0.4302  0.1839
 9795SOL    HW130284   0.871   3.914   2.024  0.5807  0.0876  1.2691
 9795SOL    HW230285   0.751   3.803   2.030  1.2797 -0.8267 -0.7509
 9796SOL     OW30286   3.328   5.545   6.082  0.1191 -0.5710 -0.2460
 9796SOL    HW130287   3.297   5.520   5.991  1.1601  0.1796 -0.8226
 9796SOL    HW230288   3.420   5.510   6.097 -0.1052 -0.8290  0.5893
 9797SOL     OW30289   5.395   2.354   4.629  0.0715  0.1142 -0.5312
 9797SOL    HW130290   5.448   2.304   4.560  0.4511  0.4159 -0.4605
 9797SOL    HW230291   5.415   2.316   4.720  1.7029  1.4976 -0.2681
 9798SOL     OW30292   4.168   0.064   3.421  0.1087 -0.3084  0.0388
 9798SOL    HW130293   4.225   0.075   3.339  1.5785 -1.4182  0.8555
 9798SOL    HW230294   4.215   0.106   3.500 -0.1415 -1.3551  0.7590
 9799SOL     OW30295   3.398   4.091   3.810  0.2704  0.1645  0.1434
 9799SOL    HW130296   3.374   4.001   3.849 -1.3301 -0.5898 -2.3545
 9799SOL    HW230297   3.492   4.088   3.776  0.1094 -0.7135 -0.2578
 9800SOL     OW30298   3.738   0.247   6.249 -0.0023  0.5296 -0.0213
 9800SOL    HW130299   3.657   0.200   6.285 -0.6588  1.1983 -0.5869
 9800SOL    HW230300   3.742   0.340   6.286  1.9293 -0.2830  2.0299
 9801SOL     OW30301   5.580   4.982   0.357  0.0426 -0.1132  0.1117
 9801SOL    HW130302   5.622   4.971   0.447 -1.0059 -0.4127  0.5753
 9801SOL    HW230303   5.489   4.940   0.357  0.8720 -2.0917 -1.7390
 9802SOL     OW30304   6.736   4.297   0.018  0.6313 -0.0490 -0.1286
 9802SOL    HW130305   6.717   4.207   0.059  1.2461 -0.8807 -1.6001
 9802SOL    HW230306   6.830   4.323   0.040  1.7945 -1.5927 -2.8082
 9803SOL     OW30307   4.843   6.587   5.963  0.1216  0.1163 -0.2491
 9803SOL    HW130308   4.747   6.580   5.992  0.4254  0.2074  0.8144
 9803SOL    HW230309   4.851   6.557   5.868 -0.7359 -1.2366  0.0696
 9804SOL     OW30310   5.510   5.878   3.970  0.0801 -0.0270 -0.4333
 9804SOL    HW130311   5.492   5.976   3.973  0.4579  0.0464 -0.5463
 9804SOL    HW230312   5.435   5.832   3.925 -0.6626  0.0725  0.6591
 9805SOL     OW30313   3.274   4.299   0.687  0.0402 -0.1590  0.1082
 9805SOL    HW130314   3.188   4.269   0.730 -0.3776  0.4428 -0.2890
 9805SOL    HW230315   3.351   4.259   0.736 -0.4827 -1.9635 -0.4730
 9806SOL     OW30316   6.937   2.517   3.202 -0.2508 -0.5894  0.1068
 9806SOL    HW130317   6.912   2.427   3.237 -3.1996 -0.4573 -1.3498
 9806SOL    HW230318   6.954   2.511   3.104  1.4851  0.1688  0.3127
 9807SOL     OW30319   1.283   4.889   6.861 -0.0943 -0.0072  0.7848
 9807SOL    HW130320   1.306   4.836   6.942  0.5919  1.6086  1.6902
 9807SOL    HW230321   1.238   4.974   6.888  2.1583  1.6345 -0.3095
 9808SOL     OW30322   1.563   2.885   3.271 -0.3813 -0.1258  0.2630
 9808SOL    HW130323   1.627   2.951   3.311 -0.4357  0.6339 -0.8417
 9808SOL    HW230324   1.471   2.925   3.270 -0.3962 -0.1635 -0.5095
 9809SOL     OW30325   0.280   6.512   5.851  0.3429  0.8984  0.1109
 9809SOL    HW130326   0.338   6.459   5.913 -1.8810 -0.8774  0.8210
 9809SOL    HW230327   0.257   6.600   5.893 -1.1085 -0.2553  1.9556
 9810SOL     OW30328   4.827   4.068   2.997 -0.2693  0.1800  0.0635
 9810SOL    HW130329   4.839   3.969   2.997  1.6356  0.3581 -0.2636
 9810SOL    HW230330   4.914   4.112   3.023 -1.1396  1.7620  0.4522
 9811SOL     OW30331   1.493   6.447   4.236  0.6170 -0.0351 -0.3278
 9811SOL    HW130332   1.550   6.367   4.257 -0.4728 -0.4856  1.0755
 9811SOL    HW230333   1.532   6.528   4.279  2.5967  0.5992 -3.0186
 9812SOL     OW30334   5.687   1.358   6.589 -0.2199  0.6572 -0.1177
 9812SOL    HW130335   5.730   1.355   6.679 -1.4363  0.4820  0.4708
 9812SOL    HW230336   5.591   1.333   6.597 -0.1433 -0.2547 -1.5977
 9813SOL     OW30337   5.569   3.374   1.113 -0.1526 -0.6427 -0.0262
 9813SOL    HW130338   5.611   3.425   1.037  2.3671 -0.4557  1.3952
 9813SOL    HW230339   5.588   3.276   1.101 -1.6452 -0.8732 -0.7247
 9814SOL     OW30340   4.830   0.909   0.029 -0.0623 -0.0342 -0.4371
 9814SOL    HW130341   4.868   0.970   0.100 -2.8245  0.0875  1.0748
 9814SOL    HW230342   4.746   0.866   0.063 -0.9455 -0.8088 -3.2984
 9815SOL     OW30343   0.419   5.684   4.118  0.5943  0.1943  0.4368
 9815SOL    HW130344   0.347   5.616   4.103  0.0163  1.1233 -1.4194
 9815SOL    HW230345   0.382   5.760   4.172  0.8859 -0.3804  1.4669
 9816SOL     OW30346   4.821   0.629   6.872 -0.0332  0.0012  0.8087
 9816SOL    HW130347   4.903   0.684   6.887 -0.1261  0.1752  0.6658
 9816SOL    HW230348   4.739   0.685   6.887 -0.1513  0.4030 -1.0827
 9817SOL     OW30349   2.615   0.499   6.154  0.5528  0.4387  0.1154
 9817SOL    HW130350   2.606   0.505   6.253  0.6700  0.7992  0.1042
 9817SOL    HW230351   2.604   0.589   6.113 -2.9816 -0.1336 -0.5076
 9818SOL     OW30352   6.951   0.180   1.994 -0.0385  0.4710 -0.1604
 9818SOL    HW130353   7.042   0.156   1.958  0.5321  2.4512 -0.1545
 9818SOL    HW230354   6.961   0.215   2.087 -0.9281 -0.0591  0.1416
 9819SOL     OW30355   6.246   0.174   4.548  0.7784 -0.4922  0.2325
 9819SOL    HW130356   6.252   0.184   4.647 -1.5056  0.7740  0.3225
 9819SOL    HW230357   6.203   0.086   4.526  0.8730 -0.5774  0.3881
 9820SOL     OW30358   4.315   6.855   3.617  0.5628 -0.5097 -0.2369
 9820SOL    HW130359   4.368   6.913   3.556  0.3886 -1.2747 -1.1400
 9820SOL    HW230360   4.220   6.853   3.588  0.7242 -1.9055 -0.7570
 9821SOL     OW30361   4.771   5.061   6.738  0.4576  0.4516  0.1458
 9821SOL    HW130362   4.692   5.028   6.687  1.6312 -1.5785 -0.4879
 9821SOL    HW230363   4.854   5.049   6.682  1.7671 -1.5817  2.3271
 9822SOL     OW30364   4.864   6.300   3.452 -0.2471  0.1543  0.5266
 9822SOL    HW130365   4.772   6.264   3.438  1.1412 -2.9268 -1.9437
 9822SOL    HW230366   4.896   6.273   3.543 -0.1882 -2.9810 -0.3174
 9823SOL     OW30367   2.792   5.133   4.519  0.0283  0.1276  0.0606
 9823SOL    HW130368   2.814   5.037   4.505  0.1144  0.3316 -1.3592
 9823SOL    HW230369   2.876   5.185   4.534 -0.0530 -0.0752  1.2556
 9824SOL     OW30370   1.641   4.605   4.194 -0.2335  0.2816  0.5505
 9824SOL    HW130371   1.604   4.512   4.198 -0.5856  0.3912 -0.0214
 9824SOL    HW230372   1.687   4.627   4.280 -2.8469  0.6994  1.9460
 9825SOL     OW30373   1.147   4.845   2.273  0.4734 -0.2554  0.1813
 9825SOL    HW130374   1.069   4.907   2.275  1.2221  0.7775 -0.9792
 9825SOL    HW230375   1.207   4.863   2.351  1.6411  1.8504 -1.0925
 9826SOL     OW30376   0.739   6.094   6.455  0.1324  0.2346 -0.1128
 9826SOL    HW130377   0.666   6.151   6.416  0.8860  1.6257  0.4624
 9826SOL    HW230378   0.805   6.152   6.502  0.8785 -1.1415  0.5814
 9827SOL     OW30379   3.092   5.594   2.475 -0.5327 -0.3804  0.1672
 9827SOL    HW130380   3.083   5.567   2.379  0.1733 -1.4510  0.3811
 9827SOL    HW230381   3.188   5.587   2.502 -0.6356  0.4773  0.8014
 9828SOL     OW30382   5.074   4.018   6.570  0.6249 -0.1313  0.0027
 9828SOL    HW130383   5.031   4.008   6.660  1.2406 -0.3077  0.2828
 9828SOL    HW230384   5.019   3.970   6.501  1.1201 -1.5856  0.5857
 9829SOL     OW30385   0.141   5.103   5.010 -0.3461 -0.1847 -0.0229
 9829SOL    HW130386   0.197   5.118   5.091  0.1780 -0.6056 -0.2991
 9829SOL    HW230387   0.163   5.173   4.941 -0.0481 -0.4347 -0.1857
 9830SOL     OW30388   6.158   1.952   4.324  0.4862  0.0696 -0.4838
 9830SOL    HW130389   6.257   1.943   4.311  0.5084  0.1282 -0.3639
 9830SOL    HW230390   6.138   1.948   4.422  0.4497  0.8702 -0.4563
 9831SOL     OW30391   6.768   4.534   0.806  0.2488 -0.7315 -0.0024
 9831SOL    HW130392   6.795   4.471   0.878  1.1960  0.1218  0.4061
 9831SOL    HW230393   6.728   4.617   0.846 -1.8306 -1.3899 -0.5530
 9832SOL     OW30394   5.635   5.159   4.739  0.6767  0.3128  0.0952
 9832SOL    HW130395   5.702   5.098   4.698  0.1155 -1.0487  1.1302
 9832SOL    HW230396   5.602   5.120   4.825  0.3028  2.0835  0.8075
 9833SOL     OW30397   3.096   3.106   4.181 -0.4078 -0.1237  0.2029
 9833SOL    HW130398   3.076   3.130   4.276 -0.3635  1.6576 -0.2081
 9833SOL    HW230399   3.050   3.170   4.120  0.7057 -0.3799 -0.9525
 9834SOL     OW30400   2.595   5.983   4.610  0.8667  0.0913  0.1664
 9834SOL    HW130401   2.539   5.935   4.676 -0.1405 -0.7090 -1.2084
 9834SOL    HW230402   2.562   6.077   4.599 -0.2286 -0.3689 -0.6116
 9835SOL     OW30403   3.288   3.683   4.416  0.0410  0.1774 -0.4170
 9835SOL    HW130404   3.354   3.743   4.370 -1.1817  0.7495 -1.5030
 9835SOL    HW230405   3.320   3.589   4.412 -0.3182  0.0702 -3.1777
 9836SOL     OW30406   5.045   2.529   4.697 -0.2262  0.5492  0.3084
 9836SOL    HW130407   5.055   2.444   4.645  1.1440  1.7294 -1.4642
 9836SOL    HW230408   4.957   2.572   4.674 -0.0731  0.5552 -0.2980
 9837SOL     OW30409   0.222   0.812   4.527  0.0710  0.0763 -0.3078
 9837SOL    HW130410   0.261   0.753   4.598 -0.0656 -0.1548 -0.4253
 9837SOL    HW230411   0.146   0.865   4.566 -1.6422 -1.8399 -0.8625
 9838SOL     OW30412   1.446   4.752   1.482 -0.4003  0.0121  0.3429
 9838SOL    HW130413   1.370   4.692   1.457 -0.1127  0.2075 -1.0546
 9838SOL    HW230414   1.526   4.698   1.507  0.0083 -0.2275 -1.3703
 9839SOL     OW30415   4.180   6.390   3.583 -0.1559  0.0966  0.4667
 9839SOL    HW130416   4.261   6.445   3.606 -0.2785  0.1315  0.8199
 9839SOL    HW230417   4.158   6.330   3.660 -0.1706 -0.2685  0.1773
 9840SOL     OW30418   5.086   3.568   0.343  0.0837 -0.1345  0.6466
 9840SOL    HW130419   5.086   3.584   0.442  1.6402 -0.5016  0.7290
 9840SOL    HW230420   5.007   3.512   0.318 -1.2524  1.3278  1.4173
 9841SOL     OW30421   1.775   6.288   3.466  0.3272 -0.3338 -0.1513
 9841SOL    HW130422   1.847   6.230   3.429  0.2754 -2.3074  2.5196
 9841SOL    HW230423   1.688   6.264   3.423  0.8285  0.2333 -1.5264
 9842SOL     OW30424   3.054   6.243   6.645 -0.3273 -0.2797  0.1948
 9842SOL    HW130425   3.080   6.299   6.567 -1.6864  0.5420  0.2949
 9842SOL    HW230426   3.014   6.157   6.612 -4.0196  1.3920 -0.2730
 9843SOL     OW30427   0.176   1.208   2.434 -0.0235 -0.1430 -0.7675
 9843SOL    HW130428   0.265   1.182   2.469  0.0974 -0.3132 -1.1985
 9843SOL    HW230429   0.173   1.308   2.421  0.3840 -0.2165 -1.5039
 9844SOL     OW30430   6.183   0.140   3.127  0.2673 -0.1593 -0.0032
 9844SOL    HW130431   6.224   0.067   3.073 -2.5284 -0.5785 -1.7332
 9844SOL    HW230432   6.217   0.229   3.096  1.3244 -0.5592 -0.0122
 9845SOL     OW30433   0.658   2.062   2.975 -0.2110 -0.1038  0.3190
 9845SOL    HW130434   0.596   2.136   2.947 -1.8180 -1.5104  0.0369
 9845SOL    HW230435   0.706   2.026   2.895  0.0958  0.1904  0.3664
 9846SOL     OW30436   6.978   3.364   0.399 -0.0696  0.1541  0.0834
 9846SOL    HW130437   6.962   3.428   0.325 -0.3365 -0.8181 -0.7248
 9846SOL    HW230438   7.017   3.412   0.478 -3.8265  2.0776  1.0034
 9847SOL     OW30439   2.681   5.116   1.337 -0.4484 -0.0448 -0.4621
 9847SOL    HW130440   2.588   5.085   1.320 -0.8372 -0.0333  1.4137
 9847SOL    HW230441   2.734   5.041   1.378 -0.5900  0.8474  1.4768
 9848SOL     OW30442   2.891   4.715   6.745 -0.1581  0.5136  0.2624
 9848SOL    HW130443   2.907   4.715   6.647  0.4693  0.2847  0.3608
 9848SOL    HW230444   2.810   4.660   6.766  1.2386 -1.6851  0.1046
 9849SOL     OW30445   2.090   0.629   1.032  0.2811 -0.2940 -0.2940
 9849SOL    HW130446   2.005   0.583   1.005  0.7315 -1.8603  0.7894
 9849SOL    HW230447   2.071   0.724   1.054 -0.7890 -0.0468 -2.1378
 9850SOL     OW30448   3.147   0.800   4.306 -0.3532  0.3260 -0.4819
 9850SOL    HW130449   3.143   0.710   4.264 -0.1280  0.2469 -0.3339
 9850SOL    HW230450   3.200   0.796   4.391 -1.6648  0.2748  0.3523
 9851SOL     OW30451   4.316   4.665   4.178  0.5170  0.0607  0.0259
 9851SOL    HW130452   4.374   4.583   4.177 -1.2510 -1.2661  0.8368
 9851SOL    HW230453   4.271   4.673   4.267 -1.2796  0.5049 -0.8849
 9852SOL     OW30454   4.225   6.774   0.440  0.3527  0.5254 -0.0211
 9852SOL    HW130455   4.159   6.757   0.514 -0.2412 -1.6960 -0.9704
 9852SOL    HW230456   4.179   6.763   0.352  1.6107  0.7080 -0.7159
 9853SOL     OW30457   1.511   3.521   5.239 -0.0744  0.2969  0.2511
 9853SOL    HW130458   1.491   3.425   5.223  1.4388 -0.2571  1.3921
 9853SOL    HW230459   1.541   3.534   5.334  0.8038  1.6944 -0.1751
 9854SOL     OW30460   6.088   5.566   6.242 -0.0493 -0.3960  0.4655
 9854SOL    HW130461   6.101   5.524   6.152  1.1623  1.8301 -0.4982
 9854SOL    HW230462   6.008   5.626   6.240  0.6043  0.4981  0.4985
 9855SOL     OW30463   1.881   6.320   0.843  1.0677  0.1902 -0.0223
 9855SOL    HW130464   1.861   6.239   0.788  2.4016  0.0397 -0.3188
 9855SOL    HW230465   1.797   6.351   0.889  0.3528 -0.8155 -0.6123
 9856SOL     OW30466   5.116   3.418   1.702 -0.7863  0.9365  0.4722
 9856SOL    HW130467   5.085   3.471   1.781  0.3488 -1.6967  2.9046
 9856SOL    HW230468   5.051   3.344   1.684 -3.1834  3.7007 -3.8541
 9857SOL     OW30469   4.328   0.115   5.463 -0.3896 -0.3004  0.1753
 9857SOL    HW130470   4.340   0.190   5.528  0.2141  0.3188 -0.6204
 9857SOL    HW230471   4.231   0.100   5.447 -0.5418  1.7843 -1.2522
 9858SOL     OW30472   6.415   5.857   3.650  0.7224  0.1311  1.2851
 9858SOL    HW130473   6.444   5.777   3.703 -2.0290 -0.2401  2.3540
 9858SOL    HW230474   6.441   5.940   3.699  0.0260 -0.1800  2.1877
 9859SOL     OW30475   1.122   5.449   3.749 -0.2106  0.1351  0.0973
 9859SOL    HW130476   1.085   5.495   3.829  1.8572  2.7991 -0.3248
 9859SOL    HW230477   1.221   5.440   3.759 -0.1793 -1.5554 -1.2188
 9860SOL     OW30478   1.186   3.345   2.710 -0.2710  0.2612 -0.0254
 9860SOL    HW130479   1.142   3.432   2.733 -3.1825 -1.0612 -0.2210
 9860SOL    HW230480   1.177   3.282   2.787  1.8554  0.0624  0.1296
 9861SOL     OW30481   3.187   1.895   4.177 -0.0158  0.0916  0.1047
 9861SOL    HW130482   3.247   1.878   4.099  2.1849 -1.2076  1.9462
 9861SOL    HW230483   3.205   1.986   4.214 -0.6576  0.4870 -0.5366
 9862SOL     OW30484   1.714   3.583   5.950  0.1254  0.4694 -0.2521
 9862SOL    HW130485   1.731   3.670   5.998  0.8506 -0.3598  1.0816
 9862SOL    HW230486   1.797   3.556   5.901  0.7897 -0.6392  1.3661
 9863SOL     OW30487   2.504   4.767   1.117 -0.0321 -0.1894  0.0632
 9863SOL    HW130488   2.545   4.676   1.126 -1.3461 -0.7846  0.1747
 9863SOL    HW230489   2.521   4.820   1.201 -0.4182 -0.8187  0.5449
 9864SOL     OW30490   3.312   6.473   3.856  0.0688  0.5891 -0.0558
 9864SOL    HW130491   3.332   6.549   3.795  2.5718 -0.5890 -0.8364
 9864SOL    HW230492   3.388   6.459   3.919  1.5972 -3.4813 -2.4056
 9865SOL     OW30493   2.099   5.867   6.426 -0.8503 -0.3625  0.6517
 9865SOL    HW130494   2.142   5.776   6.426  0.0306  0.0013 -1.1320
 9865SOL    HW230495   2.039   5.875   6.346  0.3744  1.1639 -0.1685
 9866SOL     OW30496   1.293   5.461   4.632 -0.0035 -0.4952 -0.3109
 9866SOL    HW130497   1.343   5.375   4.626 -0.4608 -0.8954  1.1822
 9866SOL    HW230498   1.298   5.496   4.726  0.9803  1.6161 -1.0778
 9867SOL     OW30499   2.689   2.208   1.294 -0.2739 -0.5628 -0.1739
 9867SOL    HW130500   2.733   2.137   1.240 -0.9994 -1.2311  0.0961
 9867SOL    HW230501   2.752   2.240   1.366 -0.6893 -2.5088  1.1138
 9868SOL     OW30502   3.197   5.217   2.596 -0.0629 -0.3326  0.1015
 9868SOL    HW130503   3.217   5.214   2.498  0.8312 -0.3468  0.2713
 9868SOL    HW230504   3.174   5.311   2.622  0.7996 -0.0981  0.0647
 9869SOL     OW30505   5.084   2.305   3.252 -1.0849 -0.0476 -0.2556
 9869SOL    HW130506   5.087   2.279   3.156 -1.2014 -2.9299  0.4460
 9869SOL    HW230507   4.989   2.323   3.279 -1.0204  1.0639 -0.7033
 9870SOL     OW30508   2.286   2.920   1.374 -0.3033  0.3722  0.0229
 9870SOL    HW130509   2.252   2.831   1.344 -2.2687  1.5663 -1.4676
 9870SOL    HW230510   2.224   2.958   1.443  0.9989  0.2601  1.3186
 9871SOL     OW30511   5.046   5.049   4.535 -0.2412 -0.1840 -0.0762
 9871SOL    HW130512   5.082   4.975   4.478 -0.1610  0.8479 -1.4006
 9871SOL    HW230513   4.948   5.034   4.550  0.0614 -1.3231  0.9111
 9872SOL     OW30514   1.439   6.493   4.663  0.1338  0.6564 -0.0332
 9872SOL    HW130515   1.391   6.435   4.597 -0.8007  1.2327  0.1244
 9872SOL    HW230516   1.537   6.475   4.658 -0.2300 -2.2776  1.2603
 9873SOL     OW30517   6.088   0.091   5.847  0.0713  0.3645  0.2318
 9873SOL    HW130518   6.176   0.082   5.800  1.6977  0.9246  2.9322
 9873SOL    HW230519   6.082   0.182   5.889 -2.2907  0.7127 -0.7086
 9874SOL     OW30520   0.174   2.050   5.376 -0.0570  0.3808 -0.7846
 9874SOL    HW130521   0.197   1.977   5.440  1.4872 -0.4937 -2.2415
 9874SOL    HW230522   0.192   2.139   5.420 -0.7970 -0.1183  0.5909
 9875SOL     OW30523   5.364   0.577   0.605  0.2761  0.6852 -0.1367
 9875SOL    HW130524   5.290   0.640   0.582  0.1095  0.1683 -1.0658
 9875SOL    HW230525   5.336   0.520   0.683  0.6385  2.0915  1.0819
 9876SOL     OW30526   0.862   1.077   2.707  0.2506  0.0215  0.5499
 9876SOL    HW130527   0.766   1.078   2.737 -0.8645 -1.3680 -2.5831
 9876SOL    HW230528   0.895   0.983   2.702  2.1899  0.5119  2.4849
 9877SOL     OW30529   0.129   5.774   5.966 -0.4238  0.5036  0.7736
 9877SOL    HW130530   0.199   5.764   6.037  0.8513  1.5238 -0.2828
 9877SOL    HW230531   0.130   5.694   5.907 -1.3974 -0.2882  1.7978
 9878SOL     OW30532   2.481   4.109   0.875  0.1731  0.2502 -0.0116
 9878SOL    HW130533   2.445   4.123   0.967  1.8609  0.4883  0.6475
 9878SOL    HW230534   2.502   4.198   0.833 -0.2332  0.1281 -0.4798
 9879SOL     OW30535   5.588   5.983   5.753 -0.9296 -0.0183  0.1649
 9879SOL    HW130536   5.631   5.945   5.671 -1.5143  0.2934 -0.2863
 9879SOL    HW230537   5.575   5.910   5.820 -0.1005 -0.2046  0.1412
 9880SOL     OW30538   1.901   1.927   5.400 -0.3299  0.2035  0.0855
 9880SOL    HW130539   1.853   2.012   5.420 -3.2278 -0.6819 -2.4024
 9880SOL    HW230540   1.846   1.870   5.339  2.1690 -2.8244  0.3631
 9881SOL     OW30541   0.555   6.198   2.077  0.0810 -0.7838 -0.5206
 9881SOL    HW130542   0.545   6.243   2.166  0.4390 -0.8045 -0.4710
 9881SOL    HW230543   0.598   6.260   2.012 -0.2793 -0.7317 -0.7121
 9882SOL     OW30544   3.430   3.626   2.772 -0.2803  0.2815 -0.3199
 9882SOL    HW130545   3.512   3.653   2.720 -1.1083 -0.3452 -2.0421
 9882SOL    HW230546   3.442   3.534   2.808  0.2072  0.6301  0.4403
 9883SOL     OW30547   1.379   5.061   2.491 -0.2425  0.3616 -0.2653
 9883SOL    HW130548   1.292   5.068   2.541 -0.1987 -0.6391 -0.0387
 9883SOL    HW230549   1.413   4.968   2.496 -0.0194  0.3264 -1.8071
 9884SOL     OW30550   2.797   1.347   6.585  0.6449  0.1164 -0.2954
 9884SOL    HW130551   2.737   1.313   6.512  0.5934  0.2526 -0.3176
 9884SOL    HW230552   2.881   1.384   6.544  0.9085 -0.4138 -0.2370
 9885SOL     OW30553   5.007   3.754   5.542 -0.0086 -0.2636 -0.1607
 9885SOL    HW130554   4.908   3.767   5.537 -0.0537 -0.2617  0.6758
 9885SOL    HW230555   5.027   3.660   5.570  0.1580  0.4174  2.2220
 9886SOL     OW30556   1.556   5.037   2.165  0.2308  0.0937 -0.3740
 9886SOL    HW130557   1.475   4.983   2.145 -0.6449  1.6436 -1.2330
 9886SOL    HW230558   1.554   5.064   2.262 -0.3172  0.1580 -0.3979
 9887SOL     OW30559   2.618   0.714   6.792 -0.0909  0.3985 -0.4601
 9887SOL    HW130560   2.569   0.643   6.741 -0.4167 -0.9950  1.6266
 9887SOL    HW230561   2.710   0.724   6.755 -0.3048 -0.5513 -1.3059
 9888SOL     OW30562   0.544   6.203   4.886  0.0542  0.5022  0.1892
 9888SOL    HW130563   0.557   6.254   4.801  1.1921  2.2932  1.3618
 9888SOL    HW230564   0.453   6.222   4.922 -0.6314 -0.6833 -0.8647
 9889SOL     OW30565   6.590   6.456   0.170 -0.4204 -0.1550 -0.3409
 9889SOL    HW130566   6.644   6.428   0.091 -0.9780  0.4398 -0.9412
 9889SOL    HW230567   6.562   6.552   0.159  0.3566  0.2627  1.0604
 9890SOL     OW30568   1.795   2.484   2.329  0.0449 -0.7178 -0.6785
 9890SOL    HW130569   1.783   2.504   2.232  0.9518 -1.2635 -0.9187
 9890SOL    HW230570   1.881   2.434   2.342  1.2133  1.4625  0.6737
 9891SOL     OW30571   1.938   5.482   2.188  0.3940  0.4240 -0.1333
 9891SOL    HW130572   1.843   5.514   2.189 -0.3909 -1.6583  2.2303
 9891SOL    HW230573   1.942   5.388   2.154  1.5359  0.3336  0.1905
 9892SOL     OW30574   0.925   5.850   1.863 -0.1917 -0.8474  0.0682
 9892SOL    HW130575   0.942   5.751   1.861  0.2042 -0.8070  1.1010
 9892SOL    HW230576   0.958   5.888   1.949 -1.5999 -0.0312  0.2674
 9893SOL     OW30577   6.979   4.954   3.838  0.4184 -1.0687  0.1620
 9893SOL    HW130578   6.952   4.918   3.927  0.5182  0.4457  0.8349
 9893SOL    HW230579   6.900   4.998   3.794  0.4379 -1.5623 -0.3860
 9894SOL     OW30580   4.486   3.924   5.469  0.5771  0.2298 -0.1066
 9894SOL    HW130581   4.390   3.919   5.494  1.1634  0.1843  2.4117
 9894SOL    HW230582   4.507   4.015   5.432 -0.3339  0.3784 -0.2663
 9895SOL     OW30583   5.753   2.292   6.497  0.2554 -0.0495  0.0050
 9895SOL    HW130584   5.781   2.387   6.484  1.9859 -0.4147  0.7629
 9895SOL    HW230585   5.833   2.233   6.490 -0.7239 -1.4117  0.0127
 9896SOL     OW30586   3.263   3.253   5.763 -0.4747 -0.8095 -0.2836
 9896SOL    HW130587   3.261   3.175   5.825  5.8414 -1.2007  0.0428
 9896SOL    HW230588   3.276   3.337   5.816  2.2729 -0.8402 -0.7637
 9897SOL     OW30589   2.019   1.102   0.493  0.0238  0.1594  0.5753
 9897SOL    HW130590   1.980   1.115   0.402 -2.0724  0.0038  1.3848
 9897SOL    HW230591   1.979   1.019   0.534  0.5988  0.4658  1.7962
 9898SOL     OW30592   0.363   6.309   6.532  0.5025  0.1687  0.0573
 9898SOL    HW130593   0.402   6.368   6.462 -0.6072  0.9071  0.0375
 9898SOL    HW230594   0.290   6.358   6.580  0.7749 -0.5648  1.2605
 9899SOL     OW30595   4.460   0.096   0.751 -0.4389 -0.3863 -0.0548
 9899SOL    HW130596   4.450   0.033   0.674  2.2532 -2.0814  0.8587
 9899SOL    HW230597   4.478   0.188   0.717  2.3973 -1.3983 -1.5675
 9900SOL     OW30598   4.035   5.379   2.962  0.2005  0.8962 -0.1859
 9900SOL    HW130599   4.134   5.376   2.963  0.2381  1.6710 -0.8169
 9900SOL    HW230600   4.003   5.424   2.879 -0.7130 -0.3049 -0.5150
 9901SOL     OW30601   3.354   2.169   5.887  0.0561 -0.3581 -0.4378
 9901SOL    HW130602   3.399   2.112   5.956 -0.3363 -1.0054 -0.7004
 9901SOL    HW230603   3.274   2.213   5.928  0.0692 -0.4032 -0.3626
 9902SOL     OW30604   2.639   4.795   6.894  0.0102 -0.8124 -0.2484
 9902SOL    HW130605   2.649   4.696   6.889 -1.5828 -0.9538 -1.6468
 9902SOL    HW230606   2.617   4.831   6.803  0.8190  0.8635  0.1820
 9903SOL     OW30607   3.542   0.751   3.020  0.3181 -0.2522 -0.2278
 9903SOL    HW130608   3.549   0.838   3.069 -0.6747 -0.5506  0.4704
 9903SOL    HW230609   3.612   0.689   3.055  1.0413  0.2550 -0.7370
 9904SOL     OW30610   4.835   4.856   1.244  0.3089  0.4657 -0.0323
 9904SOL    HW130611   4.816   4.842   1.147 -0.3800  2.0028 -0.1504
 9904SOL    HW230612   4.759   4.822   1.299  0.4172  0.1789 -0.0552
 9905SOL     OW30613   1.957   6.172   6.325 -0.2736  0.5529  0.2795
 9905SOL    HW130614   1.945   6.100   6.257 -2.7088  0.7977  0.3531
 9905SOL    HW230615   1.995   6.133   6.409  0.6682 -0.1541 -0.4483
 9906SOL     OW30616   3.608   3.857   0.529 -0.5887 -0.7700 -0.4837
 9906SOL    HW130617   3.638   3.946   0.495  0.1096 -0.2343  1.4176
 9906SOL    HW230618   3.653   3.785   0.476 -1.1715 -0.0269 -2.0562
 9907SOL     OW30619   1.452   1.152   4.704 -0.1016  0.2358  0.3281
 9907SOL    HW130620   1.411   1.067   4.669 -0.7054  0.6703 -0.0490
 9907SOL    HW230621   1.544   1.162   4.667 -0.4435  0.2987 -0.5305
 9908SOL     OW30622   0.748   2.268   5.804  0.4108 -0.8531 -0.5681
 9908SOL    HW130623   0.709   2.360   5.811  1.1238 -0.3047 -2.9300
 9908SOL    HW230624   0.846   2.275   5.785  1.0853 -2.1846  1.9727
 9909SOL     OW30625   6.412   0.051   3.742 -0.3686 -0.2029  0.2281
 9909SOL    HW130626   6.391   0.135   3.693 -1.9927 -0.0951  1.0348
 9909SOL    HW230627   6.329   0.017   3.787  0.7126 -1.1395  1.5961
 9910SOL     OW30628   6.417   4.571   0.552 -0.2354 -0.6215  0.3641
 9910SOL    HW130629   6.351   4.578   0.477  1.9072 -0.1144 -1.5740
 9910SOL    HW230630   6.421   4.658   0.601  1.0963  0.4039 -1.4404
 9911SOL     OW30631   2.083   4.756   2.484  0.2943  0.2463 -0.0686
 9911SOL    HW130632   2.006   4.706   2.524  1.7800 -1.8740  0.2995
 9911SOL    HW230633   2.057   4.790   2.394 -0.5375 -2.0466 -0.7702
 9912SOL     OW30634   4.509   0.363   6.723 -0.4633  0.2098 -0.0915
 9912SOL    HW130635   4.505   0.437   6.791 -1.4711  1.0835 -1.0554
 9912SOL    HW230636   4.553   0.398   6.640 -0.0990 -0.5723 -0.2327
 9913SOL     OW30637   6.724   0.838   3.156  0.1967  0.3020  0.0850
 9913SOL    HW130638   6.706   0.849   3.058 -0.8301 -0.4277  0.1674
 9913SOL    HW230639   6.680   0.911   3.207  0.1268  0.2823  0.0528
 9914SOL     OW30640   2.275   6.559   4.625 -0.3623  0.4632  0.2317
 9914SOL    HW130641   2.294   6.513   4.712  0.3980  1.6713  0.7132
 9914SOL    HW230642   2.313   6.505   4.550  1.1342  0.6436  0.8401
 9915SOL     OW30643   5.727   5.226   5.512  0.3285  0.3232  0.4724
 9915SOL    HW130644   5.693   5.317   5.535 -2.4660 -0.0594 -1.5761
 9915SOL    HW230645   5.726   5.214   5.413 -0.4059 -2.2644  0.7103
 9916SOL     OW30646   4.159   3.486   5.247 -0.3622 -0.0074 -0.6329
 9916SOL    HW130647   4.103   3.544   5.188  1.2591  1.9165 -0.4160
 9916SOL    HW230648   4.151   3.391   5.219 -1.1818  0.6109 -2.6647
 9917SOL     OW30649   2.571   5.013   4.414 -0.1934 -0.2847  0.1209
 9917SOL    HW130650   2.585   4.917   4.437 -0.4440  0.3594  3.4511
 9917SOL    HW230651   2.645   5.067   4.453 -0.2145  0.9468 -1.4580
 9918SOL     OW30652   2.961   2.222   3.012  0.1903 -0.4522  0.0231
 9918SOL    HW130653   3.049   2.199   2.971 -0.6556 -0.6463 -1.8254
 9918SOL    HW230654   2.909   2.279   2.948 -1.4514 -1.2572  0.5795
 9919SOL     OW30655   0.252   6.078   1.230  0.5415 -0.5074 -0.0244
 9919SOL    HW130656   0.190   6.010   1.189  0.6036 -0.5857  0.0125
 9919SOL    HW230657   0.208   6.168   1.228 -0.2030 -0.8201  1.3925
 9920SOL     OW30658   3.279   2.077   2.252 -0.0674  0.1288 -0.4094
 9920SOL    HW130659   3.213   2.089   2.177  0.9577  1.5036 -1.1361
 9920SOL    HW230660   3.314   2.167   2.279 -0.8393 -0.2709  2.1542
 9921SOL     OW30661   4.422   1.504   2.689  0.2538  0.6805  0.2128
 9921SOL    HW130662   4.341   1.519   2.632  0.6398 -0.6304 -0.7352
 9921SOL    HW230663   4.503   1.501   2.630  0.5992 -1.2879  0.7194
 9922SOL     OW30664   5.500   2.334   1.935 -0.0820  0.0424  0.0185
 9922SOL    HW130665   5.587   2.364   1.973  0.0780  1.0902 -1.1068
 9922SOL    HW230666   5.467   2.254   1.985  1.5960 -0.4688  0.3681
 9923SOL     OW30667   6.015   0.179   1.070 -0.0846  0.2466 -0.1233
 9923SOL    HW130668   5.924   0.207   1.098  0.5396  1.2957  0.9658
 9923SOL    HW230669   6.079   0.189   1.147  0.8193 -1.1626 -0.6399
 9924SOL     OW30670   6.860   1.420   3.138 -0.6395  0.5943  0.2003
 9924SOL    HW130671   6.958   1.415   3.119 -0.9491  0.0064 -1.3350
 9924SOL    HW230672   6.812   1.457   3.059 -1.6006  1.6165  1.2102
 9925SOL     OW30673   4.641   2.469   5.402  0.2339 -0.0359  0.5163
 9925SOL    HW130674   4.573   2.482   5.330  0.6041 -0.0389  0.1578
 9925SOL    HW230675   4.653   2.554   5.453  0.1963  0.0593  0.3675
 9926SOL     OW30676   2.790   1.918   4.951 -0.4332  0.2695  0.1318
 9926SOL    HW130677   2.725   1.906   5.027  0.6667 -0.4942  1.0038
 9926SOL    HW230678   2.846   1.999   4.968  0.7101 -0.6328  0.8753
 9927SOL     OW30679   1.401   5.105   4.570 -0.5150  0.3970 -1.1156
 9927SOL    HW130680   1.359   5.016   4.557 -2.0799  1.0387 -0.6942
 9927SOL    HW230681   1.453   5.130   4.488  0.5129 -1.1675 -0.9721
 9928SOL     OW30682   0.995   2.555   2.861 -0.1071 -0.0911 -0.0406
 9928SOL    HW130683   1.044   2.618   2.801 -0.3885  0.9090  0.7555
 9928SOL    HW230684   1.061   2.504   2.916  0.2169 -1.7523 -1.8456
 9929SOL     OW30685   1.072   3.390   5.468  1.3022  0.0904 -0.5287
 9929SOL    HW130686   0.989   3.426   5.510  1.3994 -2.2049  1.8902
 9929SOL    HW230687   1.142   3.462   5.464  0.1719  1.2620  0.1261
 9930SOL     OW30688   0.588   6.650   5.933 -1.0265 -0.4610  0.1162
 9930SOL    HW130689   0.598   6.641   5.834  2.2777 -0.4090  0.3611
 9930SOL    HW230690   0.637   6.731   5.965  0.9616 -2.3354  2.1465
 9931SOL     OW30691   2.169   4.046   0.189  0.4988  0.2881  0.3792
 9931SOL    HW130692   2.248   4.054   0.249  1.1048 -0.4618 -0.3034
 9931SOL    HW230693   2.114   4.129   0.196  2.1547  1.4914 -0.2836
 9932SOL     OW30694   2.718   2.677   0.120 -0.1980  0.2172 -0.0256
 9932SOL    HW130695   2.718   2.600   0.184  0.0372  0.7146  0.5843
 9932SOL    HW230696   2.806   2.681   0.073  0.8580  1.6482  1.8725
 9933SOL     OW30697   0.815   2.298   0.493 -0.5015 -0.5356  0.4945
 9933SOL    HW130698   0.881   2.374   0.496  2.1075 -2.6669  1.3561
 9933SOL    HW230699   0.774   2.286   0.584 -1.3037  0.1155  0.2302
 9934SOL     OW30700   4.077   4.896   6.136 -0.3367 -0.1542  0.2720
 9934SOL    HW130701   4.147   4.829   6.159  1.9450  2.2197  0.7994
 9934SOL    HW230702   4.078   4.970   6.204 -3.6616 -0.1614  0.4844
 9935SOL     OW30703   3.740   0.575   0.282 -0.1732 -0.5006  0.5993
 9935SOL    HW130704   3.754   0.652   0.344 -1.6798 -0.0730  0.4405
 9935SOL    HW230705   3.790   0.591   0.197 -0.2641  0.1729  0.6698
 9936SOL     OW30706   3.416   4.900   1.174 -0.0856 -0.1000  0.1776
 9936SOL    HW130707   3.364   4.981   1.147 -0.4709 -0.1150  0.8505
 9936SOL    HW230708   3.513   4.913   1.151 -0.1810  0.4559  0.0743
 9937SOL     OW30709   0.913   6.635   6.088  0.1163 -0.0189 -0.5806
 9937SOL    HW130710   0.827   6.656   6.043 -0.2593  1.2285  0.6533
 9937SOL    HW230711   0.985   6.697   6.055 -0.0844  0.6791  0.2558
 9938SOL     OW30712   1.250   2.181   3.091  0.7495 -0.4951 -0.0040
 9938SOL    HW130713   1.182   2.235   3.040 -2.1285 -3.1590  0.7049
 9938SOL    HW230714   1.296   2.118   3.029  0.3219 -0.8164  0.0027
 9939SOL     OW30715   2.384   3.211   1.678  0.3169  0.2737  0.2202
 9939SOL    HW130716   2.300   3.157   1.677 -0.6293  1.6432 -1.7952
 9939SOL    HW230717   2.368   3.297   1.725  1.2175 -0.2942  1.6091
 9940SOL     OW30718   0.039   0.005   2.798 -0.4837 -0.0078  0.3092
 9940SOL    HW130719   0.099   0.083   2.819  1.0460 -1.0107 -0.1205
 9940SOL    HW230720   0.072  -0.076   2.848 -1.0146 -0.7726 -0.5438
 9941SOL     OW30721   5.312   4.660   0.651  0.0714 -0.8582  0.1295
 9941SOL    HW130722   5.301   4.575   0.599 -0.5598 -1.6325  1.4513
 9941SOL    HW230723   5.235   4.670   0.715  0.5702  0.2860  0.5806
 9942SOL     OW30724   4.749   5.438   2.498 -0.4909 -0.2077 -0.2560
 9942SOL    HW130725   4.691   5.519   2.486 -0.0855  0.2180  0.5228
 9942SOL    HW230726   4.696   5.355   2.480 -1.4232  0.1649  0.6782
 9943SOL     OW30727   0.410   2.612   3.426 -0.3438  0.2045 -0.5496
 9943SOL    HW130728   0.442   2.682   3.363 -1.0478  0.4916 -0.5925
 9943SOL    HW230729   0.320   2.580   3.398 -0.9968  0.8654  0.7326
 9944SOL     OW30730   2.170   6.824   5.877 -0.5030 -0.0853  0.2301
 9944SOL    HW130731   2.134   6.908   5.918 -1.3169  0.1028 -0.8483
 9944SOL    HW230732   2.116   6.746   5.909 -0.9279  0.0238 -0.2104
 9945SOL     OW30733   5.475   1.168   4.898 -0.4344  0.5532 -0.4795
 9945SOL    HW130734   5.493   1.192   4.803 -2.8176 -1.6259 -1.6064
 9945SOL    HW230735   5.551   1.114   4.934  1.4886  3.1456 -0.3087
 9946SOL     OW30736   5.820   0.776   1.730  0.1055 -0.6060  0.2734
 9946SOL    HW130737   5.916   0.749   1.732  0.1317 -1.1369 -3.1056
 9946SOL    HW230738   5.777   0.751   1.816  2.9023 -0.5172  1.8194
 9947SOL     OW30739   0.820   6.897   2.593 -0.4401  0.0869 -0.0069
 9947SOL    HW130740   0.754   6.969   2.570  1.0346  0.8803 -2.0725
 9947SOL    HW230741   0.815   6.824   2.524  0.4318 -0.1300  0.1509
 9948SOL     OW30742   4.805   6.003   4.297 -0.2570 -0.1384 -0.7710
 9948SOL    HW130743   4.845   6.095   4.299  1.5663 -0.8492  2.2778
 9948SOL    HW230744   4.739   5.995   4.371 -0.5387 -1.2629 -1.1354
 9949SOL     OW30745   1.435   2.497   3.068 -0.4612  0.1920 -0.3399
 9949SOL    HW130746   1.390   2.573   3.021 -2.9469 -1.0536 -0.1207
 9949SOL    HW230747   1.484   2.531   3.148 -1.7192  1.5756 -0.1172
 9950SOL     OW30748   6.554   2.763   6.237 -0.4683 -0.2450  0.3074
 9950SOL    HW130749   6.533   2.849   6.284  2.1635  0.5524  0.1786
 9950SOL    HW230750   6.591   2.783   6.146 -1.2790 -1.6168 -0.3621
 9951SOL     OW30751   5.707   6.955   2.869 -0.2913  0.7033  0.5190
 9951SOL    HW130752   5.785   6.907   2.908 -0.4380  0.8557  1.0102
 9951SOL    HW230753   5.665   6.900   2.797  1.3123  1.3371 -0.9633
 9952SOL     OW30754   1.967   5.137   1.276 -0.1808  0.1380  0.3764
 9952SOL    HW130755   1.886   5.100   1.321 -1.0053  1.7330  0.2604
 9952SOL    HW230756   2.046   5.126   1.335 -0.8862  0.4830  1.4007
 9953SOL     OW30757   1.257   3.768   4.187  0.0615  0.1309  0.5836
 9953SOL    HW130758   1.320   3.690   4.195  0.4035  0.3518  0.0517
 9953SOL    HW230759   1.268   3.827   4.266  0.0606 -0.1740  0.8139
 9954SOL     OW30760   6.357   3.293   0.762  0.0897 -0.2072 -0.1007
 9954SOL    HW130761   6.331   3.271   0.668 -0.2119  1.5358 -0.4654
 9954SOL    HW230762   6.314   3.379   0.789  2.7650  1.0659  0.4662
 9955SOL     OW30763   5.409   0.351   0.435 -1.0262 -0.1340  0.0435
 9955SOL    HW130764   5.380   0.423   0.497 -0.7028 -0.7284  0.8985
 9955SOL    HW230765   5.346   0.346   0.358 -0.5648  1.6385 -0.4974
 9956SOL     OW30766   1.905   2.540   0.974 -0.0306  0.3059  0.5326
 9956SOL    HW130767   1.889   2.554   0.876  0.6969 -1.0030  0.1980
 9956SOL    HW230768   1.951   2.619   1.013 -1.5731  1.4396  0.1449
 9957SOL     OW30769   5.074   0.512   0.393  0.6253  0.1516  0.2044
 9957SOL    HW130770   4.977   0.533   0.392  0.9122  1.7609  0.9496
 9957SOL    HW230771   5.124   0.591   0.430  2.1523 -0.8537  0.3886
 9958SOL     OW30772   0.125   6.321   5.246  0.0973  0.6721  0.6099
 9958SOL    HW130773   0.176   6.383   5.304 -0.3753  1.5981  0.0633
 9958SOL    HW230774   0.114   6.232   5.292  1.2404  0.8098  1.1708
 9959SOL     OW30775   4.572   5.119   1.109 -0.8233 -0.4069  0.2052
 9959SOL    HW130776   4.516   5.074   1.178 -2.7018  0.0533 -0.9260
 9959SOL    HW230777   4.589   5.056   1.033 -1.3399 -0.0158 -0.2497
 9960SOL     OW30778   4.990   6.783   6.063 -0.4301 -0.6058  0.2868
 9960SOL    HW130779   4.943   6.865   6.096 -1.1810 -0.6325 -0.6736
 9960SOL    HW230780   4.922   6.712   6.043  0.1074 -0.9957 -0.1747
 9961SOL     OW30781   2.436   5.967   6.460 -0.1934 -0.6028 -0.2324
 9961SOL    HW130782   2.412   6.010   6.373 -0.5626  0.1760  0.2341
 9961SOL    HW230783   2.390   6.016   6.534  0.7339 -0.7657  0.4690
 9962SOL     OW30784   3.027   0.505   0.570 -0.2372 -0.4139 -0.4310
 9962SOL    HW130785   2.997   0.558   0.649  0.3668  0.2726 -0.6474
 9962SOL    HW230786   3.028   0.408   0.593  1.2407 -0.1374  0.8639
 9963SOL     OW30787   0.475   0.899   6.893  0.2532 -0.1195  0.2329
 9963SOL    HW130788   0.555   0.912   6.835  0.2796 -4.1223 -0.9630
 9963SOL    HW230789   0.504   0.875   6.986  0.4557 -0.3837  0.1054
 9964SOL     OW30790   6.853   4.887   4.920  0.1165 -0.1019 -0.0758
 9964SOL    HW130791   6.890   4.856   5.008  3.3665  0.8382 -0.9921
 9964SOL    HW230792   6.813   4.978   4.931  1.0319  0.2606  0.3301
 9965SOL     OW30793   4.562   6.375   3.362  0.4718  0.4956  0.3347
 9965SOL    HW130794   4.549   6.290   3.311  0.7310 -0.5167  1.8995
 9965SOL    HW230795   4.505   6.447   3.321  5.2270  1.7691 -5.5557
 9966SOL     OW30796   2.870   4.252   1.287 -0.5344 -0.0123 -0.3439
 9966SOL    HW130797   2.813   4.239   1.368 -0.2445 -0.4112 -0.2031
 9966SOL    HW230798   2.838   4.193   1.214  1.5861 -2.6737  0.7016
 9967SOL     OW30799   0.888   5.033   1.992  0.2539 -0.1001  0.5176
 9967SOL    HW130800   0.880   5.121   1.945  0.9740 -1.0770 -1.5901
 9967SOL    HW230801   0.815   4.972   1.961  2.0542 -1.5217 -1.2658
 9968SOL     OW30802   5.299   5.376   0.902  1.1014  0.1509  0.0177
 9968SOL    HW130803   5.314   5.304   0.835 -1.3272 -1.1332  0.7271
 9968SOL    HW230804   5.230   5.440   0.867 -0.3572 -0.6597  1.2922
 9969SOL     OW30805   0.436   6.459   3.151 -0.0143  0.1334 -0.0094
 9969SOL    HW130806   0.402   6.367   3.167 -1.3009  0.2565 -1.8058
 9969SOL    HW230807   0.534   6.463   3.171 -0.1878 -1.2914  1.2480
 9970SOL     OW30808   0.203   1.705   2.115 -0.5278  0.0839  0.1312
 9970SOL    HW130809   0.253   1.737   2.035  1.2275 -0.1956  1.0546
 9970SOL    HW230810   0.267   1.662   2.179 -1.6481  1.2946  2.1919
 9971SOL     OW30811   6.668   5.352   6.208 -0.8935  0.1782  0.1554
 9971SOL    HW130812   6.594   5.309   6.259 -0.5082 -0.8302 -0.1209
 9971SOL    HW230813   6.682   5.303   6.122  0.3506  0.1307  0.3763
 9972SOL     OW30814   1.922   3.965   5.412 -0.1169  0.1625 -0.2128
 9972SOL    HW130815   1.853   4.017   5.462  1.9704  1.6209  1.3906
 9972SOL    HW230816   2.008   4.016   5.413  0.7254 -1.0186 -3.1251
 9973SOL     OW30817   2.511   2.396   2.689  0.2706  0.1482  0.2282
 9973SOL    HW130818   2.546   2.315   2.642  0.8823  0.1149  0.7348
 9973SOL    HW230819   2.484   2.371   2.782  1.3587  0.7217  0.7037
 9974SOL     OW30820   0.570   1.125   2.073  0.4942  0.1108  0.1747
 9974SOL    HW130821   0.613   1.189   2.009  1.3582 -0.6972 -0.0642
 9974SOL    HW230822   0.618   1.127   2.160  0.3851 -0.0562  0.2394
 9975SOL     OW30823   5.791   5.840   5.598  0.2221  0.3550  0.4302
 9975SOL    HW130824   5.850   5.905   5.645 -0.4203  1.6371 -0.4658
 9975SOL    HW230825   5.779   5.869   5.503 -2.7215  0.8028  0.8431
 9976SOL     OW30826   6.015   0.030   5.170  0.2305 -0.3678  0.0607
 9976SOL    HW130827   5.992  -0.036   5.242 -0.1946  0.5135  0.7555
 9976SOL    HW230828   5.936   0.044   5.111  0.8933 -1.8900 -1.2723
 9977SOL     OW30829   4.653   0.301   4.328  0.6995 -0.4495 -0.0950
 9977SOL    HW130830   4.573   0.360   4.312 -0.5895 -1.7535  1.2127
 9977SOL    HW230831   4.710   0.300   4.246 -1.4851 -0.7277 -1.7140
 9978SOL     OW30832   0.144   2.326   1.133  0.2375  0.2259  0.4496
 9978SOL    HW130833   0.099   2.401   1.084 -0.9163 -0.6943  0.0432
 9978SOL    HW230834   0.206   2.363   1.202 -0.1760  1.5454  0.1304
 9979SOL     OW30835   3.587   3.818   3.611  0.1041 -0.0942  0.0253
 9979SOL    HW130836   3.613   3.910   3.641  1.1180 -0.4617  0.3216
 9979SOL    HW230837   3.639   3.794   3.529 -0.9319 -0.0067 -0.6739
 9980SOL     OW30838   1.188   0.365   6.910  0.3301  0.0421  0.0912
 9980SOL    HW130839   1.113   0.428   6.889  0.5021  0.3282  0.3242
 9980SOL    HW230840   1.225   0.386   7.001  0.9190  0.1324 -0.1629
 9981SOL     OW30841   5.595   1.045   2.350 -0.4534  0.0858 -0.5008
 9981SOL    HW130842   5.520   1.111   2.355 -0.7939 -0.3572  0.9169
 9981SOL    HW230843   5.568   0.968   2.292 -0.4052  0.7470 -1.4156
 9982SOL     OW30844   3.235   1.840   5.603 -0.4605 -0.0657  0.6082
 9982SOL    HW130845   3.260   1.813   5.695 -1.5140 -0.9421  0.6512
 9982SOL    HW230846   3.206   1.936   5.603  1.8278  0.6837  0.7228
 9983SOL     OW30847   6.043   1.136   2.995  0.7547 -0.4614  0.0844
 9983SOL    HW130848   6.121   1.197   2.984 -2.2275  3.7739 -0.4499
 9983SOL    HW230849   6.023   1.090   2.909  1.5848 -0.1068 -0.3024
 9984SOL     OW30850   2.187   5.011   1.424 -0.2295  0.2222 -0.1790
 9984SOL    HW130851   2.161   4.920   1.456  1.7739 -0.3724 -0.0712
 9984SOL    HW230852   2.212   5.068   1.503  2.2458 -0.4374 -0.3718
 9985SOL     OW30853   3.598   5.403   5.141 -1.0676  0.2174  0.0321
 9985SOL    HW130854   3.558   5.492   5.117 -1.4770 -0.7175 -3.2951
 9985SOL    HW230855   3.691   5.416   5.175 -0.8869  1.9064 -0.9990
 9986SOL     OW30856   5.289   4.858   6.470  0.0309 -0.5760  0.0562
 9986SOL    HW130857   5.372   4.905   6.500  0.1388 -0.7646  0.0563
 9986SOL    HW230858   5.218   4.925   6.448  1.3001 -0.2054 -3.4281
 9987SOL     OW30859   6.107   3.213   0.050  0.4585 -0.3551 -0.2856
 9987SOL    HW130860   6.067   3.263   0.127  1.8345  0.7990 -0.2621
 9987SOL    HW230861   6.045   3.141   0.020 -1.9535  1.8005 -0.7903
 9988SOL     OW30862   5.086   0.221   5.510 -0.4487 -0.2117 -0.6202
 9988SOL    HW130863   5.065   0.235   5.606  3.7752  2.6980  0.1411
 9988SOL    HW230864   5.165   0.160   5.501 -1.4546 -1.3601 -2.3971
 9989SOL     OW30865   4.789   4.533   2.661  0.3671 -0.2967  0.2147
 9989SOL    HW130866   4.845   4.555   2.741  0.0438 -2.4650  1.1118
 9989SOL    HW230867   4.801   4.437   2.637 -0.9224 -0.1349 -1.2433
 9990SOL     OW30868   6.607   5.945   4.095 -0.2774  0.3146  0.6667
 9990SOL    HW130869   6.672   5.940   4.171  0.0620  2.1070  0.5343
 9990SOL    HW230870   6.536   5.875   4.107  0.3791 -0.1458  2.0462
 9991SOL     OW30871   1.836   4.191   1.436 -0.3369  0.6680 -0.0664
 9991SOL    HW130872   1.800   4.097   1.434 -0.0955  0.5823 -0.3162
 9991SOL    HW230873   1.769   4.250   1.481  0.8087 -0.1889  3.0106
 9992SOL     OW30874   1.601   4.342   6.789  0.1316  0.2145  0.1128
 9992SOL    HW130875   1.676   4.343   6.854  1.1421  0.7938 -1.0227
 9992SOL    HW230876   1.554   4.430   6.791 -0.3408 -0.0437  0.6101
 9993SOL     OW30877   4.081   1.418   5.904 -0.4797  0.1077 -0.7708
 9993SOL    HW130878   4.057   1.515   5.907  2.0727  0.8347 -1.1704
 9993SOL    HW230879   4.176   1.408   5.873 -0.1768 -2.4422  0.6707
 9994SOL     OW30880   6.021   5.088   6.041  0.8796  0.1555  0.0395
 9994SOL    HW130881   5.934   5.136   6.028  0.8361 -0.3099 -1.5974
 9994SOL    HW230882   6.096   5.148   6.015  0.8675 -0.3678 -1.2685
 9995SOL     OW30883   6.295   2.281   6.916 -0.3592 -0.6096 -0.4612
 9995SOL    HW130884   6.313   2.375   6.886 -0.1626 -1.1292 -2.1148
 9995SOL    HW230885   6.198   2.272   6.938  0.0657  0.6140  2.3537
 9996SOL     OW30886   4.803   6.024   0.392 -0.0313  0.4817 -0.5295
 9996SOL    HW130887   4.788   5.973   0.307 -0.2103  0.2084 -0.3361
 9996SOL    HW230888   4.716   6.058   0.427 -0.3723 -1.6243  0.9094
 9997SOL     OW30889   1.295   0.187   3.410  0.1207 -0.4968 -0.3685
 9997SOL    HW130890   1.335   0.114   3.466 -0.0335 -1.5694 -1.5949
 9997SOL    HW230891   1.206   0.213   3.447  0.7504  0.0193  0.8382
 9998SOL     OW30892   5.768   3.467   3.372  0.4662 -0.4247 -0.2200
 9998SOL    HW130893   5.703   3.466   3.297  1.0798 -1.2190 -0.7591
 9998SOL    HW230894   5.823   3.383   3.370  1.6688  0.3266  0.0678
 9999SOL     OW30895   0.168   0.142   5.602  1.0781  0.0752  0.0461
 9999SOL    HW130896   0.190   0.218   5.663 -0.3679  0.1429  0.5127
 9999SOL    HW230897   0.111   0.175   5.527 -1.3282 -0.8457  1.3632
10000SOL     OW30898   3.641   3.236   2.108 -0.1106  0.6408  0.5752
10000SOL    HW130899   3.594   3.323   2.098 -0.7006  0.1681 -1.1212
10000SOL    HW230900   3.721   3.248   2.167  1.5383  3.0521 -1.9007
10001SOL     OW30901   2.472   0.253   1.600 -0.2699  0.4143  0.4137
10001SOL    HW130902   2.516   0.247   1.511  0.0678  0.3943  0.5840
10001SOL    HW230903   2.540   0.246   1.673 -0.4980  0.7886  0.6705
10002SOL     OW30904   1.479   0.627   2.730  0.1807  0.0504 -0.5210
10002SOL    HW130905   1.469   0.717   2.688 -0.2583  0.7567  1.0102
10002SOL    HW230906   1.413   0.563   2.690  0.0810  0.5746 -1.2008
10003SOL     OW30907   6.989   0.456   3.406 -0.4514  0.1511 -0.2838
10003SOL    HW130908   6.912   0.480   3.347 -0.4288  1.3819  0.1725
10003SOL    HW230909   7.020   0.364   3.383 -2.8805 -0.9340  0.4091
10004SOL     OW30910   0.245   2.721   3.654 -0.1006  0.3659 -0.3059
10004SOL    HW130911   0.305   2.669   3.593  2.3329  1.4919  0.9666
10004SOL    HW230912   0.217   2.662   3.730  0.5426  0.1912 -0.1946
10005SOL     OW30913   3.051   5.193   2.896  0.3933  0.1994  0.0654
10005SOL    HW130914   3.094   5.263   2.839 -0.1799 -0.3839 -1.1000
10005SOL    HW230915   3.017   5.235   2.980  0.2411  1.2809 -0.5196
10006SOL     OW30916   1.184   2.138   5.713 -0.6197  0.0308  0.4445
10006SOL    HW130917   1.115   2.079   5.754 -0.5619 -1.4769 -1.4491
10006SOL    HW230918   1.184   2.125   5.614  1.4284  1.0364  0.2521
10007SOL     OW30919   1.334   5.079   3.916 -0.0093  0.5455  0.1379
10007SOL    HW130920   1.318   4.988   3.956 -1.4690 -0.3112 -2.1536
10007SOL    HW230921   1.247   5.120   3.891  0.7639  1.2892 -1.5071
10008SOL     OW30922   3.529   0.726   5.134  0.2781 -0.5389 -0.1995
10008SOL    HW130923   3.504   0.665   5.209 -1.8089  0.1617 -0.2642
10008SOL    HW230924   3.612   0.776   5.157 -0.5169 -0.0773  1.8231
10009SOL     OW30925   0.436   2.669   1.838 -0.5010 -0.2545  0.3804
10009SOL    HW130926   0.403   2.587   1.885 -0.3422 -0.4121  0.2192
10009SOL    HW230927   0.385   2.681   1.753  0.2910 -0.8627 -0.1913
10010SOL     OW30928   2.243   4.982   0.767  0.0214  0.3579 -0.0363
10010SOL    HW130929   2.204   4.960   0.677  0.0993  1.7250 -0.4278
10010SOL    HW230930   2.224   5.078   0.789  2.3064  0.8124  0.1818
10011SOL     OW30931   4.338   2.457   5.654  0.0475 -0.3258 -0.0970
10011SOL    HW130932   4.274   2.487   5.724  0.2332 -0.8018  0.2755
10011SOL    HW230933   4.425   2.506   5.666  0.2393 -0.7629  0.3038
10012SOL     OW30934   6.096   2.922   4.875  0.5772 -0.0347  0.9422
10012SOL    HW130935   6.111   2.990   4.947 -3.4707  3.7839 -1.3166
10012SOL    HW230936   6.154   2.942   4.797 -0.1545  0.4848  0.5196
10013SOL     OW30937   4.768   0.661   6.386 -0.5651 -0.3530 -0.1856
10013SOL    HW130938   4.864   0.656   6.360 -0.4630 -0.9215  0.2784
10013SOL    HW230939   4.716   0.591   6.337 -1.1945  1.4400 -2.2446
10014SOL     OW30940   0.856   1.872   1.705 -0.3770 -0.6400  0.0860
10014SOL    HW130941   0.826   1.826   1.789  0.8212 -0.0364  0.8635
10014SOL    HW230942   0.897   1.960   1.727 -0.5626 -0.2087 -1.1928
10015SOL     OW30943   3.108   0.265   0.906 -0.4110  0.5737  0.4184
10015SOL    HW130944   3.093   0.242   0.810  0.5313  2.9317 -0.3574
10015SOL    HW230945   3.054   0.204   0.963 -0.0134 -1.7494 -1.5135
10016SOL     OW30946   3.950   1.956   0.043 -0.2448  0.3815 -0.0992
10016SOL    HW130947   3.965   1.928   0.137  1.2587  0.6123 -0.2402
10016SOL    HW230948   3.963   1.877  -0.018  0.7317  0.6322 -0.2408
10017SOL     OW30949   3.169   1.662   0.610 -0.8495  0.5579 -1.1025
10017SOL    HW130950   3.080   1.697   0.579  0.8845  3.8840 -2.8929
10017SOL    HW230951   3.167   1.650   0.709 -3.0432  1.2806 -0.9939
10018SOL     OW30952   1.442   5.358   5.498  0.4946 -0.1019 -0.2839
10018SOL    HW130953   1.491   5.445   5.491 -0.0685  0.1519 -1.1541
10018SOL    HW230954   1.348   5.370   5.468 -0.3162 -0.4458  1.9284
10019SOL     OW30955   5.613   3.182   4.776 -0.0213  0.2207  0.8146
10019SOL    HW130956   5.657   3.163   4.864  1.7154  1.1049  0.1670
10019SOL    HW230957   5.524   3.226   4.792  1.1716  2.2725  2.1339
10020SOL     OW30958   0.657   1.491   2.554 -0.3976  0.2286 -0.1461
10020SOL    HW130959   0.620   1.414   2.607 -1.4461  0.6884 -0.1925
10020SOL    HW230960   0.726   1.457   2.491  1.7219 -0.2022  2.2402
10021SOL     OW30961   1.776   3.208   0.592 -0.0839  0.1977  0.0182
10021SOL    HW130962   1.742   3.186   0.501  1.4275  1.8627 -0.9923
10021SOL    HW230963   1.756   3.303   0.614 -0.6739 -0.2424  1.5887
10022SOL     OW30964   0.502   2.771   0.801 -0.1440  0.4954  0.0249
10022SOL    HW130965   0.529   2.806   0.711  0.9809  0.4569  0.3391
10022SOL    HW230966   0.444   2.691   0.789  0.5962  0.0521 -0.6688
10023SOL     OW30967   3.000   2.189   4.802  0.3170  0.2482 -0.2739
10023SOL    HW130968   2.959   2.179   4.893  0.2664 -0.2620 -0.3497
10023SOL    HW230969   3.022   2.285   4.785  1.0755  0.2319  0.5969
10024SOL     OW30970   1.985   4.234   2.196  0.7808 -0.1395  0.3888
10024SOL    HW130971   1.966   4.168   2.123 -0.3036 -0.4894  0.9670
10024SOL    HW230972   1.915   4.227   2.267  0.4466  1.8653  0.3211
10025SOL     OW30973   0.090   3.153   0.333 -0.1154  0.0134  0.5419
10025SOL    HW130974   0.034   3.234   0.352  1.1489  0.7057  1.4579
10025SOL    HW230975   0.119   3.112   0.420 -0.6410 -1.3734  0.0884
10026SOL     OW30976   6.239   1.126   5.017  0.7177 -0.2351  0.2432
10026SOL    HW130977   6.177   1.122   4.938  1.4140 -1.2658 -0.2746
10026SOL    HW230978   6.199   1.073   5.092  0.9628 -0.9381 -0.1054
10027SOL     OW30979   2.860   6.667   6.246  0.6198  0.1432 -0.6222
10027SOL    HW130980   2.787   6.637   6.185 -0.2799  0.0832  0.4661
10027SOL    HW230981   2.945   6.678   6.193 -0.1429  0.1554 -1.8852
10028SOL     OW30982   5.643   6.767   2.523  1.0018  0.1436 -0.0031
10028SOL    HW130983   5.715   6.705   2.493  1.1970 -0.3101  1.3522
10028SOL    HW230984   5.619   6.747   2.618 -0.4671  0.7103 -0.2266
10029SOL     OW30985   0.667   5.880   5.679 -0.1563 -0.2329 -0.6910
10029SOL    HW130986   0.593   5.831   5.632  0.1082  0.0646 -1.4340
10029SOL    HW230987   0.750   5.824   5.677 -0.0783 -0.1147 -0.8102
10030SOL     OW30988   1.914   5.988   4.942  0.3916 -0.0571  0.3647
10030SOL    HW130989   1.879   6.068   4.894  0.4751  0.2138  0.7547
10030SOL    HW230990   1.880   5.905   4.898  0.6049  0.1839 -0.2681
10031SOL     OW30991   4.087   5.095   2.413 -0.0223  0.0340  0.0379
10031SOL    HW130992   4.102   5.067   2.318 -0.0679 -1.8679  0.5622
10031SOL    HW230993   4.052   5.018   2.466 -0.4067  1.1826  1.5225
10032SOL     OW30994   3.782   7.016   5.405  0.1293 -0.3514  0.3215
10032SOL    HW130995   3.775   7.112   5.378  1.2107 -0.5115 -0.6115
10032SOL    HW230996   3.834   6.965   5.336  0.1794 -1.4657  1.1419
10033SOL     OW30997   1.786   2.036   3.231 -0.0984  0.2108  0.3530
10033SOL    HW130998   1.693   2.023   3.265 -0.0512  0.7544  0.7042
10033SOL    HW230999   1.811   1.959   3.174 -0.9452  0.2897 -0.1452
10034SOL     OW31000   2.061   5.571   2.843 -0.1772 -0.3937  0.5225
10034SOL    HW131001   2.147   5.521   2.851  0.9910  1.5010  0.5659
10034SOL    HW231002   2.025   5.590   2.934  0.3751  0.4147  0.5861
10035SOL     OW31003   6.803   4.630   2.714 -0.2719  0.3752 -0.1429
10035SOL    HW131004   6.765   4.556   2.660 -0.7090  1.4179 -1.3013
10035SOL    HW231005   6.903   4.628   2.708 -0.2659 -0.2684  0.0683
10036SOL     OW31006   6.124   2.692   0.226  0.5530 -0.1888 -0.1015
10036SOL    HW131007   6.207   2.739   0.198  0.7322 -1.8612 -2.7431
10036SOL    HW231008   6.046   2.731   0.176 -0.0854  0.4306  1.3133
10037SOL     OW31009   5.914   0.653   1.397  0.1366  0.0507 -0.2005
10037SOL    HW131010   5.865   0.657   1.310  1.4513 -5.2811 -1.5548
10037SOL    HW231011   5.855   0.614   1.467  0.7500 -1.3478 -0.4211
10038SOL     OW31012   5.601   5.516   6.984  0.3159 -0.1666  0.4632
10038SOL    HW131013   5.541   5.444   7.018  1.2978 -0.6560  1.2224
10038SOL    HW231014   5.670   5.476   6.923  0.1623  0.3069 -0.0208
10039SOL     OW31015   6.826   5.593   0.721  0.5258 -0.0168  0.5517
10039SOL    HW131016   6.807   5.644   0.637 -0.9326 -1.0202  0.2151
10039SOL    HW231017   6.917   5.553   0.716  1.2055  1.5020  0.2936
10040SOL     OW31018   2.249   0.430   1.615  0.1670 -0.0348 -0.3673
10040SOL    HW131019   2.303   0.357   1.572  0.5690 -1.0478  1.7367
10040SOL    HW231020   2.298   0.517   1.606  0.9920 -0.5079 -0.5923
10041SOL     OW31021   6.241   4.016   4.968 -0.3941  0.0893  0.3573
10041SOL    HW131022   6.300   4.096   4.975 -1.5871  1.0223  0.2039
10041SOL    HW231023   6.194   4.017   4.880  1.8070 -2.4287 -0.9517
10042SOL     OW31024   6.715   0.967   6.191 -0.1057  0.4973 -0.5422
10042SOL    HW131025   6.701   0.899   6.263 -1.3800  1.4334  0.1300
10042SOL    HW231026   6.812   0.992   6.187  0.1157 -0.1911  0.2589
10043SOL     OW31027   1.008   2.236   4.057  0.6885 -0.3768 -0.0600
10043SOL    HW131028   0.926   2.277   4.099  0.8910  1.5315 -1.3870
10043SOL    HW231029   0.980   2.171   3.986  0.2866  0.6272 -0.8411
10044SOL     OW31030   3.964   2.061   5.970  0.1974 -0.5115 -0.3581
10044SOL    HW131031   3.898   2.020   5.908 -0.1324 -0.9759  0.2782
10044SOL    HW231032   3.966   2.008   6.055  0.3035  0.3679  0.2009
10045SOL     OW31033   3.318   1.252   4.183 -0.2446 -0.1816  0.0344
10045SOL    HW131034   3.230   1.273   4.224 -0.4214 -0.5522 -0.1477
10045SOL    HW231035   3.305   1.184   4.110  0.3333 -1.0495  0.7303
10046SOL     OW31036   6.359   2.894   0.748  0.4277  0.4569 -0.1068
10046SOL    HW131037   6.318   2.948   0.822 -0.2922 -0.0217 -0.1485
10046SOL    HW231038   6.376   2.953   0.670 -0.1827  0.6742 -0.0839
10047SOL     OW31039   0.127   1.153   2.876 -0.2106  0.0511  0.1878
10047SOL    HW131040   0.186   1.140   2.796 -0.5759 -0.0628 -0.0617
10047SOL    HW231041   0.057   1.082   2.878 -2.0549  1.7417 -1.0351
10048SOL     OW31042   3.018   3.435   2.726 -0.2926 -0.3753  0.0104
10048SOL    HW131043   3.086   3.372   2.689  2.0140  1.1907  1.2698
10048SOL    HW231044   2.991   3.406   2.818  1.2237  0.6432  0.8396
10049SOL     OW31045   1.630   4.830   5.421 -0.1547  0.2825 -0.3276
10049SOL    HW131046   1.546   4.811   5.371  0.3252 -0.7415 -0.7661
10049SOL    HW231047   1.699   4.761   5.399  1.7558  2.5931 -2.1586
10050SOL     OW31048   0.757   0.510   4.208  0.1581 -0.1581 -0.1149
10050SOL    HW131049   0.812   0.477   4.131 -2.6651 -1.0570 -1.8926
10050SOL    HW231050   0.667   0.536   4.175 -1.2716 -0.8270  2.9749
10051SOL     OW31051   5.144   2.205   1.399  0.0716 -0.4254  0.4500
10051SOL    HW131052   5.097   2.205   1.311  3.4860  1.0494 -1.5812
10051SOL    HW231053   5.183   2.296   1.415  2.5945 -1.6351  1.6613
10052SOL     OW31054   2.283   5.241   1.598 -0.0093 -0.2312  0.5427
10052SOL    HW131055   2.212   5.240   1.669  2.2812 -1.7711  3.0291
10052SOL    HW231056   2.372   5.257   1.641  1.3017  0.8731 -2.3391
10053SOL     OW31057   1.612   5.601   4.754  0.6733  0.0914  0.0053
10053SOL    HW131058   1.681   5.585   4.684  1.3560  0.4905  0.5747
10053SOL    HW231059   1.522   5.574   4.719  0.8485  1.1921 -1.3781
10054SOL     OW31060   4.305   5.376   4.990 -0.5115 -0.3732 -0.1051
10054SOL    HW131061   4.376   5.313   4.960  0.7403  0.6232  0.6589
10054SOL    HW231062   4.265   5.422   4.910  0.7803  0.1583 -0.4707
10055SOL     OW31063   6.829   4.020   5.800  0.6099  0.2370 -0.5433
10055SOL    HW131064   6.870   4.073   5.726  1.5214 -0.7995 -0.8119
10055SOL    HW231065   6.901   3.983   5.859 -0.1148  1.6650  1.3477
10056SOL     OW31066   4.853   5.272   3.689 -0.2268 -0.1152 -0.4513
10056SOL    HW131067   4.800   5.293   3.772 -0.2731  1.0110 -0.7533
10056SOL    HW231068   4.948   5.256   3.714  0.1813  2.1630 -0.3525
10057SOL     OW31069   3.462   1.733   2.589  0.5308 -0.3436  0.1768
10057SOL    HW131070   3.542   1.710   2.645 -0.2577 -2.2980  0.5834
10057SOL    HW231071   3.406   1.652   2.576 -1.0798  0.8380 -0.6410
10058SOL     OW31072   1.990   5.601   4.866  0.3503 -0.4528  0.0795
10058SOL    HW131073   2.008   5.584   4.769  1.0472 -1.0942  0.3160
10058SOL    HW231074   1.939   5.687   4.876  0.0534 -0.5127 -0.8691
10059SOL     OW31075   4.703   6.588   2.896 -0.2155  0.2849  0.3575
10059SOL    HW131076   4.687   6.647   2.974  0.3790  0.2418  0.5183
10059SOL    HW231077   4.781   6.528   2.915  0.3003  0.6756 -0.4931
10060SOL     OW31078   2.779   2.339   2.850 -0.0934  0.4392  0.0371
10060SOL    HW131079   2.751   2.280   2.774 -1.1617  1.1093 -0.0975
10060SOL    HW231080   2.699   2.379   2.893  0.5589  0.8324  0.9194
10061SOL     OW31081   0.736   1.104   5.238  0.4207  0.0973  0.2886
10061SOL    HW131082   0.790   1.024   5.267 -1.2248 -1.6238 -1.1200
10061SOL    HW231083   0.792   1.163   5.180  2.0806  0.7594  2.4116
10062SOL     OW31084   4.119   5.507   1.415  0.1738 -0.4917  0.3695
10062SOL    HW131085   4.129   5.570   1.492  0.6220  0.7883 -0.6974
10062SOL    HW231086   4.033   5.524   1.368  0.5059 -0.3524 -0.1993
10063SOL     OW31087   6.386   2.332   3.241  0.4274 -0.6072 -0.1303
10063SOL    HW131088   6.352   2.258   3.183  1.9476 -0.7037 -0.9276
10063SOL    HW231089   6.463   2.300   3.295 -1.2075 -0.6415  2.3292
10064SOL     OW31090   4.824   4.008   4.632 -0.1412  0.0227  0.1746
10064SOL    HW131091   4.892   3.934   4.629 -1.4006 -1.1601 -1.4181
10064SOL    HW231092   4.783   4.018   4.541 -0.1199  2.6231  0.3864
10065SOL     OW31093   0.229   0.248   2.615  0.8574  0.3786  0.5066
10065SOL    HW131094   0.231   0.188   2.696  0.1118 -0.9932 -0.4488
10065SOL    HW231095   0.142   0.297   2.612  0.5431 -0.1949  0.1135
10066SOL     OW31096   1.672   1.968   4.391  0.4795 -0.3842 -0.0004
10066SOL    HW131097   1.731   1.929   4.320  0.4588  2.1855 -1.5902
10066SOL    HW231098   1.577   1.944   4.372  0.5699 -0.5474 -0.2544
10067SOL     OW31099   4.324   0.416   3.189  0.4406  0.2151  0.1129
10067SOL    HW131100   4.376   0.362   3.255  0.0317  0.5275  0.6917
10067SOL    HW231101   4.308   0.362   3.106 -0.6051 -0.8180  0.9673
10068SOL     OW31102   4.980   4.816   0.117 -0.4516  0.2355 -0.2217
10068SOL    HW131103   4.958   4.858   0.205 -3.4610 -2.2895  0.4028
10068SOL    HW231104   4.941   4.871   0.043 -0.1713  1.0081  0.1966
10069SOL     OW31105   0.104   1.844   5.547 -0.3601  0.2838  0.0292
10069SOL    HW131106   0.028   1.788   5.513 -0.2439  0.4629 -0.5426
10069SOL    HW231107   0.101   1.846   5.646 -0.9953  0.1325  0.0231
10070SOL     OW31108   3.351   0.180   6.629  0.1049  0.3489 -0.1428
10070SOL    HW131109   3.359   0.271   6.588 -3.4719  0.3303 -1.1850
10070SOL    HW231110   3.356   0.110   6.558 -0.8126 -0.0059  0.1250
10071SOL     OW31111   4.790   4.833   4.787  0.0018 -0.4234  0.0093
10071SOL    HW131112   4.801   4.891   4.707 -0.9421  0.1309  0.2648
10071SOL    HW231113   4.811   4.738   4.763 -0.0983 -0.2359 -0.8382
10072SOL     OW31114   2.096   6.613   5.614  0.1077  0.1575 -0.8027
10072SOL    HW131115   2.110   6.515   5.620 -0.0369  0.1812  0.1077
10072SOL    HW231116   2.021   6.640   5.676  2.5151  1.3019  1.8600
10073SOL     OW31117   1.236   5.841   6.388  0.3194 -0.4377 -0.0750
10073SOL    HW131118   1.178   5.916   6.356  2.0506  0.7968 -0.5279
10073SOL    HW231119   1.226   5.830   6.486 -0.7580 -0.3304 -0.1660
10074SOL     OW31120   3.488   0.100   0.657 -0.3676  0.1877  0.4543
10074SOL    HW131121   3.469   0.161   0.580  1.7787 -1.6774 -1.7316
10074SOL    HW231122   3.431   0.125   0.735 -2.0868  2.6878 -1.4597
10075SOL     OW31123   3.090   1.333   4.361 -0.5342 -0.0193 -0.1949
10075SOL    HW131124   2.998   1.296   4.372 -0.9896  0.8788 -0.8093
10075SOL    HW231125   3.086   1.415   4.303  0.7024 -0.1813 -0.5356
10076SOL     OW31126   6.499   0.510   3.474 -0.0360 -0.0411  0.0750
10076SOL    HW131127   6.443   0.511   3.557 -1.2762 -0.1436 -0.7384
10076SOL    HW231128   6.492   0.598   3.428  1.2197  0.2623  0.4237
10077SOL     OW31129   2.981   1.249   0.507  0.2812  1.0547 -0.7163
10077SOL    HW131130   3.052   1.303   0.553  1.7414  0.7339 -2.4864
10077SOL    HW231131   2.945   1.181   0.570  2.5404  0.3145 -0.1380
10078SOL     OW31132   4.050   5.158   3.310  0.1809  0.2071  0.1522
10078SOL    HW131133   4.015   5.068   3.337  0.4692  0.3012  0.8435
10078SOL    HW231134   3.976   5.225   3.316  0.2682  0.2508  0.8381
10079SOL     OW31135   0.059   3.997   3.881 -0.7398  0.1291  0.0258
10079SOL    HW131136   0.022   3.942   3.806 -1.5375 -0.2089  0.6561
10079SOL    HW231137   0.102   4.079   3.844 -0.1063 -0.5931 -0.8842
10080SOL     OW31138   0.766   3.540   0.990 -0.1055 -0.3571  0.2732
10080SOL    HW131139   0.817   3.567   0.909  0.2111  1.5020  1.0558
10080SOL    HW231140   0.683   3.596   0.998 -0.1440 -0.5301  1.2245
10081SOL     OW31141   1.451   2.459   1.229 -0.0526  0.2850 -0.4589
10081SOL    HW131142   1.507   2.406   1.292  0.2136  0.9970 -0.0876
10081SOL    HW231143   1.358   2.467   1.265 -0.2855 -0.5041 -0.8531
10082SOL     OW31144   6.777   6.017   3.862 -0.4319 -0.3642 -0.3489
10082SOL    HW131145   6.756   5.920   3.871 -0.1413 -0.3395  0.8011
10082SOL    HW231146   6.852   6.041   3.923 -0.9340  0.7170 -0.1164
10083SOL     OW31147   6.381   1.710   5.386  0.0649 -0.2358  0.0585
10083SOL    HW131148   6.361   1.691   5.482  0.3770  1.7894  0.5680
10083SOL    HW231149   6.303   1.759   5.345 -0.5008 -1.9680 -1.0462
10084SOL     OW31150   3.399   0.893   6.262  0.6141  0.0481 -0.4831
10084SOL    HW131151   3.421   0.894   6.359  1.2767 -0.6538 -0.6138
10084SOL    HW231152   3.329   0.825   6.244  0.6940 -0.0221 -0.5326
10085SOL     OW31153   2.641   4.806   0.881 -0.6192 -0.2817  0.0389
10085SOL    HW131154   2.584   4.853   0.814 -0.0818  2.6055  1.4521
10085SOL    HW231155   2.588   4.791   0.965 -0.2974 -0.8245  0.1533
10086SOL     OW31156   6.135   3.081   0.713 -0.2870 -0.3485 -0.2966
10086SOL    HW131157   6.183   3.090   0.800 -2.5355 -0.0978  0.9869
10086SOL    HW231158   6.174   3.145   0.647 -0.6902  1.9763  1.5761
10087SOL     OW31159   2.357   0.324   4.540 -0.0093  0.5045 -0.1953
10087SOL    HW131160   2.385   0.248   4.599 -0.0829  1.6789  1.3900
10087SOL    HW231161   2.293   0.290   4.471 -1.0737 -0.6412  1.3100
10088SOL     OW31162   5.364   0.763   5.911 -0.2686 -0.1791  0.1501
10088SOL    HW131163   5.363   0.669   5.877 -0.5861 -1.0849  2.5066
10088SOL    HW231164   5.458   0.793   5.923 -0.1419  0.1859 -1.4322
10089SOL     OW31165   1.235   2.584   1.324 -0.0034  0.4234  0.0419
10089SOL    HW131166   1.236   2.619   1.418  1.1602  1.3458 -0.2820
10089SOL    HW231167   1.217   2.660   1.261 -0.0679 -0.0595 -0.5218
10090SOL     OW31168   0.310   4.833   2.131 -0.1701 -0.6681 -0.1668
10090SOL    HW131169   0.371   4.851   2.054  0.4158 -0.2030  0.3826
10090SOL    HW231170   0.256   4.751   2.114 -0.9117  0.0810 -1.5772
10091SOL     OW31171   6.118   2.396   3.333  0.4542  0.0350  0.3090
10091SOL    HW131172   6.214   2.370   3.336  0.5321  0.3833  0.9138
10091SOL    HW231173   6.073   2.367   3.417  0.3567  1.1081  0.6382
10092SOL     OW31174   2.451   2.086   5.167  0.4443  0.6285 -0.9349
10092SOL    HW131175   2.371   2.084   5.107 -0.6795  0.0884  0.5411
10092SOL    HW231176   2.484   2.180   5.175 -2.4525  1.6029  1.4531
10093SOL     OW31177   6.492   6.864   6.656 -0.3152  0.1211 -0.1886
10093SOL    HW131178   6.580   6.863   6.704 -0.7971  0.3948  0.7305
10093SOL    HW231179   6.503   6.825   6.565  0.5214 -0.9205  0.3354
10094SOL     OW31180   6.959   0.199   1.278  0.0891  0.1297 -0.1353
10094SOL    HW131181   6.939   0.110   1.236  1.1957  0.2164 -0.8774
10094SOL    HW231182   6.876   0.256   1.275  0.2907  0.3952 -2.9104
10095SOL     OW31183   0.118   2.259   3.260 -0.2120 -0.0007 -0.1858
10095SOL    HW131184   0.164   2.202   3.329  0.5912 -0.1982 -0.8615
10095SOL    HW231185   0.110   2.208   3.175  1.7153  1.2855 -1.2152
10096SOL     OW31186   1.008   6.079   3.530 -0.2225 -0.3165 -0.7351
10096SOL    HW131187   0.911   6.100   3.517 -0.1894  0.1510 -0.2510
10096SOL    HW231188   1.025   6.054   3.626  0.1317 -0.4220 -0.8226
10097SOL     OW31189   0.276   1.445   3.820 -0.1343  0.3972 -0.0334
10097SOL    HW131190   0.332   1.528   3.827 -0.7455  0.8430 -0.3729
10097SOL    HW231191   0.335   1.364   3.826  0.4239  0.8527  0.6432
10098SOL     OW31192   3.993   4.647   0.097  0.2288 -0.6595 -0.6477
10098SOL    HW131193   3.915   4.703   0.070  0.1174 -1.4656 -2.0961
10098SOL    HW231194   4.025   4.676   0.187 -1.2866  0.1433 -0.3366
10099SOL     OW31195   0.950   4.291   2.321  0.1581 -0.6919  0.7454
10099SOL    HW131196   0.874   4.239   2.361  1.2431 -1.6435  1.6195
10099SOL    HW231197   1.016   4.228   2.281  1.5282 -0.0117  1.8759
10100SOL     OW31198   3.981   1.156   3.389  0.3939 -0.2789 -0.0688
10100SOL    HW131199   3.909   1.127   3.452  0.0000  1.3442  0.2839
10100SOL    HW231200   3.966   1.117   3.299 -0.7696 -0.2068  0.0835
10101SOL     OW31201   5.238   4.607   3.806 -0.1349  0.0184  0.3359
10101SOL    HW131202   5.193   4.646   3.726  2.4572  0.0190 -1.2343
10101SOL    HW231203   5.239   4.508   3.799  1.3023  0.0533 -0.4219
10102SOL     OW31204   3.210   2.132   2.929 -0.0164 -0.3995  0.1945
10102SOL    HW131205   3.283   2.169   2.872 -0.5987 -1.3579 -1.2599
10102SOL    HW231206   3.223   2.033   2.938 -0.2303 -0.3344  1.3233
10103SOL     OW31207   0.599   2.110   6.832  0.1500 -0.3073 -0.3319
10103SOL    HW131208   0.562   2.175   6.765  1.0294 -0.0569 -0.5924
10103SOL    HW231209   0.693   2.136   6.854  0.4688 -1.4377 -0.3410
10104SOL     OW31210   2.917   6.958   0.794 -0.5111  0.1004 -0.1678
10104SOL    HW131211   2.838   6.951   0.854 -0.7635 -1.7377 -0.6489
10104SOL    HW231212   2.905   6.896   0.716  1.3382 -0.1151 -0.3235
10105SOL     OW31213   5.556   1.991   0.245  0.0824 -0.2222 -0.0751
10105SOL    HW131214   5.615   1.918   0.210  2.3288  1.6350 -0.4776
10105SOL    HW231215   5.494   2.021   0.172  0.3870 -0.5561 -0.4798
10106SOL     OW31216   5.295   5.891   2.502 -0.0200  0.0206 -0.1199
10106SOL    HW131217   5.201   5.925   2.511 -0.0182 -0.0523  0.1710
10106SOL    HW231218   5.301   5.831   2.422 -0.0428  0.6342 -0.5962
10107SOL     OW31219   4.685   2.350   5.753 -0.0777 -0.1901 -0.0176
10107SOL    HW131220   4.633   2.420   5.802  1.1438  0.0806  0.9483
10107SOL    HW231221   4.752   2.394   5.693 -1.3599 -0.5249 -1.7791
10108SOL     OW31222   4.303   6.804   1.910  0.0948 -0.4944  0.2695
10108SOL    HW131223   4.275   6.881   1.852 -0.1091 -2.1831 -1.9937
10108SOL    HW231224   4.332   6.839   2.000 -0.5133  2.1365 -0.4658
10109SOL     OW31225   5.720   6.692   2.156 -0.8412 -0.0600 -0.1394
10109SOL    HW131226   5.667   6.776   2.161  0.0526  0.6012 -1.2735
10109SOL    HW231227   5.809   6.707   2.200 -0.4820 -0.2318 -0.7878
10110SOL     OW31228   1.947   2.061   6.768 -0.9252 -0.2932  0.2429
10110SOL    HW131229   1.939   2.068   6.669  3.1752 -1.0210 -0.3412
10110SOL    HW231230   1.954   1.964   6.794  2.3893 -0.1121  0.5253
10111SOL     OW31231   6.273   1.411   0.168 -0.5983  0.4113  0.1757
10111SOL    HW131232   6.230   1.481   0.111 -1.7874 -0.1291  0.3807
10111SOL    HW231233   6.205   1.370   0.228  0.3468 -0.0354  0.9788
10112SOL     OW31234   4.609   4.480   4.933 -0.6458 -0.8531 -0.1604
10112SOL    HW131235   4.517   4.477   4.972 -0.2513 -2.5414  0.7035
10112SOL    HW231236   4.602   4.501   4.835 -1.9422 -0.9042 -0.0972
10113SOL     OW31237   5.574   5.249   0.291  0.3052  0.3709 -0.0873
10113SOL    HW131238   5.587   5.155   0.322  0.0063  0.7639  1.2970
10113SOL    HW231239   5.583   5.253   0.191 -0.3434 -1.2335 -0.2364
10114SOL     OW31240   2.982   2.210   0.938  0.2629 -0.3679 -0.5421
10114SOL    HW131241   2.999   2.204   0.840  1.6935  0.1396 -0.3559
10114SOL    HW231242   3.069   2.216   0.987 -0.4352  0.4661  0.6768
10115SOL     OW31243   2.275   1.677   6.105  0.0203 -0.1760 -0.4367
10115SOL    HW131244   2.298   1.583   6.079  0.3276  0.2173 -1.6693
10115SOL    HW231245   2.211   1.716   6.039 -0.4159  0.3633  0.2813
10116SOL     OW31246   2.451   0.046   2.449  0.2847  0.3383 -0.0972
10116SOL    HW131247   2.516  -0.027   2.427  0.1961  0.0525  0.5790
10116SOL    HW231248   2.405   0.075   2.365  1.3913  0.6562 -0.6159
10117SOL     OW31249   3.692   0.596   5.331  0.4116 -0.2804  0.1516
10117SOL    HW131250   3.771   0.620   5.274  0.4960  0.3828  0.5361
10117SOL    HW231251   3.702   0.638   5.421 -1.3732  1.5934 -0.4491
10118SOL     OW31252   5.700   3.878   5.552  0.4784  0.5373 -0.0310
10118SOL    HW131253   5.641   3.952   5.520  1.0626  0.4407 -1.4207
10118SOL    HW231254   5.781   3.872   5.494  1.1264 -0.3012  0.9143
10119SOL     OW31255   2.787   6.115   0.839 -0.0345  0.2415  0.1968
10119SOL    HW131256   2.831   6.205   0.844 -0.6658  0.5808 -0.2670
10119SOL    HW231257   2.857   6.044   0.844  0.6001  0.7776 -0.7153
10120SOL     OW31258   5.959   2.022   2.776  0.2732 -0.4408  0.5800
10120SOL    HW131259   5.897   1.979   2.841 -1.4340  0.4661 -0.3673
10120SOL    HW231260   5.989   2.110   2.812  0.7235 -0.7106  0.8736
10121SOL     OW31261   0.840   4.826   4.037  0.4811  0.1144 -0.4734
10121SOL    HW131262   0.743   4.842   4.051  0.2254 -0.6024 -1.3403
10121SOL    HW231263   0.877   4.775   4.114  0.2576  0.7278  0.0418
10122SOL     OW31264   4.493   1.817   0.860 -0.2262 -0.0949 -0.4980
10122SOL    HW131265   4.543   1.736   0.889 -1.4757 -0.3998  0.9190
10122SOL    HW231266   4.557   1.885   0.826  1.1104 -0.6392  0.8276
10123SOL     OW31267   1.723   6.377   1.475 -0.4628  0.2990  0.4361
10123SOL    HW131268   1.795   6.421   1.528  0.7344 -0.9027 -0.1160
10123SOL    HW231269   1.761   6.296   1.429 -2.0626 -0.0963 -0.2478
10124SOL     OW31270   3.004   3.549   0.382  0.6664  0.0162 -0.1434
10124SOL    HW131271   3.022   3.450   0.386  0.4308 -0.1163 -1.7460
10124SOL    HW231272   2.960   3.571   0.295  3.6589  1.9735 -1.3143
10125SOL     OW31273   1.328   6.963   0.693  0.6806  0.2956  0.1744
10125SOL    HW131274   1.315   7.035   0.625  0.6824  0.2918  0.1697
10125SOL    HW231275   1.248   6.960   0.753  0.0986 -0.5589 -0.6243
10126SOL     OW31276   6.867   5.924   0.070  0.2677  0.0477 -0.1793
10126SOL    HW131277   6.811   5.842   0.068 -0.1324  0.2589 -3.3779
10126SOL    HW231278   6.881   5.953   0.164 -0.7436 -2.8533  0.9649
10127SOL     OW31279   4.987   3.469   4.877  0.6415 -0.2612 -0.0823
10127SOL    HW131280   4.928   3.491   4.955  0.1617  0.3478 -0.6017
10127SOL    HW231281   5.041   3.388   4.898  0.2517 -0.3214  0.7420
10128SOL     OW31282   1.669   0.281   1.882  0.5858 -0.0111 -0.0136
10128SOL    HW131283   1.757   0.294   1.927  1.2828 -1.5065 -0.8743
10128SOL    HW231284   1.683   0.250   1.789 -0.8473 -1.1486  0.1124
10129SOL     OW31285   4.288   1.515   3.583 -0.3520 -0.2458  0.1169
10129SOL    HW131286   4.385   1.534   3.574 -0.5467  1.1242  0.6217
10129SOL    HW231287   4.275   1.423   3.618  0.7284 -0.7825 -0.8425
10130SOL     OW31288   5.278   0.028   2.333  0.4625 -0.1835 -0.4528
10130SOL    HW131289   5.362   0.082   2.343  0.2831  0.5411 -2.4239
10130SOL    HW231290   5.230   0.026   2.421  2.4290 -0.4894  0.6869
10131SOL     OW31291   1.850   1.523   6.124  0.1234  0.2381 -0.3449
10131SOL    HW131292   1.912   1.536   6.201 -1.5184  2.2319  0.7399
10131SOL    HW231293   1.796   1.440   6.138 -0.6905  0.9710  1.0977
10132SOL     OW31294   1.941   4.133   1.726  0.1421  0.3267 -0.3650
10132SOL    HW131295   1.969   4.111   1.820 -0.8494 -1.2365 -0.4056
10132SOL    HW231296   1.964   4.058   1.665 -0.7206  0.6124 -1.0700
10133SOL     OW31297   0.162   4.740   2.974  0.6208 -0.4726  0.3102
10133SOL    HW131298   0.097   4.727   3.049  1.3257 -0.3538  0.9578
10133SOL    HW231299   0.254   4.717   3.005  0.7483 -1.7988 -0.9365
10134SOL     OW31300   1.919   2.709   2.186  0.1758  0.6411  0.6152
10134SOL    HW131301   2.002   2.740   2.140  0.8978 -0.1860  1.3226
10134SOL    HW231302   1.943   2.667   2.274 -0.7820 -1.3410  0.0021
10135SOL     OW31303   4.500   0.940   3.509 -0.5499  0.2825 -0.0196
10135SOL    HW131304   4.524   0.929   3.412  0.1266 -1.0701  0.2692
10135SOL    HW231305   4.581   0.922   3.565 -1.2319 -0.1702  0.8410
10136SOL     OW31306   6.803   5.934   3.049  0.2042 -0.0418 -0.2369
10136SOL    HW131307   6.766   6.024   3.025 -1.1177 -0.4496  0.1581
10136SOL    HW231308   6.790   5.918   3.147 -0.5323 -1.0726 -0.4828
10137SOL     OW31309   6.451   4.162   5.016  0.1500 -0.6543 -0.0728
10137SOL    HW131310   6.499   4.110   4.945 -0.7612 -2.2756  0.4486
10137SOL    HW231311   6.481   4.131   5.106  2.0768  2.1111  0.3593
10138SOL     OW31312   5.752   2.730   5.809  0.1135 -0.0688  0.4277
10138SOL    HW131313   5.765   2.642   5.764  1.3766  0.4369 -0.2518
10138SOL    HW231314   5.826   2.746   5.874  0.4161  0.8839 -0.1311
10139SOL     OW31315   3.177   3.257   2.606  0.0017  0.7996  0.0270
10139SOL    HW131316   3.199   3.250   2.703 -1.5111  1.8018  0.4762
10139SOL    HW231317   3.142   3.169   2.574  0.5308  0.4563  0.3702
10140SOL     OW31318   1.418   6.053   3.725 -0.0756  0.3431  0.4532
10140SOL    HW131319   1.396   6.147   3.700 -0.7143  0.4964  1.5262
10140SOL    HW231320   1.518   6.041   3.726 -0.0071  0.4523 -1.5701
10141SOL     OW31321   4.214   0.525   3.902  0.2080 -0.3853 -0.1317
10141SOL    HW131322   4.177   0.616   3.920  1.6622 -0.0850  1.6105
10141SOL    HW231323   4.215   0.509   3.803 -0.5092  1.2912 -0.4509
10142SOL     OW31324   4.544   4.390   3.887 -0.0004 -0.6452 -0.3646
10142SOL    HW131325   4.613   4.321   3.863 -0.6486 -1.0103 -1.2323
10142SOL    HW231326   4.477   4.349   3.949 -0.1015 -0.6497 -0.4763
10143SOL     OW31327   3.786   6.941   0.177  0.5463  0.0416 -0.2981
10143SOL    HW131328   3.726   6.902   0.247 -0.5909  0.0707 -1.2225
10143SOL    HW231329   3.803   6.873   0.106 -0.9326  0.9635 -1.6015
10144SOL     OW31330   1.278   3.692   3.431 -0.7292 -0.1439  0.1489
10144SOL    HW131331   1.272   3.757   3.506 -2.0152 -0.1632  0.0774
10144SOL    HW231332   1.374   3.680   3.405 -0.4716  2.1166 -0.1737
10145SOL     OW31333   3.213   0.920   1.948  0.1874 -0.6268  0.0232
10145SOL    HW131334   3.155   0.887   2.023  0.2420 -0.8375 -0.0266
10145SOL    HW231335   3.225   1.019   1.956  0.7253 -0.7347  0.6682
10146SOL     OW31336   5.117   4.384   4.209 -0.1236 -0.2062  0.5300
10146SOL    HW131337   5.109   4.335   4.296 -1.5589 -0.2489  0.4025
10146SOL    HW231338   5.028   4.386   4.164 -0.1127  2.4454  0.4794
10147SOL     OW31339   4.277   6.555   5.938  0.1164  0.1836  0.2825
10147SOL    HW131340   4.215   6.616   5.888  0.7692  0.5006 -0.1475
10147SOL    HW231341   4.272   6.575   6.036 -1.3298 -0.5808  0.3972
10148SOL     OW31342   5.615   6.423   2.286 -0.2934 -0.4147 -0.1030
10148SOL    HW131343   5.555   6.378   2.220  0.6151 -0.7225 -0.7362
10148SOL    HW231344   5.651   6.507   2.246  4.6137 -3.1808 -2.3763
10149SOL     OW31345   3.683   2.771   1.524 -0.8988 -0.2563  0.6747
10149SOL    HW131346   3.689   2.805   1.431 -0.0874 -0.6226  0.5823
10149SOL    HW231347   3.678   2.671   1.523 -1.0028 -0.2569  1.0211
10150SOL     OW31348   5.144   4.370   1.306  0.0847 -0.2708 -0.1455
10150SOL    HW131349   5.234   4.355   1.347  0.3951  1.5833 -0.0960
10150SOL    HW231350   5.123   4.292   1.246  1.0867 -1.4028  0.8946
10151SOL     OW31351   1.155   5.978   5.414 -0.0665 -0.0533 -0.4856
10151SOL    HW131352   1.085   6.050   5.416 -0.5259 -0.2701 -3.5559
10151SOL    HW231353   1.114   5.891   5.442 -0.3653  0.2799  0.1274
10152SOL     OW31354   2.855   5.540   2.041 -0.1294 -0.1003  0.4865
10152SOL    HW131355   2.804   5.615   2.082 -0.5696 -0.9925  1.6455
10152SOL    HW231356   2.791   5.474   2.002  0.2558  0.1543 -0.6097
10153SOL     OW31357   0.196   4.708   4.021 -0.1998  0.3994 -0.4447
10153SOL    HW131358   0.101   4.683   4.005 -0.1483 -0.8220  0.9173
10153SOL    HW231359   0.245   4.712   3.934 -1.4040  0.6717 -1.1215
10154SOL     OW31360   6.698   5.717   0.060  0.3621 -0.1897  0.3424
10154SOL    HW131361   6.710   5.640  -0.003  0.5818  0.8570 -0.9644
10154SOL    HW231362   6.622   5.774   0.027  0.3255  0.2489  1.1811
10155SOL     OW31363   2.351   6.657   5.555 -0.4073  0.4938 -0.2096
10155SOL    HW131364   2.255   6.640   5.576 -0.8060  0.3806 -1.9777
10155SOL    HW231365   2.391   6.716   5.625 -0.6642 -2.5086  2.7349
10156SOL     OW31366   6.080   5.832   2.619  0.0384 -0.2949  0.4310
10156SOL    HW131367   6.055   5.904   2.554  1.6583 -0.5410 -0.5222
10156SOL    HW231368   6.015   5.757   2.612 -0.6701  0.3277  0.1864
10157SOL     OW31369   0.420   1.318   3.420 -0.0006 -0.0831 -0.3435
10157SOL    HW131370   0.406   1.220   3.435 -0.8919 -0.0164 -0.6501
10157SOL    HW231371   0.503   1.332   3.367 -1.4544 -0.9401 -3.0636
10158SOL     OW31372   0.605   4.289   4.915 -0.5203  0.0544  0.3771
10158SOL    HW131373   0.703   4.270   4.919 -0.6021 -0.2211  1.3729
10158SOL    HW231374   0.555   4.212   4.955 -1.1498  0.1463 -0.2200
10159SOL     OW31375   3.238   0.711   7.002  0.0759  0.3621  0.0380
10159SOL    HW131376   3.309   0.651   7.039 -0.0244  0.6482  0.6972
10159SOL    HW231377   3.194   0.666   6.924 -0.9620 -1.0429  1.3859
10160SOL     OW31378   0.218   6.606   4.887 -0.1335  0.2985  0.7225
10160SOL    HW131379   0.136   6.663   4.881  0.6676  1.4271 -4.4735
10160SOL    HW231380   0.295   6.662   4.919  0.1053  1.6627 -1.9327
10161SOL     OW31381   4.038   6.085   5.372  0.4763 -0.5253  0.2477
10161SOL    HW131382   3.995   6.101   5.460 -3.6189 -0.8834 -1.4741
10161SOL    HW231383   4.031   5.988   5.348  0.1097 -0.1931 -1.0806
10162SOL     OW31384   5.592   3.560   5.075 -0.7065  0.4020  0.9968
10162SOL    HW131385   5.547   3.617   5.005  0.6377 -0.3601 -0.5443
10162SOL    HW231386   5.633   3.620   5.144 -0.9305  1.2252  0.4411
10163SOL     OW31387   1.033   3.461   1.091 -0.4535 -0.3902 -0.0622
10163SOL    HW131388   1.080   3.513   1.163  1.6280  0.8680 -2.1757
10163SOL    HW231389   0.941   3.498   1.078  0.3317  1.6509 -0.2556
10164SOL     OW31390   2.289   2.975   6.455 -0.1650 -0.4252 -0.3324
10164SOL    HW131391   2.275   2.946   6.360  0.2504  0.4867 -0.6831
10164SOL    HW231392   2.210   3.026   6.486  0.2266  0.3763 -0.6250
10165SOL     OW31393   1.174   2.179   2.239  0.0745  0.1429  0.6406
10165SOL    HW131394   1.261   2.130   2.231  0.4647  0.9856 -0.3482
10165SOL    HW231395   1.184   2.272   2.205 -1.1159  0.3833  0.9016
10166SOL     OW31396   0.220   0.159   1.375 -0.1578 -0.7180 -0.1475
10166SOL    HW131397   0.287   0.179   1.304 -1.5235  1.3203 -0.9723
10166SOL    HW231398   0.128   0.176   1.339 -0.9700 -1.0129  1.6787
10167SOL     OW31399   3.310   2.325   0.556  0.0161  0.0329 -0.1348
10167SOL    HW131400   3.300   2.242   0.610 -2.1642  1.4256  1.8093
10167SOL    HW231401   3.339   2.302   0.463 -2.6007 -3.1081 -0.3419
10168SOL     OW31402   5.593   5.759   5.999  0.4605 -0.9261 -0.1596
10168SOL    HW131403   5.562   5.721   6.086 -0.8644  1.4350  0.4717
10168SOL    HW231404   5.574   5.694   5.925 -1.1139 -1.7687  0.9405
10169SOL     OW31405   1.424   4.205   6.599 -0.1846 -0.5047 -0.3834
10169SOL    HW131406   1.408   4.112   6.633  0.9718 -0.5834 -0.0213
10169SOL    HW231407   1.503   4.245   6.646 -0.9101  0.8238 -0.2486
10170SOL     OW31408   0.783   4.457   5.566 -0.1595  0.2108 -0.5657
10170SOL    HW131409   0.873   4.464   5.610 -0.4368 -1.8555  0.4276
10170SOL    HW231410   0.715   4.427   5.633 -1.3542  0.5512 -1.5916
10171SOL     OW31411   6.680   3.353   6.993 -0.1855 -0.5726 -0.0012
10171SOL    HW131412   6.692   3.381   6.897 -1.0367 -0.2717 -0.0299
10171SOL    HW231413   6.585   3.370   7.021 -0.3320 -1.9866  0.4594
10172SOL     OW31414   5.678   0.685   3.800 -0.7189  0.0530  0.1838
10172SOL    HW131415   5.685   0.586   3.787 -0.7398  0.1533 -0.6634
10172SOL    HW231416   5.762   0.719   3.842 -0.6555 -0.2996  0.3510
10173SOL     OW31417   2.241   1.164   2.766  0.5834 -0.2434 -0.1266
10173SOL    HW131418   2.251   1.257   2.729  1.1076 -1.4560 -3.4281
10173SOL    HW231419   2.332   1.124   2.780  0.4188 -1.2182 -1.6145
10174SOL     OW31420   0.443   5.705   1.174 -0.2871  0.1772 -0.0143
10174SOL    HW131421   0.429   5.779   1.240 -2.2061 -0.4593  0.3367
10174SOL    HW231422   0.388   5.721   1.093 -0.6583 -0.8232  0.0304
10175SOL     OW31423   5.254   3.992   3.728 -0.3912  0.2862 -0.4454
10175SOL    HW131424   5.352   3.976   3.712 -0.4308 -1.7880  0.9349
10175SOL    HW231425   5.201   3.946   3.657 -0.3808  0.6429 -0.6847
10176SOL     OW31426   2.284   4.268   1.100  0.1015 -0.8203  0.6062
10176SOL    HW131427   2.190   4.289   1.071  0.4715 -2.2912 -1.9518
10176SOL    HW231428   2.347   4.332   1.057  0.4337 -1.0930  0.6870
10177SOL     OW31429   1.447   0.113   4.223 -0.2055  0.1113 -0.1415
10177SOL    HW131430   1.374   0.093   4.157 -1.0853  0.7296  0.6153
10177SOL    HW231431   1.409   0.166   4.299  0.8191 -0.4679  0.7961
10178SOL     OW31432   4.956   3.684   6.164  0.1975 -0.2060 -0.2568
10178SOL    HW131433   5.016   3.751   6.120 -0.3417  1.0736  0.8947
10178SOL    HW231434   4.977   3.680   6.262 -1.3227 -0.0078  0.1056
10179SOL     OW31435   0.152   3.677   0.398 -0.2196 -0.0882  0.6039
10179SOL    HW131436   0.175   3.774   0.398 -1.7031  0.3068 -0.9551
10179SOL    HW231437   0.053   3.666   0.391 -0.1353 -1.7378  1.3923
10180SOL     OW31438   1.682   0.621   5.110 -0.3196  0.0023 -0.1494
10180SOL    HW131439   1.682   0.526   5.142 -1.5113 -0.3983 -1.2335
10180SOL    HW231440   1.588   0.647   5.086  0.2811  0.8143 -1.6931
10181SOL     OW31441   6.343   4.447   2.518  0.2593  0.4303  0.4341
10181SOL    HW131442   6.347   4.349   2.497 -0.2509  0.5182 -0.0827
10181SOL    HW231443   6.405   4.496   2.458 -0.5987  0.5902 -0.3347
10182SOL     OW31444   4.825   6.998   2.187 -0.2153  0.1126  0.3458
10182SOL    HW131445   4.867   6.985   2.097  0.7408  1.5742  0.5354
10182SOL    HW231446   4.896   6.994   2.258 -0.4131  2.0615  0.7260
10183SOL     OW31447   1.910   1.607   4.941  0.4182 -0.1897 -0.1910
10183SOL    HW131448   1.958   1.624   4.855 -0.4850  0.2015 -0.6280
10183SOL    HW231449   1.813   1.628   4.930  0.3096 -0.0127  0.9611
10184SOL     OW31450   3.980   0.012   6.772 -0.3755 -0.0124  0.1208
10184SOL    HW131451   4.061   0.063   6.798 -0.9186  1.7111 -1.3689
10184SOL    HW231452   4.006  -0.080   6.742  0.9881  0.3927 -0.0059
10185SOL     OW31453   5.879   2.865   0.321  0.1797  0.2666  0.0079
10185SOL    HW131454   5.834   2.927   0.256 -1.6111 -0.6546  0.3092
10185SOL    HW231455   5.844   2.772   0.308  1.4624 -0.3481  0.8020
10186SOL     OW31456   5.863   2.494   1.741  0.1992  0.7453 -0.3390
10186SOL    HW131457   5.948   2.467   1.788 -1.0785  0.0903  1.7388
10186SOL    HW231458   5.820   2.413   1.702 -1.4130  0.3256  2.0873
10187SOL     OW31459   0.876   6.653   2.358  0.2665 -0.0855  0.0071
10187SOL    HW131460   0.876   6.569   2.303 -0.0872 -0.0442 -0.0573
10187SOL    HW231461   0.964   6.663   2.403  0.2893 -0.5257  0.0623
10188SOL     OW31462   4.269   5.249   6.004 -0.1875  0.5829  0.2049
10188SOL    HW131463   4.204   5.288   6.070  1.9291  2.1148  1.5183
10188SOL    HW231464   4.306   5.322   5.947  1.0758 -0.0915  0.1305
10189SOL     OW31465   2.133   6.489   4.064 -0.3665  0.0381 -0.0096
10189SOL    HW131466   2.195   6.520   3.992  0.0268  0.2650  0.4151
10189SOL    HW231467   2.047   6.459   4.024  0.2837 -0.9799 -0.6736
10190SOL     OW31468   4.326   4.772   6.339 -0.1588  0.2222 -0.0338
10190SOL    HW131469   4.338   4.749   6.242 -1.0574 -0.6561  0.0414
10190SOL    HW231470   4.328   4.687   6.393 -1.4839  0.5252  0.5084
10191SOL     OW31471   0.756   3.858   0.138  0.0019  0.1278 -0.4222
10191SOL    HW131472   0.785   3.951   0.118 -3.2534  1.1067 -1.0689
10191SOL    HW231473   0.834   3.806   0.173  2.2778  2.6171 -1.4402
10192SOL     OW31474   3.844   3.272   5.236  0.3395 -0.4056  0.2443
10192SOL    HW131475   3.762   3.217   5.250 -1.4671  1.4692 -2.0781
10192SOL    HW231476   3.878   3.259   5.142  1.4972  0.3725  0.5235
10193SOL     OW31477   4.266   4.496   1.420  0.5844 -0.0367  0.5867
10193SOL    HW131478   4.191   4.560   1.401 -0.0431 -1.0148 -0.3267
10193SOL    HW231479   4.241   4.437   1.497  0.9152  0.4019  1.0388
10194SOL     OW31480   4.417   2.397   4.467  0.0275 -0.4335 -0.0891
10194SOL    HW131481   4.426   2.399   4.566  1.8952 -0.5161 -0.2290
10194SOL    HW231482   4.493   2.446   4.425 -0.6947 -0.4543 -1.4959
10195SOL     OW31483   5.048   3.971   1.768  0.5140  0.0027 -0.0451
10195SOL    HW131484   5.039   4.022   1.682  1.7245  0.9811  0.3637
10195SOL    HW231485   4.966   3.985   1.823  0.6062  1.1323 -0.1605
10196SOL     OW31486   6.354   3.034   4.140 -0.9383  0.1009 -0.5847
10196SOL    HW131487   6.342   3.080   4.052 -0.2491  0.7258 -0.3600
10196SOL    HW231488   6.286   3.067   4.205 -0.1082  1.2430 -0.2603
10197SOL     OW31489   5.320   1.541   0.865  0.3445 -0.2227  0.2520
10197SOL    HW131490   5.296   1.449   0.896  2.8496 -0.4246  1.8547
10197SOL    HW231491   5.263   1.608   0.913 -0.9413 -0.8533 -0.3361
10198SOL     OW31492   5.249   1.083   3.855 -1.3954  0.2875 -0.4159
10198SOL    HW131493   5.275   1.062   3.949  0.4919 -0.1624 -1.0023
10198SOL    HW231494   5.164   1.135   3.855 -1.6178 -0.0125  1.5114
10199SOL     OW31495   6.796   2.505   5.788 -0.3236 -0.6047  0.2359
10199SOL    HW131496   6.806   2.585   5.730  1.8087 -0.1134  1.1690
10199SOL    HW231497   6.819   2.423   5.736 -2.8821 -0.7207 -0.8303
10200SOL     OW31498   5.189   0.719   1.681 -0.9915  0.1298  0.2821
10200SOL    HW131499   5.194   0.813   1.714 -0.3285  0.3017 -0.3008
10200SOL    HW231500   5.146   0.661   1.751  0.6058  0.4311  1.5682
10201SOL     OW31501   1.745   4.311   0.291  0.4105  0.2721  0.1670
10201SOL    HW131502   1.716   4.231   0.239  1.5690  0.6228 -1.0699
10201SOL    HW231503   1.680   4.328   0.364 -1.1501 -0.3717 -1.0253
10202SOL     OW31504   6.745   6.726   4.442  0.2928 -0.2907 -0.3398
10202SOL    HW131505   6.735   6.817   4.484  1.0030  0.1327 -1.0548
10202SOL    HW231506   6.748   6.736   4.342  0.1135 -1.1332 -0.4330
10203SOL     OW31507   1.438   1.224   5.226  0.0081  0.1040  0.3399
10203SOL    HW131508   1.405   1.182   5.141  2.2420 -0.1086 -0.4801
10203SOL    HW231509   1.475   1.154   5.286 -0.2227  0.4208  0.8575
10204SOL     OW31510   4.656   4.666   5.917 -0.4989 -0.0729 -0.3961
10204SOL    HW131511   4.613   4.625   5.997 -1.3495 -0.6341 -1.1183
10204SOL    HW231512   4.687   4.594   5.855  0.9373  0.3335 -0.2019
10205SOL     OW31513   0.186   2.962   6.188 -0.1585 -0.0798  0.1694
10205SOL    HW131514   0.104   3.017   6.179 -0.3881 -0.5351 -0.5812
10205SOL    HW231515   0.161   2.869   6.215  0.1933  0.0526  0.9865
10206SOL     OW31516   1.392   3.362   4.591  0.2447  0.4844  0.2272
10206SOL    HW131517   1.376   3.275   4.637 -0.8673  1.1089  1.1042
10206SOL    HW231518   1.434   3.426   4.655 -0.3670  1.0465  0.0813
10207SOL     OW31519   1.501   6.853   4.292 -0.4816 -0.0864 -0.1285
10207SOL    HW131520   1.542   6.896   4.212 -1.2925 -0.3688 -0.7145
10207SOL    HW231521   1.556   6.775   4.321  0.4617  0.7263  0.3352
10208SOL     OW31522   6.849   0.312   5.109  0.8754  0.0723  0.2553
10208SOL    HW131523   6.773   0.340   5.050  0.8801  0.0021  0.2159
10208SOL    HW231524   6.815   0.247   5.177  0.0379  2.7901  2.6471
10209SOL     OW31525   6.836   6.430   4.111  0.0005  0.1243 -0.3057
10209SOL    HW131526   6.920   6.386   4.080  0.6657  1.5663 -0.6545
10209SOL    HW231527   6.760   6.403   4.053  0.3503 -0.6495 -0.4176
10210SOL     OW31528   3.963   1.447   3.410 -0.0946  0.2148  0.7625
10210SOL    HW131529   4.040   1.474   3.468 -0.0466  0.9508  0.3827
10210SOL    HW231530   3.984   1.361   3.364  1.0281  0.9691 -0.2286
10211SOL     OW31531   0.112   5.332   6.664  0.3710  0.8778  0.0310
10211SOL    HW131532   0.057   5.368   6.589  1.0229 -0.7166 -1.2728
10211SOL    HW231533   0.053   5.280   6.727  0.1666  0.1776 -0.7175
10212SOL     OW31534   6.157   0.848   5.762 -0.1845  0.6592  0.5305
10212SOL    HW131535   6.074   0.839   5.707 -0.1803 -3.9176  0.8824
10212SOL    HW231536   6.231   0.886   5.706 -1.9217  2.9927 -0.3323
10213SOL     OW31537   0.542   3.029   1.581 -0.0645  0.4235  0.0030
10213SOL    HW131538   0.511   3.107   1.526 -0.0837  1.2271  1.1145
10213SOL    HW231539   0.589   2.963   1.523 -2.4844 -0.1142 -1.4963
10214SOL     OW31540   2.208   2.090   5.533 -0.6395 -0.6165  0.1061
10214SOL    HW131541   2.219   2.028   5.611  0.6829 -1.6473 -0.8416
10214SOL    HW231542   2.112   2.117   5.524 -1.0952 -1.8516  1.0530
10215SOL     OW31543   3.758   3.786   3.391  0.3009 -0.0394 -0.0011
10215SOL    HW131544   3.722   3.707   3.343 -0.3056  1.3604 -1.9655
10215SOL    HW231545   3.836   3.824   3.341 -0.0878  1.2324  0.3165
10216SOL     OW31546   6.332   0.589   1.015  0.0702 -0.5970  0.3441
10216SOL    HW131547   6.347   0.553   0.923  2.3380  0.9712  0.0022
10216SOL    HW231548   6.257   0.655   1.013  0.9899  0.4643 -0.7388
10217SOL     OW31549   5.273   1.310   3.398  0.1420  0.4463  0.2364
10217SOL    HW131550   5.276   1.271   3.306 -0.6624  0.2202  0.3002
10217SOL    HW231551   5.351   1.276   3.451  0.4337  0.3272 -0.2584
10218SOL     OW31552   6.794   3.029   3.513  0.0207  0.2391  0.4604
10218SOL    HW131553   6.890   3.002   3.515  0.5138  1.8787  0.8034
10218SOL    HW231554   6.769   3.070   3.601 -1.4732 -1.5866  0.9503
10219SOL     OW31555   0.181   6.531   2.882 -0.1590  0.1634 -0.0962
10219SOL    HW131556   0.267   6.480   2.877 -0.0414  0.1170  1.6504
10219SOL    HW231557   0.192   6.619   2.835  0.4988 -0.2768 -0.7960
10220SOL     OW31558   2.572   2.571   6.251  0.4799  0.1337 -1.3999
10220SOL    HW131559   2.517   2.531   6.179 -1.8518 -1.8529  1.2474
10220SOL    HW231560   2.529   2.655   6.284 -0.0019 -0.4045 -0.6022
10221SOL     OW31561   6.912   4.544   3.701 -0.0447  0.2578  0.0610
10221SOL    HW131562   6.920   4.451   3.735  1.5806  0.7427  1.1469
10221SOL    HW231563   7.001   4.574   3.665 -0.2912  1.6873  0.5752
10222SOL     OW31564   4.050   3.150   3.723  0.0798 -0.0356  0.4026
10222SOL    HW131565   4.031   3.237   3.678 -0.3447 -0.2537  0.1527
10222SOL    HW231566   4.000   3.077   3.677 -0.4856 -0.2435  1.3076
10223SOL     OW31567   3.325   0.009   1.806  0.7741  0.0403 -0.8976
10223SOL    HW131568   3.255  -0.041   1.754  2.3668 -1.0126 -2.1045
10223SOL    HW231569   3.328   0.103   1.774 -0.0784  0.1035 -0.8311
10224SOL     OW31570   0.189   4.594   2.355  0.9462  0.2822 -0.7909
10224SOL    HW131571   0.093   4.619   2.370  1.8552  2.8822  1.6167
10224SOL    HW231572   0.205   4.501   2.388 -0.6131  0.0383 -0.6585
10225SOL     OW31573   0.174   3.659   5.355 -0.0602  0.3561 -0.2291
10225SOL    HW131574   0.172   3.654   5.255 -3.1682 -0.1496 -0.2228
10225SOL    HW231575   0.083   3.678   5.390  0.4358 -1.7184  2.6216
10226SOL     OW31576   5.295   4.074   0.221 -0.0008  0.1506  0.0242
10226SOL    HW131577   5.280   4.104   0.127 -0.9662  2.0709  0.7226
10226SOL    HW231578   5.301   3.974   0.224  0.7916  0.0793 -2.1443
10227SOL     OW31579   6.399   4.470   1.141  0.7267  0.5098  0.7771
10227SOL    HW131580   6.401   4.529   1.221 -1.6452  2.7395 -0.6307
10227SOL    HW231581   6.433   4.521   1.061 -0.2032 -0.4193 -0.2486
10228SOL     OW31582   3.308   0.238   1.683 -0.7973  0.1162 -0.1762
10228SOL    HW131583   3.379   0.247   1.613 -2.1401 -2.0127 -1.9423
10228SOL    HW231584   3.242   0.312   1.673 -0.0355  0.8344  0.0275
10229SOL     OW31585   0.546   0.381   5.589 -0.8701  0.5410  0.0496
10229SOL    HW131586   0.521   0.478   5.592 -2.2467  0.1986  0.3542
10229SOL    HW231587   0.542   0.348   5.495  2.6952  1.4868 -0.5920
10230SOL     OW31588   0.338   6.116   0.948 -0.5848 -0.4338 -0.2757
10230SOL    HW131589   0.376   6.197   0.904  1.7587 -1.2127  0.1588
10230SOL    HW231590   0.297   6.142   1.035 -2.9205  0.7222 -1.6370
10231SOL     OW31591   0.474   3.629   4.936 -0.0780 -0.0281  0.4556
10231SOL    HW131592   0.434   3.542   4.965  1.8940 -0.5367  1.8682
10231SOL    HW231593   0.497   3.624   4.839 -1.0285 -0.6460  0.2475
10232SOL     OW31594   4.542   4.436   2.770 -0.2279  0.0160  0.5585
10232SOL    HW131595   4.622   4.477   2.726 -1.2274  0.2075 -1.1593
10232SOL    HW231596   4.565   4.343   2.799  0.3134 -0.3765 -1.0021
10233SOL     OW31597   0.648   5.152   5.970 -0.0464 -0.0012  0.4091
10233SOL    HW131598   0.725   5.090   5.985  0.0803 -0.5428 -2.0201
10233SOL    HW231599   0.573   5.128   6.032  1.4321  0.0837  2.3278
10234SOL     OW31600   1.229   0.005   1.518 -0.3381  0.5771 -0.7508
10234SOL    HW131601   1.303   0.003   1.585 -1.5965 -1.0729  0.6661
10234SOL    HW231602   1.248  -0.059   1.444 -1.6575 -2.2164  1.1843
10235SOL     OW31603   2.508   2.047   3.551 -0.6044 -0.2263  0.4162
10235SOL    HW131604   2.493   1.971   3.614  0.6161  0.4827  1.6169
10235SOL    HW231605   2.433   2.113   3.560 -0.6335 -0.3162  0.8593
10236SOL     OW31606   0.427   0.264   3.404  0.3664 -0.5224 -0.1806
10236SOL    HW131607   0.386   0.234   3.318  1.0637 -0.0567 -0.6855
10236SOL    HW231608   0.368   0.237   3.480 -0.4995 -0.5130 -0.8347
10237SOL     OW31609   0.489   4.641   5.485 -0.5660  0.0928 -0.1702
10237SOL    HW131610   0.578   4.601   5.464 -1.3573 -0.3895 -3.1113
10237SOL    HW231611   0.476   4.724   5.430 -1.8049  0.3130  0.4289
10238SOL     OW31612   3.011   5.447   6.676  0.1090 -0.1976 -0.1534
10238SOL    HW131613   2.927   5.499   6.686 -0.0186 -0.0331 -1.8666
10238SOL    HW231614   3.083   5.489   6.732 -0.8476 -0.1838  1.1127
10239SOL     OW31615   0.188   2.579   2.301 -0.7525  0.1459  0.4206
10239SOL    HW131616   0.170   2.542   2.392  0.2096 -2.4975 -0.3907
10239SOL    HW231617   0.126   2.537   2.235 -0.1758  0.6089 -0.4289
10240SOL     OW31618   1.760   5.680   1.523 -0.2151  0.2905  0.0694
10240SOL    HW131619   1.790   5.599   1.573  0.5451  0.5278  0.0170
10240SOL    HW231620   1.798   5.762   1.566  0.4302  0.5023 -0.8484
10241SOL     OW31621   3.540   2.987   3.261  0.6361  0.1633  0.1033
10241SOL    HW131622   3.443   2.979   3.240  1.2885 -4.8179 -2.4635
10241SOL    HW231623   3.562   2.927   3.338  1.9958 -0.6502 -0.8952
10242SOL     OW31624   6.272   4.971   1.677 -0.0758 -0.2137 -0.2682
10242SOL    HW131625   6.211   4.930   1.745  0.3747 -1.6951 -0.7210
10242SOL    HW231626   6.217   5.019   1.608 -0.6985 -0.8865 -0.2514
10243SOL     OW31627   2.610   6.822   3.161  0.6233 -0.1282  0.2897
10243SOL    HW131628   2.526   6.871   3.181  0.7978 -0.1813  1.1981
10243SOL    HW231629   2.602   6.777   3.071 -0.5119 -0.5591  0.5858
10244SOL     OW31630   1.431   4.171   2.863 -0.1602  0.0211  0.4685
10244SOL    HW131631   1.356   4.142   2.804 -0.0408  2.4812 -1.0348
10244SOL    HW231632   1.514   4.185   2.808  0.6645 -0.0244  1.6479
10245SOL     OW31633   6.397   4.478   3.094 -0.2659  0.4976  0.0156
10245SOL    HW131634   6.397   4.510   2.999  0.5564  1.4150  0.3180
10245SOL    HW231635   6.385   4.555   3.156  1.7588  0.2522  0.7639
10246SOL     OW31636   3.979   3.386   4.448  0.2754  0.1669  0.0116
10246SOL    HW131637   4.033   3.471   4.447  0.8864 -0.2204 -0.7050
10246SOL    HW231638   4.010   3.328   4.523 -0.6402  0.8727  0.9683
10247SOL     OW31639   1.007   3.065   3.060  0.2944  0.0920  0.0439
10247SOL    HW131640   0.963   3.021   2.981  2.3754  1.4481 -2.0055
10247SOL    HW231641   1.029   2.996   3.129 -1.1567 -1.2125 -0.7415
10248SOL     OW31642   2.690   2.876   5.662 -0.1587 -0.7726  0.5035
10248SOL    HW131643   2.718   2.784   5.690  0.7533 -0.3275  1.0913
10248SOL    HW231644   2.744   2.944   5.711 -1.7335  0.1259  1.0692
10249SOL     OW31645   1.853   4.991   5.440  0.0206 -0.1806  0.1296
10249SOL    HW131646   1.766   4.945   5.421  0.0664 -1.0005  1.7391
10249SOL    HW231647   1.928   4.925   5.434  0.1881 -0.1554  1.5648
10250SOL     OW31648   0.818   4.449   6.844  0.0826 -0.3215 -0.0022
10250SOL    HW131649   0.841   4.387   6.919  1.2926 -2.3360 -1.9148
10250SOL    HW231650   0.886   4.523   6.840  2.0117 -2.0522 -1.0368
10251SOL     OW31651   1.491   5.797   4.077  0.2720  0.7856  0.3077
10251SOL    HW131652   1.472   5.702   4.099  1.7901  0.3323 -0.1906
10251SOL    HW231653   1.411   5.838   4.033  0.2085 -0.8199 -1.1878
10252SOL     OW31654   3.257   4.199   5.530 -0.2427 -0.2375 -0.3639
10252SOL    HW131655   3.328   4.269   5.534  1.1435 -1.4062 -2.5111
10252SOL    HW231656   3.189   4.223   5.461 -0.3625 -0.4863 -0.3357
10253SOL     OW31657   2.368   5.573   0.403 -0.1188 -0.1063  0.1697
10253SOL    HW131658   2.315   5.627   0.468 -0.0220 -1.1148  1.1287
10253SOL    HW231659   2.463   5.568   0.434 -0.2458 -1.2764  0.4266
10254SOL     OW31660   6.819   1.943   1.165  0.0258  0.1331  0.1273
10254SOL    HW131661   6.882   2.012   1.201  2.0612 -1.2974 -0.4950
10254SOL    HW231662   6.798   1.876   1.236 -0.3740  0.3242  0.1890
10255SOL     OW31663   4.287   4.804   1.072  0.1882 -0.2288 -0.1067
10255SOL    HW131664   4.252   4.870   1.006  0.6445 -0.6715 -0.7930
10255SOL    HW231665   4.278   4.711   1.035 -0.9264 -0.6144  1.0533
10256SOL     OW31666   4.327   1.762   4.563  1.0847 -0.1875  0.3216
10256SOL    HW131667   4.337   1.777   4.661  1.2748  1.2697  0.0996
10256SOL    HW231668   4.274   1.837   4.523  0.1343 -1.2740 -0.5407
10257SOL     OW31669   4.126   5.342   3.536  0.1794 -0.2304  0.4778
10257SOL    HW131670   4.189   5.272   3.568  2.3637  1.1781 -0.4785
10257SOL    HW231671   4.134   5.351   3.437 -1.1834  0.3358  0.3999
10258SOL     OW31672   3.084   6.617   2.481 -0.3641  0.1644 -0.0789
10258SOL    HW131673   3.179   6.627   2.449  0.0283 -1.3255  0.5654
10258SOL    HW231674   3.071   6.527   2.521 -1.9207  0.5601  0.3838
10259SOL     OW31675   2.884   4.819   4.888 -0.2938  0.3338  0.0820
10259SOL    HW131676   2.791   4.818   4.852 -0.3601  0.2709  0.2557
10259SOL    HW231677   2.894   4.748   4.957  0.1707 -0.3302 -0.6596
10260SOL     OW31678   2.972   0.763   3.313  0.3636 -0.1614  0.1665
10260SOL    HW131679   3.052   0.818   3.288 -0.9845  0.8191 -2.4254
10260SOL    HW231680   2.912   0.816   3.373  1.3012 -0.6551  1.5773
10261SOL     OW31681   6.631   5.617   0.319 -0.0978 -0.2383 -0.0234
10261SOL    HW131682   6.544   5.653   0.351 -0.3813 -1.0953  0.2018
10261SOL    HW231683   6.651   5.654   0.228  0.5659  1.9701  0.9590
10262SOL     OW31684   2.744   0.291   1.066  0.0143 -0.4570 -0.0787
10262SOL    HW131685   2.648   0.313   1.082 -0.0736 -1.7603  1.4337
10262SOL    HW231686   2.803   0.360   1.107 -0.2636 -0.1111 -0.2629
10263SOL     OW31687   0.607   6.618   2.729  0.0008 -0.0958 -0.0913
10263SOL    HW131688   0.557   6.658   2.651  0.8697  1.6678  0.1930
10263SOL    HW231689   0.549   6.553   2.776 -1.1659  0.1027 -1.1965
10264SOL     OW31690   0.155   1.043   6.529  0.4100 -1.0718  0.2237
10264SOL    HW131691   0.145   0.958   6.478 -0.8475 -2.8260  3.1102
10264SOL    HW231692   0.189   1.023   6.621 -0.6712  1.4215  1.2815
10265SOL     OW31693   3.137   1.801   0.209 -0.0410  0.0563  0.5590
10265SOL    HW131694   3.091   1.865   0.271 -0.2835 -0.8805  1.3626
10265SOL    HW231695   3.139   1.710   0.250  2.9833  0.1296  0.7828
10266SOL     OW31696   2.783   3.671   1.852 -0.2403  0.0595 -0.1601
10266SOL    HW131697   2.861   3.633   1.801  0.3418  1.6840 -0.5336
10266SOL    HW231698   2.815   3.711   1.938 -1.0985 -1.8547  1.1290
10267SOL     OW31699   6.421   6.592   3.366 -0.3540 -0.0383 -0.7513
10267SOL    HW131700   6.426   6.567   3.463 -1.0147  1.4688 -0.3034
10267SOL    HW231701   6.462   6.519   3.311 -0.9394 -1.4297  0.5690
10268SOL     OW31702   2.790   4.875   2.955 -0.1449  0.5697 -0.2341
10268SOL    HW131703   2.856   4.906   3.024  1.7320 -1.6340 -0.8925
10268SOL    HW231704   2.740   4.796   2.990  0.9185 -0.6572 -1.3462
10269SOL     OW31705   0.823   1.612   0.189  0.2953  0.1637  0.5810
10269SOL    HW131706   0.875   1.538   0.232  1.4711  0.8483  0.4087
10269SOL    HW231707   0.725   1.596   0.199  0.5429 -0.7538  1.6577
10270SOL     OW31708   2.195   6.924   3.434  0.3976  0.1211  0.7361
10270SOL    HW131709   2.137   6.990   3.483 -0.4661 -0.6251  0.7419
10270SOL    HW231710   2.143   6.841   3.416  0.8883  0.1483 -0.9536
10271SOL     OW31711   2.539   1.673   0.281  0.3567  0.2949  0.3079
10271SOL    HW131712   2.589   1.746   0.327  1.1463 -1.1882  1.9099
10271SOL    HW231713   2.441   1.686   0.294  0.4993  0.9318  0.8039
10272SOL     OW31714   6.474   4.867   6.294 -0.0668  0.3594 -0.1518
10272SOL    HW131715   6.398   4.873   6.358  0.3938  1.3958  0.3129
10272SOL    HW231716   6.459   4.929   6.218  1.0033  1.7310  0.7063
10273SOL     OW31717   5.452   5.155   4.934 -0.0159 -0.2833 -0.0325
10273SOL    HW131718   5.397   5.225   4.888  0.8240 -1.1986 -2.6068
10273SOL    HW231719   5.399   5.071   4.944  0.4105 -0.7260 -1.2612
10274SOL     OW31720   0.542   3.729   6.839 -0.0079 -0.4169 -0.2465
10274SOL    HW131721   0.635   3.738   6.873 -0.1557 -2.0896  0.6694
10274SOL    HW231722   0.479   3.774   6.902  0.0562 -0.2925 -0.2693
10275SOL     OW31723   7.022   0.611   2.324 -0.8703 -0.7425  0.0136
10275SOL    HW131724   6.957   0.540   2.352 -1.7641 -0.1102 -0.3896
10275SOL    HW231725   7.091   0.571   2.264 -1.8551 -1.1301 -0.9078
10276SOL     OW31726   3.036   5.041   4.866 -0.1675  0.0199  0.3102
10276SOL    HW131727   3.010   5.132   4.897 -1.9204  0.2436 -1.5942
10276SOL    HW231728   2.962   4.977   4.885  0.9633 -0.9997  1.4288
10277SOL     OW31729   0.700   5.413   3.094 -0.0351 -0.2244 -0.7826
10277SOL    HW131730   0.796   5.427   3.118 -0.0055 -0.1116 -0.9657
10277SOL    HW231731   0.644   5.485   3.135 -0.0551 -0.3532 -0.5835
10278SOL     OW31732   0.440   5.957   4.772 -0.0435 -0.3941 -0.4463
10278SOL    HW131733   0.502   6.032   4.797  2.7167 -1.6151 -3.0830
10278SOL    HW231734   0.465   5.875   4.822 -0.4392 -0.5682 -0.5294
10279SOL     OW31735   1.297   3.875   4.908  0.4722  0.2436 -0.2317
10279SOL    HW131736   1.208   3.834   4.885  0.5253  0.2984 -0.5298
10279SOL    HW231737   1.365   3.802   4.915  0.9645  0.4260 -2.5593
10280SOL     OW31738   4.958   4.524   5.598  0.1060  0.0338  0.1533
10280SOL    HW131739   4.999   4.609   5.633  0.4708  0.1967 -0.6601
10280SOL    HW231740   4.935   4.535   5.502 -1.5505 -0.1786  0.4951
10281SOL     OW31741   4.776   4.841   5.068  0.5141 -0.0244 -0.1193
10281SOL    HW131742   4.793   4.826   4.971 -0.1244  1.4140 -0.4809
10281SOL    HW231743   4.705   4.778   5.100  0.7404 -0.5160 -0.5825
10282SOL     OW31744   5.564   2.733   2.897  0.1214  0.0903 -0.3649
10282SOL    HW131745   5.486   2.796   2.899  0.6213  0.7350 -1.0991
10282SOL    HW231746   5.565   2.681   2.983 -1.4225 -0.3125 -0.5485
10283SOL     OW31747   5.941   2.404   0.357  0.0411  0.8976  0.2170
10283SOL    HW131748   5.881   2.472   0.317  1.2427  1.6102 -0.4506
10283SOL    HW231749   6.006   2.449   0.419 -0.2676  0.1154  1.1419
10284SOL     OW31750   0.932   3.319   3.593  0.2336  0.6441 -0.1225
10284SOL    HW131751   0.833   3.315   3.580  0.0336 -0.4677  1.4961
10284SOL    HW231752   0.974   3.237   3.555  0.4295  0.6700  0.0363
10285SOL     OW31753   6.138   0.827   6.476  0.9003  0.3193 -0.6546
10285SOL    HW131754   6.054   0.879   6.492  1.3992  1.3062 -1.1711
10285SOL    HW231755   6.120   0.729   6.489  0.4519  0.7199  2.6432
10286SOL     OW31756   2.041   5.857   2.120  0.5470  0.0798  0.1805
10286SOL    HW131757   2.096   5.773   2.119  0.1886 -0.1666  0.6666
10286SOL    HW231758   2.101   5.936   2.112  1.0810 -0.1390  1.6479
10287SOL     OW31759   1.411   5.341   5.948 -0.3318 -0.3300  0.3148
10287SOL    HW131760   1.457   5.323   6.035  0.6895  3.2300  0.6553
10287SOL    HW231761   1.475   5.324   5.873 -0.2419 -0.5897  0.4484
10288SOL     OW31762   3.299   5.686   3.290  0.1313 -0.5717 -0.1046
10288SOL    HW131763   3.347   5.599   3.291  3.1108  0.9021 -1.4340
10288SOL    HW231764   3.221   5.681   3.226  1.6191 -1.6599 -1.9257
10289SOL     OW31765   3.181   5.504   5.752 -0.1012 -0.5479 -0.2337
10289SOL    HW131766   3.102   5.445   5.734 -1.1295  0.6146  0.3611
10289SOL    HW231767   3.189   5.572   5.679 -0.8882  0.6052  0.7213
10290SOL     OW31768   3.940   4.040   1.806 -0.3162 -0.4120  0.4151
10290SOL    HW131769   4.018   4.076   1.755 -1.1289 -2.0686 -2.2055
10290SOL    HW231770   3.939   4.079   1.897  2.1335  1.5565 -0.2932
10291SOL     OW31771   4.491   1.858   3.400  0.6291 -0.1863 -0.4734
10291SOL    HW131772   4.554   1.793   3.359  0.8151  0.1128 -0.6672
10291SOL    HW231773   4.510   1.866   3.498  1.2407  0.2936 -0.6243
10292SOL     OW31774   0.606   6.958   6.283  0.5894  0.1130 -0.1490
10292SOL    HW131775   0.517   6.988   6.248  1.0953  2.0295  0.0885
10292SOL    HW231776   0.666   6.937   6.205 -0.4345 -2.6064 -0.3251
10293SOL     OW31777   1.980   1.310   5.283 -0.1039 -0.0320  0.2227
10293SOL    HW131778   2.022   1.221   5.301 -0.5878 -0.0350  1.3807
10293SOL    HW231779   1.888   1.312   5.323 -0.9108  0.2720 -1.5587
10294SOL     OW31780   1.920   5.451   1.684 -0.0947 -0.5063  0.2263
10294SOL    HW131781   1.875   5.395   1.753 -0.3885 -0.0365  0.4281
10294SOL    HW231782   2.013   5.472   1.712  0.6325 -2.3450 -0.6761
10295SOL     OW31783   1.766   0.773   0.829 -0.0690 -0.0013  0.4884
10295SOL    HW131784   1.813   0.686   0.843  0.9969  0.3510 -0.7582
10295SOL    HW231785   1.773   0.828   0.913 -2.3537 -1.7762  1.9839
10296SOL     OW31786   5.576   2.441   5.251 -0.0415 -0.3225 -0.3657
10296SOL    HW131787   5.675   2.440   5.269  0.3176 -0.4909 -2.1211
10296SOL    HW231788   5.561   2.445   5.152 -1.8091 -0.2049 -0.1168
10297SOL     OW31789   3.937   0.649   2.172  0.3001 -0.0456 -0.4759
10297SOL    HW131790   3.971   0.643   2.266  0.4608  2.4389 -0.3252
10297SOL    HW231791   4.014   0.642   2.108  0.6433  1.4968 -0.2704
10298SOL     OW31792   1.467   0.466   1.943  0.9320 -0.1939  0.0329
10298SOL    HW131793   1.476   0.505   2.034  0.3525  0.2331 -0.0847
10298SOL    HW231794   1.557   0.443   1.907  1.4724  2.4480 -0.5120
10299SOL     OW31795   6.120   0.735   1.757 -0.4835 -0.1908 -0.4639
10299SOL    HW131796   6.105   0.678   1.838  0.3083 -1.4102 -1.1457
10299SOL    HW231797   6.163   0.821   1.785  0.7980 -1.0480  0.3289
10300SOL     OW31798   2.023   2.793   0.539 -0.7777  0.0062  0.2289
10300SOL    HW131799   2.054   2.870   0.596  0.4884  0.1551 -0.6149
10300SOL    HW231800   2.022   2.820   0.443 -2.5301 -0.3640  0.1046
10301SOL     OW31801   3.768   6.850   6.435  0.0154 -0.2532  0.4001
10301SOL    HW131802   3.789   6.786   6.508 -1.7503 -0.0762  1.1150
10301SOL    HW231803   3.673   6.838   6.406  0.6690 -0.3776 -1.9511
10302SOL     OW31804   2.396   6.202   4.624 -0.0470 -0.2123 -0.3753
10302SOL    HW131805   2.400   6.278   4.688  0.4330  0.4718 -1.1857
10302SOL    HW231806   2.314   6.148   4.641  0.0001  0.0406  0.7013
10303SOL     OW31807   1.031   4.547   2.496  0.2405  0.3666  0.1487
10303SOL    HW131808   1.055   4.465   2.444  0.1012  0.6612 -0.3822
10303SOL    HW231809   0.974   4.521   2.574 -0.5853  0.0642 -0.5497
10304SOL     OW31810   0.186   4.924   2.782 -0.2909  0.7222  0.7729
10304SOL    HW131811   0.196   5.016   2.821 -1.7678  0.3441  2.1243
10304SOL    HW231812   0.158   4.860   2.854 -1.0681 -0.4228 -0.5121
10305SOL     OW31813   2.957   4.909   6.151  0.0118 -0.6995 -0.4860
10305SOL    HW131814   2.887   4.850   6.110 -0.0165  0.3574 -2.0393
10305SOL    HW231815   3.047   4.878   6.121  0.0869 -0.7575 -0.2060
10306SOL     OW31816   5.311   6.282   1.365 -0.1304 -0.3554 -0.9468
10306SOL    HW131817   5.283   6.186   1.367  0.3993 -0.5284 -1.3300
10306SOL    HW231818   5.396   6.290   1.311 -0.0241  0.2871 -0.6886
10307SOL     OW31819   1.222   2.094   4.149 -0.3375  0.3238 -0.5705
10307SOL    HW131820   1.132   2.132   4.128  0.4971  2.4999 -0.4413
10307SOL    HW231821   1.292   2.142   4.096  0.6741 -2.2485 -1.7079
10308SOL     OW31822   3.937   3.439   2.132  0.5733 -0.2033 -0.2330
10308SOL    HW131823   3.882   3.492   2.068 -0.9740 -1.7079 -0.2205
10308SOL    HW231824   4.029   3.427   2.095  0.0516 -0.0675 -1.6170
10309SOL     OW31825   2.844   6.897   6.835  0.0790  0.5437  0.5726
10309SOL    HW131826   2.849   6.995   6.817 -0.0287  0.5350  0.4937
10309SOL    HW231827   2.854   6.881   6.933 -0.8470  0.7062  0.7003
10310SOL     OW31828   4.424   4.944   1.282  0.1050  0.2323  0.3805
10310SOL    HW131829   4.367   4.911   1.207 -0.0131  1.2226  0.0285
10310SOL    HW231830   4.369   5.003   1.342  0.9966  2.0815 -0.5509
10311SOL     OW31831   5.596   6.932   6.786 -0.1108  0.7288  0.1418
10311SOL    HW131832   5.639   6.856   6.835  0.3979  0.8536 -0.1100
10311SOL    HW231833   5.510   6.901   6.746  0.5092  0.0448 -0.6906
10312SOL     OW31834   1.429   0.385   1.049  0.8049 -0.3698 -0.0690
10312SOL    HW131835   1.393   0.307   0.997  0.0478 -0.9842  1.3065
10312SOL    HW231836   1.364   0.461   1.045 -0.7689 -1.4538  2.3545
10313SOL     OW31837   4.524   6.586   2.419  0.0280 -0.1594  0.2019
10313SOL    HW131838   4.586   6.508   2.430 -0.1658 -0.4794 -0.8558
10313SOL    HW231839   4.571   6.659   2.370 -0.0688  0.0518  0.4231
10314SOL     OW31840   0.449   6.612   0.525  0.0558  0.0002  0.7427
10314SOL    HW131841   0.515   6.544   0.493 -0.5891 -0.9952  1.4715
10314SOL    HW231842   0.380   6.627   0.455  0.1993 -0.0871  0.5808
10315SOL     OW31843   4.815   4.720   3.532 -0.1041 -0.0969  0.1656
10315SOL    HW131844   4.787   4.701   3.438 -0.7201  1.3354  0.0335
10315SOL    HW231845   4.759   4.666   3.595 -2.0795  1.4421 -0.1713
10316SOL     OW31846   1.641   0.226   5.920  0.0207  0.4420  0.1680
10316SOL    HW131847   1.561   0.286   5.913 -1.7152 -1.7775  0.0633
10316SOL    HW231848   1.673   0.202   5.828 -1.5302 -1.5732  0.1034
10317SOL     OW31849   5.213   6.677   4.453 -0.0417  0.5349 -0.3240
10317SOL    HW131850   5.305   6.715   4.449  0.0094  0.3112 -1.7713
10317SOL    HW231851   5.209   6.608   4.526  1.0223  0.3437 -0.4244
10318SOL     OW31852   5.913   0.618   7.002 -0.1720 -0.2361  0.0759
10318SOL    HW131853   5.875   0.529   6.977  0.3649 -0.6664  0.7610
10318SOL    HW231854   5.848   0.690   6.978 -0.1559 -0.7115 -1.4975
10319SOL     OW31855   6.421   3.509   5.320  0.3091 -0.3446  0.2897
10319SOL    HW131856   6.378   3.469   5.401  2.3211 -1.1946  1.0315
10319SOL    HW231857   6.366   3.585   5.286 -1.0943 -0.6067  1.8538
10320SOL     OW31858   6.515   6.572   3.660 -0.1298 -0.0465  0.4276
10320SOL    HW131859   6.477   6.539   3.747 -1.4677 -1.7396 -0.7441
10320SOL    HW231860   6.532   6.670   3.667 -1.3039  0.0786  2.2412
10321SOL     OW31861   4.797   2.374   3.620  0.1459  0.1929  0.0334
10321SOL    HW131862   4.824   2.394   3.526  1.5706  1.3295  0.6394
10321SOL    HW231863   4.765   2.458   3.664 -0.8033 -0.3925  0.4756
10322SOL     OW31864   5.030   4.267   4.439 -0.5652 -0.3070  0.6180
10322SOL    HW131865   5.040   4.284   4.537  1.5804  0.8601  0.2478
10322SOL    HW231866   5.054   4.173   4.418  0.8196 -0.0552  1.0003
10323SOL     OW31867   6.795   5.737   0.489  0.3566  0.5196  0.3583
10323SOL    HW131868   6.734   5.784   0.552 -0.6232 -1.5495  1.0169
10323SOL    HW231869   6.744   5.711   0.407  1.1099  1.3312 -0.3912
10324SOL     OW31870   2.841   3.626   2.669 -0.5558  0.2053 -0.1921
10324SOL    HW131871   2.751   3.584   2.681 -0.6716  0.4450 -0.2157
10324SOL    HW231872   2.913   3.558   2.687 -0.7404  0.0456 -0.0605
10325SOL     OW31873   4.125   6.512   5.454 -0.1932  0.3973 -0.5745
10325SOL    HW131874   4.033   6.502   5.491 -1.1352  2.9545 -1.9671
10325SOL    HW231875   4.141   6.441   5.385  0.4001 -2.3925  2.1792
10326SOL     OW31876   5.474   2.283   0.241 -0.4114  0.5133 -0.0039
10326SOL    HW131877   5.527   2.198   0.244 -0.5842  0.4293  0.7800
10326SOL    HW231878   5.515   2.345   0.174  0.2298  0.1517  0.0422
10327SOL     OW31879   2.711   0.025   4.851  0.1245  0.1857  0.9226
10327SOL    HW131880   2.771   0.105   4.858  1.3003 -0.4956 -0.6604
10327SOL    HW231881   2.766  -0.058   4.847 -0.9144 -0.4777 -0.4184
10328SOL     OW31882   5.152   1.722   1.999  0.8086  0.0959  0.4661
10328SOL    HW131883   5.103   1.804   2.031  1.6515  0.1879  1.5945
10328SOL    HW231884   5.246   1.747   1.974  0.3124 -0.0586 -1.7686
10329SOL     OW31885   3.734   1.334   2.227  0.3194  0.3674  0.3063
10329SOL    HW131886   3.676   1.263   2.267 -0.7748  0.5859 -0.8159
10329SOL    HW231887   3.771   1.300   2.140  1.2147  0.5460  0.6065
10330SOL     OW31888   3.508   1.037   2.921  0.1751 -0.0820 -0.6992
10330SOL    HW131889   3.433   1.084   2.874  1.6206  1.6416 -1.3930
10330SOL    HW231890   3.542   0.962   2.864 -0.0332  0.0989 -1.0590
10331SOL     OW31891   3.763   5.080   6.797 -0.3473 -0.1653 -0.1242
10331SOL    HW131892   3.698   5.010   6.767  0.5808 -2.4001  2.6514
10331SOL    HW231893   3.852   5.038   6.814  0.4418  1.8284  0.9971
10332SOL     OW31894   1.284   1.930   6.343  0.7555  0.3845  0.4000
10332SOL    HW131895   1.372   1.904   6.303 -0.5024 -2.4121 -0.7719
10332SOL    HW231896   1.239   1.996   6.285  0.8852 -0.2875 -0.4812
10333SOL     OW31897   1.546   2.953   3.960  0.4400 -0.7912  0.0508
10333SOL    HW131898   1.575   3.044   3.930 -1.0388 -0.3868 -0.2596
10333SOL    HW231899   1.446   2.949   3.961  0.2418 -0.6728  5.1430
10334SOL     OW31900   1.763   1.027   5.000  0.0224 -0.5128 -0.6720
10334SOL    HW131901   1.844   1.062   5.046 -1.0790  0.0190  0.9778
10334SOL    HW231902   1.790   0.974   4.919  1.9707 -0.3470 -0.1790
10335SOL     OW31903   2.142   1.097   5.331  0.5378  0.0079 -0.1683
10335SOL    HW131904   2.134   1.019   5.393 -2.4812 -1.4826 -2.2247
10335SOL    HW231905   2.238   1.108   5.303  1.2031 -2.2861  0.9972
10336SOL     OW31906   4.284   0.085   3.174  0.1101  0.3868  0.2943
10336SOL    HW131907   4.350   0.156   3.151 -0.0122  0.5524  0.4486
10336SOL    HW231908   4.207   0.088   3.110 -0.8431  1.6628  1.4225
10337SOL     OW31909   5.380   0.874   1.131  0.8718  0.3456  0.7081
10337SOL    HW131910   5.349   0.788   1.172  1.0888 -0.1075 -0.0470
10337SOL    HW231911   5.372   0.948   1.198  0.4629 -0.2165  1.2952
10338SOL     OW31912   1.449   6.344   2.350  0.0865  0.0182  0.1928
10338SOL    HW131913   1.542   6.320   2.325 -0.4487 -0.0196 -1.9336
10338SOL    HW231914   1.386   6.316   2.278 -1.5714  0.1660  1.5121
10339SOL     OW31915   5.553   3.207   6.282 -0.6374 -0.3517 -0.8069
10339SOL    HW131916   5.613   3.241   6.354  0.5097  1.5349 -2.5234
10339SOL    HW231917   5.459   3.200   6.316  0.0449 -0.5495  1.1234
10340SOL     OW31918   1.387   4.246   6.947  0.4363  0.5198  0.1072
10340SOL    HW131919   1.476   4.279   6.916  0.3601  0.9965  0.3983
10340SOL    HW231920   1.389   4.234   7.046  0.5839 -0.7132 -0.0280
10341SOL     OW31921   2.437   4.610   2.249  0.3759  0.0446 -0.2060
10341SOL    HW131922   2.392   4.540   2.304 -0.4889  1.6030  1.1667
10341SOL    HW231923   2.397   4.699   2.270  2.6348  1.2086 -0.5764
10342SOL     OW31924   1.111   1.699   4.247 -0.2603 -0.5551 -0.0327
10342SOL    HW131925   1.118   1.754   4.164 -0.9885  0.9207  0.8386
10342SOL    HW231926   1.033   1.637   4.239 -0.7932  0.1205 -0.1609
10343SOL     OW31927   2.497   6.168   1.937  0.2123 -0.0323  0.0279
10343SOL    HW131928   2.588   6.128   1.946 -0.2430 -0.6635  2.5208
10343SOL    HW231929   2.434   6.098   1.904  0.0942 -0.4496  1.0919
10344SOL     OW31930   4.608   0.795   6.806  0.1054 -0.8457 -0.0741
10344SOL    HW131931   4.650   0.821   6.720 -0.1771 -0.9259 -0.2382
10344SOL    HW231932   4.514   0.830   6.810  1.3372  2.7755  1.9235
10345SOL     OW31933   1.396   3.257   3.136 -0.0098 -0.2126  0.0704
10345SOL    HW131934   1.327   3.309   3.187 -0.9583 -1.3109 -0.0430
10345SOL    HW231935   1.443   3.317   3.071 -0.9730  0.5237  0.0384
10346SOL     OW31936   6.626   6.465   6.343  0.3920  0.5580  0.1156
10346SOL    HW131937   6.600   6.511   6.428 -1.2800 -0.8870  0.4359
10346SOL    HW231938   6.622   6.531   6.267 -2.0600  1.0081  0.5386
10347SOL     OW31939   6.056   1.301   5.672 -0.0868  0.3918 -0.0747
10347SOL    HW131940   6.054   1.361   5.593 -0.4013  0.5680  0.0663
10347SOL    HW231941   5.999   1.221   5.655 -1.7863  1.3842  0.7283
10348SOL     OW31942   6.328   5.549   6.881  0.2675 -0.2135 -0.4220
10348SOL    HW131943   6.391   5.522   6.809  0.9293 -0.5358  0.2666
10348SOL    HW231944   6.354   5.505   6.967 -0.2327  0.5145  0.1180
10349SOL     OW31945   6.290   0.081   5.210 -1.0375  0.5356 -0.1063
10349SOL    HW131946   6.321   0.010   5.273  1.1807  1.6090  0.1108
10349SOL    HW231947   6.190   0.079   5.203 -1.5379  1.0691  4.3312
10350SOL     OW31948   5.155   5.661   6.831  0.0523  0.5005 -0.2344
10350SOL    HW131949   5.133   5.737   6.893 -1.6850  0.4189 -0.6986
10350SOL    HW231950   5.144   5.692   6.737 -1.6599 -0.5624 -0.4219
10351SOL     OW31951   5.361   5.058   6.868  0.0370  0.2544  0.1619
10351SOL    HW131952   5.333   5.142   6.820 -1.7860 -0.8361 -0.7892
10351SOL    HW231953   5.442   5.020   6.824 -0.6063  0.1994 -1.0204
10352SOL     OW31954   3.554   3.434   6.630 -0.4567  0.5276 -0.1649
10352SOL    HW131955   3.649   3.434   6.600 -0.1222 -0.2187  0.8467
10352SOL    HW231956   3.548   3.460   6.726 -1.3186  0.9469 -0.3161
10353SOL     OW31957   6.980   3.386   4.257 -0.1109  0.5790 -0.0844
10353SOL    HW131958   6.957   3.332   4.338 -2.9607 -0.1166 -1.2158
10353SOL    HW231959   7.033   3.331   4.193  1.1483  0.7561  0.7756
10354SOL     OW31960   4.378   4.059   1.476 -0.3374  0.1854 -0.2416
10354SOL    HW131961   4.278   4.059   1.468 -0.2255  0.0930 -1.9097
10354SOL    HW231962   4.416   4.127   1.413  0.7080 -0.5530 -0.4268
10355SOL     OW31963   2.553   4.552   3.679 -0.2235  0.8426  0.7594
10355SOL    HW131964   2.595   4.499   3.753 -0.6707 -1.3408 -0.4411
10355SOL    HW231965   2.604   4.636   3.664  1.3858  0.1125  1.8833
10356SOL     OW31966   1.967   2.638   6.317 -0.7824  0.2128  0.7746
10356SOL    HW131967   2.042   2.585   6.277 -2.0240 -0.4638 -0.7790
10356SOL    HW231968   1.963   2.728   6.273 -0.2278  0.6575  1.6232
10357SOL     OW31969   3.513   4.417   5.527  0.4496 -0.2009 -0.1004
10357SOL    HW131970   3.537   4.334   5.576  0.8156  0.7976  1.4827
10357SOL    HW231971   3.597   4.464   5.498  0.3110  0.4991  0.5934
10358SOL     OW31972   1.050   1.054   3.031  0.1805  0.2359  0.4113
10358SOL    HW131973   1.091   1.144   3.016 -0.9817  0.8270  0.6566
10358SOL    HW231974   1.002   1.025   2.948  0.7047 -0.2521  0.2715
10359SOL     OW31975   6.104   0.332   6.463  0.1650 -0.2707 -0.0565
10359SOL    HW131976   6.195   0.299   6.486  0.2999 -0.1897 -0.4671
10359SOL    HW231977   6.108   0.383   6.377 -0.0024  0.9513  0.6313
10360SOL     OW31978   0.269   4.307   4.113  0.0873  0.6321 -0.0302
10360SOL    HW131979   0.222   4.306   4.025 -0.4945  0.5474  0.2693
10360SOL    HW231980   0.334   4.232   4.118  1.3292  1.6029 -1.0053
10361SOL     OW31981   1.442   5.062   0.601 -0.2296  0.1371  0.2657
10361SOL    HW131982   1.393   5.139   0.641  0.1412 -0.0649  1.1384
10361SOL    HW231983   1.538   5.086   0.588 -0.3549  0.2174 -0.5739
10362SOL     OW31984   0.464   4.017   4.457  0.2034  0.7570 -0.0079
10362SOL    HW131985   0.524   4.070   4.517  2.3994 -2.7004  1.0960
10362SOL    HW231986   0.406   3.957   4.512 -1.2976  0.9735 -1.2691
10363SOL     OW31987   6.274   6.806   3.292 -0.2515 -0.0696 -0.3485
10363SOL    HW131988   6.175   6.800   3.281 -0.0844 -0.9469 -1.5573
10363SOL    HW231989   6.310   6.717   3.316  0.1372  0.5022  1.3165
10364SOL     OW31990   0.689   5.603   1.068  0.0780 -0.2642  0.0640
10364SOL    HW131991   0.603   5.643   1.099 -0.0254 -1.5433  1.5328
10364SOL    HW231992   0.755   5.603   1.143  0.7243 -1.0602 -0.4853
10365SOL     OW31993   4.044   6.705   5.807  0.0086 -0.2839 -0.2124
10365SOL    HW131994   4.047   6.790   5.859 -0.7653 -0.3528 -0.0454
10365SOL    HW231995   4.076   6.722   5.714  0.2972  0.0881 -0.0502
10366SOL     OW31996   1.824   4.973   2.119 -0.4366  0.4845  0.1077
10366SOL    HW131997   1.726   4.988   2.128 -0.1491  4.3914 -1.1639
10366SOL    HW231998   1.870   5.061   2.102  3.4066 -1.0463  1.3360
10367SOL     OW31999   3.856   0.908   2.369 -0.2863 -0.3021 -0.9854
10367SOL    HW132000   3.925   0.839   2.390  2.8835  3.1564  1.1839
10367SOL    HW232001   3.891   0.972   2.300 -1.3304  1.4606  0.0170
10368SOL     OW32002   2.395   6.893   0.499  0.3995 -0.0107 -0.2663
10368SOL    HW132003   2.311   6.885   0.445  1.1243 -0.9994 -1.2973
10368SOL    HW232004   2.445   6.806   0.495  1.7197  0.7211 -0.0883
10369SOL     OW32005   5.626   4.387   5.726  0.5849  0.1924 -0.4887
10369SOL    HW132006   5.671   4.428   5.647 -0.6422 -0.4226 -1.5435
10369SOL    HW232007   5.608   4.291   5.708 -0.4690  0.2432  0.2134
10370SOL     OW32008   3.288   0.988   5.661  0.4463  0.1674 -0.5065
10370SOL    HW132009   3.239   1.070   5.688  1.2292  0.9669 -1.4730
10370SOL    HW232010   3.223   0.916   5.637 -0.2405  0.6955 -0.2287
10371SOL     OW32011   4.468   1.262   3.435  0.4133 -0.4406  0.6679
10371SOL    HW132012   4.457   1.268   3.336  2.0181  0.4945  0.5049
10371SOL    HW232013   4.472   1.354   3.474 -1.4676 -0.7888  1.8006
10372SOL     OW32014   0.914   1.522   3.587  0.6110 -0.4106  0.4110
10372SOL    HW132015   0.970   1.491   3.663 -0.5016 -1.7004  0.7374
10372SOL    HW232016   0.850   1.592   3.620 -0.5074 -1.6353  0.9045
10373SOL     OW32017   1.564   6.418   5.921  0.0336 -0.1410  0.1884
10373SOL    HW132018   1.509   6.494   5.886  0.1505 -0.7832 -1.4967
10373SOL    HW232019   1.521   6.380   6.003 -0.3012  1.3871  0.7397
10374SOL     OW32020   3.831   2.594   5.401 -0.2940 -0.1599  0.5971
10374SOL    HW132021   3.757   2.661   5.396 -0.7376 -0.5268  1.8827
10374SOL    HW232022   3.795   2.508   5.436  0.0553 -1.4310 -1.9514
10375SOL     OW32023   0.863   0.759   1.063 -0.1675  0.4342 -0.1545
10375SOL    HW132024   0.898   0.820   0.992 -0.4243  1.2264  0.3754
10375SOL    HW232025   0.796   0.809   1.119  0.2586 -0.0664  0.8303
10376SOL     OW32026   5.377   0.129   3.932  0.3684 -0.0037 -0.5667
10376SOL    HW132027   5.327   0.063   3.875  0.5102 -0.1169 -0.5601
10376SOL    HW232028   5.348   0.118   4.027 -0.0883  0.3900 -0.6586
10377SOL     OW32029   4.752   6.244   4.030  0.2544 -0.1480 -0.2601
10377SOL    HW132030   4.830   6.256   4.091  0.6376 -0.2956 -0.7152
10377SOL    HW232031   4.768   6.293   3.944  0.6998 -1.7099 -1.1103
10378SOL     OW32032   5.358   6.330   0.235 -0.1031 -0.4815 -0.4645
10378SOL    HW132033   5.369   6.338   0.136  1.3875 -0.9873 -0.3679
10378SOL    HW232034   5.400   6.409   0.279  1.2360 -1.3230 -0.1665
10379SOL     OW32035   4.484   2.148   4.772  0.0833 -0.6371 -0.0347
10379SOL    HW132036   4.533   2.141   4.686  0.8031 -0.2693  0.3370
10379SOL    HW232037   4.548   2.138   4.848 -0.5798 -1.2153  0.4659
10380SOL     OW32038   4.148   2.258   4.392  0.5076 -0.4061  0.0722
10380SOL    HW132039   4.230   2.307   4.424 -0.1613  0.1548  0.9886
10380SOL    HW232040   4.099   2.221   4.471 -0.7376  0.2483 -0.3756
10381SOL     OW32041   6.693   5.077   4.578 -0.2418  0.3550 -0.2380
10381SOL    HW132042   6.718   5.139   4.503 -1.1932 -1.5140 -2.2356
10381SOL    HW232043   6.768   5.013   4.594  0.7495  1.9205  1.8393
10382SOL     OW32044   6.030   6.165   6.521  0.0804  0.0795  0.1226
10382SOL    HW132045   6.040   6.214   6.434  0.7697 -1.7215 -0.8738
10382SOL    HW232046   6.101   6.194   6.584  0.8306 -0.0123 -0.6589
10383SOL     OW32047   4.954   3.820   0.894  0.0714 -0.0213  0.0655
10383SOL    HW132048   4.951   3.869   0.807 -0.7723 -0.9630 -0.4483
10383SOL    HW232049   4.883   3.750   0.896  1.6523 -1.7075  0.4996
10384SOL     OW32050   4.350   5.895   6.525 -0.2920 -0.0493  0.0274
10384SOL    HW132051   4.362   5.871   6.428  1.2004 -0.4586  0.2811
10384SOL    HW232052   4.422   5.851   6.579 -0.0349  1.5712  1.0888
10385SOL     OW32053   0.412   3.416   6.465  0.1602 -0.1278 -0.5928
10385SOL    HW132054   0.509   3.397   6.448  0.4494 -0.4029  1.2440
10385SOL    HW232055   0.402   3.463   6.552 -1.2591  1.2172 -1.4285
10386SOL     OW32056   6.100   1.016   6.002  0.1236  0.3407  0.1335
10386SOL    HW132057   6.049   0.950   6.056 -2.9253  1.8975 -0.5827
10386SOL    HW232058   6.122   0.977   5.913 -0.5062 -0.1496  0.1908
10387SOL     OW32059   0.541   4.011   2.140  0.4129 -0.1346 -0.2247
10387SOL    HW132060   0.495   4.008   2.051 -0.5729 -2.4350  0.2849
10387SOL    HW232061   0.639   4.003   2.127  0.2861 -0.3761 -1.0982
10388SOL     OW32062   1.238   3.049   1.522 -0.2348  0.0790  0.5255
10388SOL    HW132063   1.302   3.043   1.598 -0.9275 -3.8466  1.0191
10388SOL    HW232064   1.272   2.994   1.445 -2.0264 -0.4075  0.0403
10389SOL     OW32065   6.957   4.771   2.050  1.2467 -0.1643  0.3559
10389SOL    HW132066   6.871   4.810   2.082  1.9355  0.3508  1.6209
10389SOL    HW232067   7.008   4.735   2.127  1.3888 -2.0944 -0.5890
10390SOL     OW32068   6.836   3.663   1.577  0.1948 -0.0882  0.5985
10390SOL    HW132069   6.868   3.568   1.577  0.1676 -0.0973  0.4568
10390SOL    HW232070   6.870   3.709   1.495 -0.0618 -0.0662  0.5053
10391SOL     OW32071   4.442   4.845   4.410 -0.2005 -0.4103  0.3713
10391SOL    HW132072   4.528   4.795   4.423 -0.5058 -0.6872  1.5177
10391SOL    HW232073   4.365   4.781   4.416 -0.5234 -0.0352  0.2550
10392SOL     OW32074   6.845   0.510   6.710 -0.6856 -0.8602 -0.0126
10392SOL    HW132075   6.787   0.432   6.688 -2.8146  0.8768 -0.9474
10392SOL    HW232076   6.890   0.495   6.798 -2.4911 -2.3521  0.7178
10393SOL     OW32077   1.290   2.875   4.099 -0.1944 -0.2214  0.4074
10393SOL    HW132078   1.200   2.842   4.126  0.8103 -0.6939  3.5661
10393SOL    HW232079   1.298   2.972   4.120 -0.0875 -0.0861 -0.2393
10394SOL     OW32080   3.193   6.913   0.873 -0.2474  1.2883  0.3069
10394SOL    HW132081   3.183   6.880   0.967 -0.5042  1.8078  0.4665
10394SOL    HW232082   3.103   6.939   0.837 -0.6152 -1.5945 -1.1070
10395SOL     OW32083   0.371   1.141   4.488  0.9507 -0.1993  0.2097
10395SOL    HW132084   0.412   1.198   4.560  2.5442 -1.0911  0.0516
10395SOL    HW232085   0.287   1.099   4.523  1.0505  0.3402  1.1294
10396SOL     OW32086   1.864   0.186   4.117  0.1749  0.0529 -0.1596
10396SOL    HW132087   1.956   0.149   4.128 -0.1777 -1.3019 -1.3622
10396SOL    HW232088   1.854   0.269   4.170  1.3103 -1.1261  2.0207
10397SOL     OW32089   3.275   2.457   1.414 -0.1294 -0.3486  0.0930
10397SOL    HW132090   3.231   2.542   1.442  1.4177  0.6567 -0.4323
10397SOL    HW232091   3.333   2.424   1.488 -0.2397 -0.6162  0.0610
10398SOL     OW32092   5.713   2.874   2.092  0.1751  0.0522 -0.0033
10398SOL    HW132093   5.716   2.862   1.993 -0.2990 -1.2280  0.1194
10398SOL    HW232094   5.618   2.880   2.122  0.3314  1.1189  0.3119
10399SOL     OW32095   0.028   3.242   4.756 -1.1801  0.7991  0.0102
10399SOL    HW132096   0.060   3.197   4.839 -1.8919  1.6793  0.7885
10399SOL    HW232097   0.083   3.323   4.738 -0.1441 -0.1361 -1.1729
10400SOL     OW32098   0.984   4.646   2.138  0.0413 -0.1305  0.6783
10400SOL    HW132099   1.040   4.710   2.191 -0.3100  0.7756 -0.0157
10400SOL    HW232100   0.887   4.668   2.152 -0.0418  0.6142 -0.9018
10401SOL     OW32101   6.603   6.728   1.161  0.2785 -0.0514 -0.0076
10401SOL    HW132102   6.545   6.647   1.155  1.4618 -1.0116  0.9872
10401SOL    HW232103   6.616   6.753   1.257  0.8814  0.6212 -0.2530
10402SOL     OW32104   1.611   0.436   3.590 -0.4561  0.4515  0.8413
10402SOL    HW132105   1.682   0.405   3.527  1.1441  2.3167  1.6376
10402SOL    HW232106   1.524   0.442   3.542  0.4195  0.4329 -0.8064
10403SOL     OW32107   6.100   0.502   3.778 -0.0786  0.6985 -0.3020
10403SOL    HW132108   6.058   0.543   3.698 -0.9319  2.7721  1.1111
10403SOL    HW232109   6.070   0.408   3.788 -0.2114  0.5145 -2.1991
10404SOL     OW32110   0.129   5.733   4.528 -0.4562 -0.0254 -0.1984
10404SOL    HW132111   0.163   5.727   4.622  0.1014  0.3663 -0.3753
10404SOL    HW232112   0.031   5.756   4.530 -0.2331  0.9246  0.2734
10405SOL     OW32113   3.065   5.308   6.972 -0.0678 -0.7869  0.2027
10405SOL    HW132114   3.099   5.385   7.026 -0.1603 -0.5373 -0.0934
10405SOL    HW232115   2.969   5.323   6.950  0.6328  0.4744 -2.3712
10406SOL     OW32116   6.376   5.362   4.821 -0.0733  0.2446  0.1890
10406SOL    HW132117   6.299   5.408   4.777  0.1116 -0.0337 -0.4374
10406SOL    HW232118   6.462   5.405   4.793  0.0604 -0.0744  0.1048
10407SOL     OW32119   2.732   3.674   6.345  0.1677 -0.4356 -0.5896
10407SOL    HW132120   2.819   3.626   6.341 -0.6957 -2.1028 -0.2159
10407SOL    HW232121   2.718   3.726   6.261  1.4715 -0.1897 -0.6765
10408SOL     OW32122   3.361   0.717   2.790 -0.7719  0.4005  0.0492
10408SOL    HW132123   3.380   0.638   2.733  2.2655  1.0211  0.0360
10408SOL    HW232124   3.414   0.711   2.875 -1.2740  1.9288  0.5158
10409SOL     OW32125   0.700   4.852   1.880 -0.6094 -0.5972 -0.0341
10409SOL    HW132126   0.766   4.777   1.886 -0.5492 -0.4481  1.9050
10409SOL    HW232127   0.619   4.829   1.934  0.3132  1.5639  2.4794
10410SOL     OW32128   5.116   5.543   5.816 -0.0488  0.6710 -1.0318
10410SOL    HW132129   5.155   5.577   5.730  0.5265  1.0650 -0.6228
10410SOL    HW232130   5.028   5.500   5.798 -0.4493  1.7158 -1.6796
10411SOL     OW32131   3.411   3.543   0.714  0.1161  0.3004 -0.3430
10411SOL    HW132132   3.336   3.575   0.655 -0.8668 -0.0151  0.6824
10411SOL    HW232133   3.418   3.603   0.793  2.5760  1.7751 -1.5602
10412SOL     OW32134   1.794   3.402   0.354 -0.6993 -0.1025 -0.4498
10412SOL    HW132135   1.741   3.436   0.432  0.3956 -0.8134  0.6603
10412SOL    HW232136   1.887   3.438   0.359  0.0523 -1.9391 -0.0830
10413SOL     OW32137   0.241   0.540   5.011  0.4719  0.0733  0.6854
10413SOL    HW132138   0.273   0.629   4.980  0.9841 -0.6524 -0.9563
10413SOL    HW232139   0.310   0.498   5.070  0.4677  0.5185  1.0112
10414SOL     OW32140   4.684   1.299   5.775  0.1016 -0.3945 -0.5970
10414SOL    HW132141   4.727   1.242   5.845  0.4304 -1.5748 -1.7199
10414SOL    HW232142   4.612   1.246   5.730 -0.6774  0.6396 -0.5927
10415SOL     OW32143   6.890   4.164   3.399 -0.5369  0.2750  0.1365
10415SOL    HW132144   6.976   4.170   3.449 -0.9451  1.0618  0.7723
10415SOL    HW232145   6.816   4.141   3.462 -0.6858 -1.1983 -0.5360
10416SOL     OW32146   4.612   0.246   6.281 -0.1915 -0.1324 -0.0459
10416SOL    HW132147   4.693   0.287   6.239 -1.1978  0.5415 -1.3990
10416SOL    HW232148   4.541   0.234   6.212 -0.9711 -1.4966  0.9334
10417SOL     OW32149   6.011   4.499   4.563  0.3759  0.2326 -0.3834
10417SOL    HW132150   6.052   4.412   4.590 -2.2063 -0.9701 -0.0033
10417SOL    HW232151   5.915   4.484   4.539  0.0729  2.8718 -1.1238
10418SOL     OW32152   5.185   5.317   0.237 -0.1420  0.4301  0.0084
10418SOL    HW132153   5.125   5.300   0.159 -0.3260  1.1465 -0.0138
10418SOL    HW232154   5.161   5.254   0.311 -0.5197  0.3046 -0.2151
10419SOL     OW32155   0.126   6.979   5.969  0.3084  0.0724  0.2501
10419SOL    HW132156   0.190   7.027   6.029 -1.8468  0.8398  2.0819
10419SOL    HW232157   0.154   6.883   5.961  0.8011 -0.0113  2.3602
10420SOL     OW32158   6.074   3.074   3.344 -0.2237  0.1056 -0.2674
10420SOL    HW132159   6.000   3.140   3.362  0.4056  0.8900 -0.4727
10420SOL    HW232160   6.061   2.994   3.402 -1.2198  0.2401 -0.2814
10421SOL     OW32161   1.125   3.114   3.530  0.6748 -0.0851  0.2982
10421SOL    HW132162   1.209   3.169   3.533  1.6666 -1.5564  1.0774
10421SOL    HW232163   1.126   3.049   3.606 -0.4025 -1.2596 -0.6604
10422SOL     OW32164   6.446   1.595   5.124  0.3379  0.4732 -0.1652
10422SOL    HW132165   6.437   1.618   5.221 -1.9893 -0.3749 -0.1338
10422SOL    HW232166   6.457   1.496   5.114  3.2234  0.7387 -0.7008
10423SOL     OW32167   2.385   5.379   2.379 -0.3734 -0.0395 -0.4206
10423SOL    HW132168   2.319   5.454   2.381  2.0728  2.3080 -1.4601
10423SOL    HW232169   2.414   5.357   2.472  1.6414  3.0529 -0.1867
10424SOL     OW32170   5.841   0.108   2.388 -0.1257  0.2576  0.5703
10424SOL    HW132171   5.913   0.113   2.458  1.4509  0.2482 -0.9905
10424SOL    HW232172   5.753   0.097   2.433  0.7896  0.5308  2.5726
10425SOL     OW32173   6.827   4.240   2.420  0.5869 -0.6297 -0.1219
10425SOL    HW132174   6.919   4.234   2.459  0.5516 -0.5498 -0.0284
10425SOL    HW232175   6.829   4.202   2.327  0.1517 -3.2482  0.8384
10426SOL     OW32176   4.055   1.008   6.028  0.1793 -0.2387 -0.2543
10426SOL    HW132177   4.120   1.025   5.954  2.0353 -1.4322  1.0188
10426SOL    HW232178   4.045   1.092   6.083  0.5009  0.0134 -0.5746
10427SOL     OW32179   0.034   6.078   3.157  0.3638 -0.3395 -0.5779
10427SOL    HW132180   0.035   6.098   3.059  0.6957 -2.3361 -1.0100
10427SOL    HW232181  -0.052   6.034   3.182 -1.4371  3.5074  0.8409
10428SOL     OW32182   2.002   0.093   5.707  0.0462  0.5476  0.2362
10428SOL    HW132183   2.046   0.183   5.710  1.9386 -0.2790 -0.5879
10428SOL    HW232184   2.069   0.025   5.675 -2.0432 -0.6972 -1.8382
10429SOL     OW32185   1.331   4.573   1.257 -0.0974 -0.1033 -0.3251
10429SOL    HW132186   1.392   4.503   1.219 -0.7563 -0.4095 -0.8425
10429SOL    HW232187   1.356   4.662   1.219  0.4810 -0.1111  0.0207
10430SOL     OW32188   3.750   0.818   5.495 -0.3930 -0.1771 -0.4701
10430SOL    HW132189   3.818   0.783   5.559  1.0791  1.6906 -0.9185
10430SOL    HW232190   3.692   0.886   5.540 -2.0711 -1.8022 -0.0738
10431SOL     OW32191   5.124   3.443   4.099  0.0918 -0.2234 -0.3542
10431SOL    HW132192   5.183   3.440   4.019  0.7053  0.2673  0.0723
10431SOL    HW232193   5.159   3.510   4.164 -0.9513  0.1085 -0.1083
10432SOL     OW32194   2.185   4.158   3.169  0.3341  0.6298 -0.3824
10432SOL    HW132195   2.113   4.128   3.106  1.0343 -0.1492 -0.8142
10432SOL    HW232196   2.190   4.095   3.247 -0.2938  1.3958  0.2981
10433SOL     OW32197   4.217   6.744   4.299 -0.0538  0.9771  0.6450
10433SOL    HW132198   4.155   6.669   4.274  0.3602  1.2358 -1.3893
10433SOL    HW232199   4.306   6.706   4.324  0.5748  0.7527 -1.6788
10434SOL     OW32200   5.320   1.420   1.700 -0.8792 -0.7680 -0.3476
10434SOL    HW132201   5.381   1.495   1.725  0.4043 -2.0801  0.6022
10434SOL    HW232202   5.278   1.382   1.783  1.4073 -3.4815 -0.2794
10435SOL     OW32203   2.665   1.098   1.121 -0.0918  0.4121  0.2051
10435SOL    HW132204   2.661   1.007   1.163 -0.9580  0.1059 -0.5032
10435SOL    HW232205   2.639   1.092   1.025 -1.0219  1.5258  0.3516
10436SOL     OW32206   2.055   3.134   6.177 -0.5191 -0.4425  0.5271
10436SOL    HW132207   2.060   3.147   6.078  1.1812 -0.2418  0.6109
10436SOL    HW232208   2.133   3.180   6.220 -2.3876  1.3667  2.1864
10437SOL     OW32209   1.233   0.904   4.964  0.1026 -0.1574  0.5530
10437SOL    HW132210   1.319   0.854   4.969  0.1547 -0.0652  0.5738
10437SOL    HW232211   1.172   0.858   4.899  1.0761  1.1740 -1.4014
10438SOL     OW32212   6.035   0.001   0.181  0.6499 -0.3530 -0.0069
10438SOL    HW132213   6.126   0.042   0.178  0.9310 -1.0196 -0.8778
10438SOL    HW232214   6.021  -0.057   0.101 -0.1923 -1.0169  0.5950
10439SOL     OW32215   5.507   5.879   5.014 -0.3124 -0.2649  0.1442
10439SOL    HW132216   5.457   5.965   5.010 -0.9470 -0.5797  1.0991
10439SOL    HW232217   5.458   5.809   4.962 -0.3298 -0.3111  0.2230
10440SOL     OW32218   6.307   2.058   6.763  0.0395  0.2593 -0.3795
10440SOL    HW132219   6.268   2.147   6.785  2.3180  1.4413 -0.7880
10440SOL    HW232220   6.395   2.049   6.809  0.2335 -1.4455 -1.0337
10441SOL     OW32221   5.857   0.840   6.666  0.3391 -0.1952  0.1351
10441SOL    HW132222   5.908   0.771   6.615 -0.6406 -1.8452  1.2835
10441SOL    HW232223   5.900   0.929   6.654  1.9139 -1.0693 -1.0459
10442SOL     OW32224   3.024   1.950   6.095  0.2476 -0.3794  0.2697
10442SOL    HW132225   3.100   2.014   6.105 -0.6904  0.5554  1.9139
10442SOL    HW232226   3.059   1.856   6.097  1.6323  0.0075 -2.0799
10443SOL     OW32227   0.442   6.905   1.354  0.2578 -0.5726  0.4983
10443SOL    HW132228   0.454   6.805   1.352  0.0212 -0.6642 -3.2665
10443SOL    HW232229   0.412   6.937   1.264 -0.8395  2.8279  1.9086
10444SOL     OW32230   5.750   6.794   4.137  0.2116  0.5950  0.0957
10444SOL    HW132231   5.707   6.883   4.120 -0.8102 -0.1345 -1.3748
10444SOL    HW232232   5.711   6.754   4.219  0.4259  1.3423  0.5741
10445SOL     OW32233   1.769   3.402   4.278 -0.4182 -0.0765 -0.4037
10445SOL    HW132234   1.671   3.385   4.283 -0.3653 -0.4992 -0.6851
10445SOL    HW232235   1.814   3.322   4.238  0.0347  0.1314 -0.3152
10446SOL     OW32236   2.091   4.966   4.630 -0.0460  0.1017  0.0498
10446SOL    HW132237   2.044   4.951   4.718 -0.5412  0.7287 -0.1034
10446SOL    HW232238   2.186   4.936   4.638  0.1737  1.0084  1.0989
10447SOL     OW32239   0.324   1.088   3.089 -0.6407  0.0782  0.0798
10447SOL    HW132240   0.260   1.074   3.014 -0.7605  1.5780 -0.1261
10447SOL    HW232241   0.292   1.038   3.170 -1.1740 -0.5333 -0.4982
10448SOL     OW32242   0.680   3.659   1.302 -0.1166 -0.4256 -0.4679
10448SOL    HW132243   0.595   3.712   1.294 -1.2408 -1.7752  1.5638
10448SOL    HW232244   0.756   3.721   1.318 -1.2342  0.6973  0.8475
10449SOL     OW32245   3.545   6.755   4.760 -0.5885  0.2360 -0.2407
10449SOL    HW132246   3.544   6.655   4.757 -0.0293  0.1895  0.7237
10449SOL    HW232247   3.631   6.786   4.800 -1.2985  1.0655  0.6899
10450SOL     OW32248   0.918   1.009   4.638  0.2564 -0.0359 -0.5846
10450SOL    HW132249   0.979   0.929   4.632  2.6769  1.4514  1.9114
10450SOL    HW232250   0.824   0.978   4.648  0.9218 -2.5356 -1.3091
10451SOL     OW32251   1.590   1.638   5.548 -0.1753  0.7878  0.2233
10451SOL    HW132252   1.589   1.578   5.468  0.6417  0.1764  0.6656
10451SOL    HW232253   1.548   1.726   5.524 -1.5385  0.0007 -0.3891
10452SOL     OW32254   6.936   2.361   3.912 -0.4142  0.3289 -0.6554
10452SOL    HW132255   6.956   2.433   3.846  1.4875  0.8041  0.3615
10452SOL    HW232256   7.020   2.334   3.959 -1.4955 -0.8433  0.7258
10453SOL     OW32257   5.566   5.636   4.333 -0.1825  0.7032  0.3147
10453SOL    HW132258   5.474   5.620   4.297 -0.0955  0.3114  0.2575
10453SOL    HW232259   5.629   5.654   4.257 -0.6795  3.5141  0.4967
10454SOL     OW32260   0.269   2.995   6.708  0.2565 -0.8998  0.0018
10454SOL    HW132261   0.366   2.984   6.730  0.1306 -1.1893  0.4143
10454SOL    HW232262   0.259   3.065   6.638  0.7791 -0.9865 -0.1629
10455SOL     OW32263   1.207   5.973   1.793 -0.2046  0.7803 -0.0026
10455SOL    HW132264   1.252   5.989   1.881 -0.0757 -0.2983  0.1398
10455SOL    HW232265   1.120   5.926   1.808  1.4409 -2.7769 -0.5916
10456SOL     OW32266   6.754   5.949   5.237  0.4506 -0.0654  0.6278
10456SOL    HW132267   6.671   5.966   5.291  0.0026 -0.0298 -0.0476
10456SOL    HW232268   6.747   6.000   5.151  1.9570  1.3525  1.2848
10457SOL     OW32269   3.994   6.739   3.245 -0.0166  0.3681 -0.1813
10457SOL    HW132270   3.920   6.801   3.218  0.0617  0.4034 -0.3204
10457SOL    HW232271   3.956   6.658   3.289 -0.0867  0.7576  0.4820
10458SOL     OW32272   1.165   0.212   1.742  0.0057  0.3162 -0.3140
10458SOL    HW132273   1.096   0.201   1.671 -0.5107  2.2444 -0.1561
10458SOL    HW232274   1.168   0.130   1.798  0.6387 -1.3961 -2.6867
10459SOL     OW32275   5.468   6.089   2.582  0.7307  0.1185 -0.3622
10459SOL    HW132276   5.479   6.046   2.672  2.6322  1.4768  0.1365
10459SOL    HW232277   5.412   6.031   2.523  1.2661 -1.8618  0.9848
10460SOL     OW32278   5.125   2.318   0.811 -0.5184  0.1172  0.1175
10460SOL    HW132279   5.200   2.265   0.771  1.6446  2.4147  0.8283
10460SOL    HW232280   5.122   2.302   0.910 -0.9360  0.0918  0.1017
10461SOL     OW32281   1.370   1.989   6.980  0.0593 -0.9213  0.5042
10461SOL    HW132282   1.301   1.937   7.031  0.0314 -1.4853 -0.0912
10461SOL    HW232283   1.365   1.964   6.883 -0.0926  0.3575  0.1705
10462SOL     OW32284   3.628   3.991   0.191  0.3684 -0.3412  0.1625
10462SOL    HW132285   3.606   3.929   0.116  1.0358  0.1186 -0.4226
10462SOL    HW232286   3.544   4.026   0.232 -0.0646 -2.4044  1.1815
10463SOL     OW32287   0.024   2.643   4.342  0.6359  0.0034 -0.6295
10463SOL    HW132288  -0.073   2.659   4.326  1.0883  1.6745 -1.9583
10463SOL    HW232289   0.046   2.665   4.437 -0.5011 -1.7751  0.1090
10464SOL     OW32290   0.015   3.819   0.655 -0.1475 -0.7832  0.4116
10464SOL    HW132291   0.074   3.881   0.603 -0.3853 -0.9601 -0.0734
10464SOL    HW232292   0.034   3.830   0.752 -0.1499  0.0139  0.3338
10465SOL     OW32293   5.072   2.564   1.213 -0.0000 -0.2163 -0.4941
10465SOL    HW132294   5.099   2.660   1.218  3.3157 -1.0921  0.5981
10465SOL    HW232295   5.041   2.534   1.303  2.4225 -0.9901  0.1493
10466SOL     OW32296   0.406   5.263   6.120 -0.4703  0.0123 -0.7703
10466SOL    HW132297   0.315   5.297   6.096 -0.0424  0.8550 -1.2534
10466SOL    HW232298   0.434   5.303   6.208 -1.0363 -1.1733 -0.0228
10467SOL     OW32299   0.607   5.166   0.518 -0.3594  0.5606 -0.2865
10467SOL    HW132300   0.621   5.250   0.570  2.2872  0.3771 -0.5699
10467SOL    HW232301   0.610   5.087   0.580  1.3733  0.4428 -0.4609
10468SOL     OW32302   2.639   4.663   3.041  0.1819 -0.6347 -0.0161
10468SOL    HW132303   2.610   4.598   2.971  1.2294 -0.5473 -0.5492
10468SOL    HW232304   2.664   4.613   3.124  1.3748 -0.9898 -0.5532
10469SOL     OW32305   2.321   1.031   3.408 -0.4290 -0.7069 -0.2788
10469SOL    HW132306   2.265   1.072   3.335 -1.4622 -1.9345 -0.2073
10469SOL    HW232307   2.325   1.094   3.485  0.2969  0.4193 -1.2006
10470SOL     OW32308   2.299   1.996   0.937 -0.3622  0.1499 -0.6973
10470SOL    HW132309   2.388   1.977   0.896  1.5681  1.0591  2.6897
10470SOL    HW232310   2.260   1.912   0.974  0.4018  0.1487  0.1268
10471SOL     OW32311   2.396   3.323   6.653 -0.0848 -0.2131  0.2960
10471SOL    HW132312   2.441   3.399   6.607 -1.0998 -0.2012 -0.7446
10471SOL    HW232313   2.451   3.241   6.644 -0.4995 -0.3440 -1.4930
10472SOL     OW32314   3.659   3.927   6.943  0.5760 -0.1770 -0.4797
10472SOL    HW132315   3.690   3.989   6.871  0.1591 -0.0622 -0.5572
10472SOL    HW232316   3.730   3.858   6.960  0.5487 -0.3831 -1.1979
10473SOL     OW32317   4.977   6.110   1.139  0.2030 -0.1674 -0.7252
10473SOL    HW132318   5.070   6.089   1.110  1.0724 -2.5056  2.9996
10473SOL    HW232319   4.915   6.039   1.105  0.4097 -0.4395 -0.5436
10474SOL     OW32320   5.143   4.750   3.543  0.3088 -0.6023 -0.2322
10474SOL    HW132321   5.048   4.767   3.567  0.5469 -0.6900  0.8377
10474SOL    HW232322   5.149   4.722   3.447 -0.4064  2.4239 -1.2685
10475SOL     OW32323   0.317   6.028   1.926 -0.3424 -0.3404  0.1952
10475SOL    HW132324   0.357   6.119   1.935 -0.7452 -0.0500 -0.8486
10475SOL    HW232325   0.390   5.962   1.908 -0.0450 -0.2486  0.9909
10476SOL     OW32326   5.603   5.021   3.340 -0.0108 -0.9052 -0.1641
10476SOL    HW132327   5.512   5.054   3.315 -0.3036 -2.4195 -1.2214
10476SOL    HW232328   5.620   5.037   3.437 -1.0596  0.1393 -0.1356
10477SOL     OW32329   6.583   5.643   5.319  0.1621  0.2091 -0.1044
10477SOL    HW132330   6.564   5.546   5.303  0.5824  0.3319 -1.3983
10477SOL    HW232331   6.677   5.653   5.353 -0.2919  0.0727  1.2704
10478SOL     OW32332   5.608   0.593   0.469  0.1572 -0.3645  0.6515
10478SOL    HW132333   5.526   0.608   0.524  0.7871  1.4350  1.1813
10478SOL    HW232334   5.675   0.540   0.522 -0.3326 -1.1327  0.5176
10479SOL     OW32335   0.004   3.541   3.328  0.4973  0.2162 -0.4630
10479SOL    HW132336   0.020   3.537   3.229 -1.0308  0.2204 -0.7300
10479SOL    HW232337  -0.019   3.635   3.354 -0.2243  0.0009 -0.2994
10480SOL     OW32338   1.937   1.572   1.458  0.2854  0.0669 -0.3560
10480SOL    HW132339   1.924   1.473   1.464 -1.0199  0.2250 -0.2685
10480SOL    HW232340   2.018   1.592   1.402  0.5197 -1.0343 -0.4349
10481SOL     OW32341   0.096   1.397   3.019 -0.0771  0.9821  0.6932
10481SOL    HW132342   0.085   1.307   2.977 -0.3480  0.0183  2.6883
10481SOL    HW232343   0.185   1.402   3.064  0.3111  2.0750 -0.1479
10482SOL     OW32344   5.459   4.373   3.047  0.1239 -0.3074  0.0131
10482SOL    HW132345   5.474   4.287   3.097  0.8391 -0.4200 -0.3758
10482SOL    HW232346   5.546   4.422   3.039  0.4050 -1.0576 -2.4775
10483SOL     OW32347   5.793   0.257   0.428  0.4589  0.0425  0.3812
10483SOL    HW132348   5.819   0.217   0.340  1.1017  1.2201  0.0050
10483SOL    HW232349   5.854   0.334   0.449 -1.9389  2.1973  0.0358
10484SOL     OW32350   0.386   0.197   2.218 -0.0230 -0.1418 -0.0882
10484SOL    HW132351   0.414   0.283   2.175 -1.8851  0.4498 -0.2012
10484SOL    HW232352   0.329   0.145   2.154 -0.7322 -0.4232  0.7599
10485SOL     OW32353   4.287   2.716   5.369 -0.4511  0.3290  0.3400
10485SOL    HW132354   4.373   2.756   5.341  0.7208 -1.7030  0.8099
10485SOL    HW232355   4.254   2.654   5.298 -1.2364  0.6495  0.4087
10486SOL     OW32356   4.804   2.606   1.080 -0.6150 -0.0841  0.6937
10486SOL    HW132357   4.747   2.673   1.127 -1.7355  0.3362 -1.1449
10486SOL    HW232358   4.883   2.583   1.137 -1.5949  0.7889  2.4807
10487SOL     OW32359   3.781   6.841   3.913 -0.2190 -0.5334  0.4227
10487SOL    HW132360   3.806   6.847   4.009 -0.6121  0.2611  0.4824
10487SOL    HW232361   3.737   6.927   3.884 -0.4051 -0.8856 -0.3735
10488SOL     OW32362   2.613   5.400   5.085  0.0610 -0.6057 -0.5449
10488SOL    HW132363   2.699   5.379   5.131 -0.9567 -1.7570  0.9296
10488SOL    HW232364   2.627   5.400   4.986  1.3768 -2.6689 -0.4159
10489SOL     OW32365   1.756   5.398   5.258  0.2138 -0.1850  0.7284
10489SOL    HW132366   1.705   5.376   5.175 -0.0268  1.0611  0.5219
10489SOL    HW232367   1.697   5.449   5.320  1.6847  3.1208 -0.3748
10490SOL     OW32368   6.317   5.059   6.161  0.3685 -0.1832 -0.2130
10490SOL    HW132369   6.336   5.109   6.245 -1.3557  1.2710 -0.6478
10490SOL    HW232370   6.220   5.037   6.156  0.5125 -0.5842 -1.6432
10491SOL     OW32371   0.241   6.436   4.607 -0.6552 -0.9186  0.0216
10491SOL    HW132372   0.266   6.467   4.699 -0.7634  2.4257 -0.9491
10491SOL    HW232373   0.323   6.406   4.558 -0.5379 -2.2998  0.9975
10492SOL     OW32374   5.463   4.676   5.052  0.4551 -0.3219 -0.3069
10492SOL    HW132375   5.425   4.638   4.968  0.2264 -2.0983  0.5581
10492SOL    HW232376   5.551   4.718   5.033 -0.8823  1.9990 -1.9582
10493SOL     OW32377   4.477   1.769   1.347  0.3132  0.5384 -0.0527
10493SOL    HW132378   4.515   1.845   1.293 -2.5205  1.3760 -1.0381
10493SOL    HW232379   4.379   1.783   1.359 -0.1650 -2.6083  0.4240
10494SOL     OW32380   4.478   1.631   5.262 -0.9362 -0.0650 -0.2652
10494SOL    HW132381   4.551   1.650   5.197  0.3642 -2.0789  0.5058
10494SOL    HW232382   4.502   1.669   5.351 -1.4034  0.2921 -0.2873
10495SOL     OW32383   1.713   0.064   4.294  0.1347 -0.4036 -0.0023
10495SOL    HW132384   1.619   0.082   4.267 -0.6037 -0.0787  2.4739
10495SOL    HW232385   1.774   0.079   4.217 -1.8946 -1.4425 -1.9165
10496SOL     OW32386   1.241   0.168   2.915 -0.2393 -0.4608  0.0642
10496SOL    HW132387   1.313   0.227   2.950  0.5135 -1.8613  1.0114
10496SOL    HW232388   1.259   0.144   2.820  0.9244 -1.3205  0.4847
10497SOL     OW32389   2.319   0.825   5.978  0.2339  0.7475  0.1854
10497SOL    HW132390   2.250   0.887   5.941  0.0632  0.6022  0.2578
10497SOL    HW232391   2.408   0.871   5.979 -0.1254  1.4684  1.4714
10498SOL     OW32392   3.488   4.891   5.944  0.6286 -0.0134 -0.9628
10498SOL    HW132393   3.555   4.888   5.869 -0.2304  0.7642 -1.7843
10498SOL    HW232394   3.429   4.810   5.939  0.4583  0.1243 -1.2496
10499SOL     OW32395   3.052   5.899   3.655 -0.0547 -0.1860 -0.1093
10499SOL    HW132396   3.055   5.852   3.744  0.1023 -0.0595 -0.0481
10499SOL    HW232397   3.080   5.835   3.584  1.5238  0.1928  0.1348
10500SOL     OW32398   6.848   2.091   6.896  0.2460 -0.2449  0.0774
10500SOL    HW132399   6.921   2.093   6.964  0.4860 -0.5669 -0.1704
10500SOL    HW232400   6.836   2.183   6.858 -0.1997  0.0365  0.8784
10501SOL     OW32401   2.188   3.941   2.546 -0.1833 -0.8099  0.0377
10501SOL    HW132402   2.168   3.844   2.533  1.0420 -1.0709  0.0267
10501SOL    HW232403   2.215   3.983   2.459  0.1120 -0.6543  0.2025
10502SOL     OW32404   1.836   6.852   3.761  0.2195  0.1492 -0.0255
10502SOL    HW132405   1.782   6.926   3.802  0.9812  0.4034  0.5417
10502SOL    HW232406   1.902   6.818   3.827  0.3740 -0.5514 -0.5238
10503SOL     OW32407   3.192   2.466   6.629  0.1806  0.1066  0.1144
10503SOL    HW132408   3.204   2.391   6.564  1.1626  0.2730  0.0796
10503SOL    HW232409   3.119   2.445   6.693  0.3186 -0.7925 -0.0174
10504SOL     OW32410   2.613   3.941   6.444 -0.3518  0.0001 -0.3867
10504SOL    HW132411   2.572   3.975   6.360  0.8319  0.4512 -0.7948
10504SOL    HW232412   2.677   3.868   6.423  0.9363  0.9917 -0.0414
10505SOL     OW32413   0.727   6.579   1.750 -0.2034 -0.2298 -0.0047
10505SOL    HW132414   0.809   6.551   1.700  0.0453 -0.7903  0.6901
10505SOL    HW232415   0.702   6.672   1.724  1.6863  0.6298  1.0605
10506SOL     OW32416   6.272   5.164   6.883 -0.0360  0.2494  0.3344
10506SOL    HW132417   6.312   5.093   6.941  0.6750  0.5353  0.2034
10506SOL    HW232418   6.172   5.159   6.889  0.0205  0.0583  1.3161
10507SOL     OW32419   3.357   1.091   1.720 -0.0512 -0.3039  0.3077
10507SOL    HW132420   3.307   1.060   1.639 -1.8743 -0.3966  1.4085
10507SOL    HW232421   3.295   1.143   1.779  0.9427 -1.1557  2.1653
10508SOL     OW32422   5.801   3.576   1.529  0.6586 -0.6170 -0.2213
10508SOL    HW132423   5.850   3.640   1.471  0.4641  0.6859  0.9857
10508SOL    HW232424   5.818   3.598   1.625 -1.8871 -0.3551  0.2574
10509SOL     OW32425   2.451   1.066   5.939  0.3148 -0.4505  0.5475
10509SOL    HW132426   2.517   1.117   5.885  2.0913 -0.3554  2.6449
10509SOL    HW232427   2.361   1.109   5.933  0.8340  0.4762 -0.9654
10510SOL     OW32428   6.412   0.094   6.565 -0.3486  0.4642  0.0631
10510SOL    HW132429   6.458   0.008   6.583 -0.3819 -0.2978 -2.9806
10510SOL    HW232430   6.397   0.143   6.651  1.7458 -1.4611  1.6200
10511SOL     OW32431   6.049   3.164   2.079  0.1209  0.2182  0.6163
10511SOL    HW132432   6.112   3.132   2.150 -0.0715 -1.0766  0.2166
10511SOL    HW232433   5.971   3.209   2.123  0.0298 -0.5173  1.2301
10512SOL     OW32434   3.815   0.479   5.948  0.1943  0.6885 -0.1558
10512SOL    HW132435   3.802   0.385   5.979 -1.5868  0.3112 -1.7953
10512SOL    HW232436   3.886   0.523   6.002  2.3177 -2.1137 -0.4127
10513SOL     OW32437   1.251   2.164   0.738  0.1970  0.3082  0.4321
10513SOL    HW132438   1.177   2.100   0.758 -0.1143  0.3488 -0.5699
10513SOL    HW232439   1.236   2.207   0.649  1.7833 -0.1954 -0.1174
10514SOL     OW32440   6.450   1.091   0.042  0.0756  1.0222  0.3842
10514SOL    HW132441   6.370   1.067  -0.013 -0.5955  0.9419  1.3810
10514SOL    HW232442   6.471   1.188   0.029 -1.4899  1.5849  1.7187
10515SOL     OW32443   1.730   1.485   5.163 -0.5157  0.0805  0.3943
10515SOL    HW132444   1.754   1.452   5.072 -1.0456 -0.2762  0.3768
10515SOL    HW232445   1.732   1.409   5.228  0.7418  0.5001  0.8706
10516SOL     OW32446   4.503   6.793   0.754 -0.1099  0.5203 -0.5545
10516SOL    HW132447   4.442   6.767   0.829 -0.4237  0.8482 -0.6877
10516SOL    HW232448   4.597   6.793   0.786  0.0269 -1.7521 -0.8110
10517SOL     OW32449   0.978   1.669   3.054  0.3253  0.4790  0.0991
10517SOL    HW132450   0.900   1.649   2.995  1.1481 -2.0251 -0.2757
10517SOL    HW232451   1.016   1.758   3.031 -1.5233  1.1097 -0.6877
10518SOL     OW32452   0.229   6.452   3.704 -0.0559  0.5299 -0.3301
10518SOL    HW132453   0.314   6.400   3.705  0.8889  1.9670 -1.2562
10518SOL    HW232454   0.190   6.450   3.611 -0.4507  0.7847 -0.1737
10519SOL     OW32455   6.021   2.198   4.914 -0.2758  0.1291 -0.6916
10519SOL    HW132456   5.940   2.141   4.930  0.2496 -0.2428  0.8381
10519SOL    HW232457   6.074   2.160   4.838 -0.5329 -0.7593 -0.4381
10520SOL     OW32458   2.178   6.006   4.957 -0.1541  0.0055 -0.4934
10520SOL    HW132459   2.082   5.981   4.959  0.1672 -1.2898  1.9924
10520SOL    HW232460   2.190   6.098   4.995 -0.2976 -0.4880  0.8098
10521SOL     OW32461   4.147   5.843   6.688 -0.2281 -0.8257  0.1431
10521SOL    HW132462   4.169   5.888   6.775 -2.7038  2.8168 -0.8465
10521SOL    HW232463   4.221   5.861   6.623 -0.9047  1.6796 -0.0669
10522SOL     OW32464   1.079   6.470   2.617 -0.1148 -0.2228  0.3016
10522SOL    HW132465   0.996   6.498   2.666 -0.4099  0.2569 -0.4550
10522SOL    HW232466   1.071   6.375   2.589 -1.3132  0.3630 -1.5305
10523SOL     OW32467   5.181   5.480   6.419 -0.1301 -0.2307  0.1450
10523SOL    HW132468   5.212   5.468   6.325  0.2236  3.3785 -0.3387
10523SOL    HW232469   5.260   5.475   6.481 -0.5549 -4.3881  0.6612
10524SOL     OW32470   5.053   3.148   5.684  0.8551  0.4766 -0.2374
10524SOL    HW132471   5.029   3.204   5.605  1.9649 -0.5067 -1.3232
10524SOL    HW232472   5.151   3.158   5.704  0.7092  0.2552  0.6567
10525SOL     OW32473   1.294   0.277   6.593 -0.8367 -0.1637  0.0022
10525SOL    HW132474   1.392   0.296   6.594 -1.0394  1.0219  1.4740
10525SOL    HW232475   1.278   0.181   6.614  0.0058 -0.2593  0.2098
10526SOL     OW32476   4.602   6.976   3.888  0.2042 -0.2868  0.0646
10526SOL    HW132477   4.677   6.937   3.942  0.1356 -0.9589 -0.3073
10526SOL    HW232478   4.515   6.949   3.929  0.1414 -1.3735 -0.7522
10527SOL     OW32479   2.023   2.952   4.198  0.1998  0.5063 -0.3565
10527SOL    HW132480   1.962   2.882   4.237  1.2187  0.4017  1.1413
10527SOL    HW232481   2.072   2.914   4.120  1.6309 -0.9392  1.1515
10528SOL     OW32482   5.191   5.585   5.554  0.1646  0.5126 -0.0676
10528SOL    HW132483   5.260   5.644   5.513 -0.6031  1.1534 -0.4838
10528SOL    HW232484   5.208   5.490   5.530 -0.5450  0.9068 -2.3486
10529SOL     OW32485   6.637   6.189   5.329  0.2866 -0.1865 -0.6052
10529SOL    HW132486   6.729   6.214   5.300  0.1030  1.9511  0.4769
10529SOL    HW232487   6.636   6.175   5.428 -0.4618 -0.7537 -0.6819
10530SOL     OW32488   2.092   2.152   5.016  0.2172 -1.2225  0.1495
10530SOL    HW132489   2.125   2.238   5.056  1.9235 -2.7364  2.2593
10530SOL    HW232490   2.094   2.080   5.086  1.5198 -3.6547 -2.1931
10531SOL     OW32491   3.457   2.846   5.714 -0.3096  0.4602  0.1376
10531SOL    HW132492   3.470   2.944   5.725 -0.1044  0.3590  0.8339
10531SOL    HW232493   3.428   2.826   5.620  2.4519  0.9231 -0.9354
10532SOL     OW32494   2.953   3.897   4.725 -0.5006 -0.1138  0.1593
10532SOL    HW132495   2.923   3.975   4.671  1.2600 -0.2958 -1.1814
10532SOL    HW232496   3.044   3.867   4.693 -0.1578 -1.3239  2.0950
10533SOL     OW32497   3.747   0.546   5.641 -0.0587  0.6751 -0.7108
10533SOL    HW132498   3.825   0.503   5.595  1.3161  1.8462  0.4219
10533SOL    HW232499   3.748   0.521   5.738 -2.6822 -1.4408 -1.1271
10534SOL     OW32500   4.469   2.981   6.972  0.4689  0.2208 -0.1146
10534SOL    HW132501   4.407   3.055   6.999 -0.2758 -0.3804 -0.1401
10534SOL    HW232502   4.466   2.909   7.040  0.7609 -0.0367 -0.3746
10535SOL     OW32503   6.605   0.261   1.648  0.4244 -0.3728  0.3270
10535SOL    HW132504   6.644   0.353   1.647 -0.1036 -0.1421 -0.9381
10535SOL    HW232505   6.674   0.196   1.615  0.3865 -0.2485  0.0004
10536SOL     OW32506   3.501   0.446   3.873 -0.2257  0.2753 -0.6090
10536SOL    HW132507   3.433   0.497   3.820 -0.9505  0.3008  0.3333
10536SOL    HW232508   3.521   0.494   3.958 -0.1835 -0.5046 -0.1618
10537SOL     OW32509   5.532   6.271   1.204  0.0836  0.5880  0.6056
10537SOL    HW132510   5.471   6.229   1.136 -3.2352  0.5364  3.3788
10537SOL    HW232511   5.586   6.200   1.248 -0.7127  0.0640  0.7628
10538SOL     OW32512   5.368   3.432   0.368 -0.5989  0.3876  0.4255
10538SOL    HW132513   5.272   3.424   0.343 -0.9200  0.8634  1.4426
10538SOL    HW232514   5.390   3.362   0.436  0.1980 -0.7350 -0.9198
10539SOL     OW32515   1.567   1.913   6.226 -0.0001 -0.2621  0.3310
10539SOL    HW132516   1.639   1.956   6.280  1.4094 -0.3022 -1.4233
10539SOL    HW232517   1.570   1.949   6.132  0.3052 -3.0384 -0.8279
10540SOL     OW32518   3.764   1.043   1.185  0.0942  0.0626  0.0333
10540SOL    HW132519   3.705   1.113   1.226 -2.2329 -1.6047 -0.2086
10540SOL    HW232520   3.786   1.068   1.091 -2.9418 -0.6188 -0.9747
10541SOL     OW32521   3.468   1.923   1.372  0.1926 -0.3140  0.1384
10541SOL    HW132522   3.551   1.978   1.362  0.8622 -1.5986 -1.8141
10541SOL    HW232523   3.388   1.984   1.376  1.1476  0.9068  1.3661
10542SOL     OW32524   6.948   1.849   0.322  0.2233 -0.5617 -0.0313
10542SOL    HW132525   6.863   1.891   0.290  1.3148  1.8000 -0.0280
10542SOL    HW232526   6.988   1.794   0.249 -1.4855 -2.1358  0.1244
10543SOL     OW32527   3.360   0.457   3.354  0.3535 -0.1049  0.3009
10543SOL    HW132528   3.351   0.554   3.335  0.2625 -0.5008 -2.0369
10543SOL    HW232529   3.453   0.427   3.331  0.6551 -0.4237  1.8563
10544SOL     OW32530   0.464   0.812   0.683 -0.0889 -0.5154  0.0132
10544SOL    HW132531   0.418   0.742   0.628 -1.5732  1.3192 -1.2107
10544SOL    HW232532   0.425   0.812   0.775 -1.6964  0.1220 -0.6221
10545SOL     OW32533   4.612   2.613   3.374 -0.1565  0.0085 -0.2421
10545SOL    HW132534   4.572   2.655   3.291  1.9760 -1.5606 -2.1690
10545SOL    HW232535   4.692   2.666   3.402  0.6622 -0.9200 -0.7810
10546SOL     OW32536   4.936   1.903   5.546  0.0621  0.2298  0.0061
10546SOL    HW132537   5.005   1.974   5.532  1.8903 -1.2139  1.2840
10546SOL    HW232538   4.973   1.831   5.604 -1.6154 -1.9339 -1.4447
10547SOL     OW32539   5.107   5.287   3.748 -0.3967  0.4745 -0.0772
10547SOL    HW132540   5.150   5.337   3.823 -0.0115  2.2679 -1.4243
10547SOL    HW232541   5.177   5.251   3.687 -0.7178 -0.4162  0.0770
10548SOL     OW32542   6.218   4.409   6.138 -0.2482  0.2825 -0.3625
10548SOL    HW132543   6.228   4.489   6.197 -0.6616 -0.1148  0.2499
10548SOL    HW232544   6.123   4.379   6.137 -0.2949  0.4307 -1.4296
10549SOL     OW32545   0.389   2.674   0.388 -0.1315 -0.5838 -0.0214
10549SOL    HW132546   0.486   2.691   0.372 -0.1829  0.0019  0.2295
10549SOL    HW232547   0.350   2.751   0.439 -0.6433 -0.9871  0.2097
10550SOL     OW32548   4.132   5.991   4.120 -0.2945 -0.0950 -0.3566
10550SOL    HW132549   4.048   5.984   4.066 -1.0565 -2.7085  0.9676
10550SOL    HW232550   4.172   6.082   4.110 -1.2883  0.0830 -3.8907
10551SOL     OW32551   1.562   2.107   0.351 -0.0986 -0.7502 -0.2895
10551SOL    HW132552   1.526   2.033   0.409 -1.1102  0.9209  1.3182
10551SOL    HW232553   1.491   2.177   0.339  0.6091 -0.3332 -2.3468
10552SOL     OW32554   3.205   0.208   5.097 -0.0663 -0.5181 -0.2128
10552SOL    HW132555   3.199   0.290   5.153 -0.6060  0.9463 -2.3149
10552SOL    HW232556   3.117   0.160   5.099 -0.6716  0.4931 -1.1370
10553SOL     OW32557   1.796   5.089   6.514 -0.6383  0.5720  0.3072
10553SOL    HW132558   1.783   5.021   6.443  1.2610 -0.7353  1.1301
10553SOL    HW232559   1.746   5.172   6.490 -1.4777 -0.4314 -1.6503
10554SOL     OW32560   6.446   4.230   6.987 -0.6191  0.1309 -0.0534
10554SOL    HW132561   6.439   4.258   6.891  0.6674  1.4916  0.2269
10554SOL    HW232562   6.541   4.237   7.017 -1.0350 -0.1471  1.3761
10555SOL     OW32563   4.119   2.042   2.598  0.4176  0.1706 -0.0698
10555SOL    HW132564   4.099   2.088   2.512  0.7932  1.0998  0.3313
10555SOL    HW232565   4.070   1.955   2.602  3.0668 -1.6644 -2.8046
10556SOL     OW32566   1.570   3.965   5.026 -0.1593  0.4206  0.4396
10556SOL    HW132567   1.520   4.045   4.994  0.1710  1.2821  1.9586
10556SOL    HW232568   1.506   3.900   5.067 -0.4364 -0.1593 -0.8594
10557SOL     OW32569   5.206   0.010   1.332 -0.4845  0.1235 -0.6253
10557SOL    HW132570   5.242   0.087   1.279 -0.2235  0.3469 -0.1220
10557SOL    HW232571   5.226  -0.075   1.283  0.5043  0.2603 -0.4833
10558SOL     OW32572   5.302   6.834   4.031  0.0765  0.0010 -0.2206
10558SOL    HW132573   5.237   6.759   4.028 -0.5079  0.5116 -0.6947
10558SOL    HW232574   5.365   6.827   3.954  0.1219 -0.0879 -0.1755
10559SOL     OW32575   4.696   3.668   0.384  0.6061  0.1966  0.6250
10559SOL    HW132576   4.780   3.659   0.331 -0.0440 -1.2670 -0.2006
10559SOL    HW232577   4.653   3.579   0.395 -1.7615  1.1045 -0.5149
10560SOL     OW32578   6.156   2.638   2.565  0.0114 -0.1467 -0.3698
10560SOL    HW132579   6.253   2.646   2.587 -0.3875  0.2286  1.3834
10560SOL    HW232580   6.133   2.704   2.493  0.6509  1.2935  0.6976
10561SOL     OW32581   2.309   4.208   5.557 -0.0599  0.3251 -0.1789
10561SOL    HW132582   2.310   4.147   5.636 -0.3412  0.1025 -0.3440
10561SOL    HW232583   2.262   4.163   5.481  2.3107 -0.4857 -1.2712
10562SOL     OW32584   3.973   2.721   6.499  0.3807 -0.3499  0.1911
10562SOL    HW132585   3.967   2.713   6.598 -0.8962  0.4972  0.1983
10562SOL    HW232586   3.899   2.779   6.465  0.8278 -0.5811 -1.2564
10563SOL     OW32587   0.907   1.473   1.993  0.3192 -0.0037 -0.3090
10563SOL    HW132588   0.986   1.506   1.941  1.2804  0.8599  1.6210
10563SOL    HW232589   0.933   1.458   2.088 -1.7894  0.1015  0.3375
10564SOL     OW32590   0.732   0.527   1.036 -0.4654  0.1751  0.3937
10564SOL    HW132591   0.800   0.598   1.055  0.8758 -1.0384  0.3106
10564SOL    HW232592   0.718   0.520   0.937 -0.3676  0.1157  0.3841
10565SOL     OW32593   6.438   2.378   4.906  0.4637 -0.1355 -0.0567
10565SOL    HW132594   6.528   2.401   4.941  0.4922  0.2900 -0.4002
10565SOL    HW232595   6.417   2.436   4.827  0.5753 -1.3293 -1.0011
10566SOL     OW32596   6.009   4.814   5.947  0.1094  0.2166 -0.5316
10566SOL    HW132597   5.993   4.838   5.852 -0.0585  0.8565 -0.3478
10566SOL    HW232598   5.921   4.814   5.996  0.4117  2.0851  0.1089
10567SOL     OW32599   3.234   5.489   6.810  0.9038  0.2145  0.0964
10567SOL    HW132600   3.256   5.565   6.871 -1.5884  0.8600  0.3127
10567SOL    HW232601   3.280   5.406   6.842  3.3663  1.4967  0.0663
10568SOL     OW32602   2.842   1.887   2.509 -0.2453  0.3440 -0.5999
10568SOL    HW132603   2.834   1.971   2.563  0.1090  0.2297 -0.3684
10568SOL    HW232604   2.928   1.888   2.458 -0.1628  0.0477 -0.4666
10569SOL     OW32605   6.281   1.304   2.971 -0.3349 -0.3345  0.0988
10569SOL    HW132606   6.309   1.397   2.947  0.9029 -0.2900  1.5322
10569SOL    HW232607   6.361   1.244   2.968 -0.7742 -0.9716  0.8652
10570SOL     OW32608   6.697   3.135   1.809 -0.0033  0.3974 -0.0465
10570SOL    HW132609   6.663   3.045   1.782 -1.1811  0.3585  1.4483
10570SOL    HW232610   6.639   3.206   1.770  0.0066  0.4503  0.0351
10571SOL     OW32611   6.117   6.695   4.430  0.3988 -0.3719  0.1628
10571SOL    HW132612   6.058   6.770   4.459  0.3701  0.6977 -2.3918
10571SOL    HW232613   6.213   6.725   4.433  0.5530 -0.9215  0.9999
10572SOL     OW32614   0.236   3.392   2.912 -0.5541 -0.2444  0.5416
10572SOL    HW132615   0.227   3.310   2.970 -2.0346 -0.2110  0.4012
10572SOL    HW232616   0.313   3.447   2.945 -0.3183 -1.0588  1.4292
10573SOL     OW32617   6.116   4.257   4.643  0.3032  0.0943  0.0607
10573SOL    HW132618   6.079   4.197   4.714  1.4206  1.3021  1.7468
10573SOL    HW232619   6.155   4.201   4.570 -0.5077 -1.2054  0.5761
10574SOL     OW32620   0.280   1.767   2.909 -0.3514  0.2967  0.2256
10574SOL    HW132621   0.343   1.690   2.911 -0.9975 -0.2501 -0.0808
10574SOL    HW232622   0.332   1.852   2.906  0.4548 -0.1835 -2.9829
10575SOL     OW32623   6.841   6.773   6.463  0.5963 -0.1472 -0.2117
10575SOL    HW132624   6.797   6.729   6.541 -0.8932  2.0035  0.2553
10575SOL    HW232625   6.937   6.747   6.460  0.4150 -1.2092  1.6285
10576SOL     OW32626   0.838   4.475   3.371  0.2936 -0.0529  0.2930
10576SOL    HW132627   0.902   4.400   3.349  0.3691  0.0229  0.2545
10576SOL    HW232628   0.890   4.559   3.386  0.0566  0.8140 -2.9078
10577SOL     OW32629   0.473   1.506   6.362 -0.6830  0.2736 -0.3531
10577SOL    HW132630   0.565   1.501   6.324 -0.6491  0.3210 -0.2761
10577SOL    HW232631   0.414   1.559   6.300 -0.8458 -0.3932 -0.7774
10578SOL     OW32632   4.204   1.129   5.817 -0.1775 -0.2746  1.0053
10578SOL    HW132633   4.143   1.207   5.833 -1.8867 -1.2094 -0.5173
10578SOL    HW232634   4.274   1.155   5.751 -1.4084 -0.2790 -0.3555
10579SOL     OW32635   5.583   0.924   1.903 -0.4012 -0.0809  0.2512
10579SOL    HW132636   5.606   0.827   1.907  0.4933  0.0947 -0.2982
10579SOL    HW232637   5.570   0.951   1.808  1.0091  0.6895  0.2569
10580SOL     OW32638   6.770   5.094   0.846  0.2281 -0.5289  0.0732
10580SOL    HW132639   6.734   5.164   0.908  0.6152 -0.8452  0.6698
10580SOL    HW232640   6.738   5.112   0.753 -1.2248 -0.6278  0.5262
10581SOL     OW32641   3.475   2.067   3.760 -0.2704 -0.0515  0.0634
10581SOL    HW132642   3.448   1.972   3.750  0.5652 -0.3578  0.6117
10581SOL    HW232643   3.412   2.113   3.823 -0.3968 -0.3706  0.1728
10582SOL     OW32644   2.521   4.578   0.549 -0.1754  0.3040  0.0005
10582SOL    HW132645   2.597   4.589   0.613 -0.1351 -0.5180  0.0999
10582SOL    HW232646   2.439   4.550   0.598 -0.3972  0.6227 -0.1839
10583SOL     OW32647   4.983   1.655   6.415 -0.4418  0.3642 -0.1295
10583SOL    HW132648   5.073   1.675   6.378  0.6753 -2.3554  0.9098
10583SOL    HW232649   4.966   1.712   6.495  1.8045 -1.2784  1.6189
10584SOL     OW32650   0.273   5.789   1.558  0.3258 -0.2553 -0.1433
10584SOL    HW132651   0.190   5.845   1.556  1.0803  0.8794 -1.3114
10584SOL    HW232652   0.330   5.817   1.636  0.2549 -0.0742 -0.1563
10585SOL     OW32653   4.321   4.708   6.068 -0.0590  0.0242 -0.1996
10585SOL    HW132654   4.339   4.629   6.010  2.0900 -0.7638  1.4205
10585SOL    HW232655   4.350   4.791   6.020  1.4653 -0.5896 -0.4039
10586SOL     OW32656   5.632   1.672   1.559  0.0051  0.3280 -0.6398
10586SOL    HW132657   5.714   1.628   1.596  1.7093  4.0645  0.4717
10586SOL    HW232658   5.556   1.660   1.623  1.0174  0.7917  0.6919
10587SOL     OW32659   6.151   3.824   1.219 -0.7997  0.0597  0.0136
10587SOL    HW132660   6.233   3.814   1.163 -0.5694 -0.6685  0.4557
10587SOL    HW232661   6.138   3.740   1.273 -1.4338  0.4502  0.4762
10588SOL     OW32662   1.178   5.422   3.350 -0.3520  0.0817 -0.3322
10588SOL    HW132663   1.136   5.494   3.406 -0.4604 -0.2038 -0.0430
10588SOL    HW232664   1.227   5.464   3.274  0.0022  0.4853  0.1112
10589SOL     OW32665   5.406   1.593   5.359 -0.5572  0.2896 -0.5284
10589SOL    HW132666   5.493   1.544   5.351  0.1663  1.0764  1.6531
10589SOL    HW232667   5.415   1.666   5.428 -3.1394 -0.0579  0.2965
10590SOL     OW32668   0.781   0.092   4.701  0.0498 -0.0966  0.1404
10590SOL    HW132669   0.750   0.030   4.773 -0.3869  1.3946  1.2973
10590SOL    HW232670   0.871   0.128   4.725  0.9645 -1.3484 -1.2410
10591SOL     OW32671   1.118   0.591   1.668 -0.9278  0.1236 -0.0939
10591SOL    HW132672   1.027   0.597   1.628 -1.3298  0.0024  0.7884
10591SOL    HW232673   1.112   0.556   1.761  0.0720 -0.4042 -0.2094
10592SOL     OW32674   6.428   2.010   5.331 -0.6466 -0.0311  0.2938
10592SOL    HW132675   6.376   2.051   5.256 -0.4370 -0.7429 -0.2505
10592SOL    HW232676   6.462   1.921   5.303  1.7487  0.8223  0.2465
10593SOL     OW32677   6.395   3.244   2.661 -0.2788  0.3623  0.0182
10593SOL    HW132678   6.396   3.246   2.561  0.5084  0.3929  0.0190
10593SOL    HW232679   6.335   3.170   2.692  0.6894 -0.6720 -0.5086
10594SOL     OW32680   0.465   2.403   2.826  0.0876  0.4611  0.2259
10594SOL    HW132681   0.547   2.457   2.847 -0.2151  1.1395 -0.3081
10594SOL    HW232682   0.385   2.446   2.869 -0.2691  0.8621 -0.8188
10595SOL     OW32683   3.438   0.053   3.661 -0.3017  0.2560 -0.1284
10595SOL    HW132684   3.408   0.145   3.635 -0.4626  0.3912  0.5142
10595SOL    HW232685   3.358  -0.008   3.666 -0.4324  0.5062  1.1366
10596SOL     OW32686   1.920   0.551   2.206  0.1597  0.7896 -0.5854
10596SOL    HW132687   1.835   0.519   2.248  1.8834 -3.2214  0.3685
10596SOL    HW232688   1.961   0.622   2.263 -0.3106 -0.5575  1.5564
10597SOL     OW32689   1.865   1.488   4.240  0.0788 -0.0025 -0.7019
10597SOL    HW132690   1.804   1.551   4.287 -1.2849 -0.3223 -1.9598
10597SOL    HW232691   1.849   1.395   4.273 -0.3244 -0.1184 -1.1943
10598SOL     OW32692   4.046   6.680   0.655 -0.4283 -0.0458 -0.2244
10598SOL    HW132693   4.077   6.628   0.734  1.6092 -1.8620 -2.1077
10598SOL    HW232694   3.963   6.638   0.617 -1.0820  0.4991  0.5616
10599SOL     OW32695   4.053   0.488   6.108  0.0155  0.4507  0.4148
10599SOL    HW132696   4.086   0.581   6.095 -0.7178  0.5981 -0.4664
10599SOL    HW232697   4.075   0.457   6.201  2.1200  0.7287  0.0533
10600SOL     OW32698   0.756   1.788   6.349  0.1964  0.0372 -0.2210
10600SOL    HW132699   0.679   1.839   6.387  0.5731 -0.9800  2.0549
10600SOL    HW232700   0.813   1.849   6.295 -1.8303  0.9527 -1.4593
10601SOL     OW32701   3.763   6.159   6.183  0.1625  0.5554 -0.3037
10601SOL    HW132702   3.789   6.112   6.099  0.8091  1.5367 -0.6730
10601SOL    HW232703   3.837   6.220   6.212 -0.2480  0.5980  0.7101
10602SOL     OW32704   4.537   1.741   1.876 -0.0581  0.4239 -0.0143
10602SOL    HW132705   4.446   1.720   1.912 -0.4391 -0.8701 -1.5929
10602SOL    HW232706   4.544   1.708   1.782  2.5506 -0.9556  0.5596
10603SOL     OW32707   1.963   5.866   3.960  0.2315  0.2757 -0.9084
10603SOL    HW132708   1.863   5.861   3.957  0.1840  1.2209 -1.0036
10603SOL    HW232709   1.996   5.820   4.042 -0.4270  1.8171  0.2669
10604SOL     OW32710   6.889   5.257   0.461  0.2076  0.8578 -0.2605
10604SOL    HW132711   6.890   5.324   0.386  1.5160 -0.2987 -1.3216
10604SOL    HW232712   6.979   5.214   0.469 -0.2117  0.1860  1.3110
10605SOL     OW32713   1.929   5.211   6.995 -0.5112  0.8226 -0.2356
10605SOL    HW132714   1.965   5.221   6.902 -1.4118  0.1662 -0.6647
10605SOL    HW232715   1.845   5.156   6.993 -0.1225  0.1442  1.0582
10606SOL     OW32716   0.174   0.564   2.118  0.1389  0.2580  0.4852
10606SOL    HW132717   0.112   0.502   2.070  0.5881  0.3620 -0.2352
10606SOL    HW232718   0.166   0.656   2.080  0.7914  0.2554  0.3382
10607SOL     OW32719   0.793   3.758   6.907 -0.0137 -0.1629  0.4364
10607SOL    HW132720   0.808   3.809   6.991 -0.5513 -2.1159  1.7800
10607SOL    HW232721   0.851   3.795   6.835  2.4740 -0.0977  2.3443
10608SOL     OW32722   5.045   2.059   2.529 -0.0617  0.1232  0.3373
10608SOL    HW132723   5.110   2.103   2.590 -0.4618  0.1319  0.7713
10608SOL    HW232724   5.004   1.980   2.576 -0.6789  0.3768  0.2443
10609SOL     OW32725   5.062   5.917   3.113  0.0165 -0.0331 -0.2242
10609SOL    HW132726   5.028   5.828   3.145  0.9567 -0.2472  0.2438
10609SOL    HW232727   5.080   5.975   3.192  1.9840 -0.4160 -0.3391
10610SOL     OW32728   2.831   4.801   4.554 -0.4483  1.1195 -0.1556
10610SOL    HW132729   2.859   4.734   4.623  2.0016  0.0711 -2.0461
10610SOL    HW232730   2.897   4.876   4.551 -2.0973  2.7060  0.5466
10611SOL     OW32731   6.924   2.612   5.030 -0.0670 -0.6476 -0.6134
10611SOL    HW132732   7.020   2.590   5.010 -0.0175  0.7441 -2.0639
10611SOL    HW232733   6.912   2.620   5.129  1.4709 -0.2175 -0.4371
10612SOL     OW32734   2.037   0.589   1.490  0.2375  0.2068  0.1845
10612SOL    HW132735   2.120   0.561   1.536 -0.0372  0.2180  0.6934
10612SOL    HW232736   2.022   0.531   1.410  0.5494 -0.0147  0.2858
10613SOL     OW32737   0.426   6.309   0.450 -0.4155 -0.6999  0.1756
10613SOL    HW132738   0.485   6.265   0.518  0.4943  1.0095  0.5354
10613SOL    HW232739   0.426   6.254   0.366  0.4132 -1.5621  0.7178
10614SOL     OW32740   1.642   0.811   2.913  0.1169  0.0277  0.7074
10614SOL    HW132741   1.653   0.859   2.827  0.0609 -0.1603  0.5945
10614SOL    HW232742   1.569   0.742   2.904  0.9301 -0.8281  0.5467
10615SOL     OW32743   1.585   5.518   5.042 -0.6211 -0.1209 -0.0531
10615SOL    HW132744   1.619   5.596   5.094 -2.1261  0.7624 -0.3494
10615SOL    HW232745   1.620   5.523   4.948 -0.0100 -0.2912  0.1625
10616SOL     OW32746   2.232   4.705   2.873  0.0570 -0.1461 -0.2115
10616SOL    HW132747   2.268   4.750   2.792 -0.7562 -1.1308 -1.1639
10616SOL    HW232748   2.202   4.613   2.849 -2.2365  0.2956  0.6858
10617SOL     OW32749   6.140   1.779   6.803 -0.0244 -0.1925 -0.2961
10617SOL    HW132750   6.199   1.714   6.757  1.0917  1.4439 -1.2800
10617SOL    HW232751   6.082   1.826   6.736  1.0993  1.6996 -0.0276
10618SOL     OW32752   5.313   4.090   6.604  0.1897 -0.8109  0.3261
10618SOL    HW132753   5.227   4.046   6.578 -0.1455 -1.0719  1.8029
10618SOL    HW232754   5.295   4.186   6.629  0.3804 -0.7667  0.2963
10619SOL     OW32755   0.306   2.590   1.537 -0.7835 -0.0164  0.5087
10619SOL    HW132756   0.390   2.539   1.551  0.5955  2.0610  0.2281
10619SOL    HW232757   0.232   2.548   1.591  0.3528 -1.9776  0.6236
10620SOL     OW32758   3.092   6.525   4.461 -0.2393 -0.5719 -0.2127
10620SOL    HW132759   3.001   6.563   4.478  0.1714  0.0343  0.7048
10620SOL    HW232760   3.082   6.430   4.429 -1.1882 -1.4495  2.3406
10621SOL     OW32761   3.623   4.628   6.817 -0.5624  0.1469 -0.3175
10621SOL    HW132762   3.722   4.626   6.813 -0.5881 -1.1383 -1.9790
10621SOL    HW232763   3.589   4.537   6.841 -1.3213  0.1525 -1.2739
10622SOL     OW32764   4.666   2.263   0.588 -0.5620 -0.8728 -0.2694
10622SOL    HW132765   4.575   2.239   0.623 -0.2748  0.0747  1.2455
10622SOL    HW232766   4.735   2.235   0.654 -0.0788  2.0574  0.6283
10623SOL     OW32767   6.679   1.242   5.064 -0.4630 -0.2917 -0.5382
10623SOL    HW132768   6.662   1.162   5.007  1.4916 -1.1776  0.0188
10623SOL    HW232769   6.773   1.238   5.100 -0.9238  1.3252  1.0035
10624SOL     OW32770   3.610   1.916   3.326 -0.1314  0.6237  0.2367
10624SOL    HW132771   3.572   1.965   3.405  1.6677 -1.0431  2.2535
10624SOL    HW232772   3.697   1.958   3.300  1.0488 -0.8924  1.5030
10625SOL     OW32773   1.089   2.359   1.237 -0.0230  0.0499  0.8309
10625SOL    HW132774   1.116   2.453   1.256 -4.3878  1.7128 -0.1706
10625SOL    HW232775   1.108   2.337   1.142 -0.1632  0.3778  0.7275
10626SOL     OW32776   5.920   1.509   2.010  0.3670 -0.0051  0.6620
10626SOL    HW132777   5.874   1.446   2.073 -0.1016 -2.4955 -1.9891
10626SOL    HW232778   6.008   1.470   1.982  1.4155  1.9109  1.0717
10627SOL     OW32779   5.431   4.278   4.771  0.1281 -0.7193  0.3481
10627SOL    HW132780   5.438   4.303   4.674  1.1635  1.5655  0.9464
10627SOL    HW232781   5.359   4.333   4.814  0.6251 -0.7042  1.1698
10628SOL     OW32782   5.475   0.403   5.429 -0.3284 -0.5316 -0.5685
10628SOL    HW132783   5.392   0.449   5.463 -0.8528 -1.3336 -0.7253
10628SOL    HW232784   5.480   0.414   5.329 -0.2266 -0.4514 -0.5542
10629SOL     OW32785   2.263   4.439   5.850  0.0337 -0.5878 -0.6114
10629SOL    HW132786   2.233   4.512   5.912 -2.3422 -1.6245 -0.4327
10629SOL    HW232787   2.277   4.355   5.901  1.7284 -0.5579 -0.9776
10630SOL     OW32788   3.833   0.407   2.198  0.3689  0.5919  0.1551
10630SOL    HW132789   3.866   0.334   2.138 -0.7437  0.6664 -0.5873
10630SOL    HW232790   3.860   0.496   2.161  0.9171  0.6036  0.5591
10631SOL     OW32791   1.036   0.473   5.724  0.0323  0.0514 -0.2002
10631SOL    HW132792   0.975   0.397   5.703  0.4906 -0.5094  0.4563
10631SOL    HW232793   1.080   0.457   5.812  0.5797  0.7950 -0.3294
10632SOL     OW32794   0.410   2.637   5.737  0.0458  0.3435 -0.2783
10632SOL    HW132795   0.422   2.699   5.815  0.2303  1.0802 -0.8887
10632SOL    HW232796   0.360   2.684   5.665  1.2174  0.1787 -1.2222
10633SOL     OW32797   1.068   5.089   6.659  0.6539 -0.2430  0.3698
10633SOL    HW132798   1.162   5.063   6.637  0.5458 -0.2750 -0.0600
10633SOL    HW232799   1.008   5.010   6.647  0.7720 -0.6240  2.0268
10634SOL     OW32800   2.110   0.069   2.975  0.5034  0.3925 -0.0612
10634SOL    HW132801   2.094   0.036   2.882 -1.3336  0.2712  0.2414
10634SOL    HW232802   2.139  -0.007   3.033 -0.2557  0.0406 -0.1296
10635SOL     OW32803   0.861   2.181   1.672  0.1198 -0.3228  0.3050
10635SOL    HW132804   0.894   2.233   1.594 -0.9589 -0.2084 -0.0868
10635SOL    HW232805   0.894   2.222   1.757  1.0707 -0.2907 -0.0729
10636SOL     OW32806   4.964   2.782   1.361  0.0083 -0.4012  0.3172
10636SOL    HW132807   4.994   2.815   1.451  1.0656  1.1065 -0.5532
10636SOL    HW232808   4.997   2.844   1.290  0.3044 -2.2698 -1.2451
10637SOL     OW32809   2.088   4.018   5.846  0.1351 -0.9657  0.2255
10637SOL    HW132810   2.091   4.092   5.778 -0.9682 -1.0105  0.1112
10637SOL    HW232811   2.014   3.955   5.823  2.4680 -3.4213 -0.9916
10638SOL     OW32812   6.875   1.359   6.549 -0.0029 -0.1140  0.5165
10638SOL    HW132813   6.827   1.275   6.522 -0.5117 -0.1390  1.4312
10638SOL    HW232814   6.970   1.337   6.570  0.2791 -0.1672 -0.7792
10639SOL     OW32815   3.394   2.362   5.332 -0.6572 -0.5895 -0.1118
10639SOL    HW132816   3.363   2.386   5.424  0.5258  0.9122 -0.0571
10639SOL    HW232817   3.317   2.369   5.268 -1.0400  0.4280  0.4365
10640SOL     OW32818   4.331   6.102   5.374 -0.1995 -0.2941 -0.0298
10640SOL    HW132819   4.322   6.092   5.275 -0.7423  0.4176 -0.0623
10640SOL    HW232820   4.240   6.110   5.414  0.0484  0.2204  0.4369
10641SOL     OW32821   5.002   6.062   1.469  0.0087 -0.7118  0.9586
10641SOL    HW132822   4.983   6.123   1.393  2.2683 -1.8674 -0.6653
10641SOL    HW232823   5.073   6.101   1.527  1.8868 -1.8847 -0.4108
10642SOL     OW32824   0.726   4.667   0.537  0.1696  0.4538 -0.0254
10642SOL    HW132825   0.779   4.623   0.464  2.3053  1.0989  1.0649
10642SOL    HW232826   0.737   4.616   0.622  0.0477  1.2809  0.5020
10643SOL     OW32827   4.283   4.536   6.491  0.0247  0.1318  0.0813
10643SOL    HW132828   4.354   4.470   6.516 -0.3942 -0.5776 -0.5707
10643SOL    HW232829   4.195   4.489   6.482 -0.1564  0.6582 -1.0315
10644SOL     OW32830   6.002   6.983   4.285 -0.2535  0.9049 -0.2664
10644SOL    HW132831   6.102   6.973   4.286 -0.3224  0.0612  0.9378
10644SOL    HW232832   5.966   6.952   4.197  0.3413 -1.2596  0.2031
10645SOL     OW32833   1.223   6.683   2.937  0.1993 -0.7224  0.0027
10645SOL    HW132834   1.210   6.775   2.900 -0.8666 -1.1058 -0.6219
10645SOL    HW232835   1.285   6.631   2.878  2.0132  0.0367  1.1572
10646SOL     OW32836   4.824   6.351   6.642 -0.8972  0.4676 -0.5436
10646SOL    HW132837   4.857   6.443   6.660 -0.0860  0.0408  0.2594
10646SOL    HW232838   4.741   6.334   6.696 -0.2206  0.2449  0.4487
10647SOL     OW32839   3.846   0.922   6.855  0.1681 -0.1052 -0.1362
10647SOL    HW132840   3.769   0.927   6.791  1.0442 -0.9758 -1.2932
10647SOL    HW232841   3.828   0.851   6.923 -0.2929  0.0983 -0.0360
10648SOL     OW32842   5.263   4.471   2.692  0.2989 -0.0370 -0.6224
10648SOL    HW132843   5.201   4.519   2.753  0.0159  0.2892 -1.1551
10648SOL    HW232844   5.292   4.385   2.734 -1.4152 -0.7542 -0.8310
10649SOL     OW32845   5.883   6.629   6.312  0.1436  0.1593 -0.5225
10649SOL    HW132846   5.797   6.679   6.310  0.3249  0.4416 -2.4109
10649SOL    HW232847   5.866   6.533   6.287 -0.1221 -0.7368  2.5794
10650SOL     OW32848   2.920   0.032   4.272 -0.1496 -0.7462 -0.0033
10650SOL    HW132849   2.921  -0.016   4.360 -0.1010  0.4764  0.6988
10650SOL    HW232850   2.987  -0.009   4.211  1.3521 -0.3284  1.2855
10651SOL     OW32851   2.947   2.157   5.056 -0.0795  0.3148 -0.5980
10651SOL    HW132852   2.898   2.158   5.144 -1.3490  2.4477 -1.2479
10651SOL    HW232853   3.029   2.213   5.063 -0.6637  1.2485 -0.9785
10652SOL     OW32854   5.997   2.281   0.111 -0.0792 -0.0333 -0.2348
10652SOL    HW132855   6.025   2.373   0.084 -3.8101  0.8634 -1.6464
10652SOL    HW232856   5.998   2.273   0.211  1.3182  1.1488 -0.1316
10653SOL     OW32857   6.396   4.617   4.390 -0.3358  0.8641  0.4617
10653SOL    HW132858   6.309   4.664   4.404 -1.6461 -0.5644 -2.1693
10653SOL    HW232859   6.379   4.522   4.362  1.9971  0.8037 -1.0500
10654SOL     OW32860   4.945   0.097   3.496 -0.0598  0.3212  0.1875
10654SOL    HW132861   4.876   0.030   3.468 -1.2046  0.6801  1.9512
10654SOL    HW232862   4.971   0.153   3.418  0.7261 -1.9430 -1.2736
10655SOL     OW32863   1.409   3.885   0.954 -0.2606  1.0716  0.1787
10655SOL    HW132864   1.429   3.942   0.874  1.4578  0.4673  0.1366
10655SOL    HW232865   1.316   3.852   0.948  0.2322 -0.1022 -2.3402
10656SOL     OW32866   6.732   2.495   6.602 -0.1018 -0.4016  0.4165
10656SOL    HW132867   6.765   2.582   6.639  0.3154 -0.1729 -0.4661
10656SOL    HW232868   6.762   2.485   6.507  0.8018 -2.0104  0.8302
10657SOL     OW32869   5.601   2.074   1.881  0.7597 -0.0404  0.3641
10657SOL    HW132870   5.599   2.174   1.874  0.7289  0.2448  3.0631
10657SOL    HW232871   5.686   2.046   1.927 -0.5485 -0.9312  2.3984
10658SOL     OW32872   1.137   5.211   3.562  0.0874  0.5502  0.3733
10658SOL    HW132873   1.093   5.285   3.614  0.4026  0.9932  0.0124
10658SOL    HW232874   1.201   5.250   3.496 -1.7738  0.1415 -1.8109
10659SOL     OW32875   4.438   0.846   2.059 -0.6970 -0.2952 -0.1150
10659SOL    HW132876   4.512   0.900   2.099 -0.5000  0.9130 -1.9519
10659SOL    HW232877   4.470   0.802   1.975 -2.1306  0.5811 -1.1742
10660SOL     OW32878   5.163   3.475   6.255 -0.1161 -0.2451  0.6355
10660SOL    HW132879   5.250   3.501   6.213 -1.5213  0.0045 -2.3077
10660SOL    HW232880   5.117   3.557   6.289  0.8645 -0.4156  2.5793
10661SOL     OW32881   6.014   0.658   2.655  0.1431  0.6944  0.4120
10661SOL    HW132882   6.105   0.671   2.614  0.1714 -2.3436 -0.7852
10661SOL    HW232883   5.958   0.601   2.594 -1.2838 -0.5459  2.7370
10662SOL     OW32884   6.697   2.062   0.525  0.1387 -0.6448  0.0347
10662SOL    HW132885   6.710   2.064   0.426 -0.7616 -0.6462 -0.0960
10662SOL    HW232886   6.661   1.973   0.552  0.1194 -0.5477  0.3279
10663SOL     OW32887   0.787   0.805   1.896 -0.1751 -0.0427 -0.0979
10663SOL    HW132888   0.839   0.878   1.941  0.6117 -0.9923  0.5743
10663SOL    HW232889   0.849   0.735   1.862 -0.8138  0.3075 -2.0763
10664SOL     OW32890   2.510   5.426   5.702  0.1596 -0.1109 -0.4671
10664SOL    HW132891   2.524   5.376   5.788 -0.2466  0.1760 -0.2362
10664SOL    HW232892   2.456   5.508   5.718 -0.4049 -0.3490 -1.0921
10665SOL     OW32893   6.812   3.018   6.554  0.1162  0.0635 -0.1839
10665SOL    HW132894   6.873   3.085   6.596  1.0122 -0.7494 -0.1642
10665SOL    HW232895   6.812   3.030   6.455 -0.4677  0.6923 -0.1218
10666SOL     OW32896   1.093   0.750   6.691  0.1259  0.1730  0.6336
10666SOL    HW132897   1.136   0.825   6.740  1.1530 -0.6194  0.9908
10666SOL    HW232898   1.005   0.779   6.656  0.2379  1.3519  1.2813
10667SOL     OW32899   3.900   2.619   0.692  0.6115  0.2884  0.1150
10667SOL    HW132900   3.899   2.713   0.725 -1.2063  0.4282 -0.2288
10667SOL    HW232901   3.887   2.618   0.593  0.0444 -0.3270  0.1852
10668SOL     OW32902   1.166   0.398   0.222  0.1528 -0.2009  0.2437
10668SOL    HW132903   1.125   0.484   0.252  1.3742  0.6729 -0.5204
10668SOL    HW232904   1.138   0.325   0.285 -4.6642 -0.3010 -1.5746
10669SOL     OW32905   6.148   0.583   4.699 -0.3132  0.3319 -0.8525
10669SOL    HW132906   6.176   0.522   4.773  0.4161 -0.3114 -1.6404
10669SOL    HW232907   6.062   0.550   4.659 -1.6221  1.6149  0.7582
10670SOL     OW32908   4.157   4.827   5.071 -0.2207 -0.1628 -0.3398
10670SOL    HW132909   4.164   4.734   5.034  0.3949 -0.0415 -0.5414
10670SOL    HW232910   4.156   4.823   5.171  1.2072 -0.3150 -0.3106
10671SOL     OW32911   1.767   2.373   2.070  0.8750  0.0469  0.1978
10671SOL    HW132912   1.776   2.384   1.971 -0.2511  0.5448  0.1332
10671SOL    HW232913   1.756   2.276   2.092  1.6691 -0.1181 -0.1052
10672SOL     OW32914   1.515   0.057   0.427 -0.1746  0.1042 -0.3855
10672SOL    HW132915   1.435   0.094   0.473 -0.6984  0.0918 -1.2612
10672SOL    HW232916   1.587   0.040   0.494 -0.6043  0.8888  0.2983
10673SOL     OW32917   3.881   4.008   3.827 -0.5857 -0.8577 -0.5790
10673SOL    HW132918   3.905   3.942   3.898 -1.1725 -0.0273  0.4225
10673SOL    HW232919   3.932   3.987   3.744  3.5303  0.6561  1.2992
10674SOL     OW32920   3.384   1.814   2.286 -0.4649  0.1253  0.3401
10674SOL    HW132921   3.412   1.801   2.381  1.8430 -1.2411 -0.4261
10674SOL    HW232922   3.340   1.903   2.276 -0.2008  0.5707  2.5508
10675SOL     OW32923   0.341   1.088   5.610 -0.1615 -0.2769 -0.2016
10675SOL    HW132924   0.292   1.111   5.526 -0.3536  0.3377  0.0775
10675SOL    HW232925   0.436   1.116   5.602 -0.1297 -0.4103 -0.2945
10676SOL     OW32926   4.830   0.985   1.966 -0.3160 -0.1924  0.4796
10676SOL    HW132927   4.739   1.002   2.004 -1.5050 -0.8818 -1.8704
10676SOL    HW232928   4.876   1.073   1.949  0.2735  0.1467  3.3037
10677SOL     OW32929   4.949   6.470   0.535  0.0710  0.4522 -0.6740
10677SOL    HW132930   4.943   6.463   0.435 -1.2619  2.4741 -0.7883
10677SOL    HW232931   4.987   6.385   0.571 -0.4332 -0.7741 -2.7996
10678SOL     OW32932   2.165   0.597   3.734 -0.3905  0.2908  0.0151
10678SOL    HW132933   2.073   0.632   3.752 -0.3505  1.1787 -1.3613
10678SOL    HW232934   2.222   0.670   3.698  0.1681 -0.7845 -1.3787
10679SOL     OW32935   0.640   2.033   4.276 -0.6876 -0.2068 -0.2240
10679SOL    HW132936   0.644   1.966   4.349 -0.5924 -0.2987 -0.3130
10679SOL    HW232937   0.697   2.003   4.199  0.1891  0.4670  0.1431
10680SOL     OW32938   6.785   3.632   4.718  0.5122  0.4534 -0.3100
10680SOL    HW132939   6.773   3.560   4.649  1.1883 -1.8558  1.8370
10680SOL    HW232940   6.703   3.637   4.775  1.8991 -1.5521  2.0462
10681SOL     OW32941   0.777   3.235   1.401 -0.3550  0.1797 -0.8503
10681SOL    HW132942   0.699   3.286   1.438 -0.4855  0.1856 -1.1307
10681SOL    HW232943   0.846   3.223   1.472 -0.0429  1.2990 -0.9321
10682SOL     OW32944   1.824   1.743   3.465  0.0839  0.3558  0.2481
10682SOL    HW132945   1.798   1.836   3.490 -1.5693 -0.1271  0.4690
10682SOL    HW232946   1.885   1.706   3.535  0.7896  1.2864  0.1335
10683SOL     OW32947   6.227   6.899   1.021 -0.6151 -0.1487  0.5082
10683SOL    HW132948   6.132   6.918   1.048 -0.2246  0.2686  1.6247
10683SOL    HW232949   6.286   6.902   1.101  0.2256 -1.2700 -0.0409
10684SOL     OW32950   4.481   1.031   1.483  0.7710  0.2442 -0.2466
10684SOL    HW132951   4.516   0.946   1.444  1.0460  0.6573 -0.9173
10684SOL    HW232952   4.387   1.016   1.514  0.8766 -0.3489 -0.1886
10685SOL     OW32953   6.322   3.938   2.319 -0.3050 -0.2652 -0.3239
10685SOL    HW132954   6.250   3.889   2.270  1.9359 -2.0069 -2.1438
10685SOL    HW232955   6.370   3.998   2.256  0.6191 -0.0995  0.5060
10686SOL     OW32956   4.498   2.903   6.508 -0.2041  0.4236 -0.1700
10686SOL    HW132957   4.414   2.956   6.517  1.1724  3.3026 -2.5439
10686SOL    HW232958   4.496   2.850   6.424  0.4358  0.7742 -0.4196
10687SOL     OW32959   0.884   6.198   2.053  0.5247  0.8504 -0.0822
10687SOL    HW132960   0.954   6.188   2.124 -0.4063 -2.6549  0.5716
10687SOL    HW232961   0.837   6.110   2.041 -1.6159  2.2140 -2.7503
10688SOL     OW32962   1.401   4.799   1.098 -0.4263 -0.1008  0.0098
10688SOL    HW132963   1.422   4.867   1.027  0.0684  0.3597  0.5864
10688SOL    HW232964   1.387   4.846   1.185  0.1042 -0.7601  0.4528
10689SOL     OW32965   6.194   0.128   1.290  0.4216  0.0947 -0.3249
10689SOL    HW132966   6.271   0.071   1.259  1.4242  1.7857 -1.0795
10689SOL    HW232967   6.207   0.152   1.386  0.8946  0.4599 -0.4776
10690SOL     OW32968   4.606   2.024   2.164 -0.2807 -0.0522 -0.4343
10690SOL    HW132969   4.621   1.925   2.172 -0.4135  0.0043  0.6007
10690SOL    HW232970   4.512   2.045   2.192  0.0767  0.4906  0.3784
10691SOL     OW32971   5.448   0.986   1.659  0.2067  0.0866 -0.5731
10691SOL    HW132972   5.362   1.004   1.706 -0.7093 -2.3821 -1.1606
10691SOL    HW232973   5.430   0.953   1.567  1.8332  0.3408 -1.0230
10692SOL     OW32974   5.130   6.061   3.341  0.1355  0.8058 -0.5320
10692SOL    HW132975   5.157   6.143   3.393 -0.4284 -0.3388  1.7141
10692SOL    HW232976   5.050   6.020   3.385 -0.1055 -0.5101 -2.1159
10693SOL     OW32977   4.950   2.732   4.944 -0.0428  0.6512  0.3936
10693SOL    HW132978   4.912   2.682   4.866 -0.6357 -0.0253  1.1124
10693SOL    HW232979   4.947   2.831   4.925  2.8478  0.4486 -1.8440
10694SOL     OW32980   1.794   5.397   5.971  0.3699 -0.1254  0.8665
10694SOL    HW132981   1.785   5.478   5.912 -2.1115  0.0597  1.3999
10694SOL    HW232982   1.809   5.317   5.913 -0.5047  0.2687  0.0467
10695SOL     OW32983   5.709   2.884   5.426 -0.1316  0.0547 -0.2575
10695SOL    HW132984   5.710   2.920   5.519  1.8459 -3.3145  1.1892
10695SOL    HW232985   5.659   2.797   5.424  3.2380 -2.0211 -1.3115
10696SOL     OW32986   5.718   6.957   1.283 -0.0610  0.3314  0.0192
10696SOL    HW132987   5.652   7.028   1.311  0.3434  0.8689 -0.3724
10696SOL    HW232988   5.672   6.868   1.283 -0.3225  0.4285  1.5065
10697SOL     OW32989   3.292   6.800   3.380  0.3915  0.3447 -0.4022
10697SOL    HW132990   3.323   6.708   3.406  0.0351 -0.0290 -1.2465
10697SOL    HW232991   3.195   6.809   3.401  0.3973  0.4845 -0.4366
10698SOL     OW32992   2.230   0.255   2.671  0.4221  0.1864 -0.0247
10698SOL    HW132993   2.223   0.344   2.625  2.3498  0.8428  0.8565
10698SOL    HW232994   2.138   0.217   2.682 -0.6501  2.7887  0.9425
10699SOL     OW32995   5.576   2.777   4.302  0.3052 -0.2984  0.1532
10699SOL    HW132996   5.602   2.716   4.376 -1.4278 -0.7806  0.4018
10699SOL    HW232997   5.507   2.841   4.335  1.0095  0.8457 -0.5115
10700SOL     OW32998   2.358   1.375   2.651 -0.1778  0.0480  0.3593
10700SOL    HW132999   2.458   1.364   2.646  0.2830  1.6793  3.4102
10700SOL    HW233000   2.332   1.461   2.607 -0.4433 -0.8096 -1.2577
10701SOL     OW33001   2.906   5.702   6.904 -0.7915  0.1114  0.4129
10701SOL    HW133002   2.955   5.655   6.977  0.4875  2.0053  0.8530
10701SOL    HW233003   2.848   5.773   6.943 -0.3093  0.9594 -0.3582
10702SOL     OW33004   6.201   1.734   1.834 -0.4673  0.1554  0.1926
10702SOL    HW133005   6.160   1.760   1.747 -0.1933 -1.3692 -0.4418
10702SOL    HW233006   6.290   1.779   1.844  0.5215 -1.3056 -1.3984
10703SOL     OW33007   3.805   3.174   3.373  0.7974  0.4753  0.2116
10703SOL    HW133008   3.844   3.169   3.281 -0.3206  0.4070 -0.2773
10703SOL    HW233009   3.711   3.207   3.367 -0.6273 -2.9946  0.9087
10704SOL     OW33010   6.392   4.446   1.873 -0.3828 -0.6448  0.1241
10704SOL    HW133011   6.322   4.408   1.812  0.6871  0.1545 -1.7024
10704SOL    HW233012   6.476   4.394   1.863  0.0190 -0.0492  0.3797
10705SOL     OW33013   1.076   1.046   5.147  0.1784 -0.1407 -0.3358
10705SOL    HW133014   1.028   1.109   5.086 -0.6815 -1.0959 -0.6636
10705SOL    HW233015   1.142   0.992   5.095 -0.2317 -0.6370 -0.3463
10706SOL     OW33016   4.707   3.058   6.651 -0.3206 -0.5761  0.1779
10706SOL    HW133017   4.638   2.992   6.622  2.2406 -3.6758  0.6930
10706SOL    HW233018   4.721   3.051   6.750  1.4032 -0.7560 -0.0506
10707SOL     OW33019   6.568   0.490   6.150  0.9061  0.3611  0.1644
10707SOL    HW133020   6.614   0.403   6.165 -1.4039 -0.8751  0.5078
10707SOL    HW233021   6.542   0.529   6.238 -0.6549 -0.1094 -0.0599
10708SOL     OW33022   4.376   2.916   1.691  0.5439 -0.0320 -0.2149
10708SOL    HW133023   4.339   2.970   1.615  1.1679  1.7896  0.7044
10708SOL    HW233024   4.468   2.948   1.713 -0.5744  1.4031  2.9970
10709SOL     OW33025   1.756   0.171   6.428 -0.0677 -0.1264 -0.2901
10709SOL    HW133026   1.678   0.218   6.468 -0.5596 -2.5045  1.8379
10709SOL    HW233027   1.830   0.166   6.496 -0.0080 -2.2411 -0.4505
10710SOL     OW33028   6.519   2.324   3.654 -0.2761  0.4835  0.3711
10710SOL    HW133029   6.423   2.342   3.678 -0.3402  1.5263 -0.5932
10710SOL    HW233030   6.535   2.225   3.653 -1.2756  0.3068  0.7935
10711SOL     OW33031   1.876   4.052   4.439 -0.7051 -0.0289  0.0202
10711SOL    HW133032   1.924   3.967   4.419  1.2695  0.7987  1.0064
10711SOL    HW233033   1.815   4.038   4.518 -0.1300 -0.4475  0.3941
10712SOL     OW33034   3.432   0.987   5.297 -0.3077  0.1508  0.7841
10712SOL    HW133035   3.525   0.959   5.272  0.3049  0.4658  2.5721
10712SOL    HW233036   3.382   0.909   5.334 -0.6378  0.0721  0.1858
10713SOL     OW33037   3.245   0.185   6.884  0.1597 -0.1700 -0.3336
10713SOL    HW133038   3.227   0.087   6.894 -0.2721 -0.1114 -0.5138
10713SOL    HW233039   3.280   0.204   6.792  0.7965 -0.2301 -0.1104
10714SOL     OW33040   5.536   5.292   4.258 -0.7667 -0.1643 -0.2592
10714SOL    HW133041   5.569   5.270   4.166 -0.9589 -2.3652  0.1273
10714SOL    HW233042   5.481   5.375   4.255 -1.3171 -0.5414 -2.2869
10715SOL     OW33043   6.092   4.376   3.694 -0.6197  0.2052  0.3133
10715SOL    HW133044   6.043   4.327   3.621 -0.9540  0.1301  0.5810
10715SOL    HW233045   6.066   4.472   3.692  0.9290  0.6313 -0.9565
10716SOL     OW33046   1.022   1.782   2.246  0.0171 -0.5082  0.0480
10716SOL    HW133047   0.981   1.800   2.336  1.5428 -0.4403  0.7682
10716SOL    HW233048   1.119   1.807   2.249 -0.0374  0.0299 -1.8055
10717SOL     OW33049   0.304   5.683   0.594 -0.3802  0.3083 -0.0711
10717SOL    HW133050   0.262   5.726   0.515 -0.3186  0.2473 -0.1366
10717SOL    HW233051   0.317   5.585   0.576  1.7039  0.6972 -0.8612
10718SOL     OW33052   0.108   5.300   3.667 -0.0993 -0.4869  0.1497
10718SOL    HW133053   0.168   5.314   3.588  2.1588  1.6599  2.0668
10718SOL    HW233054   0.157   5.247   3.736 -1.7153 -1.5789  0.4975
10719SOL     OW33055   4.824   0.262   3.663 -0.1909  0.8365  0.1022
10719SOL    HW133056   4.849   0.198   3.590  1.8057 -0.4056  1.7617
10719SOL    HW233057   4.866   0.351   3.644 -1.1624  1.0601 -1.1168
10720SOL     OW33058   1.322   2.642   6.316  0.3517  0.6216 -0.5477
10720SOL    HW133059   1.348   2.673   6.225  1.6302  0.6996 -0.1898
10720SOL    HW233060   1.342   2.544   6.325 -0.8797  0.3454 -0.7212
10721SOL     OW33061   6.586   0.611   4.296 -0.2897  0.4134 -0.3576
10721SOL    HW133062   6.540   0.591   4.210 -0.3011 -1.3337  0.0168
10721SOL    HW233063   6.682   0.584   4.290  0.0348  1.4943 -0.2367
10722SOL     OW33064   0.865   5.609   6.938  0.5151  0.0998  0.2993
10722SOL    HW133065   0.937   5.614   7.006  1.0421 -0.0347 -0.2381
10722SOL    HW233066   0.821   5.519   6.942  1.3379 -0.3346 -0.3267
10723SOL     OW33067   0.071   4.109   6.018 -0.4933  0.2128 -0.4039
10723SOL    HW133068   0.102   4.161   5.939  1.3407  0.4980  0.4405
10723SOL    HW233069   0.065   4.012   5.995  0.3808  0.2496 -0.8055
10724SOL     OW33070   2.382   6.369   6.797 -0.3107  0.6487  0.0886
10724SOL    HW133071   2.336   6.407   6.716  1.2594  1.1460 -0.6097
10724SOL    HW233072   2.476   6.402   6.800  0.7257 -2.0694  0.2522
10725SOL     OW33073   6.874   6.139   4.519 -0.8062  0.2596  0.0690
10725SOL    HW133074   6.876   6.233   4.552  3.6546  0.7162 -0.8209
10725SOL    HW233075   6.895   6.077   4.595 -0.5216  0.3169  0.0385
10726SOL     OW33076   5.819   1.942   2.996 -0.0366  0.3212  0.1397
10726SOL    HW133077   5.805   2.005   3.072 -1.5727  1.6456 -1.1648
10726SOL    HW233078   5.843   1.851   3.032  0.1643  1.1047  2.1307
10727SOL     OW33079   4.435   4.538   2.116 -0.2095 -0.5883  0.3054
10727SOL    HW133080   4.490   4.570   2.193  0.7051 -1.5204  0.0731
10727SOL    HW233081   4.478   4.456   2.077  0.1693  0.6670 -2.0960
10728SOL     OW33082   0.268   1.025   3.709 -0.0498 -0.3170 -0.2587
10728SOL    HW133083   0.271   0.933   3.747  0.0504 -0.2846 -0.1867
10728SOL    HW233084   0.226   1.087   3.775 -0.6073 -0.4127 -0.5215
10729SOL     OW33085   6.332   1.583   2.659 -0.0654  0.7469  0.8505
10729SOL    HW133086   6.234   1.571   2.641 -0.1631  1.2379  1.0315
10729SOL    HW233087   6.351   1.560   2.754  0.3807 -1.4484  0.2804
10730SOL     OW33088   1.342   5.589   3.130  0.2138 -0.3788  0.1544
10730SOL    HW133089   1.295   5.590   3.042 -1.3151 -0.5037  0.9509
10730SOL    HW233090   1.394   5.504   3.139 -0.4626 -0.8303 -0.1810
10731SOL     OW33091   3.462   4.987   4.252 -0.1153  0.1623  0.4507
10731SOL    HW133092   3.445   4.948   4.342  0.0569 -0.3479  0.2656
10731SOL    HW233093   3.505   4.918   4.193  0.6127  0.7686  0.2604
10732SOL     OW33094   5.183   5.713   4.109 -0.1969  0.2464 -0.3104
10732SOL    HW133095   5.085   5.730   4.094  0.2088  0.3393 -3.3961
10732SOL    HW233096   5.228   5.798   4.135 -0.7817  0.3918  0.2559
10733SOL     OW33097   1.394   2.128   5.283 -0.1372 -0.0751  0.1777
10733SOL    HW133098   1.485   2.142   5.245  0.6642 -0.5885  1.8385
10733SOL    HW233099   1.360   2.214   5.323 -0.9533  0.4478 -1.5137
10734SOL     OW33100   0.857   2.748   3.870  0.1568 -0.9868  0.1738
10734SOL    HW133101   0.910   2.666   3.848  1.4003 -0.7728  2.1159
10734SOL    HW233102   0.787   2.725   3.938 -0.9065 -0.8354 -0.8360
10735SOL     OW33103   0.439   1.352   2.744  0.7072 -0.9124 -0.0153
10735SOL    HW133104   0.430   1.260   2.705 -1.3188  0.1131 -2.2423
10735SOL    HW233105   0.348   1.394   2.752  1.4238  0.3406  2.5051
10736SOL     OW33106   3.279   6.907   4.740  0.4244 -0.1285 -0.3190
10736SOL    HW133107   3.357   6.847   4.758  0.0403 -0.3286  0.7324
10736SOL    HW233108   3.310   7.002   4.736  0.9286 -0.3240 -1.3164
10737SOL     OW33109   2.920   0.838   1.509 -0.5926  0.1133  0.4211
10737SOL    HW133110   2.975   0.796   1.581 -1.5276 -0.5166  0.7897
10737SOL    HW233111   2.863   0.911   1.548 -0.6300  0.2024  0.2027
10738SOL     OW33112   1.246   6.301   1.162 -0.1103 -0.4018 -0.4805
10738SOL    HW133113   1.272   6.275   1.069 -1.2022 -0.5577 -0.7578
10738SOL    HW233114   1.285   6.390   1.184 -1.4940  0.5785 -1.8376
10739SOL     OW33115   5.975   2.673   5.265  0.0612 -0.0578  0.4604
10739SOL    HW133116   6.024   2.653   5.181 -1.4138 -0.4206 -0.3507
10739SOL    HW233117   5.953   2.771   5.269 -0.0363 -0.0751  0.3334
10740SOL     OW33118   5.080   0.798   6.649 -0.8456 -0.2609  0.7307
10740SOL    HW133119   5.082   0.705   6.613 -2.3743  0.3506 -1.0540
10740SOL    HW233120   5.079   0.795   6.749  0.2612 -2.1076  0.7125
10741SOL     OW33121   1.705   3.721   4.854  0.1558  0.2485 -0.1511
10741SOL    HW133122   1.799   3.704   4.883 -0.0038  2.8855  2.3185
10741SOL    HW233123   1.706   3.778   4.772  0.6219 -0.8839 -0.9777
10742SOL     OW33124   1.218   6.542   1.881 -0.1594 -0.4436 -0.2535
10742SOL    HW133125   1.194   6.446   1.868  0.5815 -0.7553  0.6120
10742SOL    HW233126   1.236   6.584   1.792 -0.5513 -1.0895 -0.6424
10743SOL     OW33127   5.148   2.645   6.336 -0.2833  0.1724  0.2428
10743SOL    HW133128   5.064   2.619   6.289  0.1635  1.0260 -1.0489
10743SOL    HW233129   5.228   2.613   6.285  0.2135 -0.6188  1.4450
10744SOL     OW33130   0.120   0.407   1.196 -0.3084 -0.2017 -0.0855
10744SOL    HW133131   0.058   0.334   1.226  0.4314  0.3732  3.1725
10744SOL    HW233132   0.214   0.372   1.195  0.0343  0.5935  1.3856
10745SOL     OW33133   3.128   5.255   3.893  0.0291 -0.1284  0.0451
10745SOL    HW133134   3.078   5.316   3.954  0.7203  0.0626  0.4382
10745SOL    HW233135   3.204   5.213   3.943  0.5223 -0.0777 -0.6409
10746SOL     OW33136   3.075   5.038   6.996  0.5917  0.3527 -0.1589
10746SOL    HW133137   3.104   5.134   6.997  0.9397  0.2527  0.5632
10746SOL    HW233138   3.007   5.024   6.924 -0.2412  1.3752  0.3999
10747SOL     OW33139   1.057   1.558   5.101  0.4739  0.0470  0.3661
10747SOL    HW133140   1.120   1.498   5.052 -0.8695 -1.0680 -0.0567
10747SOL    HW233141   1.090   1.572   5.194  0.0334 -2.6658  1.0013
10748SOL     OW33142   3.186   6.574   2.768  0.0067  0.1135 -0.3976
10748SOL    HW133143   3.124   6.514   2.718  2.3434 -1.2636 -1.8472
10748SOL    HW233144   3.226   6.641   2.706 -1.2515  2.1631  0.8678
10749SOL     OW33145   5.142   3.204   2.276  0.0148  0.1242  0.5310
10749SOL    HW133146   5.067   3.151   2.316  0.3864 -0.4495  0.4648
10749SOL    HW233147   5.160   3.284   2.334  1.3263 -1.3134  2.1907
10750SOL     OW33148   2.491   1.479   5.750 -0.0306  0.1336  0.6037
10750SOL    HW133149   2.526   1.573   5.759 -0.1478  0.0995  1.5878
10750SOL    HW233150   2.416   1.477   5.685  0.7842  0.4945 -0.3711
10751SOL     OW33151   3.919   5.689   4.174 -0.0987 -0.0519 -0.3838
10751SOL    HW133152   3.991   5.621   4.184  0.5562  0.5813 -0.6871
10751SOL    HW233153   3.838   5.660   4.225 -0.4469 -1.8878 -1.9196
10752SOL     OW33154   0.010   0.693   6.037  0.4993 -0.4786 -0.3655
10752SOL    HW133155   0.046   0.602   6.016 -1.0223 -0.9623 -1.0657
10752SOL    HW233156  -0.067   0.713   5.977 -0.5715  0.3782  1.2116
10753SOL     OW33157   4.902   1.060   5.273 -0.5908 -1.0686 -0.3584
10753SOL    HW133158   4.887   1.153   5.308  3.2139 -0.0035 -1.1081
10753SOL    HW233159   4.928   1.000   5.348 -2.2813 -1.3845  0.0095
10754SOL     OW33160   6.910   6.726   0.423  0.7386  0.4629 -0.4233
10754SOL    HW133161   6.885   6.637   0.383 -0.9837  0.5886  0.2674
10754SOL    HW233162   6.829   6.766   0.467  1.6501  2.0776 -0.1473
10755SOL     OW33163   1.848   3.526   2.996  0.2281 -0.2471 -0.2109
10755SOL    HW133164   1.820   3.547   2.902  0.7414 -0.3024 -0.3763
10755SOL    HW233165   1.936   3.569   3.016  1.2753 -2.1143 -0.5391
10756SOL     OW33166   2.048   5.561   0.829 -0.6993 -0.0546  0.0965
10756SOL    HW133167   1.981   5.629   0.859  2.0721  2.4341  1.1356
10756SOL    HW233168   2.061   5.492   0.900 -0.9227  0.4326  0.6120
10757SOL     OW33169   6.377   0.428   1.616 -0.0376 -0.0437 -0.0772
10757SOL    HW133170   6.429   0.475   1.544 -0.2382 -3.0104 -2.3959
10757SOL    HW233171   6.433   0.354   1.653 -0.8045 -0.0157  1.1775
10758SOL     OW33172   6.808   1.354   0.508  0.5908 -0.4062 -0.1654
10758SOL    HW133173   6.842   1.284   0.571 -0.1550  0.0519  0.7625
10758SOL    HW233174   6.884   1.412   0.478  0.8033  0.0096  1.1285
10759SOL     OW33175   4.569   5.543   3.649 -0.2488  0.0594 -0.1953
10759SOL    HW133176   4.481   5.560   3.604  0.2501  4.1080 -0.0319
10759SOL    HW233177   4.624   5.482   3.592 -1.3711  1.3177 -2.8029
10760SOL     OW33178   1.249   5.153   5.681 -0.2085  0.0487  0.8503
10760SOL    HW133179   1.272   5.121   5.589 -2.3575 -0.7093  0.5186
10760SOL    HW233180   1.205   5.242   5.675 -2.2184 -0.8914  0.8854
10761SOL     OW33181   1.913   2.244   6.158  0.0433 -0.0767 -0.1314
10761SOL    HW133182   2.001   2.200   6.142  1.1311  1.6015  0.9447
10761SOL    HW233183   1.906   2.326   6.101 -1.1023 -0.5098 -0.6441
10762SOL     OW33184   0.399   4.902   6.299  0.0099 -0.0853 -0.1196
10762SOL    HW133185   0.491   4.941   6.306  0.2917 -0.4010 -1.7139
10762SOL    HW233186   0.332   4.976   6.295 -0.0461  0.1578  3.0844
10763SOL     OW33187   4.838   2.397   3.342  0.0010 -0.9919 -0.6232
10763SOL    HW133188   4.836   2.458   3.263  1.8308  0.5134  0.4241
10763SOL    HW233189   4.750   2.349   3.349 -1.5143  1.4668 -1.5047
10764SOL     OW33190   3.557   0.542   4.420  0.1049  0.5807 -0.2240
10764SOL    HW133191   3.548   0.450   4.382 -3.8354 -0.2903  2.1631
10764SOL    HW233192   3.539   0.538   4.519 -1.3458  4.0230 -0.2314
10765SOL     OW33193   0.900   4.481   2.753 -0.1098  0.1129  0.4620
10765SOL    HW133194   0.818   4.494   2.697 -0.7145 -0.3029  1.2163
10765SOL    HW233195   0.901   4.550   2.826  0.6520  0.6318 -0.0251
10766SOL     OW33196   2.076   4.556   0.813 -0.5523 -0.2456 -0.2353
10766SOL    HW133197   2.064   4.632   0.750 -0.2110 -1.6235 -2.0594
10766SOL    HW233198   1.993   4.500   0.815 -0.6598 -0.0706  0.7735
10767SOL     OW33199   0.561   5.091   5.321 -0.0283 -0.3020  0.3686
10767SOL    HW133200   0.606   5.122   5.405  0.6967 -1.9841  0.6353
10767SOL    HW233201   0.623   5.103   5.243 -0.4010  0.5088  0.1883
10768SOL     OW33202   4.795   4.649   6.964  0.1764  0.3416 -0.5812
10768SOL    HW133203   4.696   4.666   6.963 -0.0211 -0.6840  0.4267
10768SOL    HW233204   4.841   4.723   7.013 -0.0683  0.8709 -1.1329
10769SOL     OW33205   2.998   3.703   4.421  0.5479  0.3811  0.6849
10769SOL    HW133206   3.098   3.705   4.422  0.5758 -0.3623  0.4037
10769SOL    HW233207   2.964   3.670   4.509  0.7551 -3.9677 -0.6298
10770SOL     OW33208   3.287   6.006   5.338 -0.4342 -0.0600  0.0991
10770SOL    HW133209   3.279   5.910   5.312 -0.9317 -0.2713  1.0125
10770SOL    HW233210   3.203   6.054   5.312 -0.4380 -0.0037  0.2191
10771SOL     OW33211   4.557   6.784   4.506  0.3971  0.0802  0.8411
10771SOL    HW133212   4.525   6.698   4.467 -2.0328  0.6788  1.3705
10771SOL    HW233213   4.565   6.852   4.433  2.0112 -0.4564  0.4748
10772SOL     OW33214   5.691   2.404   4.887  0.8187 -0.0942 -0.5631
10772SOL    HW133215   5.601   2.423   4.924  2.7946  2.2809  3.6683
10772SOL    HW233216   5.709   2.305   4.892 -0.5490 -0.3001  1.0871
10773SOL     OW33217   6.587   4.741   6.978  0.5443  0.7724 -0.4794
10773SOL    HW133218   6.634   4.707   7.059 -0.4390  0.3743 -0.0562
10773SOL    HW233219   6.605   4.680   6.901  1.0800  0.8771 -0.4412
10774SOL     OW33220   0.432   4.204   0.780  0.0836 -0.1111 -0.2496
10774SOL    HW133221   0.356   4.150   0.816  0.3214 -0.1186  0.2502
10774SOL    HW233222   0.436   4.291   0.829 -0.0462  0.1870 -0.7710
10775SOL     OW33223   1.511   5.282   6.697  0.6523 -0.0812 -0.4405
10775SOL    HW133224   1.476   5.337   6.773  2.1749  1.0417 -0.4825
10775SOL    HW233225   1.437   5.227   6.658 -0.1246 -0.8691  1.9672
10776SOL     OW33226   0.331   3.461   2.654 -0.2515  0.3027  0.2364
10776SOL    HW133227   0.273   3.432   2.730 -0.6315  1.3764  0.3833
10776SOL    HW233228   0.330   3.392   2.582 -0.2245 -0.5298  1.0272
10777SOL     OW33229   6.898   6.092   1.650 -0.7633  0.0987 -0.2984
10777SOL    HW133230   6.836   6.148   1.596 -0.0496  2.2307  0.9969
10777SOL    HW233231   6.968   6.053   1.590 -1.2457  0.6163 -1.2230
10778SOL     OW33232   5.488   6.106   3.070  0.0752 -0.7037 -0.2778
10778SOL    HW133233   5.531   6.196   3.065 -1.5527  0.1485  0.3524
10778SOL    HW233234   5.514   6.062   3.157 -1.2880  0.3612  0.7131
10779SOL     OW33235   5.760   2.133   5.808 -0.0190  0.3056 -0.9897
10779SOL    HW133236   5.793   2.125   5.902  0.7695 -1.7362 -1.3878
10779SOL    HW233237   5.713   2.221   5.796  0.4955  0.9126  1.0909
10780SOL     OW33238   1.956   3.839   3.118 -0.1812  0.6690  0.0871
10780SOL    HW133239   1.902   3.832   3.035 -1.0977  1.4742  0.5933
10780SOL    HW233240   2.012   3.757   3.129  1.5210  1.3888 -2.3669
10781SOL     OW33241   0.998   2.360   5.740  0.3933  0.5123  0.9676
10781SOL    HW133242   1.070   2.299   5.708  0.3339  0.3870  1.0706
10781SOL    HW233243   0.984   2.433   5.673 -0.3228 -0.2307  0.2695
10782SOL     OW33244   0.391   3.141   3.691 -0.1021  0.0863  0.0343
10782SOL    HW133245   0.478   3.130   3.642  0.0567  2.5781 -0.3660
10782SOL    HW233246   0.378   3.063   3.753  1.6944 -1.0744 -0.9417
10783SOL     OW33247   1.220   4.834   4.019 -0.0217 -0.3027  0.5385
10783SOL    HW133248   1.194   4.773   4.093  2.2916 -2.3576 -0.2495
10783SOL    HW233249   1.265   4.783   3.946  0.8551  2.1520 -0.7839
10784SOL     OW33250   5.466   3.526   4.209 -0.0626  0.0361  0.0019
10784SOL    HW133251   5.548   3.578   4.233 -1.3877  2.6884 -0.8509
10784SOL    HW233252   5.486   3.428   4.215  2.6197  0.5703  1.5294
10785SOL     OW33253   1.916   5.880   1.181 -0.7949  0.0197 -0.1762
10785SOL    HW133254   1.864   5.869   1.266 -3.5023  0.6768 -1.6110
10785SOL    HW233255   1.952   5.973   1.176 -1.3822  0.2589 -0.1022
10786SOL     OW33256   3.320   1.599   1.160  0.1621  0.3921  0.3250
10786SOL    HW133257   3.338   1.501   1.160 -0.3390  0.2950 -0.3827
10786SOL    HW233258   3.377   1.643   1.230  1.2209 -0.2454 -0.1081
10787SOL     OW33259   4.651   1.174   3.102 -0.0949  0.3240  0.7065
10787SOL    HW133260   4.747   1.161   3.076  0.2051 -0.9650  2.2748
10787SOL    HW233261   4.599   1.207   3.023  1.4389  0.0776 -0.4487
10788SOL     OW33262   0.531   4.127   6.940 -0.1847 -0.0975  0.0310
10788SOL    HW133263   0.498   4.130   6.846  2.2673  2.2367 -0.9017
10788SOL    HW233264   0.504   4.040   6.983 -0.9813 -1.4332 -2.9445
10789SOL     OW33265   5.620   1.562   2.006 -0.1525 -0.1870 -0.1778
10789SOL    HW133266   5.632   1.614   2.091  3.2510  2.1265 -1.8414
10789SOL    HW233267   5.663   1.472   2.015  1.1511  0.4643  0.2336
10790SOL     OW33268   0.365   3.853   4.663 -0.6496 -0.0332  0.5174
10790SOL    HW133269   0.435   3.786   4.688 -2.3438 -1.8220  0.6409
10790SOL    HW233270   0.318   3.885   4.746 -1.9966 -1.1630  0.2216
10791SOL     OW33271   1.030   2.009   1.912 -0.4198 -0.0554  0.3997
10791SOL    HW133272   1.001   2.086   1.969  0.0836 -0.7590  1.6549
10791SOL    HW233273   0.980   1.927   1.940  0.6092 -0.6384  0.5762
10792SOL     OW33274   1.993   1.012   2.202  0.2807 -0.0021 -0.5868
10792SOL    HW133275   2.087   1.040   2.223 -0.1592  0.3643  1.0624
10792SOL    HW233276   1.966   0.939   2.265 -0.9757  0.8075 -0.1541
10793SOL     OW33277   5.843   1.818   3.340 -0.3998  0.1553 -0.3813
10793SOL    HW133278   5.839   1.911   3.302  1.2321  1.1067  1.5567
10793SOL    HW233279   5.761   1.801   3.395 -0.5589  0.5768 -0.4819
10794SOL     OW33280   4.172   2.130   0.640 -0.0495  0.7858 -0.3597
10794SOL    HW133281   4.184   2.139   0.542  0.5561  0.0379 -0.3647
10794SOL    HW233282   4.087   2.173   0.668  1.0518  3.4117 -0.8136
10795SOL     OW33283   6.536   1.852   2.843  0.2529  0.4400  0.5393
10795SOL    HW133284   6.506   1.859   2.938 -0.4835  0.4169  0.3111
10795SOL    HW233285   6.456   1.851   2.783  0.6829 -0.2984 -0.0300
10796SOL     OW33286   6.107   3.102   6.426  0.3302  0.7658  0.0960
10796SOL    HW133287   6.188   3.161   6.437  0.9270 -0.2481  1.3973
10796SOL    HW233288   6.087   3.056   6.513  0.4113 -1.6048 -1.0648
10797SOL     OW33289   5.093   3.685   6.757  0.9752 -0.6397  0.5462
10797SOL    HW133290   5.030   3.608   6.762 -0.8645  0.7580  0.0214
10797SOL    HW233291   5.123   3.710   6.849 -0.7647 -0.1542  1.0082
10798SOL     OW33292   1.850   5.139   5.853  0.0766  0.4800 -0.7773
10798SOL    HW133293   1.950   5.138   5.851  0.1563 -2.2259  0.0366
10798SOL    HW233294   1.814   5.115   5.763  0.2343 -0.2630 -0.6506
10799SOL     OW33295   1.290   1.110   4.304  0.1485  0.1636  0.8538
10799SOL    HW133296   1.345   1.028   4.317  1.6755  1.2081  1.2000
10799SOL    HW233297   1.348   1.191   4.308 -1.2098  1.2504 -0.1697
10800SOL     OW33298   0.026   0.692   4.343  0.3115  0.0963  0.1629
10800SOL    HW133299   0.055   0.681   4.248  1.9261  0.2752  0.6143
10800SOL    HW233300   0.105   0.715   4.400 -0.9366  1.9180  1.2447
10801SOL     OW33301   1.785   5.435   1.117  0.8955 -0.1703 -0.4893
10801SOL    HW133302   1.878   5.418   1.082  0.9338 -1.0316 -0.0018
10801SOL    HW233303   1.788   5.437   1.217  0.3986 -0.1488 -0.4760
10802SOL     OW33304   0.264   4.192   3.224 -0.0436  0.0533  0.2806
10802SOL    HW133305   0.239   4.288   3.230  1.5193  0.4214  1.5005
10802SOL    HW233306   0.270   4.153   3.316 -0.4984 -1.1831 -0.1866
10803SOL     OW33307   6.582   3.622   4.185  0.8935  0.1607 -0.5427
10803SOL    HW133308   6.567   3.538   4.237  0.5201 -0.7126 -2.0101
10803SOL    HW233309   6.587   3.700   4.248  0.0710 -0.7957  0.7505
10804SOL     OW33310   4.251   4.741   6.961 -0.4351  0.5193  0.3066
10804SOL    HW133311   4.210   4.800   6.892 -1.5036  1.7056  1.8974
10804SOL    HW233312   4.185   4.672   6.990  0.7937 -1.6051 -1.5296
10805SOL     OW33313   5.632   4.935   1.496  0.5477  0.2690 -0.4714
10805SOL    HW133314   5.718   4.927   1.546 -0.6226  0.8465  1.7811
10805SOL    HW233315   5.614   5.032   1.476 -0.0826  0.2748  0.0736
10806SOL     OW33316   6.652   2.794   4.399 -0.1221 -0.2060  0.0382
10806SOL    HW133317   6.665   2.811   4.497  1.6046  0.8097 -0.3295
10806SOL    HW233318   6.562   2.753   4.384 -0.1545 -1.0174  2.1082
10807SOL     OW33319   4.110   2.184   4.885 -0.4038  0.2514 -0.4877
10807SOL    HW133320   4.168   2.250   4.933  1.9091 -0.6760 -1.8424
10807SOL    HW233321   4.029   2.164   4.941  0.2297  2.0979  1.1981
10808SOL     OW33322   1.720   1.145   0.859 -0.4113  0.2012 -0.0998
10808SOL    HW133323   1.727   1.054   0.899 -1.8833 -0.3633 -1.0480
10808SOL    HW233324   1.812   1.180   0.841  0.2122 -0.5279  1.4619
10809SOL     OW33325   1.960   6.345   4.697 -0.3636 -0.3832  0.0994
10809SOL    HW133326   1.973   6.441   4.672 -0.0795  0.2356  2.4037
10809SOL    HW233327   2.022   6.288   4.643 -1.1602  0.5792 -1.9462
10810SOL     OW33328   3.550   3.077   5.891  0.4527 -0.2318  0.0854
10810SOL    HW133329   3.532   3.141   5.966  1.0252 -0.3646  0.3403
10810SOL    HW233330   3.599   3.126   5.818 -1.5273  0.3318 -0.9441
10811SOL     OW33331   2.066   5.750   6.036  0.3877  0.0725  0.5166
10811SOL    HW133332   2.076   5.735   5.937 -0.4082  1.7312  0.1508
10811SOL    HW233333   2.105   5.672   6.085  1.7862 -0.2978 -1.0710
10812SOL     OW33334   6.053   3.526   3.770 -0.1308  0.6648 -0.6494
10812SOL    HW133335   6.147   3.552   3.789 -0.3801  1.5072 -0.5059
10812SOL    HW233336   6.007   3.600   3.721  0.0606 -0.8398 -3.3155
10813SOL     OW33337   4.063   6.105   1.327  0.1266  0.0787  0.1755
10813SOL    HW133338   4.119   6.182   1.358 -0.0931  0.2070  0.2514
10813SOL    HW233339   4.093   6.022   1.374  2.2337 -0.4453 -1.9087
10814SOL     OW33340   1.463   5.046   4.303 -0.2499  0.2385 -0.3478
10814SOL    HW133341   1.481   4.990   4.222 -1.6340 -1.8232  0.6784
10814SOL    HW233342   1.543   5.102   4.323  0.8259 -0.5945 -2.0372
10815SOL     OW33343   5.098   4.935   5.385  0.0821 -0.0031  0.8845
10815SOL    HW133344   5.119   5.003   5.315 -0.1874 -0.4570  0.3511
10815SOL    HW233345   5.160   4.945   5.462  2.4828 -1.4557 -0.7316
10816SOL     OW33346   1.582   3.896   0.602 -1.1138  0.4767  0.2003
10816SOL    HW133347   1.656   3.904   0.536  1.2680  3.4755  2.9173
10816SOL    HW233348   1.599   3.818   0.663  0.0985  1.3460  1.0206
10817SOL     OW33349   2.914   0.193   0.677  0.4735  0.2817  0.6133
10817SOL    HW133350   2.860   0.271   0.707  0.6145  1.5454 -2.1009
10817SOL    HW233351   2.900   0.116   0.740 -1.5542  1.6978  2.0267
10818SOL     OW33352   5.213   3.484   5.277 -0.0794 -0.4516 -0.5500
10818SOL    HW133353   5.274   3.451   5.205  1.3803 -0.6569  0.7445
10818SOL    HW233354   5.157   3.559   5.241 -0.1506 -1.2394 -2.1834
10819SOL     OW33355   0.950   2.346   3.493 -0.1097 -0.0782 -0.0837
10819SOL    HW133356   1.028   2.303   3.447  1.0307  1.2843  0.5077
10819SOL    HW233357   0.972   2.442   3.512 -2.0898  0.4367 -0.2335
10820SOL     OW33358   0.721   0.452   6.200 -0.3727  0.4088 -0.1723
10820SOL    HW133359   0.812   0.451   6.242 -1.3111 -0.3340  1.9786
10820SOL    HW233360   0.720   0.393   6.120  1.1240  0.7398 -0.4603
10821SOL     OW33361   5.762   1.234   6.814  0.0356 -0.1003 -0.1847
10821SOL    HW133362   5.693   1.176   6.856 -0.1876  0.5819  0.4239
10821SOL    HW233363   5.843   1.180   6.793 -0.1818 -0.6388  0.3310
10822SOL     OW33364   5.594   6.198   4.812  0.2886 -0.1228  0.2210
10822SOL    HW133365   5.672   6.144   4.843  0.1975  0.1993  1.0412
10822SOL    HW233366   5.612   6.235   4.721  0.4068 -1.4264 -0.3036
10823SOL     OW33367   3.217   6.808   1.140  0.5640 -0.1627  0.0105
10823SOL    HW133368   3.222   6.870   1.219  1.1849  0.7926 -0.7491
10823SOL    HW233369   3.252   6.718   1.166 -2.7994 -1.0991  1.9152
10824SOL     OW33370   6.373   6.798   4.453 -0.2296 -0.6327  0.2337
10824SOL    HW133371   6.366   6.871   4.385  2.0938 -0.5656 -0.0267
10824SOL    HW233372   6.412   6.835   4.538  0.1688 -1.3843  0.3869
10825SOL     OW33373   2.980   2.148   0.681  0.1312  0.5088  0.0064
10825SOL    HW133374   2.928   2.200   0.614  0.4465  0.1521 -0.5239
10825SOL    HW233375   3.062   2.109   0.637 -0.0704 -0.3867  0.4008
10826SOL     OW33376   5.817   3.524   0.697 -0.0751 -0.2032  0.0440
10826SOL    HW133377   5.809   3.427   0.677  0.8768 -0.3789  0.4721
10826SOL    HW233378   5.808   3.576   0.612  0.3209 -0.7260 -0.3255
10827SOL     OW33379   6.769   5.571   6.051  0.3241 -0.4136 -0.5750
10827SOL    HW133380   6.749   5.479   6.083  0.0331 -0.2939 -0.4040
10827SOL    HW233381   6.701   5.635   6.088 -0.0965 -0.2874 -1.5346
10828SOL     OW33382   3.451   4.277   0.899  0.0715  0.0496  0.6271
10828SOL    HW133383   3.542   4.240   0.916  0.3247  1.5442  3.0354
10828SOL    HW233384   3.388   4.244   0.970 -1.3769 -1.1245 -1.1122
10829SOL     OW33385   0.382   4.590   6.184  0.0177 -0.0562  0.4384
10829SOL    HW133386   0.283   4.587   6.187 -0.0623  0.3691 -0.9147
10829SOL    HW233387   0.418   4.612   6.275 -1.1802  1.0686  0.6682
10830SOL     OW33388   6.819   0.834   4.058 -0.2787 -0.3934  0.3673
10830SOL    HW133389   6.907   0.846   4.013  0.7898  0.0777  2.4367
10830SOL    HW233390   6.784   0.742   4.040 -0.2636  0.0004 -1.9067
10831SOL     OW33391   6.339   4.221   0.244  0.5264  0.1580 -0.2643
10831SOL    HW133392   6.422   4.216   0.300  0.1590 -2.4171  0.1765
10831SOL    HW233393   6.364   4.242   0.150  1.2776  3.1299  0.4863
10832SOL     OW33394   2.865   2.143   2.276  0.0668  0.2789  0.1198
10832SOL    HW133395   2.929   2.069   2.299 -0.6838 -0.3873  0.0847
10832SOL    HW233396   2.895   2.186   2.191  0.4765 -0.0193  0.1061
10833SOL     OW33397   3.832   1.742   4.705 -0.3688  0.5930  0.1368
10833SOL    HW133398   3.867   1.810   4.641  0.5020  1.4513  1.4747
10833SOL    HW233399   3.757   1.782   4.757 -0.9646 -0.0483 -0.2140
10834SOL     OW33400   5.612   2.627   0.915  0.3062  0.2917 -0.0326
10834SOL    HW133401   5.640   2.564   0.843 -1.1369  2.9898 -3.1658
10834SOL    HW233402   5.671   2.707   0.915  0.9881 -0.0812  2.6898
10835SOL     OW33403   6.182   0.750   0.356 -0.0261  0.5423  0.0147
10835SOL    HW133404   6.177   0.737   0.455 -2.2470 -1.8115 -0.3140
10835SOL    HW233405   6.241   0.679   0.317  0.7672  1.4090 -0.3854
10836SOL     OW33406   6.966   1.438   1.903 -0.1272  0.1082  0.1190
10836SOL    HW133407   6.965   1.367   1.973  0.4220 -1.7274 -1.6238
10836SOL    HW233408   7.061   1.464   1.883 -0.2757  0.6049  0.0564
10837SOL     OW33409   1.260   4.805   2.824 -0.4117 -0.3404 -0.1474
10837SOL    HW133410   1.337   4.867   2.808 -0.0510 -0.3605  1.4044
10837SOL    HW233411   1.293   4.710   2.819 -0.0745 -0.3423  1.5841
10838SOL     OW33412   5.584   1.246   3.078  0.5381  0.1173  0.8137
10838SOL    HW133413   5.557   1.304   3.156  0.0721  1.1430 -0.0813
10838SOL    HW233414   5.680   1.263   3.055  0.7084 -0.2706  1.2285
10839SOL     OW33415   2.173   6.814   0.375 -0.5347  0.3650  0.1968
10839SOL    HW133416   2.153   6.888   0.311 -2.4656  1.0271  1.4782
10839SOL    HW233417   2.178   6.727   0.325  1.6300  1.2577 -1.3084
10840SOL     OW33418   2.085   6.178   3.093  0.0715  0.2799 -0.1622
10840SOL    HW133419   2.049   6.180   2.999 -0.0339 -2.9297 -0.3030
10840SOL    HW233420   2.169   6.123   3.095  1.2543  2.0319  1.3264
10841SOL     OW33421   3.914   3.402   6.363 -0.1265 -0.1046  0.4014
10841SOL    HW133422   3.930   3.487   6.413 -1.0153  0.0456  0.4471
10841SOL    HW233423   3.888   3.330   6.427  1.3314 -0.6226  0.4512
10842SOL     OW33424   6.529   2.441   4.275  0.3997  0.3402  0.2977
10842SOL    HW133425   6.452   2.499   4.300 -0.3737  0.3948 -2.0283
10842SOL    HW233426   6.497   2.348   4.258  0.5218  0.6930 -2.1693
10843SOL     OW33427   0.092   1.650   5.952 -0.0237  0.6234 -0.0714
10843SOL    HW133428   0.062   1.605   6.037  1.2283  2.6732  1.5656
10843SOL    HW233429   0.137   1.582   5.894  2.7778 -0.2429  2.7627
10844SOL     OW33430   5.138   6.857   5.223 -0.1557  0.4162  0.3811
10844SOL    HW133431   5.190   6.814   5.297 -0.2321 -1.0945 -0.3885
10844SOL    HW233432   5.159   6.954   5.219  1.6805  0.0732  0.8620
10845SOL     OW33433   2.016   3.847   1.665  0.5987 -0.3102 -0.1115
10845SOL    HW133434   2.054   3.831   1.756  2.6489  1.3928 -0.5754
10845SOL    HW233435   2.064   3.789   1.599  1.0801  0.4498 -0.4453
10846SOL     OW33436   3.132   1.760   6.962  0.4006  0.0466 -0.1245
10846SOL    HW133437   3.115   1.777   7.059  0.2720  1.3944 -0.3636
10846SOL    HW233438   3.160   1.845   6.917 -1.6481 -0.0186 -1.7188
10847SOL     OW33439   5.387   2.498   5.965  0.1978  0.3408 -0.2141
10847SOL    HW133440   5.310   2.525   5.907  0.2230 -1.2844 -1.0643
10847SOL    HW233441   5.356   2.486   6.059 -0.8177 -1.1164 -0.6979
10848SOL     OW33442   2.564   6.633   0.834 -0.1170 -0.3187 -0.2331
10848SOL    HW133443   2.579   6.688   0.916 -1.4055  1.3805 -1.0709
10848SOL    HW233444   2.465   6.619   0.822  0.1623 -2.8622 -0.0611
10849SOL     OW33445   0.536   4.071   5.073  0.3945 -0.2470  0.6561
10849SOL    HW133446   0.545   4.037   5.167  1.2227  0.1099  0.7141
10849SOL    HW233447   0.610   4.035   5.017  0.3115  0.1114  0.3107
10850SOL     OW33448   5.553   6.958   3.398  0.0495  0.3945 -0.5603
10850SOL    HW133449   5.562   7.049   3.438 -0.6373  0.3369 -0.2508
10850SOL    HW233450   5.615   6.894   3.444 -0.6704  0.3462  0.3771
10851SOL     OW33451   3.136   2.872   1.303 -0.0913 -0.0982 -0.3909
10851SOL    HW133452   3.122   2.966   1.335  0.7046  0.5756 -1.9169
10851SOL    HW233453   3.233   2.849   1.310 -0.5144 -1.5287  1.7448
10852SOL     OW33454   4.646   1.608   4.102  1.4048  0.1960  0.2125
10852SOL    HW133455   4.640   1.651   4.012  0.1172 -1.6015 -0.6228
10852SOL    HW233456   4.563   1.554   4.119  2.2697 -0.7049  1.8306
10853SOL     OW33457   3.107   0.537   3.941 -0.5734  0.0019  0.1393
10853SOL    HW133458   3.194   0.528   3.893 -0.1630 -0.1238  0.9022
10853SOL    HW233459   3.032   0.510   3.880 -0.0369 -0.4497 -0.3265
10854SOL     OW33460   4.601   0.210   5.947  0.4720  0.2471 -0.0888
10854SOL    HW133461   4.669   0.136   5.941  1.9000  1.5108 -0.1840
10854SOL    HW233462   4.517   0.182   5.900  1.7661 -0.4536 -2.1199
10855SOL     OW33463   6.800   0.552   3.200  0.2421 -0.0989 -0.0834
10855SOL    HW133464   6.777   0.648   3.183 -1.6177 -0.4779  0.0693
10855SOL    HW233465   6.716   0.497   3.198  1.2769 -1.7332 -0.1954
10856SOL     OW33466   5.726   6.502   4.819  0.0553  0.2532 -0.1661
10856SOL    HW133467   5.700   6.445   4.896  0.8985  0.2939  0.1608
10856SOL    HW233468   5.644   6.536   4.773 -0.4625  0.6151  0.9967
10857SOL     OW33469   6.228   0.700   6.180  0.4191 -0.3789 -0.0407
10857SOL    HW133470   6.213   0.604   6.203  1.5137 -0.6904 -0.5359
10857SOL    HW233471   6.232   0.710   6.080 -3.7063  0.8422 -0.2684
10858SOL     OW33472   3.412   3.159   2.463  0.2509 -0.4346 -0.1505
10858SOL    HW133473   3.356   3.227   2.511  4.2068  1.9206  1.6885
10858SOL    HW233474   3.418   3.183   2.366  1.0742  1.6723  0.3443
10859SOL     OW33475   3.249   4.934   2.641 -0.2658 -0.1674  0.1568
10859SOL    HW133476   3.202   5.022   2.636  1.9586  1.2703  2.2071
10859SOL    HW233477   3.326   4.934   2.577 -1.2876 -1.4059 -1.1467
10860SOL     OW33478   5.584   2.857   2.430 -0.2158 -0.0404  0.6233
10860SOL    HW133479   5.506   2.852   2.367  0.9208 -0.7760 -0.7939
10860SOL    HW233480   5.569   2.793   2.506 -1.1892  0.1786  0.6361
10861SOL     OW33481   1.657   5.767   0.454  0.3414  0.2916  0.1311
10861SOL    HW133482   1.566   5.775   0.413 -0.8084 -0.5464  2.3235
10861SOL    HW233483   1.679   5.671   0.467  1.3067  0.5083  0.1612
10862SOL     OW33484   3.708   5.335   5.737  0.5327 -0.2045 -0.5408
10862SOL    HW133485   3.807   5.327   5.721  0.4100 -2.1713 -0.5816
10862SOL    HW233486   3.685   5.289   5.823 -0.4075 -0.1354 -0.7533
10863SOL     OW33487   6.776   0.283   4.701 -0.4489 -0.5045 -0.1996
10863SOL    HW133488   6.704   0.353   4.704 -0.3487 -0.4426  2.0517
10863SOL    HW233489   6.866   0.327   4.707 -0.3655 -0.7685  0.6003
10864SOL     OW33490   3.683   3.538   3.272  0.5519  0.1950  0.5479
10864SOL    HW133491   3.639   3.490   3.348 -1.0546  1.6471  0.5993
10864SOL    HW233492   3.760   3.483   3.238  1.7297 -0.2240  3.5795
10865SOL     OW33493   2.496   2.443   1.776 -0.4744 -0.5239  0.5674
10865SOL    HW133494   2.593   2.419   1.784  0.5344  2.3740 -1.1694
10865SOL    HW233495   2.451   2.378   1.715  1.1110 -0.4189 -0.7981
10866SOL     OW33496   6.238   3.966   6.400  0.1257  0.6343  0.0270
10866SOL    HW133497   6.239   4.020   6.316 -0.0391  1.2545  0.4075
10866SOL    HW233498   6.191   3.879   6.384  0.5428  0.5301 -0.6424
10867SOL     OW33499   4.822   2.325   6.889 -0.0698 -0.2054 -0.5901
10867SOL    HW133500   4.769   2.277   6.958  0.2007  1.2271  0.6756
10867SOL    HW233501   4.763   2.346   6.811 -1.0634  0.2971  0.2649
10868SOL     OW33502   1.074   0.133   5.581 -0.3353  0.0212  0.3419
10868SOL    HW133503   1.122   0.082   5.652  0.5980  0.9770  0.4198
10868SOL    HW233504   0.984   0.092   5.566  0.3696 -1.6349  0.4006
10869NA      NA33505   5.673   1.233   0.727 -0.2424  0.3332  0.3836
10870NA      NA33506   5.127   5.233   4.652  0.0080 -0.1339 -0.2801
10871NA      NA33507   1.468   4.172   3.527 -0.2038 -0.4417 -0.0437
10872NA      NA33508   0.023   3.611   4.155  0.0579 -0.0351 -0.2442
10873NA      NA33509   4.134   2.349   5.271 -0.2250  0.2090  0.0746
10874NA      NA33510   2.803   2.609   6.232  0.2880 -0.0495 -0.0427
10875NA      NA33511   0.876   5.258   6.656 -0.0485  0.2042 -0.1325
10876NA      NA33512   3.803   6.056   1.376 -0.3579  0.4148  0.1272
10877NA      NA33513   5.442   4.075   1.047 -1.3023  0.0131  0.0802
10878NA      NA33514   2.628   1.620   0.079 -0.0006  0.1960  0.5212
10879NA      NA33515   4.305   6.596   2.624  0.0584 -0.0827 -0.4970
10880NA      NA33516   3.626   0.689   4.265 -0.1662 -0.3649 -0.3958
10881NA      NA33517   2.757   4.967   2.542  0.0412  0.1297  0.3059
10882NA      NA33518   3.721   4.496   6.305 -0.2422  0.4208 -0.4188
   7.02195   7.02195   7.02195
