CNT in water
33518
    1C        C    1   2.840   2.763   4.741 -0.2649  0.2381 -0.0823
    1C        C    2   2.895   2.715   4.862 -0.2172  0.3697 -0.0499
    1C        C    3   2.846   2.770   4.981 -0.0520  0.2600  0.0686
    1C        C    4   2.850   2.773   4.254  0.4037  0.6461  0.0455
    1C        C    5   2.902   2.722   4.376  0.1101 -0.2848 -0.2068
    1C        C    6   2.849   2.770   4.498 -0.0675 -0.0243 -0.3820
    1C        C    7   3.010   2.634   4.620 -0.5597 -0.0969 -0.1339
    1C        C    8   2.894   2.715   4.620 -0.1946  0.4284 -0.1279
    1C        C    9   3.073   2.602   4.742 -0.8043 -0.3694 -0.0777
    1C        C   10   3.007   2.629   4.863 -0.6985 -0.2684 -0.0435
    1C        C   11   3.179   2.485   4.973  0.2073  0.5229  0.2500
    1C        C   12   3.063   2.564   4.974  0.3290  0.7032  0.0247
    1C        C   13   2.853   2.768   3.767 -0.2426 -0.4967  0.4825
    1C        C   14   2.900   2.717   3.890  0.3871 -0.2614  0.3462
    1C        C   15   2.848   2.768   4.011  0.4350  0.3547  0.1176
    1C        C   16   3.015   2.637   4.132  0.0323 -0.1856 -0.2717
    1C        C   17   2.900   2.721   4.133  0.5649  0.5592  0.1454
    1C        C   18   3.074   2.601   4.255 -0.3110 -0.3139 -0.1370
    1C        C   19   3.014   2.636   4.378  0.0796 -0.3229  0.0609
    1C        C   20   3.209   2.554   4.500 -0.2459 -0.4406 -0.0312
    1C        C   21   3.074   2.598   4.500 -0.3179 -0.6529  0.1587
    1C        C   22   3.274   2.527   4.623 -0.4454 -0.3654  0.0898
    1C        C   23   3.201   2.540   4.743 -0.6896 -0.1298 -0.0831
    1C        C   24   3.409   2.478   4.860 -0.3137  0.2042 -0.2694
    1C        C   25   3.267   2.493   4.860 -0.3184  0.1254 -0.1900
    1C        C   26   3.485   2.472   4.978 -0.4963  0.1139 -0.1589
    1C        C   27   2.846   2.765   3.277  0.1945  0.1469 -0.1973
    1C        C   28   2.904   2.722   3.398  0.2243  0.0730 -0.2412
    1C        C   29   2.855   2.771   3.521  0.0199 -0.5419 -0.0730
    1C        C   30   3.014   2.632   3.642 -0.2864 -0.0144 -0.1880
    1C        C   31   2.903   2.720   3.643 -0.2977 -0.0271  0.2716
    1C        C   32   3.071   2.594   3.766 -0.1549 -0.7131 -0.4564
    1C        C   33   3.012   2.631   3.889  0.0903 -0.6569 -0.3509
    1C        C   34   3.205   2.546   4.011 -0.1000 -0.2225 -0.2739
    1C        C   35   3.073   2.595   4.011 -0.4009 -1.0084 -0.2041
    1C        C   36   3.273   2.525   4.134 -0.4772 -0.1226 -0.0437
    1C        C   37   3.205   2.549   4.256 -0.2050 -0.0547  0.0991
    1C        C   38   3.414   2.509   4.377 -0.0280  0.0493 -0.1820
    1C        C   39   3.276   2.536   4.377 -0.0247  0.0716  0.0116
    1C        C   40   3.484   2.498   4.499 -0.2199  0.4489 -0.0350
    1C        C   41   3.411   2.497   4.620 -0.4232 -0.2390 -0.1603
    1C        C   42   3.627   2.475   4.739 -0.2405 -0.1131 -0.0816
    1C        C   43   3.485   2.481   4.740 -0.2154  0.4537 -0.1976
    1C        C   44   3.702   2.485   4.858 -0.2181 -0.0566 -0.1031
    1C        C   45   3.623   2.489   4.974 -0.4937  0.0509 -0.2963
    1C        C   46   2.830   2.752   2.791  0.2965  0.1757 -0.1109
    1C        C   47   2.888   2.706   2.911  0.2836 -0.0206 -0.1859
    1C        C   48   2.840   2.762   3.032  0.6921  0.7300 -0.3762
    1C        C   49   3.006   2.630   3.154  0.0447  0.1877 -0.2546
    1C        C   50   2.899   2.722   3.154  0.2299  0.3973 -0.2660
    1C        C   51   3.070   2.593   3.275 -0.1708 -0.0351 -0.2099
    1C        C   52   3.016   2.636   3.398 -0.1156 -0.3755 -0.0666
    1C        C   53   3.206   2.542   3.521 -0.2867 -0.6290 -0.4291
    1C        C   54   3.078   2.601   3.520 -0.2402 -0.5139 -0.0427
    1C        C   55   3.270   2.520   3.645 -0.4141 -0.6200 -0.3568
    1C        C   56   3.202   2.542   3.767 -0.1478 -0.7017 -0.1878
    1C        C   57   3.411   2.504   3.887 -0.0265 -0.4691 -0.0070
    1C        C   58   3.271   2.522   3.889 -0.0297 -0.4321 -0.2016
    1C        C   59   3.482   2.493   4.009 -0.0363 -0.0742  0.0406
    1C        C   60   3.412   2.501   4.132 -0.4672 -0.0798 -0.1981
    1C        C   61   3.624   2.501   4.253 -0.2950 -0.0586 -0.0742
    1C        C   62   3.483   2.499   4.254 -0.2958 -0.4228 -0.2978
    1C        C   63   3.697   2.500   4.373 -0.2174  0.2943 -0.1146
    1C        C   64   3.625   2.495   4.494 -0.2245  0.3688 -0.1138
    1C        C   65   3.829   2.541   4.615 -0.3554  0.5072 -0.0314
    1C        C   66   3.695   2.498   4.617 -0.3988  0.6471 -0.0238
    1C        C   67   3.900   2.564   4.735 -0.1394  0.3255 -0.1221
    1C        C   68   3.836   2.529   4.856 -0.3929  0.4746 -0.2125
    1C        C   69   4.050   2.577   4.971 -0.4585  0.2170 -0.0441
    1C        C   70   3.921   2.523   4.967 -0.2796 -0.1898 -0.3312
    1C        C   71   2.818   2.730   2.305  0.1844  0.2241 -0.4616
    1C        C   72   2.877   2.691   2.427 -0.5543  0.0752 -0.1420
    1C        C   73   2.822   2.740   2.547 -0.2887 -0.2162  0.1019
    1C        C   74   2.998   2.623   2.669  0.1475 -0.0649 -0.2206
    1C        C   75   2.884   2.706   2.669  0.3303  0.1870 -0.0964
    1C        C   76   3.062   2.588   2.790  0.0169  0.0267 -0.1242
    1C        C   77   3.005   2.627   2.913 -0.0245 -0.4749  0.0179
    1C        C   78   3.201   2.540   3.033  0.1485 -0.2508 -0.5250
    1C        C   79   3.070   2.594   3.034 -0.0225 -0.6680 -0.0394
    1C        C   80   3.269   2.518   3.154 -0.1226  0.1683 -0.2926
    1C        C   81   3.203   2.546   3.276 -0.1103  0.1327 -0.2766
    1C        C   82   3.409   2.495   3.399 -0.1097 -0.5279 -0.1293
    1C        C   83   3.270   2.523   3.397 -0.0511 -0.2231 -0.3736
    1C        C   84   3.480   2.490   3.520 -0.2180 -0.1537 -0.0443
    1C        C   85   3.409   2.498   3.642 -0.3646 -0.3745 -0.1087
    1C        C   86   3.621   2.502   3.764 -0.2884 -0.1161  0.0273
    1C        C   87   3.480   2.498   3.764 -0.2825 -0.6686 -0.1492
    1C        C   88   3.693   2.510   3.886 -0.2195  0.9851 -0.0686
    1C        C   89   3.623   2.500   4.008 -0.0486  0.3000 -0.0157
    1C        C   90   3.828   2.552   4.129 -0.2487  0.5991  0.3620
    1C        C   91   3.693   2.510   4.130 -0.1083  0.1154  0.0396
    1C        C   92   3.897   2.569   4.251 -0.0755  0.5369  0.2784
    1C        C   93   3.835   2.533   4.373 -0.0941 -0.1972  0.0575
    1C        C   94   4.023   2.631   4.492 -0.1842  0.2313  0.2641
    1C        C   95   3.899   2.565   4.495 -0.2089  0.2598  0.0019
    1C        C   96   4.087   2.667   4.612  0.1212  0.3919  0.0575
    1C        C   97   4.029   2.624   4.733 -0.1411  0.3314 -0.0882
    1C        C   98   4.190   2.757   4.858 -0.2722  0.1559  0.1709
    1C        C   99   4.096   2.649   4.856 -0.1604  0.0602 -0.0222
    1C        C  100   4.211   2.839   4.969 -0.0443  0.4413 -0.0792
    1C        C  101   2.824   2.734   2.068  0.1358  0.0817 -0.1631
    1C        C  102   2.983   2.587   2.187  0.4245  0.2230 -0.2916
    1C        C  103   2.868   2.672   2.185  0.1166 -0.1856 -0.2947
    1C        C  104   3.058   2.573   2.307  0.1321  0.4964 -0.0726
    1C        C  105   2.997   2.616   2.426 -0.0885  0.8065 -0.2936
    1C        C  106   3.194   2.536   2.546 -0.0506  0.3976 -0.0552
    1C        C  107   3.062   2.587   2.548 -0.3123 -0.2482 -0.4112
    1C        C  108   3.263   2.516   2.667 -0.2010 -0.8801 -0.1628
    1C        C  109   3.195   2.541   2.789 -0.3563 -1.0665 -0.2078
    1C        C  110   3.406   2.497   2.911  0.3040 -0.0180  0.1251
    1C        C  111   3.268   2.527   2.909  0.3127  0.0169 -0.4667
    1C        C  112   3.477   2.484   3.032 -0.0007 -0.4786  0.2627
    1C        C  113   3.408   2.493   3.155 -0.2370 -0.5021  0.1366
    1C        C  114   3.621   2.499   3.274  0.0921  0.2073  0.0591
    1C        C  115   3.480   2.490   3.277  0.0966  0.0444 -0.0393
    1C        C  116   3.688   2.512   3.397 -0.2182  0.0684  0.2478
    1C        C  117   3.621   2.501   3.521 -0.2782  0.8000  0.2902
    1C        C  118   3.830   2.540   3.641 -0.1258  0.4915  0.2161
    1C        C  119   3.693   2.508   3.642  0.0083 -0.1270  0.1931
    1C        C  120   3.896   2.570   3.763 -0.2207  0.6621  0.2324
    1C        C  121   3.829   2.547   3.885 -0.2973  1.3086  0.3209
    1C        C  122   4.021   2.637   4.005 -0.0569  0.2532 -0.0116
    1C        C  123   3.896   2.571   4.007 -0.0419  0.2256  0.4099
    1C        C  124   4.082   2.675   4.127  0.3445 -0.1882 -0.0670
    1C        C  125   4.021   2.636   4.248  0.1342  0.1390 -0.0587
    1C        C  126   4.192   2.760   4.373  0.1385 -0.2785 -0.2766
    1C        C  127   4.085   2.668   4.370 -0.3981  0.3186  0.1784
    1C        C  128   4.237   2.817   4.494  0.1830 -0.3419 -0.2600
    1C        C  129   4.189   2.765   4.617 -0.2644  0.7975  0.0557
    1C        C  130   4.322   2.931   4.735 -0.0461  0.0864  0.0354
    1C        C  131   4.243   2.813   4.738 -0.0282  0.0784  0.2397
    1C        C  132   4.352   3.000   4.854 -0.1049  0.3507 -0.0993
    1C        C  133   4.287   2.955   4.970 -0.0427  0.4409 -0.0297
    1C        C  134   3.168   2.469   2.076  0.2380  0.3897 -0.2763
    1C        C  135   3.033   2.502   2.083  0.2272  0.4067 -0.5388
    1C        C  136   3.255   2.484   2.184  0.0349  0.9172 -0.1852
    1C        C  137   3.192   2.526   2.304  0.1895  0.6510 -0.0075
    1C        C  138   3.400   2.481   2.425  0.1568  0.6348 -0.0157
    1C        C  139   3.263   2.514   2.425  0.2002  0.8253  0.0057
    1C        C  140   3.474   2.478   2.546 -0.0593  0.9900  0.1312
    1C        C  141   3.402   2.490   2.667 -0.0801 -0.2948  0.2634
    1C        C  142   3.616   2.490   2.787  0.2716 -0.4200 -0.1649
    1C        C  143   3.475   2.488   2.788  0.2568  0.1935  0.0789
    1C        C  144   3.687   2.495   2.909 -0.1879  0.1367  0.0901
    1C        C  145   3.618   2.488   3.031 -0.0105 -0.0229  0.1875
    1C        C  146   3.828   2.538   3.151  0.0578  0.4401 -0.1742
    1C        C  147   3.691   2.503   3.151  0.1551  0.0313  0.0848
    1C        C  148   3.891   2.563   3.275 -0.6589  0.9975  0.0918
    1C        C  149   3.827   2.536   3.398 -0.2987  0.5748  0.1935
    1C        C  150   4.025   2.620   3.517 -0.1636  0.3906 -0.3330
    1C        C  151   3.896   2.561   3.518 -0.1880  0.4320  0.1660
    1C        C  152   4.086   2.662   3.637 -0.1037  0.1932 -0.2872
    1C        C  153   4.020   2.637   3.760  0.1215  0.0356 -0.1903
    1C        C  154   4.190   2.762   3.883  0.1092 -0.1464  0.0584
    1C        C  155   4.079   2.676   3.882 -0.2282  0.2798 -0.0907
    1C        C  156   4.239   2.813   4.006  0.3365  0.2105 -0.1724
    1C        C  157   4.191   2.765   4.129 -0.1315  0.4112 -0.2715
    1C        C  158   4.333   2.920   4.248  0.1479  0.0346  0.0922
    1C        C  159   4.244   2.810   4.252 -0.2390  0.3334 -0.1912
    1C        C  160   4.372   2.979   4.371  0.4394 -0.1692  0.1010
    1C        C  161   4.321   2.930   4.493  0.1366 -0.3024 -0.0741
    1C        C  162   4.437   3.111   4.612  0.3207 -0.3994 -0.1091
    1C        C  163   4.362   2.991   4.614  0.4677 -0.4916 -0.0876
    1C        C  164   4.468   3.176   4.733  0.5542 -0.5292 -0.0999
    1C        C  165   4.424   3.121   4.855  0.9419 -0.2534  0.1686
    1C        C  166   4.507   3.318   4.971 -0.0663  0.2159  0.1568
    1C        C  167   4.480   3.182   4.968  1.0770 -0.0180 -0.0229
    1C        C  168   3.469   2.435   2.069  0.0649  0.3287  0.0227
    1C        C  169   3.394   2.457   2.185  0.0035  0.7523 -0.0945
    1C        C  170   3.612   2.468   2.302 -0.0149  0.3710 -0.0899
    1C        C  171   3.470   2.465   2.304 -0.0082 -0.0263 -0.0304
    1C        C  172   3.685   2.484   2.422 -0.1257  0.3810 -0.0196
    1C        C  173   3.615   2.488   2.544 -0.0362  0.7191  0.0265
    1C        C  174   3.823   2.534   2.662  0.2324  0.6314  0.0698
    1C        C  175   3.686   2.502   2.665  0.1915  0.7689 -0.1073
    1C        C  176   3.890   2.559   2.784  0.2297 -0.0628  0.2218
    1C        C  177   3.821   2.542   2.906 -0.2630  0.3647  0.0118
    1C        C  178   4.020   2.618   3.028  0.4551 -0.3047  0.0497
    1C        C  179   3.891   2.560   3.027 -0.0376  0.7556 -0.1715
    1C        C  180   4.081   2.654   3.150  0.0930  0.1564  0.1039
    1C        C  181   4.019   2.622   3.272 -0.5588  0.7864 -0.0466
    1C        C  182   4.192   2.746   3.395  0.5924 -0.2335 -0.0881
    1C        C  183   4.083   2.657   3.394 -0.0053  0.4783 -0.2387
    1C        C  184   4.247   2.793   3.516  0.0310 -0.3353  0.2165
    1C        C  185   4.198   2.748   3.641 -0.1015  0.1802  0.3583
    1C        C  186   4.331   2.916   3.759  0.2409  0.1941  0.1000
    1C        C  187   4.248   2.803   3.761  0.2220  0.2030  0.2203
    1C        C  188   4.374   2.975   3.880  0.0820  0.3688  0.0763
    1C        C  189   4.332   2.919   4.003  0.6553 -0.0520  0.0895
    1C        C  190   4.433   3.104   4.125  0.5253 -0.1501  0.1235
    1C        C  191   4.373   2.976   4.125  0.7823 -0.2725  0.1528
    1C        C  192   4.457   3.173   4.246  0.5207 -0.0417  0.0623
    1C        C  193   4.432   3.107   4.368  0.6080 -0.2512 -0.0341
    1C        C  194   4.495   3.313   4.489  0.2366 -0.1939  0.3601
    1C        C  195   4.456   3.177   4.488  0.6546 -0.3104 -0.0096
    1C        C  196   4.509   3.384   4.610 -0.2092 -0.1372  0.3781
    1C        C  197   4.508   3.313   4.732  0.2110 -0.4286  0.2122
    1C        C  198   4.547   3.528   4.847  0.1948 -0.1820 -0.0832
    1C        C  199   4.534   3.386   4.851  0.3936 -0.1944  0.0264
    1C        C  200   4.582   3.615   4.956 -0.3393 -0.0295 -0.0360
    1C        C  201   3.609   2.423   2.071  0.0452  0.0536 -0.2115
    1C        C  202   3.823   2.514   2.179 -0.1608  0.3096  0.0136
    1C        C  203   3.687   2.467   2.182 -0.0289 -0.0863 -0.1006
    1C        C  204   3.893   2.544   2.299  0.0045  0.3981 -0.1017
    1C        C  205   3.822   2.521   2.419 -0.0244  0.0176 -0.1859
    1C        C  206   4.018   2.611   2.539  0.0814 -0.1520 -0.1477
    1C        C  207   3.891   2.551   2.539 -0.1432  0.3143 -0.1845
    1C        C  208   4.079   2.651   2.660 -0.0776 -0.3506  0.0034
    1C        C  209   4.017   2.620   2.783 -0.0938  0.6255  0.2467
    1C        C  210   4.191   2.742   2.905  0.5046 -0.0609  0.1104
    1C        C  211   4.078   2.657   2.905  0.6689 -0.2867  0.1526
    1C        C  212   4.243   2.791   3.027  0.1650 -0.0064  0.2401
    1C        C  213   4.185   2.749   3.149  0.1123  0.1436  0.2715
    1C        C  214   4.325   2.907   3.270  0.8055  0.0055  0.1679
    1C        C  215   4.235   2.799   3.271  0.5118  0.2409  0.0779
    1C        C  216   4.364   2.967   3.392  0.8598 -0.7560  0.5339
    1C        C  217   4.329   2.908   3.516  0.3687 -0.5653  0.4939
    1C        C  218   4.428   3.101   3.633  0.1625  0.2249 -0.1375
    1C        C  219   4.367   2.974   3.635  0.6492 -0.0165  0.1128
    1C        C  220   4.459   3.164   3.756  0.8480  0.0146 -0.1931
    1C        C  221   4.438   3.101   3.880  0.9065 -0.0439 -0.2083
    1C        C  222   4.492   3.305   3.999  0.5969 -0.4200  0.0942
    1C        C  223   4.463   3.167   4.002  0.8874 -0.4842  0.0384
    1C        C  224   4.505   3.375   4.120 -0.0354 -0.0258 -0.0611
    1C        C  225   4.491   3.310   4.245  0.3607 -0.0028 -0.0042
    1C        C  226   4.516   3.522   4.361  0.4449 -0.4559  0.2480
    1C        C  227   4.508   3.381   4.366  0.4908 -0.4560  0.2432
    1C        C  228   4.517   3.594   4.483 -0.1082 -0.2015  0.0987
    1C        C  229   4.522   3.524   4.606 -0.0530 -0.1616  0.1145
    1C        C  230   4.492   3.737   4.725  0.5357  0.0208 -0.2236
    1C        C  231   4.528   3.599   4.725  0.4230 -0.0046 -0.0119
    1C        C  232   4.483   3.813   4.844 -0.1036 -0.2688 -0.0868
    1C        C  233   4.535   3.747   4.956  0.3270  0.2060 -0.0107
    1C        C  234   4.015   2.603   2.060  0.3022 -0.3705  0.0481
    1C        C  235   3.891   2.539   2.060 -0.1656  0.5112  0.0510
    1C        C  236   4.080   2.649   2.175  0.7257 -0.2686 -0.2295
    1C        C  237   4.016   2.614   2.296  0.3991 -0.2956 -0.4053
    1C        C  238   4.198   2.726   2.416  0.2868 -0.6151  0.1306
    1C        C  239   4.082   2.644   2.418  0.0363 -0.2743 -0.2092
    1C        C  240   4.250   2.778   2.537  0.1661 -0.5332  0.1502
    1C        C  241   4.190   2.738   2.658  0.1614 -0.6456  0.1142
    1C        C  242   4.330   2.896   2.781  0.4931 -0.4842  0.2921
    1C        C  243   4.240   2.787   2.781  0.3538 -0.3733 -0.0692
    1C        C  244   4.373   2.956   2.902  0.8489 -0.6591  0.2581
    1C        C  245   4.336   2.897   3.025  0.6893 -0.4525  0.3148
    1C        C  246   4.425   3.091   3.142  0.8721 -0.1767 -0.3458
    1C        C  247   4.366   2.963   3.146  1.0265 -0.2398  0.1237
    1C        C  248   4.449   3.157   3.265  0.0735 -0.4406 -0.0346
    1C        C  249   4.424   3.095   3.389  0.6156 -0.6462 -0.0176
    1C        C  250   4.489   3.299   3.511  0.8028 -0.1827 -0.7155
    1C        C  251   4.452   3.163   3.509  0.2811 -0.0573 -0.2631
    1C        C  252   4.504   3.370   3.632  0.3264 -0.4382 -0.4984
    1C        C  253   4.495   3.301   3.755  0.8219  0.0251 -0.1917
    1C        C  254   4.515   3.514   3.874 -0.0472 -0.3384  0.2804
    1C        C  255   4.506   3.373   3.876  0.3918 -0.3723  0.0938
    1C        C  256   4.513   3.586   3.996 -0.3849 -0.1429  0.1615
    1C        C  257   4.514   3.516   4.118  0.0843 -0.0297  0.2236
    1C        C  258   4.482   3.729   4.239 -1.0094 -0.4868  0.2641
    1C        C  259   4.509   3.591   4.238  0.1675 -0.2645  0.3721
    1C        C  260   4.465   3.799   4.360 -0.4635 -0.0778  0.1046
    1C        C  261   4.486   3.731   4.482 -0.6967 -0.3353 -0.0041
    1C        C  262   4.429   3.938   4.598 -0.0317 -0.0050  0.2048
    1C        C  263   4.466   3.802   4.603 -0.5719 -0.1613 -0.0902
    1C        C  264   4.397   4.004   4.719 -0.5459 -0.1409  0.1437
    1C        C  265   4.425   3.941   4.842 -0.3643 -0.3868 -0.0232
    1C        C  266   4.309   4.125   4.955 -0.1475 -0.0456  0.1143
    1C        C  267   4.382   4.007   4.959 -0.1181 -0.0352 -0.1314
    1C        C  268   4.264   2.766   2.058  0.0762 -0.3828 -0.1670
    1C        C  269   4.200   2.724   2.175  0.8360 -0.4385  0.2381
    1C        C  270   4.341   2.885   2.294  0.5117 -0.4508 -0.0580
    1C        C  271   4.256   2.772   2.295  0.8008 -0.6701  0.3488
    1C        C  272   4.380   2.945   2.416  0.4597 -0.8951  0.1808
    1C        C  273   4.336   2.890   2.539  0.5965 -0.8578  0.2501
    1C        C  274   4.434   3.080   2.655  0.0183 -0.3737 -0.1501
    1C        C  275   4.375   2.952   2.660  0.1329 -0.4184  0.1840
    1C        C  276   4.462   3.145   2.776  0.6167 -0.4201 -0.2581
    1C        C  277   4.439   3.081   2.900  1.0623 -0.7761 -0.3538
    1C        C  278   4.496   3.289   3.019  0.0551 -0.1990 -0.0334
    1C        C  279   4.459   3.152   3.020  0.5940 -0.3561 -0.5190
    1C        C  280   4.505   3.357   3.142  0.0518 -0.1856 -0.0350
    1C        C  281   4.490   3.292   3.266  0.1284 -0.4495 -0.1582
    1C        C  282   4.507   3.506   3.387  0.1111  0.1993  0.1978
    1C        C  283   4.500   3.365   3.387  0.6398  0.1611 -0.5545
    1C        C  284   4.506   3.580   3.508 -0.1714 -0.3039  0.5110
    1C        C  285   4.511   3.511   3.631 -0.0134 -0.4004  0.4573
    1C        C  286   4.489   3.723   3.747 -0.2420 -0.2243  0.3084
    1C        C  287   4.512   3.584   3.752 -0.1611 -0.2133  0.3517
    1C        C  288   4.468   3.789   3.870 -0.1743  0.0492  0.1772
    1C        C  289   4.488   3.725   3.995 -0.1860 -0.1063  0.1000
    1C        C  290   4.415   3.927   4.112 -0.7918 -0.5306  0.1227
    1C        C  291   4.465   3.795   4.115 -0.6087 -0.4560  0.2276
    1C        C  292   4.392   3.997   4.232 -0.7229 -0.3773  0.0452
    1C        C  293   4.420   3.933   4.355 -0.5771 -0.1182  0.1426
    1C        C  294   4.309   4.115   4.472 -0.6248 -0.3321 -0.1709
    1C        C  295   4.389   3.998   4.477 -0.7185 -0.3771  0.2421
    1C        C  296   4.273   4.177   4.593 -0.4294 -0.3893 -0.0851
    1C        C  297   4.318   4.121   4.715  0.0198  0.2409  0.0405
    1C        C  298   4.193   4.304   4.834 -0.4949 -0.2837  0.3476
    1C        C  299   4.275   4.187   4.834 -0.0005  0.0639  0.1303
    1C        C  300   4.163   4.396   4.939 -0.4151 -0.3008  0.3839
    1C        C  301   4.355   2.872   2.057  0.8938 -1.0640  0.2941
    1C        C  302   4.462   3.065   2.172  0.1835 -0.1296  0.2233
    1C        C  303   4.389   2.942   2.173  0.1937 -0.1409 -0.0429
    1C        C  304   4.473   3.137   2.294 -0.9151  0.0605  0.2222
    1C        C  305   4.438   3.074   2.416  0.2101 -0.7779  0.1298
    1C        C  306   4.498   3.283   2.535  0.2931 -0.2946  0.0323
    1C        C  307   4.468   3.145   2.534 -0.1783 -0.1958 -0.1131
    1C        C  308   4.503   3.355   2.656 -0.2269 -0.3083  0.0635
    1C        C  309   4.495   3.283   2.777  0.2647 -0.3337  0.0847
    1C        C  310   4.514   3.497   2.897 -0.9572 -0.1745  0.3231
    1C        C  311   4.513   3.356   2.896  0.2889 -0.1940 -0.0010
    1C        C  312   4.504   3.569   3.019 -0.5277  0.1848  0.1547
    1C        C  313   4.503   3.499   3.142 -1.1044 -0.1889 -0.0550
    1C        C  314   4.473   3.711   3.259 -0.7674 -0.2634 -0.1091
    1C        C  315   4.496   3.571   3.262 -0.8704 -0.2825  0.0224
    1C        C  316   4.466   3.784   3.380 -0.6666 -0.3514 -0.0433
    1C        C  317   4.483   3.719   3.504 -0.3458 -0.3405 -0.0743
    1C        C  318   4.425   3.924   3.623 -0.7910 -0.6851  0.0552
    1C        C  319   4.473   3.791   3.625 -0.8544 -0.7112  0.1117
    1C        C  320   4.389   3.986   3.745 -0.7678 -0.3593 -0.0997
    1C        C  321   4.415   3.920   3.866 -0.0693  0.0883  0.0020
    1C        C  322   4.319   4.111   3.984 -0.1875 -0.2889  0.0437
    1C        C  323   4.389   3.989   3.987  0.2116 -0.0570  0.1441
    1C        C  324   4.277   4.171   4.104 -0.4305 -0.2404 -0.0658
    1C        C  325   4.320   4.118   4.228 -0.1657 -0.0506 -0.0789
    1C        C  326   4.183   4.282   4.350 -0.0385  0.2331 -0.0176
    1C        C  327   4.278   4.176   4.349 -0.5364 -0.2129 -0.1320
    1C        C  328   4.129   4.332   4.470  0.2215 -0.0746  0.2294
    1C        C  329   4.183   4.285   4.593 -0.5615 -0.4965  0.4201
    1C        C  330   4.019   4.428   4.711 -0.3765 -0.0967 -0.0318
    1C        C  331   4.133   4.344   4.711 -0.6044 -0.4092  0.3594
    1C        C  332   3.961   4.484   4.827  0.0102  0.4170 -0.0823
    1C        C  333   4.046   4.473   4.938  0.0465  0.4092 -0.1113
    1C        C  334   4.543   3.262   2.058 -0.1096 -0.0054  0.1326
    1C        C  335   4.532   3.122   2.061  0.6134 -0.0626  0.5200
    1C        C  336   4.527   3.344   2.170 -0.4057  0.0358  0.0641
    1C        C  337   4.507   3.275   2.291 -0.6204 -0.0119  0.0052
    1C        C  338   4.519   3.490   2.408 -0.9032 -0.1240  0.1234
    1C        C  339   4.518   3.349   2.411 -0.1103 -0.1422  0.0457
    1C        C  340   4.516   3.563   2.529 -0.6502 -0.1465  0.1483
    1C        C  341   4.508   3.496   2.653 -0.4758 -0.2960  0.0832
    1C        C  342   4.491   3.706   2.768 -0.2852 -0.5024 -0.4679
    1C        C  343   4.513   3.567   2.775 -0.0392 -0.4412  0.1523
    1C        C  344   4.471   3.774   2.891 -0.4887 -0.4087 -0.5492
    1C        C  345   4.482   3.708   3.015 -0.3401  0.2085 -0.2232
    1C        C  346   4.417   3.912   3.133 -0.2242  0.0196 -0.1732
    1C        C  347   4.459   3.777   3.136 -1.3100 -0.3254 -0.0890
    1C        C  348   4.385   3.975   3.255 -0.3581  0.1171 -0.2534
    1C        C  349   4.417   3.917   3.379 -0.6010 -0.3221 -0.3911
    1C        C  350   4.317   4.105   3.496 -0.5979 -0.8882 -0.2122
    1C        C  351   4.392   3.985   3.500 -0.3714 -0.7479 -0.0938
    1C        C  352   4.275   4.164   3.617 -0.6611 -0.6248 -0.3588
    1C        C  353   4.315   4.107   3.740 -1.0237 -0.5158 -0.1856
    1C        C  354   4.176   4.268   3.862 -0.5050 -0.6328  0.1216
    1C        C  355   4.273   4.165   3.861 -0.1628 -0.3143  0.0239
    1C        C  356   4.121   4.314   3.983 -0.1654 -0.1278  0.0855
    1C        C  357   4.176   4.270   4.106  0.1208  0.3285  0.1223
    1C        C  358   4.008   4.399   4.226 -0.0022  0.4333  0.1052
    1C        C  359   4.122   4.316   4.228 -0.1375  0.2481  0.0378
    1C        C  360   3.947   4.440   4.346  0.0313  0.4477  0.1157
    1C        C  361   4.009   4.406   4.469  0.7137  0.7236 -0.1480
    1C        C  362   3.822   4.510   4.589 -0.0647  0.0375  0.2544
    1C        C  363   3.952   4.453   4.589 -0.2076 -0.2976 -0.1678
    1C        C  364   3.755   4.544   4.708 -0.1098  0.2104  0.1799
    1C        C  365   3.829   4.534   4.827 -0.1928 -0.1094  0.2049
    1C        C  366   3.620   4.586   4.946 -0.1782  0.1746  0.3341
    1C        C  367   3.757   4.564   4.944 -0.3818 -1.1665  0.3665
    1C        C  368   4.497   3.556   2.049 -0.3018  0.1840  0.2443
    1C        C  369   4.518   3.485   2.167  0.3762  0.0948  0.0746
    1C        C  370   4.506   3.701   2.285  0.1518 -0.0208 -0.1220
    1C        C  371   4.517   3.561   2.286  0.1965 -0.0195  0.1499
    1C        C  372   4.483   3.773   2.405 -0.0509  0.3325 -0.3661
    1C        C  373   4.499   3.703   2.527 -0.2997 -0.1059 -0.5782
    1C        C  374   4.423   3.905   2.647 -0.7262 -0.6669  0.3625
    1C        C  375   4.483   3.777   2.646 -0.0173 -0.3397 -0.3943
    1C        C  376   4.391   3.971   2.767 -0.2745  0.1622  0.0314
    1C        C  377   4.424   3.907   2.888 -1.3119 -0.6854 -0.1174
    1C        C  378   4.319   4.096   3.008 -0.1640  0.0301  0.1770
    1C        C  379   4.393   3.975   3.009 -0.2216 -0.0115 -0.1935
    1C        C  380   4.277   4.156   3.129  0.4290  0.5302  0.1419
    1C        C  381   4.309   4.094   3.252 -0.1133  0.2914  0.1678
    1C        C  382   4.179   4.264   3.373 -0.2963  0.2465  0.3175
    1C        C  383   4.270   4.156   3.373  0.0095  0.4996  0.1056
    1C        C  384   4.125   4.314   3.494 -0.3044  0.5121  0.2052
    1C        C  385   4.175   4.264   3.616 -0.1756 -0.1280 -0.1055
    1C        C  386   4.004   4.387   3.739  0.5024  0.4700  0.1176
    1C        C  387   4.123   4.310   3.738  0.1279 -0.1187  0.0207
    1C        C  388   3.942   4.427   3.859  0.2272  0.2712  0.0411
    1C        C  389   4.008   4.397   3.981 -0.1032 -0.0459  0.1397
    1C        C  390   3.816   4.486   4.106  0.0513  0.4708 -0.0928
    1C        C  391   3.946   4.433   4.103 -0.0162  0.3053  0.0801
    1C        C  392   3.749   4.510   4.228  0.1440  0.7820 -0.1068
    1C        C  393   3.818   4.498   4.350  0.0918  0.5920 -0.0987
    1C        C  394   3.610   4.549   4.470  0.2526  0.5401  0.1181
    1C        C  395   3.749   4.526   4.469  0.1467 -0.1105  0.1047
    1C        C  396   3.539   4.564   4.591  0.0683  0.3749  0.0293
    1C        C  397   3.615   4.566   4.710 -0.0110  0.8803  0.0736
    1C        C  398   3.403   4.548   4.832  0.1439  0.1792 -0.2897
    1C        C  399   3.542   4.574   4.831  0.0510  0.7047  0.1231
    1C        C  400   3.335   4.512   4.948 -0.3304  0.8189 -0.3657
    1C        C  401   4.499   3.695   2.048  0.2075  0.1783 -0.5767
    1C        C  402   4.456   3.910   2.162  1.0892 -0.0652  0.1364
    1C        C  403   4.488   3.772   2.164  0.6697 -0.1756 -0.2945
    1C        C  404   4.410   3.970   2.281  0.5528 -0.1326 -0.0281
    1C        C  405   4.441   3.908   2.404  0.1436  0.4023  0.3536
    1C        C  406   4.325   4.089   2.522 -0.3471 -0.2559 -0.0024
    1C        C  407   4.404   3.972   2.524 -0.2570 -0.1860  0.5531
    1C        C  408   4.277   4.147   2.641  0.0987  0.0992  0.0092
    1C        C  409   4.312   4.088   2.765 -0.5221 -0.0004  0.1434
    1C        C  410   4.173   4.250   2.883  0.0126  0.2550 -0.3589
    1C        C  411   4.270   4.148   2.886 -0.0229  0.2331  0.2045
    1C        C  412   4.125   4.301   3.006  0.2542  0.3546 -0.3053
    1C        C  413   4.175   4.253   3.129  0.3097  0.4105 -0.3041
    1C        C  414   4.007   4.382   3.251  0.2855  0.0574  0.0743
    1C        C  415   4.127   4.308   3.250 -0.0084 -0.4176 -0.0482
    1C        C  416   3.940   4.415   3.371  0.0080  0.2520 -0.1325
    1C        C  417   4.001   4.382   3.494 -0.0022  1.0664  0.0938
    1C        C  418   3.811   4.474   3.614  0.2648  0.7372  0.0671
    1C        C  419   3.939   4.415   3.616  0.4091  1.0609  0.3019
    1C        C  420   3.745   4.497   3.737  0.3576  0.6648  0.1263
    1C        C  421   3.812   4.481   3.860  0.4986  0.9272  0.0810
    1C        C  422   3.607   4.525   3.980 -0.0072  0.0827  0.0890
    1C        C  423   3.746   4.499   3.984  0.1291  0.7834 -0.0982
    1C        C  424   3.540   4.526   4.104  0.1742 -0.0444  0.1824
    1C        C  425   3.610   4.535   4.226  0.1349  0.7305  0.1442
    1C        C  426   3.399   4.546   4.351  0.1577 -0.2111  0.1170
    1C        C  427   3.540   4.551   4.348  0.1363  0.3828  0.1857
    1C        C  428   3.325   4.542   4.471  0.0499 -0.3103  0.0440
    1C        C  429   3.398   4.550   4.592  0.0620  0.4451 -0.0095
    1C        C  430   3.188   4.510   4.715 -0.1192  0.0451 -0.1419
    1C        C  431   3.327   4.539   4.713 -0.0469 -0.2957 -0.1340
    1C        C  432   3.118   4.486   4.837 -0.2162 -0.0664 -0.2209
    1C        C  433   3.198   4.484   4.951 -0.1639 -0.0198 -0.2579
    1C        C  434   4.384   4.115   2.047  0.2366  0.3190  0.0109
    1C        C  435   4.447   3.990   2.048 -0.2670  0.0598  0.3040
    1C        C  436   4.298   4.153   2.155  0.2727  0.1561  0.0967
    1C        C  437   4.330   4.087   2.277 -0.2268 -0.6688 -0.2111
    1C        C  438   4.183   4.243   2.398  0.2674 -0.1822  0.0615
    1C        C  439   4.282   4.142   2.398 -0.0865 -0.5335 -0.2154
    1C        C  440   4.123   4.292   2.516  0.5549  0.9310 -0.2412
    1C        C  441   4.178   4.248   2.639  0.7126  0.6966 -0.3962
    1C        C  442   4.009   4.380   2.762 -0.0278 -0.0326 -0.4053
    1C        C  443   4.123   4.296   2.759  0.0264  0.0416 -0.4451
    1C        C  444   3.946   4.414   2.883  0.2124 -0.1171 -0.2570
    1C        C  445   4.004   4.375   3.006  0.1615  0.2035 -0.1295
    1C        C  446   3.809   4.456   3.125  0.2532 -0.2076 -0.0882
    1C        C  447   3.942   4.408   3.128  0.2254 -0.2754  0.0361
    1C        C  448   3.744   4.485   3.247  0.2143  0.0517 -0.1690
    1C        C  449   3.811   4.472   3.371  0.0985  0.4529 -0.0646
    1C        C  450   3.606   4.522   3.494  0.0838 -0.4593 -0.2839
    1C        C  451   3.746   4.501   3.492  0.2144  0.3711  0.0150
    1C        C  452   3.537   4.532   3.617  0.6164  0.3220 -0.0488
    1C        C  453   3.609   4.534   3.739  0.2651  0.3030  0.1551
    1C        C  454   3.396   4.538   3.861  0.1655 -0.1375 -0.1367
    1C        C  455   3.537   4.547   3.859  0.1324  0.3660  0.0638
    1C        C  456   3.329   4.515   3.983  0.3577 -0.2129 -0.0496
    1C        C  457   3.399   4.517   4.106  0.2312 -1.0026  0.0377
    1C        C  458   3.192   4.498   4.231  0.2883 -0.2056 -0.0073
    1C        C  459   3.331   4.524   4.229  0.3513 -0.5592  0.0744
    1C        C  460   3.120   4.487   4.352  0.0494 -0.1339 -0.1485
    1C        C  461   3.186   4.515   4.473 -0.0761  0.3315 -0.1916
    1C        C  462   2.991   4.428   4.594  0.1133 -0.2003  0.1000
    1C        C  463   3.119   4.488   4.594  0.0345 -0.0365 -0.2139
    1C        C  464   2.925   4.397   4.715 -0.1393 -0.4360 -0.0988
    1C        C  465   2.984   4.435   4.839 -0.1268 -0.2949 -0.1482
    1C        C  466   2.796   4.333   4.954  0.0113 -0.0147 -0.0089
    1C        C  467   2.900   4.426   4.954  0.2514 -0.2794  0.1313
    1C        C  468   4.117   4.273   2.037  0.1208 -0.4981 -0.0634
    1C        C  469   4.186   4.242   2.155  0.2789  0.1629  0.0214
    1C        C  470   4.004   4.360   2.272  0.1941 -0.1549 -0.0821
    1C        C  471   4.125   4.284   2.276  0.0084 -0.4382  0.0982
    1C        C  472   3.937   4.387   2.393 -0.1415 -0.6990 -0.1479
    1C        C  473   4.003   4.365   2.516 -0.0348 -0.0280 -0.0820
    1C        C  474   3.811   4.452   2.638 -0.3135  0.1456 -0.3239
    1C        C  475   3.944   4.403   2.639 -0.4496 -0.2258 -0.2180
    1C        C  476   3.744   4.476   2.760  0.1050  0.0276 -0.0663
    1C        C  477   3.813   4.461   2.882  0.2646  0.0342 -0.1540
    1C        C  478   3.604   4.506   3.005  0.3766  0.2175 -0.2106
    1C        C  479   3.742   4.476   3.003  0.2861 -0.2199 -0.1085
    1C        C  480   3.535   4.517   3.127  0.3851  0.3207 -0.2131
    1C        C  481   3.606   4.514   3.249  0.2790  0.3538 -0.1498
    1C        C  482   3.395   4.524   3.371  0.0838 -0.2094  0.2117
    1C        C  483   3.536   4.529   3.371  0.0749  0.1850 -0.2459
    1C        C  484   3.327   4.515   3.494  0.2426 -0.1557  0.3035
    1C        C  485   3.396   4.530   3.616  0.6242 -0.0688  0.0761
    1C        C  486   3.191   4.486   3.739  0.2475 -0.6965  0.1341
    1C        C  487   3.327   4.527   3.739  0.2768 -0.8040 -0.1378
    1C        C  488   3.128   4.459   3.863  0.4549 -0.3448  0.3170
    1C        C  489   3.190   4.486   3.986  0.3879 -0.3009  0.3371
    1C        C  490   3.001   4.400   4.106  0.3279 -0.9137  0.0162
    1C        C  491   3.125   4.467   4.110  0.1943 -0.6797  0.1722
    1C        C  492   2.939   4.370   4.230  0.1743 -0.5810  0.0158
    1C        C  493   2.999   4.413   4.350  0.2843 -0.5168 -0.0646
    1C        C  494   2.826   4.294   4.476  0.4613 -0.4246 -0.0477
    1C        C  495   2.938   4.380   4.473  0.2249 -0.1104  0.0169
    1C        C  496   2.766   4.254   4.597  0.3512 -0.9828 -0.2848
    1C        C  497   2.813   4.310   4.717 -0.0206 -0.5948 -0.3182
    1C        C  498   2.666   4.157   4.839 -0.1614  0.0961  0.0980
    1C        C  499   2.751   4.270   4.838  0.4388 -0.3502  0.0042
    1C        C  500   2.592   4.113   4.950  0.0270 -0.3719  0.0402
    1C        C  501   4.000   4.348   2.035 -0.2301 -1.0444 -0.1344
    1C        C  502   3.807   4.446   2.149  0.0276 -0.7967 -0.2546
    1C        C  503   3.939   4.395   2.152  0.1304 -0.5247 -0.1552
    1C        C  504   3.737   4.462   2.270 -0.1897  0.2221 -0.5064
    1C        C  505   3.806   4.439   2.391  0.0459 -0.2400 -0.7241
    1C        C  506   3.605   4.494   2.516  0.1568 -0.4889 -0.0196
    1C        C  507   3.743   4.464   2.515  0.2923  0.1252 -0.6681
    1C        C  508   3.533   4.502   2.637  0.3626 -0.7570  0.1241
    1C        C  509   3.605   4.498   2.759  0.0802 -0.0887  0.3178
    1C        C  510   3.395   4.510   2.884 -0.2322  0.1172  0.3071
    1C        C  511   3.536   4.513   2.881 -0.2329  0.1748  0.1161
    1C        C  512   3.321   4.513   3.004 -0.0528  0.8514  0.4097
    1C        C  513   3.394   4.522   3.125  0.3714  0.2323  0.2098
    1C        C  514   3.190   4.473   3.250  0.2327 -0.0431 -0.1352
    1C        C  515   3.325   4.514   3.248  0.2165  0.0322  0.1152
    1C        C  516   3.123   4.455   3.373  0.4585 -0.6014 -0.0878
    1C        C  517   3.189   4.483   3.494  0.2801 -0.3276 -0.0517
    1C        C  518   2.999   4.395   3.618  0.4629 -0.5423  0.3385
    1C        C  519   3.125   4.459   3.618  0.3839 -0.3862 -0.0084
    1C        C  520   2.938   4.358   3.740  0.2916 -0.4435  0.2836
    1C        C  521   3.001   4.398   3.860  0.0227  0.5548  0.1008
    1C        C  522   2.829   4.279   3.987 -0.1554  0.0204 -0.2925
    1C        C  523   2.941   4.364   3.984  0.2503 -0.4962 -0.0649
    1C        C  524   2.775   4.236   4.110  0.4252 -0.3071 -0.1441
    1C        C  525   2.827   4.284   4.232 -0.1541 -0.1551  0.0481
    1C        C  526   2.685   4.133   4.355 -0.3351  0.1318 -0.2024
    1C        C  527   2.770   4.245   4.355 -0.2540  0.0740  0.0756
    1C        C  528   2.644   4.077   4.478 -0.3812  0.0120 -0.2689
    1C        C  529   2.679   4.142   4.598 -0.1244 -0.6127  0.0048
    1C        C  530   2.577   3.957   4.727 -0.1290 -0.1157  0.2902
    1C        C  531   2.636   4.086   4.721 -0.3379 -0.0204  0.2085
    1C        C  532   2.541   3.895   4.850  0.4568 -0.2246  0.4121
    1C        C  533   2.523   3.991   4.955 -0.8181  0.0961 -0.0788
    1C        C  534   3.614   4.550   2.038  0.0779 -0.2718 -0.1331
    1C        C  535   3.744   4.498   2.035 -0.1135 -0.7534 -0.1570
    1C        C  536   3.531   4.529   2.153  0.1956  0.0333  0.0092
    1C        C  537   3.600   4.497   2.273 -0.4129 -0.6735  0.1746
    1C        C  538   3.390   4.504   2.397 -0.2272  0.7660  0.0679
    1C        C  539   3.531   4.508   2.396 -0.1947 -0.0363  0.2445
    1C        C  540   3.319   4.495   2.518 -0.3247 -0.0063 -0.0353
    1C        C  541   3.391   4.501   2.640  0.3431 -0.1682 -0.4139
    1C        C  542   3.185   4.466   2.762  0.6451  0.4513 -0.1425
    1C        C  543   3.322   4.501   2.763  0.6166  0.5851 -0.2508
    1C        C  544   3.117   4.451   2.885  0.5639  0.0881 -0.2259
    1C        C  545   3.185   4.475   3.006  0.3031 -0.5118  0.0500
    1C        C  546   2.996   4.384   3.131  0.1271 -0.3102  0.0024
    1C        C  547   3.121   4.450   3.129  0.0084 -0.0737 -0.0068
    1C        C  548   2.937   4.350   3.255  0.8238 -0.7067  0.2383
    1C        C  549   2.997   4.390   3.376  0.5473 -0.7582  0.3996
    1C        C  550   2.826   4.265   3.499  0.3836 -0.6025 -0.1611
    1C        C  551   2.936   4.354   3.498  0.4691 -0.6912  0.3837
    1C        C  552   2.775   4.220   3.623  0.1420 -0.3326 -0.1585
    1C        C  553   2.828   4.270   3.744  0.2840 -0.4623 -0.1640
    1C        C  554   2.688   4.115   3.868 -0.1387 -0.0799  0.0297
    1C        C  555   2.775   4.226   3.868 -0.3661  0.1038 -0.2359
    1C        C  556   2.649   4.059   3.992 -0.4184  0.1980  0.0740
    1C        C  557   2.689   4.124   4.111  0.1783 -0.1207  0.0572
    1C        C  558   2.588   3.942   4.240 -0.6682  0.0965 -0.0856
    1C        C  559   2.648   4.070   4.235 -0.5070  0.0254 -0.0977
    1C        C  560   2.566   3.877   4.363 -0.6134  0.2527  0.0127
    1C        C  561   2.585   3.949   4.484 -0.6801  0.1587  0.0838
    1C        C  562   2.536   3.745   4.610  0.1197  0.0606 -0.2091
    1C        C  563   2.562   3.884   4.607 -0.5265  0.2007  0.1395
    1C        C  564   2.514   3.676   4.732  0.2890  0.2127 -0.0867
    1C        C  565   2.521   3.754   4.851  0.1136 -0.1818  0.1862
    1C        C  566   2.525   3.541   4.973  0.2852 -0.0868 -0.0327
    1C        C  567   2.523   3.680   4.970  0.5144 -0.0774  0.2468
    1C        C  568   3.322   4.473   2.037 -0.2464  0.3829  0.3818
    1C        C  569   3.391   4.506   2.155  0.1112  0.5470  0.1272
    1C        C  570   3.179   4.468   2.276 -0.0724  0.3511  0.0194
    1C        C  571   3.317   4.504   2.276 -0.1096  0.5028 -0.0070
    1C        C  572   3.111   4.447   2.398 -0.0290  0.1343  0.0085
    1C        C  573   3.181   4.469   2.519 -0.3415  0.0654  0.2053
    1C        C  574   2.984   4.391   2.645  0.0186 -0.3230 -0.0969
    1C        C  575   3.115   4.444   2.642  0.0417 -0.3385  0.3372
    1C        C  576   2.926   4.349   2.767  0.0413 -0.1603 -0.0250
    1C        C  577   2.990   4.389   2.886  0.5547  0.0888 -0.3681
    1C        C  578   2.821   4.264   3.012  0.3047  0.4272  0.0806
    1C        C  579   2.934   4.349   3.010  0.6126  0.0248 -0.3546
    1C        C  580   2.770   4.216   3.134 -0.0809  0.0573 -0.2139
    1C        C  581   2.824   4.265   3.255  0.3642 -0.1144 -0.3339
    1C        C  582   2.684   4.108   3.378  0.4792 -0.2712 -0.4643
    1C        C  583   2.774   4.217   3.378  0.4653 -0.2519 -0.3414
    1C        C  584   2.646   4.052   3.502 -0.3581  0.3149 -0.4449
    1C        C  585   2.680   4.115   3.624  0.1298 -0.3267 -0.2370
    1C        C  586   2.580   3.932   3.751 -0.2474  0.1917 -0.1852
    1C        C  587   2.641   4.059   3.747 -0.0611  0.1092 -0.0927
    1C        C  588   2.556   3.866   3.874  0.0867 -0.0068 -0.2206
    1C        C  589   2.584   3.934   3.995 -0.6593  0.3110 -0.2169
    1C        C  590   2.527   3.736   4.123 -0.3684  0.1710 -0.0529
    1C        C  591   2.559   3.874   4.120 -0.2852  0.1509 -0.2140
    1C        C  592   2.516   3.669   4.247 -0.0421  0.4458  0.1311
    1C        C  593   2.529   3.741   4.368 -0.3972  0.1984  0.3228
    1C        C  594   2.523   3.531   4.490 -0.3599 -0.3485  0.1716
    1C        C  595   2.522   3.672   4.491 -0.0518 -0.3397  0.0493
    1C        C  596   2.529   3.460   4.612 -0.1975 -0.1242  0.2993
    1C        C  597   2.517   3.534   4.732  0.1157  0.2044  0.1325
    1C        C  598   2.532   3.325   4.859 -0.0911 -0.1661  0.0590
    1C        C  599   2.518   3.466   4.855  0.5163 -0.1044 -0.0375
    1C        C  600   2.526   3.243   4.973 -0.4049 -0.3404 -0.0804
    1C        C  601   3.190   4.433   2.041 -0.1799  0.1005 -0.2215
    1C        C  602   2.976   4.390   2.158  0.1404  0.2265  0.0871
    1C        C  603   3.109   4.442   2.155  0.0590  0.4332 -0.0764
    1C        C  604   2.919   4.352   2.283 -0.1193  0.0264 -0.0892
    1C        C  605   2.982   4.392   2.403 -0.1514  0.3951 -0.1891
    1C        C  606   2.817   4.257   2.525 -0.1291  0.0433 -0.0557
    1C        C  607   2.921   4.352   2.524  0.2872 -0.4061 -0.2186
    1C        C  608   2.762   4.213   2.648  0.0383  0.2808  0.1112
    1C        C  609   2.815   4.262   2.769 -0.2575  0.2159  0.2753
    1C        C  610   2.675   4.104   2.890  0.1052 -0.0244 -0.1794
    1C        C  611   2.767   4.212   2.892  0.2897 -0.1797  0.3385
    1C        C  612   2.636   4.047   3.013 -0.2783 -0.0793 -0.3214
    1C        C  613   2.681   4.107   3.133 -0.6598  0.5202 -0.4656
    1C        C  614   2.572   3.929   3.261 -0.4326  0.1259 -0.1525
    1C        C  615   2.637   4.055   3.256  0.3608 -0.2809 -0.4207
    1C        C  616   2.550   3.865   3.384 -0.3561  0.2611 -0.0640
    1C        C  617   2.582   3.926   3.508 -0.2532  0.2702 -0.0914
    1C        C  618   2.520   3.726   3.633  0.1407 -0.0649  0.0723
    1C        C  619   2.555   3.862   3.631  0.4483 -0.1447 -0.1455
    1C        C  620   2.513   3.658   3.757 -0.5922 -0.1711 -0.0219
    1C        C  621   2.522   3.729   3.878 -0.4713  0.1300 -0.2039
    1C        C  622   2.506   3.523   4.006  0.1686  0.1603  0.2034
    1C        C  623   2.510   3.664   4.003  0.1598  0.1554 -0.1247
    1C        C  624   2.510   3.451   4.128 -0.1751 -0.1997  0.0037
    1C        C  625   2.513   3.528   4.246  0.1821  0.4373 -0.4107
    1C        C  626   2.544   3.318   4.373 -0.5851  0.4325 -0.0468
    1C        C  627   2.521   3.458   4.369 -0.1695  0.4943 -0.3510
    1C        C  628   2.556   3.249   4.496  0.1403  0.4674 -0.0911
    1C        C  629   2.548   3.320   4.617  0.0062 -0.1028  0.2415
    1C        C  630   2.602   3.118   4.740  0.0382 -0.3480 -0.0951
    1C        C  631   2.557   3.253   4.741  0.7277 -0.1098  0.1909
    1C        C  632   2.616   3.047   4.863 -0.2246 -0.0531  0.1093
    1C        C  633   2.559   3.107   4.980  0.3505 -0.1362  0.4408
    1C        C  634   2.776   4.296   2.052 -0.0566  0.2817  0.0674
    1C        C  635   2.887   4.380   2.046  0.2381 -0.1068  0.0394
    1C        C  636   2.743   4.221   2.166 -0.0484 -0.0884 -0.1710
    1C        C  637   2.805   4.268   2.284  0.1453 -0.3393 -0.1692
    1C        C  638   2.668   4.103   2.405 -0.0098 -0.0249  0.3033
    1C        C  639   2.760   4.211   2.405 -0.2344  0.1740 -0.0616
    1C        C  640   2.624   4.046   2.526 -1.0602  0.4667  0.1670
    1C        C  641   2.674   4.103   2.645 -0.0355  0.3400 -0.1849
    1C        C  642   2.575   3.917   2.772 -0.4275  0.3295 -0.4095
    1C        C  643   2.636   4.044   2.768  0.2081  0.0393 -0.2499
    1C        C  644   2.545   3.853   2.895 -0.8418  0.6924 -0.3156
    1C        C  645   2.570   3.922   3.015 -0.6027  0.0912 -0.0139
    1C        C  646   2.511   3.724   3.144 -0.9136  0.0706 -0.1062
    1C        C  647   2.547   3.860   3.140 -0.5229 -0.0252 -0.0515
    1C        C  648   2.502   3.655   3.267 -0.2581  0.2096  0.0255
    1C        C  649   2.518   3.727   3.387  0.4874  0.0574  0.0239
    1C        C  650   2.512   3.517   3.513  0.4180  0.1041 -0.2474
    1C        C  651   2.508   3.658   3.509 -0.0599  0.0963  0.0028
    1C        C  652   2.514   3.449   3.637  0.1757  0.0375 -0.2812
    1C        C  653   2.511   3.517   3.761 -0.1834 -0.1826 -0.1709
    1C        C  654   2.541   3.312   3.885  0.5270  0.3971 -0.0231
    1C        C  655   2.518   3.451   3.885  0.4520  0.3837  0.0972
    1C        C  656   2.556   3.242   4.007  0.2082 -0.1340 -0.2880
    1C        C  657   2.544   3.314   4.128  0.0833 -0.1365 -0.2975
    1C        C  658   2.609   3.116   4.253  0.6571  0.6102 -0.0771
    1C        C  659   2.559   3.248   4.252  0.4005  0.5152  0.0192
    1C        C  660   2.644   3.057   4.376  0.8041  0.6446 -0.0996
    1C        C  661   2.601   3.115   4.498  0.2621  0.5027 -0.2213
    1C        C  662   2.710   2.933   4.621  0.1731  0.2048 -0.0535
    1C        C  663   2.636   3.053   4.620 -0.1833 -0.0094 -0.3433
    1C        C  664   2.748   2.871   4.742 -0.0563  0.4151  0.1293
    1C        C  665   2.699   2.930   4.862  0.0436  0.1319  0.3131
    1C        C  666   2.742   2.862   4.976 -0.1189  0.2066  0.4218
    1C        C  667   2.669   4.018   2.047 -0.5674 -0.1768 -0.1555
    1C        C  668   2.676   4.097   2.163 -0.5878  0.2031 -0.4102
    1C        C  669   2.579   3.907   2.287  0.3119  0.3585  0.2056
    1C        C  670   2.637   4.037   2.284  0.5451  0.2528 -0.0007
    1C        C  671   2.552   3.841   2.409  0.1148 -0.1903 -0.1302
    1C        C  672   2.570   3.915   2.528 -0.2247  0.1058 -0.2597
    1C        C  673   2.512   3.713   2.655  0.0168 -0.0437 -0.1746
    1C        C  674   2.548   3.850   2.651 -0.0620 -0.0258 -0.2996
    1C        C  675   2.503   3.643   2.777 -0.0047  0.4832  0.1293
    1C        C  676   2.518   3.715   2.898 -0.2810  0.5840  0.1033
    1C        C  677   2.498   3.509   3.026 -0.6696  0.1330 -0.1381
    1C        C  678   2.505   3.650   3.023 -0.6232  0.1304 -0.1596
    1C        C  679   2.501   3.442   3.150  0.4137  0.2273 -0.1113
    1C        C  680   2.494   3.514   3.272 -0.1457  0.1983 -0.1256
    1C        C  681   2.530   3.304   3.394  0.1532  0.0481 -0.1395
    1C        C  682   2.506   3.443   3.393  0.4434  0.0957 -0.2416
    1C        C  683   2.554   3.240   3.517  0.7366  0.1494 -0.1999
    1C        C  684   2.541   3.310   3.639  0.1978  0.0451 -0.1965
    1C        C  685   2.604   3.111   3.762  0.3872  0.4465 -0.2205
    1C        C  686   2.555   3.244   3.763  0.0445  0.3182 -0.0334
    1C        C  687   2.641   3.050   3.884  0.3500  0.0481 -0.4102
    1C        C  688   2.607   3.110   4.007  0.5950  0.0161 -0.3253
    1C        C  689   2.712   2.932   4.133  0.6796  0.6616 -0.3036
    1C        C  690   2.634   3.049   4.131  0.3545  0.4515 -0.0552
    1C        C  691   2.762   2.883   4.256  0.7492  0.9331 -0.2198
    1C        C  692   2.715   2.935   4.378  0.7720  0.6236 -0.0741
    1C        C  693   2.758   2.878   4.500 -0.3851 -0.2876 -0.0674
    1C        C  694   2.619   3.887   2.050 -1.0627  0.0169  0.1130
    1C        C  695   2.520   3.699   2.170  0.3886 -0.2394 -0.2829
    1C        C  696   2.569   3.831   2.169 -0.0983 -0.0437  0.4927
    1C        C  697   2.501   3.632   2.292 -0.2743 -0.2680 -0.3983
    1C        C  698   2.510   3.707   2.412 -0.2024 -0.0989 -0.5104
    1C        C  699   2.480   3.501   2.540  0.1373  0.2010  0.4196
    1C        C  700   2.489   3.642   2.535  0.0509  0.1854 -0.3185
    1C        C  701   2.484   3.428   2.661 -0.6724  0.2827  0.4947
    1C        C  702   2.497   3.502   2.781 -0.4157  0.5056  0.3286
    1C        C  703   2.513   3.296   2.908  0.7570 -0.0238 -0.2768
    1C        C  704   2.496   3.436   2.905 -0.0836 -0.1220  0.0037
    1C        C  705   2.540   3.230   3.029  0.6893  0.5316  0.0405
    1C        C  706   2.531   3.304   3.149  0.2351  0.1870  0.2177
    1C        C  707   2.597   3.103   3.273  0.4518 -0.1109 -0.2039
    1C        C  708   2.551   3.236   3.272  0.1845 -0.2032  0.0080
    1C        C  709   2.629   3.042   3.397  0.4681  0.0390 -0.1388
    1C        C  710   2.605   3.108   3.519  0.3144 -0.0144 -0.1440
    1C        C  711   2.718   2.932   3.643  0.4196  0.2328 -0.3468
    1C        C  712   2.632   3.044   3.642  0.2677  0.1210 -0.0655
    1C        C  713   2.763   2.877   3.765  0.4297  0.0682 -0.4238
    1C        C  714   2.718   2.931   3.887  0.6649  0.2505 -0.4173
    1C        C  715   2.754   2.873   4.011  0.6610  0.5637 -0.2656
    1C        C  716   2.448   3.492   2.056  0.7232 -0.6552 -0.4499
    1C        C  717   2.472   3.630   2.058 -0.0527 -0.5181  0.0737
    1C        C  718   2.457   3.417   2.178 -0.7585 -0.0033  0.0752
    1C        C  719   2.475   3.492   2.298  0.3023 -0.3563  0.1412
    1C        C  720   2.511   3.286   2.422  0.1796  0.1588 -0.1008
    1C        C  721   2.479   3.424   2.421  0.2445  0.1749  0.4373
    1C        C  722   2.531   3.220   2.545 -0.1473  0.3132  0.0340
    1C        C  723   2.507   3.289   2.665 -0.8037  0.2419 -0.0557
    1C        C  724   2.570   3.087   2.787 -0.3131 -0.1521 -0.0452
    1C        C  725   2.528   3.222   2.788  0.0379 -0.0435 -0.3532
    1C        C  726   2.604   3.026   2.910 -0.1709 -0.1015 -0.0647
    1C        C  727   2.586   3.096   3.031  0.4833  0.4619 -0.2982
    1C        C  728   2.703   2.919   3.153  0.6930  0.3404 -0.3058
    1C        C  729   2.620   3.034   3.152  0.7636  0.3820 -0.4234
    1C        C  730   2.745   2.865   3.276  0.3288  0.2752 -0.2145
    1C        C  731   2.712   2.927   3.398  0.2872 -0.0858 -0.0442
    1C        C  732   2.763   2.878   3.521  0.7901  0.1295 -0.1656
    1C        C  733   2.484   3.192   2.071 -0.6154 -0.0166  0.1347
    1C        C  734   2.480   3.276   2.183 -0.0986  0.1056  0.0604
    1C        C  735   2.575   3.080   2.300 -0.1395 -0.0454  0.1112
    1C        C  736   2.523   3.212   2.302 -0.3601 -0.1307  0.0255
    1C        C  737   2.610   3.019   2.423 -0.2247 -0.2306  0.0441
    1C        C  738   2.580   3.088   2.543  0.0414  0.3884 -0.2443
    1C        C  739   2.687   2.909   2.667  0.0214  0.2412 -0.1014
    1C        C  740   2.606   3.024   2.666  0.7022  0.7206 -0.2072
    1C        C  741   2.734   2.856   2.789  0.3875  0.2526 -0.2407
    1C        C  742   2.690   2.914   2.910  0.3025  0.2711 -0.2872
    1C        C  743   2.736   2.857   3.031  0.0315  0.0084 -0.3158
    1C        C  744   2.537   3.064   2.066 -0.7411 -0.0815  0.4853
    1C        C  745   2.677   2.893   2.182  0.6502  0.3872 -0.3048
    1C        C  746   2.598   3.010   2.180 -0.4501 -0.3299  0.2129
    1C        C  747   2.725   2.838   2.303  0.1715  0.2208 -0.1890
    1C        C  748   2.684   2.899   2.424  0.3012  0.0891 -0.0776
    1C        C  749   2.730   2.848   2.547 -0.2194 -0.1578  0.0165
    1C        C  750   2.738   2.843   2.065  0.1216  0.0658 -0.4466
    1C        C  751   3.657   2.311   1.987 -1.0842 -0.3120 -0.3951
    1C        O  752   3.654   2.196   2.038  0.1337 -0.0183  0.4050
    1C        O  753   3.642   2.319   1.848 -0.3475 -0.2487 -0.4766
    1C        C  754   4.636   3.044   1.990 -0.0465 -0.3775 -0.1214
    1C        O  755   4.623   2.998   1.873 -0.4150 -0.3642 -0.0883
    1C        O  756   4.758   3.002   2.045 -0.3321 -0.8107  0.1889
    1C        C  757   4.444   4.224   1.967  0.4782  0.1695 -0.0153
    1C        O  758   4.500   4.325   2.018  0.1808  0.4654 -0.2661
    1C        O  759   4.416   4.236   1.830  0.0380  0.2658  0.0793
    1C        C  760   3.575   4.645   1.932  0.4518 -0.1297 -0.1476
    1C        O  761   3.646   4.749   1.923  0.5158 -0.1723 -0.1361
    1C        O  762   3.543   4.605   1.802  0.0312 -0.6664  0.1149
    1C        C  763   2.872   4.491   1.948  0.2338 -0.2148 -0.0820
    1C        O  764   2.874   4.456   1.827 -0.3306 -0.1603 -0.1121
    1C        O  765   2.830   4.622   1.971  0.3114 -0.1755 -0.1662
    1C        C  766   2.346   3.464   1.953 -0.2977  0.4326  0.2316
    1C        O  767   2.382   3.423   1.839 -0.1636 -0.0244  0.4379
    1C        O  768   2.210   3.485   1.974 -0.4053  0.6074 -0.6195
    1C        C  769   4.692   3.589   5.051 -0.0281 -0.4203 -0.4996
    1C        O  770   4.655   3.552   5.166  0.2875  0.0371 -0.2517
    1C        O  771   4.801   3.677   5.052 -0.3194 -0.0606 -0.3599
    1C        C  772   4.278   4.456   5.012 -0.1938 -0.5347  0.2263
    1C        O  773   4.298   4.419   5.130  0.0157 -0.5704  0.1798
    1C        O  774   4.394   4.515   4.960 -0.5533 -0.4571 -0.5088
    1C        C  775   4.148   2.507   5.057  0.0483  0.3476 -0.5042
    1C        O  776   4.225   2.417   5.014 -0.3426 -0.3260  0.1648
    1C        O  777   4.160   2.537   5.194  0.3091 -0.2676 -0.3882
    1C        C  778   2.868   4.543   5.040  0.6009 -0.3094  0.3021
    1C        O  779   2.806   4.641   4.991 -0.0139 -0.7623  0.1620
    1C        O  780   2.838   4.534   5.176  0.1224  0.1741  0.2301
    1C        C  781   2.483   3.039   5.087  0.1985 -0.2057  0.2918
    1C        O  782   2.358   3.022   5.081  0.1255  0.3861  0.0976
    1C        O  783   2.515   3.035   5.223 -0.6343 -1.1926  0.4728
    1C        C  784   2.433   3.966   5.070 -0.6253  0.7008  0.2129
    1C        O  785   2.307   3.961   5.067 -0.5927 -0.0385 -0.4090
    1C        O  786   2.470   4.010   5.197 -0.2836  0.0436  0.3479
    1C        C  787   2.942   2.419   2.000  0.7829 -0.7209 -0.0462
    1C        O  788   2.936   2.435   1.875  0.2051  0.6244  0.1299
    1C        O  789   2.843   2.331   2.042 -0.2203  0.1893 -0.4436
    1C        C  790   3.166   2.371   5.066  0.2429  0.2055 -0.1370
    1C        O  791   3.144   2.252   5.029  0.7437  0.0997 -0.1065
    1C        O  792   3.224   2.373   5.193 -0.3982 -0.0958  0.1639
    1C        H  793   4.269   3.027   5.047  0.5802 -0.8509  1.3821
    1C        H  794   4.164   2.814   5.062  0.9627 -0.8422  0.1156
    1C        H  795   4.531   3.121   5.040  0.2372  0.3465  0.8916
    1C        H  796   4.462   3.372   5.051  1.8175  1.7887  0.2302
    1C        H  797   4.533   3.799   5.050  0.0245 -0.7304  0.5111
    1C        H  798   4.418   3.982   5.056 -0.3826 -1.2067 -0.3212
    1C        H  799   4.294   4.174   5.049 -0.1751  0.7684 -0.3087
    1C        H  800   4.025   4.531   5.026  1.0882  2.4973 -1.1571
    1C        H  801   3.811   4.623   5.015  0.5763 -0.5288 -0.8465
    1C        H  802   3.581   4.648   5.024 -1.4991  0.0752 -0.2334
    1C        H  803   3.387   4.496   5.040 -0.2161  1.2642 -0.3525
    1C        H  804   3.151   4.491   5.047 -1.7176 -0.5474 -0.9519
    1C        H  805   3.883   2.482   5.059 -0.1354 -1.3866 -0.7833
    1C        H  806   3.670   2.496   5.070 -1.4036 -0.4511  0.1933
    1C        H  807   3.021   2.585   5.070 -0.2670 -0.1644 -0.0359
    1C        H  808   3.440   2.451   5.072 -1.0957  0.2918 -0.4017
    1C        H  809   2.834   2.698   5.060 -1.1845 -0.5724 -0.8239
    1C        H  810   2.728   2.903   5.074  1.0641  1.1585  0.2171
    1C        H  811   2.493   3.291   5.062  2.8675  2.4754 -0.1993
    1C        H  812   2.573   3.497   5.057 -1.6109 -0.7472  0.7509
    1C        H  813   2.552   3.728   5.061 -1.6203 -0.4547  1.1693
    1C        H  814   2.563   4.191   5.017  0.8483  0.7273 -0.8381
    1C        H  815   2.796   4.278   5.046  0.3996 -0.5219 -0.3127
    1C        H  816   2.681   2.852   1.975  0.2080 -0.4426 -0.5563
    1C        H  817   2.878   2.721   1.976 -0.3168 -1.0072 -0.2903
    1C        H  818   3.200   2.403   1.997  0.6621 -0.3469  0.4861
    1C        H  819   3.421   2.399   1.981  0.9825 -1.0692  0.0682
    1C        H  820   3.856   2.509   1.963  0.2845  1.8389 -0.5452
    1C        H  821   4.063   2.616   1.966  0.6385 -0.2159  0.2388
    1C        H  822   4.259   2.708   1.968 -2.2389  0.9753 -0.9769
    1C        H  823   4.412   2.883   1.967 -1.2106  0.7081 -0.9285
    1C        H  824   4.546   3.304   1.960  1.2673 -0.2164  0.0595
    1C        H  825   4.456   3.504   1.964  0.3296  0.9278 -0.5362
    1C        H  826   4.538   3.742   1.960 -0.6785  0.5878 -0.7655
    1C        H  827   3.804   4.533   1.953  0.4673 -0.6722  0.2953
    1C        H  828   3.979   4.396   1.942  1.3328  0.9348  0.4849
    1C        H  829   4.138   4.221   1.945  1.5172  1.6822 -1.0676
    1C        H  830   4.441   3.940   1.953 -1.4563 -0.1460  0.4718
    1C        H  831   2.652   3.817   1.976  0.5644 -0.1219  0.9324
    1C        H  832   2.753   4.029   1.982 -0.8340 -1.2005 -0.7037
    1C        H  833   2.720   4.296   1.960 -0.0404  0.8265  0.0566
    1C        H  834   3.372   4.469   1.943 -0.5966  3.5434 -0.0525
    1C        H  835   3.143   4.420   1.946  1.0193 -1.4459 -0.6510
    1C        H  836   2.505   3.000   1.987  0.9366  0.8555 -1.0208
    1C        H  837   2.422   3.218   1.987 -0.4842 -0.6477 -0.1668
    1C        H  838   2.445   3.689   1.973 -0.0167  0.5635  0.7993
    2V3OU   H29  839   2.799   3.545   0.649 -1.7108  1.7396 -0.2608
    2V3OU   C27  840   2.783   3.500   0.750  0.0363  0.6730 -0.4193
    2V3OU   H27  841   2.728   3.569   0.819 -1.1325  1.7702 -2.3453
    2V3OU   H28  842   2.738   3.399   0.731 -2.9135  1.6477  0.7548
    2V3OU   O11  843   2.906   3.462   0.812 -0.6171 -0.3908  0.2614
    2V3OU   C15  844   2.915   3.391   0.930  0.3301 -0.7133  0.0049
    2V3OU   C13  845   3.048   3.372   0.971  0.4540  0.0135 -0.0480
    2V3OU   C14  846   3.074   3.265   1.059  0.1228  0.0910  0.1419
    2V3OU   C16  847   2.973   3.192   1.119  0.2041  0.4829  0.7589
    2V3OU    H6  848   2.989   3.104   1.183 -0.2081 -0.9528 -1.0264
    2V3OU   C12  849   3.212   3.221   1.089  0.1363  0.0284 -0.0167
    2V3OU    O2  850   3.239   3.117   1.152  0.6149 -0.2575 -0.6812
    2V3OU   C10  851   3.321   3.297   1.027  0.4479 -0.0651  0.4208
    2V3OU    C8  852   3.454   3.262   1.048  0.4641 -0.2759 -0.0354
    2V3OU   O10  853   3.485   3.148   1.115  0.0261 -0.1518  0.3721
    2V3OU   H26  854   3.396   3.111   1.130 -0.3756  0.6902  0.1513
    2V3OU    C6  855   3.559   3.348   1.003  0.0627  0.0869 -0.2845
    2V3OU    C5  856   3.534   3.465   0.931 -0.3462  0.3611  0.2981
    2V3OU    C4  857   3.697   3.291   1.007  0.0109 -0.0080  0.2985
    2V3OU    H4  858   3.711   3.228   1.100  0.3682  0.5244  0.6059
    2V3OU    H5  859   3.710   3.222   0.918 -0.9166  0.9586 -0.6291
    2V3OU    C2  860   3.811   3.392   1.005  0.0393 -0.0489 -0.4163
    2V3OU    O6  861   3.798   3.469   1.125  0.5409 -0.0862 -0.3344
    2V3OU   H21  862   3.759   3.555   1.103  0.6591  0.1124  0.2306
    2V3OU    C3  863   3.780   3.489   0.890 -0.4026  0.5605  0.2114
    2V3OU    H2  864   3.855   3.572   0.896  0.4344 -0.1965  0.4090
    2V3OU    H3  865   3.784   3.439   0.790 -0.4737  1.1502 -0.0923
    2V3OU   C25  866   3.943   3.317   0.983 -0.0246 -0.2595 -0.0840
    2V3OU    O7  867   3.986   3.281   0.874  0.2262 -0.1248 -0.0318
    2V3OU   C26  868   4.022   3.282   1.108  0.3582  0.0835 -0.2265
    2V3OU   H22  869   4.061   3.378   1.150 -1.1016  0.1499  1.0493
    2V3OU   H23  870   4.115   3.225   1.080 -0.5848 -1.6833  0.0463
    2V3OU    O8  871   3.955   3.200   1.202  0.3408 -0.0202 -0.3286
    2V3OU   H24  872   3.926   3.263   1.270 -0.9015 -1.3876  0.4367
    2V3OU    C1  873   3.646   3.559   0.901 -0.4382  0.4772  0.3220
    2V3OU    H1  874   3.622   3.612   0.803 -1.0627  0.0636  0.2440
    2V3OU    O3  875   3.661   3.655   1.006 -0.0705  0.0398  0.6694
    2V3OU   C19  876   3.610   3.787   0.990  0.2195  0.0766  0.0346
    2V3OU    H9  877   3.517   3.790   0.925  2.9902 -0.0557 -4.3092
    2V3OU    O4  878   3.708   3.845   0.907  0.1419 -0.3629 -0.3639
    2V3OU   C20  879   3.842   3.868   0.952 -0.0330  0.2949 -0.1836
    2V3OU   H10  880   3.884   3.764   0.964 -1.7958 -0.3310  1.1848
    2V3OU   C24  881   3.605   3.854   1.127  0.6255  0.7954 -0.2927
    2V3OU   H16  882   3.541   3.790   1.194  0.9281  0.3094 -0.4623
    2V3OU   H17  883   3.559   3.956   1.119  0.4070  0.8416  1.1294
    2V3OU   C23  884   3.743   3.870   1.191  0.3324  0.3041  0.4780
    2V3OU   H15  885   3.786   3.766   1.208  0.0847 -0.2419 -1.9558
    2V3OU    N1  886   3.728   3.943   1.316 -0.0064  0.2573  0.4659
    2V3OU   H19  887   3.803   3.912   1.374 -0.3410 -1.6800 -0.0759
    2V3OU   H20  888   3.642   3.912   1.356  0.6919 -2.5981 -0.0267
    2V3OU   C21  889   3.841   3.935   1.090 -0.0610  0.0559 -0.0674
    2V3OU   H11  890   3.944   3.916   1.133 -0.0409  0.8975  0.2732
    2V3OU    O5  891   3.826   4.076   1.089 -0.5493  0.0040 -0.1941
    2V3OU   H18  892   3.781   4.093   1.174 -1.0334  1.4416 -0.7029
    2V3OU   C22  893   3.915   3.946   0.844 -0.3412  0.3195 -0.3762
    2V3OU   H12  894   3.870   4.048   0.829  0.6788  0.4340 -3.1725
    2V3OU   H13  895   3.910   3.889   0.748 -0.2642 -0.5469  0.1286
    2V3OU   H14  896   4.023   3.953   0.871 -0.3371 -0.2510 -0.2359
    2V3OU   C11  897   3.157   3.465   0.936  0.5045 -0.3270 -0.8003
    2V3OU    O1  898   3.130   3.583   0.906  0.0967 -0.0073  0.7386
    2V3OU    C9  899   3.295   3.419   0.959  0.3886 -0.1540  0.2863
    2V3OU    C7  900   3.397   3.498   0.907 -0.2548  0.1855 -0.4705
    2V3OU    O9  901   3.379   3.607   0.824  0.6433 -0.0521 -0.9819
    2V3OU   H25  902   3.284   3.623   0.830  0.1526 -1.9334 -2.6226
    2V3OU   C17  903   2.810   3.316   0.987  0.0689 -0.3286  0.0362
    2V3OU    H7  904   2.713   3.345   0.946  0.5710  2.1006  0.4208
    2V3OU   C18  905   2.842   3.219   1.081  0.2316 -0.0299  0.2873
    2V3OU    H8  906   2.761   3.164   1.132  0.5501 -2.0968 -1.3243
    3SOL     OW  907   5.442   4.954   2.215 -0.4971  0.0913  0.4131
    3SOL    HW1  908   5.366   4.957   2.280 -0.9933 -0.3577 -0.1284
    3SOL    HW2  909   5.419   5.009   2.135  0.1055  0.6313  0.6026
    4SOL     OW  910   6.670   2.750   2.075 -0.0170 -0.5937  0.2804
    4SOL    HW1  911   6.590   2.738   2.134  0.0388  0.9469  0.7170
    4SOL    HW2  912   6.705   2.843   2.085  0.7426 -0.6773 -1.2665
    5SOL     OW  913   2.987   3.212   5.895  0.3092  0.6969 -0.0872
    5SOL    HW1  914   2.985   3.259   5.807  0.1371  1.9983  0.5812
    5SOL    HW2  915   3.004   3.114   5.881  2.2471  1.1714 -1.4299
    6SOL     OW  916   4.773   3.774   0.609 -0.2542 -0.7958  0.1921
    6SOL    HW1  917   4.730   3.767   0.699  1.0010  0.4937  0.9290
    6SOL    HW2  918   4.724   3.842   0.554  0.9660  0.9005  1.1411
    7SOL     OW  919   5.638   1.661   3.625 -0.6613 -1.0041  0.1457
    7SOL    HW1  920   5.686   1.624   3.546  0.2328 -0.5405  0.4570
    7SOL    HW2  921   5.604   1.753   3.604 -1.6273 -1.4152 -0.1472
    8SOL     OW  922   2.152   3.766   3.778  0.1971  0.1190  0.1632
    8SOL    HW1  923   2.155   3.671   3.809 -1.2487  0.1079  0.3444
    8SOL    HW2  924   2.125   3.825   3.854 -1.2502  0.3542 -0.5019
    9SOL     OW  925   4.921   4.366   6.722 -0.3082  0.0805 -0.3122
    9SOL    HW1  926   4.983   4.443   6.712  0.7505 -0.6915  0.1628
    9SOL    HW2  927   4.910   4.344   6.819 -0.7143 -0.2780 -0.4342
   10SOL     OW  928   6.086   4.088   1.484  0.3234 -0.3617  0.4716
   10SOL    HW1  929   6.087   4.125   1.577 -2.2291 -2.1260  1.3317
   10SOL    HW2  930   6.180   4.076   1.452  1.2548  2.2266  1.9609
   11SOL     OW  931   2.687   0.824   1.293  0.0887 -1.0929  0.1196
   11SOL    HW1  932   2.617   0.808   1.223  0.5406 -0.7917 -0.4113
   11SOL    HW2  933   2.775   0.842   1.249  0.4047 -1.0021  0.7712
   12SOL     OW  934   4.427   1.166   1.688  0.3456 -0.5681 -0.1198
   12SOL    HW1  935   4.435   1.067   1.702 -0.9324 -0.4991  1.3209
   12SOL    HW2  936   4.331   1.191   1.682  0.5490  0.8477  1.8099
   13SOL     OW  937   4.549   6.366   2.860  0.1170 -0.3288 -0.2891
   13SOL    HW1  938   4.492   6.321   2.791  1.5575 -1.4169 -0.8165
   13SOL    HW2  939   4.573   6.458   2.828 -0.9092 -0.0459 -0.2811
   14SOL     OW  940   2.430   6.812   2.524  1.0980 -0.3372 -0.2286
   14SOL    HW1  941   2.412   6.790   2.428  1.1550  0.2339 -0.3737
   14SOL    HW2  942   2.410   6.908   2.540 -0.7346 -0.8294  0.7799
   15SOL     OW  943   3.080   0.948   6.502  0.2876 -0.2495  0.1615
   15SOL    HW1  944   3.156   1.006   6.531  0.5572 -0.5446  0.0525
   15SOL    HW2  945   3.014   1.003   6.451 -0.4466  0.3937  1.7307
   16SOL     OW  946   5.472   1.579   6.555  0.0540  0.1583  0.1031
   16SOL    HW1  947   5.495   1.674   6.533  0.9857  0.0152  0.4008
   16SOL    HW2  948   5.538   1.518   6.512 -2.1234 -0.5908 -2.4575
   17SOL     OW  949   4.594   4.825   4.297 -0.3657  0.8426 -0.1328
   17SOL    HW1  950   4.688   4.814   4.328  0.4928 -1.2445 -3.0578
   17SOL    HW2  951   4.543   4.741   4.315 -1.4354  1.6073  0.5449
   18SOL     OW  952   0.160   0.884   6.154  0.2814  0.1189 -0.8991
   18SOL    HW1  953   0.177   0.785   6.150  1.1828  0.3039 -2.5559
   18SOL    HW2  954   0.119   0.914   6.067 -0.1880  1.1806 -0.3252
   19SOL     OW  955   7.003   5.363   2.025  0.4473 -0.0682 -0.4376
   19SOL    HW1  956   7.055   5.434   1.977 -0.4714  0.4934 -0.6304
   19SOL    HW2  957   6.932   5.406   2.081  1.0220 -0.7614  0.8587
   20SOL     OW  958   3.058   6.920   5.813  0.1483 -0.5180  0.0559
   20SOL    HW1  959   3.040   6.828   5.845  2.5051 -1.5402 -1.2952
   20SOL    HW2  960   3.079   6.918   5.715  1.4677  1.2710  0.2485
   21SOL     OW  961   2.944   1.993   0.844 -0.2464  0.1309  0.2660
   21SOL    HW1  962   2.953   2.092   0.830  1.8301 -0.2611 -1.8273
   21SOL    HW2  963   2.881   1.956   0.775  0.1961 -0.1769  0.0194
   22SOL     OW  964   0.100   0.614   4.949  0.7879 -0.2983  0.2557
   22SOL    HW1  965   0.172   0.684   4.943  0.7187 -0.1726  0.8372
   22SOL    HW2  966   0.128   0.534   4.895  0.6442  0.3536 -0.8229
   23SOL     OW  967   3.635   6.782   4.688  0.0068 -0.5093  0.4079
   23SOL    HW1  968   3.649   6.852   4.617 -4.4317  1.2131  0.8980
   23SOL    HW2  969   3.646   6.691   4.648 -0.4003  0.4084 -1.9681
   24SOL     OW  970   5.310   2.169   3.976 -0.6344 -0.1660 -0.1458
   24SOL    HW1  971   5.258   2.249   3.946 -1.2893 -0.1136  1.0871
   24SOL    HW2  972   5.346   2.185   4.067 -0.4521 -1.1300 -0.0424
   25SOL     OW  973   1.188   4.649   6.483 -0.1365 -0.2375  0.1172
   25SOL    HW1  974   1.159   4.599   6.402 -0.5236  0.1460  0.0154
   25SOL    HW2  975   1.270   4.703   6.462 -0.5578  0.2906 -0.1720
   26SOL     OW  976   5.395   0.416   1.599  0.2961  0.4836  0.0863
   26SOL    HW1  977   5.476   0.375   1.641 -0.1196  0.5123  0.9486
   26SOL    HW2  978   5.401   0.409   1.500  0.8483 -0.4748  0.1789
   27SOL     OW  979   5.633   5.176   1.919 -0.2335 -0.4214  0.2240
   27SOL    HW1  980   5.719   5.225   1.905 -1.2483  0.6417 -3.5328
   27SOL    HW2  981   5.623   5.106   1.848 -3.9637  1.9395 -1.9110
   28SOL     OW  982   3.996   1.279   6.705  0.6433 -0.5286 -0.1118
   28SOL    HW1  983   4.040   1.337   6.637  1.2137 -1.8582 -0.9059
   28SOL    HW2  984   3.902   1.260   6.677  0.1895  0.6438  0.5578
   29SOL     OW  985   5.490   2.976   2.078  0.4805 -0.6390 -0.4598
   29SOL    HW1  986   5.590   2.975   2.082  0.5282  1.6965  0.0127
   29SOL    HW2  987   5.456   3.068   2.098 -1.8202 -1.5514  0.1759
   30SOL     OW  988   4.468   1.844   5.240 -0.4027  0.4358  0.0894
   30SOL    HW1  989   4.513   1.883   5.320 -1.3130  2.0336 -0.1354
   30SOL    HW2  990   4.391   1.787   5.270  1.1603 -1.5843  0.4353
   31SOL     OW  991   2.845   1.023   4.758 -0.4743 -0.1157 -0.0800
   31SOL    HW1  992   2.874   1.102   4.706  0.2538 -1.3163 -1.5758
   31SOL    HW2  993   2.920   0.957   4.764 -0.6373 -0.1858  2.2150
   32SOL     OW  994   6.858   1.034   0.733  0.4147  0.4004 -0.1939
   32SOL    HW1  995   6.928   1.099   0.704  0.7692  0.1270  0.0419
   32SOL    HW2  996   6.901   0.959   0.783  0.1762 -0.6707 -1.5459
   33SOL     OW  997   1.734   1.266   4.907 -0.1991 -0.6696 -0.3761
   33SOL    HW1  998   1.635   1.274   4.905 -0.1297  0.2589 -0.3280
   33SOL    HW2  999   1.771   1.282   4.816  0.0162  0.6220 -0.0766
   34SOL     OW 1000   1.301   6.387   4.522 -0.5917  0.1539 -0.3321
   34SOL    HW1 1001   1.250   6.465   4.557  0.2362  0.0270  1.2070
   34SOL    HW2 1002   1.241   6.332   4.464 -1.8939  0.5904  0.5579
   35SOL     OW 1003   4.408   1.616   4.613 -0.0557 -0.1154 -0.0730
   35SOL    HW1 1004   4.496   1.657   4.587  0.8534 -1.6928  0.3459
   35SOL    HW2 1005   4.358   1.590   4.531 -0.5745  1.6048 -0.3399
   36SOL     OW 1006   6.039   1.689   5.775  0.4590 -0.1275 -0.4169
   36SOL    HW1 1007   6.126   1.725   5.808  0.6728 -0.5402 -0.5284
   36SOL    HW2 1008   6.011   1.612   5.832 -0.2775  0.5570  0.1722
   37SOL     OW 1009   4.221   6.452   1.516  0.8502  0.1618 -0.2168
   37SOL    HW1 1010   4.124   6.480   1.518 -0.1182 -2.9304  0.4028
   37SOL    HW2 1011   4.274   6.523   1.470 -1.3614  2.8408  1.0283
   38SOL     OW 1012   0.156   5.535   3.040 -0.2165 -0.9456 -0.6780
   38SOL    HW1 1013   0.163   5.568   3.134 -2.4871 -4.0289  0.7723
   38SOL    HW2 1014   0.107   5.601   2.984 -0.0646  0.3251  0.6516
   39SOL     OW 1015   0.215   2.381   6.382  0.1933 -0.1315  0.1162
   39SOL    HW1 1016   0.303   2.357   6.343  0.3436  0.9381 -0.2483
   39SOL    HW2 1017   0.220   2.473   6.421  0.1020 -1.1678  2.8118
   40SOL     OW 1018   1.159   2.023   2.747  0.0827 -0.2338  0.2105
   40SOL    HW1 1019   1.173   2.121   2.762  2.1967 -0.1661 -1.7182
   40SOL    HW2 1020   1.196   1.972   2.824  2.8461  0.3941 -0.6009
   41SOL     OW 1021   1.691   2.466   6.146 -0.6142 -0.1011 -0.2474
   41SOL    HW1 1022   1.785   2.493   6.122 -1.0876  0.5878 -1.4488
   41SOL    HW2 1023   1.692   2.379   6.195  0.6606 -0.0397 -0.1354
   42SOL     OW 1024   2.582   6.629   6.653 -0.0444  0.0779 -0.1616
   42SOL    HW1 1025   2.667   6.614   6.703  0.6286 -0.2788 -1.3706
   42SOL    HW2 1026   2.523   6.690   6.705  1.4805  1.3614  0.1308
   43SOL     OW 1027   5.671   3.213   5.811  0.6396  0.3064 -0.2715
   43SOL    HW1 1028   5.594   3.249   5.759 -0.8432 -2.1304  0.0762
   43SOL    HW2 1029   5.685   3.117   5.788  0.8951 -0.4604  2.6132
   44SOL     OW 1030   2.842   4.181   0.662  0.1715 -0.1780  0.0063
   44SOL    HW1 1031   2.852   4.170   0.563 -0.1619  0.6178 -0.1257
   44SOL    HW2 1032   2.849   4.092   0.706 -0.3971 -0.6422 -0.8046
   45SOL     OW 1033   2.812   6.739   0.929  0.2617 -0.5327  0.1771
   45SOL    HW1 1034   2.862   6.658   0.960 -0.3268 -2.2108 -2.8007
   45SOL    HW2 1035   2.869   6.820   0.942  2.8893 -2.0472 -0.9586
   46SOL     OW 1036   1.415   6.244   4.241  0.3273  0.2907  0.9513
   46SOL    HW1 1037   1.317   6.252   4.256  0.0673 -1.0006  0.1021
   46SOL    HW2 1038   1.464   6.297   4.311 -0.9579  0.9874  1.3510
   47SOL     OW 1039   7.003   4.744   0.861  0.1549  0.0419  0.6237
   47SOL    HW1 1040   7.024   4.730   0.958  0.3687 -2.0815  0.3256
   47SOL    HW2 1041   7.045   4.671   0.807 -0.1978  1.0253 -1.0547
   48SOL     OW 1042   0.250   1.446   3.799 -0.0025  0.3040 -0.7526
   48SOL    HW1 1043   0.313   1.489   3.864  0.9107  0.0280 -1.4438
   48SOL    HW2 1044   0.218   1.359   3.838  0.8942 -0.0813 -0.8447
   49SOL     OW 1045   6.779   3.135   6.366  0.3015  0.3529 -0.4729
   49SOL    HW1 1046   6.877   3.153   6.364  0.2888  0.3940 -0.7654
   49SOL    HW2 1047   6.760   3.050   6.317  0.5100 -1.1688  1.9239
   50SOL     OW 1048   0.741   2.700   3.839  0.8892 -0.0015  0.0890
   50SOL    HW1 1049   0.659   2.756   3.854 -1.3643 -3.2142  1.0940
   50SOL    HW2 1050   0.793   2.694   3.925 -0.6915 -1.8925  1.0144
   51SOL     OW 1051   4.433   6.964   1.594  0.1150 -0.4527 -0.0809
   51SOL    HW1 1052   4.492   6.991   1.670  0.5737 -2.4947  0.3296
   51SOL    HW2 1053   4.337   6.973   1.622  0.2734 -0.7104  0.5644
   52SOL     OW 1054   1.010   4.273   2.345  0.1718  0.0263  1.2065
   52SOL    HW1 1055   1.014   4.222   2.430 -0.8833 -0.4262  1.0018
   52SOL    HW2 1056   0.965   4.361   2.361 -0.6656 -0.3461  1.0109
   53SOL     OW 1057   6.229   6.103   4.337  0.9110  0.0064 -0.2344
   53SOL    HW1 1058   6.291   6.060   4.402 -1.1157 -3.7898 -0.5400
   53SOL    HW2 1059   6.161   6.157   4.386  1.3372 -0.1289  0.5085
   54SOL     OW 1060   5.137   4.504   5.032  0.1753 -0.1107  0.0186
   54SOL    HW1 1061   5.059   4.464   5.079 -1.6733  2.6014 -0.4916
   54SOL    HW2 1062   5.216   4.443   5.040 -1.2027 -1.7178  2.8792
   55SOL     OW 1063   4.817   1.122   1.980 -0.2717 -0.1725 -0.3641
   55SOL    HW1 1064   4.782   1.165   1.896 -0.8310 -2.9248 -1.6411
   55SOL    HW2 1065   4.876   1.188   2.028 -1.1255  2.0061 -2.0994
   56SOL     OW 1066   6.290   0.242   3.147 -0.4008  0.4037  0.2763
   56SOL    HW1 1067   6.357   0.298   3.098 -0.2821  0.2706  0.2880
   56SOL    HW2 1068   6.317   0.146   3.143 -0.6280  0.3412  0.2193
   57SOL     OW 1069   4.194   0.547   1.995  0.1964 -0.5802  0.4086
   57SOL    HW1 1070   4.115   0.498   2.032 -0.3829 -1.0309 -1.3116
   57SOL    HW2 1071   4.165   0.636   1.960  1.1479  0.8424  3.0158
   58SOL     OW 1072   6.676   1.556   5.053  0.1380  0.5509 -0.8046
   58SOL    HW1 1073   6.608   1.586   5.120 -0.1590  0.1828 -0.9400
   58SOL    HW2 1074   6.694   1.458   5.064 -0.6341  0.2692 -1.8902
   59SOL     OW 1075   1.136   6.654   5.300  0.1550  0.0209 -0.6493
   59SOL    HW1 1076   1.110   6.603   5.218 -0.1379  0.3726 -0.7764
   59SOL    HW2 1077   1.198   6.598   5.355 -0.9784 -0.9154 -0.2697
   60SOL     OW 1078   3.954   0.215   4.380 -0.1328  0.2769  0.2280
   60SOL    HW1 1079   3.886   0.143   4.389 -0.6537  0.9569  2.3366
   60SOL    HW2 1080   3.986   0.219   4.286  0.9636 -3.6346  0.2474
   61SOL     OW 1081   2.585   0.279   6.109 -0.0992  0.3627  0.5126
   61SOL    HW1 1082   2.632   0.243   6.189 -1.9323 -0.8527  1.0929
   61SOL    HW2 1083   2.490   0.249   6.109 -0.0420 -0.1267 -2.4148
   62SOL     OW 1084   2.911   1.932   4.980  0.2879 -0.1855 -0.2975
   62SOL    HW1 1085   2.822   1.888   4.970  0.8143 -1.7242  1.2920
   62SOL    HW2 1086   2.983   1.869   4.951  0.9310  0.6473 -0.5530
   63SOL     OW 1087   5.628   2.963   4.904 -0.0239 -0.3182  0.2101
   63SOL    HW1 1088   5.598   3.058   4.914 -0.0472 -0.2440 -0.5153
   63SOL    HW2 1089   5.719   2.961   4.863  0.6379 -0.5703  1.6417
   64SOL     OW 1090   6.328   0.199   3.754 -0.4864  0.2348  0.2134
   64SOL    HW1 1091   6.365   0.238   3.839 -1.6313  0.6444  0.5396
   64SOL    HW2 1092   6.402   0.190   3.687  0.1198  1.5261  0.6653
   65SOL     OW 1093   0.480   4.599   4.562  0.0160 -0.7138 -0.4345
   65SOL    HW1 1094   0.383   4.612   4.545  0.0453 -0.8043 -0.6727
   65SOL    HW2 1095   0.514   4.674   4.618 -0.2088 -0.7256 -0.2840
   66SOL     OW 1096   2.458   6.312   6.555 -0.8147  0.1611 -0.0106
   66SOL    HW1 1097   2.420   6.313   6.648  0.2199 -0.3130  0.4408
   66SOL    HW2 1098   2.384   6.320   6.488 -1.7494 -1.1191  0.8225
   67SOL     OW 1099   4.030   4.376   5.800  0.6737 -0.3333  0.0297
   67SOL    HW1 1100   4.101   4.367   5.870 -1.7478 -0.3444  2.6487
   67SOL    HW2 1101   3.982   4.289   5.790  0.2099  0.0100 -0.8129
   68SOL     OW 1102   5.939   0.793   0.045  0.0568 -0.1917 -0.3477
   68SOL    HW1 1103   5.952   0.880   0.091 -0.8950  0.7189 -1.7255
   68SOL    HW2 1104   6.027   0.748   0.034  0.6225  0.8069 -0.0269
   69SOL     OW 1105   4.040   3.219   4.612 -0.7428 -0.3109 -0.6493
   69SOL    HW1 1106   4.090   3.133   4.619  1.3678  0.9104  0.0489
   69SOL    HW2 1107   3.947   3.206   4.646 -0.3721 -2.2127 -0.2350
   70SOL     OW 1108   1.106   1.937   3.118 -0.4902 -0.0282 -0.1867
   70SOL    HW1 1109   1.051   1.867   3.073  1.2361 -2.6855  1.5270
   70SOL    HW2 1110   1.089   1.936   3.216  1.2143  0.3159  0.1578
   71SOL     OW 1111   2.025   5.141   1.545  0.1484  0.3778  0.6684
   71SOL    HW1 1112   2.046   5.077   1.618 -0.0518 -1.3610 -0.7372
   71SOL    HW2 1113   2.079   5.118   1.463 -1.9577  0.2089 -0.7562
   72SOL     OW 1114   1.774   4.764   3.958  0.1234  0.2053 -0.5008
   72SOL    HW1 1115   1.815   4.792   4.045  0.8205 -0.6498 -0.5420
   72SOL    HW2 1116   1.834   4.699   3.912 -0.6057  0.0519 -1.2667
   73SOL     OW 1117   4.083   3.416   6.183 -0.3070  0.8526  0.0647
   73SOL    HW1 1118   4.176   3.382   6.175 -0.6986 -1.1626  2.5939
   73SOL    HW2 1119   4.023   3.369   6.118  0.3434  2.0480 -1.4612
   74SOL     OW 1120   3.393   6.595   6.831  0.0816  0.1782  0.2900
   74SOL    HW1 1121   3.456   6.517   6.833 -0.1395 -0.0503 -0.8302
   74SOL    HW2 1122   3.299   6.561   6.824  0.0470  0.5180 -1.3762
   75SOL     OW 1123   3.998   4.849   5.054  0.5263  0.6812 -0.2090
   75SOL    HW1 1124   4.034   4.848   5.147 -1.0951  0.1251  0.4579
   75SOL    HW2 1125   3.899   4.860   5.057  0.4678  0.8510 -1.8892
   76SOL     OW 1126   2.419   3.092   0.998 -0.0294  0.7884 -0.3390
   76SOL    HW1 1127   2.481   3.059   1.070  1.6584  1.1984 -1.5322
   76SOL    HW2 1128   2.354   3.021   0.974 -1.3651  0.9757  2.2852
   77SOL     OW 1129   4.438   5.157   6.767 -0.2776  0.2327  0.2051
   77SOL    HW1 1130   4.522   5.127   6.722  0.0635  2.3231 -0.6299
   77SOL    HW2 1131   4.359   5.116   6.721  0.2132 -0.6986  0.1672
   78SOL     OW 1132   5.154   5.717   6.362 -0.3102  0.0294  0.1986
   78SOL    HW1 1133   5.109   5.804   6.343 -1.2364 -0.0512  1.8220
   78SOL    HW2 1134   5.105   5.643   6.317 -0.0205  0.2540 -0.4917
   79SOL     OW 1135   2.669   6.787   0.699 -0.1779  0.9218 -0.2094
   79SOL    HW1 1136   2.714   6.762   0.785  0.0188  1.8238 -0.0399
   79SOL    HW2 1137   2.603   6.859   0.716 -2.8815 -1.3883 -0.1714
   80SOL     OW 1138   1.264   1.672   5.633  0.0922 -0.3426  0.6517
   80SOL    HW1 1139   1.273   1.574   5.612  2.6729  0.0762 -0.6734
   80SOL    HW2 1140   1.344   1.702   5.685  1.1306  1.6514 -1.8523
   81SOL     OW 1141   0.110   5.002   3.797  0.1793  0.6909  0.4209
   81SOL    HW1 1142   0.030   5.003   3.858  0.7008 -0.2912  1.1446
   81SOL    HW2 1143   0.089   4.945   3.717  0.0229  0.7336  0.4310
   82SOL     OW 1144   5.942   4.991   0.088 -0.2057 -0.3291 -0.5714
   82SOL    HW1 1145   5.877   4.955   0.022 -1.2230 -0.9467  0.7196
   82SOL    HW2 1146   5.904   5.074   0.130  0.1594 -0.2880 -0.3154
   83SOL     OW 1147   4.852   0.327   5.905 -0.3573  0.3221  0.4028
   83SOL    HW1 1148   4.821   0.328   6.000  1.9112 -0.7150  1.2379
   83SOL    HW2 1149   4.921   0.397   5.891 -0.8028  0.5888 -0.5504
   84SOL     OW 1150   1.530   1.983   3.008  0.4105 -0.1973 -0.4082
   84SOL    HW1 1151   1.607   1.976   2.945  0.3132  1.3467 -0.7567
   84SOL    HW2 1152   1.560   1.963   3.101  1.5860  1.6107 -0.3331
   85SOL     OW 1153   0.018   1.926   4.618  0.0834  0.1972  0.3408
   85SOL    HW1 1154   0.059   1.947   4.706 -0.2630 -0.3555  0.6411
   85SOL    HW2 1155  -0.078   1.903   4.630  0.1202 -0.2313 -0.1310
   86SOL     OW 1156   3.875   6.561   3.876  0.1668  0.0076  0.3043
   86SOL    HW1 1157   3.911   6.654   3.871  0.3412 -0.1111 -0.9366
   86SOL    HW2 1158   3.801   6.557   3.942  0.2432  1.0013  0.4551
   87SOL     OW 1159   3.092   0.311   1.326  0.2705 -0.1062  0.7049
   87SOL    HW1 1160   3.041   0.226   1.340 -0.1659 -0.3294 -1.8044
   87SOL    HW2 1161   3.141   0.306   1.239  0.7732  1.9668  0.8309
   88SOL     OW 1162   5.131   1.790   1.730 -0.4821  0.3375 -0.3066
   88SOL    HW1 1163   5.083   1.869   1.769 -1.1020  0.2815 -0.9480
   88SOL    HW2 1164   5.200   1.821   1.664  0.1143  0.3951  0.3243
   89SOL     OW 1165   3.046   1.428   4.742  0.1191  0.2689  0.3834
   89SOL    HW1 1166   3.112   1.495   4.708  1.2685 -0.3264  1.3760
   89SOL    HW2 1167   3.081   1.385   4.825 -0.2262 -2.1053 -0.5982
   90SOL     OW 1168   1.010   5.647   4.465 -0.0808  0.5986 -0.6380
   90SOL    HW1 1169   1.053   5.689   4.385 -0.9552 -1.4696 -2.2774
   90SOL    HW2 1170   1.082   5.612   4.526  0.5904  0.8594 -1.2580
   91SOL     OW 1171   0.466   6.936   2.961  0.3466  0.2153  0.0268
   91SOL    HW1 1172   0.543   6.986   2.921 -0.5363  2.9067  1.4396
   91SOL    HW2 1173   0.384   6.951   2.907  0.1075  0.1711  0.3706
   92SOL     OW 1174   2.035   0.205   2.415  0.1588  0.1603 -0.0379
   92SOL    HW1 1175   1.974   0.151   2.357 -0.6296 -0.3998  1.2499
   92SOL    HW2 1176   1.981   0.261   2.478  0.9849  1.1287 -0.1568
   93SOL     OW 1177   4.112   4.866   4.803  0.0124  0.0880  0.1743
   93SOL    HW1 1178   4.115   4.966   4.807  2.5501  0.0508  0.9383
   93SOL    HW2 1179   4.062   4.831   4.882  1.8596  0.7473  1.7241
   94SOL     OW 1180   2.068   5.863   3.510  0.1856  0.4705  0.2664
   94SOL    HW1 1181   2.137   5.820   3.451  0.9578  0.4028  1.1881
   94SOL    HW2 1182   2.050   5.956   3.478  0.3240  0.3140 -0.2834
   95SOL     OW 1183   1.167   6.925   5.333  0.2926  0.1038 -0.2050
   95SOL    HW1 1184   1.126   6.834   5.332  0.3278  0.0818  0.1470
   95SOL    HW2 1185   1.101   6.992   5.298  0.2065 -0.0297 -0.2996
   96SOL     OW 1186   2.895   6.285   4.231 -0.4917  0.5161 -0.0253
   96SOL    HW1 1187   2.896   6.254   4.136  2.6962  0.4867 -0.1016
   96SOL    HW2 1188   2.887   6.206   4.292  2.0839 -0.0606 -0.2991
   97SOL     OW 1189   6.893   2.138   4.318 -0.0326  0.0828  0.3092
   97SOL    HW1 1190   6.986   2.104   4.331 -0.4275 -0.7716  0.9912
   97SOL    HW2 1191   6.878   2.156   4.221  0.4417 -0.9926  0.0229
   98SOL     OW 1192   3.503   6.725   5.936  0.0979 -0.0987  0.0852
   98SOL    HW1 1193   3.550   6.764   5.857 -0.4172 -2.1203 -1.3089
   98SOL    HW2 1194   3.406   6.749   5.932  0.4247  1.5769  1.3237
   99SOL     OW 1195   3.963   0.579   0.481 -0.2389  0.4784  0.3575
   99SOL    HW1 1196   3.978   0.667   0.527 -0.3605  0.3495  0.6397
   99SOL    HW2 1197   3.883   0.534   0.519  0.1635 -0.0239  0.6151
  100SOL     OW 1198   5.836   6.329   5.726  0.1955 -0.4985 -0.8154
  100SOL    HW1 1199   5.877   6.246   5.761  0.9372  0.1990  0.0123
  100SOL    HW2 1200   5.757   6.354   5.783 -1.5197 -1.8718 -2.4375
  101SOL     OW 1201   2.311   5.870   3.007  0.3846 -0.3446 -0.2595
  101SOL    HW1 1202   2.236   5.852   3.071 -0.1975  0.3411 -0.7328
  101SOL    HW2 1203   2.278   5.855   2.913  1.2427 -1.3952 -0.4039
  102SOL     OW 1204   3.258   4.810   6.075  0.1838 -0.8555  0.6679
  102SOL    HW1 1205   3.337   4.763   6.114  0.8727 -1.1132 -0.9685
  102SOL    HW2 1206   3.287   4.865   5.997 -1.4195 -2.1408 -0.9308
  103SOL     OW 1207   4.182   1.173   4.141 -0.1664  0.2994  0.5315
  103SOL    HW1 1208   4.185   1.205   4.046 -1.6073 -0.2057  0.3002
  103SOL    HW2 1209   4.243   1.230   4.196 -1.3066  2.3665 -0.1936
  104SOL     OW 1210   0.564   0.447   1.860  0.2131  0.3075  0.1766
  104SOL    HW1 1211   0.610   0.417   1.777 -0.9659  2.4769 -1.3733
  104SOL    HW2 1212   0.483   0.501   1.836 -0.7629  0.1750  2.7631
  105SOL     OW 1213   5.236   6.891   6.714 -0.0216  0.6470 -0.3369
  105SOL    HW1 1214   5.218   6.983   6.750 -1.3882  0.5534 -0.7121
  105SOL    HW2 1215   5.185   6.879   6.629 -1.9933 -1.3399  1.0211
  106SOL     OW 1216   2.545   6.458   0.421 -0.3181  0.3008  0.4073
  106SOL    HW1 1217   2.502   6.548   0.405 -0.3437  0.3879  0.9678
  106SOL    HW2 1218   2.541   6.436   0.518  2.2733  0.9934  0.7313
  107SOL     OW 1219   2.786   5.296   0.276  0.0131  0.1536  0.3972
  107SOL    HW1 1220   2.863   5.340   0.321 -0.0931 -0.3215  1.0540
  107SOL    HW2 1221   2.770   5.340   0.188  0.3903  0.9229  0.7003
  108SOL     OW 1222   4.974   4.224   5.818  0.2449  0.4844 -0.3483
  108SOL    HW1 1223   5.019   4.167   5.750  0.0514  0.2710 -0.2985
  108SOL    HW2 1224   4.913   4.168   5.874  0.0811  0.7331 -0.2742
  109SOL     OW 1225   0.170   1.522   4.238  0.3099  0.1244  0.4170
  109SOL    HW1 1226   0.071   1.510   4.240  0.2065  0.6827 -0.6048
  109SOL    HW2 1227   0.215   1.433   4.239 -0.2207 -0.1468  0.2255
  110SOL     OW 1228   3.837   0.127   5.057 -0.4800  0.2436 -0.0829
  110SOL    HW1 1229   3.756   0.186   5.059 -0.6312  0.1334 -1.6517
  110SOL    HW2 1230   3.918   0.181   5.036 -0.4670  0.0666 -0.5141
  111SOL     OW 1231   2.450   1.680   3.177  0.1288  0.6497  0.2271
  111SOL    HW1 1232   2.398   1.751   3.225  0.9818  1.7177 -0.3584
  111SOL    HW2 1233   2.473   1.712   3.085  0.1508 -0.5842 -0.2085
  112SOL     OW 1234   1.810   2.830   6.362 -0.4227  0.1412  0.0721
  112SOL    HW1 1235   1.736   2.764   6.377  0.1711 -0.6937 -0.5771
  112SOL    HW2 1236   1.774   2.909   6.313 -1.2953  0.6463  1.4733
  113SOL     OW 1237   0.351   5.018   4.037 -0.2354  0.0013  0.0913
  113SOL    HW1 1238   0.446   5.041   4.057 -0.0152 -0.1276 -0.7587
  113SOL    HW2 1239   0.327   5.051   3.945 -1.1117  0.3239  0.4248
  114SOL     OW 1240   0.887   4.576   5.478 -0.2519 -0.5805 -0.6504
  114SOL    HW1 1241   0.888   4.651   5.412  1.1825 -1.6125 -1.8733
  114SOL    HW2 1242   0.795   4.568   5.518 -0.7614  0.9987 -1.4219
  115SOL     OW 1243   7.002   1.228   4.610 -0.0387  0.0977  0.6359
  115SOL    HW1 1244   7.021   1.265   4.519 -0.4017  1.5501  1.1216
  115SOL    HW2 1245   7.078   1.248   4.671 -1.2331  2.2525  1.5181
  116SOL     OW 1246   6.819   5.932   3.095 -0.0731  0.1283 -0.2139
  116SOL    HW1 1247   6.848   6.022   3.063 -0.6379  0.9542  1.4793
  116SOL    HW2 1248   6.732   5.940   3.145  0.4562 -1.1475  0.9942
  117SOL     OW 1249   0.581   4.824   5.952 -0.2916  0.0518  0.6848
  117SOL    HW1 1250   0.504   4.874   5.992  0.8551  1.2041  1.5603
  117SOL    HW2 1251   0.616   4.757   6.018  0.7350  0.9853  1.1188
  118SOL     OW 1252   1.857   1.368   3.912  0.3148  0.6372 -0.2979
  118SOL    HW1 1253   1.809   1.438   3.859 -0.9561 -0.8502 -1.2112
  118SOL    HW2 1254   1.873   1.288   3.853 -0.1238 -0.6412  1.2563
  119SOL     OW 1255   4.981   1.100   6.770 -0.1577  0.3130  0.1345
  119SOL    HW1 1256   5.026   1.182   6.735  0.0936  0.9221  1.7970
  119SOL    HW2 1257   5.047   1.025   6.775  0.6058  1.0495  2.0337
  120SOL     OW 1258   5.847   5.310   1.828 -0.3766  0.3087 -0.1610
  120SOL    HW1 1259   5.811   5.389   1.779 -1.5129 -1.0326 -1.5990
  120SOL    HW2 1260   5.937   5.332   1.866 -0.4261  2.0950 -0.9787
  121SOL     OW 1261   3.162   3.379   6.228  0.3136 -0.3694  0.3766
  121SOL    HW1 1262   3.196   3.286   6.240 -0.9031 -1.2438 -2.2905
  121SOL    HW2 1263   3.237   3.438   6.196  0.4028 -1.2406 -1.1023
  122SOL     OW 1264   1.779   4.453   3.962  0.1706 -0.0278 -0.0064
  122SOL    HW1 1265   1.681   4.437   3.975 -0.0187  0.0514 -1.1895
  122SOL    HW2 1266   1.809   4.405   3.879  0.6539  1.6863 -0.8600
  123SOL     OW 1267   5.898   2.790   1.693 -0.2167 -0.0941 -0.2529
  123SOL    HW1 1268   5.976   2.728   1.702 -1.0670 -1.3004 -0.9937
  123SOL    HW2 1269   5.817   2.738   1.668 -1.2795  1.1504  0.5338
  124SOL     OW 1270   5.662   0.882   2.780  0.0748 -0.0971  0.1811
  124SOL    HW1 1271   5.703   0.943   2.849  2.3693 -0.8018 -0.4757
  124SOL    HW2 1272   5.643   0.793   2.821  0.4028 -0.1723  0.1679
  125SOL     OW 1273   1.775   2.111   1.882 -0.0520 -0.5857 -0.1992
  125SOL    HW1 1274   1.832   2.056   1.943 -1.1277 -1.4927  0.0081
  125SOL    HW2 1275   1.723   2.051   1.822 -2.3481  0.1057  0.9962
  126SOL     OW 1276   4.582   4.123   6.519  0.1181  0.0916  0.3276
  126SOL    HW1 1277   4.584   4.074   6.432 -1.7322  2.8496 -1.4276
  126SOL    HW2 1278   4.628   4.211   6.509 -1.4304  1.1114  1.6811
  127SOL     OW 1279   0.922   4.112   5.466 -0.0171 -0.1180  0.1251
  127SOL    HW1 1280   0.946   4.025   5.511  3.6765  1.0258  0.6702
  127SOL    HW2 1281   0.933   4.187   5.531  0.2064  1.0932 -1.2699
  128SOL     OW 1282   2.602   2.427   2.000 -0.3116  0.5989 -0.0315
  128SOL    HW1 1283   2.557   2.430   2.089  0.8707  1.2145  0.5788
  128SOL    HW2 1284   2.698   2.400   2.012 -0.2457  0.2908 -1.1630
  129SOL     OW 1285   3.674   4.764   0.477  0.4678 -0.1241  0.4764
  129SOL    HW1 1286   3.748   4.730   0.420 -1.5707 -0.7389 -1.9560
  129SOL    HW2 1287   3.627   4.686   0.520  0.0320  0.1088  0.4258
  130SOL     OW 1288   3.294   1.805   4.221  0.7270  0.6426 -0.0688
  130SOL    HW1 1289   3.221   1.850   4.273 -2.4515 -1.7710 -2.0833
  130SOL    HW2 1290   3.291   1.837   4.126  1.2741 -0.6099 -0.5202
  131SOL     OW 1291   6.760   2.439   1.439 -0.2474 -0.8758 -0.1489
  131SOL    HW1 1292   6.666   2.424   1.471 -0.4898 -0.9144 -0.8613
  131SOL    HW2 1293   6.816   2.359   1.462 -0.3603 -0.8158  0.3572
  132SOL     OW 1294   1.606   1.220   1.926 -0.1154 -0.2080 -0.1319
  132SOL    HW1 1295   1.523   1.258   1.884 -0.4109  0.4733  1.0258
  132SOL    HW2 1296   1.674   1.202   1.855 -0.5787  0.9528 -0.9051
  133SOL     OW 1297   6.006   5.793   2.973  0.4271  0.3754 -0.0645
  133SOL    HW1 1298   5.934   5.859   2.995  1.3021  1.3773 -0.1216
  133SOL    HW2 1299   5.964   5.708   2.939 -0.7582  0.4829  1.0308
  134SOL     OW 1300   0.372   4.266   4.759  0.4933 -0.0918 -0.1931
  134SOL    HW1 1301   0.318   4.343   4.793 -2.9070 -2.4970  0.4875
  134SOL    HW2 1302   0.440   4.240   4.827  1.1007  1.6892 -0.0618
  135SOL     OW 1303   5.590   2.053   4.082  0.3908  0.4270  0.0462
  135SOL    HW1 1304   5.518   2.103   4.130 -0.8227 -0.8022 -0.4195
  135SOL    HW2 1305   5.596   1.960   4.118 -0.6928 -0.6043 -2.2127
  136SOL     OW 1306   3.104   5.083   5.514  0.6038  0.0670 -0.1177
  136SOL    HW1 1307   3.109   5.151   5.588 -1.0578 -0.7311  0.7644
  136SOL    HW2 1308   3.124   5.128   5.427  0.5529  1.4610  0.5606
  137SOL     OW 1309   3.861   0.323   5.526 -0.5087 -0.4094 -0.1908
  137SOL    HW1 1310   3.924   0.262   5.479  0.0034  0.9628 -1.3573
  137SOL    HW2 1311   3.889   0.418   5.512 -2.3349  0.2129 -0.0149
  138SOL     OW 1312   5.288   5.776   4.380 -0.0658 -0.4253 -0.7793
  138SOL    HW1 1313   5.339   5.700   4.420  2.4160  0.4444 -2.0660
  138SOL    HW2 1314   5.259   5.839   4.452 -0.5894 -1.6698  0.1203
  139SOL     OW 1315   5.849   4.757   5.251  0.0587  0.3659  0.3120
  139SOL    HW1 1316   5.847   4.658   5.241 -0.8097  0.0791  2.7129
  139SOL    HW2 1317   5.943   4.787   5.264  0.6442  0.2312 -2.7953
  140SOL     OW 1318   0.948   5.186   6.016  0.0413 -0.3943  0.0965
  140SOL    HW1 1319   0.938   5.266   5.957  0.2446 -0.3182  0.1619
  140SOL    HW2 1320   0.913   5.105   5.969 -2.4449  0.1070  0.9543
  141SOL     OW 1321   1.746   1.925   1.517 -0.7163 -0.2674 -0.0032
  141SOL    HW1 1322   1.740   1.965   1.426 -1.6290 -1.3039 -0.4159
  141SOL    HW2 1323   1.668   1.864   1.533  0.7102 -2.0702  0.4901
  142SOL     OW 1324   6.327   3.412   2.203  0.1571  0.1103  0.3956
  142SOL    HW1 1325   6.275   3.467   2.137  0.6238 -1.3631 -1.2509
  142SOL    HW2 1326   6.270   3.395   2.283 -1.5442 -0.5506 -0.9001
  143SOL     OW 1327   5.872   4.041   2.044  0.2077 -0.1106  0.3742
  143SOL    HW1 1328   5.909   3.973   2.107 -2.7533 -0.3424  2.0264
  143SOL    HW2 1329   5.935   4.119   2.039  1.8030 -1.2634  1.4711
  144SOL     OW 1330   1.947   5.437   6.647  0.4808  0.6931 -0.0019
  144SOL    HW1 1331   1.927   5.372   6.573 -0.8685  2.2019 -1.0299
  144SOL    HW2 1332   1.864   5.489   6.669  1.5907  2.3158  0.5266
  145SOL     OW 1333   4.431   5.929   6.159 -0.2839  0.6818  0.6814
  145SOL    HW1 1334   4.343   5.962   6.125  0.0420  0.8949  0.0299
  145SOL    HW2 1335   4.504   5.993   6.132  0.1445  0.2191  0.7265
  146SOL     OW 1336   1.787   4.547   3.170  0.1518 -0.0602  0.2749
  146SOL    HW1 1337   1.754   4.612   3.102 -1.7473  0.5628  1.7085
  146SOL    HW2 1338   1.886   4.537   3.162  0.7417  3.9048  0.7370
  147SOL     OW 1339   6.611   2.549   0.578  0.4310 -0.0125  0.5712
  147SOL    HW1 1340   6.603   2.625   0.512 -1.1139 -1.3677 -0.8813
  147SOL    HW2 1341   6.670   2.578   0.653  0.6858  2.2946 -0.4038
  148SOL     OW 1342   1.107   0.778   6.217  0.6513  0.4627  0.2332
  148SOL    HW1 1343   1.122   0.784   6.118 -1.1442 -2.2475 -0.3158
  148SOL    HW2 1344   1.195   0.768   6.263  1.4150 -0.7644 -1.3795
  149SOL     OW 1345   3.956   2.509   6.757 -0.0630  0.1659  0.6385
  149SOL    HW1 1346   3.969   2.528   6.659 -2.4709 -0.9230  0.0377
  149SOL    HW2 1347   4.004   2.424   6.780 -0.2959 -0.1042  0.1547
  150SOL     OW 1348   0.009   6.175   5.801  0.2948 -0.4049 -0.7191
  150SOL    HW1 1349   0.099   6.144   5.769  0.5845 -0.4389  0.1208
  150SOL    HW2 1350  -0.053   6.180   5.723  0.7623 -1.2840 -1.1714
  151SOL     OW 1351   6.900   0.706   0.190  0.1880  0.2783  0.4665
  151SOL    HW1 1352   6.819   0.718   0.132  1.5012 -1.2000 -1.8640
  151SOL    HW2 1353   6.909   0.610   0.216  0.4925  0.6582  1.8370
  152SOL     OW 1354   2.068   6.778   4.316  0.5549 -0.2462  0.7685
  152SOL    HW1 1355   1.973   6.777   4.345  0.2968  1.2284  0.0880
  152SOL    HW2 1356   2.128   6.768   4.396 -0.1552 -1.5912  1.1489
  153SOL     OW 1357   1.093   0.319   3.298  0.1050 -0.0281 -0.1093
  153SOL    HW1 1358   1.139   0.262   3.230 -2.5463 -0.6024 -1.5889
  153SOL    HW2 1359   1.097   0.415   3.269  0.6030 -0.0459 -0.0936
  154SOL     OW 1360   0.490   0.780   3.123 -0.2676 -0.2155 -0.5160
  154SOL    HW1 1361   0.536   0.857   3.165 -1.7030  0.4486 -0.0860
  154SOL    HW2 1362   0.416   0.748   3.182  1.6533 -3.4316  0.3986
  155SOL     OW 1363   1.929   0.762   3.681 -0.8358  0.5518  0.1774
  155SOL    HW1 1364   1.834   0.743   3.706 -0.7664  0.8699  0.6937
  155SOL    HW2 1365   1.987   0.688   3.714 -0.8698  0.4824  0.0831
  156SOL     OW 1366   0.826   2.800   0.056 -0.1124  0.5261 -0.1802
  156SOL    HW1 1367   0.861   2.812  -0.037 -0.3537  0.5350 -0.2715
  156SOL    HW2 1368   0.729   2.824   0.059  0.0978  1.3718  0.2707
  157SOL     OW 1369   1.594   2.691   2.173 -0.3697  0.4215 -0.7263
  157SOL    HW1 1370   1.554   2.768   2.124 -0.9987  0.5740  0.0188
  157SOL    HW2 1371   1.681   2.719   2.215 -1.4770  1.2859  1.0960
  158SOL     OW 1372   1.526   0.567   5.739  0.1458 -0.6356  0.2083
  158SOL    HW1 1373   1.486   0.651   5.702 -0.0833 -0.4353  0.9055
  158SOL    HW2 1374   1.453   0.502   5.761  0.3764 -2.4475 -3.5213
  159SOL     OW 1375   5.743   3.869   1.520 -0.0764  0.1668 -0.5356
  159SOL    HW1 1376   5.767   3.966   1.532  0.7164  0.2133 -2.2330
  159SOL    HW2 1377   5.818   3.822   1.474 -0.1290 -1.4573  0.9628
  160SOL     OW 1378   0.939   4.123   6.166 -0.1926 -0.3148  0.1643
  160SOL    HW1 1379   0.869   4.100   6.099 -0.3411 -0.1098  0.2471
  160SOL    HW2 1380   0.917   4.210   6.209  0.2108 -0.1585  0.0622
  161SOL     OW 1381   1.654   5.642   4.614  0.3556 -1.2160  0.0206
  161SOL    HW1 1382   1.709   5.724   4.630  1.9231 -1.0959 -4.4943
  161SOL    HW2 1383   1.558   5.667   4.610  0.6328  0.0321  0.5529
  162SOL     OW 1384   5.078   5.199   3.092 -0.0469 -0.0618 -0.2115
  162SOL    HW1 1385   5.082   5.110   3.138 -0.9348  1.3327  2.8390
  162SOL    HW2 1386   5.171   5.237   3.087  0.0276 -0.0121  1.0496
  163SOL     OW 1387   4.946   1.620   0.198  0.2858  0.1015 -0.1991
  163SOL    HW1 1388   4.962   1.560   0.120  1.9713 -1.4689  1.2692
  163SOL    HW2 1389   4.849   1.620   0.221  0.1489 -1.5595 -0.6381
  164SOL     OW 1390   4.806   3.012   2.444  0.6455  0.0860  0.3070
  164SOL    HW1 1391   4.761   2.933   2.402  1.4080 -0.6238  0.7830
  164SOL    HW2 1392   4.827   3.080   2.374  1.9162 -1.0827 -0.5038
  165SOL     OW 1393   0.279   3.106   0.427 -0.8139  0.4244 -0.0385
  165SOL    HW1 1394   0.242   3.194   0.396 -0.6857 -0.1322 -1.8415
  165SOL    HW2 1395   0.215   3.065   0.493 -0.9289  1.7922  0.7384
  166SOL     OW 1396   0.170   0.130   1.287 -0.0123 -0.0699  0.4700
  166SOL    HW1 1397   0.180   0.109   1.384 -1.1691  0.8620  0.8124
  166SOL    HW2 1398   0.260   0.152   1.249  0.3418  0.3841  1.5262
  167SOL     OW 1399   6.480   1.713   6.312  0.0325 -0.3285 -0.5177
  167SOL    HW1 1400   6.472   1.737   6.409 -0.8709 -1.0817 -0.3867
  167SOL    HW2 1401   6.516   1.791   6.262  2.9826 -0.7382  0.7696
  168SOL     OW 1402   2.065   0.032   1.174 -0.4682 -0.7689 -0.1895
  168SOL    HW1 1403   2.130   0.103   1.201 -0.5003 -0.4233 -0.9797
  168SOL    HW2 1404   2.114  -0.045   1.134 -0.5008 -0.7989 -0.1717
  169SOL     OW 1405   0.063   0.152   0.453 -0.2932  0.6064 -0.2646
  169SOL    HW1 1406   0.106   0.139   0.543 -0.9199 -2.0931 -0.2688
  169SOL    HW2 1407  -0.031   0.119   0.457 -0.3718  0.5833 -1.8713
  170SOL     OW 1408   0.456   1.309   2.447 -0.1405 -0.2881 -0.1065
  170SOL    HW1 1409   0.387   1.382   2.450  1.3080  1.1401 -0.0221
  170SOL    HW2 1410   0.444   1.255   2.364 -0.6240  0.6955 -0.6985
  171SOL     OW 1411   4.325   5.405   0.568  0.5474 -0.1180 -0.0729
  171SOL    HW1 1412   4.342   5.307   0.556 -0.3438 -0.1906 -0.9016
  171SOL    HW2 1413   4.317   5.449   0.479  0.6609  0.6674  0.2912
  172SOL     OW 1414   1.042   3.054   0.886  0.0078 -0.0658  0.2227
  172SOL    HW1 1415   1.108   3.031   0.958 -1.5768  0.7806  2.0599
  172SOL    HW2 1416   1.055   3.149   0.858 -0.1384 -0.0319  0.2682
  173SOL     OW 1417   6.886   6.800   6.716 -0.1774 -0.3619 -0.1623
  173SOL    HW1 1418   6.964   6.788   6.777 -0.0708 -3.9031 -0.8026
  173SOL    HW2 1419   6.813   6.849   6.764  1.4988  0.8716  1.2489
  174SOL     OW 1420   4.189   6.934   2.595  0.0016  0.5454  0.1048
  174SOL    HW1 1421   4.212   7.013   2.651  0.0979 -0.5011  1.6323
  174SOL    HW2 1422   4.160   6.859   2.655  0.0105 -0.6043 -1.2799
  175SOL     OW 1423   6.795   2.746   4.394  0.0213  0.0890 -0.0957
  175SOL    HW1 1424   6.822   2.652   4.416 -1.2285 -0.6155 -1.3696
  175SOL    HW2 1425   6.853   2.779   4.319  1.3763  0.8809  1.2475
  176SOL     OW 1426   1.762   0.679   6.140  0.2491  0.7691 -0.0930
  176SOL    HW1 1427   1.784   0.655   6.234 -0.2468  1.4953  0.2149
  176SOL    HW2 1428   1.825   0.633   6.078  0.5510  0.2556  0.5890
  177SOL     OW 1429   4.336   0.989   2.979 -0.2913 -0.4601 -0.2492
  177SOL    HW1 1430   4.253   0.935   2.974 -0.4750 -0.1441 -0.6366
  177SOL    HW2 1431   4.413   0.930   3.005 -0.3519 -1.0440 -1.3669
  178SOL     OW 1432   4.209   4.272   5.328  0.0370 -0.2305 -0.4358
  178SOL    HW1 1433   4.258   4.293   5.413  1.8692 -0.5430 -1.3788
  178SOL    HW2 1434   4.255   4.316   5.251  1.9239 -4.4755 -2.0344
  179SOL     OW 1435   3.108   6.356   0.030  0.0619 -0.2714 -0.3556
  179SOL    HW1 1436   3.152   6.426   0.085 -1.7232  1.4475 -0.9714
  179SOL    HW2 1437   3.016   6.337   0.066 -0.1917 -0.9284 -1.2945
  180SOL     OW 1438   1.335   1.965   0.184 -0.0270 -0.8454  0.2952
  180SOL    HW1 1439   1.273   1.893   0.155  0.0759 -0.6367 -0.4695
  180SOL    HW2 1440   1.409   1.974   0.117 -0.7338  0.8335 -0.3243
  181SOL     OW 1441   3.333   4.131   3.041 -0.1227 -0.5664 -0.5199
  181SOL    HW1 1442   3.426   4.152   3.011  0.0345  0.1464  0.4152
  181SOL    HW2 1443   3.278   4.214   3.040 -0.0640 -0.4599  1.2705
  182SOL     OW 1444   3.979   1.611   3.874  0.5863  0.4692 -0.1221
  182SOL    HW1 1445   3.898   1.621   3.932  0.3821  0.3872 -0.3946
  182SOL    HW2 1446   3.968   1.665   3.791  0.7681  0.3764 -0.2074
  183SOL     OW 1447   6.378   2.439   3.967 -0.0455 -0.5680 -0.3828
  183SOL    HW1 1448   6.324   2.381   4.029 -0.4620  0.3965  0.1829
  183SOL    HW2 1449   6.475   2.412   3.973  0.0205 -0.0984  1.1789
  184SOL     OW 1450   1.188   2.374   3.757 -0.6049  0.0005 -0.2404
  184SOL    HW1 1451   1.139   2.296   3.796  1.1593 -1.5617 -0.9771
  184SOL    HW2 1452   1.212   2.353   3.662 -0.2824  1.5628 -0.5292
  185SOL     OW 1453   2.209   2.220   5.700  0.0487  0.0761 -0.0885
  185SOL    HW1 1454   2.228   2.308   5.745 -0.9969  0.3933 -0.2310
  185SOL    HW2 1455   2.293   2.167   5.693  0.3780  0.3464  1.5311
  186SOL     OW 1456   5.689   6.435   5.994  0.2640 -0.0940 -0.1931
  186SOL    HW1 1457   5.698   6.339   6.022  0.2210 -0.7429 -2.2908
  186SOL    HW2 1458   5.705   6.494   6.074  1.8329 -1.7756  0.8157
  187SOL     OW 1459   6.908   0.134   3.695  0.3914 -0.1029 -0.7808
  187SOL    HW1 1460   6.816   0.170   3.710 -0.8877 -2.3027 -2.5997
  187SOL    HW2 1461   6.946   0.102   3.782 -1.5900 -1.3016 -0.2940
  188SOL     OW 1462   0.076   1.041   5.217 -0.6929 -0.4612  0.2646
  188SOL    HW1 1463  -0.004   0.987   5.189 -2.2906  1.0888  1.6446
  188SOL    HW2 1464   0.062   1.078   5.308  1.7607 -0.3319  0.6719
  189SOL     OW 1465   2.820   5.049   1.992  0.1824  0.0413 -0.1511
  189SOL    HW1 1466   2.780   5.124   1.939  0.3144 -0.2829 -0.7204
  189SOL    HW2 1467   2.904   5.018   1.947  0.8407  0.4123  0.7872
  190SOL     OW 1468   3.186   2.213   6.729 -0.4179  0.7817 -0.1368
  190SOL    HW1 1469   3.159   2.221   6.825 -0.2997 -0.4473  0.0205
  190SOL    HW2 1470   3.104   2.213   6.671 -1.0137 -3.3252  0.3639
  191SOL     OW 1471   6.332   4.295   0.199  0.6460 -0.2670 -0.0743
  191SOL    HW1 1472   6.332   4.195   0.203  0.5492 -0.2124  2.5416
  191SOL    HW2 1473   6.426   4.328   0.188  0.6647 -0.5995 -1.0968
  192SOL     OW 1474   5.333   0.778   0.781  0.6923 -0.6059 -0.5469
  192SOL    HW1 1475   5.386   0.706   0.826  1.0223 -0.7427 -1.1454
  192SOL    HW2 1476   5.279   0.827   0.849  2.5135  0.3370  0.3012
  193SOL     OW 1477   5.430   5.734   0.569 -0.1727  0.6230 -0.4436
  193SOL    HW1 1478   5.430   5.804   0.498  1.6494 -0.6677 -1.7818
  193SOL    HW2 1479   5.406   5.646   0.529  1.1584 -0.1872  0.4840
  194SOL     OW 1480   2.163   4.445   4.660 -0.3402 -0.3338  0.3432
  194SOL    HW1 1481   2.186   4.386   4.583 -0.4383 -2.3453  1.7608
  194SOL    HW2 1482   2.243   4.456   4.719 -0.3809  0.8079  0.2014
  195SOL     OW 1483   1.020   6.631   3.034  0.1272 -0.3087 -0.1202
  195SOL    HW1 1484   0.939   6.689   3.043 -0.6211 -1.3029 -0.2939
  195SOL    HW2 1485   1.013   6.575   2.951 -0.4398 -2.5420  1.3461
  196SOL     OW 1486   6.839   1.372   0.893  0.2184 -0.5681  0.4618
  196SOL    HW1 1487   6.871   1.462   0.922  1.9743 -0.9646 -0.1280
  196SOL    HW2 1488   6.739   1.373   0.886  0.1876  1.2489  0.7028
  197SOL     OW 1489   2.803   1.885   0.636  0.4898  0.8071  0.2315
  197SOL    HW1 1490   2.722   1.934   0.667 -0.3905 -0.2673 -0.2906
  197SOL    HW2 1491   2.805   1.882   0.536  1.2174  0.8814  0.2319
  198SOL     OW 1492   4.651   0.777   4.780  0.8912  0.4797 -0.0933
  198SOL    HW1 1493   4.558   0.814   4.787  1.4717  2.7743 -2.5417
  198SOL    HW2 1494   4.711   0.824   4.845  0.6059 -0.0757  0.5793
  199SOL     OW 1495   1.723   2.102   3.445  0.1958 -0.0374 -0.0930
  199SOL    HW1 1496   1.699   2.069   3.354  1.1778 -1.1609  0.0266
  199SOL    HW2 1497   1.804   2.053   3.478  0.1744  0.7247  1.1694
  200SOL     OW 1498   6.214   1.691   2.032 -0.7022  0.0635 -0.5393
  200SOL    HW1 1499   6.151   1.632   2.083 -2.1966  0.2866 -2.0170
  200SOL    HW2 1500   6.273   1.636   1.974  0.3091 -0.1348  0.6541
  201SOL     OW 1501   0.418   1.394   5.584 -0.4946 -0.4228 -0.0457
  201SOL    HW1 1502   0.448   1.489   5.591 -0.4827 -0.2962 -1.5430
  201SOL    HW2 1503   0.319   1.390   5.595 -0.6009 -0.1158 -0.8181
  202SOL     OW 1504   6.084   0.376   6.600  0.0498 -0.2194 -0.3548
  202SOL    HW1 1505   6.169   0.332   6.572  0.4434 -0.2154  0.7978
  202SOL    HW2 1506   6.075   0.373   6.699 -1.5443 -0.6591 -0.4756
  203SOL     OW 1507   6.171   4.598   1.474 -0.4242  0.5475 -0.6806
  203SOL    HW1 1508   6.226   4.514   1.472 -1.5469 -0.2143 -0.7613
  203SOL    HW2 1509   6.138   4.613   1.567 -0.3433  0.8335 -0.6973
  204SOL     OW 1510   5.857   0.608   5.561  0.1864  0.4497  0.2076
  204SOL    HW1 1511   5.769   0.652   5.543 -1.5841 -2.4475  1.0781
  204SOL    HW2 1512   5.870   0.532   5.498  0.7563 -0.8105  1.7554
  205SOL     OW 1513   2.230   6.291   3.721  0.0725  0.7691  0.5776
  205SOL    HW1 1514   2.245   6.336   3.633 -0.3079  0.1803  0.1981
  205SOL    HW2 1515   2.271   6.199   3.718  0.2432  0.8280  1.0892
  206SOL     OW 1516   0.375   4.736   2.153  0.1258 -0.1455  0.3747
  206SOL    HW1 1517   0.402   4.801   2.224  0.5449 -1.5213  1.5101
  206SOL    HW2 1518   0.283   4.759   2.121 -0.3066  0.1909  1.7657
  207SOL     OW 1519   5.559   3.897   4.136 -0.2311 -0.0739 -0.5303
  207SOL    HW1 1520   5.618   3.832   4.182  0.5050  1.1426  0.2920
  207SOL    HW2 1521   5.477   3.914   4.192  0.4542  1.0711  0.1590
  208SOL     OW 1522   1.913   2.094   5.379 -0.7736 -0.5046  0.2810
  208SOL    HW1 1523   1.846   2.168   5.391 -0.7701 -0.6729  1.4861
  208SOL    HW2 1524   1.875   2.009   5.415  0.1091 -0.5822  1.0742
  209SOL     OW 1525   5.400   3.204   1.752 -0.1273  0.0218 -0.0381
  209SOL    HW1 1526   5.499   3.193   1.765 -0.3371  0.1357  1.9836
  209SOL    HW2 1527   5.380   3.211   1.654  1.9934  1.2418 -0.4545
  210SOL     OW 1528   4.007   3.608   6.946  0.3066 -0.1840 -0.7619
  210SOL    HW1 1529   3.993   3.706   6.956  0.0511 -0.0441 -2.2822
  210SOL    HW2 1530   4.056   3.573   7.026  2.9852  1.6805 -1.4358
  211SOL     OW 1531   2.596   2.866   6.685  0.3189 -0.0889  0.2256
  211SOL    HW1 1532   2.696   2.873   6.687  0.2151  1.7529  1.1798
  211SOL    HW2 1533   2.557   2.942   6.737 -1.6021 -0.3869 -0.7293
  212SOL     OW 1534   1.763   5.559   3.432  0.1255  0.4334  0.5022
  212SOL    HW1 1535   1.758   5.657   3.416  0.0057  0.6683  1.8266
  212SOL    HW2 1536   1.820   5.516   3.362 -1.1764  1.1909 -1.0650
  213SOL     OW 1537   2.000   6.635   2.549  0.0321  0.3710  0.5458
  213SOL    HW1 1538   2.047   6.683   2.623  1.2908  0.7740 -0.4766
  213SOL    HW2 1539   1.991   6.538   2.573 -2.1307  0.9448  2.4297
  214SOL     OW 1540   6.221   0.034   6.557 -0.1679  0.1536  0.3960
  214SOL    HW1 1541   6.130  -0.001   6.537 -0.8131  2.7750 -1.7597
  214SOL    HW2 1542   6.253  -0.005   6.644 -2.8379 -1.6755  0.6792
  215SOL     OW 1543   0.333   4.164   4.067  0.3174  0.1441 -0.3696
  215SOL    HW1 1544   0.319   4.065   4.070 -0.1533  0.2175  1.0453
  215SOL    HW2 1545   0.244   4.209   4.055  0.5445  0.3996 -1.1301
  216SOL     OW 1546   2.668   6.662   5.019  0.0712  0.0188  0.6740
  216SOL    HW1 1547   2.665   6.586   5.084  0.8597 -0.4027  0.2360
  216SOL    HW2 1548   2.720   6.738   5.058 -1.8268  0.8846  1.6475
  217SOL     OW 1549   0.244   6.537   6.281  0.2170  0.5616  0.8402
  217SOL    HW1 1550   0.306   6.541   6.359  0.7545 -0.8467  0.5079
  217SOL    HW2 1551   0.150   6.557   6.312 -0.1614 -3.1769  2.5614
  218SOL     OW 1552   3.446   2.772   0.156 -0.3700 -0.4834 -0.8164
  218SOL    HW1 1553   3.505   2.706   0.109 -1.2665 -1.0449 -1.1700
  218SOL    HW2 1554   3.396   2.726   0.229 -1.2450 -0.2739 -1.2704
  219SOL     OW 1555   4.870   4.119   1.975 -0.9672 -0.2156  0.0253
  219SOL    HW1 1556   4.835   4.069   2.053 -3.4085  1.3367  0.0577
  219SOL    HW2 1557   4.867   4.061   1.894  1.6183 -1.8477  1.0045
  220SOL     OW 1558   3.781   6.537   0.646 -0.8112 -0.6045  0.5048
  220SOL    HW1 1559   3.859   6.596   0.666  1.2747 -1.1341 -4.4516
  220SOL    HW2 1560   3.703   6.594   0.618 -0.3593 -0.0836  0.2846
  221SOL     OW 1561   4.950   3.279   0.717  0.5067 -0.2092  0.4741
  221SOL    HW1 1562   5.030   3.225   0.692  0.2418  0.4162 -1.9556
  221SOL    HW2 1563   4.980   3.370   0.748  0.7570  0.0583 -0.5226
  222SOL     OW 1564   1.377   3.927   6.217 -0.1620 -0.8888 -0.3293
  222SOL    HW1 1565   1.318   4.008   6.215  1.6901  0.5537  0.3015
  222SOL    HW2 1566   1.443   3.932   6.142  1.0895 -0.8723  0.7206
  223SOL     OW 1567   6.993   1.373   5.307 -1.0553 -0.1511 -0.0677
  223SOL    HW1 1568   6.945   1.352   5.223 -0.9706  0.8671 -0.3796
  223SOL    HW2 1569   7.029   1.289   5.347 -2.2942 -0.8076 -0.3031
  224SOL     OW 1570   3.782   3.774   4.838 -0.2985 -0.1431  0.1686
  224SOL    HW1 1571   3.821   3.708   4.774 -0.6613  0.9736 -1.2735
  224SOL    HW2 1572   3.852   3.840   4.864 -0.7765  0.9886 -1.2556
  225SOL     OW 1573   4.395   3.676   6.339 -0.3565 -0.0910 -0.0437
  225SOL    HW1 1574   4.415   3.669   6.241 -0.2749  0.2247 -0.0513
  225SOL    HW2 1575   4.303   3.642   6.357 -0.4412  0.0206 -0.2602
  226SOL     OW 1576   2.860   2.988   6.416 -0.0582 -0.4454 -0.3855
  226SOL    HW1 1577   2.762   2.997   6.431  0.1168  0.2413  0.4588
  226SOL    HW2 1578   2.887   2.892   6.422 -0.3239 -0.4254  1.9030
  227SOL     OW 1579   3.236   3.861   1.899 -0.3715  0.3084 -0.1230
  227SOL    HW1 1580   3.302   3.866   1.824 -0.0498 -0.7091  0.0790
  227SOL    HW2 1581   3.274   3.806   1.974  0.2119  3.0861  1.7634
  228SOL     OW 1582   1.030   0.750   3.698 -0.1883 -0.3953  0.2507
  228SOL    HW1 1583   0.946   0.756   3.645 -0.4137 -1.8583  0.3781
  228SOL    HW2 1584   1.087   0.830   3.680  0.3178 -1.3711 -3.2020
  229SOL     OW 1585   2.635   1.140   6.598  0.1564 -0.1854 -0.2281
  229SOL    HW1 1586   2.719   1.195   6.597  1.1549 -1.5021  2.3922
  229SOL    HW2 1587   2.634   1.079   6.519  1.1459  0.5459 -0.8282
  230SOL     OW 1588   5.369   1.631   5.984 -0.1772 -0.1678 -0.2551
  230SOL    HW1 1589   5.434   1.560   5.955  0.8992  1.0397 -0.8922
  230SOL    HW2 1590   5.395   1.718   5.943 -1.2563  0.6807  0.8132
  231SOL     OW 1591   5.788   1.392   1.617 -0.1458 -0.0949  0.1299
  231SOL    HW1 1592   5.768   1.475   1.565  0.2557 -0.4966 -0.6685
  231SOL    HW2 1593   5.841   1.416   1.698 -0.5690  0.4995  0.2448
  232SOL     OW 1594   0.530   4.212   6.391  0.2022 -0.2610  0.0810
  232SOL    HW1 1595   0.460   4.255   6.449 -0.5956 -0.6352 -0.5800
  232SOL    HW2 1596   0.501   4.120   6.367  0.9850 -0.4638 -0.1121
  233SOL     OW 1597   2.689   1.662   3.807 -0.1658  0.4688 -0.5050
  233SOL    HW1 1598   2.772   1.683   3.755  0.1466 -0.0663 -0.2318
  233SOL    HW2 1599   2.706   1.678   3.904 -0.2364 -0.0726 -0.4023
  234SOL     OW 1600   4.870   6.948   1.621 -0.6883  0.2775 -0.0828
  234SOL    HW1 1601   4.906   6.917   1.710  0.8184 -1.1719 -1.1151
  234SOL    HW2 1602   4.909   7.037   1.598  0.2432 -0.1009 -0.0136
  235SOL     OW 1603   1.105   2.748   3.060 -0.1726 -0.2043  0.7219
  235SOL    HW1 1604   1.110   2.664   3.114  0.4759  0.0388  1.0476
  235SOL    HW2 1605   1.028   2.741   2.996 -1.5633 -0.0969  2.3181
  236SOL     OW 1606   4.116   3.328   5.504  0.3340  0.2120  0.2338
  236SOL    HW1 1607   4.033   3.274   5.496  0.4514 -0.0173  0.5644
  236SOL    HW2 1608   4.103   3.416   5.459 -1.2823  1.5983  3.1196
  237SOL     OW 1609   4.776   4.097   4.267 -0.4019 -0.0684  0.0577
  237SOL    HW1 1610   4.822   4.079   4.354  1.3052 -1.4626 -1.0466
  237SOL    HW2 1611   4.755   4.010   4.223  0.6369  0.5691 -1.8181
  238SOL     OW 1612   6.005   2.497   1.017  0.4860  0.0807 -0.1797
  238SOL    HW1 1613   5.920   2.457   0.984  0.9841 -1.0564 -0.1430
  238SOL    HW2 1614   6.082   2.439   0.990  1.2879  1.2566 -0.4919
  239SOL     OW 1615   6.880   2.306   0.209 -0.1615  0.1097 -0.4644
  239SOL    HW1 1616   6.965   2.255   0.224 -0.1751  0.0585 -0.5598
  239SOL    HW2 1617   6.869   2.375   0.280 -0.9361 -1.0565  0.5754
  240SOL     OW 1618   5.998   3.638   3.950  0.1124  0.0730 -0.7668
  240SOL    HW1 1619   6.027   3.728   3.917  0.1941  0.4926  0.4080
  240SOL    HW2 1620   5.984   3.642   4.048  1.4330 -1.5254 -0.4627
  241SOL     OW 1621   1.847   3.019   3.942 -0.4921 -0.5076 -0.2114
  241SOL    HW1 1622   1.810   3.081   4.011 -1.1331 -0.1942 -0.8292
  241SOL    HW2 1623   1.867   2.930   3.985  1.5495  0.4477  0.9401
  242SOL     OW 1624   3.625   4.083   1.607  0.5986  0.2493  0.2336
  242SOL    HW1 1625   3.566   4.140   1.665 -1.2062 -1.5456  0.2855
  242SOL    HW2 1626   3.625   4.119   1.514  0.7775  1.2384  0.6108
  243SOL     OW 1627   5.456   4.008   2.012  0.0465 -0.1831  0.2098
  243SOL    HW1 1628   5.492   3.989   1.920 -0.5972 -0.4723  0.0176
  243SOL    HW2 1629   5.401   4.092   2.009 -1.0962 -0.9251  0.0370
  244SOL     OW 1630   4.719   2.231   5.243  0.2768 -0.2526  0.2015
  244SOL    HW1 1631   4.803   2.177   5.243  1.0870  0.9591 -0.9543
  244SOL    HW2 1632   4.738   2.324   5.212 -1.1268  0.6896  1.9431
  245SOL     OW 1633   2.014   1.708   4.197  0.0990  0.2118 -0.2502
  245SOL    HW1 1634   2.081   1.748   4.260  0.9292 -1.1463 -0.2333
  245SOL    HW2 1635   1.924   1.750   4.213  0.2761 -0.1009  1.8711
  246SOL     OW 1636   2.002   6.396   3.106 -0.3105  0.4813 -0.1914
  246SOL    HW1 1637   2.009   6.461   3.182  0.0195 -0.3872  0.5385
  246SOL    HW2 1638   1.907   6.365   3.097 -0.1439 -0.3570  0.6990
  247SOL     OW 1639   3.157   0.969   0.326  0.2508  0.2680 -0.2493
  247SOL    HW1 1640   3.150   0.957   0.227 -0.4739 -1.7754 -0.0014
  247SOL    HW2 1641   3.065   0.977   0.365  0.4559 -0.4146  0.3996
  248SOL     OW 1642   3.543   3.226   2.369 -0.0021  0.3303  0.4993
  248SOL    HW1 1643   3.552   3.320   2.336  0.2977 -0.2827 -1.2456
  248SOL    HW2 1644   3.451   3.213   2.406 -1.2262  0.4643 -2.2298
  249SOL     OW 1645   6.048   5.700   4.710  0.1065 -0.5436  0.3266
  249SOL    HW1 1646   5.988   5.620   4.718 -0.5854 -0.1045 -0.3883
  249SOL    HW2 1647   6.122   5.679   4.646 -0.3030 -0.4791 -0.1732
  250SOL     OW 1648   5.508   3.628   6.946 -0.3533 -0.4520  0.2796
  250SOL    HW1 1649   5.553   3.543   6.919 -1.6409 -1.3591  0.8523
  250SOL    HW2 1650   5.540   3.655   7.037 -2.4687 -2.3095  1.6721
  251SOL     OW 1651   5.207   4.991   4.282 -0.2335  0.3143 -0.2562
  251SOL    HW1 1652   5.238   5.084   4.300  2.2313 -0.0208 -2.2601
  251SOL    HW2 1653   5.136   4.992   4.211  0.6755  0.6073 -1.1787
  252SOL     OW 1654   6.621   5.015   6.657  0.4055  0.1910 -0.8261
  252SOL    HW1 1655   6.695   5.048   6.715  0.5159 -0.1797 -0.7567
  252SOL    HW2 1656   6.617   5.069   6.573  1.0365 -0.0723 -1.0308
  253SOL     OW 1657   4.505   6.494   5.839 -0.2354 -0.0934 -0.0984
  253SOL    HW1 1658   4.571   6.421   5.852 -1.7476 -1.2932  1.2585
  253SOL    HW2 1659   4.421   6.457   5.800 -1.4864  0.5983  1.7677
  254SOL     OW 1660   6.962   1.808   6.513 -0.2030 -0.0884  0.0731
  254SOL    HW1 1661   7.047   1.768   6.546 -1.3423 -1.4522  1.5360
  254SOL    HW2 1662   6.938   1.769   6.424  0.0035 -0.7386  0.3005
  255SOL     OW 1663   3.165   5.549   6.801  0.1231  0.8193  0.5057
  255SOL    HW1 1664   3.136   5.465   6.848  0.3273  0.7782  0.5560
  255SOL    HW2 1665   3.240   5.591   6.851  0.8637  0.3661 -0.2019
  256SOL     OW 1666   4.123   1.414   4.859  0.5106  0.1480  0.5234
  256SOL    HW1 1667   4.073   1.423   4.945  1.1082  1.9760  0.7377
  256SOL    HW2 1668   4.179   1.496   4.846 -0.9867  0.8130 -2.5085
  257SOL     OW 1669   4.562   5.342   2.993 -0.8497 -0.3277  0.1417
  257SOL    HW1 1670   4.565   5.401   3.074 -0.0681 -1.6741  1.1268
  257SOL    HW2 1671   4.467   5.319   2.973 -1.1015  0.5555  0.2576
  258SOL     OW 1672   3.127   5.444   5.254 -0.3481 -0.0973  0.1445
  258SOL    HW1 1673   3.067   5.365   5.268  0.3001 -0.9585 -1.5517
  258SOL    HW2 1674   3.194   5.422   5.183  0.7299  1.5264  0.6002
  259SOL     OW 1675   3.674   0.232   3.915 -0.8863 -0.0284  0.0514
  259SOL    HW1 1676   3.585   0.269   3.890 -0.2221  1.1060 -0.7218
  259SOL    HW2 1677   3.683   0.140   3.876 -1.2336  0.3452 -0.9381
  260SOL     OW 1678   3.859   6.834   2.029  0.1005 -0.5810 -0.1710
  260SOL    HW1 1679   3.783   6.773   2.010 -1.1568  0.9775 -0.3451
  260SOL    HW2 1680   3.829   6.907   2.092  1.0009  0.9038 -1.3821
  261SOL     OW 1681   4.903   4.252   6.954 -0.1164  0.4338 -0.1714
  261SOL    HW1 1682   5.000   4.234   6.970  0.0657  1.2183 -0.3226
  261SOL    HW2 1683   4.848   4.186   7.004  0.4963 -0.8892 -1.1780
  262SOL     OW 1684   0.012   3.747   0.092  0.0342 -0.7509  0.3525
  262SOL    HW1 1685  -0.054   3.677   0.066 -0.3108 -1.3309  2.5959
  262SOL    HW2 1686  -0.031   3.837   0.082 -0.3752 -0.9907 -0.1502
  263SOL     OW 1687   3.094   0.266   3.691  0.1785  0.2077  0.7366
  263SOL    HW1 1688   3.083   0.296   3.786  0.7215  1.1659  0.5081
  263SOL    HW2 1689   3.076   0.344   3.630  0.8364 -0.1403  0.0929
  264SOL     OW 1690   6.194   2.840   6.831 -0.6030  0.1286  0.0201
  264SOL    HW1 1691   6.238   2.751   6.827 -0.9073 -0.0264  0.0814
  264SOL    HW2 1692   6.146   2.857   6.745 -1.5717 -0.3053  0.4580
  265SOL     OW 1693   0.016   6.670   3.173 -0.2526 -0.2367 -0.3280
  265SOL    HW1 1694  -0.013   6.613   3.250 -0.9503  1.0375  0.3784
  265SOL    HW2 1695  -0.009   6.625   3.087 -2.8764 -0.0171  0.2254
  266SOL     OW 1696   2.466   1.498   3.823  0.2281  0.2305 -0.2158
  266SOL    HW1 1697   2.457   1.501   3.922 -2.0760  0.2456 -0.3700
  266SOL    HW2 1698   2.538   1.560   3.794  1.9566 -0.8660  1.5155
  267SOL     OW 1699   2.732   0.147   3.159 -0.6473 -0.1966  0.4015
  267SOL    HW1 1700   2.669   0.074   3.184 -0.6456 -1.2180 -2.2453
  267SOL    HW2 1701   2.689   0.208   3.092  0.3129  0.5988  0.4680
  268SOL     OW 1702   3.255   0.898   0.838  0.2276 -0.0647 -0.0136
  268SOL    HW1 1703   3.313   0.958   0.894  0.4295 -0.2037 -0.0736
  268SOL    HW2 1704   3.250   0.934   0.745 -1.3707  1.0358  0.4615
  269SOL     OW 1705   5.131   1.097   1.962 -0.3034 -0.0699  0.6348
  269SOL    HW1 1706   5.058   1.038   1.928  1.0179 -0.9748 -0.7436
  269SOL    HW2 1707   5.093   1.185   1.990 -2.0727 -0.9616  1.1420
  270SOL     OW 1708   5.195   1.249   0.041  0.2771 -0.4474  0.3232
  270SOL    HW1 1709   5.284   1.279   0.006 -0.8913  1.9594 -0.8975
  270SOL    HW2 1710   5.166   1.167  -0.007  1.6184 -1.0048  0.4255
  271SOL     OW 1711   6.282   3.890   6.219 -0.3921  0.2945  0.2156
  271SOL    HW1 1712   6.267   3.855   6.127 -0.0352 -1.6111  0.8304
  271SOL    HW2 1713   6.197   3.929   6.255 -0.8209  0.0667 -0.5365
  272SOL     OW 1714   2.835   5.563   3.165 -0.1927 -0.3454  0.4748
  272SOL    HW1 1715   2.808   5.512   3.083  0.1038 -1.4462  1.0426
  272SOL    HW2 1716   2.934   5.559   3.176 -0.0588  1.1617  0.0277
  273SOL     OW 1717   0.575   5.950   0.111  0.1433  0.0295 -0.0602
  273SOL    HW1 1718   0.605   5.878   0.048  1.1272  1.6631 -1.5411
  273SOL    HW2 1719   0.629   5.944   0.195 -1.0203 -2.0214  0.6353
  274SOL     OW 1720   5.403   3.708   3.678  0.3971  0.1028 -0.2862
  274SOL    HW1 1721   5.357   3.620   3.667 -1.5137  0.9909  0.1427
  274SOL    HW2 1722   5.355   3.778   3.625  0.2917  1.3734  1.3673
  275SOL     OW 1723   6.299   1.499   1.865  0.0319 -0.5635 -0.0837
  275SOL    HW1 1724   6.385   1.450   1.849 -0.5160 -1.4809 -0.2911
  275SOL    HW2 1725   6.230   1.468   1.800 -0.8585 -0.8564  0.9652
  276SOL     OW 1726   1.498   6.607   4.319 -0.3603 -0.7511 -0.4408
  276SOL    HW1 1727   1.414   6.554   4.324 -1.2983  0.7467  0.2021
  276SOL    HW2 1728   1.477   6.704   4.303  1.3211 -0.5940 -2.1562
  277SOL     OW 1729   0.626   4.738   2.422 -0.0363  0.6149  0.4476
  277SOL    HW1 1730   0.541   4.784   2.397  0.0202  0.6466  0.3094
  277SOL    HW2 1731   0.696   4.759   2.354 -0.5104 -1.1665 -0.6569
  278SOL     OW 1732   0.837   4.342   4.706 -0.5977  0.1922 -0.4493
  278SOL    HW1 1733   0.832   4.439   4.727  0.2604  0.3801 -1.0639
  278SOL    HW2 1734   0.920   4.303   4.746  0.9339  0.4985 -3.1074
  279SOL     OW 1735   7.012   2.197   2.441  0.4986 -0.0500  0.1312
  279SOL    HW1 1736   7.107   2.203   2.474  0.7068  0.4135 -0.5255
  279SOL    HW2 1737   6.982   2.102   2.444  1.9675 -0.6839 -2.2787
  280SOL     OW 1738   1.390   5.578   3.042 -0.3539  0.3885 -0.0563
  280SOL    HW1 1739   1.307   5.538   3.081 -0.9693 -0.9989 -2.5087
  280SOL    HW2 1740   1.438   5.507   2.990  1.8009  1.4541  0.4070
  281SOL     OW 1741   2.496   4.362   1.571  0.2122  0.0386 -0.0888
  281SOL    HW1 1742   2.454   4.391   1.657 -0.2873 -2.6699  0.6566
  281SOL    HW2 1743   2.477   4.265   1.555  2.4166 -0.1722 -1.9967
  282SOL     OW 1744   1.917   1.322   4.686  0.4099  0.0379 -0.3282
  282SOL    HW1 1745   1.871   1.409   4.670  1.3832  1.1710  2.4133
  282SOL    HW2 1746   2.007   1.324   4.644 -0.9991 -1.3263 -3.7633
  283SOL     OW 1747   2.040   2.898   4.593  0.1472  0.1999  0.2492
  283SOL    HW1 1748   2.058   2.974   4.531  0.6569  0.5312  0.7934
  283SOL    HW2 1749   2.074   2.813   4.552  0.5627  0.4301  0.1042
  284SOL     OW 1750   0.974   5.080   3.389  0.2443  0.3325  0.2035
  284SOL    HW1 1751   1.035   5.030   3.328 -0.3782  0.4253 -0.4994
  284SOL    HW2 1752   0.879   5.054   3.370  0.1151 -1.1111  2.4218
  285SOL     OW 1753   6.224   3.657   4.831  0.4795  0.0123  0.0821
  285SOL    HW1 1754   6.289   3.582   4.843 -0.8861 -1.3881 -0.8771
  285SOL    HW2 1755   6.234   3.695   4.740 -0.4188 -0.6296 -0.3020
  286SOL     OW 1756   3.495   2.880   1.276  0.0438 -0.2899  0.0230
  286SOL    HW1 1757   3.481   2.978   1.289 -1.9477 -0.4623 -0.5918
  286SOL    HW2 1758   3.590   2.863   1.250  0.2040  1.5644 -0.7276
  287SOL     OW 1759   0.826   0.619   5.220 -0.1114 -0.5287  0.2166
  287SOL    HW1 1760   0.900   0.627   5.153 -1.2889 -1.5620 -1.2724
  287SOL    HW2 1761   0.795   0.711   5.246 -0.7938 -0.0731 -2.0166
  288SOL     OW 1762   5.297   3.889   2.218  0.1584 -0.3520  0.7909
  288SOL    HW1 1763   5.362   3.932   2.154  0.9361  0.6263  2.1801
  288SOL    HW2 1764   5.212   3.869   2.170  0.8622 -0.0691 -0.6576
  289SOL     OW 1765   4.486   6.107   1.169 -0.0350  0.5741  0.2388
  289SOL    HW1 1766   4.472   6.197   1.210 -0.0073  0.1706  1.1448
  289SOL    HW2 1767   4.453   6.036   1.231 -1.6673  0.0134 -1.1655
  290SOL     OW 1768   1.486   0.315   3.669  0.0629 -0.6209  0.4076
  290SOL    HW1 1769   1.412   0.356   3.615 -1.5541 -0.4354  2.5959
  290SOL    HW2 1770   1.482   0.216   3.660 -2.0609 -0.7995  2.2582
  291SOL     OW 1771   6.635   1.754   1.410 -0.4235 -0.0310 -0.1509
  291SOL    HW1 1772   6.725   1.739   1.371 -0.5719  0.0541 -0.5283
  291SOL    HW2 1773   6.569   1.772   1.337 -0.4341  1.5336  0.2033
  292SOL     OW 1774   2.300   6.610   3.567 -0.5073 -0.2076 -0.0537
  292SOL    HW1 1775   2.396   6.618   3.592  0.1260 -1.5947 -1.8798
  292SOL    HW2 1776   2.251   6.564   3.641 -0.2759  2.2767  1.8041
  293SOL     OW 1777   2.800   6.122   3.757  0.2917 -0.3830 -0.0268
  293SOL    HW1 1778   2.789   6.165   3.846 -1.2550 -1.3209  0.2752
  293SOL    HW2 1779   2.897   6.113   3.736  0.6670  1.8910  0.5238
  294SOL     OW 1780   5.053   6.487   6.727  0.1717  0.4170  0.8449
  294SOL    HW1 1781   5.134   6.538   6.697  0.7165  0.1336  1.7896
  294SOL    HW2 1782   5.072   6.443   6.815 -0.5740 -0.7267  0.4522
  295SOL     OW 1783   6.460   1.808   4.375 -0.3589  0.1499 -0.1662
  295SOL    HW1 1784   6.527   1.842   4.441  1.0782  0.8090 -1.8792
  295SOL    HW2 1785   6.431   1.883   4.316 -0.1414 -0.7745 -1.4931
  296SOL     OW 1786   1.827   2.613   3.508  0.2078  0.1528 -0.1622
  296SOL    HW1 1787   1.887   2.542   3.546 -1.8425 -1.5073  0.2167
  296SOL    HW2 1788   1.771   2.651   3.582 -1.6658 -0.9083 -0.9759
  297SOL     OW 1789   1.443   4.956   1.090  0.2705 -0.5474  0.0659
  297SOL    HW1 1790   1.379   4.930   1.018 -1.8530  0.6417  1.4170
  297SOL    HW2 1791   1.477   4.873   1.136  1.1361 -1.2747 -1.7713
  298SOL     OW 1792   6.741   4.571   0.392  0.2079 -0.9251  0.3606
  298SOL    HW1 1793   6.786   4.492   0.351  1.6992  0.8626 -1.6532
  298SOL    HW2 1794   6.803   4.614   0.458  0.6843  0.3346 -0.8688
  299SOL     OW 1795   5.962   5.060   3.858  0.2206  0.0183  0.0249
  299SOL    HW1 1796   6.048   5.011   3.843  0.4989  0.3721  0.4471
  299SOL    HW2 1797   5.979   5.159   3.859  0.2151  0.0549  2.4612
  300SOL     OW 1798   6.692   4.747   2.389  0.0157 -0.0456 -0.0167
  300SOL    HW1 1799   6.626   4.812   2.352  1.5589  2.0273  0.6532
  300SOL    HW2 1800   6.783   4.789   2.390  1.0188 -2.0907  0.8549
  301SOL     OW 1801   6.082   2.688   3.992 -0.1140  0.0645 -0.2287
  301SOL    HW1 1802   6.160   2.675   4.054  0.7397  0.2319 -1.2379
  301SOL    HW2 1803   6.044   2.599   3.968 -2.2795  0.0289  2.6936
  302SOL     OW 1804   2.421   5.148   5.187  0.7149  0.6410 -0.3384
  302SOL    HW1 1805   2.411   5.051   5.163  0.1337  0.5314  0.3133
  302SOL    HW2 1806   2.497   5.159   5.251  0.3391  0.5088  0.1398
  303SOL     OW 1807   6.563   0.776   1.683 -0.0804  0.3655  0.0070
  303SOL    HW1 1808   6.475   0.769   1.730 -0.4691 -0.0126 -0.7495
  303SOL    HW2 1809   6.602   0.867   1.696  0.1094  0.0818  1.5445
  304SOL     OW 1810   2.363   0.562   6.624 -0.8087 -0.1435  0.1834
  304SOL    HW1 1811   2.429   0.581   6.697 -1.8435 -0.5954  1.2611
  304SOL    HW2 1812   2.397   0.485   6.568  0.8226  1.3030 -0.9369
  305SOL     OW 1813   1.750   4.666   0.443 -0.3785 -0.2594 -0.2462
  305SOL    HW1 1814   1.822   4.736   0.451 -0.6325 -0.0208 -0.0001
  305SOL    HW2 1815   1.757   4.621   0.355 -1.6670  1.7052 -1.4323
  306SOL     OW 1816   1.552   0.942   2.255  0.3561 -0.4891  0.3217
  306SOL    HW1 1817   1.546   0.918   2.352 -1.3586 -0.9895  0.1235
  306SOL    HW2 1818   1.481   0.893   2.205  0.9299  0.1277 -1.1239
  307SOL     OW 1819   4.001   5.892   0.902 -0.3883 -0.1526 -0.2544
  307SOL    HW1 1820   4.072   5.923   0.964 -0.7650  0.1181  0.0438
  307SOL    HW2 1821   4.023   5.920   0.809 -1.1040  1.7334  0.0982
  308SOL     OW 1822   0.668   6.871   5.183  0.2382 -0.3077  0.2668
  308SOL    HW1 1823   0.749   6.891   5.128  0.7021  1.1346  1.4213
  308SOL    HW2 1824   0.687   6.793   5.243  0.4429 -0.5475 -0.1020
  309SOL     OW 1825   3.887   4.884   5.479  0.1237 -0.0094  0.0302
  309SOL    HW1 1826   3.890   4.785   5.488  0.4664  0.0542  0.6479
  309SOL    HW2 1827   3.804   4.919   5.522  1.1461  0.1753  1.9752
  310SOL     OW 1828   3.418   4.151   1.140  0.2185 -0.5886  0.0550
  310SOL    HW1 1829   3.340   4.145   1.203 -1.1593  1.6950 -1.2744
  310SOL    HW2 1830   3.421   4.068   1.084 -1.1495 -0.8032  0.2545
  311SOL     OW 1831   6.573   6.146   1.295 -0.4456 -0.2721 -0.5072
  311SOL    HW1 1832   6.496   6.206   1.272  0.7416  1.4933 -0.1090
  311SOL    HW2 1833   6.541   6.072   1.353 -1.6628  1.0830  0.6388
  312SOL     OW 1834   5.523   6.718   5.895 -0.1792 -0.3730 -0.1892
  312SOL    HW1 1835   5.476   6.662   5.963 -3.0546  0.0985 -1.6511
  312SOL    HW2 1836   5.577   6.788   5.941 -0.7101 -1.0789  1.6004
  313SOL     OW 1837   0.390   6.143   1.176 -0.4121 -0.1141 -0.4049
  313SOL    HW1 1838   0.474   6.177   1.134 -0.5354 -1.5914 -2.0033
  313SOL    HW2 1839   0.401   6.046   1.199 -1.2031  0.0429  0.7370
  314SOL     OW 1840   4.274   5.562   2.350 -1.0963  0.7675 -0.1126
  314SOL    HW1 1841   4.302   5.474   2.310 -1.0376  0.7354 -0.0008
  314SOL    HW2 1842   4.286   5.634   2.282  0.5925  0.9760  0.3663
  315SOL     OW 1843   0.892   3.041   1.361  0.4245  0.1668 -0.1774
  315SOL    HW1 1844   0.880   2.948   1.328 -0.8128  0.3113 -0.1752
  315SOL    HW2 1845   0.820   3.099   1.325  1.5090  1.2691 -0.6403
  316SOL     OW 1846   2.145   3.756   3.316  0.6715 -0.4524 -0.4046
  316SOL    HW1 1847   2.232   3.737   3.362  0.0116 -1.2979  0.5349
  316SOL    HW2 1848   2.079   3.685   3.339  0.7652 -1.9640 -4.0363
  317SOL     OW 1849   1.335   1.679   2.474  0.5496 -0.3995  0.1099
  317SOL    HW1 1850   1.312   1.645   2.383 -1.4222 -0.2029  0.4905
  317SOL    HW2 1851   1.317   1.777   2.479  1.1996 -0.2956  0.5467
  318SOL     OW 1852   2.051   3.668   2.083  0.3649  0.0515  0.0641
  318SOL    HW1 1853   2.123   3.603   2.058  0.6864  0.7166 -0.7699
  318SOL    HW2 1854   1.970   3.651   2.027  0.7302  0.8763 -0.7436
  319SOL     OW 1855   1.006   0.995   4.559  0.0889  0.0608  0.3972
  319SOL    HW1 1856   1.022   1.083   4.514  0.2267  0.1701  0.6523
  319SOL    HW2 1857   1.041   0.999   4.653  1.3706 -0.7075 -0.0125
  320SOL     OW 1858   0.655   1.792   2.820 -0.2838  0.3657  0.0440
  320SOL    HW1 1859   0.676   1.799   2.918 -1.7153  2.2526  0.2743
  320SOL    HW2 1860   0.740   1.798   2.768  0.4496 -0.0518  1.1483
  321SOL     OW 1861   0.849   1.028   1.238  0.4036  0.2021 -0.4936
  321SOL    HW1 1862   0.764   0.983   1.266  0.4642 -0.0679 -0.7433
  321SOL    HW2 1863   0.871   1.099   1.304  2.1534 -2.3683  1.9030
  322SOL     OW 1864   4.444   4.136   5.866  0.1864 -0.1616 -0.1689
  322SOL    HW1 1865   4.425   4.108   5.960 -2.0393  0.5269 -0.3762
  322SOL    HW2 1866   4.510   4.211   5.866 -1.7563  1.6387  1.0587
  323SOL     OW 1867   0.163   4.237   2.146 -0.2283 -0.4148 -0.4200
  323SOL    HW1 1868   0.149   4.188   2.232  0.2923  0.6899  0.3248
  323SOL    HW2 1869   0.083   4.294   2.128  1.0879  2.2160  1.3375
  324SOL     OW 1870   6.487   0.967   3.816  0.1449 -0.2993  0.1763
  324SOL    HW1 1871   6.543   1.048   3.833 -1.3114  1.0342 -1.1518
  324SOL    HW2 1872   6.400   0.974   3.865 -1.9956  1.2758 -3.4593
  325SOL     OW 1873   1.741   3.055   3.372 -0.5348 -0.6490  0.1254
  325SOL    HW1 1874   1.651   3.061   3.415  0.0025 -1.9550  1.5323
  325SOL    HW2 1875   1.767   2.958   3.362  0.3832 -0.3187 -1.0127
  326SOL     OW 1876   1.783   2.309   5.123 -0.1912 -0.2543  0.2839
  326SOL    HW1 1877   1.786   2.323   5.222 -0.2408  0.9162  0.1324
  326SOL    HW2 1878   1.742   2.389   5.080  2.9949  0.8057 -1.0015
  327SOL     OW 1879   0.315   5.064   4.671  0.0838  0.2931  0.7617
  327SOL    HW1 1880   0.375   5.098   4.743  1.6292  1.5857 -1.0465
  327SOL    HW2 1881   0.355   5.083   4.582 -0.7740 -3.0396 -0.4935
  328SOL     OW 1882   2.764   4.840   2.928  0.1641 -0.2588 -0.2839
  328SOL    HW1 1883   2.723   4.894   2.855 -0.3229 -1.1262 -0.6777
  328SOL    HW2 1884   2.768   4.744   2.900  2.1643 -0.2740 -0.1183
  329SOL     OW 1885   5.998   4.405   1.116 -0.6398  0.1632 -0.3090
  329SOL    HW1 1886   5.983   4.308   1.137  0.7690  0.0512  0.2706
  329SOL    HW2 1887   5.932   4.460   1.166  0.1089 -0.3628  1.3180
  330SOL     OW 1888   2.001   3.237   6.753 -0.2992 -0.2023 -0.5302
  330SOL    HW1 1889   1.997   3.185   6.669 -0.5292  0.6500 -1.0640
  330SOL    HW2 1890   1.910   3.274   6.775 -0.2294 -0.3616  0.0564
  331SOL     OW 1891   2.131   3.929   6.179  0.0714  0.7209 -0.5734
  331SOL    HW1 1892   2.195   4.006   6.178 -1.1047  1.7089 -0.8347
  331SOL    HW2 1893   2.106   3.907   6.274 -0.3586  1.3138 -0.5466
  332SOL     OW 1894   4.266   0.712   3.099 -0.2619 -0.6597 -0.0575
  332SOL    HW1 1895   4.347   0.730   3.155  1.5169 -0.6129 -2.4813
  332SOL    HW2 1896   4.294   0.671   3.012 -2.3968  2.5858 -2.5511
  333SOL     OW 1897   4.730   0.223   0.376  0.8862 -0.0816 -0.0453
  333SOL    HW1 1898   4.758   0.193   0.285 -1.9010  0.4360 -1.1715
  333SOL    HW2 1899   4.662   0.296   0.367  0.8569  0.2752  2.4772
  334SOL     OW 1900   5.446   0.805   1.111 -0.4637 -0.1236  0.0770
  334SOL    HW1 1901   5.370   0.746   1.138  0.2111 -0.0175  2.4661
  334SOL    HW2 1902   5.454   0.881   1.176  1.8607 -0.3124  0.1141
  335SOL     OW 1903   3.953   1.061   2.334  0.0038 -0.4258  0.2990
  335SOL    HW1 1904   3.906   1.045   2.421 -1.5165  1.2183 -0.1699
  335SOL    HW2 1905   3.958   1.159   2.315 -0.1239 -0.7559 -1.6958
  336SOL     OW 1906   2.743   0.092   6.541  0.0217  0.3044 -0.4711
  336SOL    HW1 1907   2.735   0.053   6.450  0.3593 -1.8403  0.3697
  336SOL    HW2 1908   2.812   0.165   6.540 -1.1030  1.4251 -2.2199
  337SOL     OW 1909   1.566   3.902   1.225  0.0563 -0.0680  0.0651
  337SOL    HW1 1910   1.557   3.992   1.266 -0.4607  0.5419 -1.3150
  337SOL    HW2 1911   1.545   3.832   1.293  0.7024  0.8266  1.2192
  338SOL     OW 1912   2.804   2.628   1.184 -0.5293 -0.4379  0.0215
  338SOL    HW1 1913   2.878   2.603   1.246 -0.3795  1.3647  0.6253
  338SOL    HW2 1914   2.840   2.678   1.106 -1.2219  3.7538  2.0647
  339SOL     OW 1915   4.128   0.078   2.972 -0.5378 -0.3145 -0.4711
  339SOL    HW1 1916   4.042   0.026   2.966 -0.6233 -0.1921 -0.3101
  339SOL    HW2 1917   4.162   0.096   2.880 -1.2233  0.5232 -0.5725
  340SOL     OW 1918   6.002   3.431   3.575 -0.2737 -0.4247  0.5470
  340SOL    HW1 1919   5.946   3.432   3.492  0.1091 -5.0143 -0.0184
  340SOL    HW2 1920   5.943   3.444   3.655 -1.3480 -0.4250 -0.2199
  341SOL     OW 1921   3.718   4.231   6.094  0.1278 -0.0247  0.5216
  341SOL    HW1 1922   3.693   4.319   6.054 -1.5894 -0.2922  0.9159
  341SOL    HW2 1923   3.724   4.162   6.022 -0.8554 -0.0572  0.4507
  342SOL     OW 1924   5.921   2.642   0.212 -0.3120  0.0998 -0.2020
  342SOL    HW1 1925   5.990   2.692   0.159 -0.6913  1.1270  0.2463
  342SOL    HW2 1926   5.891   2.562   0.160 -0.9544  1.2862 -1.7548
  343SOL     OW 1927   2.404   0.059   2.620  0.3822 -0.1103 -0.0526
  343SOL    HW1 1928   2.373   0.152   2.598  0.7007  0.6792  2.4841
  343SOL    HW2 1929   2.488   0.064   2.675  1.1002 -1.9786 -0.8810
  344SOL     OW 1930   5.582   0.246   6.859 -0.5244  0.5178 -0.3755
  344SOL    HW1 1931   5.520   0.182   6.905  1.0134 -0.8626 -0.1260
  344SOL    HW2 1932   5.618   0.311   6.926  1.7647 -1.5340  0.4904
  345SOL     OW 1933   1.698   6.108   4.343 -0.4310 -0.0928  0.0880
  345SOL    HW1 1934   1.764   6.092   4.417  0.0254  1.8638  0.1579
  345SOL    HW2 1935   1.639   6.185   4.367 -0.7746  0.0936 -1.2671
  346SOL     OW 1936   2.943   0.840   6.141  0.0043 -0.2039 -0.4176
  346SOL    HW1 1937   2.890   0.801   6.216  2.1656 -0.2868  1.1650
  346SOL    HW2 1938   2.882   0.889   6.079 -1.7429  1.0620  2.1080
  347SOL     OW 1939   6.893   3.890   3.038 -0.3390 -0.3793  0.1548
  347SOL    HW1 1940   6.948   3.832   3.099  1.8646 -0.2385 -1.5951
  347SOL    HW2 1941   6.892   3.984   3.074  2.8197  0.2235 -1.0131
  348SOL     OW 1942   2.333   1.745   5.483 -0.2713 -0.1403  0.2095
  348SOL    HW1 1943   2.321   1.650   5.513 -0.0144 -0.4877 -0.7477
  348SOL    HW2 1944   2.262   1.802   5.523 -1.0962 -0.9459 -0.0775
  349SOL     OW 1945   2.107   5.500   2.902 -0.2998  0.7194  0.6361
  349SOL    HW1 1946   2.018   5.455   2.903 -1.8947  3.5897  2.9107
  349SOL    HW2 1947   2.168   5.455   2.966 -0.3999 -0.6357 -0.1786
  350SOL     OW 1948   4.607   2.733   1.856 -0.0978  0.2434  0.3256
  350SOL    HW1 1949   4.605   2.831   1.877  2.0513  0.2849  0.5874
  350SOL    HW2 1950   4.525   2.708   1.806 -0.7205  2.1779  0.3042
  351SOL     OW 1951   2.765   1.694   5.957 -0.3935 -0.0334 -0.1370
  351SOL    HW1 1952   2.831   1.766   5.936 -1.3843  0.9158 -0.0427
  351SOL    HW2 1953   2.768   1.624   5.885  2.0338 -1.0138  0.7841
  352SOL     OW 1954   1.416   1.209   5.710 -0.0929 -0.2596  0.6192
  352SOL    HW1 1955   1.464   1.189   5.625 -0.5979  0.3132  0.1853
  352SOL    HW2 1956   1.353   1.135   5.731 -1.5170  0.5284 -0.6542
  353SOL     OW 1957   1.595   0.051   2.814 -0.2462 -0.1413  0.3420
  353SOL    HW1 1958   1.572   0.142   2.848 -0.4362  0.1024 -0.4272
  353SOL    HW2 1959   1.547   0.034   2.728  0.9422 -0.3839 -0.2962
  354SOL     OW 1960   5.917   2.372   1.819 -0.1471  0.2619 -0.5321
  354SOL    HW1 1961   5.936   2.290   1.766 -0.5588 -0.1851  0.0001
  354SOL    HW2 1962   5.982   2.379   1.894 -0.1585  0.3812 -0.5338
  355SOL     OW 1963   6.947   0.715   2.148 -0.0419  0.4972 -0.7554
  355SOL    HW1 1964   6.932   0.704   2.246 -0.2311 -1.2001 -0.9571
  355SOL    HW2 1965   6.942   0.812   2.125 -1.2031  0.8253  0.7199
  356SOL     OW 1966   3.078   6.372   3.505 -0.1746  0.0681 -0.0197
  356SOL    HW1 1967   3.001   6.360   3.443  0.0907  0.5564 -0.4496
  356SOL    HW2 1968   3.163   6.351   3.457 -0.1107 -1.8666  0.8410
  357SOL     OW 1969   0.628   4.076   3.149  0.0780 -0.0318 -0.5957
  357SOL    HW1 1970   0.701   4.021   3.189  1.1705  0.8732 -1.2964
  357SOL    HW2 1971   0.552   4.084   3.214  0.0870 -1.9365 -0.3042
  358SOL     OW 1972   5.563   0.349   3.424 -0.3332 -0.2172  0.4129
  358SOL    HW1 1973   5.465   0.367   3.434  0.1015  2.3597  0.8909
  358SOL    HW2 1974   5.587   0.349   3.327 -0.6004  0.5707  0.3384
  359SOL     OW 1975   0.826   1.583   0.292  0.1301 -0.7888  0.2488
  359SOL    HW1 1976   0.905   1.540   0.337  0.0372  0.2378  1.4493
  359SOL    HW2 1977   0.859   1.638   0.215  0.4090 -1.6567 -0.2685
  360SOL     OW 1978   6.167   6.920   0.125  0.0066 -0.2164 -0.3049
  360SOL    HW1 1979   6.147   6.841   0.067  2.0330 -0.5056 -0.6929
  360SOL    HW2 1980   6.157   7.004   0.073  0.4838 -0.4000 -0.7027
  361SOL     OW 1981   3.216   1.403   1.573  0.0348  0.3447 -0.0443
  361SOL    HW1 1982   3.285   1.473   1.554  1.7985 -0.6105  2.3662
  361SOL    HW2 1983   3.170   1.424   1.660 -0.8121 -0.4760 -0.2751
  362SOL     OW 1984   2.107   3.074   6.283  0.3791  0.4094  0.2012
  362SOL    HW1 1985   2.134   2.978   6.278 -0.9219  0.0174  0.2990
  362SOL    HW2 1986   2.163   3.128   6.220  2.5849 -0.0346  1.7065
  363SOL     OW 1987   4.445   5.032   4.516 -0.3364 -0.1889  0.1781
  363SOL    HW1 1988   4.489   4.945   4.537  2.3890  1.2183  0.7618
  363SOL    HW2 1989   4.470   5.061   4.424 -1.6439 -0.2342 -0.2081
  364SOL     OW 1990   1.796   5.871   4.617  0.0774  0.0524 -0.3627
  364SOL    HW1 1991   1.777   5.883   4.715 -2.0316  1.2301 -0.8579
  364SOL    HW2 1992   1.821   5.959   4.577  2.3516 -0.6622 -0.6832
  365SOL     OW 1993   4.604   4.368   2.507  0.2760  0.1284  0.2503
  365SOL    HW1 1994   4.649   4.449   2.543  2.0237 -0.3119 -0.8206
  365SOL    HW2 1995   4.555   4.391   2.423 -1.0496  0.4844  1.0961
  366SOL     OW 1996   4.582   0.873   1.729  0.5498  0.2751 -0.1413
  366SOL    HW1 1997   4.621   0.803   1.789 -1.9281 -0.7368  0.4210
  366SOL    HW2 1998   4.557   0.831   1.641 -2.7244 -0.1524  0.8694
  367SOL     OW 1999   0.172   2.214   3.166  0.5460 -0.1277 -0.5296
  367SOL    HW1 2000   0.156   2.218   3.067  2.0538 -0.8762 -0.8315
  367SOL    HW2 2001   0.102   2.157   3.209 -0.5634  0.8232 -1.0472
  368SOL     OW 2002   0.493   5.458   3.738 -0.1404  0.1061 -0.9267
  368SOL    HW1 2003   0.504   5.509   3.823 -1.1710 -1.1851  0.0278
  368SOL    HW2 2004   0.397   5.455   3.712  0.0581 -0.2615 -1.6668
  369SOL     OW 2005   0.460   4.030   2.247  0.5203 -0.2654 -0.0135
  369SOL    HW1 2006   0.387   4.007   2.183  1.4642 -1.0093 -0.8655
  369SOL    HW2 2007   0.503   4.116   2.217  0.2066  0.0074  0.3089
  370SOL     OW 2008   4.048   1.609   6.236  0.0066  0.0408 -0.4868
  370SOL    HW1 2009   4.068   1.539   6.167 -0.9973 -0.4782 -0.2569
  370SOL    HW2 2010   4.097   1.693   6.213 -1.9191  0.5820 -3.0190
  371SOL     OW 2011   3.496   1.833   5.540  0.2400 -0.1559  0.2769
  371SOL    HW1 2012   3.455   1.828   5.631  1.0032 -1.4013  0.5691
  371SOL    HW2 2013   3.546   1.920   5.530 -2.5653  1.5257 -0.1806
  372SOL     OW 2014   2.221   5.665   1.956  0.4710  0.2708 -0.3747
  372SOL    HW1 2015   2.235   5.755   1.998  0.8346 -0.2544  0.6615
  372SOL    HW2 2016   2.175   5.676   1.868 -2.1504  1.2799  1.0245
  373SOL     OW 2017   1.349   6.574   5.063 -0.1505  0.5288  0.0507
  373SOL    HW1 2018   1.323   6.648   5.125  0.1713 -0.0396  0.8847
  373SOL    HW2 2019   1.268   6.540   5.015 -0.1506  2.1247 -1.1689
  374SOL     OW 2020   5.226   1.180   1.291 -0.0632 -0.0245  0.3191
  374SOL    HW1 2021   5.174   1.103   1.254 -0.9197  0.9857 -0.6508
  374SOL    HW2 2022   5.226   1.176   1.391 -1.8938 -0.1410  0.3334
  375SOL     OW 2023   5.667   4.588   1.706  0.0244 -0.3046 -0.1570
  375SOL    HW1 2024   5.742   4.571   1.642 -0.4769 -1.3216 -0.4854
  375SOL    HW2 2025   5.624   4.501   1.732 -1.9098  0.3359 -1.0186
  376SOL     OW 2026   3.080   4.220   6.223 -0.1281 -0.3125 -0.0546
  376SOL    HW1 2027   3.154   4.278   6.258 -0.2504 -0.7399  0.9762
  376SOL    HW2 2028   3.011   4.277   6.178  0.8298  0.0853 -1.0602
  377SOL     OW 2029   0.221   1.874   3.058 -0.3306  0.1291  0.3000
  377SOL    HW1 2030   0.204   1.950   2.995  0.7897 -1.7236 -2.3886
  377SOL    HW2 2031   0.133   1.841   3.094 -0.9928  1.3039 -0.1760
  378SOL     OW 2032   5.455   0.922   4.662  0.0507  0.3964 -0.2210
  378SOL    HW1 2033   5.436   0.952   4.755  2.5502  0.4819  0.3107
  378SOL    HW2 2034   5.394   0.846   4.639  0.7681 -1.0338  2.2779
  379SOL     OW 2035   1.137   2.620   0.634 -0.2994  0.6667 -0.2930
  379SOL    HW1 2036   1.086   2.705   0.649 -0.2100  0.6585  0.0584
  379SOL    HW2 2037   1.159   2.612   0.537  0.0201  1.2309 -0.2716
  380SOL     OW 2038   0.798   1.629   5.633  0.1956  0.1542  0.7497
  380SOL    HW1 2039   0.798   1.579   5.546 -0.3078  0.1047  0.7789
  380SOL    HW2 2040   0.818   1.726   5.616 -2.2656  0.6442  0.2861
  381SOL     OW 2041   7.003   6.666   6.288 -0.1733 -0.7622  0.1470
  381SOL    HW1 2042   7.058   6.744   6.259  1.9721 -1.9607  0.7580
  381SOL    HW2 2043   6.962   6.622   6.208 -1.1558  0.7657 -0.2242
  382SOL     OW 2044   1.579   5.001   0.560  0.3461 -0.0781  0.0561
  382SOL    HW1 2045   1.494   5.027   0.605  0.2051  0.9295 -0.7533
  382SOL    HW2 2046   1.630   4.938   0.619 -1.1276 -1.0261  0.3835
  383SOL     OW 2047   4.270   1.374   0.620  0.2104 -0.0158  0.0672
  383SOL    HW1 2048   4.184   1.358   0.669  0.6094 -0.1692  0.7262
  383SOL    HW2 2049   4.339   1.309   0.651  1.0212  1.1233  0.7059
  384SOL     OW 2050   2.049   3.732   4.572  0.1384 -0.0339 -0.1724
  384SOL    HW1 2051   2.037   3.720   4.670 -0.0396 -0.6989 -0.2708
  384SOL    HW2 2052   2.126   3.793   4.555 -0.0431  0.3606  0.3823
  385SOL     OW 2053   5.256   2.889   0.572 -0.0241  0.2221  0.1773
  385SOL    HW1 2054   5.268   2.811   0.633 -0.4375 -0.3027 -0.4048
  385SOL    HW2 2055   5.225   2.857   0.483 -1.1325  1.1207  0.2135
  386SOL     OW 2056   3.981   5.806   4.671  0.0990 -0.1088 -0.1022
  386SOL    HW1 2057   3.973   5.902   4.699 -0.6610  0.2936 -1.6196
  386SOL    HW2 2058   4.072   5.790   4.632  1.0862 -0.6183  2.2167
  387SOL     OW 2059   6.483   1.524   4.542  0.1834  0.1464  0.3313
  387SOL    HW1 2060   6.390   1.560   4.533  0.1421  0.1897  0.8925
  387SOL    HW2 2061   6.516   1.541   4.634  2.1518  3.4974 -0.8129
  388SOL     OW 2062   6.526   1.914   4.850  0.5551  0.3153 -0.4013
  388SOL    HW1 2063   6.490   1.962   4.929  2.6603  0.7320  0.3588
  388SOL    HW2 2064   6.460   1.919   4.775 -0.2748  2.3753  0.3958
  389SOL     OW 2065   6.705   3.848   1.901  0.4200  0.2495  0.2700
  389SOL    HW1 2066   6.701   3.921   1.969  1.4620  0.6558 -0.0926
  389SOL    HW2 2067   6.741   3.765   1.943  0.3284  0.2766  0.4021
  390SOL     OW 2068   1.494   1.250   0.246 -0.3122 -0.1515 -0.4561
  390SOL    HW1 2069   1.548   1.236   0.163  0.4282 -1.0180  0.1530
  390SOL    HW2 2070   1.539   1.205   0.323 -0.9887  0.6367  0.4228
  391SOL     OW 2071   3.785   3.630   4.492  0.0268 -0.2347 -0.0364
  391SOL    HW1 2072   3.816   3.723   4.475  1.4512 -0.7692 -0.5030
  391SOL    HW2 2073   3.864   3.568   4.493 -0.8582 -1.3862  0.6109
  392SOL     OW 2074   1.269   2.569   2.930  0.1528  0.1741  0.1631
  392SOL    HW1 2075   1.244   2.504   3.002 -1.7851 -1.0920 -1.5434
  392SOL    HW2 2076   1.228   2.658   2.950 -0.5657 -0.2252  0.5114
  393SOL     OW 2077   1.641   5.857   0.411  0.1215 -0.0845 -0.5343
  393SOL    HW1 2078   1.724   5.908   0.433  0.0250 -0.6631  1.3260
  393SOL    HW2 2079   1.560   5.910   0.436 -0.0350 -0.2458 -0.6849
  394SOL     OW 2080   6.063   3.245   5.986  0.0039  0.2324  0.5666
  394SOL    HW1 2081   6.142   3.190   5.957  1.1353  1.2374  1.5796
  394SOL    HW2 2082   6.024   3.291   5.907  1.2536  0.7120  0.1991
  395SOL     OW 2083   1.793   6.214   6.952 -0.5065 -0.0617 -0.0472
  395SOL    HW1 2084   1.880   6.234   6.997 -0.4589 -0.5900  0.1051
  395SOL    HW2 2085   1.789   6.261   6.864  0.0938 -0.3472 -0.2286
  396SOL     OW 2086   6.802   6.789   1.414 -0.1191 -0.2271 -0.4059
  396SOL    HW1 2087   6.784   6.851   1.491 -1.1868 -1.2886  0.2556
  396SOL    HW2 2088   6.733   6.803   1.343 -0.1551 -0.3990 -0.4068
  397SOL     OW 2089   4.763   1.668   3.532 -0.2648 -0.5393 -0.1495
  397SOL    HW1 2090   4.738   1.653   3.627  0.7551  0.9056  0.3800
  397SOL    HW2 2091   4.710   1.744   3.495  0.6844  0.1367 -0.1429
  398SOL     OW 2092   1.259   2.219   1.983  0.0751  0.1100 -0.1971
  398SOL    HW1 2093   1.220   2.134   2.017 -0.0881  0.0801 -0.4542
  398SOL    HW2 2094   1.186   2.283   1.960  0.1999  1.2596  2.2749
  399SOL     OW 2095   5.894   5.443   4.780 -0.4190 -0.0849 -0.8053
  399SOL    HW1 2096   5.887   5.375   4.852 -0.1420 -0.3375 -1.0127
  399SOL    HW2 2097   5.890   5.398   4.691  1.9841 -0.1115 -0.9638
  400SOL     OW 2098   0.505   0.912   3.820  0.3563  0.3433 -0.4781
  400SOL    HW1 2099   0.452   0.839   3.862  0.4419  0.1571 -0.6957
  400SOL    HW2 2100   0.444   0.973   3.770  0.3329  0.1942 -0.6315
  401SOL     OW 2101   1.197   5.179   4.253 -0.3149 -0.0435  0.0640
  401SOL    HW1 2102   1.169   5.083   4.262 -1.0813  0.2335  0.7601
  401SOL    HW2 2103   1.146   5.222   4.179 -0.4236 -0.0117  0.1568
  402SOL     OW 2104   1.098   1.404   5.424  0.3581 -0.2012  0.5199
  402SOL    HW1 2105   1.002   1.376   5.428 -0.3956  2.1803  0.4045
  402SOL    HW2 2106   1.136   1.403   5.516 -0.1732  0.1267  0.7460
  403SOL     OW 2107   3.308   6.912   4.255 -0.1453  0.3188  0.2880
  403SOL    HW1 2108   3.287   6.927   4.351  2.6361  0.6493  0.9117
  403SOL    HW2 2109   3.260   6.830   4.223 -0.2830 -0.4139  2.2454
  404SOL     OW 2110   3.374   0.941   1.767  0.1600 -0.0263  0.3232
  404SOL    HW1 2111   3.409   0.860   1.719  0.0698 -0.8908  1.6540
  404SOL    HW2 2112   3.415   0.945   1.858 -0.3704  1.0513  0.5204
  405SOL     OW 2113   4.502   6.816   3.070 -0.7285  0.1392 -0.6162
  405SOL    HW1 2114   4.463   6.898   3.109 -1.0924  0.2656 -1.2294
  405SOL    HW2 2115   4.429   6.756   3.036 -0.4820 -0.5334  0.0046
  406SOL     OW 2116   0.687   0.988   0.454  0.1973 -0.2535  0.4831
  406SOL    HW1 2117   0.713   0.892   0.439 -1.4033 -0.4038 -1.8911
  406SOL    HW2 2118   0.604   1.008   0.401 -0.5544  1.9824  2.3587
  407SOL     OW 2119   1.592   3.300   4.127 -0.8730  0.4024 -0.1643
  407SOL    HW1 2120   1.553   3.332   4.214 -1.4218  1.9058 -0.9259
  407SOL    HW2 2121   1.666   3.235   4.146  0.8625  2.6900  1.5560
  408SOL     OW 2122   2.492   0.459   2.502  0.2335 -0.0936  0.5864
  408SOL    HW1 2123   2.459   0.509   2.422  0.0175 -0.8278  0.2090
  408SOL    HW2 2124   2.425   0.389   2.528  0.5109 -0.1670  1.1286
  409SOL     OW 2125   1.551   5.181   3.250 -0.1574 -0.0944  0.4556
  409SOL    HW1 2126   1.551   5.221   3.342 -0.2547 -3.5401  2.0948
  409SOL    HW2 2127   1.632   5.212   3.200 -0.2324  2.0410  1.5602
  410SOL     OW 2128   1.612   3.993   2.266  0.3495  0.3884 -0.7174
  410SOL    HW1 2129   1.608   4.083   2.223 -2.5717  0.6492 -0.0709
  410SOL    HW2 2130   1.606   4.003   2.366  0.8404 -0.4928 -0.5904
  411SOL     OW 2131   1.093   1.276   6.771 -0.2624  0.1035 -0.4651
  411SOL    HW1 2132   1.166   1.262   6.705  0.6652  0.1390  0.5340
  411SOL    HW2 2133   1.050   1.188   6.792  0.0749 -0.0445 -0.3967
  412SOL     OW 2134   2.084   3.475   4.452  0.0870  0.0530  0.0452
  412SOL    HW1 2135   2.096   3.418   4.533  1.6969  0.8206  0.3824
  412SOL    HW2 2136   2.043   3.562   4.477 -0.9749 -0.3457 -0.2448
  413SOL     OW 2137   6.664   4.448   3.628 -0.1263 -0.2522 -0.5122
  413SOL    HW1 2138   6.680   4.518   3.559 -0.6101 -0.5629 -0.9500
  413SOL    HW2 2139   6.566   4.436   3.641 -0.0590  1.1043  1.5964
  414SOL     OW 2140   1.837   6.261   0.701 -0.0370 -0.8764 -0.0372
  414SOL    HW1 2141   1.775   6.319   0.753 -0.6457  1.1048 -2.7246
  414SOL    HW2 2142   1.928   6.300   0.702  0.2033 -1.4329  0.3971
  415SOL     OW 2143   5.985   3.789   1.412  0.1277  0.2709  0.1669
  415SOL    HW1 2144   6.044   3.861   1.450  0.0828  0.5159 -0.2208
  415SOL    HW2 2145   6.035   3.702   1.411  0.9497  0.7235 -1.3143
  416SOL     OW 2146   5.553   3.641   5.402 -0.2654 -0.0402  0.1444
  416SOL    HW1 2147   5.477   3.699   5.432  1.3500  1.3395  1.8065
  416SOL    HW2 2148   5.575   3.661   5.307 -0.6506  1.0527  0.2760
  417SOL     OW 2149   2.592   1.118   4.915 -0.0528 -0.0460  0.3405
  417SOL    HW1 2150   2.664   1.049   4.921  1.8157  1.7024 -0.8431
  417SOL    HW2 2151   2.549   1.129   5.005  2.1817 -0.0850  1.4687
  418SOL     OW 2152   4.037   6.234   6.054  0.4162  0.3635  0.4070
  418SOL    HW1 2153   3.982   6.172   5.998  1.3616  0.4047 -0.5897
  418SOL    HW2 2154   3.977   6.282   6.118 -0.8036  0.6834 -0.9087
  419SOL     OW 2155   4.139   0.368   5.230  0.3105 -0.3126 -0.3371
  419SOL    HW1 2156   4.099   0.310   5.301  1.5573  1.8871  2.3414
  419SOL    HW2 2157   4.223   0.327   5.196 -0.7161 -1.7796 -1.1790
  420SOL     OW 2158   3.502   0.045   2.465  0.5234 -0.4313 -0.6742
  420SOL    HW1 2159   3.424  -0.004   2.425  0.3734  0.5741 -1.6579
  420SOL    HW2 2160   3.517   0.012   2.558 -0.4707 -1.3222 -0.8049
  421SOL     OW 2161   5.596   3.993   5.069 -0.2687 -0.2554  0.6780
  421SOL    HW1 2162   5.527   3.921   5.066 -0.0881 -0.3978 -1.3858
  421SOL    HW2 2163   5.677   3.963   5.018 -0.4556  1.6321 -0.8333
  422SOL     OW 2164   4.055   1.939   3.116 -0.9743  0.1571 -0.0906
  422SOL    HW1 2165   4.003   1.921   3.199  0.7784  1.2001  1.3279
  422SOL    HW2 2166   4.017   2.019   3.069 -2.2464 -0.7074 -0.5659
  423SOL     OW 2167   3.996   6.751   0.422  0.0639 -0.1242 -0.1771
  423SOL    HW1 2168   4.054   6.833   0.429 -0.3338  0.2668 -1.2262
  423SOL    HW2 2169   3.922   6.757   0.489 -0.5089  0.8480 -0.8629
  424SOL     OW 2170   1.566   5.503   2.785  0.0940  0.1815 -0.4419
  424SOL    HW1 2171   1.638   5.434   2.789 -1.5965 -1.7475 -1.2277
  424SOL    HW2 2172   1.509   5.486   2.705 -1.8251  0.9938  0.6920
  425SOL     OW 2173   3.125   0.012   6.292 -0.5633 -0.0090 -0.3381
  425SOL    HW1 2174   3.042   0.068   6.283  0.1448  1.0018 -0.6409
  425SOL    HW2 2175   3.206   0.069   6.278  0.1534 -1.4428 -2.6176
  426SOL     OW 2176   3.096   1.850   3.904  0.0791  0.7311 -0.1841
  426SOL    HW1 2177   3.005   1.889   3.891 -0.2181  0.1664  0.1526
  426SOL    HW2 2178   3.114   1.781   3.833  0.8444  1.8849 -1.1451
  427SOL     OW 2179   5.647   0.796   4.236 -0.1115 -0.1859  0.0318
  427SOL    HW1 2180   5.715   0.730   4.203  0.2645 -0.1533  0.7267
  427SOL    HW2 2181   5.558   0.775   4.195  0.1103 -0.8225 -0.1394
  428SOL     OW 2182   2.169   5.754   6.657  0.2364 -0.0288 -0.2022
  428SOL    HW1 2183   2.267   5.769   6.650  0.6805 -1.2899  2.0567
  428SOL    HW2 2184   2.141   5.683   6.593  0.7828  0.3690 -0.8904
  429SOL     OW 2185   0.808   0.658   2.712  0.0677 -0.3127  0.2020
  429SOL    HW1 2186   0.786   0.743   2.760 -1.2426  0.3982 -1.5141
  429SOL    HW2 2187   0.760   0.582   2.755 -1.0049  0.2886  0.1105
  430SOL     OW 2188   1.791   1.888   4.288  0.0989 -0.0978 -0.3126
  430SOL    HW1 2189   1.717   1.875   4.353 -0.7379 -1.8683 -1.5090
  430SOL    HW2 2190   1.790   1.981   4.253 -0.6800  0.2928  0.7218
  431SOL     OW 2191   2.855   0.992   2.335 -0.8021  0.7778 -0.2301
  431SOL    HW1 2192   2.872   1.084   2.300 -1.6947  0.5584 -1.2957
  431SOL    HW2 2193   2.798   0.942   2.270 -0.0696 -0.6396  0.1813
  432SOL     OW 2194   5.708   2.039   2.130  0.7973  0.0925 -0.1395
  432SOL    HW1 2195   5.659   1.957   2.157  0.7755 -0.5099 -1.8885
  432SOL    HW2 2196   5.684   2.115   2.190 -2.6080 -0.0533 -1.1308
  433SOL     OW 2197   1.705   3.008   5.964  0.3303 -0.9283 -0.0050
  433SOL    HW1 2198   1.710   3.106   5.943  0.9607 -1.5153 -3.1607
  433SOL    HW2 2199   1.625   2.969   5.918  0.9250 -2.1376 -0.0451
  434SOL     OW 2200   4.573   6.174   3.068 -0.0056 -0.1535 -0.3641
  434SOL    HW1 2201   4.499   6.109   3.083 -1.0263  1.2493  0.9878
  434SOL    HW2 2202   4.545   6.243   3.002  0.0220  0.4913  0.2929
  435SOL     OW 2203   2.165   3.447   6.739 -0.6760 -0.1921 -0.1649
  435SOL    HW1 2204   2.099   3.373   6.751 -0.3949 -0.3162  0.7190
  435SOL    HW2 2205   2.242   3.432   6.801 -1.3551  1.6548  1.2260
  436SOL     OW 2206   6.038   6.219   1.011  0.2918 -0.5758  0.3400
  436SOL    HW1 2207   6.071   6.265   0.928 -0.7951 -1.1313 -0.4302
  436SOL    HW2 2208   5.993   6.134   0.985  0.0419 -0.8160  1.5297
  437SOL     OW 2209   0.777   1.231   0.598  0.2735  0.4883 -0.4807
  437SOL    HW1 2210   0.843   1.219   0.672  1.1848  0.3313 -1.3069
  437SOL    HW2 2211   0.751   1.142   0.561 -0.0849  0.5756 -0.4461
  438SOL     OW 2212   2.551   4.852   3.801 -0.0629 -0.2779  0.4213
  438SOL    HW1 2213   2.469   4.844   3.743  0.1921 -0.1146  0.0361
  438SOL    HW2 2214   2.524   4.846   3.897 -0.8217  1.9381  0.4156
  439SOL     OW 2215   6.897   0.528   5.138 -0.6965  0.0787  0.3363
  439SOL    HW1 2216   6.958   0.592   5.184  1.0627 -0.2867 -1.3824
  439SOL    HW2 2217   6.908   0.536   5.039 -3.4413 -0.0392 -0.0705
  440SOL     OW 2218   0.792   2.338   0.291 -0.3356  0.0846 -0.1602
  440SOL    HW1 2219   0.817   2.435   0.291 -1.9038  0.5204  0.0305
  440SOL    HW2 2220   0.704   2.326   0.337 -0.1073 -1.4589 -0.0671
  441SOL     OW 2221   6.791   3.227   4.015  0.5762  0.6432  0.1713
  441SOL    HW1 2222   6.787   3.161   3.939  0.8425  1.1473 -0.2838
  441SOL    HW2 2223   6.708   3.219   4.070  0.4717  0.1327 -0.0497
  442SOL     OW 2224   3.723   3.477   4.726  0.0532  0.3899 -0.2193
  442SOL    HW1 2225   3.642   3.507   4.776  0.7775  2.6013 -0.2514
  442SOL    HW2 2226   3.735   3.534   4.645  0.0425 -1.8177 -1.8422
  443SOL     OW 2227   5.702   3.370   2.623 -0.2024  0.1351  0.0084
  443SOL    HW1 2228   5.621   3.413   2.585 -2.4606 -1.1463  2.9108
  443SOL    HW2 2229   5.727   3.291   2.568  0.3192  1.6142 -1.9785
  444SOL     OW 2230   5.573   3.058   3.110 -0.8104  0.1183  0.2146
  444SOL    HW1 2231   5.505   2.988   3.135 -0.7812 -0.1648 -0.4605
  444SOL    HW2 2232   5.634   3.021   3.040 -0.7479  0.7952 -0.0973
  445SOL     OW 2233   3.176   0.321   1.603 -0.0902 -0.6467  0.0763
  445SOL    HW1 2234   3.171   0.304   1.504 -0.7306 -3.1316  0.4888
  445SOL    HW2 2235   3.217   0.411   1.618 -0.4512  0.0351 -2.4503
  446SOL     OW 2236   0.127   2.515   0.069  0.2042 -0.3173  0.3005
  446SOL    HW1 2237   0.078   2.583   0.123 -1.0441 -1.1793  0.2985
  446SOL    HW2 2238   0.190   2.464   0.128 -1.0848 -1.1965  0.9715
  447SOL     OW 2239   0.240   2.413   6.818  0.1906 -0.2850 -0.1179
  447SOL    HW1 2240   0.204   2.473   6.889  2.8054  1.0005  0.2400
  447SOL    HW2 2241   0.214   2.318   6.838 -1.7468  0.3728  0.7765
  448SOL     OW 2242   3.620   6.474   5.914  0.0298  0.1502 -0.0490
  448SOL    HW1 2243   3.591   6.569   5.914  0.8016  0.3901 -0.4357
  448SOL    HW2 2244   3.635   6.444   6.008  3.3179  1.5337 -0.0066
  449SOL     OW 2245   1.545   6.660   5.903 -1.0518 -0.1540  0.1380
  449SOL    HW1 2246   1.581   6.571   5.874 -1.6614 -0.4056  0.1434
  449SOL    HW2 2247   1.621   6.718   5.931 -0.7253 -1.0088  1.0820
  450SOL     OW 2248   6.669   4.856   3.843  0.0302 -0.0339 -0.6115
  450SOL    HW1 2249   6.683   4.759   3.864  0.9045  0.1630 -0.2413
  450SOL    HW2 2250   6.742   4.910   3.885 -0.6965  0.8364 -0.4428
  451SOL     OW 2251   0.445   0.554   4.240 -0.0518 -0.1675  0.2652
  451SOL    HW1 2252   0.354   0.530   4.274 -0.0571  0.7572  0.9278
  451SOL    HW2 2253   0.481   0.631   4.292  1.0761 -0.4596 -0.0615
  452SOL     OW 2254   4.238   6.049   1.967  0.0114  0.0663  0.4741
  452SOL    HW1 2255   4.317   6.110   1.962 -1.4980  2.1775  0.9923
  452SOL    HW2 2256   4.198   6.056   2.058 -1.3276 -0.2220 -0.0833
  453SOL     OW 2257   4.629   2.581   6.107  0.3424  0.5866 -0.1568
  453SOL    HW1 2258   4.558   2.554   6.172 -0.7520 -1.1233 -1.9710
  453SOL    HW2 2259   4.698   2.509   6.101  0.9153  1.1307 -0.2901
  454SOL     OW 2260   0.165   2.676   3.980 -0.3701 -0.3914  0.3991
  454SOL    HW1 2261   0.197   2.768   4.003 -1.5953 -0.0533  0.7867
  454SOL    HW2 2262   0.214   2.610   4.036 -0.7218  0.1578  1.3695
  455SOL     OW 2263   5.111   6.907   1.301  0.6238  0.4935  0.3094
  455SOL    HW1 2264   5.173   6.835   1.332  0.5273 -0.3117 -1.2589
  455SOL    HW2 2265   5.029   6.866   1.261 -0.8323  1.5458  2.0598
  456SOL     OW 2266   6.696   2.011   1.160 -0.7358 -0.6476 -0.0389
  456SOL    HW1 2267   6.687   2.041   1.255 -1.7280  0.0629 -0.3399
  456SOL    HW2 2268   6.667   1.916   1.151 -0.4173 -0.7917  0.3969
  457SOL     OW 2269   3.731   5.815   0.622 -0.1077  0.0829  0.0985
  457SOL    HW1 2270   3.711   5.891   0.561  0.9665 -0.7841 -1.4083
  457SOL    HW2 2271   3.707   5.840   0.716 -1.9922  1.3800 -0.6793
  458SOL     OW 2272   3.945   1.069   4.263 -0.1993  0.4311 -0.1588
  458SOL    HW1 2273   4.032   1.115   4.246  0.4243 -1.1064 -1.3744
  458SOL    HW2 2274   3.951   0.974   4.230 -2.6752  0.5936 -1.2668
  459SOL     OW 2275   4.361   1.316   4.282  0.0665 -0.0669 -0.1353
  459SOL    HW1 2276   4.386   1.275   4.370  2.0121  1.4466  0.0797
  459SOL    HW2 2277   4.356   1.415   4.292  0.9479  0.1782 -1.8593
  460SOL     OW 2278   7.010   2.756   6.203 -0.5618  0.4077  0.0461
  460SOL    HW1 2279   7.018   2.676   6.144  1.0587  0.2088  0.4966
  460SOL    HW2 2280   6.979   2.728   6.294  0.2287  0.2493  0.2717
  461SOL     OW 2281   6.964   6.504   4.443 -0.1095  0.6217  0.4477
  461SOL    HW1 2282   6.981   6.452   4.526 -0.0954  1.0130  0.6957
  461SOL    HW2 2283   7.051   6.527   4.400 -0.1322  0.0601  0.0950
  462SOL     OW 2284   3.896   5.351   5.191 -0.0559 -0.1395 -0.1704
  462SOL    HW1 2285   3.987   5.310   5.203 -0.2800 -0.5200  0.2828
  462SOL    HW2 2286   3.831   5.304   5.251 -0.7189 -0.4175 -1.0863
  463SOL     OW 2287   7.001   1.419   2.445  0.0903  0.4192  0.4077
  463SOL    HW1 2288   6.906   1.436   2.470 -0.0532  1.7532 -0.9095
  463SOL    HW2 2289   7.042   1.356   2.511 -1.3627  0.7166  1.6521
  464SOL     OW 2290   6.745   5.733   5.724 -0.0791  0.2907  0.1633
  464SOL    HW1 2291   6.795   5.800   5.779 -0.4583  0.7786 -0.0810
  464SOL    HW2 2292   6.647   5.752   5.727 -0.3032 -0.8401  0.8798
  465SOL     OW 2293   1.181   4.348   6.878 -0.5492  0.2333  0.1165
  465SOL    HW1 2294   1.180   4.432   6.824  0.8324  0.6534  0.7049
  465SOL    HW2 2295   1.239   4.280   6.833 -0.5876  0.0673  0.3175
  466SOL     OW 2296   4.869   4.509   3.169  0.2308 -0.0404 -0.6075
  466SOL    HW1 2297   4.847   4.561   3.087  0.5279 -0.1791 -0.7783
  466SOL    HW2 2298   4.958   4.465   3.157  0.7386  0.7342  0.1613
  467SOL     OW 2299   0.010   0.360   1.413 -0.0138 -0.1266  0.8118
  467SOL    HW1 2300  -0.009   0.262   1.420 -0.2077 -0.0858  0.8735
  467SOL    HW2 2301  -0.027   0.408   1.493  0.4389 -0.0546  0.9796
  468SOL     OW 2302   3.518   5.357   5.726  0.1111  0.1687  0.4652
  468SOL    HW1 2303   3.494   5.416   5.648 -1.7783 -1.0271  0.0698
  468SOL    HW2 2304   3.485   5.399   5.811  2.5270  1.6730  0.7540
  469SOL     OW 2305   5.716   5.426   5.414  0.1894 -0.2020  0.7066
  469SOL    HW1 2306   5.803   5.378   5.424 -0.1953 -0.7573  1.4981
  469SOL    HW2 2307   5.695   5.475   5.498  0.5742  1.3878 -0.0941
  470SOL     OW 2308   1.510   4.637   3.879  0.1986  0.1941 -0.1583
  470SOL    HW1 2309   1.582   4.675   3.937  0.7010  0.2362 -0.8020
  470SOL    HW2 2310   1.544   4.629   3.785 -0.3065 -0.7079 -0.2706
  471SOL     OW 2311   1.280   1.178   3.840  0.2947  0.3692  0.7462
  471SOL    HW1 2312   1.341   1.195   3.763 -1.0176 -1.2903 -0.7626
  471SOL    HW2 2313   1.304   1.090   3.882 -1.8360 -1.0176 -0.7748
  472SOL     OW 2314   5.173   4.428   5.533 -0.5280  0.4852 -0.5888
  472SOL    HW1 2315   5.209   4.346   5.578 -3.4545  0.0665  1.2200
  472SOL    HW2 2316   5.205   4.509   5.582 -0.2547  0.2557 -0.3842
  473SOL     OW 2317   5.885   3.847   3.129  0.3729  0.2399  0.5042
  473SOL    HW1 2318   5.892   3.861   3.030 -0.8635  0.8199  0.4862
  473SOL    HW2 2319   5.877   3.935   3.174  1.3297 -0.0002  1.1748
  474SOL     OW 2320   0.100   4.643   3.287 -0.1010 -0.8813  0.8038
  474SOL    HW1 2321   0.093   4.731   3.336 -0.4446 -1.2418  1.4115
  474SOL    HW2 2322   0.013   4.595   3.294 -0.2474 -0.8170 -0.4185
  475SOL     OW 2323   4.782   1.822   2.051 -0.1797 -0.0970 -1.0472
  475SOL    HW1 2324   4.844   1.872   1.991  0.2983  0.4739 -0.1138
  475SOL    HW2 2325   4.810   1.726   2.055  0.5703  0.1241 -0.7515
  476SOL     OW 2326   0.561   2.839   0.044  0.2226 -0.3096  0.0112
  476SOL    HW1 2327   0.518   2.771  -0.016  0.8010 -0.8662  0.2117
  476SOL    HW2 2328   0.498   2.863   0.118 -0.5285  0.4417 -0.8456
  477SOL     OW 2329   5.344   1.673   3.428 -0.4474  0.0860  0.3765
  477SOL    HW1 2330   5.321   1.689   3.524  0.6592 -0.1845  0.7016
  477SOL    HW2 2331   5.269   1.624   3.384 -0.7890 -0.1714  1.2162
  478SOL     OW 2332   4.180   4.850   1.864  0.5686  0.4231  0.1357
  478SOL    HW1 2333   4.250   4.810   1.924 -0.4210 -0.2663  0.8633
  478SOL    HW2 2334   4.132   4.922   1.914  0.2065  0.3203 -0.0626
  479SOL     OW 2335   3.245   3.567   3.799  0.4476 -0.3765  0.6022
  479SOL    HW1 2336   3.324   3.506   3.808  0.5917 -0.2966 -0.0411
  479SOL    HW2 2337   3.166   3.515   3.766  0.4706 -0.2927  0.4104
  480SOL     OW 2338   6.115   0.462   2.555  0.0516 -0.4332  0.0915
  480SOL    HW1 2339   6.055   0.533   2.592  0.1108 -0.0266 -0.5599
  480SOL    HW2 2340   6.095   0.449   2.458  0.0205 -1.3430  0.2175
  481SOL     OW 2341   3.257   6.392   6.396 -0.0814 -1.0694  0.0503
  481SOL    HW1 2342   3.338   6.334   6.387 -0.7081 -2.0343  0.4441
  481SOL    HW2 2343   3.181   6.350   6.347 -0.5823 -0.6526  0.4597
  482SOL     OW 2344   3.352   5.237   3.604 -0.2646  0.2388  0.5941
  482SOL    HW1 2345   3.428   5.301   3.596 -0.6089  0.6673  0.7281
  482SOL    HW2 2346   3.382   5.157   3.656 -0.3753  1.1675  2.1570
  483SOL     OW 2347   4.887   1.718   6.053  0.6184  0.2997 -0.5264
  483SOL    HW1 2348   4.954   1.763   6.112  0.4736  0.1153 -0.2175
  483SOL    HW2 2349   4.799   1.767   6.060  0.2657 -0.4177  0.3445
  484SOL     OW 2350   2.188   5.251   3.658  0.0190 -0.8137  0.0987
  484SOL    HW1 2351   2.126   5.282   3.730  1.3773 -0.0114  0.9615
  484SOL    HW2 2352   2.146   5.266   3.569 -1.0855 -0.4252  0.6711
  485SOL     OW 2353   3.635   1.223   2.099 -0.0517 -0.0850 -0.5734
  485SOL    HW1 2354   3.689   1.262   2.173 -1.2526  1.2087 -0.3245
  485SOL    HW2 2355   3.669   1.257   2.011  0.0028  0.1417 -0.4652
  486SOL     OW 2356   5.026   6.871   4.937 -0.1743 -0.0438  0.2379
  486SOL    HW1 2357   5.106   6.903   4.988  1.6905 -0.1913 -2.3779
  486SOL    HW2 2358   4.953   6.939   4.943  0.8850  1.0645  1.0354
  487SOL     OW 2359   0.387   1.319   0.296 -0.4637  0.2707 -0.0829
  487SOL    HW1 2360   0.479   1.331   0.334  0.0063  0.0425 -1.0994
  487SOL    HW2 2361   0.356   1.405   0.256 -0.0282 -0.0370 -1.1211
  488SOL     OW 2362   1.754   6.386   3.916  0.0413 -0.5076 -0.3367
  488SOL    HW1 2363   1.779   6.429   4.003 -0.2575 -1.5568  0.2826
  488SOL    HW2 2364   1.834   6.345   3.874 -0.0222 -0.9794  0.0024
  489SOL     OW 2365   1.645   4.249   4.687 -0.1676  0.6134 -0.2315
  489SOL    HW1 2366   1.571   4.253   4.620  0.4953 -1.0228 -1.1169
  489SOL    HW2 2367   1.715   4.316   4.662  0.3653 -0.3946 -1.6049
  490SOL     OW 2368   5.809   4.480   5.214 -0.0558 -0.0188 -0.7344
  490SOL    HW1 2369   5.855   4.446   5.296  0.8426 -0.4654 -1.4015
  490SOL    HW2 2370   5.776   4.402   5.160 -1.2907  0.2848 -0.4559
  491SOL     OW 2371   5.834   3.740   2.321  0.0394  0.1472  0.9044
  491SOL    HW1 2372   5.845   3.687   2.405 -0.9255 -1.8004 -0.1383
  491SOL    HW2 2373   5.736   3.750   2.301  0.2490 -1.5112 -1.2139
  492SOL     OW 2374   6.833   1.222   6.099 -0.3437  0.1246  0.1710
  492SOL    HW1 2375   6.745   1.186   6.069 -1.2759  0.6522  2.1354
  492SOL    HW2 2376   6.901   1.149   6.097 -1.0681 -0.5559 -0.3203
  493SOL     OW 2377   3.161   5.157   1.315 -0.5274  0.1654 -0.0146
  493SOL    HW1 2378   3.215   5.125   1.237 -0.1919 -2.6660  1.2540
  493SOL    HW2 2379   3.065   5.133   1.301 -0.6418  0.5975  0.0089
  494SOL     OW 2380   3.406   4.923   1.509  0.5502 -0.0519  0.4177
  494SOL    HW1 2381   3.459   4.919   1.594 -1.0102 -1.7473  1.3867
  494SOL    HW2 2382   3.312   4.952   1.529  1.1375  3.5985 -1.3480
  495SOL     OW 2383   4.145   4.168   6.414  0.2336  0.1520 -0.0306
  495SOL    HW1 2384   4.141   4.266   6.396 -0.4885  0.3027  0.8481
  495SOL    HW2 2385   4.092   4.118   6.346 -1.3172  0.5861  0.8093
  496SOL     OW 2386   5.502   5.572   1.195 -0.1849 -0.2439 -0.2864
  496SOL    HW1 2387   5.470   5.547   1.103  0.3672 -1.3098 -0.2045
  496SOL    HW2 2388   5.597   5.602   1.189 -0.4050  0.4950 -0.1718
  497SOL     OW 2389   1.728   2.263   6.644 -0.3222  0.2686 -0.4142
  497SOL    HW1 2390   1.740   2.274   6.742  1.5208  2.4767 -0.8163
  497SOL    HW2 2391   1.806   2.303   6.595 -0.3532 -2.1942 -2.7655
  498SOL     OW 2392   0.165   5.931   2.025  0.2415  0.4393  0.0245
  498SOL    HW1 2393   0.106   5.875   2.084  2.0509 -0.9643  0.6218
  498SOL    HW2 2394   0.109   5.987   1.964 -1.7455 -2.8583 -1.4423
  499SOL     OW 2395   2.061   2.361   1.025  0.4243 -0.1212  0.5848
  499SOL    HW1 2396   2.023   2.451   1.004  0.1265 -0.1563  0.9561
  499SOL    HW2 2397   1.994   2.308   1.077  0.7198 -0.4396  0.6446
  500SOL     OW 2398   5.063   1.326   1.736 -0.2323  0.3116 -0.0781
  500SOL    HW1 2399   5.054   1.418   1.699  1.5394  1.3187  1.8488
  500SOL    HW2 2400   5.065   1.330   1.836 -2.6768 -2.0977  0.1822
  501SOL     OW 2401   1.728   1.442   6.447  0.5208  0.2852  0.5727
  501SOL    HW1 2402   1.801   1.425   6.514  0.4826  2.3172  1.1819
  501SOL    HW2 2403   1.639   1.424   6.490  0.5694 -0.2806  0.4452
  502SOL     OW 2404   3.976   2.166   0.331  0.3188 -0.1659 -0.0836
  502SOL    HW1 2405   4.062   2.130   0.296  0.0211  0.0402 -1.0815
  502SOL    HW2 2406   3.950   2.116   0.414  0.4002 -1.5846 -0.8751
  503SOL     OW 2407   4.177   5.131   0.788 -0.3207  0.1631  0.5159
  503SOL    HW1 2408   4.147   5.065   0.719 -1.8141  0.8816  0.4323
  503SOL    HW2 2409   4.126   5.115   0.873 -2.4368  2.5467 -0.1714
  504SOL     OW 2410   1.270   6.653   5.953  0.2988 -0.3755 -0.2950
  504SOL    HW1 2411   1.260   6.558   5.982  1.9295 -0.0810  1.4431
  504SOL    HW2 2412   1.366   6.681   5.962 -0.1069  1.3695 -0.9854
  505SOL     OW 2413   5.846   3.117   4.636 -0.3167 -0.5328  0.2698
  505SOL    HW1 2414   5.928   3.168   4.611  0.7656 -1.8521  0.9585
  505SOL    HW2 2415   5.817   3.143   4.728  0.4535 -1.3629  0.7698
  506SOL     OW 2416   3.822   6.165   2.642  0.5018 -0.1064  0.3083
  506SOL    HW1 2417   3.814   6.108   2.724  3.4166 -1.9300 -0.5331
  506SOL    HW2 2418   3.919   6.187   2.626 -0.1681  1.7532 -1.6592
  507SOL     OW 2419   3.278   6.241   2.997  0.1474 -0.4017 -0.6042
  507SOL    HW1 2420   3.235   6.328   3.021 -4.1571 -2.4848  0.1589
  507SOL    HW2 2421   3.312   6.246   2.903  0.5668  2.2003 -0.4112
  508SOL     OW 2422   0.648   3.249   3.001  0.3154 -0.3935  0.2652
  508SOL    HW1 2423   0.623   3.285   2.911  1.3255  1.7621  0.7641
  508SOL    HW2 2424   0.732   3.195   2.993  1.4517  1.3247  0.1277
  509SOL     OW 2425   4.207   0.908   6.307 -0.3297  0.5073 -0.2006
  509SOL    HW1 2426   4.203   1.006   6.288 -0.1682  1.0289  2.1284
  509SOL    HW2 2427   4.198   0.857   6.221  2.9351  2.5698 -2.0210
  510SOL     OW 2428   6.623   3.587   0.142  0.0526 -0.1818  0.1551
  510SOL    HW1 2429   6.594   3.611   0.234  1.8533  1.7775  0.2928
  510SOL    HW2 2430   6.584   3.651   0.076  0.5900 -0.1741 -0.1622
  511SOL     OW 2431   0.307   3.419   0.661 -0.5218 -0.2861  0.1404
  511SOL    HW1 2432   0.222   3.398   0.614 -0.7032 -1.0474  0.7860
  511SOL    HW2 2433   0.290   3.426   0.759  0.2942 -1.2374  0.3697
  512SOL     OW 2434   1.663   1.653   5.020 -0.2305 -0.5377 -0.4941
  512SOL    HW1 2435   1.683   1.559   4.994  1.4385 -0.6467  1.0461
  512SOL    HW2 2436   1.638   1.657   5.117 -1.0474  0.5247 -0.7259
  513SOL     OW 2437   5.889   4.936   2.342  0.4985  0.2626  0.0049
  513SOL    HW1 2438   5.865   4.871   2.271  1.1520 -2.3817  2.0362
  513SOL    HW2 2439   5.808   4.988   2.370 -0.7958 -1.8318  0.3433
  514SOL     OW 2440   6.536   1.721   2.806  0.2414 -0.5823 -0.6576
  514SOL    HW1 2441   6.589   1.710   2.722  1.4646 -0.0679  0.0144
  514SOL    HW2 2442   6.555   1.811   2.846 -0.1693 -0.8839  0.2604
  515SOL     OW 2443   2.681   0.311   0.023  0.1548  0.1285  0.2817
  515SOL    HW1 2444   2.631   0.373   0.083 -0.3736 -0.7206  0.7258
  515SOL    HW2 2445   2.686   0.220   0.064 -1.4828 -0.8722 -1.5447
  516SOL     OW 2446   0.092   6.300   3.020 -0.4462 -0.2443  0.4490
  516SOL    HW1 2447   0.083   6.400   3.018 -0.2754 -0.2344 -1.3585
  516SOL    HW2 2448   0.157   6.274   3.091 -0.3477  0.9394  0.8212
  517SOL     OW 2449   2.595   3.964   1.287  0.0234  0.3744 -0.5972
  517SOL    HW1 2450   2.683   3.996   1.250  1.3039 -1.3329  0.8017
  517SOL    HW2 2451   2.608   3.932   1.380 -2.2073  0.3913 -0.2310
  518SOL     OW 2452   1.729   6.538   4.154 -0.7282 -0.0362  0.2758
  518SOL    HW1 2453   1.736   6.634   4.125 -1.8176 -0.2268 -0.6711
  518SOL    HW2 2454   1.649   6.526   4.212  0.6655  0.0496  2.3271
  519SOL     OW 2455   5.240   5.495   4.416 -0.1307  0.8856  0.7521
  519SOL    HW1 2456   5.142   5.501   4.435 -0.0074  0.3289  1.5952
  519SOL    HW2 2457   5.254   5.485   4.317 -1.1456 -2.3858  0.8097
  520SOL     OW 2458   4.311   6.857   0.605  0.7191  0.0506 -0.5442
  520SOL    HW1 2459   4.258   6.806   0.673 -0.6845 -0.2284 -1.7870
  520SOL    HW2 2460   4.250   6.887   0.532  1.9622  1.4502 -1.0484
  521SOL     OW 2461   0.768   1.448   5.370 -0.2001  0.4876  0.2516
  521SOL    HW1 2462   0.812   1.359   5.374  0.3359  0.4102 -3.6658
  521SOL    HW2 2463   0.668   1.436   5.365 -0.1797  0.1800  0.5673
  522SOL     OW 2464   2.683   5.200   4.459 -0.3034 -0.0231 -0.6113
  522SOL    HW1 2465   2.783   5.195   4.461 -0.2725  0.5357 -0.6432
  522SOL    HW2 2466   2.649   5.231   4.548 -0.4649 -0.4532 -0.5216
  523SOL     OW 2467   0.782   5.557   6.421  0.4518  0.4115 -0.7639
  523SOL    HW1 2468   0.688   5.560   6.454  0.4931 -0.3583 -0.5480
  523SOL    HW2 2469   0.782   5.568   6.321 -0.0028 -0.9943 -0.9423
  524SOL     OW 2470   1.450   2.257   6.338  0.2224  0.1305 -0.7893
  524SOL    HW1 2471   1.410   2.235   6.427 -0.7273  0.9915 -0.9950
  524SOL    HW2 2472   1.499   2.177   6.304  2.2037  0.3257  1.3265
  525SOL     OW 2473   5.779   4.966   4.678  0.2234  0.7855  0.4673
  525SOL    HW1 2474   5.787   4.908   4.597 -0.3199 -0.1973  1.1056
  525SOL    HW2 2475   5.737   4.914   4.753  1.3528  1.4501  1.6020
  526SOL     OW 2476   6.140   5.800   6.723 -0.2858  0.3813  0.2276
  526SOL    HW1 2477   6.171   5.877   6.780 -1.9288  0.2259  1.3906
  526SOL    HW2 2478   6.092   5.836   6.643  0.0228  0.5671  0.1205
  527SOL     OW 2479   4.200   0.488   0.079 -0.1473 -0.0857  0.7465
  527SOL    HW1 2480   4.264   0.505   0.154  0.3347  1.1777  0.0831
  527SOL    HW2 2481   4.106   0.492   0.113 -0.0152  2.3472  0.9907
  528SOL     OW 2482   5.760   1.055   3.435  0.4077  0.0617  0.4356
  528SOL    HW1 2483   5.773   1.153   3.451 -0.6316 -0.0056  1.9663
  528SOL    HW2 2484   5.692   1.020   3.500  0.5104 -1.6079 -0.3155
  529SOL     OW 2485   2.837   0.987   3.096  0.0001  0.2583 -0.3161
  529SOL    HW1 2486   2.766   0.983   3.166 -0.3285  1.4048 -0.5648
  529SOL    HW2 2487   2.925   1.006   3.139 -0.1405  0.5981 -0.1723
  530SOL     OW 2488   2.681   5.240   1.559 -0.3994 -0.4933  0.3208
  530SOL    HW1 2489   2.722   5.163   1.510  0.1668  0.1829 -0.2947
  530SOL    HW2 2490   2.752   5.293   1.605 -0.7454 -0.1624  0.4820
  531SOL     OW 2491   6.471   1.802   0.425 -0.7315  0.2254  0.3645
  531SOL    HW1 2492   6.484   1.764   0.517 -0.1070 -1.4754 -0.3858
  531SOL    HW2 2493   6.386   1.766   0.387  0.0180 -0.6976 -0.4737
  532SOL     OW 2494   4.014   2.312   0.629 -0.7374  0.3862  0.1027
  532SOL    HW1 2495   3.959   2.392   0.606  1.4454  2.0204  0.2877
  532SOL    HW2 2496   4.040   2.316   0.726  1.0935  0.6059 -0.3553
  533SOL     OW 2497   3.329   5.228   4.721  0.2604  0.6181  0.5953
  533SOL    HW1 2498   3.362   5.284   4.797 -0.0231 -0.7563  1.7749
  533SOL    HW2 2499   3.257   5.278   4.673  1.3717  2.0606  0.3602
  534SOL     OW 2500   1.042   3.283   1.759 -0.8398 -0.4040  0.1835
  534SOL    HW1 2501   1.083   3.217   1.821 -1.7288  0.4348  1.7342
  534SOL    HW2 2502   0.974   3.238   1.701 -0.7645 -1.0167  0.5713
  535SOL     OW 2503   6.341   3.783   2.917  0.2347 -0.0848 -0.3726
  535SOL    HW1 2504   6.428   3.735   2.929 -0.0852 -0.4910  0.4185
  535SOL    HW2 2505   6.315   3.826   3.004 -1.7521 -2.3510  0.2719
  536SOL     OW 2506   6.970   1.256   6.695  0.1168  0.4245  0.4922
  536SOL    HW1 2507   6.900   1.188   6.676 -0.0507  0.1944  1.8400
  536SOL    HW2 2508   6.939   1.317   6.768  0.9954  0.8120  0.5549
  537SOL     OW 2509   3.222   1.128   2.327 -0.1438 -0.0094 -0.1708
  537SOL    HW1 2510   3.290   1.064   2.292  0.1133  0.0658  0.1887
  537SOL    HW2 2511   3.136   1.114   2.279 -0.8734 -2.3790  1.6543
  538SOL     OW 2512   4.471   5.567   0.123 -0.3567 -0.3633 -0.8283
  538SOL    HW1 2513   4.501   5.662   0.115 -0.4208 -0.3961 -1.4388
  538SOL    HW2 2514   4.548   5.506   0.103 -0.7015 -0.4447 -1.9900
  539SOL     OW 2515   3.331   6.514   0.313 -0.4726 -0.0169 -0.2181
  539SOL    HW1 2516   3.414   6.494   0.365  0.2117  1.0983 -0.8340
  539SOL    HW2 2517   3.263   6.556   0.373  0.4003  1.4902 -0.2489
  540SOL     OW 2518   2.456   1.498   4.999 -0.7080  0.1567 -0.0557
  540SOL    HW1 2519   2.394   1.574   5.014 -0.8279 -0.1856  1.2866
  540SOL    HW2 2520   2.404   1.417   4.970 -0.5843  0.5489 -1.4467
  541SOL     OW 2521   5.141   4.638   1.401 -0.1990  0.0967  0.4090
  541SOL    HW1 2522   5.137   4.558   1.461 -0.1815 -0.6496 -0.5655
  541SOL    HW2 2523   5.230   4.640   1.355  0.9535  2.2426  2.4984
  542SOL     OW 2524   3.782   5.815   6.385  0.1914 -0.7214 -0.7088
  542SOL    HW1 2525   3.840   5.740   6.416  1.7597  0.7425  0.0445
  542SOL    HW2 2526   3.814   5.901   6.424 -2.1183  0.2619 -0.7950
  543SOL     OW 2527   6.625   6.815   5.352  0.3398 -0.4714  0.4670
  543SOL    HW1 2528   6.566   6.740   5.381  0.3063 -0.6853 -0.1433
  543SOL    HW2 2529   6.608   6.896   5.409 -0.7908 -0.4202  0.0799
  544SOL     OW 2530   6.906   2.462   1.746  0.1951 -0.4212  0.4619
  544SOL    HW1 2531   6.975   2.439   1.678 -0.4842 -1.1651  0.0054
  544SOL    HW2 2532   6.942   2.446   1.838  1.4940  1.5903  0.3742
  545SOL     OW 2533   1.445   4.635   1.554  0.5352 -0.4890 -0.3154
  545SOL    HW1 2534   1.415   4.638   1.459 -1.6865 -2.3740  0.2085
  545SOL    HW2 2535   1.517   4.567   1.565  0.9099 -0.1515 -0.6551
  546SOL     OW 2536   6.224   5.895   2.834  0.4958  0.0103 -0.2427
  546SOL    HW1 2537   6.146   5.856   2.883  0.6850 -1.8256 -1.3195
  546SOL    HW2 2538   6.295   5.825   2.823  1.7222  1.2493 -0.5014
  547SOL     OW 2539   2.283   4.735   6.135  0.1971  0.2837  0.9664
  547SOL    HW1 2540   2.346   4.711   6.060 -1.2358  0.6150 -0.3963
  547SOL    HW2 2541   2.336   4.751   6.218  1.8698  0.0293  0.0122
  548SOL     OW 2542   5.088   2.522   0.528  0.0540  0.5817  0.0367
  548SOL    HW1 2543   5.097   2.433   0.574  1.1556  0.7306  0.1382
  548SOL    HW2 2544   5.019   2.577   0.575 -0.5350 -0.1608  0.0619
  549SOL     OW 2545   4.064   1.341   3.931  0.0949  0.0467 -0.0692
  549SOL    HW1 2546   4.045   1.433   3.898  1.1524 -0.0771 -1.1138
  549SOL    HW2 2547   4.015   1.325   4.016  0.4398  1.8289  0.5155
  550SOL     OW 2548   6.761   5.891   4.649  0.4763 -0.1054 -0.5053
  550SOL    HW1 2549   6.832   5.854   4.709  1.0496 -0.5535 -1.4353
  550SOL    HW2 2550   6.791   5.884   4.554  0.4156  2.2797 -0.7735
  551SOL     OW 2551   4.890   1.192   1.108 -0.1693 -0.6732 -0.1338
  551SOL    HW1 2552   4.914   1.270   1.050 -0.1188  0.2458  1.1001
  551SOL    HW2 2553   4.794   1.168   1.092 -0.1809 -0.3866 -0.5280
  552SOL     OW 2554   2.093   6.569   4.595 -0.0666 -0.1113 -0.1175
  552SOL    HW1 2555   2.177   6.527   4.560 -0.9026 -0.7904 -1.3874
  552SOL    HW2 2556   2.018   6.552   4.531 -1.8761 -2.0775  2.2890
  553SOL     OW 2557   3.335   3.392   5.898 -0.0015 -0.2040 -0.5577
  553SOL    HW1 2558   3.338   3.341   5.812  0.0481 -0.1871 -0.5659
  553SOL    HW2 2559   3.428   3.415   5.927  0.1898 -2.1721  0.6425
  554SOL     OW 2560   5.791   5.269   1.451 -0.5147  0.0200  0.4057
  554SOL    HW1 2561   5.693   5.282   1.438 -0.4896  0.0157  0.2189
  554SOL    HW2 2562   5.808   5.175   1.481 -0.6648  0.3075  1.4485
  555SOL     OW 2563   3.546   5.741   5.710 -0.3643  0.1279  0.4186
  555SOL    HW1 2564   3.505   5.822   5.752  0.1760  0.6346 -0.0145
  555SOL    HW2 2565   3.632   5.720   5.756 -0.6162 -0.3493  0.6837
  556SOL     OW 2566   5.646   5.192   2.207  0.4249  0.3359 -0.3219
  556SOL    HW1 2567   5.637   5.156   2.114  0.5112  0.8762 -0.5478
  556SOL    HW2 2568   5.648   5.117   2.273  0.4324 -0.0531 -0.7642
  557SOL     OW 2569   0.053   2.730   0.666 -0.0121 -0.4934 -0.8489
  557SOL    HW1 2570   0.144   2.724   0.626  0.2376 -1.5017 -0.1675
  557SOL    HW2 2571   0.036   2.650   0.723 -0.4491  0.7391  0.8419
  558SOL     OW 2572   3.684   4.257   1.230 -0.7590 -0.4921 -0.0555
  558SOL    HW1 2573   3.677   4.349   1.190 -1.4012 -0.4361  0.1716
  558SOL    HW2 2574   3.593   4.216   1.234 -0.6968 -0.5509  1.2209
  559SOL     OW 2575   6.594   1.429   6.045 -0.5281 -0.5295  0.0441
  559SOL    HW1 2576   6.530   1.375   5.991 -1.3405 -0.7857  1.2312
  559SOL    HW2 2577   6.578   1.413   6.142  0.1585  0.7771  0.4026
  560SOL     OW 2578   2.662   0.766   2.968  0.2923 -0.3891  0.1711
  560SOL    HW1 2579   2.652   0.688   3.030  2.0261 -1.3890 -0.7595
  560SOL    HW2 2580   2.732   0.828   3.003  0.5716 -0.4459 -0.2854
  561SOL     OW 2581   6.708   4.481   1.700  0.0809  0.4348  0.1857
  561SOL    HW1 2582   6.627   4.497   1.756  1.1210  0.8276  1.6517
  561SOL    HW2 2583   6.784   4.537   1.735  1.0878 -0.1904 -0.9170
  562SOL     OW 2584   2.996   5.678   2.097 -0.6025  0.0136  0.4839
  562SOL    HW1 2585   2.973   5.742   2.025  1.0487  2.6900  2.1571
  562SOL    HW2 2586   2.937   5.693   2.176 -0.8269 -1.2272  0.5751
  563SOL     OW 2587   2.301   0.143   3.742  0.4440 -0.3146 -0.1223
  563SOL    HW1 2588   2.387   0.125   3.694  1.4069 -1.3975  1.8639
  563SOL    HW2 2589   2.316   0.211   3.813 -0.2255 -0.8264  0.5271
  564SOL     OW 2590   0.441   3.421   7.000 -0.3012 -0.2306 -0.4768
  564SOL    HW1 2591   0.496   3.368   7.064  1.9667  1.9122 -0.4860
  564SOL    HW2 2592   0.397   3.496   7.048 -2.0309 -1.0249 -0.7581
  565SOL     OW 2593   2.907   3.601   4.392 -0.3934 -0.1334  0.1398
  565SOL    HW1 2594   2.885   3.509   4.362 -0.1018 -0.4613  0.9128
  565SOL    HW2 2595   2.969   3.597   4.470 -1.2858  0.6904  0.9140
  566SOL     OW 2596   2.423   1.532   2.697 -0.3801  0.6516 -0.1417
  566SOL    HW1 2597   2.348   1.481   2.655 -0.1436  0.0444  0.1695
  566SOL    HW2 2598   2.486   1.469   2.742  1.5827  0.9318 -2.3551
  567SOL     OW 2599   2.464   1.216   4.677 -0.7125 -0.2258  0.2472
  567SOL    HW1 2600   2.514   1.164   4.746  0.0910 -2.0383 -1.5883
  567SOL    HW2 2601   2.438   1.155   4.602 -0.5973  1.8534 -1.5838
  568SOL     OW 2602   6.339   6.650   6.735 -0.6743  0.6649 -0.0402
  568SOL    HW1 2603   6.405   6.646   6.660 -1.1918  1.1787 -0.5350
  568SOL    HW2 2604   6.246   6.645   6.698 -0.9185 -0.8275  0.7039
  569SOL     OW 2605   4.567   2.640   4.357 -0.3489  0.3761 -0.3303
  569SOL    HW1 2606   4.499   2.598   4.297  0.4503 -1.4682 -0.0301
  569SOL    HW2 2607   4.554   2.607   4.450 -0.9305  2.4145  0.3667
  570SOL     OW 2608   3.563   6.957   6.730  0.6795  0.3423  0.3560
  570SOL    HW1 2609   3.612   6.940   6.815  1.3537 -0.4960 -0.1860
  570SOL    HW2 2610   3.540   6.870   6.686  1.6869  0.7589 -1.0678
  571SOL     OW 2611   1.904   4.982   2.268  0.0441 -0.3284 -0.4339
  571SOL    HW1 2612   1.816   4.935   2.259 -0.0777 -0.3866  0.8691
  571SOL    HW2 2613   1.893   5.078   2.243 -0.7707  0.0186  1.0972
  572SOL     OW 2614   4.431   1.563   4.353 -0.4165  0.1596  0.8856
  572SOL    HW1 2615   4.372   1.613   4.290  2.0477 -0.0939 -1.8856
  572SOL    HW2 2616   4.525   1.599   4.345  0.4781 -1.6774  2.4477
  573SOL     OW 2617   1.289   5.686   5.910 -0.3056  0.2794 -0.9391
  573SOL    HW1 2618   1.199   5.681   5.869 -0.7479  0.6880 -0.0481
  573SOL    HW2 2619   1.314   5.782   5.924  0.5832  0.2015 -1.8273
  574SOL     OW 2620   3.862   1.804   5.662  0.0162 -0.4773  0.2161
  574SOL    HW1 2621   3.944   1.825   5.609 -0.2141 -1.2648 -0.4810
  574SOL    HW2 2622   3.815   1.725   5.621 -0.8434 -0.3227  0.8677
  575SOL     OW 2623   3.667   4.696   5.819  0.0220  0.2796  0.0152
  575SOL    HW1 2624   3.654   4.778   5.874  1.4922 -0.1138  1.0048
  575SOL    HW2 2625   3.578   4.655   5.798 -0.6074  0.4960  2.0415
  576SOL     OW 2626   6.844   3.165   6.716  0.4940  0.2675 -0.3535
  576SOL    HW1 2627   6.778   3.229   6.677  1.7684  0.9304 -1.5086
  576SOL    HW2 2628   6.935   3.184   6.679  1.4130 -0.4222  1.4151
  577SOL     OW 2629   0.433   0.039   1.711  0.2828 -0.6113 -0.3335
  577SOL    HW1 2630   0.389   0.125   1.687 -0.8746 -1.6704 -2.1934
  577SOL    HW2 2631   0.439   0.031   1.811 -0.8030  0.9970 -0.1147
  578SOL     OW 2632   2.317   7.008   0.250  0.0219  0.1986  0.1699
  578SOL    HW1 2633   2.286   7.017   0.156  0.3796 -1.1434 -0.0993
  578SOL    HW2 2634   2.240   6.980   0.308  0.2339 -1.1073 -0.1349
  579SOL     OW 2635   1.708   4.609   3.693  0.2202 -0.1806 -0.1248
  579SOL    HW1 2636   1.800   4.571   3.702  0.6116  0.6784 -0.4101
  579SOL    HW2 2637   1.678   4.599   3.598  0.0922 -0.2808 -0.0747
  580SOL     OW 2638   3.899   6.599   4.162  0.3672 -0.1898 -0.4027
  580SOL    HW1 2639   3.961   6.582   4.086 -1.0832  2.9770 -2.5582
  580SOL    HW2 2640   3.809   6.561   4.140  0.1838 -0.0945  0.1761
  581SOL     OW 2641   2.501   0.566   5.337 -0.2434 -0.4243 -0.5398
  581SOL    HW1 2642   2.456   0.500   5.396  0.1935 -0.2850 -0.0449
  581SOL    HW2 2643   2.573   0.613   5.388 -1.1106  1.0609 -0.6148
  582SOL     OW 2644   2.392   6.325   6.160 -0.5196  0.2897  0.4225
  582SOL    HW1 2645   2.319   6.352   6.223 -1.4443 -0.5571 -0.2318
  582SOL    HW2 2646   2.377   6.370   6.072 -0.1789  0.2039  0.3203
  583SOL     OW 2647   3.626   6.527   6.211 -0.1451  0.3310  0.0266
  583SOL    HW1 2648   3.711   6.476   6.225  0.0288  0.5448 -0.2482
  583SOL    HW2 2649   3.647   6.620   6.182 -0.4778 -0.1023 -1.7174
  584SOL     OW 2650   3.877   0.389   4.809  0.4138  0.4803 -0.0302
  584SOL    HW1 2651   3.933   0.438   4.876 -0.4573  1.5827 -0.0836
  584SOL    HW2 2652   3.918   0.397   4.718  0.9425  0.0213  0.1619
  585SOL     OW 2653   3.785   0.583   1.777  0.5647 -0.5520 -0.7673
  585SOL    HW1 2654   3.774   0.551   1.872  2.0014  1.0302 -0.0150
  585SOL    HW2 2655   3.696   0.604   1.738  0.0395  0.0734  0.7173
  586SOL     OW 2656   1.518   5.172   2.807 -0.3014  0.2605 -0.0227
  586SOL    HW1 2657   1.608   5.151   2.846 -0.4753 -0.9867 -0.2756
  586SOL    HW2 2658   1.449   5.164   2.878 -0.2902  0.6692  0.0382
  587SOL     OW 2659   5.385   6.690   5.063 -0.1030  0.0430 -0.4153
  587SOL    HW1 2660   5.427   6.760   5.005  0.4473  0.4799  0.4778
  587SOL    HW2 2661   5.444   6.672   5.142 -1.2576  0.1788  0.5200
  588SOL     OW 2662   2.108   4.334   2.458 -0.5795  0.2090 -0.1952
  588SOL    HW1 2663   2.167   4.397   2.510 -1.1661 -0.5571  1.4776
  588SOL    HW2 2664   2.090   4.372   2.368  1.8864  0.7959 -0.5103
  589SOL     OW 2665   3.837   6.509   5.045  0.0556 -0.5494  0.2434
  589SOL    HW1 2666   3.855   6.447   5.121 -1.9165  2.3523  3.3889
  589SOL    HW2 2667   3.740   6.504   5.021  0.3184 -0.1942 -0.9778
  590SOL     OW 2668   1.552   0.716   1.072 -0.5765 -0.0572 -0.4290
  590SOL    HW1 2669   1.540   0.623   1.108 -1.3235 -0.9406 -2.7895
  590SOL    HW2 2670   1.535   0.716   0.973  0.8143  2.3388 -0.7398
  591SOL     OW 2671   4.404   1.192   4.527 -0.4648 -0.4354  0.0768
  591SOL    HW1 2672   4.478   1.126   4.538  0.0323 -0.3490 -2.2488
  591SOL    HW2 2673   4.317   1.143   4.514 -0.4674 -0.5630  0.5357
  592SOL     OW 2674   5.931   1.580   2.047  0.0546 -0.3846  0.0747
  592SOL    HW1 2675   5.902   1.585   1.951 -1.4451 -0.8527  0.4752
  592SOL    HW2 2676   5.857   1.541   2.102  1.3978 -1.4253  1.2177
  593SOL     OW 2677   5.880   6.108   6.264  0.0448 -0.4505 -0.3161
  593SOL    HW1 2678   5.932   6.152   6.337 -0.2720  0.5187 -0.6608
  593SOL    HW2 2679   5.934   6.108   6.180 -0.5385  0.6782 -0.7087
  594SOL     OW 2680   4.240   6.546   4.987  0.2711  0.2982 -0.0117
  594SOL    HW1 2681   4.282   6.636   4.973  1.5760 -0.5349 -2.0551
  594SOL    HW2 2682   4.160   6.537   4.928 -0.0455  0.2389  0.4283
  595SOL     OW 2683   3.809   2.320   1.180 -0.2161  0.1982  0.9628
  595SOL    HW1 2684   3.880   2.381   1.215 -0.8246  0.6877  1.3699
  595SOL    HW2 2685   3.769   2.360   1.098 -1.7543  1.1999  2.1477
  596SOL     OW 2686   6.404   5.960   5.390  0.4088 -0.1500  0.2489
  596SOL    HW1 2687   6.353   5.961   5.304  0.1942 -0.7517  0.3665
  596SOL    HW2 2688   6.463   5.880   5.392  2.0771  1.0231 -0.2903
  597SOL     OW 2689   1.763   0.258   0.109 -0.8116 -0.3768 -0.4713
  597SOL    HW1 2690   1.707   0.221   0.035 -1.8389 -0.5908  0.3946
  597SOL    HW2 2691   1.855   0.275   0.075 -1.9297  2.1673 -2.6193
  598SOL     OW 2692   3.405   2.801   1.982 -0.2750 -0.2538 -0.4607
  598SOL    HW1 2693   3.375   2.884   2.029 -1.9043  0.1647 -2.1175
  598SOL    HW2 2694   3.463   2.747   2.043 -1.4154  0.7550  1.6263
  599SOL     OW 2695   0.900   6.586   2.527 -0.6646  0.4990 -0.1285
  599SOL    HW1 2696   0.966   6.617   2.596 -1.7918 -0.7942  1.5937
  599SOL    HW2 2697   0.815   6.637   2.537 -0.0317  2.1709 -2.3546
  600SOL     OW 2698   0.893   5.879   5.368 -0.0856 -0.0194  0.1559
  600SOL    HW1 2699   0.874   5.814   5.442  0.1927  0.1289  0.3611
  600SOL    HW2 2700   0.992   5.890   5.358 -0.1334  0.5770  0.3087
  601SOL     OW 2701   0.664   5.502   5.828  0.1936 -0.5987 -0.0350
  601SOL    HW1 2702   0.626   5.420   5.785 -0.4479 -0.4877  0.2995
  601SOL    HW2 2703   0.753   5.480   5.869  0.2133 -1.0242 -0.3030
  602SOL     OW 2704   1.220   1.549   2.985  0.6961 -0.2153  0.3911
  602SOL    HW1 2705   1.293   1.482   2.972  0.3333 -0.4722 -0.3888
  602SOL    HW2 2706   1.245   1.634   2.939  1.2188  0.2557  1.4977
  603SOL     OW 2707   2.934   6.853   3.176 -0.2164  0.1086 -0.3149
  603SOL    HW1 2708   3.028   6.855   3.142 -0.5295 -2.5801 -1.6352
  603SOL    HW2 2709   2.934   6.845   3.275  1.0641 -1.5434 -0.4087
  604SOL     OW 2710   5.862   0.502   1.593 -0.2671 -0.0476 -0.4092
  604SOL    HW1 2711   5.891   0.421   1.643  2.1630  1.1286  0.2311
  604SOL    HW2 2712   5.782   0.542   1.639 -0.6315 -1.2745  0.0658
  605SOL     OW 2713   6.934   5.448   1.018 -0.3469  0.6766  0.0714
  605SOL    HW1 2714   6.924   5.375   0.951 -0.2841  0.1683  0.6150
  605SOL    HW2 2715   6.864   5.439   1.089 -0.5582  1.3453 -0.0432
  606SOL     OW 2716   2.299   0.140   4.152 -0.3067 -0.2297 -0.2820
  606SOL    HW1 2717   2.359   0.061   4.155  0.7610  0.5829  1.9563
  606SOL    HW2 2718   2.227   0.130   4.221  0.4372  1.1482  0.7454
  607SOL     OW 2719   0.010   2.819   5.297  0.4805  0.1975 -0.2247
  607SOL    HW1 2720  -0.002   2.720   5.284 -1.1564  0.1033  1.5035
  607SOL    HW2 2721  -0.041   2.868   5.227 -1.7686 -0.2505  0.9970
  608SOL     OW 2722   1.758   1.861   5.431  0.2822  0.3393  0.8309
  608SOL    HW1 2723   1.741   1.764   5.417  0.6304  0.3375  0.3964
  608SOL    HW2 2724   1.752   1.882   5.528  1.1669 -0.3062  1.0380
  609SOL     OW 2725   3.785   3.873   2.889 -0.4779 -0.3346  0.4606
  609SOL    HW1 2726   3.803   3.920   2.975 -1.0120 -0.0380  0.4146
  609SOL    HW2 2727   3.741   3.785   2.908  0.8454 -0.9950  0.5649
  610SOL     OW 2728   5.128   3.959   4.167 -0.4278 -0.4521  0.0794
  610SOL    HW1 2729   5.171   4.039   4.124  1.8404 -0.3593  2.3122
  610SOL    HW2 2730   5.108   3.980   4.263 -1.5827 -1.9517  0.1934
  611SOL     OW 2731   4.343   2.473   1.169 -0.5852 -0.1421 -0.2882
  611SOL    HW1 2732   4.402   2.553   1.167  0.4122 -0.7326  2.1295
  611SOL    HW2 2733   4.398   2.390   1.173 -1.6051 -1.0332 -2.5694
  612SOL     OW 2734   3.057   6.386   3.813 -0.4969 -0.3917 -0.5413
  612SOL    HW1 2735   3.070   6.370   3.715  1.1081  1.5414 -0.7072
  612SOL    HW2 2736   3.145   6.376   3.860 -1.0135 -0.0975  0.5188
  613SOL     OW 2737   2.776   0.839   0.565 -0.7325  0.1417 -0.4075
  613SOL    HW1 2738   2.844   0.877   0.628  0.3357 -0.4483 -1.1718
  613SOL    HW2 2739   2.695   0.811   0.616  0.0642 -0.2312  0.6861
  614SOL     OW 2740   2.363   6.464   6.769  0.6949 -0.3170 -0.3661
  614SOL    HW1 2741   2.422   6.533   6.725 -0.6794  2.5626  1.9456
  614SOL    HW2 2742   2.409   6.428   6.850  0.9649 -1.3990 -0.9763
  615SOL     OW 2743   6.955   4.091   5.417 -0.3254 -0.6334 -0.0563
  615SOL    HW1 2744   6.959   4.004   5.369  0.3053 -0.8261  0.3327
  615SOL    HW2 2745   6.873   4.141   5.388  0.2254 -0.5747 -1.5955
  616SOL     OW 2746   4.981   2.245   4.784  0.3367  0.1664 -0.1480
  616SOL    HW1 2747   5.059   2.193   4.820 -0.3461  1.0207  2.8690
  616SOL    HW2 2748   4.898   2.215   4.830 -1.2799 -0.7914 -3.3596
  617SOL     OW 2749   1.960   0.875   6.236 -0.4819 -0.2728  0.3082
  617SOL    HW1 2750   1.913   0.793   6.202  0.2809 -0.4552 -0.3421
  617SOL    HW2 2751   2.046   0.887   6.186 -0.2658  0.5556  0.8606
  618SOL     OW 2752   1.257   0.183   2.053 -0.0119  0.7924  0.2732
  618SOL    HW1 2753   1.204   0.101   2.077  0.6401  0.3327  0.1751
  618SOL    HW2 2754   1.218   0.262   2.099 -1.2857  0.6071 -0.4502
  619SOL     OW 2755   2.935   2.240   6.549 -0.2518  0.3885 -0.0501
  619SOL    HW1 2756   2.835   2.235   6.542 -0.6397 -0.5560  3.7526
  619SOL    HW2 2757   2.963   2.336   6.544 -1.6403  0.8797  0.9609
  620SOL     OW 2758   3.788   2.909   1.664  0.1404  0.3874  0.1157
  620SOL    HW1 2759   3.774   3.007   1.648  1.3501  0.4963 -0.3789
  620SOL    HW2 2760   3.702   2.867   1.691 -0.0573  1.9241  2.1436
  621SOL     OW 2761   2.425   4.219   0.994 -0.6861 -0.2085  0.0658
  621SOL    HW1 2762   2.496   4.238   1.062 -0.0705 -2.3542  0.0850
  621SOL    HW2 2763   2.349   4.171   1.038  0.2895 -2.8108 -0.9017
  622SOL     OW 2764   1.266   2.117   5.536  0.0348 -0.3672  0.2459
  622SOL    HW1 2765   1.298   2.023   5.533 -2.4528 -1.2915  0.4213
  622SOL    HW2 2766   1.166   2.119   5.534 -0.0017  2.3312 -1.1405
  623SOL     OW 2767   4.566   6.836   3.756  0.1089 -0.2134  0.2273
  623SOL    HW1 2768   4.483   6.877   3.792  1.2874  2.0140  0.5895
  623SOL    HW2 2769   4.581   6.867   3.661  0.3335 -0.8919  0.0333
  624SOL     OW 2770   0.281   2.367   0.624 -0.1630 -0.1470  0.2701
  624SOL    HW1 2771   0.325   2.410   0.703 -0.2678  0.2279  0.1272
  624SOL    HW2 2772   0.183   2.357   0.642 -0.3202  0.6344 -0.1074
  625SOL     OW 2773   1.947   1.134   0.481 -0.4707 -0.0284 -0.0850
  625SOL    HW1 2774   1.944   1.234   0.488 -1.4208 -0.1652  2.0935
  625SOL    HW2 2775   1.886   1.094   0.549  1.6895 -2.1648  0.7295
  626SOL     OW 2776   4.863   6.126   4.936 -0.1428  0.0252  0.3654
  626SOL    HW1 2777   4.891   6.163   5.025  0.4448  0.9882 -0.2126
  626SOL    HW2 2778   4.801   6.189   4.891 -1.9555 -1.3158  0.8795
  627SOL     OW 2779   3.767   5.537   5.688 -0.2836 -0.5521 -0.0508
  627SOL    HW1 2780   3.705   5.498   5.756  0.2230 -1.1526  0.0848
  627SOL    HW2 2781   3.825   5.464   5.651  1.3910  0.2227  0.9414
  628SOL     OW 2782   4.256   1.512   3.568 -0.1434  0.0677  0.6098
  628SOL    HW1 2783   4.280   1.421   3.601  0.7386  0.9326  2.5390
  628SOL    HW2 2784   4.220   1.566   3.644 -0.2104  1.4717 -0.3846
  629SOL     OW 2785   3.002   0.101   2.025  0.3504  0.2435 -0.1217
  629SOL    HW1 2786   3.066   0.140   1.959 -1.6535  1.2590 -1.5656
  629SOL    HW2 2787   2.987   0.166   2.099  0.9012  0.0423  0.1705
  630SOL     OW 2788   3.368   1.519   2.193  0.5329  0.2836 -0.0812
  630SOL    HW1 2789   3.456   1.551   2.229  0.2481  0.0407  0.8656
  630SOL    HW2 2790   3.377   1.500   2.095  2.1108 -1.6833  0.3758
  631SOL     OW 2791   2.817   2.272   3.729 -0.0463  0.5055 -0.7332
  631SOL    HW1 2792   2.888   2.213   3.767 -0.1679  0.5299 -0.4639
  631SOL    HW2 2793   2.765   2.314   3.803 -1.0018 -0.3091 -0.9138
  632SOL     OW 2794   1.590   1.610   1.245  0.5918  0.0077 -0.1434
  632SOL    HW1 2795   1.541   1.696   1.260  0.1665  0.1459 -2.1454
  632SOL    HW2 2796   1.535   1.534   1.279 -0.1617  0.3171 -0.6590
  633SOL     OW 2797   2.220   7.005   5.017  0.3074 -0.4272 -0.3794
  633SOL    HW1 2798   2.202   7.052   5.104 -2.3317 -0.4308 -0.8360
  633SOL    HW2 2799   2.221   6.906   5.033 -2.1558 -0.5387 -0.5705
  634SOL     OW 2800   2.366   6.439   2.467  0.2614 -0.3606 -0.2674
  634SOL    HW1 2801   2.453   6.423   2.514  0.7264  2.2775 -0.0535
  634SOL    HW2 2802   2.290   6.410   2.526  0.9500 -1.6836 -0.0066
  635SOL     OW 2803   2.855   1.302   6.918 -0.4937  0.0717 -0.3655
  635SOL    HW1 2804   2.758   1.295   6.896 -0.4774 -1.0614 -0.1065
  635SOL    HW2 2805   2.878   1.237   6.990  0.3231  0.8114  0.0651
  636SOL     OW 2806   5.560   4.770   0.756  0.2047 -0.8457  0.0910
  636SOL    HW1 2807   5.610   4.772   0.669  1.0355  1.0152  0.5486
  636SOL    HW2 2808   5.463   4.757   0.739  0.2910 -0.0005 -1.1663
  637SOL     OW 2809   6.264   3.094   4.796  0.2828  0.2977  0.7891
  637SOL    HW1 2810   6.300   3.144   4.875  2.7975 -1.8206  1.1045
  637SOL    HW2 2811   6.313   3.008   4.785 -0.7820 -0.0400 -2.4340
  638SOL     OW 2812   5.736   1.592   3.068  0.1832  0.5296  0.1189
  638SOL    HW1 2813   5.732   1.511   3.009  1.1582 -0.1495  0.9346
  638SOL    HW2 2814   5.645   1.630   3.079  0.0632  1.2455 -2.5604
  639SOL     OW 2815   3.209   2.740   1.793 -0.2424 -0.0741 -0.0441
  639SOL    HW1 2816   3.248   2.673   1.730 -1.5354 -2.1984  1.2526
  639SOL    HW2 2817   3.268   2.749   1.873 -1.1869 -1.6245  0.9024
  640SOL     OW 2818   3.455   3.108   4.957  0.3052 -0.6842  0.4935
  640SOL    HW1 2819   3.509   3.164   4.895  1.4553 -0.2071  1.8595
  640SOL    HW2 2820   3.377   3.161   4.991 -1.0383 -1.3441 -1.4100
  641SOL     OW 2821   1.096   4.734   5.051 -0.1373  0.7195 -0.6138
  641SOL    HW1 2822   1.092   4.637   5.029 -0.8452  0.7434 -0.6183
  641SOL    HW2 2823   1.116   4.746   5.148  1.2594  0.5909 -0.8742
  642SOL     OW 2824   0.601   5.857   0.580 -0.2252 -0.0706  0.1328
  642SOL    HW1 2825   0.615   5.763   0.611 -0.3657  0.0515  0.5671
  642SOL    HW2 2826   0.655   5.873   0.497 -0.0972 -0.4934  0.1333
  643SOL     OW 2827   5.234   0.987   5.602  0.2930  0.2324  0.3321
  643SOL    HW1 2828   5.214   1.076   5.562  2.7649  0.3499 -0.8418
  643SOL    HW2 2829   5.326   0.989   5.642  0.8451 -2.0829 -0.6804
  644SOL     OW 2830   3.129   4.971   1.564  0.0969  0.1074  0.3550
  644SOL    HW1 2831   3.161   5.060   1.599 -1.7764  0.6121  0.8777
  644SOL    HW2 2832   3.033   4.958   1.588 -0.0262 -1.5140 -0.8455
  645SOL     OW 2833   0.199   2.934   3.182  0.3048  0.4472  0.0755
  645SOL    HW1 2834   0.257   3.007   3.218 -0.0755  0.5134  0.5682
  645SOL    HW2 2835   0.240   2.896   3.099  0.5498  1.1533 -0.1280
  646SOL     OW 2836   0.549   2.459   3.933  0.3659 -0.0239 -0.2423
  646SOL    HW1 2837   0.644   2.440   3.958  0.7642  1.8416 -0.1959
  646SOL    HW2 2838   0.544   2.486   3.837 -0.4836 -2.3406 -0.9230
  647SOL     OW 2839   4.937   4.835   2.509 -0.4194  0.1695 -0.0183
  647SOL    HW1 2840   4.903   4.899   2.579 -2.1590 -0.8258  0.1118
  647SOL    HW2 2841   5.017   4.787   2.544  0.0375  1.2269  0.4376
  648SOL     OW 2842   3.513   0.655   4.772  0.0004 -0.5057 -0.0471
  648SOL    HW1 2843   3.513   0.623   4.866  1.4614  2.0348  0.9129
  648SOL    HW2 2844   3.432   0.619   4.724 -0.3681 -2.4496  1.9102
  649SOL     OW 2845   5.269   3.948   6.171 -0.4301 -0.1112  0.3845
  649SOL    HW1 2846   5.250   3.946   6.269 -0.9962  0.6028  0.2936
  649SOL    HW2 2847   5.192   3.910   6.121  0.2846 -1.4663  0.2553
  650SOL     OW 2848   0.285   6.437   1.183  0.1004 -0.5496 -0.6785
  650SOL    HW1 2849   0.265   6.358   1.125  0.0655  0.4114 -2.0010
  650SOL    HW2 2850   0.377   6.471   1.163 -0.1610  0.1919 -0.6550
  651SOL     OW 2851   2.972   5.166   4.457  0.3409  0.5503 -0.2461
  651SOL    HW1 2852   2.977   5.217   4.372 -1.4977  2.6530  0.8072
  651SOL    HW2 2853   2.979   5.068   4.438 -0.3911  0.9456 -2.8326
  652SOL     OW 2854   3.569   3.226   0.026  0.2689  0.6707  0.4956
  652SOL    HW1 2855   3.564   3.324   0.044  0.7577  0.9898 -0.9486
  652SOL    HW2 2856   3.501   3.202  -0.044  2.7129  0.7688 -2.1082
  653SOL     OW 2857   4.921   4.761   3.316 -0.5920 -0.0187 -0.1078
  653SOL    HW1 2858   4.886   4.674   3.352 -1.6514 -0.2507 -1.5931
  653SOL    HW2 2859   4.959   4.746   3.225  1.1078  0.7312  0.4475
  654SOL     OW 2860   6.919   4.387   0.272 -0.1698  0.6551 -0.3013
  654SOL    HW1 2861   6.960   4.385   0.181 -0.7193  0.8589 -0.5580
  654SOL    HW2 2862   6.914   4.295   0.309 -1.7360  0.3049 -1.2959
  655SOL     OW 2863   0.975   4.530   1.253  0.1972  0.3519  0.1987
  655SOL    HW1 2864   0.995   4.531   1.155 -1.9685  2.2821 -0.3087
  655SOL    HW2 2865   1.058   4.503   1.303  2.5620  2.9386 -1.9423
  656SOL     OW 2866   3.509   4.886   2.118 -0.0384 -0.1734 -0.4673
  656SOL    HW1 2867   3.509   4.978   2.079  1.2323 -0.1434 -0.4380
  656SOL    HW2 2868   3.536   4.820   2.048 -0.7795 -0.5110 -0.4433
  657SOL     OW 2869   2.847   0.343   6.818  0.1410 -0.3752 -0.2049
  657SOL    HW1 2870   2.775   0.319   6.883  0.5728 -0.5420  0.2272
  657SOL    HW2 2871   2.808   0.392   6.740 -0.3083  0.3347  0.4544
  658SOL     OW 2872   4.440   5.146   0.821 -0.0615 -0.0241 -0.2684
  658SOL    HW1 2873   4.345   5.132   0.796 -0.9156  1.4207  1.8541
  658SOL    HW2 2874   4.445   5.203   0.903  2.6366 -0.2842 -0.1495
  659SOL     OW 2875   3.468   0.529   0.359  0.0254 -0.1510 -0.1482
  659SOL    HW1 2876   3.510   0.562   0.444  1.0886  1.5292 -1.2737
  659SOL    HW2 2877   3.540   0.509   0.292 -0.8197 -1.0593 -0.8220
  660SOL     OW 2878   2.821   5.047   3.104  0.2348 -0.1151  0.3650
  660SOL    HW1 2879   2.787   4.970   3.050 -0.7882  1.9521 -2.1254
  660SOL    HW2 2880   2.755   5.070   3.175 -0.0760 -0.6952  0.2661
  661SOL     OW 2881   5.580   5.632   2.837  0.2245  0.2746 -0.0470
  661SOL    HW1 2882   5.641   5.574   2.782 -0.2062 -0.0956 -0.1438
  661SOL    HW2 2883   5.551   5.711   2.782  0.6043  0.4444 -0.0051
  662SOL     OW 2884   2.390   2.149   1.071 -0.1355 -0.4991 -0.4551
  662SOL    HW1 2885   2.365   2.208   0.994 -1.4453 -0.4572 -0.0212
  662SOL    HW2 2886   2.478   2.104   1.052  1.8718  2.8982 -0.0864
  663SOL     OW 2887   0.731   3.985   5.712 -0.0981 -0.7980 -0.2513
  663SOL    HW1 2888   0.662   3.945   5.651  0.0655  0.5212 -1.3487
  663SOL    HW2 2889   0.822   3.963   5.679 -0.0014 -1.2801  0.3389
  664SOL     OW 2890   4.845   0.677   0.254  0.0996 -0.4535 -0.0918
  664SOL    HW1 2891   4.788   0.752   0.287  0.3712 -0.5584  0.6336
  664SOL    HW2 2892   4.908   0.649   0.326 -0.4704 -1.8430 -0.0893
  665SOL     OW 2893   2.051   4.578   2.919 -0.7557 -0.2551 -0.4254
  665SOL    HW1 2894   2.085   4.540   3.005 -1.9054 -2.4127 -0.8357
  665SOL    HW2 2895   2.112   4.550   2.844  0.8601  2.5159 -0.2934
  666SOL     OW 2896   5.008   6.886   3.223 -0.1858  0.1758  0.0766
  666SOL    HW1 2897   5.073   6.826   3.176  0.5794 -0.2262  1.6107
  666SOL    HW2 2898   5.028   6.981   3.200  0.6938  0.0312  0.2392
  667SOL     OW 2899   5.539   0.279   0.975  0.6326  0.1724  0.1048
  667SOL    HW1 2900   5.503   0.371   0.956  1.9233  0.9689  1.3607
  667SOL    HW2 2901   5.639   0.281   0.969  0.8004 -0.6673  2.1346
  668SOL     OW 2902   5.260   2.153   5.382 -0.3871 -0.1293  0.3945
  668SOL    HW1 2903   5.269   2.232   5.443 -1.5742  0.5172 -0.2506
  668SOL    HW2 2904   5.262   2.184   5.287 -2.4324 -0.6591  0.1349
  669SOL     OW 2905   4.240   0.172   2.729 -0.1669  0.1292  0.1247
  669SOL    HW1 2906   4.175   0.159   2.654  1.3816  0.7370 -1.3684
  669SOL    HW2 2907   4.333   0.168   2.694  0.7212 -2.3010  2.4552
  670SOL     OW 2908   3.144   2.096   1.829 -0.0483 -0.4910  0.4841
  670SOL    HW1 2909   3.227   2.084   1.883  0.7262  1.0598 -0.3029
  670SOL    HW2 2910   3.064   2.090   1.889  0.7120 -0.3053  1.5460
  671SOL     OW 2911   0.385   6.715   2.702  0.3624 -0.0578 -0.3478
  671SOL    HW1 2912   0.306   6.771   2.728  0.1705 -0.3943 -0.1995
  671SOL    HW2 2913   0.381   6.694   2.605  0.7516  0.6834 -0.5313
  672SOL     OW 2914   1.397   0.814   3.308  0.0107  0.0104  0.8411
  672SOL    HW1 2915   1.455   0.860   3.376  0.4660  1.8759 -0.7174
  672SOL    HW2 2916   1.301   0.831   3.331  0.1017 -0.7535  1.8857
  673SOL     OW 2917   0.562   6.049   6.130  0.5569  0.1320 -0.1424
  673SOL    HW1 2918   0.603   6.130   6.089  0.8009  0.1933  0.2237
  673SOL    HW2 2919   0.463   6.050   6.114  0.4925  0.7484  0.2923
  674SOL     OW 2920   3.139   6.710   4.165 -0.0394 -0.2339  0.3958
  674SOL    HW1 2921   3.076   6.633   4.157 -1.5013  1.0096 -0.5503
  674SOL    HW2 2922   3.162   6.744   4.074 -0.0815  0.9560  0.8124
  675SOL     OW 2923   0.650   3.892   2.719  0.0239 -0.8215 -0.4409
  675SOL    HW1 2924   0.594   3.929   2.645  2.7581  0.7430 -1.8843
  675SOL    HW2 2925   0.738   3.939   2.720  1.6878 -3.7344  1.1565
  676SOL     OW 2926   1.250   6.566   6.328  0.5574 -0.2660 -0.8878
  676SOL    HW1 2927   1.319   6.632   6.357 -2.0259  1.7388  1.2113
  676SOL    HW2 2928   1.172   6.615   6.288 -1.6587 -1.8954  1.1414
  677SOL     OW 2929   3.684   1.209   0.364  0.3906  0.2455  0.1909
  677SOL    HW1 2930   3.772   1.186   0.324  0.8764  0.7826  0.9262
  677SOL    HW2 2931   3.653   1.297   0.327  0.3964  0.2938  0.3025
  678SOL     OW 2932   6.146   3.909   4.972 -0.3292  1.3042 -0.0782
  678SOL    HW1 2933   6.080   3.860   5.030 -0.1273  2.5092  1.2186
  678SOL    HW2 2934   6.198   3.842   4.918 -1.3446  0.2219  0.2357
  679SOL     OW 2935   6.976   0.289   4.791  0.3031  0.4571  0.3195
  679SOL    HW1 2936   7.051   0.355   4.783 -0.7153  1.7047  0.6723
  679SOL    HW2 2937   6.893   0.337   4.817 -0.7441 -0.8329 -0.5310
  680SOL     OW 2938   5.425   6.342   4.325  0.1547 -0.0527 -0.1797
  680SOL    HW1 2939   5.351   6.275   4.333  1.0618 -0.8874  1.8843
  680SOL    HW2 2940   5.392   6.422   4.276 -2.1731 -0.3222  0.8383
  681SOL     OW 2941   5.233   5.949   2.744 -0.2391 -0.1375 -0.2461
  681SOL    HW1 2942   5.142   5.960   2.782 -0.3229 -0.6258 -0.2982
  681SOL    HW2 2943   5.234   5.981   2.649 -0.6944 -1.3510 -0.6735
  682SOL     OW 2944   1.266   2.245   3.542 -0.3902  0.2585  0.2747
  682SOL    HW1 2945   1.242   2.255   3.446 -0.5884 -1.5131  0.1073
  682SOL    HW2 2946   1.331   2.170   3.553  0.5050  1.1589  1.4110
  683SOL     OW 2947   3.121   5.509   5.638  0.1194  0.0002  0.3128
  683SOL    HW1 2948   3.191   5.555   5.692  0.4417  2.3063 -1.8439
  683SOL    HW2 2949   3.036   5.562   5.641  0.2660  0.4497 -1.6399
  684SOL     OW 2950   3.911   1.537   0.303 -0.0802 -0.3197 -0.2911
  684SOL    HW1 2951   3.843   1.530   0.230  1.5970  1.2265 -2.1353
  684SOL    HW2 2952   3.953   1.628   0.300  0.8656 -0.6270  1.8967
  685SOL     OW 2953   2.288   5.198   1.776  0.2934 -0.4570 -0.2469
  685SOL    HW1 2954   2.306   5.227   1.681 -0.9496  0.4330 -0.2361
  685SOL    HW2 2955   2.328   5.108   1.791  2.3730  0.2894 -0.9686
  686SOL     OW 2956   2.202   6.995   4.761 -0.4490  0.5660  0.0509
  686SOL    HW1 2957   2.133   6.924   4.754 -0.6408  0.6766  0.7640
  686SOL    HW2 2958   2.225   7.011   4.857  0.3438  0.7466 -0.1572
  687SOL     OW 2959   5.767   1.754   4.487 -0.7157  0.2134  0.0152
  687SOL    HW1 2960   5.774   1.701   4.403 -3.0714  0.3456 -0.3281
  687SOL    HW2 2961   5.684   1.810   4.485 -0.0355  1.3974  1.7895
  688SOL     OW 2962   5.069   2.360   6.787  0.0583 -0.1619  0.7463
  688SOL    HW1 2963   5.109   2.280   6.832  0.4618  0.4098  1.4447
  688SOL    HW2 2964   5.139   2.406   6.733  0.4063  0.8588  1.9934
  689SOL     OW 2965   2.152   5.725   6.232  0.2008  0.0851 -0.4325
  689SOL    HW1 2966   2.230   5.663   6.235  1.4462  1.6058 -0.2568
  689SOL    HW2 2967   2.105   5.723   6.320  0.8118  0.0885 -0.0974
  690SOL     OW 2968   6.277   3.718   4.205 -0.4922  0.4006  0.2218
  690SOL    HW1 2969   6.321   3.630   4.225 -0.8993  0.1947  0.2310
  690SOL    HW2 2970   6.179   3.712   4.226 -0.6791  0.5975 -0.5430
  691SOL     OW 2971   3.591   0.054   3.277  0.7999  0.1218  0.0449
  691SOL    HW1 2972   3.527  -0.021   3.291 -0.0599  0.9228  0.5227
  691SOL    HW2 2973   3.680   0.017   3.250  0.0084 -0.9725 -1.1684
  692SOL     OW 2974   3.309   1.742   1.910  0.0078  0.0082  0.6790
  692SOL    HW1 2975   3.330   1.802   1.832  0.1888  1.5250  1.8548
  692SOL    HW2 2976   3.239   1.785   1.967 -0.2893 -1.1934  1.2545
  693SOL     OW 2977   5.345   4.580   1.179 -0.1941 -0.2489  0.2459
  693SOL    HW1 2978   5.378   4.505   1.122  0.0277  0.3293 -0.3994
  693SOL    HW2 2979   5.307   4.652   1.121 -0.1978  0.2365  0.8379
  694SOL     OW 2980   3.667   5.254   3.103 -0.3005 -0.2871 -0.0161
  694SOL    HW1 2981   3.614   5.196   3.165 -0.0007  0.1674  0.6773
  694SOL    HW2 2982   3.613   5.272   3.021 -1.0562 -0.1876  0.4889
  695SOL     OW 2983   5.174   6.191   3.202  0.7393 -0.9070 -0.4866
  695SOL    HW1 2984   5.130   6.220   3.287 -1.5293 -3.6895 -0.5448
  695SOL    HW2 2985   5.211   6.270   3.155 -1.7865  1.3296  0.9880
  696SOL     OW 2986   0.329   2.532   3.351 -0.3344 -0.3857  0.3234
  696SOL    HW1 2987   0.402   2.514   3.417 -0.9705 -0.4212  1.0295
  696SOL    HW2 2988   0.282   2.616   3.376  0.8022  0.8102 -1.3403
  697SOL     OW 2989   0.925   0.243   3.485  0.4095  0.3656 -0.3996
  697SOL    HW1 2990   0.964   0.270   3.397  0.6661 -0.1956 -0.4638
  697SOL    HW2 2991   0.945   0.313   3.553 -0.1376  0.9959 -0.8785
  698SOL     OW 2992   3.662   0.541   0.121  0.1937 -0.2003  0.0100
  698SOL    HW1 2993   3.759   0.550   0.142  0.2856  0.7637 -0.7799
  698SOL    HW2 2994   3.641   0.446   0.098  1.3684 -0.0788 -1.7517
  699SOL     OW 2995   3.625   3.086   0.284 -0.2235  0.3666  0.3488
  699SOL    HW1 2996   3.556   3.129   0.225 -0.1848 -2.3605 -1.8623
  699SOL    HW2 2997   3.709   3.072   0.232 -0.1336 -2.0352  1.0156
  700SOL     OW 2998   3.599   6.244   6.076 -0.0632  0.0826  0.1241
  700SOL    HW1 2999   3.581   6.274   5.983  1.7881  0.4997 -0.1288
  700SOL    HW2 3000   3.620   6.146   6.076  1.5691  0.4089 -0.1613
  701SOL     OW 3001   3.836   6.312   1.618  0.0066  0.4001  0.2112
  701SOL    HW1 3002   3.843   6.321   1.518 -0.9299  2.1868  0.2740
  701SOL    HW2 3003   3.850   6.216   1.643 -0.8706 -0.3022 -1.7415
  702SOL     OW 3004   3.574   5.531   6.739  0.2362 -0.3807  0.0535
  702SOL    HW1 3005   3.532   5.445   6.708 -0.9780  0.1064  0.2994
  702SOL    HW2 3006   3.505   5.587   6.785  0.3962  1.7291 -2.0645
  703SOL     OW 3007   5.343   2.015   0.576 -0.2621  0.1137  0.2038
  703SOL    HW1 3008   5.365   2.064   0.660  2.0501  1.8567 -1.3059
  703SOL    HW2 3009   5.256   1.966   0.587  0.9023 -1.4212  4.2680
  704SOL     OW 3010   2.065   2.488   6.779  0.5629 -0.3829 -0.1487
  704SOL    HW1 3011   2.089   2.395   6.808  0.4085 -0.3812 -0.0086
  704SOL    HW2 3012   2.078   2.551   6.856  1.0284 -0.2253 -0.3526
  705SOL     OW 3013   6.214   6.586   5.950 -0.1169 -0.6436 -0.0545
  705SOL    HW1 3014   6.204   6.518   5.876 -0.2358 -0.7693  0.0761
  705SOL    HW2 3015   6.172   6.672   5.921 -0.9560 -0.9524  0.2042
  706SOL     OW 3016   3.376   4.961   4.591 -0.1308 -0.4750  0.1838
  706SOL    HW1 3017   3.322   5.043   4.574  1.0592  0.1271 -0.9395
  706SOL    HW2 3018   3.462   4.986   4.635 -0.4121 -1.3249  1.2648
  707SOL     OW 3019   4.184   4.714   3.644  0.1949 -0.5479 -0.4386
  707SOL    HW1 3020   4.200   4.656   3.564 -2.9592 -0.8715 -0.9667
  707SOL    HW2 3021   4.187   4.658   3.727 -2.6020 -1.6150 -0.9263
  708SOL     OW 3022   2.005   4.145   4.215  0.2499  0.4023  0.1943
  708SOL    HW1 3023   1.937   4.142   4.142 -0.2365 -0.5849  0.6640
  708SOL    HW2 3024   2.037   4.052   4.235 -0.5976  0.4588  2.1086
  709SOL     OW 3025   2.361   6.377   1.100  0.3908  0.3051  0.3035
  709SOL    HW1 3026   2.369   6.364   1.002 -1.6702  0.3324  0.0863
  709SOL    HW2 3027   2.452   6.389   1.140  1.4234 -1.6408 -1.2906
  710SOL     OW 3028   4.279   4.610   3.000  0.3219  0.4547  0.3450
  710SOL    HW1 3029   4.330   4.571   2.923 -1.2199 -1.2514  0.1354
  710SOL    HW2 3030   4.207   4.670   2.965 -0.1021  0.0215  0.4671
  711SOL     OW 3031   5.108   1.835   0.179  0.6317 -0.2032  0.1661
  711SOL    HW1 3032   5.038   1.764   0.190 -1.8750  2.1021 -0.0032
  711SOL    HW2 3033   5.197   1.791   0.168 -0.8491 -3.3293 -0.5889
  712SOL     OW 3034   4.817   4.704   6.948 -0.0345  0.0849 -0.2452
  712SOL    HW1 3035   4.818   4.709   6.848  0.1705 -0.6782 -0.2889
  712SOL    HW2 3036   4.754   4.632   6.977 -0.7016  0.8347  0.2072
  713SOL     OW 3037   4.078   2.454   6.271  0.2399 -0.0154 -0.2199
  713SOL    HW1 3038   4.033   2.371   6.303 -1.6135  0.2434 -1.9362
  713SOL    HW2 3039   4.153   2.430   6.210  1.3445 -0.4199  1.2312
  714SOL     OW 3040   3.199   6.776   3.922  0.2958  0.0045 -0.2591
  714SOL    HW1 3041   3.224   6.718   3.845 -0.0733 -0.4056 -0.0761
  714SOL    HW2 3042   3.142   6.851   3.889  0.1974 -0.1295 -0.3967
  715SOL     OW 3043   6.163   5.367   5.777 -0.3884 -0.0398 -0.0269
  715SOL    HW1 3044   6.239   5.314   5.741 -0.3201 -0.7587  1.1372
  715SOL    HW2 3045   6.077   5.334   5.738 -0.2866 -0.6088  0.2287
  716SOL     OW 3046   3.657   0.947   3.253 -0.3482  0.4983 -0.2309
  716SOL    HW1 3047   3.584   0.990   3.202  0.4681  0.1810 -1.7218
  716SOL    HW2 3048   3.738   1.007   3.254 -0.5087  0.7362  1.1711
  717SOL     OW 3049   5.286   5.706   3.147  0.3164 -0.5898 -0.3150
  717SOL    HW1 3050   5.365   5.648   3.127  1.4531  0.6226  0.5243
  717SOL    HW2 3051   5.291   5.790   3.094 -0.2937 -0.3975 -0.0838
  718SOL     OW 3052   6.491   2.256   3.117  0.1227 -0.3534  0.0888
  718SOL    HW1 3053   6.489   2.161   3.147 -1.3722 -0.0656  0.9875
  718SOL    HW2 3054   6.572   2.271   3.061  0.3513 -2.1693 -0.1360
  719SOL     OW 3055   4.373   4.936   2.067 -0.4328  0.1734 -0.0247
  719SOL    HW1 3056   4.453   4.894   2.024  1.2064  2.3926  0.6330
  719SOL    HW2 3057   4.322   4.867   2.118  0.0735 -1.6360 -1.8395
  720SOL     OW 3058   1.924   2.110   0.463 -0.1525  0.0586 -0.4347
  720SOL    HW1 3059   1.845   2.049   0.458  0.0281 -0.0999 -1.8016
  720SOL    HW2 3060   2.001   2.061   0.503 -0.7830  0.2886  1.1409
  721SOL     OW 3061   6.016   2.651   1.242 -0.3986  0.0491  0.1711
  721SOL    HW1 3062   6.009   2.587   1.165 -0.7083 -0.5197  0.6604
  721SOL    HW2 3063   5.924   2.676   1.273 -0.2761  0.6357  0.0608
  722SOL     OW 3064   4.702   6.515   1.289  0.6753  0.0154  0.1561
  722SOL    HW1 3065   4.643   6.497   1.368  2.1038 -0.8563  1.0511
  722SOL    HW2 3066   4.677   6.604   1.250 -1.7957 -0.6777 -0.0565
  723SOL     OW 3067   4.241   6.108   6.509  0.9852  0.4634 -0.3910
  723SOL    HW1 3068   4.291   6.099   6.595 -0.4593  1.3960  0.5766
  723SOL    HW2 3069   4.201   6.019   6.484  1.1801  0.2532  0.0439
  724SOL     OW 3070   1.660   2.337   3.194 -0.0270 -0.2240  0.1564
  724SOL    HW1 3071   1.638   2.433   3.210  1.5684 -0.0383  1.4462
  724SOL    HW2 3072   1.594   2.279   3.241 -0.6191  0.2250 -0.1004
  725SOL     OW 3073   0.568   2.885   4.467 -0.0939  0.0332  0.0483
  725SOL    HW1 3074   0.573   2.786   4.482  2.2936 -0.0322 -0.7944
  725SOL    HW2 3075   0.660   2.924   4.472 -0.8691  2.0675 -0.6838
  726SOL     OW 3076   0.821   2.571   6.707 -0.2846  0.1217 -0.2398
  726SOL    HW1 3077   0.919   2.566   6.685  0.7629 -0.0700  3.5797
  726SOL    HW2 3078   0.785   2.659   6.678  0.9314  0.1245 -1.8991
  727SOL     OW 3079   4.082   3.365   3.305  0.0446 -0.0960  0.4079
  727SOL    HW1 3080   4.122   3.431   3.240 -0.5248 -1.8821 -1.8854
  727SOL    HW2 3081   3.992   3.399   3.335  0.1277  0.5790 -0.0691
  728SOL     OW 3082   5.369   3.317   3.053 -0.0675 -0.2777  0.5581
  728SOL    HW1 3083   5.321   3.229   3.054 -0.0016 -0.3788 -1.3230
  728SOL    HW2 3084   5.351   3.366   3.138 -0.8035 -1.7318  1.2780
  729SOL     OW 3085   0.055   4.154   1.471 -0.4885 -0.2697  0.1704
  729SOL    HW1 3086   0.150   4.123   1.469 -0.2689  0.4222 -0.3672
  729SOL    HW2 3087   0.028   4.182   1.379 -1.5639 -1.4821  0.0861
  730SOL     OW 3088   3.522   6.277   4.182  0.2531 -0.2081 -0.1112
  730SOL    HW1 3089   3.441   6.301   4.128 -0.0716 -1.2835 -0.1291
  730SOL    HW2 3090   3.503   6.195   4.236  0.5530  0.8551  1.6942
  731SOL     OW 3091   6.487   3.090   5.464 -0.4261 -0.4214  0.6382
  731SOL    HW1 3092   6.463   3.163   5.528 -0.7379 -0.9581  1.1436
  731SOL    HW2 3093   6.403   3.043   5.434 -0.3794  0.4004 -0.8809
  732SOL     OW 3094   4.253   6.586   2.308  0.0772  0.0963  0.1424
  732SOL    HW1 3095   4.349   6.575   2.335  0.5053  1.3018 -0.7902
  732SOL    HW2 3096   4.222   6.503   2.262  0.8138 -0.1563  0.0786
  733SOL     OW 3097   5.934   5.125   4.466 -0.4302 -0.1149  0.7040
  733SOL    HW1 3098   6.000   5.070   4.518  0.5595 -1.1707 -1.5270
  733SOL    HW2 3099   5.845   5.078   4.466  0.0685 -1.1125 -0.0994
  734SOL     OW 3100   1.027   0.891   1.918  0.7034  0.0279  0.2780
  734SOL    HW1 3101   1.092   0.931   1.853 -0.3607  0.8538 -0.3074
  734SOL    HW2 3102   1.043   0.793   1.925  2.5660  0.3277  0.7944
  735SOL     OW 3103   4.414   1.801   2.467 -0.5376  0.1205  0.4830
  735SOL    HW1 3104   4.375   1.797   2.558  1.5586  0.1469  1.4492
  735SOL    HW2 3105   4.347   1.839   2.403 -1.4120  1.9452  2.3706
  736SOL     OW 3106   1.996   2.790   2.519  0.5053  0.1776  0.0897
  736SOL    HW1 3107   2.086   2.830   2.504  0.4966 -0.5886 -2.5708
  736SOL    HW2 3108   2.002   2.690   2.510 -1.0539  0.2229 -4.1342
  737SOL     OW 3109   4.745   0.087   0.615 -0.4880  0.0653 -0.0544
  737SOL    HW1 3110   4.790   0.164   0.659 -0.7920  0.8654 -1.1129
  737SOL    HW2 3111   4.706   0.116   0.527  1.2891 -1.7477 -1.5556
  738SOL     OW 3112   3.295   5.326   5.514  0.1324  0.2853 -0.3546
  738SOL    HW1 3113   3.211   5.379   5.519 -0.8097 -1.2455  1.1745
  738SOL    HW2 3114   3.356   5.352   5.588 -1.0630 -1.8231  1.4858
  739SOL     OW 3115   2.229   1.927   1.432 -0.1489 -0.1308 -0.6399
  739SOL    HW1 3116   2.193   2.006   1.383  1.5553  0.5144 -0.9244
  739SOL    HW2 3117   2.288   1.874   1.372  0.0707 -0.6762  0.0397
  740SOL     OW 3118   6.032   2.614   3.041 -0.5392  0.0883  0.3465
  740SOL    HW1 3119   6.056   2.624   3.138 -0.3314 -1.2560  0.4438
  740SOL    HW2 3120   5.998   2.522   3.024  1.3951 -0.3875 -1.2752
  741SOL     OW 3121   3.209   2.123   2.848 -0.7541 -0.1060  0.2874
  741SOL    HW1 3122   3.301   2.110   2.810 -0.9600 -0.8721  0.0296
  741SOL    HW2 3123   3.152   2.170   2.781 -0.3452  1.1029  0.7513
  742SOL     OW 3124   3.418   0.500   3.381  0.5759  0.3774 -0.1681
  742SOL    HW1 3125   3.419   0.535   3.287  2.0314 -0.1636 -0.3875
  742SOL    HW2 3126   3.347   0.431   3.391  1.2225 -0.4735 -1.2378
  743SOL     OW 3127   0.877   6.783   2.268  0.4441 -0.2496 -0.3904
  743SOL    HW1 3128   0.779   6.776   2.290  0.1464 -1.3467 -1.8218
  743SOL    HW2 3129   0.903   6.704   2.212  2.1576  0.0446 -0.0491
  744SOL     OW 3130   5.289   1.218   0.643  0.4443 -0.3911 -0.0223
  744SOL    HW1 3131   5.299   1.287   0.715  3.7566  0.2900 -0.9643
  744SOL    HW2 3132   5.340   1.136   0.669 -1.4643 -1.6429  0.0010
  745SOL     OW 3133   1.321   6.356   5.989  0.0570  0.2355  0.0864
  745SOL    HW1 3134   1.263   6.311   5.921  1.2182  0.2950 -0.9864
  745SOL    HW2 3135   1.316   6.305   6.075 -2.1178  0.6613  0.2593
  746SOL     OW 3136   0.070   5.777   5.470 -0.3220  0.4302 -0.2321
  746SOL    HW1 3137   0.151   5.740   5.516 -0.7463 -1.4248 -0.8996
  746SOL    HW2 3138   0.099   5.833   5.392  0.3426 -0.6541 -0.7967
  747SOL     OW 3139   3.259   4.719   1.061 -0.5912 -0.6882 -0.1510
  747SOL    HW1 3140   3.299   4.774   1.134 -0.9246  0.0776 -0.5345
  747SOL    HW2 3141   3.161   4.740   1.053 -0.5149 -0.6184 -0.9444
  748SOL     OW 3142   0.662   3.338   3.249 -0.1504  0.0304 -0.0953
  748SOL    HW1 3143   0.657   3.297   3.158  0.4490  1.8321 -0.9824
  748SOL    HW2 3144   0.698   3.431   3.242 -0.2473  0.2733  1.9786
  749SOL     OW 3145   6.553   4.243   5.218 -0.3274 -0.3137 -0.1414
  749SOL    HW1 3146   6.472   4.231   5.276  0.0251 -2.5502 -0.0145
  749SOL    HW2 3147   6.635   4.229   5.272  0.0224 -1.6463 -0.9638
  750SOL     OW 3148   2.678   1.672   2.446  0.0492  1.2643 -0.2238
  750SOL    HW1 3149   2.733   1.692   2.528 -0.4936  2.0763 -0.0464
  750SOL    HW2 3150   2.710   1.587   2.405 -0.3735  0.2414  1.4494
  751SOL     OW 3151   5.785   6.393   0.388 -0.0853 -0.2150  0.5266
  751SOL    HW1 3152   5.785   6.374   0.486  0.2030 -0.7626  0.4247
  751SOL    HW2 3153   5.721   6.331   0.342  1.8893 -2.0037  0.0108
  752SOL     OW 3154   3.321   4.140   4.017 -0.3387 -0.4847 -0.1918
  752SOL    HW1 3155   3.379   4.060   3.999 -2.3282 -1.6050 -2.0338
  752SOL    HW2 3156   3.236   4.111   4.061 -0.9410  0.6760 -0.5501
  753SOL     OW 3157   3.404   3.584   5.082  0.3795  0.0720 -0.2063
  753SOL    HW1 3158   3.447   3.600   4.993 -0.2499 -0.8827 -0.6946
  753SOL    HW2 3159   3.317   3.634   5.086  1.1801  1.4805  0.5374
  754SOL     OW 3160   3.670   0.214   4.197 -0.8243  0.1943  0.2478
  754SOL    HW1 3161   3.683   0.115   4.205  1.8257  0.5824  2.1738
  754SOL    HW2 3162   3.667   0.239   4.100 -2.4987 -1.7998 -0.2928
  755SOL     OW 3163   5.419   3.729   6.204  0.1968 -0.1007  0.0178
  755SOL    HW1 3164   5.412   3.662   6.131 -2.9697  0.6853 -0.5688
  755SOL    HW2 3165   5.377   3.815   6.174  0.3633  0.7946  2.1680
  756SOL     OW 3166   3.266   5.228   5.951 -0.0348 -0.0693  0.7134
  756SOL    HW1 3167   3.334   5.279   6.004  0.6498 -0.4652  0.2223
  756SOL    HW2 3168   3.304   5.140   5.924 -0.2378  0.2754 -0.7588
  757SOL     OW 3169   1.092   0.675   0.859 -0.6329 -0.4451  0.3726
  757SOL    HW1 3170   1.102   0.768   0.825 -0.3079 -0.2472  0.9952
  757SOL    HW2 3171   1.064   0.677   0.955  1.8799 -0.9249  1.1895
  758SOL     OW 3172   3.688   2.385   5.518 -0.2371  0.3122 -0.3151
  758SOL    HW1 3173   3.723   2.318   5.584  0.9070  0.6376 -0.5633
  758SOL    HW2 3174   3.590   2.399   5.533 -1.2856 -3.6548 -2.1973
  759SOL     OW 3175   0.939   1.582   2.059  0.2340 -0.0248 -0.0288
  759SOL    HW1 3176   0.922   1.520   1.982  1.1748 -1.0205  0.5410
  759SOL    HW2 3177   0.860   1.579   2.121 -0.0624 -0.0408 -0.4000
  760SOL     OW 3178   6.791   6.123   3.559  0.3524  0.3913  0.2289
  760SOL    HW1 3179   6.808   6.026   3.541  1.3124  0.4990  0.5013
  760SOL    HW2 3180   6.872   6.164   3.602  0.4097  1.5882 -0.9431
  761SOL     OW 3181   6.137   4.767   5.178  0.0064 -0.7860 -0.1101
  761SOL    HW1 3182   6.207   4.830   5.143  1.4083 -0.7485  2.4668
  761SOL    HW2 3183   6.161   4.673   5.152 -0.7972 -0.5279 -1.9399
  762SOL     OW 3184   2.348   1.168   4.427 -0.0832  0.2921  0.0505
  762SOL    HW1 3185   2.331   1.093   4.362 -1.7450 -0.5385  1.3632
  762SOL    HW2 3186   2.267   1.227   4.430 -0.0020  0.3542  1.2782
  763SOL     OW 3187   5.856   2.040   6.912  0.2161  0.0035 -0.0566
  763SOL    HW1 3188   5.857   2.075   6.818  0.3655  0.7854  0.2217
  763SOL    HW2 3189   5.846   2.117   6.975 -0.7260 -0.5902  0.5375
  764SOL     OW 3190   3.787   5.681   4.518 -0.2101 -0.2617  0.2953
  764SOL    HW1 3191   3.860   5.704   4.583  0.6053  0.7606 -0.9523
  764SOL    HW2 3192   3.730   5.762   4.502  0.1904 -0.2099 -0.9893
  765SOL     OW 3193   2.111   6.378   6.797 -0.0190  0.1541 -0.3664
  765SOL    HW1 3194   2.110   6.281   6.773  0.0601  0.0835 -0.0928
  765SOL    HW2 3195   2.205   6.408   6.811 -0.0366  0.2976 -0.5614
  766SOL     OW 3196   2.514   2.212   2.843 -0.0140  0.2407 -0.1817
  766SOL    HW1 3197   2.541   2.132   2.789  1.1159  1.7741 -2.0390
  766SOL    HW2 3198   2.416   2.229   2.831 -0.6356 -1.7260  1.5332
  767SOL     OW 3199   6.127   0.431   3.840 -0.7372  0.0065 -0.3029
  767SOL    HW1 3200   6.160   0.435   3.745 -1.5087  0.2577 -0.5652
  767SOL    HW2 3201   6.047   0.372   3.845 -1.1821  0.6275  0.0476
  768SOL     OW 3202   3.296   5.605   5.820  0.5517 -0.4256  0.3374
  768SOL    HW1 3203   3.365   5.669   5.786  0.9483  0.1383  2.1215
  768SOL    HW2 3204   3.339   5.542   5.885 -0.6536  0.1264  1.7114
  769SOL     OW 3205   2.974   1.693   6.645  0.2646 -0.0286 -0.0519
  769SOL    HW1 3206   3.009   1.651   6.728 -1.7805  1.1146  1.4946
  769SOL    HW2 3207   3.047   1.698   6.576  2.2571 -0.2738  1.9344
  770SOL     OW 3208   6.497   3.735   5.561 -0.4528 -0.5495 -0.2369
  770SOL    HW1 3209   6.548   3.769   5.640 -1.5774 -1.0354  0.7345
  770SOL    HW2 3210   6.490   3.807   5.492 -0.3746  0.2486  0.5666
  771SOL     OW 3211   0.842   4.894   4.219 -0.2431  0.1102 -0.0362
  771SOL    HW1 3212   0.849   4.909   4.120  2.0899 -3.0441 -0.5301
  771SOL    HW2 3213   0.825   4.797   4.236  0.3042  0.4218  2.6708
  772SOL     OW 3214   0.698   6.251   0.321  0.2852  0.1182 -0.9093
  772SOL    HW1 3215   0.614   6.216   0.364  0.3679  1.1861  0.1628
  772SOL    HW2 3216   0.674   6.294   0.234 -0.4954  1.4976 -0.0545
  773SOL     OW 3217   0.683   4.210   3.760  0.7841 -0.4396  0.3533
  773SOL    HW1 3218   0.674   4.201   3.859  0.7563  0.5858  0.4518
  773SOL    HW2 3219   0.761   4.269   3.739  0.0415  0.3699 -0.1886
  774SOL     OW 3220   1.773   2.520   1.079 -0.2209  0.4323  0.3871
  774SOL    HW1 3221   1.718   2.601   1.096  0.5430  0.9772  0.3058
  774SOL    HW2 3222   1.863   2.530   1.122  0.2243  0.0445 -0.4246
  775SOL     OW 3223   1.284   5.726   2.005 -0.3053  0.0366  0.3278
  775SOL    HW1 3224   1.337   5.651   2.044  0.0495 -0.4715 -1.0762
  775SOL    HW2 3225   1.336   5.768   1.930  0.7878  3.5448  2.7968
  776SOL     OW 3226   3.801   5.601   6.908  0.3485  0.5234 -0.1835
  776SOL    HW1 3227   3.756   5.684   6.942 -1.1660 -0.2489 -0.2113
  776SOL    HW2 3228   3.753   5.568   6.826  0.8564 -0.4388 -0.1126
  777SOL     OW 3229   6.811   5.158   1.071  0.5212 -0.0861 -0.3738
  777SOL    HW1 3230   6.768   5.122   1.154  1.4157 -1.2546 -0.3784
  777SOL    HW2 3231   6.791   5.096   0.995  1.8413 -0.4369 -0.4542
  778SOL     OW 3232   5.574   1.795   1.120 -0.1797  0.4692  0.3517
  778SOL    HW1 3233   5.489   1.800   1.068 -0.1733 -0.0010  0.2923
  778SOL    HW2 3234   5.649   1.771   1.060 -0.0422  0.6525  0.4476
  779SOL     OW 3235   0.987   0.870   3.079 -0.5941  0.1057 -0.1264
  779SOL    HW1 3236   0.935   0.905   3.156  0.9512  0.1301  0.9448
  779SOL    HW2 3237   0.930   0.871   2.997 -1.8813  1.2154  0.7451
  780SOL     OW 3238   5.373   1.993   3.771  0.0525  0.0053  0.0544
  780SOL    HW1 3239   5.463   1.949   3.778 -0.5318 -1.0701  1.1692
  780SOL    HW2 3240   5.361   2.058   3.846  0.0324  0.4183 -0.3018
  781SOL     OW 3241   5.508   6.297   0.258 -0.0020  0.6698 -0.4941
  781SOL    HW1 3242   5.538   6.234   0.186  2.1038 -0.1535  1.0192
  781SOL    HW2 3243   5.458   6.246   0.328  2.4027  0.4240  1.1386
  782SOL     OW 3244   2.651   3.664   6.510 -0.4899  0.0279 -0.1443
  782SOL    HW1 3245   2.582   3.696   6.574 -0.6765  1.3260 -0.9531
  782SOL    HW2 3246   2.639   3.710   6.422  0.8287 -0.4296 -0.5906
  783SOL     OW 3247   1.545   4.132   1.385  0.0056  0.2413  0.1735
  783SOL    HW1 3248   1.481   4.162   1.315 -2.1089 -1.1460  1.4113
  783SOL    HW2 3249   1.495   4.101   1.466  2.0684 -2.8745  0.4452
  784SOL     OW 3250   0.919   0.071   6.943  0.6554 -0.1786  0.3532
  784SOL    HW1 3251   0.862   0.153   6.952  1.2249  0.1787  0.7500
  784SOL    HW2 3252   1.008   0.096   6.907  0.4886 -0.7738 -0.5101
  785SOL     OW 3253   2.787   0.477   4.020 -0.2859 -0.9668  0.0610
  785SOL    HW1 3254   2.725   0.407   4.056  0.2706 -1.3972  0.2065
  785SOL    HW2 3255   2.737   0.563   4.008 -1.2605 -1.6868 -1.2269
  786SOL     OW 3256   5.227   3.052   3.028 -0.0183  0.7627 -0.5785
  786SOL    HW1 3257   5.270   2.979   3.081  0.0372  0.4521 -1.0513
  786SOL    HW2 3258   5.133   3.028   3.008 -0.8436  1.9671  1.4876
  787SOL     OW 3259   1.788   6.759   5.946  0.1210  0.0747 -0.5516
  787SOL    HW1 3260   1.872   6.732   5.899  0.4624  0.0727  0.0450
  787SOL    HW2 3261   1.766   6.854   5.922  1.5096  0.8377  0.9301
  788SOL     OW 3262   2.254   1.584   2.963 -0.2176  0.0558  0.2615
  788SOL    HW1 3263   2.338   1.597   2.910  0.3388 -0.6228  0.9502
  788SOL    HW2 3264   2.253   1.646   3.041 -0.3152 -0.0024  0.3071
  789SOL     OW 3265   4.662   4.483   7.007  0.1832 -0.2564 -0.5940
  789SOL    HW1 3266   4.627   4.419   7.075  1.6426 -0.0987  0.3529
  789SOL    HW2 3267   4.621   4.464   6.918 -0.1718 -1.8322 -0.1126
  790SOL     OW 3268   1.701   1.204   2.653 -0.1084  0.1640 -0.2963
  790SOL    HW1 3269   1.720   1.204   2.751 -0.4812 -0.7410 -0.2078
  790SOL    HW2 3270   1.602   1.214   2.639  0.0528  1.3648 -0.6222
  791SOL     OW 3271   3.112   6.646   3.525  0.2412 -0.2354  0.7343
  791SOL    HW1 3272   3.121   6.551   3.495  0.5135 -0.2011  0.7102
  791SOL    HW2 3273   3.192   6.672   3.579 -0.3344 -0.3583  1.6664
  792SOL     OW 3274   1.344   0.876   1.184 -0.2066  0.2426 -0.1405
  792SOL    HW1 3275   1.364   0.974   1.186  0.7828  0.0546 -0.5568
  792SOL    HW2 3276   1.414   0.828   1.132 -1.2628 -0.5688 -0.8568
  793SOL     OW 3277   1.144   6.001   4.681 -0.4547  0.4710 -0.3522
  793SOL    HW1 3278   1.154   5.903   4.701 -0.5056  0.4128 -0.6026
  793SOL    HW2 3279   1.193   6.054   4.750 -1.0957  0.2984  0.2372
  794SOL     OW 3280   3.109   3.234   2.793  0.3244 -0.4115  0.2516
  794SOL    HW1 3281   3.158   3.149   2.774 -0.0748 -0.3657 -1.0753
  794SOL    HW2 3282   3.051   3.222   2.873  0.3742 -1.3472  0.1606
  795SOL     OW 3283   1.845   0.062   0.654  0.0398 -0.1348 -0.1325
  795SOL    HW1 3284   1.907   0.138   0.637  0.3644  0.0971  1.9084
  795SOL    HW2 3285   1.889  -0.023   0.625  0.1591  0.3083 -1.2989
  796SOL     OW 3286   0.188   1.244   4.766  0.3871  0.8967 -0.1285
  796SOL    HW1 3287   0.247   1.311   4.721  1.9645 -0.9767 -1.0149
  796SOL    HW2 3288   0.206   1.243   4.864  1.0438  1.1151 -0.2428
  797SOL     OW 3289   3.084   5.856   6.623  0.5834 -0.2723  0.4958
  797SOL    HW1 3290   3.086   5.938   6.681  1.0685 -1.5995  2.4781
  797SOL    HW2 3291   3.042   5.781   6.674  2.0962 -1.8245 -0.4314
  798SOL     OW 3292   4.199   3.688   1.827 -0.3596  0.0764  0.0361
  798SOL    HW1 3293   4.184   3.781   1.793 -1.5093  0.2743  1.0361
  798SOL    HW2 3294   4.217   3.691   1.925 -0.9533 -0.8034  0.1733
  799SOL     OW 3295   3.437   3.865   4.071  0.0228 -0.0086 -0.5570
  799SOL    HW1 3296   3.476   3.774   4.084 -0.0173  0.1578  0.8249
  799SOL    HW2 3297   3.510   3.932   4.062  0.0479 -0.1081 -1.1866
  800SOL     OW 3298   5.625   3.941   3.449 -0.1582 -0.1185  0.0404
  800SOL    HW1 3299   5.549   3.975   3.394  0.6423 -0.6960 -1.4837
  800SOL    HW2 3300   5.659   3.855   3.410  2.1284  0.7915 -0.1393
  801SOL     OW 3301   2.760   4.447   5.715 -0.4743  0.5195  0.0665
  801SOL    HW1 3302   2.693   4.384   5.756  0.4917 -0.3484  0.3586
  801SOL    HW2 3303   2.732   4.469   5.622 -0.8913 -0.2609 -0.0039
  802SOL     OW 3304   2.981   2.254   0.764 -0.1786  0.2460  0.2231
  802SOL    HW1 3305   2.887   2.274   0.737 -0.2563 -0.5310 -0.0966
  802SOL    HW2 3306   3.044   2.277   0.690 -0.2622 -0.5971 -0.1215
  803SOL     OW 3307   4.922   2.920   4.599  0.1020  0.1038 -0.1879
  803SOL    HW1 3308   4.864   2.920   4.517 -3.2028 -0.5277  1.9599
  803SOL    HW2 3309   4.912   3.006   4.648  0.6227 -0.2065  0.4933
  804SOL     OW 3310   4.930   5.449   3.248 -0.5233 -0.4862 -0.0228
  804SOL    HW1 3311   4.916   5.360   3.206 -2.0508 -0.2752 -0.0149
  804SOL    HW2 3312   4.866   5.460   3.325  0.6737  0.0257  0.9417
  805SOL     OW 3313   3.016   1.705   5.393 -0.3090  0.1153 -0.0553
  805SOL    HW1 3314   3.037   1.680   5.298 -0.1081 -0.2517  0.0843
  805SOL    HW2 3315   2.961   1.788   5.394 -0.0836  0.2706 -0.4849
  806SOL     OW 3316   4.386   5.748   6.775 -0.3011  0.6567 -0.0015
  806SOL    HW1 3317   4.455   5.679   6.755  0.4616  0.5973  2.4814
  806SOL    HW2 3318   4.297   5.705   6.788  0.1952  0.0567  1.6559
  807SOL     OW 3319   6.641   6.819   0.103 -0.0572  0.4266 -0.4031
  807SOL    HW1 3320   6.565   6.820   0.169 -1.5605  1.2687 -2.0519
  807SOL    HW2 3321   6.621   6.753   0.031  1.1855  0.1005 -0.4619
  808SOL     OW 3322   5.661   0.157   4.877  0.3958 -0.2108  0.5490
  808SOL    HW1 3323   5.658   0.110   4.789  0.4903  0.5311  0.1502
  808SOL    HW2 3324   5.587   0.224   4.882 -1.4739 -2.2150  2.1794
  809SOL     OW 3325   2.491   6.736   6.408  0.0435  0.8881 -0.6214
  809SOL    HW1 3326   2.417   6.684   6.365 -0.5685  0.7170  0.5832
  809SOL    HW2 3327   2.505   6.702   6.501  0.6916  1.8484 -0.3599
  810SOL     OW 3328   2.818   2.821   5.372 -0.5131 -0.4529  0.3411
  810SOL    HW1 3329   2.726   2.856   5.388 -0.4963 -0.9576  1.6419
  810SOL    HW2 3330   2.814   2.722   5.358 -0.1669 -0.4721  0.3676
  811SOL     OW 3331   6.653   4.662   3.463  0.1997  0.2515 -0.4150
  811SOL    HW1 3332   6.578   4.683   3.401 -0.4994 -1.7615 -0.3203
  811SOL    HW2 3333   6.698   4.747   3.491 -0.8958  1.3630 -1.8712
  812SOL     OW 3334   1.493   0.592   6.150 -0.4953 -0.3091 -0.1658
  812SOL    HW1 3335   1.477   0.496   6.174 -1.2505  0.0937  1.0786
  812SOL    HW2 3336   1.592   0.610   6.152 -0.3883 -0.8749  0.4076
  813SOL     OW 3337   2.556   1.404   5.609  0.0275 -0.0416  1.1068
  813SOL    HW1 3338   2.636   1.428   5.555 -1.6498 -0.1511 -1.6113
  813SOL    HW2 3339   2.558   1.456   5.695  2.7390  0.2550  0.9630
  814SOL     OW 3340   0.745   5.802   1.853  0.4073 -0.4653  0.4679
  814SOL    HW1 3341   0.801   5.885   1.855  1.3330 -1.0128 -1.0588
  814SOL    HW2 3342   0.794   5.730   1.803 -1.0753 -1.4150  0.3249
  815SOL     OW 3343   4.118   0.260   3.549 -0.5494  0.1173 -0.3958
  815SOL    HW1 3344   4.199   0.244   3.605  0.6542  0.0225 -2.1118
  815SOL    HW2 3345   4.071   0.342   3.582 -0.9182 -0.9218  1.8527
  816SOL     OW 3346   4.402   3.562   0.181 -0.1677  0.2027  0.4538
  816SOL    HW1 3347   4.482   3.515   0.217 -0.0640  1.0551  1.3614
  816SOL    HW2 3348   4.372   3.632   0.245 -0.9971  0.6298 -0.3705
  817SOL     OW 3349   6.487   6.534   1.919  0.1236  0.3151 -0.1184
  817SOL    HW1 3350   6.409   6.580   1.962 -1.2646 -1.8695 -0.1287
  817SOL    HW2 3351   6.561   6.524   1.985  1.1271  3.7913 -0.5320
  818SOL     OW 3352   5.293   6.357   5.436  0.3291 -0.4232  0.0886
  818SOL    HW1 3353   5.285   6.317   5.345 -1.3789 -2.2198  0.9328
  818SOL    HW2 3354   5.272   6.287   5.505  0.3806  1.1731  1.8133
  819SOL     OW 3355   5.719   1.943   0.570 -0.6722  0.1980  0.6018
  819SOL    HW1 3356   5.672   1.865   0.611 -0.0782  0.1743  1.2504
  819SOL    HW2 3357   5.767   1.913   0.488 -1.7543  0.2199 -0.0650
  820SOL     OW 3358   0.845   0.269   6.721  0.4601 -0.1691 -0.0343
  820SOL    HW1 3359   0.905   0.308   6.791  1.6486 -0.2827 -0.9513
  820SOL    HW2 3360   0.767   0.225   6.765 -1.3731  3.7885  1.0365
  821SOL     OW 3361   3.212   4.363   6.971  0.1384 -0.0036  1.1392
  821SOL    HW1 3362   3.118   4.331   6.968  0.3546 -0.5854 -1.0001
  821SOL    HW2 3363   3.273   4.286   6.990  0.2994  0.0680  0.9139
  822SOL     OW 3364   0.163   5.314   3.442 -0.0417 -0.3018 -0.1596
  822SOL    HW1 3365   0.125   5.304   3.350  0.1881 -1.0567 -0.1797
  822SOL    HW2 3366   0.089   5.334   3.507 -0.1813  0.3955 -0.5317
  823SOL     OW 3367   0.593   2.692   5.139  0.5576  0.0582 -0.1622
  823SOL    HW1 3368   0.535   2.699   5.220  0.2250  0.8885 -0.4698
  823SOL    HW2 3369   0.624   2.783   5.112  0.4469 -0.1859 -1.1330
  824SOL     OW 3370   5.445   0.451   3.762  0.3592 -0.5206  0.9845
  824SOL    HW1 3371   5.515   0.380   3.770  1.0068 -0.0034 -0.0010
  824SOL    HW2 3372   5.403   0.447   3.672  0.2058  0.1807  1.0176
  825SOL     OW 3373   6.060   5.286   2.620  0.0733 -0.4852 -0.5284
  825SOL    HW1 3374   6.012   5.371   2.598  1.0329  0.0568 -0.6042
  825SOL    HW2 3375   6.108   5.297   2.707  1.2505 -0.4776 -1.1532
  826SOL     OW 3376   3.686   2.596   1.236  0.1077  0.1168 -0.6349
  826SOL    HW1 3377   3.704   2.667   1.304 -1.5379 -1.0592  1.1427
  826SOL    HW2 3378   3.590   2.599   1.209 -0.1909 -1.7986  0.0202
  827SOL     OW 3379   2.384   3.409   5.630 -0.2156 -0.3682  0.4225
  827SOL    HW1 3380   2.479   3.432   5.652 -0.9038  0.9642  2.1807
  827SOL    HW2 3381   2.343   3.483   5.577 -0.8336 -0.0203  1.3603
  828SOL     OW 3382   0.982   6.402   4.537  0.1162 -0.9941 -0.3985
  828SOL    HW1 3383   0.977   6.494   4.499  0.2486 -0.9257 -0.2510
  828SOL    HW2 3384   0.890   6.369   4.557  0.1278 -0.4298  0.6537
  829SOL     OW 3385   2.793   2.512   6.962 -0.7590  0.2430  0.1380
  829SOL    HW1 3386   2.722   2.578   6.986 -1.7360 -0.7554  0.0612
  829SOL    HW2 3387   2.830   2.470   7.045 -1.4576 -0.4575  0.1015
  830SOL     OW 3388   0.830   3.662   6.476 -0.4565  0.6793 -0.6421
  830SOL    HW1 3389   0.836   3.708   6.388  1.0488  1.5275 -0.1299
  830SOL    HW2 3390   0.758   3.705   6.531  0.2826  1.8389 -0.5337
  831SOL     OW 3391   5.858   2.311   3.118  0.2568 -0.3241  0.0928
  831SOL    HW1 3392   5.883   2.328   3.214 -0.1383  1.4272 -0.0756
  831SOL    HW2 3393   5.816   2.221   3.111 -0.8124 -0.0336  1.8251
  832SOL     OW 3394   1.969   0.847   4.768 -0.3255  0.8857  0.6848
  832SOL    HW1 3395   1.950   0.749   4.771 -0.9161  0.9815  0.3647
  832SOL    HW2 3396   1.967   0.885   4.861  0.1261  0.5559  0.8291
  833SOL     OW 3397   3.491   2.914   6.500 -0.1201  0.3357  0.0857
  833SOL    HW1 3398   3.532   2.835   6.545 -1.1182  0.5124  1.3497
  833SOL    HW2 3399   3.483   2.896   6.402 -1.8624 -1.8396  0.5517
  834SOL     OW 3400   4.723   3.864   1.229 -0.4409  0.2408 -0.2517
  834SOL    HW1 3401   4.797   3.798   1.220 -1.4708 -0.8122 -1.3701
  834SOL    HW2 3402   4.685   3.859   1.322 -0.4328 -0.6840 -0.2892
  835SOL     OW 3403   4.745   6.412   5.355  0.0911 -0.2802 -0.2864
  835SOL    HW1 3404   4.773   6.494   5.405  1.9937 -0.3609 -1.1247
  835SOL    HW2 3405   4.675   6.363   5.408  1.3628  0.1066  1.8830
  836SOL     OW 3406   1.398   6.419   3.347  0.3179 -0.0045 -0.2362
  836SOL    HW1 3407   1.454   6.344   3.313  0.9708  0.1997  0.3623
  836SOL    HW2 3408   1.442   6.506   3.324  0.2311  0.1596  0.2114
  837SOL     OW 3409   0.591   0.411   6.197 -0.5465  0.0647 -0.1624
  837SOL    HW1 3410   0.608   0.509   6.206  0.7510 -0.2940  1.7388
  837SOL    HW2 3411   0.643   0.375   6.120  0.8133  0.4808  0.5325
  838SOL     OW 3412   0.226   4.460   3.083 -0.5554 -0.1908  0.5443
  838SOL    HW1 3413   0.223   4.518   3.165  1.6577  1.6137 -0.5595
  838SOL    HW2 3414   0.311   4.407   3.084 -0.1271  0.4389 -0.9374
  839SOL     OW 3415   1.446   3.307   5.994 -1.0507 -0.0880  0.1406
  839SOL    HW1 3416   1.437   3.230   6.056 -0.5385  0.1437  0.5100
  839SOL    HW2 3417   1.403   3.285   5.907 -1.3221 -0.6084  0.4027
  840SOL     OW 3418   4.685   4.370   6.550 -0.0403 -0.2694  0.1892
  840SOL    HW1 3419   4.628   4.436   6.599  0.7048  0.6225 -0.1149
  840SOL    HW2 3420   4.777   4.369   6.590  0.7111  0.8060 -1.4413
  841SOL     OW 3421   3.456   4.490   5.421 -0.5643 -0.2314  0.3095
  841SOL    HW1 3422   3.372   4.444   5.451 -0.3126  0.6719  2.6339
  841SOL    HW2 3423   3.515   4.424   5.375 -2.3093 -0.9983 -0.9661
  842SOL     OW 3424   4.651   5.854   0.598 -0.1916 -0.8229  0.2207
  842SOL    HW1 3425   4.578   5.859   0.667  0.8446 -1.3375  1.4015
  842SOL    HW2 3426   4.675   5.759   0.582  0.9584 -0.6177  0.6578
  843SOL     OW 3427   2.548   6.008   1.245  0.2807  0.5441 -0.2311
  843SOL    HW1 3428   2.514   6.023   1.153 -0.5813  2.3271  0.3263
  843SOL    HW2 3429   2.487   6.053   1.311 -0.1149 -2.1275  1.3861
  844SOL     OW 3430   1.833   0.052   2.321  0.1896  0.0614 -0.1124
  844SOL    HW1 3431   1.742   0.032   2.357  0.6681  0.4662  1.3604
  844SOL    HW2 3432   1.885  -0.033   2.316  0.6961  0.2195  1.8434
  845SOL     OW 3433   4.989   1.367   0.924  0.0653 -0.2535 -0.3641
  845SOL    HW1 3434   4.987   1.437   0.853 -0.6732  1.6831  1.4723
  845SOL    HW2 3435   5.081   1.328   0.930  1.0265  1.9304 -0.1670
  846SOL     OW 3436   6.647   0.578   1.116  0.1723 -1.1443  0.1742
  846SOL    HW1 3437   6.706   0.514   1.068  1.4678  1.3579 -1.8630
  846SOL    HW2 3438   6.557   0.579   1.073  1.3378  1.1135 -2.5292
  847SOL     OW 3439   2.933   3.691   2.549  0.1754 -0.6548 -0.2069
  847SOL    HW1 3440   2.885   3.744   2.619  0.1053 -0.1293 -0.6443
  847SOL    HW2 3441   3.013   3.742   2.517  1.0155 -1.5062  0.4832
  848SOL     OW 3442   5.992   6.288   4.416  0.4359  0.2447  0.0036
  848SOL    HW1 3443   5.901   6.291   4.375  0.8624 -1.3176 -1.1335
  848SOL    HW2 3444   6.047   6.364   4.382  0.1848  0.0267 -0.9213
  849SOL     OW 3445   5.531   1.864   0.144 -0.0509 -0.6454  0.3521
  849SOL    HW1 3446   5.494   1.838   0.233 -0.4783 -0.7336  0.1508
  849SOL    HW2 3447   5.621   1.906   0.156 -0.5131  0.2175  0.9058
  850SOL     OW 3448   1.332   0.793   5.489  0.3674  0.0731  0.0081
  850SOL    HW1 3449   1.279   0.717   5.450  0.1317  0.0297  0.4020
  850SOL    HW2 3450   1.298   0.880   5.452  1.7766 -0.0903 -1.7814
  851SOL     OW 3451   5.439   3.277   5.711 -0.0287 -0.0323 -0.4620
  851SOL    HW1 3452   5.365   3.211   5.724 -0.9595  0.8300 -1.2214
  851SOL    HW2 3453   5.444   3.304   5.615  2.1389 -1.0287 -0.6789
  852SOL     OW 3454   4.711   4.340   0.306  0.3240  0.0698 -0.0555
  852SOL    HW1 3455   4.683   4.285   0.227  0.9490  0.4550 -0.5590
  852SOL    HW2 3456   4.734   4.432   0.276  1.5161 -0.0524  0.4089
  853SOL     OW 3457   3.860   1.673   0.706  0.4501  0.1066 -0.7654
  853SOL    HW1 3458   3.819   1.643   0.792  2.2663 -2.0531 -0.5616
  853SOL    HW2 3459   3.956   1.695   0.720  0.6292  0.2938 -2.1284
  854SOL     OW 3460   5.922   0.466   5.929 -0.3408  0.3305 -0.1640
  854SOL    HW1 3461   6.009   0.425   5.957  0.2951  2.0611  0.5470
  854SOL    HW2 3462   5.934   0.513   5.841 -0.6368  0.3092 -0.2154
  855SOL     OW 3463   5.157   1.431   5.178 -0.2295  0.2026 -0.4065
  855SOL    HW1 3464   5.077   1.392   5.131 -0.6586  2.3162 -1.5859
  855SOL    HW2 3465   5.240   1.401   5.132 -0.5551  0.7806 -1.3986
  856SOL     OW 3466   1.605   5.262   0.921  0.5089 -0.1848 -0.1530
  856SOL    HW1 3467   1.539   5.335   0.904 -0.4687 -1.3641 -1.7771
  856SOL    HW2 3468   1.588   5.222   1.011  0.1330  0.6527  0.1584
  857SOL     OW 3469   1.179   0.192   5.122 -0.0377 -0.0227  0.3092
  857SOL    HW1 3470   1.079   0.192   5.130  0.0205 -0.5357  1.0313
  857SOL    HW2 3471   1.209   0.109   5.076 -0.0016  0.5602 -0.7437
  858SOL     OW 3472   1.816   3.592   0.826  0.3436 -0.2172  0.6034
  858SOL    HW1 3473   1.749   3.621   0.895  0.9868 -0.0681  1.1808
  858SOL    HW2 3474   1.875   3.670   0.803 -0.1387 -0.1494 -0.4507
  859SOL     OW 3475   5.102   6.127   3.718  0.1752 -0.3873  0.4592
  859SOL    HW1 3476   5.127   6.193   3.788 -0.8442 -0.1242  0.5873
  859SOL    HW2 3477   5.056   6.049   3.761  0.9004 -0.9480  0.2472
  860SOL     OW 3478   3.970   3.901   6.989  0.3745  0.4069 -0.1752
  860SOL    HW1 3479   4.064   3.869   6.990  0.4201  0.4841  1.6396
  860SOL    HW2 3480   3.960   3.979   7.052 -0.7674  0.7912 -0.7943
  861SOL     OW 3481   1.838   6.369   2.874 -0.1505 -0.2322  0.6766
  861SOL    HW1 3482   1.902   6.328   2.808  2.1575  0.6370  2.2532
  861SOL    HW2 3483   1.814   6.461   2.844 -1.1992 -0.7694 -0.2169
  862SOL     OW 3484   6.239   4.362   4.525 -0.0597  0.5904  0.1056
  862SOL    HW1 3485   6.276   4.443   4.480  0.3826  0.9341  1.0614
  862SOL    HW2 3486   6.266   4.362   4.621 -1.2823  0.0627  0.4730
  863SOL     OW 3487   5.789   5.943   3.049  0.6848  0.3945 -0.5064
  863SOL    HW1 3488   5.690   5.936   3.038  0.3498  1.8009  1.1684
  863SOL    HW2 3489   5.816   5.904   3.137  1.3858  1.4369 -0.2432
  864SOL     OW 3490   5.376   3.983   4.309 -0.4355  0.4650 -0.2232
  864SOL    HW1 3491   5.404   4.077   4.328  0.8061  0.2461 -0.8863
  864SOL    HW2 3492   5.276   3.979   4.300 -0.4871  1.7443 -0.3587
  865SOL     OW 3493   2.642   5.674   5.941  0.1649  0.1511  0.8146
  865SOL    HW1 3494   2.676   5.619   6.018  0.5913  0.4470  0.8426
  865SOL    HW2 3495   2.571   5.623   5.893  0.4891 -0.3917  0.8975
  866SOL     OW 3496   4.493   5.743   0.877 -0.1785  0.1575 -0.0059
  866SOL    HW1 3497   4.472   5.646   0.871  2.3311 -0.4487  0.2247
  866SOL    HW2 3498   4.427   5.794   0.822 -1.5276 -1.6370 -0.1601
  867SOL     OW 3499   6.213   2.551   3.518  0.4191  0.0003  0.4259
  867SOL    HW1 3500   6.282   2.609   3.561  1.1121  0.4653 -1.2211
  867SOL    HW2 3501   6.209   2.463   3.566  2.0978 -0.0028  0.6219
  868SOL     OW 3502   5.944   2.839   0.713  0.2709  0.3217  0.9087
  868SOL    HW1 3503   5.963   2.868   0.807  1.3636  0.9010  0.5278
  868SOL    HW2 3504   6.014   2.876   0.652 -2.3672  3.0645 -0.7479
  869SOL     OW 3505   1.875   1.258   2.143 -0.5623 -0.1559  0.2025
  869SOL    HW1 3506   1.788   1.211   2.160 -1.6256  1.9935  1.1877
  869SOL    HW2 3507   1.934   1.249   2.223  0.7100 -2.5651 -0.8710
  870SOL     OW 3508   1.830   4.972   1.323 -0.8809  0.1295 -0.1887
  870SOL    HW1 3509   1.899   4.964   1.250 -1.9742  0.8892 -1.3617
  870SOL    HW2 3510   1.870   5.021   1.401  0.5876 -1.4828  0.1287
  871SOL     OW 3511   5.312   1.667   2.226  0.4835 -0.5548 -0.5859
  871SOL    HW1 3512   5.310   1.636   2.131  0.7474  0.0633 -0.7997
  871SOL    HW2 3513   5.406   1.674   2.257  0.3866 -1.0223 -0.1876
  872SOL     OW 3514   1.420   2.545   6.567  0.0338 -0.3136 -0.3215
  872SOL    HW1 3515   1.497   2.583   6.618 -1.0953 -0.4912  1.6481
  872SOL    HW2 3516   1.431   2.447   6.558  1.2311 -0.0365 -2.2916
  873SOL     OW 3517   4.339   1.280   5.981  0.1164 -0.5862 -0.3766
  873SOL    HW1 3518   4.317   1.377   5.992 -0.9567 -0.6891 -1.3020
  873SOL    HW2 3519   4.414   1.270   5.916  0.3100 -0.3707 -0.1871
  874SOL     OW 3520   5.168   5.468   4.136  0.0615  0.0506  0.7229
  874SOL    HW1 3521   5.069   5.472   4.151 -0.1694  1.9102 -0.8984
  874SOL    HW2 3522   5.191   5.382   4.090 -1.3028  0.8033 -1.5942
  875SOL     OW 3523   4.947   5.326   3.985  0.3566 -0.2517 -0.1134
  875SOL    HW1 3524   4.895   5.280   3.913 -0.8542  0.5615  0.2219
  875SOL    HW2 3525   4.975   5.417   3.954  0.5436 -0.2177  0.1484
  876SOL     OW 3526   5.490   0.651   5.745 -0.1565  0.1225  0.0799
  876SOL    HW1 3527   5.543   0.690   5.820  3.0919 -1.8776 -0.9555
  876SOL    HW2 3528   5.492   0.713   5.666  0.2451  0.3011  0.2277
  877SOL     OW 3529   0.245   3.166   6.143  0.2503  0.2268 -0.8807
  877SOL    HW1 3530   0.330   3.116   6.122  1.0752  1.8709 -1.6733
  877SOL    HW2 3531   0.266   3.246   6.198 -0.9589  0.0727 -0.1640
  878SOL     OW 3532   5.228   0.642   2.383  0.4359 -0.3835 -0.3968
  878SOL    HW1 3533   5.295   0.674   2.315  0.7796  0.1136  0.1672
  878SOL    HW2 3534   5.173   0.570   2.342  1.0502 -0.5288 -1.0093
  879SOL     OW 3535   6.960   6.111   6.070 -0.2376  0.5916  0.0456
  879SOL    HW1 3536   6.994   6.134   5.979 -1.3112 -1.4679 -0.9551
  879SOL    HW2 3537   6.992   6.019   6.095  2.2348  2.0346  2.9531
  880SOL     OW 3538   3.201   3.368   3.259 -0.3778  0.6454 -0.1081
  880SOL    HW1 3539   3.216   3.277   3.221 -1.3778  0.0263  0.9109
  880SOL    HW2 3540   3.123   3.411   3.214  0.0819  1.0080 -0.5756
  881SOL     OW 3541   4.678   2.734   2.392 -0.1934 -0.2159 -0.0596
  881SOL    HW1 3542   4.687   2.746   2.293  2.0239 -1.7785 -0.1098
  881SOL    HW2 3543   4.624   2.652   2.411 -0.1921 -0.1950  0.0361
  882SOL     OW 3544   1.433   3.121   4.445 -0.2196 -0.4862 -0.3516
  882SOL    HW1 3545   1.461   3.091   4.536  0.4390 -1.1970 -0.7734
  882SOL    HW2 3546   1.445   3.046   4.380  0.7960  0.4635 -1.3040
  883SOL     OW 3547   3.144   0.260   4.321  0.4812 -0.0129 -0.3063
  883SOL    HW1 3548   3.065   0.283   4.264 -0.8835 -0.2363  1.4200
  883SOL    HW2 3549   3.222   0.316   4.294 -0.2612  0.2736 -2.0036
  884SOL     OW 3550   2.779   4.678   5.918 -0.3222  1.1371  0.0199
  884SOL    HW1 3551   2.756   4.593   5.871 -0.4790  1.3602 -0.3053
  884SOL    HW2 3552   2.872   4.671   5.955 -0.6824  0.4681  0.8252
  885SOL     OW 3553   5.595   1.674   5.128 -0.1237  0.2701 -0.0411
  885SOL    HW1 3554   5.695   1.676   5.122 -0.0959  1.6437  0.4979
  885SOL    HW2 3555   5.567   1.706   5.219 -1.0249 -1.3433  0.2734
  886SOL     OW 3556   3.621   2.668   6.482  0.0672 -0.0698  0.5639
  886SOL    HW1 3557   3.613   2.569   6.488  1.2793 -0.2604 -0.6557
  886SOL    HW2 3558   3.715   2.694   6.460 -0.4462  1.2961 -0.1953
  887SOL     OW 3559   3.276   1.105   4.820 -0.0368 -1.0719 -0.2330
  887SOL    HW1 3560   3.241   1.054   4.742 -0.3028  1.2134 -1.6746
  887SOL    HW2 3561   3.340   1.176   4.789 -1.2368  0.8527  1.4243
  888SOL     OW 3562   6.922   6.663   1.677 -0.0936 -0.2410 -0.2839
  888SOL    HW1 3563   6.852   6.693   1.612  0.2466 -0.5387 -0.7954
  888SOL    HW2 3564   6.879   6.634   1.762 -0.4638  1.4174  0.1298
  889SOL     OW 3565   2.755   4.847   4.109 -0.1550  0.6546  0.0376
  889SOL    HW1 3566   2.697   4.783   4.059 -1.3492  0.5960  1.4184
  889SOL    HW2 3567   2.742   4.833   4.208  1.2391  1.5347  0.3714
  890SOL     OW 3568   2.341   5.127   4.481  0.3231 -0.2002 -0.6868
  890SOL    HW1 3569   2.346   5.222   4.512 -0.0805 -0.8480  1.4636
  890SOL    HW2 3570   2.382   5.067   4.549 -1.2196 -1.7704 -1.0741
  891SOL     OW 3571   5.467   4.214   3.384 -0.2056 -0.3149  0.0175
  891SOL    HW1 3572   5.447   4.202   3.481  1.9123 -1.8763  0.3362
  891SOL    HW2 3573   5.423   4.140   3.332 -0.1737 -0.2891 -0.0457
  892SOL     OW 3574   3.101   3.357   6.981 -0.3602 -0.1386 -0.3601
  892SOL    HW1 3575   3.024   3.322   6.928 -0.1052  0.6054 -1.2512
  892SOL    HW2 3576   3.077   3.446   7.019  0.3082  0.4571 -1.2865
  893SOL     OW 3577   1.391   5.735   4.537 -0.5037  0.3202  0.2100
  893SOL    HW1 3578   1.403   5.817   4.482  2.9964 -0.0161  0.2035
  893SOL    HW2 3579   1.363   5.658   4.479 -1.0208  0.8793 -0.2885
  894SOL     OW 3580   6.699   4.222   0.753  0.3056  0.6266 -0.7862
  894SOL    HW1 3581   6.714   4.248   0.848 -0.0289 -1.0960 -0.2205
  894SOL    HW2 3582   6.772   4.160   0.723  0.6322  1.4793 -1.7955
  895SOL     OW 3583   5.100   6.364   6.105 -0.2447 -0.0974  0.0037
  895SOL    HW1 3584   5.065   6.446   6.060  0.9608  1.0880  1.1414
  895SOL    HW2 3585   5.149   6.308   6.039 -0.4144  0.4819 -0.6180
  896SOL     OW 3586   0.716   1.522   5.881  0.7482  0.4289  0.3374
  896SOL    HW1 3587   0.666   1.592   5.931 -1.4295 -0.5588 -0.3599
  896SOL    HW2 3588   0.739   1.556   5.789 -1.7534 -0.2515 -0.6064
  897SOL     OW 3589   4.992   3.362   6.895 -0.0061  0.6484 -0.1291
  897SOL    HW1 3590   4.948   3.319   6.816 -0.5299  2.5605 -0.9474
  897SOL    HW2 3591   5.067   3.420   6.862  1.9685 -1.0651  1.0909
  898SOL     OW 3592   5.386   2.528   2.605  0.2072 -0.0571 -0.2615
  898SOL    HW1 3593   5.359   2.602   2.667 -0.9437  0.6063 -1.4699
  898SOL    HW2 3594   5.320   2.454   2.611  1.1384 -0.8383  0.6510
  899SOL     OW 3595   6.123   6.369   0.224 -0.3386  0.1802  0.0696
  899SOL    HW1 3596   6.173   6.315   0.156 -2.4487 -2.1647  0.2832
  899SOL    HW2 3597   6.187   6.398   0.296  1.0849 -1.0446 -0.6380
  900SOL     OW 3598   6.118   4.200   6.592 -0.4498  0.0847 -0.0693
  900SOL    HW1 3599   6.104   4.141   6.671 -1.1474 -0.7255 -0.7785
  900SOL    HW2 3600   6.191   4.265   6.612 -0.3838 -0.3188  1.1104
  901SOL     OW 3601   1.742   0.359   3.592  0.0508 -0.2759 -0.5126
  901SOL    HW1 3602   1.657   0.318   3.626  0.1706 -0.9066 -0.9664
  901SOL    HW2 3603   1.811   0.356   3.664 -0.5944  1.1856  0.2295
  902SOL     OW 3604   0.004   4.290   1.676 -1.0163  0.3045 -0.1129
  902SOL    HW1 3605   0.029   4.211   1.619 -1.0910 -0.5653  1.0227
  902SOL    HW2 3606  -0.082   4.272   1.723 -0.5795  0.6671  0.8678
  903SOL     OW 3607   5.527   0.890   4.924  0.3262  0.1440 -0.1416
  903SOL    HW1 3608   5.581   0.925   5.001  0.5568 -1.2416  0.3659
  903SOL    HW2 3609   5.511   0.792   4.937 -1.4968  0.3218 -0.7787
  904SOL     OW 3610   3.441   1.329   4.440 -0.1101 -0.0596 -0.4484
  904SOL    HW1 3611   3.513   1.328   4.371  0.1062  0.8146 -0.2438
  904SOL    HW2 3612   3.378   1.404   4.421 -0.4680 -0.2729 -0.1172
  905SOL     OW 3613   5.107   2.876   5.644  0.4321  0.1103 -0.6306
  905SOL    HW1 3614   5.144   2.965   5.669 -0.5958  0.0252  1.4435
  905SOL    HW2 3615   5.012   2.886   5.614  0.8378 -0.1198 -2.0688
  906SOL     OW 3616   6.689   3.155   1.235  0.1504 -0.3453  0.1398
  906SOL    HW1 3617   6.716   3.238   1.186  0.4602 -0.7759 -0.4334
  906SOL    HW2 3618   6.771   3.112   1.274 -0.0743 -0.0942  0.9039
  907SOL     OW 3619   5.970   3.329   0.159  0.3661 -0.6401 -0.3864
  907SOL    HW1 3620   5.977   3.238   0.199 -0.0537 -0.9303 -0.9616
  907SOL    HW2 3621   5.877   3.344   0.126  0.8661 -0.6860 -1.8796
  908SOL     OW 3622   1.849   3.794   3.652 -0.2941 -0.0364 -0.2543
  908SOL    HW1 3623   1.892   3.881   3.674 -1.2908  0.5303 -0.4499
  908SOL    HW2 3624   1.910   3.719   3.675  0.2615  0.6868  0.6834
  909SOL     OW 3625   4.866   4.428   5.970  0.3331 -0.2324  0.6165
  909SOL    HW1 3626   4.918   4.358   5.921  1.5174  0.3158  1.0403
  909SOL    HW2 3627   4.827   4.389   6.054 -0.9674 -0.9474 -0.2875
  910SOL     OW 3628   5.634   4.784   1.128  0.1915  0.0647 -0.7855
  910SOL    HW1 3629   5.691   4.861   1.157  2.7768 -1.5076 -1.3938
  910SOL    HW2 3630   5.597   4.802   1.037  1.6522  0.1908 -1.3787
  911SOL     OW 3631   1.248   4.954   0.868  0.0676  0.5709  0.0171
  911SOL    HW1 3632   1.175   4.886   0.856  1.8805 -1.4075 -0.3221
  911SOL    HW2 3633   1.292   4.970   0.780  0.6886  0.9822  0.4025
  912SOL     OW 3634   4.227   6.268   4.554  0.7803  0.0441  0.5219
  912SOL    HW1 3635   4.141   6.269   4.604 -0.6687 -1.2349 -1.7990
  912SOL    HW2 3636   4.272   6.179   4.565  0.4802 -0.2279 -0.3397
  913SOL     OW 3637   0.448   5.785   3.684 -0.0970  0.8469  0.5711
  913SOL    HW1 3638   0.370   5.846   3.671 -1.9157 -0.9987  2.0629
  913SOL    HW2 3639   0.440   5.707   3.623 -0.4005 -0.2012  1.8980
  914SOL     OW 3640   4.168   0.550   6.018 -0.0342 -0.6595 -0.2092
  914SOL    HW1 3641   4.226   0.604   5.956  1.1039 -0.6204  0.8497
  914SOL    HW2 3642   4.135   0.469   5.970  1.7883 -1.2434 -0.5713
  915SOL     OW 3643   5.197   5.939   2.472  0.1841 -0.1844 -0.2416
  915SOL    HW1 3644   5.193   5.847   2.512 -1.0730 -0.3477 -0.7164
  915SOL    HW2 3645   5.200   5.931   2.372 -0.8829  0.3005 -0.3180
  916SOL     OW 3646   0.452   3.072   2.511 -0.2214 -0.1443 -0.4986
  916SOL    HW1 3647   0.471   3.088   2.415 -0.1190  1.5467 -0.2183
  916SOL    HW2 3648   0.447   2.973   2.528  1.2512 -0.5001 -1.9290
  917SOL     OW 3649   6.567   0.695   5.945 -0.0476 -0.0052  0.2629
  917SOL    HW1 3650   6.552   0.715   5.848 -1.7793  0.7025  0.6357
  917SOL    HW2 3651   6.664   0.706   5.966  0.1595  1.1573 -1.1088
  918SOL     OW 3652   4.664   6.061   5.309 -0.4420  0.2301  0.5099
  918SOL    HW1 3653   4.755   6.040   5.272 -0.9801  1.2663 -1.5537
  918SOL    HW2 3654   4.615   5.975   5.325 -0.3722 -0.3243 -1.8339
  919SOL     OW 3655   2.715   5.946   6.316  0.3084  0.3414 -0.1626
  919SOL    HW1 3656   2.684   6.040   6.301 -1.0958  0.1882  1.3797
  919SOL    HW2 3657   2.798   5.946   6.371 -0.0650  0.7018  0.4174
  920SOL     OW 3658   4.037   4.210   0.516 -0.4070  0.1818 -0.6501
  920SOL    HW1 3659   4.010   4.278   0.584  0.1200 -1.0862  0.8797
  920SOL    HW2 3660   4.132   4.181   0.533 -0.6805 -1.0647 -1.1344
  921SOL     OW 3661   6.125   5.678   5.694  0.0643 -0.1952  0.3138
  921SOL    HW1 3662   6.156   5.707   5.784  1.7350  0.8901 -0.5461
  921SOL    HW2 3663   6.194   5.619   5.653  0.5131  1.3010 -1.1959
  922SOL     OW 3664   3.778   3.961   3.715  0.1712  0.0376 -0.1607
  922SOL    HW1 3665   3.753   4.050   3.755  0.0862 -1.0260  2.3215
  922SOL    HW2 3666   3.699   3.923   3.668  0.1179  1.1238 -0.9842
  923SOL     OW 3667   3.351   4.737   5.452 -0.5026 -0.2813  0.1725
  923SOL    HW1 3668   3.408   4.660   5.425 -0.0869 -0.4627  1.5211
  923SOL    HW2 3669   3.256   4.707   5.460 -0.5548 -0.3340 -0.5994
  924SOL     OW 3670   1.253   3.025   6.999  0.1162 -0.1880 -0.4108
  924SOL    HW1 3671   1.191   2.974   7.059  0.3191  0.2478  0.1716
  924SOL    HW2 3672   1.267   2.973   6.915 -0.3910 -0.6742 -0.2038
  925SOL     OW 3673   0.318   0.071   0.296  0.1925 -0.1200  0.0494
  925SOL    HW1 3674   0.338  -0.026   0.308 -0.3998  0.0563  3.4923
  925SOL    HW2 3675   0.238   0.095   0.351 -1.6006  1.7836 -3.1001
  926SOL     OW 3676   0.710   0.424   2.499 -0.1935  0.1057  0.2418
  926SOL    HW1 3677   0.622   0.430   2.547 -1.1097 -2.7370 -0.8535
  926SOL    HW2 3678   0.761   0.345   2.533  1.3061  0.8712 -0.1596
  927SOL     OW 3679   6.876   4.006   4.152  0.2869  0.5776 -0.8852
  927SOL    HW1 3680   6.963   4.025   4.106 -0.4235  0.4265 -2.3686
  927SOL    HW2 3681   6.804   4.060   4.108 -0.3792  0.6756  0.3050
  928SOL     OW 3682   2.169   0.178   0.084  0.0425 -0.8635  0.1559
  928SOL    HW1 3683   2.112   0.151   0.162 -2.2488  3.3490  0.2169
  928SOL    HW2 3684   2.143   0.125   0.004  1.0347 -3.8647  1.6593
  929SOL     OW 3685   2.925   2.172   4.876 -0.1928 -0.2002  0.2847
  929SOL    HW1 3686   2.876   2.086   4.890  0.1286 -0.3898  0.2526
  929SOL    HW2 3687   3.003   2.177   4.938 -0.1340  0.0098  0.1946
  930SOL     OW 3688   5.772   6.575   6.461 -0.5297  0.0805 -0.4310
  930SOL    HW1 3689   5.737   6.512   6.530 -0.3215  0.2076 -0.2041
  930SOL    HW2 3690   5.718   6.659   6.463 -0.7126 -0.0322 -0.6293
  931SOL     OW 3691   0.020   0.254   3.498  0.6781 -0.2540 -0.6104
  931SOL    HW1 3692  -0.031   0.215   3.575  0.8182  0.5170 -0.1158
  931SOL    HW2 3693   0.105   0.202   3.486 -0.7015 -2.3245 -2.2108
  932SOL     OW 3694   4.256   0.240   3.315  0.4509 -0.7146 -0.4720
  932SOL    HW1 3695   4.202   0.262   3.396  1.8138 -0.7596  0.4870
  932SOL    HW2 3696   4.308   0.321   3.286 -0.2726 -0.6075 -1.5087
  933SOL     OW 3697   0.754   2.671   3.188  0.8349  0.0987  0.7282
  933SOL    HW1 3698   0.734   2.643   3.282  0.9876 -0.6832  0.5419
  933SOL    HW2 3699   0.687   2.738   3.157 -0.6799 -1.4209  0.5827
  934SOL     OW 3700   1.844   4.063   0.523  0.0137 -0.6068 -0.0573
  934SOL    HW1 3701   1.745   4.074   0.534  0.2209  1.3695  0.1174
  934SOL    HW2 3702   1.892   4.127   0.583  1.4008 -1.2753 -0.4175
  935SOL     OW 3703   5.310   4.483   6.441  0.2075 -0.1579  0.1844
  935SOL    HW1 3704   5.375   4.437   6.380  0.5922  0.0333  0.4495
  935SOL    HW2 3705   5.352   4.497   6.530  0.0022  0.4887  0.1820
  936SOL     OW 3706   1.838   1.020   4.591 -0.0481  0.4488 -0.3152
  936SOL    HW1 3707   1.873   0.958   4.660  1.6081  0.1270 -1.3924
  936SOL    HW2 3708   1.804   1.103   4.635 -0.8390 -0.5446  1.0093
  937SOL     OW 3709   1.129   1.562   6.763 -0.1310  0.5690  0.2720
  937SOL    HW1 3710   1.176   1.592   6.846  0.0677  0.6210  0.1393
  937SOL    HW2 3711   1.107   1.464   6.771  0.8778  0.3001 -0.0776
  938SOL     OW 3712   6.189   6.047   4.080 -0.1809 -0.1534 -0.7393
  938SOL    HW1 3713   6.204   6.080   4.173 -0.1620 -0.5177 -0.6083
  938SOL    HW2 3714   6.114   5.980   4.080  0.1960 -0.5858 -0.8828
  939SOL     OW 3715   0.613   5.059   4.141  0.2346 -0.1839  0.0125
  939SOL    HW1 3716   0.676   5.009   4.200  1.1131  0.8312 -0.0414
  939SOL    HW2 3717   0.603   5.153   4.174  0.8348  0.4468 -1.5016
  940SOL     OW 3718   2.038   3.829   3.073 -0.2264 -0.0699 -0.0833
  940SOL    HW1 3719   2.070   3.808   3.165  0.0639  0.1830 -0.1275
  940SOL    HW2 3720   2.076   3.762   3.009 -0.4069 -0.2301 -0.0243
  941SOL     OW 3721   3.336   6.390   2.452  0.5252 -0.6594 -0.1101
  941SOL    HW1 3722   3.261   6.404   2.387  0.7068  0.0778 -0.1689
  941SOL    HW2 3723   3.394   6.316   2.419  0.3807 -0.5730 -0.5789
  942SOL     OW 3724   0.553   5.103   1.040  0.0109 -0.5863  0.2311
  942SOL    HW1 3725   0.506   5.110   0.952 -0.4541  0.3991  0.5510
  942SOL    HW2 3726   0.600   5.189   1.059 -1.3406 -0.1437  1.7617
  943SOL     OW 3727   2.614   2.176   0.523 -0.1564 -1.0255 -0.6362
  943SOL    HW1 3728   2.607   2.091   0.575 -0.7571 -0.0212  0.9940
  943SOL    HW2 3729   2.523   2.210   0.501  0.0007  0.0330  0.2098
  944SOL     OW 3730   6.656   6.585   2.937  0.1392  0.1955  0.4676
  944SOL    HW1 3731   6.617   6.501   2.900 -0.0667 -0.0120  1.1279
  944SOL    HW2 3732   6.621   6.599   3.030  0.7815  0.5989  0.6538
  945SOL     OW 3733   0.922   4.384   6.737  0.2789 -0.4824  0.2064
  945SOL    HW1 3734   0.906   4.319   6.811 -0.3754 -0.5685 -0.0006
  945SOL    HW2 3735   1.015   4.419   6.743  1.1362 -2.5034 -0.5048
  946SOL     OW 3736   4.975   2.085   5.316 -0.1169  0.7641  0.0233
  946SOL    HW1 3737   5.060   2.137   5.309 -1.4652  2.8880 -3.1179
  946SOL    HW2 3738   4.978   2.008   5.252  0.3211 -0.7120  1.7428
  947SOL     OW 3739   3.003   4.016   1.864  0.4571 -0.0948  0.2788
  947SOL    HW1 3740   3.091   3.974   1.887  0.7336  0.6762  0.6576
  947SOL    HW2 3741   3.018   4.103   1.817 -0.0975  0.3115  0.8376
  948SOL     OW 3742   5.708   2.366   2.518 -0.3697  0.6937  0.3049
  948SOL    HW1 3743   5.661   2.327   2.597 -4.8463  0.0401 -2.3028
  948SOL    HW2 3744   5.690   2.464   2.513 -0.5911  0.6372 -0.1304
  949SOL     OW 3745   2.099   0.188   5.943  0.2473  0.2032  0.7186
  949SOL    HW1 3746   2.025   0.236   5.897 -0.6083 -0.1695  1.6668
  949SOL    HW2 3747   2.109   0.096   5.904  1.0314  0.6709 -0.2230
  950SOL     OW 3748   1.236   0.564   2.944  0.3140  0.7209  0.1690
  950SOL    HW1 3749   1.259   0.661   2.937 -0.2646  0.8108 -0.6042
  950SOL    HW2 3750   1.278   0.515   2.868  0.9415  0.2893  0.7852
  951SOL     OW 3751   5.770   1.786   0.928  0.3017  0.4225  0.9359
  951SOL    HW1 3752   5.812   1.871   0.961  1.5489  0.1926  0.0247
  951SOL    HW2 3753   5.841   1.728   0.889 -0.5090 -1.1353  1.6989
  952SOL     OW 3754   4.189   1.374   3.248  0.0737  0.2810 -0.4075
  952SOL    HW1 3755   4.171   1.324   3.163  0.6014 -0.2261 -0.2243
  952SOL    HW2 3756   4.118   1.351   3.315  1.5840 -2.0994  0.4757
  953SOL     OW 3757   0.124   6.158   5.282 -0.3148 -0.0000 -0.3143
  953SOL    HW1 3758   0.090   6.220   5.351 -2.9329 -0.0700 -1.4143
  953SOL    HW2 3759   0.065   6.076   5.278  1.1521 -1.0757 -1.0380
  954SOL     OW 3760   5.054   0.468   3.124  0.8587  0.6034 -0.1851
  954SOL    HW1 3761   5.016   0.549   3.166  0.2884 -0.1823  0.8572
  954SOL    HW2 3762   5.154   0.469   3.132  0.8699  1.3209 -0.4181
  955SOL     OW 3763   3.426   4.583   0.885  0.7027 -0.5760  0.0937
  955SOL    HW1 3764   3.384   4.638   0.956 -0.4232  0.9789 -1.6884
  955SOL    HW2 3765   3.364   4.574   0.807  2.3794 -1.0384 -1.2772
  956SOL     OW 3766   3.749   6.880   6.927  0.1859 -0.3466  0.2940
  956SOL    HW1 3767   3.789   6.860   6.838  0.4935  0.2296  0.2958
  956SOL    HW2 3768   3.771   6.806   6.991 -0.4186 -0.9762 -0.2184
  957SOL     OW 3769   6.585   0.337   3.295  0.1117 -0.3300 -0.1720
  957SOL    HW1 3770   6.528   0.419   3.296  1.2631  0.5459  2.2835
  957SOL    HW2 3771   6.609   0.312   3.389  2.0589 -1.8512 -1.0026
  958SOL     OW 3772   4.928   4.552   2.379  0.6369 -0.1488  0.2697
  958SOL    HW1 3773   4.868   4.587   2.452  1.4610 -0.9033  1.3327
  958SOL    HW2 3774   4.952   4.457   2.398  0.4665 -0.5277 -1.2680
  959SOL     OW 3775   5.547   6.389   1.375 -0.5622  0.3290 -0.2474
  959SOL    HW1 3776   5.606   6.425   1.447 -0.3549 -0.3692 -0.0649
  959SOL    HW2 3777   5.587   6.306   1.338 -1.6353 -0.3849  0.1551
  960SOL     OW 3778   0.640   6.536   1.301  0.0980  0.2466 -0.5919
  960SOL    HW1 3779   0.629   6.526   1.202 -1.1596  0.5346 -0.4888
  960SOL    HW2 3780   0.723   6.588   1.320 -0.5170  1.6245 -1.5572
  961SOL     OW 3781   4.932   6.308   5.179 -0.0876  0.3659  1.1474
  961SOL    HW1 3782   4.854   6.332   5.238 -0.8964  3.0426 -0.8049
  961SOL    HW2 3783   4.973   6.392   5.143  0.6904 -1.0890 -1.6558
  962SOL     OW 3784   1.121   1.632   3.922  0.6478  0.4235  0.4866
  962SOL    HW1 3785   1.126   1.730   3.905  0.8637  0.1332 -1.2520
  962SOL    HW2 3786   1.211   1.591   3.912  0.5140 -0.0067  0.9626
  963SOL     OW 3787   6.457   2.931   2.223 -0.2559 -0.2408 -0.7073
  963SOL    HW1 3788   6.494   2.967   2.309 -1.3793 -1.7058  0.4524
  963SOL    HW2 3789   6.406   3.003   2.176  1.1191  0.8372 -0.6251
  964SOL     OW 3790   4.163   6.784   4.461 -0.1422 -0.1799  0.1884
  964SOL    HW1 3791   4.076   6.785   4.411 -0.3730 -1.8839  0.4947
  964SOL    HW2 3792   4.205   6.693   4.453  1.5278  0.5492  0.2113
  965SOL     OW 3793   5.013   1.766   3.554  0.0216  0.1928 -0.2911
  965SOL    HW1 3794   4.923   1.725   3.562 -0.3026  0.9343 -0.0870
  965SOL    HW2 3795   5.035   1.781   3.458  0.9489 -2.1821 -0.5356
  966SOL     OW 3796   5.941   0.917   0.401  0.3800  0.1827 -0.0690
  966SOL    HW1 3797   5.962   0.976   0.323  0.9248 -0.2288 -0.2353
  966SOL    HW2 3798   5.860   0.863   0.381  0.7658 -0.2318 -0.5206
  967SOL     OW 3799   3.563   6.718   0.759  0.2080  0.0127  0.5585
  967SOL    HW1 3800   3.551   6.719   0.660  1.0992 -1.4731  0.3945
  967SOL    HW2 3801   3.531   6.804   0.798 -0.0154  0.6781 -1.0267
  968SOL     OW 3802   5.491   6.013   1.579  0.1299  0.5485  0.0563
  968SOL    HW1 3803   5.572   6.037   1.525 -0.1367  1.3898  0.0224
  968SOL    HW2 3804   5.497   5.917   1.607  1.5008  0.8029  0.6894
  969SOL     OW 3805   4.779   3.434   6.340 -0.2488  0.1798  0.4186
  969SOL    HW1 3806   4.707   3.484   6.388  1.0679  3.4607 -0.7589
  969SOL    HW2 3807   4.849   3.405   6.406 -1.4536 -1.0216  1.2368
  970SOL     OW 3808   4.381   6.368   5.629  0.4068  0.0829  0.2657
  970SOL    HW1 3809   4.353   6.444   5.571 -1.4164 -1.9853 -1.7602
  970SOL    HW2 3810   4.459   6.321   5.588  0.8260  0.1792  0.9339
  971SOL     OW 3811   5.278   4.965   2.412  0.4540 -0.2658  0.1469
  971SOL    HW1 3812   5.202   5.029   2.398  0.5959  0.2933  1.7591
  971SOL    HW2 3813   5.298   4.958   2.509  1.2655 -1.8399 -0.1026
  972SOL     OW 3814   6.835   5.964   0.052  0.0601  0.3450 -0.3810
  972SOL    HW1 3815   6.774   5.986   0.128 -1.4670  0.0424 -1.4692
  972SOL    HW2 3816   6.903   6.037   0.041 -0.7971  1.2492  0.1825
  973SOL     OW 3817   2.920   4.136   6.669 -0.2683  0.3055  0.1441
  973SOL    HW1 3818   2.854   4.149   6.595 -1.1570 -0.3440  0.8028
  973SOL    HW2 3819   3.011   4.122   6.630 -0.9832 -1.8128 -0.9349
  974SOL     OW 3820   1.755   4.309   6.591 -0.3278  0.4788 -0.2918
  974SOL    HW1 3821   1.765   4.236   6.658  1.3979  0.8450 -0.1002
  974SOL    HW2 3822   1.734   4.269   6.501  0.8490 -0.2979 -0.2437
  975SOL     OW 3823   4.481   6.775   2.119 -0.6266  0.2616 -0.3151
  975SOL    HW1 3824   4.441   6.855   2.164  0.7190  1.1587 -0.6477
  975SOL    HW2 3825   4.486   6.792   2.020  1.6131  0.7102 -0.1779
  976SOL     OW 3826   0.030   3.261   3.608 -0.4229 -0.1800 -0.3203
  976SOL    HW1 3827  -0.048   3.304   3.654  0.1649 -1.8690  2.4744
  976SOL    HW2 3828   0.103   3.329   3.597 -0.6968  0.3827  1.0471
  977SOL     OW 3829   5.936   2.157   1.650  0.4087 -0.2744 -0.3243
  977SOL    HW1 3830   6.016   2.098   1.654  1.4192  1.0759  0.6285
  977SOL    HW2 3831   5.930   2.200   1.560 -1.2217 -2.9144 -1.5723
  978SOL     OW 3832   4.395   2.187   0.021 -0.5308  0.1256 -0.8378
  978SOL    HW1 3833   4.398   2.281  -0.015  1.0337 -0.5912 -2.7861
  978SOL    HW2 3834   4.337   2.131  -0.038 -5.4851  0.6701  2.8755
  979SOL     OW 3835   1.277   6.976   0.169 -0.3149 -0.1341  0.5909
  979SOL    HW1 3836   1.201   6.923   0.132 -1.1355  0.3128  1.6054
  979SOL    HW2 3837   1.322   6.926   0.242  0.8684 -0.7145 -0.4822
  980SOL     OW 3838   4.875   2.383   3.548  0.0597 -0.0700 -0.3471
  980SOL    HW1 3839   4.931   2.382   3.632  1.4073  0.1165 -1.2118
  980SOL    HW2 3840   4.803   2.313   3.555  0.9768 -0.9727  0.4320
  981SOL     OW 3841   1.088   4.508   4.837  0.0732  0.4333  0.1512
  981SOL    HW1 3842   1.179   4.548   4.840  0.0485  0.6238 -1.2721
  981SOL    HW2 3843   1.095   4.409   4.835  0.1877  0.3910  1.6275
  982SOL     OW 3844   6.402   2.317   6.827 -0.6472  0.0347  0.2794
  982SOL    HW1 3845   6.431   2.312   6.731 -0.6794 -1.4329  0.3208
  982SOL    HW2 3846   6.318   2.264   6.839  0.2273 -1.1451  1.4278
  983SOL     OW 3847   6.144   5.114   2.367  0.3233  0.3892  0.5940
  983SOL    HW1 3848   6.176   5.195   2.415 -0.2143  1.0936 -0.2114
  983SOL    HW2 3849   6.066   5.075   2.415  0.7468  0.1805  1.1279
  984SOL     OW 3850   5.158   3.503   4.588  0.2081 -0.3786  0.2828
  984SOL    HW1 3851   5.092   3.512   4.663 -0.2214 -0.3846 -0.0899
  984SOL    HW2 3852   5.250   3.506   4.625  0.0753  2.0712  0.5978
  985SOL     OW 3853   4.250   3.778   5.822  0.2466 -0.0946 -0.4577
  985SOL    HW1 3854   4.166   3.822   5.855  0.9462 -0.2943  1.7614
  985SOL    HW2 3855   4.259   3.792   5.723 -2.3303  0.0106 -0.7430
  986SOL     OW 3856   2.931   5.618   6.064  0.5331 -0.2348 -0.1654
  986SOL    HW1 3857   2.857   5.647   6.125  0.8741 -0.7618  0.5189
  986SOL    HW2 3858   2.912   5.525   6.031 -0.4948  0.6640 -2.2410
  987SOL     OW 3859   4.036   5.476   4.010  0.1152  0.2345 -0.3006
  987SOL    HW1 3860   4.119   5.428   4.039 -0.1112 -0.3620 -0.6212
  987SOL    HW2 3861   3.977   5.413   3.959 -0.1976  0.8551 -0.7152
  988SOL     OW 3862   2.210   4.482   1.406  0.2207 -0.1123 -0.2558
  988SOL    HW1 3863   2.215   4.490   1.505  0.7563 -0.4100 -0.2525
  988SOL    HW2 3864   2.301   4.495   1.367  0.4202 -2.0236 -0.5408
  989SOL     OW 3865   1.282   2.019   0.978  0.1289 -0.0299  0.4010
  989SOL    HW1 3866   1.277   2.002   0.880 -0.3406 -0.0921  0.4368
  989SOL    HW2 3867   1.201   1.983   1.023 -0.1117  0.8381  0.6907
  990SOL     OW 3868   3.768   5.735   5.953  0.0504  0.1535 -0.2995
  990SOL    HW1 3869   3.810   5.650   5.987 -0.7420 -0.7277 -1.4387
  990SOL    HW2 3870   3.817   5.765   5.871  1.8972  2.2178  1.4218
  991SOL     OW 3871   2.925   0.436   4.275 -0.4025 -0.9541  0.3768
  991SOL    HW1 3872   2.845   0.464   4.329 -0.5995 -0.6081 -0.0849
  991SOL    HW2 3873   2.904   0.444   4.178  0.6601  0.5521  0.2357
  992SOL     OW 3874   6.208   3.834   1.796 -0.4738 -1.1260 -0.2005
  992SOL    HW1 3875   6.236   3.833   1.700  0.6522 -2.7025  0.1075
  992SOL    HW2 3876   6.110   3.854   1.801 -0.5074 -0.7715 -1.6580
  993SOL     OW 3877   2.789   3.813   5.560  0.1589  0.3111 -0.3826
  993SOL    HW1 3878   2.786   3.770   5.470  1.2252 -0.1835 -0.1932
  993SOL    HW2 3879   2.881   3.806   5.598 -0.6188 -0.8694  1.4255
  994SOL     OW 3880   2.614   5.569   1.702 -0.1909  0.2467  0.0257
  994SOL    HW1 3881   2.537   5.536   1.756  0.1363  0.4780  0.6394
  994SOL    HW2 3882   2.694   5.510   1.717 -0.1459  0.2076 -0.3434
  995SOL     OW 3883   5.280   5.776   5.838 -0.2343  0.3766  0.1756
  995SOL    HW1 3884   5.247   5.811   5.926  0.2508  0.3891  0.3563
  995SOL    HW2 3885   5.339   5.697   5.853 -0.0486  0.4546 -0.1315
  996SOL     OW 3886   3.602   6.189   6.616  0.0869 -0.1928  0.3037
  996SOL    HW1 3887   3.549   6.226   6.692  0.8933  0.1319  0.7139
  996SOL    HW2 3888   3.547   6.194   6.532 -0.7668 -0.4686  0.8388
  997SOL     OW 3889   2.973   5.620   4.643  0.2181 -0.2502  0.0532
  997SOL    HW1 3890   2.938   5.672   4.720  0.1017 -0.1354 -0.0770
  997SOL    HW2 3891   2.897   5.571   4.599  0.1423  0.3505 -0.5022
  998SOL     OW 3892   5.442   6.069   0.799  0.1300 -0.1817  0.1413
  998SOL    HW1 3893   5.348   6.050   0.829  0.1620 -0.1751  0.2468
  998SOL    HW2 3894   5.486   6.129   0.866  0.4388 -0.7498  0.4553
  999SOL     OW 3895   6.973   2.162   3.544 -0.1466 -0.5864  0.2812
  999SOL    HW1 3896   6.942   2.250   3.580  1.1016 -0.0096 -0.0299
  999SOL    HW2 3897   6.947   2.154   3.448 -0.1404 -0.5013  0.2728
 1000SOL     OW 3898   5.751   1.845   1.365  0.1497  0.3031  0.0458
 1000SOL    HW1 3899   5.695   1.835   1.283 -0.1738  2.2090  0.0109
 1000SOL    HW2 3900   5.845   1.817   1.344 -0.4000 -1.4084 -0.3147
 1001SOL     OW 3901   1.568   0.625   2.420  0.1817 -0.2212  0.1057
 1001SOL    HW1 3902   1.565   0.538   2.470  0.0569  0.1155  0.6986
 1001SOL    HW2 3903   1.662   0.659   2.419  0.5279 -1.1392 -1.5155
 1002SOL     OW 3904   4.254   2.060   0.253  0.6691 -0.2458  0.2002
 1002SOL    HW1 3905   4.306   2.060   0.338 -0.8851 -1.4210  1.2139
 1002SOL    HW2 3906   4.291   2.129   0.191  3.1766 -0.8298  0.9639
 1003SOL     OW 3907   6.972   2.266   4.780  0.4861 -0.4950 -0.1222
 1003SOL    HW1 3908   7.045   2.294   4.843  1.2702  0.8468 -1.5412
 1003SOL    HW2 3909   6.974   2.167   4.769 -0.0202 -0.8341  2.3227
 1004SOL     OW 3910   4.242   2.132   5.576 -0.4565 -0.3005 -0.0295
 1004SOL    HW1 3911   4.319   2.176   5.622 -1.6038 -0.6728  2.4405
 1004SOL    HW2 3912   4.241   2.034   5.598 -2.1905 -0.1109  0.9073
 1005SOL     OW 3913   0.179   6.339   0.590  0.1708  0.0105  0.1561
 1005SOL    HW1 3914   0.240   6.389   0.651 -0.8722 -1.6493  2.7270
 1005SOL    HW2 3915   0.201   6.242   0.592 -0.5194 -0.2232 -1.4350
 1006SOL     OW 3916   2.387   4.845   2.956  0.1188 -0.4944  0.0239
 1006SOL    HW1 3917   2.375   4.855   2.858  0.1953  0.8756  0.1332
 1006SOL    HW2 3918   2.445   4.766   2.975  0.0467 -0.8055 -1.0213
 1007SOL     OW 3919   4.668   5.999   6.583 -0.5466 -0.2575  0.1279
 1007SOL    HW1 3920   4.652   6.089   6.545 -1.0063  0.1424  1.2208
 1007SOL    HW2 3921   4.641   5.998   6.680 -2.0967 -1.9981 -0.2621
 1008SOL     OW 3922   0.245   2.956   5.352  0.2821 -0.1782  0.5229
 1008SOL    HW1 3923   0.254   3.042   5.303  1.5029 -0.5872 -0.0072
 1008SOL    HW2 3924   0.165   2.907   5.318  0.6697 -0.1008 -0.5238
 1009SOL     OW 3925   5.224   5.096   6.421 -0.4110  0.2906 -0.3302
 1009SOL    HW1 3926   5.289   5.143   6.361 -0.5647  1.3861  0.3407
 1009SOL    HW2 3927   5.216   5.001   6.392 -0.1761  0.6846 -1.8009
 1010SOL     OW 3928   3.750   2.695   0.376  0.4441 -0.0511  0.2666
 1010SOL    HW1 3929   3.796   2.606   0.384 -1.6021 -1.3548 -1.3276
 1010SOL    HW2 3930   3.736   2.716   0.279  2.2465  2.8381  0.5266
 1011SOL     OW 3931   6.432   6.327   4.149  0.4740  0.2303  0.5622
 1011SOL    HW1 3932   6.344   6.309   4.192 -0.2658  0.3859 -0.8400
 1011SOL    HW2 3933   6.452   6.425   4.153 -0.6277  0.5765 -1.2898
 1012SOL     OW 3934   5.064   6.242   3.465 -0.4428  0.7099 -0.2800
 1012SOL    HW1 3935   5.073   6.171   3.536  2.1768  1.3567  0.1050
 1012SOL    HW2 3936   5.094   6.330   3.502  0.1619  1.2355 -1.9636
 1013SOL     OW 3937   0.727   0.521   4.702  0.5742  0.0922 -0.0070
 1013SOL    HW1 3938   0.737   0.607   4.752 -0.0619 -0.4850  1.1366
 1013SOL    HW2 3939   0.793   0.455   4.737  0.8057 -0.0094 -0.6277
 1014SOL     OW 3940   0.981   3.411   4.757 -0.3479 -0.6939 -0.0917
 1014SOL    HW1 3941   1.005   3.330   4.812  0.2330 -1.0456 -0.8431
 1014SOL    HW2 3942   1.065   3.449   4.717 -0.5662  0.5134  0.5603
 1015SOL     OW 3943   2.570   6.238   0.229 -0.1083  0.2773  0.3059
 1015SOL    HW1 3944   2.529   6.298   0.298  0.5961 -0.2444  1.2004
 1015SOL    HW2 3945   2.518   6.153   0.223 -0.8642  0.7840 -0.6702
 1016SOL     OW 3946   0.396   4.549   0.482 -0.1702  0.2566  0.7913
 1016SOL    HW1 3947   0.443   4.632   0.512  0.1565 -0.5561  2.6990
 1016SOL    HW2 3948   0.448   4.469   0.511  0.9517 -0.7419 -3.3304
 1017SOL     OW 3949   1.151   0.896   1.402  0.1019  0.1685  0.2882
 1017SOL    HW1 3950   1.194   0.860   1.319 -0.8160 -0.6856  0.1597
 1017SOL    HW2 3951   1.101   0.822   1.448  0.3703  0.6943  1.4595
 1018SOL     OW 3952   6.075   5.181   6.454 -0.1349  0.2879  0.2651
 1018SOL    HW1 3953   6.103   5.115   6.523 -1.1230  0.2735  0.6635
 1018SOL    HW2 3954   5.980   5.208   6.470 -0.6114 -0.2174 -1.4603
 1019SOL     OW 3955   5.558   3.732   2.300  0.0636  0.3514 -0.0244
 1019SOL    HW1 3956   5.560   3.825   2.265 -2.7211  1.2069  1.7838
 1019SOL    HW2 3957   5.528   3.670   2.227  1.1134  0.9530 -1.0038
 1020SOL     OW 3958   4.669   1.587   6.644  0.0926 -0.0544  0.4708
 1020SOL    HW1 3959   4.582   1.635   6.653  0.2287 -0.1743  3.4219
 1020SOL    HW2 3960   4.659   1.493   6.677  1.5139  0.1832  1.6644
 1021SOL     OW 3961   0.473   1.405   2.047  0.1516  0.1608 -0.1661
 1021SOL    HW1 3962   0.495   1.472   2.118 -3.2513 -0.2691  1.4792
 1021SOL    HW2 3963   0.476   1.313   2.085  0.5509 -0.2860 -1.2401
 1022SOL     OW 3964   1.960   5.036   4.972 -0.0352 -0.2822  0.3662
 1022SOL    HW1 3965   2.002   5.104   4.912  0.3555 -1.5470 -0.8407
 1022SOL    HW2 3966   1.968   5.066   5.067  0.0523  1.3787 -0.1389
 1023SOL     OW 3967   2.335   2.183   2.565 -0.3552 -0.1892 -0.2919
 1023SOL    HW1 3968   2.405   2.164   2.497 -0.4562 -2.3472  0.1420
 1023SOL    HW2 3969   2.262   2.116   2.558 -1.0949  0.4359  0.9986
 1024SOL     OW 3970   6.614   3.465   5.937 -0.3339 -0.4198 -0.2123
 1024SOL    HW1 3971   6.696   3.427   5.980 -0.1505 -1.4892 -1.4291
 1024SOL    HW2 3972   6.569   3.528   6.000  0.0016 -1.7892  1.4865
 1025SOL     OW 3973   5.516   3.068   0.715 -0.3300  0.3750  0.1346
 1025SOL    HW1 3974   5.460   2.993   0.749  0.2331 -0.1033  0.0276
 1025SOL    HW2 3975   5.513   3.071   0.615 -0.1743  0.3557  0.1289
 1026SOL     OW 3976   2.978   2.192   2.692 -0.4643  0.1321  0.3785
 1026SOL    HW1 3977   2.936   2.197   2.783 -0.2392  1.2291  0.4401
 1026SOL    HW2 3978   2.911   2.216   2.622 -0.1053  1.3974  0.4392
 1027SOL     OW 3979   4.723   6.411   0.434  0.2348  0.1558  0.8365
 1027SOL    HW1 3980   4.644   6.411   0.494 -0.0001 -0.9273  0.5456
 1027SOL    HW2 3981   4.787   6.339   0.461  0.4731  0.1302  0.2395
 1028SOL     OW 3982   1.154   4.084   3.737  0.0040 -0.2296 -0.0809
 1028SOL    HW1 3983   1.244   4.113   3.770 -0.8260  2.2236  0.3001
 1028SOL    HW2 3984   1.144   4.111   3.641 -0.4942  0.0140  0.0337
 1029SOL     OW 3985   1.041   1.183   5.215  0.0759  0.2294  0.1348
 1029SOL    HW1 3986   1.117   1.247   5.203  2.9603 -2.4057  2.3705
 1029SOL    HW2 3987   0.997   1.199   5.304 -0.2708  0.1436 -0.0201
 1030SOL     OW 3988   4.098   2.800   1.021 -0.8128 -0.0818 -0.5989
 1030SOL    HW1 3989   4.151   2.878   0.989  0.2703 -0.9808 -1.0589
 1030SOL    HW2 3990   4.054   2.822   1.108 -0.9693  1.2117 -0.9877
 1031SOL     OW 3991   3.148   1.791   6.486 -0.5472  0.0770 -0.1484
 1031SOL    HW1 3992   3.101   1.872   6.451 -0.7103  0.5165  1.0264
 1031SOL    HW2 3993   3.229   1.820   6.537 -0.8445 -0.4642  0.6493
 1032SOL     OW 3994   0.718   1.445   0.779 -0.2362 -0.2396 -0.3930
 1032SOL    HW1 3995   0.736   1.407   0.870 -0.4582  0.1830 -0.1695
 1032SOL    HW2 3996   0.742   1.378   0.709  1.7043  0.0704 -0.0995
 1033SOL     OW 3997   6.576   0.254   1.971  0.1953  0.1035 -1.0702
 1033SOL    HW1 3998   6.645   0.183   1.984  0.6363  0.5984 -0.6010
 1033SOL    HW2 3999   6.619   0.334   1.928 -0.3251  0.0301 -1.7200
 1034SOL     OW 4000   2.079   0.975   5.548  0.1267  0.4392  0.2315
 1034SOL    HW1 4001   2.070   1.073   5.567  1.3257  0.7023 -0.4111
 1034SOL    HW2 4002   2.033   0.923   5.619 -2.1729  1.4782 -0.4089
 1035SOL     OW 4003   1.187   0.756   5.738 -0.4427 -0.1743 -0.3328
 1035SOL    HW1 4004   1.204   0.734   5.641  0.0357 -1.8005  0.0799
 1035SOL    HW2 4005   1.088   0.760   5.754 -0.5482 -1.1955 -0.6433
 1036SOL     OW 4006   5.403   2.227   1.957 -0.1385 -0.1541 -0.6393
 1036SOL    HW1 4007   5.421   2.145   2.011  0.8440  0.9430  0.7646
 1036SOL    HW2 4008   5.483   2.286   1.957 -1.0760  1.1767 -0.9618
 1037SOL     OW 4009   0.798   6.061   2.822 -0.8323 -0.0509  0.2841
 1037SOL    HW1 4010   0.896   6.075   2.837 -1.0751  0.1034  1.9627
 1037SOL    HW2 4011   0.759   6.143   2.780 -0.5264  0.5658  1.1743
 1038SOL     OW 4012   0.152   1.462   2.042  0.1631  0.0355  0.6644
 1038SOL    HW1 4013   0.199   1.492   1.960 -0.7589 -0.1878  0.0419
 1038SOL    HW2 4014   0.219   1.442   2.114  1.0174 -0.3438 -0.2171
 1039SOL     OW 4015   4.147   3.587   2.278 -0.3035 -0.3135 -0.5087
 1039SOL    HW1 4016   4.049   3.571   2.293  0.2301 -2.9224  0.5876
 1039SOL    HW2 4017   4.184   3.513   2.222  0.9392  1.0513 -1.5612
 1040SOL     OW 4018   4.443   2.009   3.596 -0.3074  0.2602 -0.4200
 1040SOL    HW1 4019   4.389   2.078   3.547 -0.3971  0.6346  0.1932
 1040SOL    HW2 4020   4.490   1.951   3.531  0.9100  1.7959 -0.9551
 1041SOL     OW 4021   6.489   0.968   6.931  0.1592  0.0817 -0.7900
 1041SOL    HW1 4022   6.436   1.027   6.992  0.6282  0.9661 -1.2179
 1041SOL    HW2 4023   6.471   0.873   6.954 -2.2937  0.2914 -1.4578
 1042SOL     OW 4024   6.241   4.399   4.164  0.4728 -0.6520 -0.4284
 1042SOL    HW1 4025   6.241   4.491   4.203 -1.3140 -0.1951 -1.3838
 1042SOL    HW2 4026   6.151   4.380   4.124  0.4135 -3.2466  0.7250
 1043SOL     OW 4027   3.070   1.925   3.503 -0.1617  0.0312 -0.1992
 1043SOL    HW1 4028   3.155   1.937   3.452 -0.3374  1.0058 -0.2839
 1043SOL    HW2 4029   3.013   2.006   3.492 -1.1696 -0.6607 -0.2497
 1044SOL     OW 4030   4.014   6.480   2.935 -0.3964  0.1372 -0.0730
 1044SOL    HW1 4031   3.991   6.491   3.031  0.0856 -0.3368  0.1060
 1044SOL    HW2 4032   4.000   6.385   2.908  0.2155  0.0931 -0.2587
 1045SOL     OW 4033   2.177   0.128   4.539  0.3424  0.7910 -0.4198
 1045SOL    HW1 4034   2.260   0.085   4.504 -0.0600 -0.6117  0.2895
 1045SOL    HW2 4035   2.177   0.122   4.639 -1.0360 -0.0528 -0.4500
 1046SOL     OW 4036   4.513   2.794   5.742  0.3392 -0.1941 -0.5988
 1046SOL    HW1 4037   4.528   2.887   5.709 -1.9080  0.0272 -1.1919
 1046SOL    HW2 4038   4.469   2.740   5.670  1.3172 -1.6586 -0.1574
 1047SOL     OW 4039   4.770   1.766   4.162  0.2483 -0.4585 -0.2198
 1047SOL    HW1 4040   4.830   1.730   4.091  0.5686 -1.5467  0.5731
 1047SOL    HW2 4041   4.792   1.862   4.179  2.0779 -0.9497  0.3612
 1048SOL     OW 4042   6.903   0.522   1.224 -0.6274  0.4334 -0.6586
 1048SOL    HW1 4043   6.939   0.468   1.300 -3.3614 -0.1235  0.3404
 1048SOL    HW2 4044   6.917   0.472   1.138  0.1680 -0.1264 -0.2216
 1049SOL     OW 4045   3.214   6.985   1.078 -0.2077  0.2000  0.4832
 1049SOL    HW1 4046   3.251   7.071   1.114  0.5733 -0.4693  1.3534
 1049SOL    HW2 4047   3.280   6.945   1.014 -1.2001  0.9382 -1.0459
 1050SOL     OW 4048   1.622   1.844   4.507  0.1684 -0.1370  0.4717
 1050SOL    HW1 4049   1.573   1.790   4.576  0.2922 -0.4260  0.3386
 1050SOL    HW2 4050   1.694   1.898   4.551 -1.2808  1.5376  0.8974
 1051SOL     OW 4051   1.284   3.061   4.882  0.1844 -0.0380 -0.2070
 1051SOL    HW1 4052   1.196   3.107   4.894  0.5680  0.6940 -0.0854
 1051SOL    HW2 4053   1.272   2.976   4.832 -0.5272  0.2944 -0.6080
 1052SOL     OW 4054   4.253   2.721   5.883 -0.0981 -0.1774  0.1648
 1052SOL    HW1 4055   4.308   2.773   5.817 -1.7978 -0.0890 -1.2429
 1052SOL    HW2 4056   4.303   2.638   5.909  0.7982 -0.0132 -0.9400
 1053SOL     OW 4057   5.687   2.137   3.575 -0.6476  0.2330 -0.4582
 1053SOL    HW1 4058   5.608   2.151   3.515 -1.3176 -2.5599 -0.3478
 1053SOL    HW2 4059   5.658   2.090   3.659  0.9327  0.4123  0.2328
 1054SOL     OW 4060   5.732   6.186   5.497  0.0081  0.4326  0.3025
 1054SOL    HW1 4061   5.665   6.260   5.486  0.0291  0.5928  1.1689
 1054SOL    HW2 4062   5.801   6.214   5.564 -1.0243 -1.0850  2.0721
 1055SOL     OW 4063   5.472   5.425   6.442  0.0000 -0.1034  0.1011
 1055SOL    HW1 4064   5.420   5.479   6.375  0.9706  0.4118 -0.2648
 1055SOL    HW2 4065   5.482   5.331   6.409 -2.4574 -0.7933  1.1549
 1056SOL     OW 4066   3.586   3.426   6.010 -0.3717 -0.0307  0.8425
 1056SOL    HW1 4067   3.655   3.387   6.071 -1.3007 -1.7116  0.8872
 1056SOL    HW2 4068   3.631   3.479   5.938  0.8338  0.4904  1.9383
 1057SOL     OW 4069   1.574   2.942   5.012 -0.1185  0.2069 -0.4573
 1057SOL    HW1 4070   1.638   2.996   5.067  2.3358 -0.9042 -2.0158
 1057SOL    HW2 4071   1.514   3.003   4.961 -0.0094  1.3136  0.6865
 1058SOL     OW 4072   3.489   1.799   2.671  0.2213  0.2257 -0.1405
 1058SOL    HW1 4073   3.491   1.835   2.577  0.0340 -1.2649 -0.7367
 1058SOL    HW2 4074   3.440   1.864   2.729  0.6634  1.3557 -0.9817
 1059SOL     OW 4075   1.769   0.025   1.722  0.0646  0.0377 -0.2224
 1059SOL    HW1 4076   1.799   0.070   1.637  4.0049 -0.6254  0.6254
 1059SOL    HW2 4077   1.827  -0.054   1.741 -0.3983  0.3731  3.3011
 1060SOL     OW 4078   6.587   5.967   5.961  0.2804  0.1394  0.2380
 1060SOL    HW1 4079   6.553   5.901   5.894 -1.5319  0.7062  0.5367
 1060SOL    HW2 4080   6.611   5.920   6.045  0.3895 -0.3014 -0.0372
 1061SOL     OW 4081   0.268   2.320   0.225  0.3158  0.1165 -0.5586
 1061SOL    HW1 4082   0.368   2.317   0.217  0.2883  0.7657 -1.2322
 1061SOL    HW2 4083   0.240   2.269   0.307  1.4493  2.6922  1.5759
 1062SOL     OW 4084   3.794   3.836   5.193  0.4625 -0.0146 -0.5325
 1062SOL    HW1 4085   3.796   3.935   5.180  0.7174  0.1762  0.7869
 1062SOL    HW2 4086   3.711   3.799   5.150 -0.4920  1.0054  0.3503
 1063SOL     OW 4087   2.040   0.225   4.042  0.1882  0.2411 -0.1674
 1063SOL    HW1 4088   2.002   0.157   4.104  0.9064  0.1243  0.1502
 1063SOL    HW2 4089   2.134   0.245   4.067  0.8514 -0.5778 -1.8188
 1064SOL     OW 4090   1.399   4.194   0.968 -0.0179 -0.9791  0.2137
 1064SOL    HW1 4091   1.496   4.218   0.964 -0.0771 -0.5717  0.9661
 1064SOL    HW2 4092   1.344   4.275   0.946 -0.2065 -0.5846  1.9829
 1065SOL     OW 4093   5.523   1.501   4.655  0.3519  0.0387 -0.4965
 1065SOL    HW1 4094   5.425   1.499   4.675  0.3642 -1.2221 -0.5022
 1065SOL    HW2 4095   5.564   1.582   4.698 -0.5300  0.1129  0.2278
 1066SOL     OW 4096   5.137   5.828   0.369 -0.0917  0.2628  0.3341
 1066SOL    HW1 4097   5.147   5.786   0.459 -1.6280  0.0726  0.4498
 1066SOL    HW2 4098   5.207   5.792   0.307  2.0777  1.6367  1.8396
 1067SOL     OW 4099   2.751   0.499   0.411  0.2875 -0.5383 -0.3104
 1067SOL    HW1 4100   2.656   0.478   0.432  0.1706 -1.1431 -1.4023
 1067SOL    HW2 4101   2.792   0.549   0.488 -0.7218 -0.8266  0.4293
 1068SOL     OW 4102   6.833   0.989   5.000  0.7349 -0.3066  0.1745
 1068SOL    HW1 4103   6.809   1.006   5.095 -0.5060 -2.8430  0.3935
 1068SOL    HW2 4104   6.763   1.030   4.941  0.9634  0.3993  0.3837
 1069SOL     OW 4105   0.170   2.992   1.920 -0.0984  0.6967  0.4383
 1069SOL    HW1 4106   0.079   2.999   1.878 -0.3347 -1.9105  0.3613
 1069SOL    HW2 4107   0.160   2.966   2.016  0.5492 -0.0785  0.3062
 1070SOL     OW 4108   2.095   6.293   1.139 -0.3465  0.2956 -0.2656
 1070SOL    HW1 4109   2.130   6.202   1.162  0.7243  0.4936 -1.0504
 1070SOL    HW2 4110   2.171   6.358   1.134 -0.6741  0.5788 -2.7717
 1071SOL     OW 4111   2.711   2.325   4.731 -0.0076 -0.5739  0.3465
 1071SOL    HW1 4112   2.660   2.260   4.787  1.7674 -1.7472  0.6865
 1071SOL    HW2 4113   2.807   2.326   4.761  0.0715  2.0922  0.2434
 1072SOL     OW 4114   2.226   2.709   2.147  0.0900 -0.1345 -0.2288
 1072SOL    HW1 4115   2.143   2.761   2.168 -0.6648 -1.8629  1.3074
 1072SOL    HW2 4116   2.258   2.734   2.055 -1.2238  1.6945 -0.2450
 1073SOL     OW 4117   5.104   4.943   3.493  0.4498 -0.5712  0.3179
 1073SOL    HW1 4118   5.184   4.936   3.552 -0.1180 -0.4996  1.1043
 1073SOL    HW2 4119   5.035   4.876   3.521 -0.5734  0.6853  0.9204
 1074SOL     OW 4120   4.650   7.009   1.809  0.3039 -0.0701  0.1074
 1074SOL    HW1 4121   4.665   7.034   1.905  1.2261 -1.3836  0.3410
 1074SOL    HW2 4122   4.738   7.004   1.763 -0.0832 -0.1320 -0.6295
 1075SOL     OW 4123   6.647   4.051   5.030 -0.1663 -0.1256  0.3314
 1075SOL    HW1 4124   6.615   4.073   4.938  0.9113  1.5085  0.3038
 1075SOL    HW2 4125   6.600   4.109   5.097  1.9726  1.7539  0.3574
 1076SOL     OW 4126   2.754   4.939   5.194 -0.2252 -0.5837 -0.0842
 1076SOL    HW1 4127   2.828   4.924   5.128  0.3029 -0.6974  0.5221
 1076SOL    HW2 4128   2.740   4.856   5.247  0.6420  0.0802  1.2267
 1077SOL     OW 4129   0.308   0.336   6.938  0.5772  0.4205  0.2093
 1077SOL    HW1 4130   0.359   0.258   6.974 -1.2290 -0.8388  0.1760
 1077SOL    HW2 4131   0.260   0.382   7.013 -0.9275 -0.4906 -0.1550
 1078SOL     OW 4132   5.480   7.001   4.609 -0.1664 -0.7298 -0.0851
 1078SOL    HW1 4133   5.449   7.021   4.516 -1.6456  0.5518  0.6379
 1078SOL    HW2 4134   5.402   7.006   4.672  1.4124  3.1741  1.9266
 1079SOL     OW 4135   0.733   5.865   1.405 -0.1101 -0.3718  0.2087
 1079SOL    HW1 4136   0.827   5.831   1.408  0.4322  1.0467  0.0478
 1079SOL    HW2 4137   0.697   5.854   1.312  0.3016  0.1072 -0.0113
 1080SOL     OW 4138   5.625   0.780   5.968  0.1385 -0.1027 -0.9780
 1080SOL    HW1 4139   5.710   0.752   6.013 -0.5765 -0.4221  0.2111
 1080SOL    HW2 4140   5.547   0.740   6.017 -0.7783  1.5136 -1.0677
 1081SOL     OW 4141   5.434   1.216   4.009 -0.0282 -0.1485 -0.1065
 1081SOL    HW1 4142   5.360   1.231   4.074 -1.3015 -0.2952 -1.4594
 1081SOL    HW2 4143   5.485   1.301   3.996  0.7860 -0.3220  1.6686
 1082SOL     OW 4144   2.184   0.487   6.364  0.2400  0.3843  0.3007
 1082SOL    HW1 4145   2.157   0.486   6.460 -0.0911  1.1069  0.2264
 1082SOL    HW2 4146   2.271   0.438   6.353 -0.6053 -1.2664  0.6725
 1083SOL     OW 4147   5.538   4.120   2.471 -0.6033  0.1158 -0.4606
 1083SOL    HW1 4148   5.591   4.059   2.412  0.6246  0.5539  0.1384
 1083SOL    HW2 4149   5.504   4.198   2.418  0.3218  0.4012 -0.6597
 1084SOL     OW 4150   4.892   5.785   4.300  0.4758 -0.6828  0.0889
 1084SOL    HW1 4151   4.822   5.721   4.270  0.6300 -0.1640 -1.4861
 1084SOL    HW2 4152   4.968   5.735   4.341 -0.0284 -1.3752  0.1998
 1085SOL     OW 4153   1.742   3.968   4.294 -0.1559 -0.2632 -0.7474
 1085SOL    HW1 4154   1.644   3.959   4.310 -0.0147 -0.6901 -0.0766
 1085SOL    HW2 4155   1.791   3.960   4.381  0.5282 -0.8030 -1.1679
 1086SOL     OW 4156   6.288   3.935   3.156  0.4934 -0.3505  0.0260
 1086SOL    HW1 4157   6.355   3.987   3.209  0.7761 -1.3041  0.6116
 1086SOL    HW2 4158   6.258   3.855   3.208 -2.4314  0.9522  0.5641
 1087SOL     OW 4159   3.979   6.364   5.642 -0.3186 -0.4657 -0.4247
 1087SOL    HW1 4160   4.049   6.299   5.611 -0.4405 -1.0794  0.5457
 1087SOL    HW2 4161   4.016   6.457   5.640  0.9650 -0.8935  1.1947
 1088SOL     OW 4162   5.542   5.855   4.187 -0.5874 -0.1780  0.0641
 1088SOL    HW1 4163   5.600   5.838   4.267 -0.2335 -0.2031 -0.1978
 1088SOL    HW2 4164   5.484   5.935   4.205 -1.2647 -0.7991  0.7552
 1089SOL     OW 4165   6.105   3.092   4.115  0.6206 -0.2203 -0.0916
 1089SOL    HW1 4166   6.166   3.084   4.194  2.7312 -0.4247 -1.6470
 1089SOL    HW2 4167   6.054   3.006   4.104  1.1868 -0.6291  0.3550
 1090SOL     OW 4168   5.089   2.993   3.492 -0.1766  0.7888  0.0019
 1090SOL    HW1 4169   5.101   3.064   3.423 -1.0708  0.7357 -0.2164
 1090SOL    HW2 4170   5.101   3.033   3.583  1.7503  0.7095 -0.1699
 1091SOL     OW 4171   0.867   2.591   4.473  0.2827  0.0385  0.3877
 1091SOL    HW1 4172   0.952   2.583   4.525 -0.2392 -0.5885  1.1761
 1091SOL    HW2 4173   0.791   2.557   4.528 -0.0296 -2.7286 -1.4949
 1092SOL     OW 4174   6.919   5.233   1.540 -0.0702 -0.3589 -0.7823
 1092SOL    HW1 4175   6.927   5.138   1.510  0.6865 -0.7453  0.5702
 1092SOL    HW2 4176   6.943   5.294   1.464 -0.9619 -1.2124 -1.7893
 1093SOL     OW 4177   1.952   0.686   1.386 -0.0940 -0.4168  0.8457
 1093SOL    HW1 4178   1.934   0.777   1.425 -0.3414  0.0484 -0.2975
 1093SOL    HW2 4179   1.928   0.687   1.289 -1.3786 -2.1057  1.1073
 1094SOL     OW 4180   1.424   0.515   3.400 -0.2577  0.0632  0.2328
 1094SOL    HW1 4181   1.452   0.609   3.383 -0.9932  0.3127  0.3573
 1094SOL    HW2 4182   1.432   0.462   3.315  0.4348  0.1568  0.2321
 1095SOL     OW 4183   6.857   3.381   1.472 -0.0981  0.3835 -0.3601
 1095SOL    HW1 4184   6.917   3.426   1.406 -2.4626  0.8623 -2.3055
 1095SOL    HW2 4185   6.763   3.411   1.458 -0.8718 -0.2986  2.6111
 1096SOL     OW 4186   2.454   4.420   3.393  0.3040  0.7388 -0.0050
 1096SOL    HW1 4187   2.465   4.513   3.360  2.7139  1.0440  1.4217
 1096SOL    HW2 4188   2.542   4.385   3.426 -0.8278 -1.5008  0.9133
 1097SOL     OW 4189   1.912   0.280   4.737  0.3334  0.1241  0.1965
 1097SOL    HW1 4190   1.884   0.291   4.833 -1.7498 -0.4482 -0.3072
 1097SOL    HW2 4191   1.869   0.198   4.699  1.8245 -0.1364 -1.0154
 1098SOL     OW 4192   0.309   4.919   1.541 -0.0759  0.3912  0.6564
 1098SOL    HW1 4193   0.305   4.834   1.594 -1.3339 -0.3818 -0.5996
 1098SOL    HW2 4194   0.378   4.909   1.469 -1.6195 -0.3983 -0.7764
 1099SOL     OW 4195   4.406   6.845   1.074 -0.4867 -0.3206 -0.5933
 1099SOL    HW1 4196   4.391   6.917   1.006  0.9682 -0.4461 -1.0741
 1099SOL    HW2 4197   4.361   6.871   1.160  0.8540  1.6754 -0.4343
 1100SOL     OW 4198   5.172   6.838   3.671 -0.2640 -0.3682 -0.6023
 1100SOL    HW1 4199   5.258   6.840   3.722  0.6747 -0.4275 -2.1226
 1100SOL    HW2 4200   5.188   6.871   3.578 -2.1111  0.5950 -0.6188
 1101SOL     OW 4201   4.148   1.367   0.308 -0.3205 -0.0277  0.6160
 1101SOL    HW1 4202   4.084   1.443   0.300  1.2744  1.2766 -0.5593
 1101SOL    HW2 4203   4.216   1.388   0.378  1.1319  0.4777 -0.8756
 1102SOL     OW 4204   5.312   1.145   5.157  0.0347 -0.2418  0.2875
 1102SOL    HW1 4205   5.391   1.172   5.213 -1.2562 -1.4106  2.8326
 1102SOL    HW2 4206   5.299   1.046   5.163 -0.8467 -0.2366 -1.1850
 1103SOL     OW 4207   5.818   4.976   1.453 -0.3474  0.0285 -0.3982
 1103SOL    HW1 4208   5.738   4.920   1.473 -1.3590  1.0224 -1.5036
 1103SOL    HW2 4209   5.837   4.974   1.355  0.8550  0.0018 -0.1835
 1104SOL     OW 4210   5.891   1.746   4.732 -0.1675 -0.3238 -0.0489
 1104SOL    HW1 4211   5.838   1.746   4.648 -0.0009  0.9351 -0.1721
 1104SOL    HW2 4212   5.920   1.840   4.754  0.7274 -0.7764  0.8107
 1105SOL     OW 4213   3.477   0.067   1.360 -0.5129 -0.3416 -0.0132
 1105SOL    HW1 4214   3.537   0.128   1.410 -0.5055  0.4302 -0.9337
 1105SOL    HW2 4215   3.383   0.079   1.392 -0.5559  0.3758 -0.3870
 1106SOL     OW 4216   0.647   0.510   1.596  0.1749 -0.3822  0.2697
 1106SOL    HW1 4217   0.632   0.445   1.522  0.1277  1.5398 -1.5253
 1106SOL    HW2 4218   0.574   0.579   1.595  0.6623  0.1900  1.5583
 1107SOL     OW 4219   0.151   2.013   6.234 -0.0957 -0.5860 -0.3709
 1107SOL    HW1 4220   0.063   2.042   6.272  0.7816  2.2483 -0.2846
 1107SOL    HW2 4221   0.217   2.002   6.308 -0.3629 -3.0371 -0.3985
 1108SOL     OW 4222   1.973   2.871   2.105  0.2158  0.8223  0.1078
 1108SOL    HW1 4223   1.995   2.869   2.007  0.4745  0.5205  0.1700
 1108SOL    HW2 4224   1.920   2.953   2.125 -2.0124 -0.3413 -0.7371
 1109SOL     OW 4225   4.429   6.776   5.765 -0.7066  0.6272  0.0575
 1109SOL    HW1 4226   4.447   6.679   5.781  0.4630  0.8692  0.3067
 1109SOL    HW2 4227   4.408   6.820   5.852 -2.0233  0.4698 -0.1519
 1110SOL     OW 4228   2.294   0.001   1.894 -0.3830  0.1664  0.5573
 1110SOL    HW1 4229   2.236   0.082   1.902  0.4944  0.7051  1.7232
 1110SOL    HW2 4230   2.321  -0.030   1.985  2.3012  0.7784  0.0400
 1111SOL     OW 4231   4.485   5.018   0.072 -0.4514  0.9177 -0.0746
 1111SOL    HW1 4232   4.493   4.957  -0.007 -2.1850 -0.5372  0.7900
 1111SOL    HW2 4233   4.444   5.104   0.043 -2.8876 -0.2969 -0.5593
 1112SOL     OW 4234   5.772   0.751   3.036  0.3964  0.5765  0.0074
 1112SOL    HW1 4235   5.802   0.836   3.080  1.5832  1.0971 -1.6869
 1112SOL    HW2 4236   5.707   0.704   3.095  0.9605  1.8361  1.7227
 1113SOL     OW 4237   1.372   1.828   1.775 -0.5860  0.1465  0.3719
 1113SOL    HW1 4238   1.390   1.927   1.776 -0.8883  0.2017  0.8812
 1113SOL    HW2 4239   1.415   1.787   1.695 -1.0406  0.8003 -0.2210
 1114SOL     OW 4240   2.785   3.404   6.401 -0.0120  0.7706  0.5356
 1114SOL    HW1 4241   2.803   3.443   6.491  1.1288 -2.0825  1.6754
 1114SOL    HW2 4242   2.834   3.455   6.331  0.5219  1.9866  1.7589
 1115SOL     OW 4243   0.222   5.517   3.608  0.2146  0.2141  0.5511
 1115SOL    HW1 4244   0.289   5.581   3.568 -0.3779  1.3802  1.3621
 1115SOL    HW2 4245   0.215   5.436   3.550  3.2582 -0.5456  1.0864
 1116SOL     OW 4246   5.489   1.127   0.958 -0.5317  0.2606  0.0735
 1116SOL    HW1 4247   5.489   1.147   0.860 -1.6765 -3.6261 -0.8910
 1116SOL    HW2 4248   5.581   1.099   0.986 -0.6623 -0.7747 -0.4804
 1117SOL     OW 4249   0.629   2.092   2.284  0.1440 -0.2302 -0.1861
 1117SOL    HW1 4250   0.601   2.174   2.333  2.4050 -0.2934  1.3628
 1117SOL    HW2 4251   0.660   2.117   2.192  0.3862  0.6128  0.1118
 1118SOL     OW 4252   3.746   0.677   0.812  0.1713 -0.2841  1.1158
 1118SOL    HW1 4253   3.735   0.774   0.832 -0.2964 -0.2257  0.5749
 1118SOL    HW2 4254   3.844   0.654   0.816  0.9917  1.3290 -3.6500
 1119SOL     OW 4255   3.158   0.276   1.857  0.0934  0.0512  0.0158
 1119SOL    HW1 4256   3.123   0.294   1.765 -0.0572  0.4544  0.1535
 1119SOL    HW2 4257   3.249   0.315   1.866  0.4078 -0.6084 -0.1930
 1120SOL     OW 4258   6.270   3.804   1.519 -0.5466 -0.0086  0.2093
 1120SOL    HW1 4259   6.240   3.708   1.520 -0.3008 -0.0877  0.6559
 1120SOL    HW2 4260   6.370   3.807   1.512 -0.4738  0.1820  1.2016
 1121SOL     OW 4261   5.663   5.561   6.115 -0.2395  0.6434 -0.0565
 1121SOL    HW1 4262   5.675   5.464   6.097 -1.1289  0.7080 -1.0989
 1121SOL    HW2 4263   5.722   5.589   6.191 -1.1836 -1.0482  1.3767
 1122SOL     OW 4264   4.606   6.915   2.828 -0.3488 -0.1935  0.3551
 1122SOL    HW1 4265   4.696   6.955   2.844 -0.7674  0.4626  1.1455
 1122SOL    HW2 4266   4.570   6.880   2.914 -2.0507  2.1099  0.6730
 1123SOL     OW 4267   3.243   1.659   4.644  0.5463  0.1812  0.2055
 1123SOL    HW1 4268   3.230   1.644   4.546  0.1776  2.3311 -0.1276
 1123SOL    HW2 4269   3.340   1.662   4.665  0.6510 -2.1593  0.2747
 1124SOL     OW 4270   3.477   1.335   3.079  0.1357  0.4305  0.3760
 1124SOL    HW1 4271   3.491   1.251   3.026 -0.0559 -0.2202  1.3221
 1124SOL    HW2 4272   3.442   1.407   3.019  0.4351 -0.1218 -0.4822
 1125SOL     OW 4273   2.181   1.796   3.232  0.1505  0.3029  0.2641
 1125SOL    HW1 4274   2.098   1.823   3.182  0.3679  0.1527 -0.1817
 1125SOL    HW2 4275   2.219   1.876   3.278  0.5138  0.6725 -0.6474
 1126SOL     OW 4276   5.625   4.342   3.701  0.1248 -0.2118 -0.1458
 1126SOL    HW1 4277   5.622   4.434   3.662 -1.8833  0.3163  1.0979
 1126SOL    HW2 4278   5.535   4.299   3.692  0.5189 -1.3309  0.9736
 1127SOL     OW 4279   5.773   6.880   0.750  0.0132  0.1295  0.0763
 1127SOL    HW1 4280   5.702   6.871   0.820 -0.8389 -0.0028 -0.7861
 1127SOL    HW2 4281   5.770   6.972   0.711  1.1871  0.5581  0.9204
 1128SOL     OW 4282   2.765   2.376   5.083  0.1476  0.3993 -0.1989
 1128SOL    HW1 4283   2.670   2.355   5.104 -0.4267  1.5765 -1.4572
 1128SOL    HW2 4284   2.789   2.340   4.993  0.0221  2.4159 -1.0906
 1129SOL     OW 4285   2.050   6.768   0.337 -0.6332 -0.2336 -0.1007
 1129SOL    HW1 4286   2.112   6.825   0.391 -2.2968  1.2987  0.2944
 1129SOL    HW2 4287   2.096   6.739   0.253  1.2859 -0.8997  1.1235
 1130SOL     OW 4288   2.686   4.663   1.041 -0.3020 -0.1810 -0.3131
 1130SOL    HW1 4289   2.629   4.734   1.082  0.5599 -0.8979  2.3350
 1130SOL    HW2 4290   2.654   4.573   1.071  1.0527 -0.6888 -0.3141
 1131SOL     OW 4291   1.592   6.031   3.849 -0.9297 -0.8825  0.1724
 1131SOL    HW1 4292   1.659   5.978   3.901  1.8250  0.3242 -1.8666
 1131SOL    HW2 4293   1.570   5.983   3.764 -0.0727  0.1580 -0.6745
 1132SOL     OW 4294   1.381   3.380   2.312 -0.6544  0.4905 -0.1165
 1132SOL    HW1 4295   1.437   3.461   2.330 -3.8141  2.4803  1.8551
 1132SOL    HW2 4296   1.332   3.391   2.226  0.2197 -0.1968 -0.7184
 1133SOL     OW 4297   0.855   6.829   6.876 -0.3243  0.7916  0.3734
 1133SOL    HW1 4298   0.859   6.928   6.888 -0.4626  0.7563  0.7403
 1133SOL    HW2 4299   0.857   6.785   6.966  3.3372  0.3171  0.2099
 1134SOL     OW 4300   6.624   5.782   6.155  0.0621 -0.2543 -0.6240
 1134SOL    HW1 4301   6.537   5.735   6.143  0.6390 -2.2058  1.8121
 1134SOL    HW2 4302   6.628   5.821   6.247  2.0131 -0.9640 -0.3407
 1135SOL     OW 4303   1.451   6.509   1.645  0.4572  0.6259  0.2244
 1135SOL    HW1 4304   1.393   6.529   1.566 -2.3399 -1.1585  1.6637
 1135SOL    HW2 4305   1.529   6.573   1.647  0.5414  0.8719 -3.7584
 1136SOL     OW 4306   0.749   5.353   4.256 -0.0786  0.1086 -0.1252
 1136SOL    HW1 4307   0.818   5.413   4.296 -0.2166 -0.9837  1.9008
 1136SOL    HW2 4308   0.794   5.279   4.206  0.1127  1.1784 -1.5835
 1137SOL     OW 4309   3.264   3.453   5.530 -0.0418  0.0705  0.5759
 1137SOL    HW1 4310   3.194   3.428   5.596  1.4388 -0.7138  1.9351
 1137SOL    HW2 4311   3.287   3.550   5.542 -1.3803  0.5359 -0.3987
 1138SOL     OW 4312   2.961   5.013   2.301  0.3382  0.0449 -0.4084
 1138SOL    HW1 4313   2.988   4.961   2.219  0.7271 -1.3007  0.5448
 1138SOL    HW2 4314   2.914   4.953   2.365 -1.1108  1.3783 -0.1610
 1139SOL     OW 4315   2.354   4.446   5.166  0.1892  0.5374 -0.2095
 1139SOL    HW1 4316   2.431   4.507   5.145  1.3668 -0.7265  0.3097
 1139SOL    HW2 4317   2.388   4.363   5.210 -1.3004 -0.7721 -1.4070
 1140SOL     OW 4318   0.656   4.466   2.216 -0.0918 -0.0918 -0.2379
 1140SOL    HW1 4319   0.586   4.395   2.228 -0.7166  0.6888  0.8606
 1140SOL    HW2 4320   0.614   4.549   2.180  0.0315  0.7638  1.5167
 1141SOL     OW 4321   4.948   5.517   4.410  0.1538  0.4240 -0.5234
 1141SOL    HW1 4322   4.959   5.420   4.428  0.5624  0.6112  0.3054
 1141SOL    HW2 4323   4.882   5.556   4.474  0.7067  0.8716 -0.2125
 1142SOL     OW 4324   1.494   5.904   2.856  0.6300  0.3179 -0.4276
 1142SOL    HW1 4325   1.399   5.876   2.874  1.0930 -0.9304  0.1587
 1142SOL    HW2 4326   1.500   6.004   2.863 -0.1808  0.2704  1.9418
 1143SOL     OW 4327   6.142   4.181   2.286 -0.4100  0.6420  0.0947
 1143SOL    HW1 4328   6.087   4.258   2.318 -0.2957  0.1568  1.5450
 1143SOL    HW2 4329   6.094   4.095   2.304  0.6196  0.2363  1.0194
 1144SOL     OW 4330   6.711   5.049   6.103  0.3297 -0.2346 -0.4995
 1144SOL    HW1 4331   6.620   5.071   6.138  0.9517  2.1849 -0.2114
 1144SOL    HW2 4332   6.703   5.001   6.016 -1.2051 -0.9206 -0.0144
 1145SOL     OW 4333   4.145   6.362   0.846  0.5346  0.1466 -0.5372
 1145SOL    HW1 4334   4.215   6.329   0.782  0.6097  1.9810 -1.4480
 1145SOL    HW2 4335   4.064   6.305   0.838  1.0157 -0.4580 -1.3016
 1146SOL     OW 4336   0.918   0.227   1.989 -0.2087 -0.1197  0.0006
 1146SOL    HW1 4337   0.872   0.284   2.058 -1.4101 -0.1781 -0.7141
 1146SOL    HW2 4338   0.928   0.134   2.025  0.9006  0.2949  0.8094
 1147SOL     OW 4339   0.365   4.423   0.904  0.2171  0.1822 -0.5286
 1147SOL    HW1 4340   0.359   4.514   0.945  2.4861  0.7060 -1.2141
 1147SOL    HW2 4341   0.384   4.355   0.975  2.6634  0.8809 -0.4065
 1148SOL     OW 4342   5.708   5.312   3.823 -0.0710  0.2361 -0.2519
 1148SOL    HW1 4343   5.713   5.254   3.742  0.2212 -0.8338  0.5152
 1148SOL    HW2 4344   5.764   5.394   3.808  0.5372 -0.2784 -0.8796
 1149SOL     OW 4345   6.340   3.081   0.905  0.3239  0.4914  0.1502
 1149SOL    HW1 4346   6.347   3.089   1.005  0.4090  2.2325  0.0276
 1149SOL    HW2 4347   6.270   3.015   0.882 -0.1046  0.4935  1.3697
 1150SOL     OW 4348   6.794   0.873   0.424  0.6821  0.2540 -0.9206
 1150SOL    HW1 4349   6.821   0.961   0.462 -0.7387  0.2458  0.2282
 1150SOL    HW2 4350   6.863   0.841   0.360  2.3748  1.0779  0.4230
 1151SOL     OW 4351   5.858   6.338   4.903  0.1362  0.0239  0.3800
 1151SOL    HW1 4352   5.863   6.423   4.955 -1.0200  0.6141 -0.4194
 1151SOL    HW2 4353   5.860   6.260   4.965  0.1188  0.6664  1.1985
 1152SOL     OW 4354   6.915   0.544   6.686 -0.0610 -0.4141 -0.6237
 1152SOL    HW1 4355   7.008   0.559   6.719 -1.2865  0.3619  2.8797
 1152SOL    HW2 4356   6.871   0.473   6.742 -3.1919  2.9514  1.6398
 1153SOL     OW 4357   4.388   1.743   1.224 -0.1953  0.4692  0.8576
 1153SOL    HW1 4358   4.301   1.791   1.235 -0.6422 -0.7090  3.1017
 1153SOL    HW2 4359   4.377   1.669   1.157 -1.0880  0.0334  1.4698
 1154SOL     OW 4360   6.839   5.629   0.593  0.0044  0.4655 -0.0430
 1154SOL    HW1 4361   6.818   5.540   0.554 -0.6587  1.0106 -0.9540
 1154SOL    HW2 4362   6.854   5.620   0.692  2.6329 -1.1055 -0.4909
 1155SOL     OW 4363   3.013   5.844   4.420 -0.3857 -0.0246 -0.3511
 1155SOL    HW1 4364   2.935   5.907   4.423 -1.2792 -1.1087 -0.0047
 1155SOL    HW2 4365   3.005   5.778   4.495  1.5063  0.5528  0.4204
 1156SOL     OW 4366   3.447   6.281   5.488  0.5668  0.9020  0.1163
 1156SOL    HW1 4367   3.356   6.311   5.459 -1.5638 -2.2983  2.7673
 1156SOL    HW2 4368   3.470   6.324   5.576 -1.3163 -2.5671  2.5575
 1157SOL     OW 4369   1.343   2.709   1.537  0.1929  0.2894  0.4871
 1157SOL    HW1 4370   1.411   2.645   1.575  0.2265 -0.2098 -0.3862
 1157SOL    HW2 4371   1.302   2.669   1.455  1.1148  1.9172 -0.8229
 1158SOL     OW 4372   4.304   0.156   3.724  0.6125  0.0155 -0.8757
 1158SOL    HW1 4373   4.375   0.223   3.704  0.0441  1.4647  1.5965
 1158SOL    HW2 4374   4.329   0.104   3.806 -0.4731 -0.4999 -0.8506
 1159SOL     OW 4375   0.626   3.323   0.593  0.1302 -0.2873  0.6632
 1159SOL    HW1 4376   0.592   3.416   0.577  0.3853 -0.4612 -1.1663
 1159SOL    HW2 4377   0.593   3.290   0.681  2.0778  2.4555  2.6000
 1160SOL     OW 4378   3.383   1.896   1.682  0.0073  0.1770 -0.1097
 1160SOL    HW1 4379   3.453   1.963   1.656 -1.3459  1.0134 -1.6887
 1160SOL    HW2 4380   3.294   1.925   1.649 -0.9097 -1.5439  0.7130
 1161SOL     OW 4381   6.410   5.574   0.687  0.8193 -0.3868 -0.1981
 1161SOL    HW1 4382   6.450   5.603   0.600 -0.3661 -0.8055 -0.9062
 1161SOL    HW2 4383   6.441   5.635   0.760 -0.3299  1.7156 -1.3747
 1162SOL     OW 4384   3.062   3.606   4.906 -0.4653 -0.1090 -0.5046
 1162SOL    HW1 4385   3.070   3.571   4.813  3.1668  0.6351 -0.6277
 1162SOL    HW2 4386   3.068   3.529   4.970 -1.1156 -0.4451 -0.8319
 1163SOL     OW 4387   3.898   2.617   1.616 -0.4915 -0.4253 -0.2274
 1163SOL    HW1 4388   3.958   2.554   1.665 -0.1913 -1.6460 -2.0498
 1163SOL    HW2 4389   3.946   2.703   1.600  0.5929 -1.1712 -1.1290
 1164SOL     OW 4390   4.564   1.966   5.449 -0.3711  0.0528 -0.4854
 1164SOL    HW1 4391   4.527   1.912   5.525  0.1363 -0.3516 -0.5258
 1164SOL    HW2 4392   4.655   2.000   5.473  0.3286 -1.1158 -1.3778
 1165SOL     OW 4393   5.329   0.079   2.351 -0.3305 -0.2300 -0.7901
 1165SOL    HW1 4394   5.414   0.033   2.325 -1.6921 -2.5942 -1.4128
 1165SOL    HW2 4395   5.348   0.150   2.418  2.1318 -0.5887 -1.0204
 1166SOL     OW 4396   5.760   4.336   6.992 -0.1330 -0.5456 -0.5683
 1166SOL    HW1 4397   5.849   4.315   7.034 -0.2401  0.1496  0.0253
 1166SOL    HW2 4398   5.699   4.374   7.062  0.0850  1.8066 -1.5729
 1167SOL     OW 4399   4.364   6.074   3.791 -0.0354  0.3157 -0.2377
 1167SOL    HW1 4400   4.331   6.126   3.712  1.1938  0.2861 -0.7853
 1167SOL    HW2 4401   4.411   6.136   3.855 -0.2451  0.1911  0.0413
 1168SOL     OW 4402   0.214   0.822   5.879  0.8580  0.2740  0.1411
 1168SOL    HW1 4403   0.174   0.736   5.908  0.9433  0.7597  1.8226
 1168SOL    HW2 4404   0.314   0.817   5.887  0.8705  0.5062  0.1461
 1169SOL     OW 4405   4.537   2.205   5.636 -0.4406  0.3855  0.4161
 1169SOL    HW1 4406   4.581   2.151   5.564 -2.2660 -0.7059  0.0604
 1169SOL    HW2 4407   4.564   2.169   5.726  0.8946  0.9917  0.2862
 1170SOL     OW 4408   3.574   5.419   3.577  0.6102  0.0105  0.5776
 1170SOL    HW1 4409   3.629   5.364   3.515  0.1288 -2.3200  2.1075
 1170SOL    HW2 4410   3.611   5.412   3.670  0.3340  2.0639  0.8904
 1171SOL     OW 4411   0.208   5.687   1.285  0.4685 -0.3769 -1.1148
 1171SOL    HW1 4412   0.236   5.590   1.280 -0.1042 -0.7028  1.1757
 1171SOL    HW2 4413   0.257   5.731   1.360 -0.9199  0.5311 -0.7209
 1172SOL     OW 4414   4.095   1.916   0.810 -0.7961 -0.2018  0.1837
 1172SOL    HW1 4415   4.138   1.931   0.721 -0.9493  0.9286  0.2809
 1172SOL    HW2 4416   4.093   1.818   0.831  0.4712 -0.3742 -0.4352
 1173SOL     OW 4417   3.965   2.978   1.870 -0.2466  0.2600  0.3302
 1173SOL    HW1 4418   3.893   2.961   1.937 -1.2719  0.5296 -0.6811
 1173SOL    HW2 4419   3.930   2.961   1.778  0.9644  0.4653 -0.1873
 1174SOL     OW 4420   2.746   6.125   5.320 -0.2890  0.3681  0.7324
 1174SOL    HW1 4421   2.690   6.187   5.376 -0.7027  0.6373  0.0225
 1174SOL    HW2 4422   2.779   6.174   5.239  1.2243  0.3134  1.2667
 1175SOL     OW 4423   3.128   3.838   3.775  0.4492  0.2948 -0.2707
 1175SOL    HW1 4424   3.168   3.929   3.769 -0.0757  0.5414 -0.0935
 1175SOL    HW2 4425   3.155   3.795   3.862 -0.0407  0.6435  0.0586
 1176SOL     OW 4426   5.233   2.671   0.774 -0.7131 -0.5271  0.6647
 1176SOL    HW1 4427   5.221   2.658   0.873 -0.2032 -0.1891  0.7727
 1176SOL    HW2 4428   5.232   2.582   0.729 -0.7032 -0.7035  1.0052
 1177SOL     OW 4429   2.143   5.893   2.537  0.7924 -0.5621 -0.6897
 1177SOL    HW1 4430   2.134   5.844   2.624  2.8325  0.1069 -0.0251
 1177SOL    HW2 4431   2.097   5.842   2.465  0.3468 -1.9251  0.5000
 1178SOL     OW 4432   2.882   1.100   6.347  0.1801  0.1349  0.1575
 1178SOL    HW1 4433   2.942   1.165   6.301 -0.6731  1.2871  0.6142
 1178SOL    HW2 4434   2.809   1.072   6.284 -0.4738  1.0180  0.5083
 1179SOL     OW 4435   0.308   6.841   1.382  0.1140  0.0479  0.2211
 1179SOL    HW1 4436   0.269   6.752   1.357 -0.1319  0.2114  0.0209
 1179SOL    HW2 4437   0.241   6.893   1.435 -0.0783  0.4801 -0.4402
 1180SOL     OW 4438   5.406   6.552   0.240  0.6267 -0.3891  0.1926
 1180SOL    HW1 4439   5.450   6.463   0.246  2.2921  0.4297  0.9722
 1180SOL    HW2 4440   5.459   6.619   0.293 -0.1813  1.2189 -0.9428
 1181SOL     OW 4441   6.981   5.537   4.854  0.8055 -0.5941 -0.0222
 1181SOL    HW1 4442   7.045   5.571   4.785 -0.0567 -0.6677 -0.8765
 1181SOL    HW2 4443   7.032   5.513   4.937  2.1385 -2.2425 -1.2317
 1182SOL     OW 4444   4.851   4.526   4.523  0.6437  0.7500 -0.4812
 1182SOL    HW1 4445   4.936   4.531   4.575  0.5883 -1.4641 -0.0699
 1182SOL    HW2 4446   4.791   4.458   4.565 -0.5140  0.8456 -1.9096
 1183SOL     OW 4447   5.586   4.037   6.971  0.1809 -0.1675  0.6758
 1183SOL    HW1 4448   5.648   4.002   7.041  1.6308  3.1251  1.2041
 1183SOL    HW2 4449   5.634   4.104   6.915 -2.3719  1.0631 -0.1774
 1184SOL     OW 4450   6.711   1.188   4.839 -0.4148  0.5574 -0.4546
 1184SOL    HW1 4451   6.801   1.200   4.797 -0.4638 -0.8360 -1.0190
 1184SOL    HW2 4452   6.642   1.235   4.784 -0.2687  0.0626 -1.0693
 1185SOL     OW 4453   6.620   1.912   6.155  0.0812  0.3292  0.0786
 1185SOL    HW1 4454   6.597   1.996   6.205  1.8352  1.3751 -0.7872
 1185SOL    HW2 4455   6.633   1.934   6.058  1.0414 -0.8664 -0.0791
 1186SOL     OW 4456   5.294   6.196   4.710 -0.0570 -0.3568 -0.2447
 1186SOL    HW1 4457   5.235   6.230   4.637 -0.7901 -1.2365 -0.0809
 1186SOL    HW2 4458   5.240   6.186   4.794  0.5525 -0.2540  0.1631
 1187SOL     OW 4459   5.535   3.527   5.739 -0.1541  0.1103  0.5368
 1187SOL    HW1 4460   5.571   3.547   5.648 -0.5243  0.7968  0.5340
 1187SOL    HW2 4461   5.513   3.429   5.746 -0.0892  0.0472 -0.0939
 1188SOL     OW 4462   4.577   3.262   5.359  0.1466 -0.2974  0.4043
 1188SOL    HW1 4463   4.670   3.238   5.330 -0.0662  0.0857 -0.6772
 1188SOL    HW2 4464   4.511   3.208   5.306 -0.2538 -0.7738  1.3680
 1189SOL     OW 4465   6.346   3.161   2.644  0.1926  0.7018 -0.7893
 1189SOL    HW1 4466   6.246   3.169   2.642  0.1208 -0.0781 -0.7964
 1189SOL    HW2 4467   6.375   3.128   2.734  0.5249  1.7574 -0.4929
 1190SOL     OW 4468   2.566   0.382   3.499  0.0366  0.3589 -0.3808
 1190SOL    HW1 4469   2.654   0.377   3.451 -0.7127 -0.4976 -1.7352
 1190SOL    HW2 4470   2.582   0.403   3.595  1.8053 -0.9320 -0.3437
 1191SOL     OW 4471   4.621   1.289   2.559  0.1606  0.2124  0.1926
 1191SOL    HW1 4472   4.620   1.383   2.526  1.0720  0.3069  0.4060
 1191SOL    HW2 4473   4.715   1.255   2.562 -0.1496 -0.6855  0.1785
 1192SOL     OW 4474   6.726   6.164   4.487  0.2771 -0.1540 -0.2464
 1192SOL    HW1 4475   6.756   6.232   4.554  0.9523 -0.1598 -0.5331
 1192SOL    HW2 4476   6.673   6.093   4.533 -0.8001  0.7750 -0.0094
 1193SOL     OW 4477   1.646   5.737   3.753  0.2256 -0.2960 -0.3579
 1193SOL    HW1 4478   1.733   5.687   3.742  0.8034  0.6913 -0.3845
 1193SOL    HW2 4479   1.614   5.766   3.663  0.7428  0.7796 -0.2056
 1194SOL     OW 4480   4.822   1.144   1.504  0.6563  0.3202 -0.6374
 1194SOL    HW1 4481   4.899   1.089   1.538 -0.7113 -0.3726  1.5671
 1194SOL    HW2 4482   4.766   1.088   1.443  0.2360 -0.2216  0.2153
 1195SOL     OW 4483   5.989   4.260   4.942 -0.7609 -0.0781 -1.0406
 1195SOL    HW1 4484   5.988   4.192   4.869  1.7649 -1.2296 -0.1397
 1195SOL    HW2 4485   6.028   4.219   5.025 -5.3831  0.5218  1.7714
 1196SOL     OW 4486   0.505   1.015   4.782 -0.6975 -0.5565 -0.0888
 1196SOL    HW1 4487   0.562   1.054   4.710  0.2047 -1.7365 -0.0569
 1196SOL    HW2 4488   0.528   1.057   4.869  0.3053 -1.1710 -0.0444
 1197SOL     OW 4489   1.659   4.478   6.832 -0.1946  0.4351 -0.1526
 1197SOL    HW1 4490   1.719   4.478   6.752  0.4224  1.8848  0.2765
 1197SOL    HW2 4491   1.568   4.446   6.806 -0.3413  1.9570 -1.7263
 1198SOL     OW 4492   1.665   3.700   1.051  0.4169 -0.3085  0.0706
 1198SOL    HW1 4493   1.641   3.760   1.127 -0.6639 -0.1632 -0.3665
 1198SOL    HW2 4494   1.598   3.626   1.044 -0.1053  0.2569 -1.3519
 1199SOL     OW 4495   4.371   4.861   2.458 -0.3732  0.2046  0.5728
 1199SOL    HW1 4496   4.446   4.855   2.393  0.0444  1.1596  0.9551
 1199SOL    HW2 4497   4.400   4.827   2.547 -0.2309  1.0397  0.8517
 1200SOL     OW 4498   3.016   3.487   1.481 -0.3544 -0.3972 -0.3606
 1200SOL    HW1 4499   3.061   3.534   1.405  0.2583 -1.0240 -0.4040
 1200SOL    HW2 4500   2.984   3.554   1.548 -0.2452  0.1205 -0.8202
 1201SOL     OW 4501   1.233   2.251   4.636 -0.4301  0.3966  0.3223
 1201SOL    HW1 4502   1.151   2.194   4.620 -0.3327  0.1999  0.5168
 1201SOL    HW2 4503   1.312   2.208   4.593 -0.2567  0.1116  0.9089
 1202SOL     OW 4504   0.088   6.888   3.701  0.2501 -0.6041 -0.0985
 1202SOL    HW1 4505   0.021   6.837   3.756  0.9298 -1.4315 -0.0232
 1202SOL    HW2 4506   0.180   6.860   3.727  0.6111  0.0695 -0.6482
 1203SOL     OW 4507   5.962   4.105   4.715 -0.1329 -0.1411  0.1745
 1203SOL    HW1 4508   6.037   4.050   4.678 -1.7096 -1.5751 -1.0837
 1203SOL    HW2 4509   5.930   4.169   4.644  0.3183  0.9460  0.9313
 1204SOL     OW 4510   1.504   6.782   1.885 -0.3790  0.2051 -0.2185
 1204SOL    HW1 4511   1.440   6.708   1.906 -0.3889  0.1885 -0.3050
 1204SOL    HW2 4512   1.462   6.870   1.907 -1.4095  0.3837 -2.5198
 1205SOL     OW 4513   4.984   3.018   1.907  0.0165  0.2321 -0.7043
 1205SOL    HW1 4514   4.900   3.017   1.961  0.3611  0.7879 -0.1457
 1205SOL    HW2 4515   5.034   2.934   1.922  0.5586  0.7670  0.5755
 1206SOL     OW 4516   3.731   2.933   3.826  0.2359  0.1989 -0.5680
 1206SOL    HW1 4517   3.697   2.902   3.915 -0.5259  0.8951 -0.6029
 1206SOL    HW2 4518   3.813   2.989   3.839  0.0383  0.4270 -0.2867
 1207SOL     OW 4519   0.833   5.614   2.289  0.6046  0.0016  0.2213
 1207SOL    HW1 4520   0.768   5.668   2.235  0.3802 -0.9463 -0.4670
 1207SOL    HW2 4521   0.922   5.612   2.242 -0.1673 -2.6229 -1.2898
 1208SOL     OW 4522   2.880   1.760   6.226 -0.2838  0.2810 -0.3462
 1208SOL    HW1 4523   2.978   1.766   6.207 -0.4169  2.6813 -0.6177
 1208SOL    HW2 4524   2.828   1.769   6.140 -0.8075 -3.5054 -0.5833
 1209SOL     OW 4525   1.417   5.164   5.062  0.8893  0.1158 -0.4526
 1209SOL    HW1 4526   1.387   5.080   5.018  0.5836 -0.5507  0.9513
 1209SOL    HW2 4527   1.516   5.161   5.077  0.5341 -1.5017  2.4184
 1210SOL     OW 4528   2.544   1.721   2.929  0.5880 -0.3029  0.0994
 1210SOL    HW1 4529   2.556   1.669   2.845 -0.9668 -0.4285 -0.0743
 1210SOL    HW2 4530   2.604   1.801   2.928  1.0479 -0.6554 -0.8300
 1211SOL     OW 4531   2.253   3.939   0.584  0.3586  0.2475 -0.3257
 1211SOL    HW1 4532   2.266   4.018   0.525 -0.2888  0.8277  0.2938
 1211SOL    HW2 4533   2.194   3.873   0.538  1.1867 -0.0535 -0.9890
 1212SOL     OW 4534   0.849   6.762   0.124 -0.3503 -0.4923  0.2656
 1212SOL    HW1 4535   0.830   6.856   0.154 -1.5868 -0.9830  1.0716
 1212SOL    HW2 4536   0.807   6.698   0.187  0.3626 -1.6092 -0.3674
 1213SOL     OW 4537   5.588   1.772   2.229  0.6144  0.0568 -0.4473
 1213SOL    HW1 4538   5.609   1.685   2.184  0.1614  0.2905 -1.1102
 1213SOL    HW2 4539   5.599   1.761   2.328 -3.2352 -1.9636 -0.0424
 1214SOL     OW 4540   2.190   2.172   1.295  0.3743 -0.3135  0.0640
 1214SOL    HW1 4541   2.105   2.171   1.242  0.2863  0.9324  0.1649
 1214SOL    HW2 4542   2.267   2.187   1.234  0.1952  2.0234  0.3417
 1215SOL     OW 4543   2.831   6.840   2.189 -0.8415  0.0371  0.2312
 1215SOL    HW1 4544   2.890   6.848   2.109 -1.5882  1.8428 -0.2020
 1215SOL    HW2 4545   2.887   6.834   2.272 -0.0650  0.0570 -0.2857
 1216SOL     OW 4546   4.677   1.386   2.254 -0.1495 -0.1256  0.0407
 1216SOL    HW1 4547   4.697   1.456   2.323  1.2034 -0.2524 -0.2056
 1216SOL    HW2 4548   4.740   1.309   2.265  0.6533  0.2082 -1.8378
 1217SOL     OW 4549   1.442   3.562   5.334  0.4169 -0.2473  0.2352
 1217SOL    HW1 4550   1.424   3.619   5.253 -1.0636 -1.2974 -0.2422
 1217SOL    HW2 4551   1.495   3.613   5.401  1.0033  0.9226 -1.0783
 1218SOL     OW 4552   1.343   5.210   3.783  0.1576 -0.1850 -0.1148
 1218SOL    HW1 4553   1.311   5.117   3.762  1.7315 -0.3757 -1.9923
 1218SOL    HW2 4554   1.434   5.206   3.824  0.5752  0.5381 -0.9358
 1219SOL     OW 4555   4.169   6.132   1.535  0.0097 -0.5037  0.0745
 1219SOL    HW1 4556   4.234   6.086   1.594 -0.5513  0.8136  1.7902
 1219SOL    HW2 4557   4.187   6.230   1.535  0.8253 -0.5446 -3.0534
 1220SOL     OW 4558   6.928   5.135   3.364 -0.2416  0.5301  0.3544
 1220SOL    HW1 4559   6.940   5.185   3.450  0.9849  0.3162  0.3334
 1220SOL    HW2 4560   6.961   5.191   3.288 -1.7738  0.9122 -0.0529
 1221SOL     OW 4561   3.988   5.167   4.434  0.4203  0.0141 -0.1806
 1221SOL    HW1 4562   4.063   5.114   4.395  1.4487  1.9171 -0.9274
 1221SOL    HW2 4563   3.906   5.154   4.378  1.0330  0.2480 -1.1687
 1222SOL     OW 4564   5.665   1.493   0.381  0.2668  0.1373  0.1998
 1222SOL    HW1 4565   5.615   1.499   0.294  2.4645  1.2538 -1.0871
 1222SOL    HW2 4566   5.603   1.466   0.454 -1.7361 -0.5350 -1.6598
 1223SOL     OW 4567   4.843   5.431   1.339 -0.1662 -0.2052  0.1356
 1223SOL    HW1 4568   4.834   5.514   1.393 -1.1840  1.2051 -2.0386
 1223SOL    HW2 4569   4.752   5.392   1.321  0.0353 -0.1206 -1.2238
 1224SOL     OW 4570   1.233   1.349   0.924 -0.4172  0.4748 -0.1561
 1224SOL    HW1 4571   1.233   1.367   1.023  0.0664 -0.8814  0.1175
 1224SOL    HW2 4572   1.142   1.366   0.887 -0.8567  0.0892  0.7050
 1225SOL     OW 4573   3.625   5.160   5.072  0.2132 -0.1834  0.0273
 1225SOL    HW1 4574   3.655   5.248   5.034 -0.7281 -0.5575 -1.6544
 1225SOL    HW2 4575   3.564   5.177   5.150  0.9162  0.6185  0.4254
 1226SOL     OW 4576   2.993   6.964   0.952 -0.1040 -0.1967  0.6501
 1226SOL    HW1 4577   2.930   7.037   0.980 -1.3342 -1.2000  0.6023
 1226SOL    HW2 4578   3.085   6.986   0.984 -0.5386  1.1202  1.0884
 1227SOL     OW 4579   0.391   2.738   5.329  0.0486 -0.0659 -0.3977
 1227SOL    HW1 4580   0.334   2.819   5.319  0.7491  0.3495 -1.1462
 1227SOL    HW2 4581   0.356   2.681   5.403 -0.9077  0.5334 -0.3779
 1228SOL     OW 4582   2.877   2.694   0.547  0.5677 -0.2181  0.3249
 1228SOL    HW1 4583   2.917   2.741   0.468 -0.0692  2.3723  1.4750
 1228SOL    HW2 4584   2.945   2.685   0.619 -0.2296  2.4561  1.5375
 1229SOL     OW 4585   2.725   5.037   0.270 -1.0830  0.4694  0.3600
 1229SOL    HW1 4586   2.655   5.026   0.201  0.9538 -0.5560 -1.6824
 1229SOL    HW2 4587   2.760   5.131   0.268  0.0043  0.0681 -1.1401
 1230SOL     OW 4588   3.422   0.539   3.110 -0.1563 -0.2440 -0.1614
 1230SOL    HW1 4589   3.454   0.447   3.087  0.6699 -0.1791  0.6872
 1230SOL    HW2 4590   3.495   0.605   3.095 -0.0030 -0.0291  1.3500
 1231SOL     OW 4591   0.128   2.169   2.887  0.3999 -0.1023 -0.5945
 1231SOL    HW1 4592   0.052   2.220   2.847  0.6412  0.9139  0.2193
 1231SOL    HW2 4593   0.159   2.100   2.821 -0.4147  0.2857 -1.4180
 1232SOL     OW 4594   0.909   1.647   0.780 -0.4172  0.1794  0.3974
 1232SOL    HW1 4595   0.842   1.574   0.791 -0.8301  0.8961  3.8127
 1232SOL    HW2 4596   0.999   1.608   0.759 -0.9431 -1.1763  0.5722
 1233SOL     OW 4597   0.918   3.817   6.236  0.0947 -0.3961  0.2934
 1233SOL    HW1 4598   0.976   3.810   6.155  1.1999  0.0618  1.0074
 1233SOL    HW2 4599   0.934   3.906   6.280 -0.8089 -0.4624  0.7655
 1234SOL     OW 4600   6.829   5.097   2.371  0.0781 -0.3881 -0.0927
 1234SOL    HW1 4601   6.891   5.168   2.403  0.7534 -0.7957 -0.4771
 1234SOL    HW2 4602   6.735   5.130   2.376  0.2146 -0.1755  1.6027
 1235SOL     OW 4603   6.642   4.043   2.122  0.2070  0.5408 -0.2052
 1235SOL    HW1 4604   6.553   3.996   2.124  0.5273 -0.1023  1.5507
 1235SOL    HW2 4605   6.645   4.110   2.196  0.2839  2.4016 -1.8260
 1236SOL     OW 4606   6.879   0.948   4.639 -0.4950 -0.7617 -0.0082
 1236SOL    HW1 4607   6.904   1.042   4.617  0.4882 -1.4498 -2.1125
 1236SOL    HW2 4608   6.782   0.944   4.662 -0.7289  0.6583 -0.6461
 1237SOL     OW 4609   0.639   1.840   6.302  0.1110  0.2038  0.2892
 1237SOL    HW1 4610   0.686   1.802   6.382  1.1284  1.2235  0.1967
 1237SOL    HW2 4611   0.643   1.775   6.227  1.0396  0.1144  0.4074
 1238SOL     OW 4612   3.330   3.430   0.452 -0.2068  0.1561  0.2709
 1238SOL    HW1 4613   3.310   3.332   0.444 -0.7501  0.4342 -2.5485
 1238SOL    HW2 4614   3.425   3.442   0.482 -0.2104 -1.2032  0.9234
 1239SOL     OW 4615   0.567   1.431   7.003 -0.4269 -0.0580  0.1833
 1239SOL    HW1 4616   0.666   1.422   6.988 -0.6507 -1.0628 -0.8709
 1239SOL    HW2 4617   0.527   1.340   7.016 -1.2094  0.3492  0.6745
 1240SOL     OW 4618   5.556   6.753   0.372 -0.0010  0.4165 -0.9126
 1240SOL    HW1 4619   5.654   6.768   0.354 -0.0270  0.0767 -1.3382
 1240SOL    HW2 4620   5.536   6.780   0.466  0.6364 -0.1297 -0.6079
 1241SOL     OW 4621   0.211   1.797   4.252  0.3175  0.1881  0.3104
 1241SOL    HW1 4622   0.289   1.832   4.201  0.3387  0.1537  0.3191
 1241SOL    HW2 4623   0.196   1.701   4.227  0.1707  0.2445  0.1769
 1242SOL     OW 4624   0.197   1.826   6.046 -0.3347  0.5524 -0.7970
 1242SOL    HW1 4625   0.108   1.829   6.093 -0.7129  2.8127 -1.5613
 1242SOL    HW2 4626   0.266   1.872   6.101  0.1061 -0.0972 -0.7874
 1243SOL     OW 4627   1.141   5.443   4.613  0.1581 -0.2832 -0.2982
 1243SOL    HW1 4628   1.123   5.345   4.622 -1.5972  0.1470  1.7863
 1243SOL    HW2 4629   1.156   5.482   4.704  1.4000  1.3001 -1.1568
 1244SOL     OW 4630   0.903   2.113   4.106 -0.0374 -0.3219  0.0553
 1244SOL    HW1 4631   0.831   2.075   4.048  0.3495 -1.8369  0.5299
 1244SOL    HW2 4632   0.864   2.184   4.164 -1.2930 -1.4875  0.6954
 1245SOL     OW 4633   3.778   2.964   3.523  0.1633 -0.0304 -0.0484
 1245SOL    HW1 4634   3.816   2.898   3.588  0.2888 -0.8253 -0.9152
 1245SOL    HW2 4635   3.679   2.971   3.537  0.2825  0.3054  0.6652
 1246SOL     OW 4636   3.427   5.929   1.551  0.1773  0.5637 -0.3055
 1246SOL    HW1 4637   3.437   5.862   1.624  0.8956  0.4363 -0.5063
 1246SOL    HW2 4638   3.392   5.884   1.469 -0.5542  0.6906 -0.0686
 1247SOL     OW 4639   2.021   1.110   0.204  0.3464  0.2139 -0.2280
 1247SOL    HW1 4640   1.987   1.115   0.298 -1.1749  0.2442 -0.7690
 1247SOL    HW2 4641   2.076   1.191   0.184 -0.6151  0.9720  0.1445
 1248SOL     OW 4642   1.349   0.385   4.387  0.1841  0.6198  0.2374
 1248SOL    HW1 4643   1.353   0.331   4.471  2.4615  1.5847  0.8278
 1248SOL    HW2 4644   1.436   0.378   4.338 -1.2910 -0.4542 -2.4717
 1249SOL     OW 4645   5.339   0.705   1.975  0.6029 -0.1906  0.3847
 1249SOL    HW1 4646   5.288   0.621   1.955 -1.5897  1.4032 -1.1507
 1249SOL    HW2 4647   5.335   0.767   1.897  0.0210  2.3650  2.2917
 1250SOL     OW 4648   0.350   3.967   3.530 -0.9910  0.3926  0.1869
 1250SOL    HW1 4649   0.364   4.056   3.574 -2.2911  0.8462 -0.2972
 1250SOL    HW2 4650   0.267   3.924   3.567 -0.5625 -0.4769  0.1685
 1251SOL     OW 4651   2.854   6.192   6.846 -0.3393 -0.1317 -0.2862
 1251SOL    HW1 4652   2.820   6.222   6.935  1.1239  0.3143  0.1418
 1251SOL    HW2 4653   2.819   6.253   6.775 -0.4398  0.3079  0.1363
 1252SOL     OW 4654   2.901   3.350   4.908 -0.1069  0.0930  0.4006
 1252SOL    HW1 4655   2.889   3.421   4.839 -1.2416 -1.2721 -0.8675
 1252SOL    HW2 4656   2.920   3.263   4.863  4.1358 -0.0223  1.9490
 1253SOL     OW 4657   6.428   2.698   3.140 -0.0290 -0.1329  0.4282
 1253SOL    HW1 4658   6.361   2.737   3.077  1.0958  0.9495 -0.1404
 1253SOL    HW2 4659   6.506   2.759   3.147  0.9603 -1.4183  0.9849
 1254SOL     OW 4660   4.932   6.685   3.375  0.0572 -0.4855  0.1066
 1254SOL    HW1 4661   4.869   6.632   3.318 -3.2912  2.7363  0.3574
 1254SOL    HW2 4662   4.961   6.767   3.325  0.0019  0.5561  1.7045
 1255SOL     OW 4663   5.648   6.626   0.726  0.2097 -0.6657 -0.2446
 1255SOL    HW1 4664   5.685   6.562   0.794  0.4768 -1.3025 -0.9827
 1255SOL    HW2 4665   5.680   6.718   0.747 -0.6619 -0.6618  1.1813
 1256SOL     OW 4666   6.968   1.801   3.834 -0.0660 -0.2362  0.1807
 1256SOL    HW1 4667   7.029   1.757   3.768  1.8421  1.4571  0.7370
 1256SOL    HW2 4668   6.966   1.748   3.919  0.4548 -0.3987  0.0913
 1257SOL     OW 4669   6.441   6.580   5.414 -0.1664 -0.1145  0.2639
 1257SOL    HW1 4670   6.430   6.548   5.508 -1.9782 -0.1458  0.0733
 1257SOL    HW2 4671   6.413   6.508   5.351 -0.2464  0.3682 -0.2603
 1258SOL     OW 4672   6.570   6.239   2.382 -0.7036 -0.1348 -0.0763
 1258SOL    HW1 4673   6.650   6.210   2.331  1.1273  0.9165  2.0236
 1258SOL    HW2 4674   6.493   6.252   2.319  1.2826  0.7211 -2.4976
 1259SOL     OW 4675   4.723   4.772   4.931 -0.2195 -0.0977 -0.0800
 1259SOL    HW1 4676   4.710   4.695   4.868 -0.6173 -1.8744  2.0497
 1259SOL    HW2 4677   4.650   4.772   5.000  0.0458  1.9317  0.2559
 1260SOL     OW 4678   6.822   0.942   3.973  0.1095 -0.2359 -0.3539
 1260SOL    HW1 4679   6.746   0.988   4.019 -0.5213 -2.3125  0.7644
 1260SOL    HW2 4680   6.824   0.970   3.877  0.7065  3.2553  0.5288
 1261SOL     OW 4681   4.407   2.041   2.692 -0.2518  0.2277  0.3490
 1261SOL    HW1 4682   4.315   2.011   2.718 -0.9392  2.7245  1.1330
 1261SOL    HW2 4683   4.414   2.045   2.592 -0.9495 -0.0957  0.2805
 1262SOL     OW 4684   3.382   5.750   2.430  0.4704 -0.0766 -0.1878
 1262SOL    HW1 4685   3.326   5.731   2.350 -1.7014  1.1331  0.9597
 1262SOL    HW2 4686   3.356   5.838   2.470  2.2965 -0.0937  1.1976
 1263SOL     OW 4687   2.114   2.716   3.218  0.2575  0.5314  0.0438
 1263SOL    HW1 4688   2.116   2.655   3.139  1.7548  0.2466  0.2547
 1263SOL    HW2 4689   2.020   2.741   3.240 -0.4351 -1.9034  0.1008
 1264SOL     OW 4690   0.657   3.976   6.113  0.2693  0.0068 -0.3600
 1264SOL    HW1 4691   0.580   4.000   6.172 -0.1590 -0.6071 -0.6631
 1264SOL    HW2 4692   0.680   4.054   6.055 -2.2524 -0.7729 -2.5999
 1265SOL     OW 4693   5.526   0.862   6.673  0.1468  0.0053  0.6101
 1265SOL    HW1 4694   5.558   0.807   6.596 -0.4456  0.3003  0.1383
 1265SOL    HW2 4695   5.449   0.815   6.717  0.6307 -0.2681  1.1597
 1266SOL     OW 4696   1.625   1.535   0.009 -0.0640 -0.1353 -0.4141
 1266SOL    HW1 4697   1.650   1.440   0.028 -0.8423 -0.1235  0.8028
 1266SOL    HW2 4698   1.707   1.590  -0.003  0.5128 -0.4091  1.8175
 1267SOL     OW 4699   2.291   2.456   2.577  0.1122  0.3283 -0.4888
 1267SOL    HW1 4700   2.306   2.359   2.557  1.3493  0.5441 -0.7183
 1267SOL    HW2 4701   2.370   2.491   2.628 -0.3606  1.1947 -0.3429
 1268SOL     OW 4702   5.452   2.995   5.887 -0.2538 -0.0374  0.1482
 1268SOL    HW1 4703   5.446   2.927   5.960  0.2271 -0.7030 -0.4182
 1268SOL    HW2 4704   5.494   2.953   5.806 -1.4503  0.4771 -0.7664
 1269SOL     OW 4705   0.969   1.276   4.463  0.1422  0.2134  0.4012
 1269SOL    HW1 4706   0.930   1.361   4.496 -0.6862  0.4545 -1.1251
 1269SOL    HW2 4707   1.049   1.295   4.406 -0.5812  0.0745 -0.7074
 1270SOL     OW 4708   0.689   6.391   3.308 -0.2338  0.0713  0.3806
 1270SOL    HW1 4709   0.766   6.396   3.244  0.6333  0.5612  1.4153
 1270SOL    HW2 4710   0.609   6.435   3.267 -0.2534 -1.2067 -1.0621
 1271SOL     OW 4711   0.165   4.780   3.036  0.1984 -0.2422 -0.2853
 1271SOL    HW1 4712   0.152   4.716   3.111 -2.3465 -0.2452 -0.6310
 1271SOL    HW2 4713   0.107   4.753   2.959  2.0034  0.3163 -1.9026
 1272SOL     OW 4714   6.706   1.901   0.299 -0.2640 -0.0384 -0.3980
 1272SOL    HW1 4715   6.629   1.851   0.336 -0.5913  1.0017  0.3713
 1272SOL    HW2 4716   6.680   1.996   0.284  0.5871  0.1094 -1.0332
 1273SOL     OW 4717   1.314   3.209   5.752 -0.3486 -0.3641  0.9757
 1273SOL    HW1 4718   1.369   3.131   5.721  0.1213  0.4961 -0.4367
 1273SOL    HW2 4719   1.220   3.197   5.721 -0.3906 -0.6033  1.1902
 1274SOL     OW 4720   0.684   4.465   4.091 -0.4605 -0.8223  0.1924
 1274SOL    HW1 4721   0.775   4.424   4.085  0.0079  0.3387 -1.8422
 1274SOL    HW2 4722   0.684   4.537   4.160  0.3028 -0.5902 -0.0348
 1275SOL     OW 4723   1.965   2.419   2.954 -0.1237  0.5956 -0.4904
 1275SOL    HW1 4724   1.997   2.508   2.921  1.5285  0.6381  1.0657
 1275SOL    HW2 4725   2.041   2.371   2.998 -1.8344 -0.0259  1.9588
 1276SOL     OW 4726   0.267   5.230   3.782  0.0362 -0.4526  0.6449
 1276SOL    HW1 4727   0.236   5.138   3.757  0.2115 -1.0260  2.4173
 1276SOL    HW2 4728   0.366   5.230   3.793  0.2768  0.4257 -1.1173
 1277SOL     OW 4729   1.723   6.304   0.441 -0.1786  1.2465 -0.6060
 1277SOL    HW1 4730   1.765   6.280   0.529  1.4100  1.5638 -1.2542
 1277SOL    HW2 4731   1.768   6.255   0.367 -1.5892  0.8891 -1.2619
 1278SOL     OW 4732   6.719   5.250   2.128 -0.0292 -0.4587  0.1916
 1278SOL    HW1 4733   6.738   5.348   2.140  0.5326 -0.5334 -0.0549
 1278SOL    HW2 4734   6.640   5.225   2.184 -1.4086  0.5522 -1.1985
 1279SOL     OW 4735   1.538   1.759   6.881  0.7718 -0.1947  0.1802
 1279SOL    HW1 4736   1.609   1.783   6.814  1.3397 -1.9045  0.1369
 1279SOL    HW2 4737   1.560   1.671   6.923 -1.2979 -0.7206  0.2369
 1280SOL     OW 4738   1.476   3.978   3.355 -0.4501  0.1472 -0.0481
 1280SOL    HW1 4739   1.550   3.912   3.369 -2.8437 -2.9344 -0.8873
 1280SOL    HW2 4740   1.480   4.014   3.262  0.4262  0.6760  0.1796
 1281SOL     OW 4741   4.820   4.691   5.972 -0.7926 -0.6805  0.0910
 1281SOL    HW1 4742   4.822   4.592   5.984 -1.5622 -0.7840 -0.5363
 1281SOL    HW2 4743   4.804   4.713   5.876 -0.9593  0.0471  0.2774
 1282SOL     OW 4744   0.958   4.952   2.959 -0.0778 -0.4374  0.1260
 1282SOL    HW1 4745   0.872   4.993   2.988 -0.2890 -0.1636 -0.8658
 1282SOL    HW2 4746   1.009   5.015   2.901 -1.1639 -2.0648 -2.8114
 1283SOL     OW 4747   2.170   6.515   5.293  0.0156  0.2218 -0.5254
 1283SOL    HW1 4748   2.178   6.418   5.274  0.8987 -0.0003  0.7905
 1283SOL    HW2 4749   2.228   6.567   5.230  1.0768 -0.2854  0.0096
 1284SOL     OW 4750   3.529   1.886   0.355 -0.6841  0.4945  0.0283
 1284SOL    HW1 4751   3.438   1.859   0.384 -1.6127 -2.1316 -4.3594
 1284SOL    HW2 4752   3.597   1.827   0.399 -1.4230  0.2838  0.9113
 1285SOL     OW 4753   5.010   0.495   4.999  0.4381 -0.6702 -0.2901
 1285SOL    HW1 4754   5.056   0.408   5.011 -1.8940 -1.8876  0.5565
 1285SOL    HW2 4755   4.913   0.479   4.979 -0.3410  1.7310  1.1590
 1286SOL     OW 4756   3.552   0.357   2.645 -0.2687  0.9520  0.4396
 1286SOL    HW1 4757   3.480   0.339   2.712  1.6780 -0.6553  2.2564
 1286SOL    HW2 4758   3.559   0.279   2.582  2.1418 -0.7276  2.5678
 1287SOL     OW 4759   6.164   1.552   2.314  0.5925  0.1991  0.6371
 1287SOL    HW1 4760   6.167   1.462   2.270 -2.1134  1.1305 -1.8005
 1287SOL    HW2 4761   6.068   1.578   2.330  1.1158  3.4461 -0.6982
 1288SOL     OW 4762   4.568   5.105   4.981  0.7409 -0.3751 -0.1152
 1288SOL    HW1 4763   4.483   5.054   4.992  0.2823  0.2041 -0.8556
 1288SOL    HW2 4764   4.612   5.078   4.895  1.0894 -0.3568  0.0536
 1289SOL     OW 4765   1.336   0.245   0.116  0.2162 -0.2340 -1.1803
 1289SOL    HW1 4766   1.312   0.148   0.112 -0.1707 -0.3315  1.7694
 1289SOL    HW2 4767   1.421   0.256   0.167 -0.6250  1.0816 -0.0152
 1290SOL     OW 4768   2.648   0.245   4.120 -0.3155 -0.0984 -0.3607
 1290SOL    HW1 4769   2.711   0.188   4.067 -0.4702  1.2175 -2.0809
 1290SOL    HW2 4770   2.579   0.283   4.058 -0.2589  1.8808  0.7353
 1291SOL     OW 4771   5.471   5.202   2.616 -0.4544  0.7059  0.2261
 1291SOL    HW1 4772   5.565   5.229   2.635  0.3136 -1.2148 -0.5419
 1291SOL    HW2 4773   5.445   5.127   2.677 -1.7301  1.6261  0.8494
 1292SOL     OW 4774   6.337   1.089   3.212  0.2843 -0.1516  0.3384
 1292SOL    HW1 4775   6.433   1.085   3.185 -0.2162 -0.3194 -1.6143
 1292SOL    HW2 4776   6.309   1.184   3.226  0.7584 -0.1151  1.0655
 1293SOL     OW 4777   5.917   6.387   0.030  0.1286 -0.2170 -0.3941
 1293SOL    HW1 4778   5.982   6.380   0.105  0.6191 -0.4611 -0.8404
 1293SOL    HW2 4779   5.833   6.338   0.054 -0.1831  0.6928  0.4754
 1294SOL     OW 4780   1.982   6.112   5.786  0.6011 -0.2810  0.3127
 1294SOL    HW1 4781   2.009   6.168   5.864  0.1471 -1.6874  1.5235
 1294SOL    HW2 4782   2.058   6.055   5.757 -0.0113 -1.7710  1.5388
 1295SOL     OW 4783   6.427   4.859   1.062 -0.1143 -0.2738  0.3914
 1295SOL    HW1 4784   6.377   4.935   1.104 -1.1310 -1.0586  0.6509
 1295SOL    HW2 4785   6.525   4.876   1.068 -0.3386  1.6401 -0.7557
 1296SOL     OW 4786   4.818   0.962   5.985  0.3636 -0.1555  0.0188
 1296SOL    HW1 4787   4.900   1.007   5.949 -0.5212  1.3982 -0.1607
 1296SOL    HW2 4788   4.744   0.969   5.918 -0.4787  0.2482  0.9673
 1297SOL     OW 4789   6.846   6.202   0.721  0.5509  1.1203 -0.1129
 1297SOL    HW1 4790   6.875   6.278   0.663 -0.4707  1.9123  0.3838
 1297SOL    HW2 4791   6.890   6.117   0.690  1.7818  1.9204 -0.6198
 1298SOL     OW 4792   4.228   5.166   3.468  0.5038  0.1884  0.4109
 1298SOL    HW1 4793   4.259   5.162   3.374 -1.6929 -1.0899 -0.3469
 1298SOL    HW2 4794   4.250   5.080   3.514  2.7944  1.3105  1.5542
 1299SOL     OW 4795   0.242   3.725   6.181 -0.1461  0.5180  0.1622
 1299SOL    HW1 4796   0.201   3.794   6.121  1.2913  0.8271 -0.4937
 1299SOL    HW2 4797   0.308   3.671   6.129  0.3798  0.1259  1.2186
 1300SOL     OW 4798   4.368   4.553   1.031 -0.1970 -0.2453 -0.5314
 1300SOL    HW1 4799   4.385   4.527   1.126  2.5242 -1.5999 -1.3070
 1300SOL    HW2 4800   4.400   4.647   1.016 -3.0636  0.9987  0.4275
 1301SOL     OW 4801   4.965   2.693   5.891  0.2554  0.3117 -0.2338
 1301SOL    HW1 4802   4.875   2.733   5.906 -0.0815 -0.3577 -0.4152
 1301SOL    HW2 4803   4.999   2.722   5.801 -0.8308 -1.2966 -1.2157
 1302SOL     OW 4804   1.383   6.824   5.189  0.2118  0.3609  0.2507
 1302SOL    HW1 4805   1.414   6.903   5.136 -0.5341  0.3438 -0.2266
 1302SOL    HW2 4806   1.303   6.848   5.243 -0.1280 -0.1029 -0.0303
 1303SOL     OW 4807   0.981   5.863   1.031 -0.2130  0.0453  0.6699
 1303SOL    HW1 4808   0.899   5.914   1.059  0.8312  0.9590  2.2813
 1303SOL    HW2 4809   1.047   5.865   1.106  0.7099 -1.9263 -0.0474
 1304SOL     OW 4810   0.341   0.956   0.532 -0.3840  0.0944 -0.3794
 1304SOL    HW1 4811   0.398   0.912   0.602  0.2265  0.2356 -0.7795
 1304SOL    HW2 4812   0.342   1.055   0.546 -0.5337  0.0991 -0.3953
 1305SOL     OW 4813   3.743   3.406   6.246  0.0308 -0.2857  0.5019
 1305SOL    HW1 4814   3.840   3.391   6.225  0.1339 -0.1681  0.8831
 1305SOL    HW2 4815   3.724   3.505   6.245 -0.1363 -0.3178  0.2202
 1306SOL     OW 4816   2.902   6.017   2.602 -0.3261 -0.2237 -0.2654
 1306SOL    HW1 4817   2.975   6.082   2.622 -0.4852 -0.5190  1.4119
 1306SOL    HW2 4818   2.821   6.040   2.657  0.3844 -3.1883  2.2911
 1307SOL     OW 4819   1.365   5.177   3.060 -0.4844  0.1617 -0.8347
 1307SOL    HW1 4820   1.289   5.229   3.099 -1.8512 -1.6789 -0.9407
 1307SOL    HW2 4821   1.445   5.187   3.119 -1.0128  1.5004 -0.3020
 1308SOL     OW 4822   6.582   4.671   6.613  0.4497  0.1106  0.4411
 1308SOL    HW1 4823   6.671   4.703   6.583  0.3214  0.7258  0.7057
 1308SOL    HW2 4824   6.514   4.744   6.600 -0.1840 -0.6227 -0.5422
 1309SOL     OW 4825   4.978   5.041   1.152 -0.2792  0.0868  0.3988
 1309SOL    HW1 4826   4.962   5.056   1.054  0.1731  1.6678  0.5384
 1309SOL    HW2 4827   5.069   5.000   1.165 -1.4051 -2.7549  0.0302
 1310SOL     OW 4828   2.452   2.146   3.504  0.2435  0.2541  0.0458
 1310SOL    HW1 4829   2.523   2.216   3.504 -2.0124  2.6923  0.7696
 1310SOL    HW2 4830   2.487   2.064   3.458  3.6080  1.1246  0.7489
 1311SOL     OW 4831   6.313   6.571   0.381 -0.3102 -0.3669 -0.3836
 1311SOL    HW1 4832   6.339   6.656   0.335 -0.2279  0.5097  1.2282
 1311SOL    HW2 4833   6.369   6.558   0.462 -0.4128 -1.9191 -0.5286
 1312SOL     OW 4834   0.989   2.154   5.561  0.2697  0.3893  0.1296
 1312SOL    HW1 4835   0.913   2.210   5.524 -0.6464  0.0572  1.4442
 1312SOL    HW2 4836   0.986   2.156   5.660  1.9622  0.2726  0.2080
 1313SOL     OW 4837   4.723   5.024   5.522 -0.0194 -0.3185 -0.1410
 1313SOL    HW1 4838   4.714   4.956   5.449 -1.4222 -1.8217  1.3319
 1313SOL    HW2 4839   4.679   5.109   5.495 -0.9501 -1.0096 -0.8746
 1314SOL     OW 4840   3.409   1.444   4.080  0.0612 -0.2530 -0.4644
 1314SOL    HW1 4841   3.437   1.380   4.009 -1.0535 -0.6847 -0.5322
 1314SOL    HW2 4842   3.341   1.508   4.043 -0.5626 -0.5132  0.2193
 1315SOL     OW 4843   4.545   6.916   2.564 -0.3241  0.2041 -0.1278
 1315SOL    HW1 4844   4.564   6.889   2.658  0.1331 -0.0282 -0.2841
 1315SOL    HW2 4845   4.560   6.839   2.503 -3.2109 -0.4481 -0.1328
 1316SOL     OW 4846   5.422   0.054   6.971 -0.0742  0.1279  0.0964
 1316SOL    HW1 4847   5.396  -0.040   6.992 -0.3997  0.4578  1.2221
 1316SOL    HW2 4848   5.340   0.108   6.952 -0.0216  0.5569  1.0571
 1317SOL     OW 4849   3.307   2.961   3.792 -0.1660  0.0999 -0.3056
 1317SOL    HW1 4850   3.249   3.039   3.772 -0.7359 -0.6860 -1.8826
 1317SOL    HW2 4851   3.287   2.926   3.883 -0.4816  1.2672  0.0850
 1318SOL     OW 4852   2.258   0.747   5.327 -0.4885 -0.4340  0.0316
 1318SOL    HW1 4853   2.212   0.829   5.361 -1.7305 -0.5308 -1.2976
 1318SOL    HW2 4854   2.343   0.772   5.282 -0.1141 -0.0521  0.9175
 1319SOL     OW 4855   4.243   2.566   0.949  0.1990  0.4142  0.6698
 1319SOL    HW1 4856   4.295   2.580   1.033  1.1350  0.5589  0.0727
 1319SOL    HW2 4857   4.186   2.647   0.931  0.5849  0.7047  0.7485
 1320SOL     OW 4858   2.473   2.140   5.706  0.0870 -0.8466 -1.0807
 1320SOL    HW1 4859   2.531   2.219   5.724 -0.7539 -0.3795 -0.3700
 1320SOL    HW2 4860   2.522   2.075   5.648  1.6158 -0.8103  0.1054
 1321SOL     OW 4861   5.714   0.880   0.988  0.4278  0.2467 -0.3922
 1321SOL    HW1 4862   5.618   0.854   0.997  0.4366 -0.3599 -1.8045
 1321SOL    HW2 4863   5.731   0.963   1.041 -0.6597 -0.1219  0.5728
 1322SOL     OW 4864   0.356   2.163   1.398  0.5069  0.5239  0.1865
 1322SOL    HW1 4865   0.373   2.220   1.317 -0.2850 -3.0422 -2.8036
 1322SOL    HW2 4866   0.443   2.142   1.442  2.6336 -3.9377 -4.8954
 1323SOL     OW 4867   4.190   2.039   2.396 -0.3926 -0.3108 -0.6370
 1323SOL    HW1 4868   4.165   2.106   2.326 -1.3705  2.1432  1.8776
 1323SOL    HW2 4869   4.156   1.949   2.370 -2.2130  0.8439 -2.5177
 1324SOL     OW 4870   2.420   5.870   5.858 -0.0552  0.2199 -0.3678
 1324SOL    HW1 4871   2.497   5.934   5.848 -1.6061  1.9561 -1.9615
 1324SOL    HW2 4872   2.431   5.794   5.794  0.6770  0.0641 -0.0659
 1325SOL     OW 4873   6.317   4.638   4.322 -0.1178  0.2639 -0.2219
 1325SOL    HW1 4874   6.390   4.621   4.388 -0.6435 -0.0131  0.2986
 1325SOL    HW2 4875   6.348   4.705   4.255  1.8682 -2.3533 -2.1089
 1326SOL     OW 4876   4.089   1.686   3.337  0.1853  0.3528  0.0584
 1326SOL    HW1 4877   4.144   1.737   3.404 -1.9055  1.7625  0.7964
 1326SOL    HW2 4878   4.130   1.595   3.323  2.4447  1.1785  0.8235
 1327SOL     OW 4879   5.543   5.714   1.415  0.0825 -0.2872  0.3104
 1327SOL    HW1 4880   5.517   5.654   1.339 -2.6540  0.2409  0.7354
 1327SOL    HW2 4881   5.530   5.666   1.502  0.5580  0.0162  0.5558
 1328SOL     OW 4882   5.396   2.306   4.788 -0.1528  0.2505  0.3261
 1328SOL    HW1 4883   5.382   2.395   4.831 -0.2191  0.6230 -0.4533
 1328SOL    HW2 4884   5.307   2.268   4.762 -0.0075  0.9596 -1.3188
 1329SOL     OW 4885   1.958   1.943   3.429  0.1095  0.1491 -0.0881
 1329SOL    HW1 4886   2.028   1.890   3.477 -0.3400  0.1337  0.5587
 1329SOL    HW2 4887   2.001   2.022   3.384  0.6043 -0.1150 -0.0849
 1330SOL     OW 4888   0.296   3.739   4.277 -0.1037 -0.0309 -0.3653
 1330SOL    HW1 4889   0.352   3.704   4.352  0.9676 -0.5548 -1.3796
 1330SOL    HW2 4890   0.242   3.665   4.238 -1.6668  0.4875  0.6733
 1331SOL     OW 4891   3.056   0.849   2.218 -0.4287 -0.5442  0.0306
 1331SOL    HW1 4892   3.021   0.922   2.277  1.2985  1.2985 -1.0876
 1331SOL    HW2 4893   3.050   0.877   2.123  1.9879 -0.9876 -0.3318
 1332SOL     OW 4894   2.850   5.697   5.734 -0.2083 -0.0741  0.1422
 1332SOL    HW1 4895   2.780   5.679   5.803  0.3671 -0.3926  0.6645
 1332SOL    HW2 4896   2.902   5.779   5.760 -0.5770  0.3400 -0.4019
 1333SOL     OW 4897   3.599   3.901   3.533 -0.0943  0.1668  0.0525
 1333SOL    HW1 4898   3.686   3.874   3.491  0.8266  3.0906 -0.1381
 1333SOL    HW2 4899   3.529   3.833   3.510  1.7730 -1.5204 -1.0156
 1334SOL     OW 4900   1.021   4.758   3.136 -0.4878 -0.6221 -0.2050
 1334SOL    HW1 4901   1.120   4.769   3.143 -0.4284  0.1867 -1.8341
 1334SOL    HW2 4902   0.984   4.823   3.070 -2.0302 -1.3611 -0.1330
 1335SOL     OW 4903   1.078   3.011   3.561  0.2944 -0.1566 -0.1785
 1335SOL    HW1 4904   1.114   3.091   3.514  2.1546 -0.3478  0.8180
 1335SOL    HW2 4905   1.056   2.939   3.495 -2.0441  1.3490 -1.1530
 1336SOL     OW 4906   2.581   5.672   4.389  0.0579 -0.4567 -0.5782
 1336SOL    HW1 4907   2.538   5.761   4.373  1.1418  0.3924  0.9508
 1336SOL    HW2 4908   2.512   5.600   4.379 -1.0595  0.6203 -0.9444
 1337SOL     OW 4909   0.601   1.476   1.211  0.5604 -0.1351 -0.4512
 1337SOL    HW1 4910   0.650   1.402   1.166 -2.2780 -2.2726 -0.2963
 1337SOL    HW2 4911   0.503   1.468   1.193 -0.0808  2.4081  1.2738
 1338SOL     OW 4912   0.005   3.324   4.159 -0.7399  0.3355 -0.1785
 1338SOL    HW1 4913  -0.077   3.270   4.139 -1.2050  1.8260 -2.7630
 1338SOL    HW2 4914   0.064   3.325   4.079  0.1437  2.1111  0.4426
 1339SOL     OW 4915   5.105   1.729   0.509  0.2576  0.3922  0.8056
 1339SOL    HW1 4916   5.181   1.666   0.493  0.2368  0.3682  0.8009
 1339SOL    HW2 4917   5.059   1.749   0.423  0.0324  0.1195  0.8656
 1340SOL     OW 4918   0.611   4.928   0.741  0.7851 -0.2684 -0.8165
 1340SOL    HW1 4919   0.523   4.972   0.755  1.5355  1.9861 -2.5892
 1340SOL    HW2 4920   0.605   4.868   0.661  0.9360  0.2017 -1.1870
 1341SOL     OW 4921   6.330   5.571   1.037 -0.5239 -0.2578 -0.4361
 1341SOL    HW1 4922   6.254   5.557   1.101 -0.7411  0.0087 -0.6344
 1341SOL    HW2 4923   6.380   5.485   1.026 -0.3859 -0.2682  0.2205
 1342SOL     OW 4924   1.400   4.099   1.637  0.1351 -0.3499 -0.1085
 1342SOL    HW1 4925   1.472   4.078   1.704  1.9577  1.1546 -1.5016
 1342SOL    HW2 4926   1.358   4.187   1.660 -0.2043 -0.4958 -0.1677
 1343SOL     OW 4927   5.536   6.706   3.076  0.1521 -0.4284  0.6763
 1343SOL    HW1 4928   5.583   6.617   3.077  2.0702  0.5219  2.0888
 1343SOL    HW2 4929   5.460   6.705   3.140  1.9879 -0.2152  2.9828
 1344SOL     OW 4930   2.597   0.817   3.779  0.5552 -0.2496 -0.3945
 1344SOL    HW1 4931   2.594   0.916   3.764 -1.1779 -0.2124  0.0093
 1344SOL    HW2 4932   2.512   0.776   3.748  0.4053 -1.3332  1.3512
 1345SOL     OW 4933   6.778   3.288   6.068  0.8538 -0.2968  0.4942
 1345SOL    HW1 4934   6.835   3.212   6.033  1.2609 -0.4743  1.5070
 1345SOL    HW2 4935   6.693   3.251   6.105  0.7334 -0.1801  0.3351
 1346SOL     OW 4936   3.549   5.745   4.302  0.1239  0.1097  0.2642
 1346SOL    HW1 4937   3.492   5.683   4.355  3.7272 -1.9131  2.2138
 1346SOL    HW2 4938   3.543   5.722   4.205 -3.4964  1.1777  0.0999
 1347SOL     OW 4939   6.556   0.080   5.941 -0.3730  0.2814  0.4817
 1347SOL    HW1 4940   6.549   0.178   5.960  1.5429  0.7437 -0.8285
 1347SOL    HW2 4941   6.488   0.031   5.994 -1.9705  2.3881  0.5379
 1348SOL     OW 4942   1.741   6.039   5.650  0.2018 -0.2259 -0.4899
 1348SOL    HW1 4943   1.715   6.123   5.603  0.8956  1.4995  2.0314
 1348SOL    HW2 4944   1.832   6.049   5.690 -0.0138 -1.8908  0.5099
 1349SOL     OW 4945   6.908   5.609   1.804 -0.0279  0.3723 -0.1293
 1349SOL    HW1 4946   6.994   5.560   1.814 -0.6338 -0.5972  0.4444
 1349SOL    HW2 4947   6.846   5.556   1.746  0.0546  1.4809 -1.2860
 1350SOL     OW 4948   5.186   4.331   0.409 -0.2442  0.0836 -0.1245
 1350SOL    HW1 4949   5.116   4.397   0.435 -2.7440 -2.0233 -1.0128
 1350SOL    HW2 4950   5.211   4.276   0.488  0.7857  1.0990  0.2869
 1351SOL     OW 4951   0.010   2.335   0.619 -0.3207  0.6027  0.3645
 1351SOL    HW1 4952  -0.010   2.239   0.600  0.7999  0.4568 -0.1966
 1351SOL    HW2 4953  -0.040   2.392   0.553  1.4614  0.2174 -1.4362
 1352SOL     OW 4954   6.549   1.767   2.183 -0.0173 -0.2305 -0.7839
 1352SOL    HW1 4955   6.637   1.757   2.138  0.4754  0.3998  0.0217
 1352SOL    HW2 4956   6.493   1.833   2.132  1.4868  2.4824  0.8102
 1353SOL     OW 4957   5.799   2.402   6.252  0.6324 -0.0430  0.4251
 1353SOL    HW1 4958   5.863   2.393   6.176  1.3646 -1.9119  1.2093
 1353SOL    HW2 4959   5.825   2.481   6.307  0.2997  1.1329 -1.0270
 1354SOL     OW 4960   5.773   4.143   1.588 -0.3267  0.0185 -0.2282
 1354SOL    HW1 4961   5.706   4.218   1.590 -1.1398 -0.6313  3.4643
 1354SOL    HW2 4962   5.866   4.181   1.595 -0.6081  0.7544 -0.4199
 1355SOL     OW 4963   3.973   3.830   3.523 -0.2129 -0.3780 -0.3863
 1355SOL    HW1 4964   3.980   3.739   3.564 -2.7438 -1.0181 -1.1755
 1355SOL    HW2 4965   3.925   3.891   3.587 -1.7558 -0.6398 -1.2465
 1356SOL     OW 4966   2.677   1.404   4.853  0.1874  0.2500  0.0696
 1356SOL    HW1 4967   2.656   1.311   4.823  0.3561  0.2224  0.0332
 1356SOL    HW2 4968   2.610   1.433   4.920  0.8943 -0.4055  1.0902
 1357SOL     OW 4969   1.565   2.638   4.284 -0.3062  0.4620  0.1782
 1357SOL    HW1 4970   1.466   2.646   4.274 -0.6450 -0.7456  1.9453
 1357SOL    HW2 4971   1.600   2.720   4.329 -0.3309  1.2857 -1.2418
 1358SOL     OW 4972   0.723   5.371   5.163 -0.5485 -0.0428  0.2694
 1358SOL    HW1 4973   0.818   5.349   5.185 -0.5248  0.9312  1.2204
 1358SOL    HW2 4974   0.719   5.456   5.110 -0.9472  0.6001  1.3057
 1359SOL     OW 4975   6.828   5.856   5.473  0.8544 -0.1091 -0.2908
 1359SOL    HW1 4976   6.919   5.817   5.490  0.0101 -1.8290  0.4842
 1359SOL    HW2 4977   6.769   5.838   5.552 -0.7214 -0.7402 -1.5833
 1360SOL     OW 4978   2.384   2.087   6.036  0.0957  0.6090  0.4287
 1360SOL    HW1 4979   2.415   2.165   5.981 -2.5106  1.0138 -0.6241
 1360SOL    HW2 4980   2.370   2.008   5.976 -1.4023  0.6235  0.7314
 1361SOL     OW 4981   6.053   0.653   4.266  0.0487  1.3536 -0.0421
 1361SOL    HW1 4982   6.106   0.629   4.185 -0.8130  0.1348 -0.2704
 1361SOL    HW2 4983   6.108   0.713   4.324  2.8434 -1.9130  1.0594
 1362SOL     OW 4984   3.238   3.280   4.961 -0.3204  0.5077  0.1506
 1362SOL    HW1 4985   3.223   3.342   5.039 -0.9589  0.3189  0.1834
 1362SOL    HW2 4986   3.234   3.331   4.876 -0.7982  0.5256  0.1809
 1363SOL     OW 4987   6.482   0.732   4.215 -0.1791  0.6346  0.4830
 1363SOL    HW1 4988   6.541   0.679   4.275 -0.7447 -0.6223 -0.0422
 1363SOL    HW2 4989   6.452   0.815   4.263  1.1605  0.7797  1.1100
 1364SOL     OW 4990   3.741   4.121   5.847 -0.2816 -0.0342 -0.1083
 1364SOL    HW1 4991   3.710   4.167   5.764  0.5430 -0.6372 -0.7672
 1364SOL    HW2 4992   3.692   4.034   5.856 -4.2902  2.2176  2.8521
 1365SOL     OW 4993   5.610   2.967   6.705 -0.3527 -0.4856  0.6745
 1365SOL    HW1 4994   5.540   3.005   6.765  0.6319  0.8671  1.0246
 1365SOL    HW2 4995   5.695   2.954   6.757  1.0093  2.1813 -0.6654
 1366SOL     OW 4996   1.964   0.965   5.296  0.7913 -0.1852 -0.0848
 1366SOL    HW1 4997   1.913   0.879   5.299  0.2620  0.1215 -0.0538
 1366SOL    HW2 4998   2.027   0.969   5.374 -0.2880  0.1191  0.8016
 1367SOL     OW 4999   2.299   2.059   2.018  0.0378 -0.3613  0.4234
 1367SOL    HW1 5000   2.384   2.100   1.985  0.6715 -1.0927  1.0946
 1367SOL    HW2 5001   2.308   1.960   2.019 -1.0522 -0.4763 -0.0686
 1368SOL     OW 5002   0.423   1.159   1.367 -0.7510 -0.7541 -0.1703
 1368SOL    HW1 5003   0.430   1.256   1.391 -1.8470 -0.8590  0.6840
 1368SOL    HW2 5004   0.339   1.143   1.314 -2.2267 -1.6327  2.2264
 1369SOL     OW 5005   6.809   0.997   2.752 -0.0093 -0.4660  0.2886
 1369SOL    HW1 5006   6.735   1.021   2.814 -2.8886 -0.9888 -2.6497
 1369SOL    HW2 5007   6.787   1.030   2.660  3.8450  0.0084 -0.6369
 1370SOL     OW 5008   1.567   3.361   2.037 -0.7055  0.0759 -0.5840
 1370SOL    HW1 5009   1.622   3.397   2.113 -1.3380 -0.6766  0.2348
 1370SOL    HW2 5010   1.472   3.389   2.048 -0.6490  0.7829 -1.6368
 1371SOL     OW 5011   2.261   5.620   4.831 -0.0466  0.3872  0.5004
 1371SOL    HW1 5012   2.229   5.602   4.924  1.1617  1.8835  1.2492
 1371SOL    HW2 5013   2.203   5.690   4.789  0.3733  0.8943  0.7475
 1372SOL     OW 5014   2.268   4.469   0.564 -0.2486  0.1760 -0.7295
 1372SOL    HW1 5015   2.291   4.446   0.469 -0.2896 -0.2368 -0.6413
 1372SOL    HW2 5016   2.282   4.389   0.622  1.8299  1.0011 -0.0066
 1373SOL     OW 5017   1.113   4.930   1.197  0.1496 -0.9244  0.1073
 1373SOL    HW1 5018   1.186   4.943   1.265  0.7591  0.6624 -0.7860
 1373SOL    HW2 5019   1.068   4.843   1.212  1.3588 -1.3375  1.5232
 1374SOL     OW 5020   4.840   3.857   4.829 -0.3736  0.0627 -0.3290
 1374SOL    HW1 5021   4.804   3.789   4.893  1.3401  0.3114  0.9759
 1374SOL    HW2 5022   4.844   3.946   4.875 -0.5851  0.6005 -1.3230
 1375SOL     OW 5023   0.587   4.830   4.723 -0.1039 -0.2882  0.4435
 1375SOL    HW1 5024   0.607   4.840   4.820 -0.7323  1.3754  0.4292
 1375SOL    HW2 5025   0.562   4.918   4.685 -0.8958 -1.1013 -1.0081
 1376SOL     OW 5026   4.145   6.822   3.167 -0.3912  1.0033  0.2977
 1376SOL    HW1 5027   4.170   6.919   3.161 -0.2107  0.9207 -0.4479
 1376SOL    HW2 5028   4.057   6.808   3.123  0.5667  0.5022 -1.5994
 1377SOL     OW 5029   6.846   3.148   0.074 -0.1124 -0.6001  0.2931
 1377SOL    HW1 5030   6.766   3.208   0.063  1.2430  1.0895 -0.8802
 1377SOL    HW2 5031   6.841   3.073   0.008 -0.1854  0.1494 -0.5710
 1378SOL     OW 5032   2.378   1.330   0.068  0.1387  0.1914  0.8311
 1378SOL    HW1 5033   2.458   1.381   0.101 -0.1624  1.1821  0.0591
 1378SOL    HW2 5034   2.405   1.270  -0.008  0.4212 -0.5601  1.5091
 1379SOL     OW 5035   3.714   4.387   1.692  0.0519 -0.0470 -0.4222
 1379SOL    HW1 5036   3.682   4.295   1.713  1.8235 -0.3967  1.0153
 1379SOL    HW2 5037   3.650   4.455   1.729 -0.8734 -0.6771 -0.8330
 1380SOL     OW 5038   0.314   5.917   5.260  0.5737  0.3703 -0.4122
 1380SOL    HW1 5039   0.313   6.013   5.286  0.1027 -0.0093  1.0441
 1380SOL    HW2 5040   0.394   5.872   5.299 -0.4751 -0.3504  0.9958
 1381SOL     OW 5041   2.780   1.827   1.006 -0.0705  0.2839  0.0498
 1381SOL    HW1 5042   2.849   1.874   0.950 -0.4501 -0.8130 -1.4000
 1381SOL    HW2 5043   2.818   1.741   1.039  0.2152  1.0092  1.6950
 1382SOL     OW 5044   5.546   2.567   6.920  0.1956 -0.4070  0.3434
 1382SOL    HW1 5045   5.544   2.491   6.855 -2.3196 -0.1893  0.0785
 1382SOL    HW2 5046   5.455   2.607   6.927  1.4181  2.5784  0.5141
 1383SOL     OW 5047   3.110   1.759   0.322 -0.0260  0.2113 -0.2682
 1383SOL    HW1 5048   3.132   1.856   0.335  0.8642  0.1101 -0.9345
 1383SOL    HW2 5049   3.038   1.750   0.254 -0.2362  0.4086 -0.0750
 1384SOL     OW 5050   0.260   1.450   1.197 -0.6897 -0.2343  0.2414
 1384SOL    HW1 5051   0.231   1.372   1.252 -2.6287  1.5182  1.8942
 1384SOL    HW2 5052   0.202   1.529   1.218  1.1843  1.6876 -1.3197
 1385SOL     OW 5053   5.590   3.480   4.659 -0.1616  0.4559 -0.5050
 1385SOL    HW1 5054   5.542   3.487   4.572  0.7994  0.0427 -1.0754
 1385SOL    HW2 5055   5.677   3.432   4.646 -0.6973 -0.9910  0.9528
 1386SOL     OW 5056   2.547   2.606   3.951 -0.2954  0.1090 -0.1823
 1386SOL    HW1 5057   2.539   2.634   4.047  0.2942 -0.6031  0.0891
 1386SOL    HW2 5058   2.459   2.572   3.919 -1.0413  2.2780 -0.5433
 1387SOL     OW 5059   5.257   1.965   6.043  0.0223 -0.5691  0.5291
 1387SOL    HW1 5060   5.315   2.021   6.101 -0.8991  0.8470  0.1254
 1387SOL    HW2 5061   5.305   1.942   5.959  0.6131 -0.8962  0.9468
 1388SOL     OW 5062   6.279   1.679   4.537  0.1569 -0.0789  0.6224
 1388SOL    HW1 5063   6.340   1.719   4.469 -2.8397  1.7172 -1.2990
 1388SOL    HW2 5064   6.274   1.738   4.617 -0.9075  1.1853 -0.3281
 1389SOL     OW 5065   0.532   1.333   5.356 -0.1724  0.0407  0.1972
 1389SOL    HW1 5066   0.555   1.240   5.383  0.4290  0.5482  1.4919
 1389SOL    HW2 5067   0.468   1.373   5.422 -0.3756  0.5701 -0.3048
 1390SOL     OW 5068   5.685   1.493   2.463 -0.7344  0.0002 -0.4262
 1390SOL    HW1 5069   5.745   1.502   2.383 -2.0688  1.2128 -1.3368
 1390SOL    HW2 5070   5.675   1.582   2.507 -1.4974 -0.2775 -0.0308
 1391SOL     OW 5071   4.255   2.051   6.472 -0.4211  0.1232  0.2248
 1391SOL    HW1 5072   4.210   1.966   6.497 -0.2401 -0.0597 -0.0649
 1391SOL    HW2 5073   4.187   2.123   6.461 -0.8129 -0.4763 -1.5808
 1392SOL     OW 5074   2.213   0.569   4.085 -0.3311  0.2962 -0.1569
 1392SOL    HW1 5075   2.186   0.489   4.138  2.3586 -0.5208  0.1143
 1392SOL    HW2 5076   2.205   0.651   4.142 -2.3412  0.1596 -0.1822
 1393SOL     OW 5077   4.056   1.022   6.808 -0.0247 -0.2988  0.6858
 1393SOL    HW1 5078   3.968   0.976   6.793 -1.1481  1.5969  1.1488
 1393SOL    HW2 5079   4.058   1.108   6.758  1.7344 -0.4622  0.4092
 1394SOL     OW 5080   4.967   1.659   4.537 -0.6033 -0.4310 -0.3733
 1394SOL    HW1 5081   4.959   1.754   4.568  0.2997 -0.3630 -0.3175
 1394SOL    HW2 5082   5.062   1.630   4.544 -1.1488 -1.9269  1.2562
 1395SOL     OW 5083   3.212   4.606   0.074 -0.1451 -0.1247  0.2161
 1395SOL    HW1 5084   3.117   4.634   0.065 -0.0842  0.9566  2.2228
 1395SOL    HW2 5085   3.225   4.516   0.034 -1.7598  0.1670 -1.0354
 1396SOL     OW 5086   1.162   2.438   1.738 -0.3671  0.1173 -0.3262
 1396SOL    HW1 5087   1.098   2.364   1.718  0.1119 -0.0225 -1.4230
 1396SOL    HW2 5088   1.115   2.511   1.787 -0.5809 -1.4308  1.9321
 1397SOL     OW 5089   3.427   6.047   5.016  0.4880 -0.0763 -0.2292
 1397SOL    HW1 5090   3.430   6.147   5.006 -1.8667  0.0323 -0.3332
 1397SOL    HW2 5091   3.437   6.023   5.112 -2.3900  0.5564  0.3218
 1398SOL     OW 5092   2.316   0.203   6.116  0.0360  0.4857 -0.2072
 1398SOL    HW1 5093   2.243   0.211   6.048 -0.0739 -0.8727 -0.2746
 1398SOL    HW2 5094   2.283   0.151   6.194  1.0985 -0.6496 -0.4964
 1399SOL     OW 5095   3.584   0.824   0.165 -0.5728  0.1732  0.6128
 1399SOL    HW1 5096   3.626   0.734   0.155  0.9074  1.0253 -1.5715
 1399SOL    HW2 5097   3.486   0.818   0.144 -0.7411 -1.1125  1.6692
 1400SOL     OW 5098   6.199   1.901   4.752 -0.1711  0.2083  0.0791
 1400SOL    HW1 5099   6.158   1.940   4.834 -0.2018  0.8337 -0.2276
 1400SOL    HW2 5100   6.191   1.966   4.677  1.5596  0.4452  0.0625
 1401SOL     OW 5101   5.305   1.271   4.482 -0.6621  0.1769  0.1072
 1401SOL    HW1 5102   5.270   1.285   4.390 -1.4653  0.5806  0.4585
 1401SOL    HW2 5103   5.399   1.240   4.478 -0.7434  0.0297 -0.8510
 1402SOL     OW 5104   5.649   3.725   2.758  0.2339  0.5242 -0.1436
 1402SOL    HW1 5105   5.690   3.712   2.668  1.1129  2.6991 -0.1358
 1402SOL    HW2 5106   5.557   3.762   2.747 -0.8361 -1.9603 -0.1258
 1403SOL     OW 5107   3.661   3.087   6.688 -0.2984 -0.0162  0.6261
 1403SOL    HW1 5108   3.668   3.186   6.696 -0.5578  0.1225 -0.7091
 1403SOL    HW2 5109   3.586   3.063   6.627 -0.2881 -1.0448  0.9873
 1404SOL     OW 5110   4.065   5.500   0.682  0.5720  0.4741 -0.1563
 1404SOL    HW1 5111   4.129   5.428   0.658  0.7422  0.8269 -0.7701
 1404SOL    HW2 5112   4.110   5.567   0.742 -0.0494 -0.7731  1.8073
 1405SOL     OW 5113   2.809   5.221   5.534 -0.0514  0.0784 -0.2730
 1405SOL    HW1 5114   2.775   5.304   5.579  0.4820  0.7629 -1.0796
 1405SOL    HW2 5115   2.904   5.205   5.561 -0.2092 -0.3688  0.0133
 1406SOL     OW 5116   1.952   3.462   6.427  0.0620 -0.3093 -0.5684
 1406SOL    HW1 5117   2.037   3.513   6.414 -0.5205  0.6738 -0.6287
 1406SOL    HW2 5118   1.883   3.523   6.467 -0.6502 -1.0638 -0.6312
 1407SOL     OW 5119   0.720   4.568   1.363 -0.3871 -0.4447  0.3995
 1407SOL    HW1 5120   0.681   4.658   1.346 -2.9176 -1.1919  1.6395
 1407SOL    HW2 5121   0.806   4.558   1.313 -0.3923  2.3569 -0.3210
 1408SOL     OW 5122   6.959   4.958   1.384  0.3596 -0.2298  0.0966
 1408SOL    HW1 5123   6.963   4.864   1.417  0.7251 -0.2152  0.0988
 1408SOL    HW2 5124   7.046   4.983   1.344  0.2903  0.1361  0.1695
 1409SOL     OW 5125   6.147   0.935   5.084  0.1167  0.5196  0.4358
 1409SOL    HW1 5126   6.148   0.848   5.135  0.8848 -0.9242 -1.8936
 1409SOL    HW2 5127   6.070   0.935   5.020  0.9244  0.9245 -0.5594
 1410SOL     OW 5128   3.652   1.565   6.038  0.6309 -0.1942 -0.4115
 1410SOL    HW1 5129   3.627   1.643   6.095  0.6611 -1.9318  2.1443
 1410SOL    HW2 5130   3.699   1.497   6.094  1.7946 -1.5092 -2.8419
 1411SOL     OW 5131   1.579   1.052   6.860 -0.3095 -0.1654 -0.6074
 1411SOL    HW1 5132   1.546   0.971   6.910  0.6867  0.3281  0.9118
 1411SOL    HW2 5133   1.678   1.047   6.849 -0.0636  1.4093  0.5992
 1412SOL     OW 5134   0.699   0.053   0.936  0.0748  0.4051  0.6247
 1412SOL    HW1 5135   0.644   0.110   0.998 -0.6813 -0.8124  1.0976
 1412SOL    HW2 5136   0.639  -0.006   0.882  0.8740 -0.7125  0.9208
 1413SOL     OW 5137   3.218   5.982   4.284 -0.9180  0.3774 -0.2090
 1413SOL    HW1 5138   3.195   6.010   4.190 -2.4421  1.2453  0.3846
 1413SOL    HW2 5139   3.140   5.932   4.324 -0.9631  1.4618  1.1342
 1414SOL     OW 5140   6.130   6.947   2.668 -0.8496 -0.3457  0.3754
 1414SOL    HW1 5141   6.211   6.944   2.609 -1.2949 -4.0225 -0.2973
 1414SOL    HW2 5142   6.051   6.974   2.614 -0.7658 -0.8906 -0.0309
 1415SOL     OW 5143   4.295   1.222   4.914  0.4716 -0.4535  0.3051
 1415SOL    HW1 5144   4.243   1.306   4.906 -0.1809 -0.7926  0.9016
 1415SOL    HW2 5145   4.371   1.223   4.849 -0.0523  0.2077 -0.3042
 1416SOL     OW 5146   5.065   0.073   6.021  0.4422  0.4029  0.2465
 1416SOL    HW1 5147   5.081   0.122   5.936 -0.4605 -0.6916 -0.5931
 1416SOL    HW2 5148   4.970   0.040   6.023  0.8657 -0.8462  0.9928
 1417SOL     OW 5149   4.139   5.170   4.825  0.4740  0.2487  0.3960
 1417SOL    HW1 5150   4.183   5.254   4.859 -0.3394  0.5577  0.7140
 1417SOL    HW2 5151   4.076   5.193   4.751  0.2056 -0.0714  0.5227
 1418SOL     OW 5152   2.210   3.775   6.874  0.4635 -0.0067  0.2096
 1418SOL    HW1 5153   2.182   3.712   6.947 -0.7958 -0.2332 -0.4436
 1418SOL    HW2 5154   2.182   3.738   6.786  0.5025  1.0560 -0.2645
 1419SOL     OW 5155   1.525   4.808   1.765  0.6596  0.4088 -0.3237
 1419SOL    HW1 5156   1.558   4.726   1.812  0.2656  0.0539 -0.6580
 1419SOL    HW2 5157   1.501   4.785   1.670 -2.3726  0.1739  0.4055
 1420SOL     OW 5158   3.237   5.532   3.647 -0.4801  0.2009 -0.4474
 1420SOL    HW1 5159   3.222   5.586   3.564 -1.9238  1.4220  0.5408
 1420SOL    HW2 5160   3.207   5.438   3.631  0.4149  0.0995 -1.6672
 1421SOL     OW 5161   1.667   6.441   0.864  0.3444  0.4033  0.2439
 1421SOL    HW1 5162   1.610   6.514   0.900  1.5058  1.9956 -1.0118
 1421SOL    HW2 5163   1.756   6.443   0.909  0.7777  0.5141 -0.5965
 1422SOL     OW 5164   0.485   2.512   6.502  0.1828  0.3918  0.2446
 1422SOL    HW1 5165   0.523   2.444   6.565  0.1517  0.9743  0.9019
 1422SOL    HW2 5166   0.400   2.549   6.539  1.1080  2.0850  0.7766
 1423SOL     OW 5167   5.280   0.263   4.556  0.1697 -0.1409  0.3221
 1423SOL    HW1 5168   5.322   0.321   4.625  1.2585  0.2084 -0.6079
 1423SOL    HW2 5169   5.350   0.209   4.509 -0.6528 -1.0696  0.1157
 1424SOL     OW 5170   5.013   3.392   1.097 -0.2332  0.0469  0.1203
 1424SOL    HW1 5171   5.017   3.468   1.162 -1.6734  1.1959 -1.0461
 1424SOL    HW2 5172   4.918   3.380   1.066  0.0527 -1.9357 -0.0930
 1425SOL     OW 5173   4.656   6.251   3.355  0.4064 -0.5358  0.1618
 1425SOL    HW1 5174   4.739   6.199   3.377 -0.9130 -2.5192  0.7023
 1425SOL    HW2 5175   4.623   6.223   3.265 -0.6831 -1.1560  0.7385
 1426SOL     OW 5176   1.980   6.528   0.152 -0.3190 -0.1787 -0.2305
 1426SOL    HW1 5177   1.974   6.582   0.236 -4.5106  0.2266 -0.5837
 1426SOL    HW2 5178   2.000   6.588   0.075 -0.3189  0.0871 -0.0242
 1427SOL     OW 5179   1.211   0.197   3.090  0.0645 -0.1134 -0.5361
 1427SOL    HW1 5180   1.235   0.101   3.075  0.9000  0.2098 -1.3880
 1427SOL    HW2 5181   1.179   0.237   3.004  2.0091  0.9855 -0.7927
 1428SOL     OW 5182   1.544   3.796   3.793 -0.5967 -0.0680 -0.2979
 1428SOL    HW1 5183   1.500   3.707   3.805  2.4114 -1.6125  0.4546
 1428SOL    HW2 5184   1.637   3.782   3.759  0.5789  2.6825  1.4570
 1429SOL     OW 5185   5.055   1.004   1.205 -0.0495  0.3253 -0.1674
 1429SOL    HW1 5186   4.995   1.068   1.157 -0.4548  0.2348  0.2186
 1429SOL    HW2 5187   5.004   0.922   1.230  0.2717  0.1866  0.0413
 1430SOL     OW 5188   1.282   2.809   4.586 -0.1408 -0.1651 -0.6346
 1430SOL    HW1 5189   1.223   2.767   4.656  1.9416 -0.4829  1.0367
 1430SOL    HW2 5190   1.266   2.907   4.583  0.0765 -0.0726  0.6798
 1431SOL     OW 5191   2.138   2.006   0.638  0.5638 -0.0301  0.3536
 1431SOL    HW1 5192   2.141   2.105   0.625  0.5708 -0.0925 -0.1343
 1431SOL    HW2 5193   2.168   1.984   0.730  0.2297  0.4483  0.5821
 1432SOL     OW 5194   2.269   0.291   2.560 -0.1524 -0.6898 -0.5416
 1432SOL    HW1 5195   2.193   0.252   2.508  1.1014 -2.4805 -1.1354
 1432SOL    HW2 5196   2.234   0.325   2.648 -2.1412  1.5378 -2.0627
 1433SOL     OW 5197   2.188   1.575   3.740  0.0336  0.0001  0.1583
 1433SOL    HW1 5198   2.189   1.476   3.728  0.2235 -0.0909  0.9062
 1433SOL    HW2 5199   2.254   1.601   3.810  1.8326  0.8936 -1.7535
 1434SOL     OW 5200   6.830   3.380   1.137 -0.4307  0.5903 -0.5160
 1434SOL    HW1 5201   6.852   3.468   1.096  1.4491 -0.2256 -1.3728
 1434SOL    HW2 5202   6.911   3.321   1.135 -2.2997 -2.2205 -2.7207
 1435SOL     OW 5203   6.373   5.212   4.866 -0.1468  0.8392  0.3197
 1435SOL    HW1 5204   6.355   5.172   4.776 -0.9005  0.7755  0.4927
 1435SOL    HW2 5205   6.292   5.202   4.924 -0.1278  2.0209  0.5862
 1436SOL     OW 5206   6.353   1.129   6.541 -0.1122  0.7876 -0.8513
 1436SOL    HW1 5207   6.320   1.217   6.575 -1.5958  0.0749 -0.3668
 1436SOL    HW2 5208   6.430   1.099   6.598 -1.5304  0.3822  0.9679
 1437SOL     OW 5209   5.051   0.903   0.787 -0.1092  0.0403  0.1758
 1437SOL    HW1 5210   5.089   0.941   0.871 -0.5440  0.1218  0.3404
 1437SOL    HW2 5211   5.044   0.975   0.718 -1.1614  0.3457  0.5662
 1438SOL     OW 5212   3.583   0.162   1.776  0.4522 -0.0740  0.2822
 1438SOL    HW1 5213   3.576   0.095   1.850 -1.4425 -0.0019  0.2391
 1438SOL    HW2 5214   3.499   0.159   1.721  1.5512  0.2965 -1.5165
 1439SOL     OW 5215   6.897   6.544   3.372 -0.2868  0.1208 -0.7020
 1439SOL    HW1 5216   6.851   6.457   3.352 -2.5163  1.1330 -0.2373
 1439SOL    HW2 5217   6.900   6.559   3.471  1.1436  0.0766 -0.7112
 1440SOL     OW 5218   3.979   3.853   2.264 -0.2907  0.2552 -1.0852
 1440SOL    HW1 5219   3.930   3.862   2.351  0.0503 -0.4858 -0.8071
 1440SOL    HW2 5220   4.075   3.880   2.277 -0.4060  0.8479 -1.4145
 1441SOL     OW 5221   6.140   3.498   0.703  0.1962  0.0167  0.1259
 1441SOL    HW1 5222   6.191   3.516   0.619  1.1949 -1.9930  0.2259
 1441SOL    HW2 5223   6.050   3.541   0.698  1.6811  3.3489 -0.2168
 1442SOL     OW 5224   5.638   4.585   6.699 -0.7215 -0.0625 -1.1114
 1442SOL    HW1 5225   5.574   4.545   6.764  0.4282  1.8214  1.3248
 1442SOL    HW2 5226   5.607   4.676   6.673  1.5200  1.4843  1.2179
 1443SOL     OW 5227   2.177   4.656   5.567 -0.3357 -0.1968  0.5285
 1443SOL    HW1 5228   2.206   4.746   5.534 -0.7544  0.6596  2.3964
 1443SOL    HW2 5229   2.258   4.601   5.589 -0.0723 -0.4089 -0.8688
 1444SOL     OW 5230   5.623   0.231   5.307 -0.2983 -0.0084  0.3132
 1444SOL    HW1 5231   5.666   0.175   5.236 -0.1613  1.7699 -1.0662
 1444SOL    HW2 5232   5.564   0.173   5.363  1.3233 -1.8732  0.1751
 1445SOL     OW 5233   0.191   1.550   6.983 -0.7103  0.2624 -0.0591
 1445SOL    HW1 5234   0.228   1.460   7.003  1.5087  1.6284  2.7243
 1445SOL    HW2 5235   0.258   1.604   6.932 -1.8060  0.5314 -1.2581
 1446SOL     OW 5236   2.553   5.145   3.884 -0.0534  0.2593  0.2977
 1446SOL    HW1 5237   2.469   5.109   3.924 -0.4862  1.1665  0.2235
 1446SOL    HW2 5238   2.631   5.092   3.917 -0.2277  1.7131  3.3360
 1447SOL     OW 5239   6.215   2.170   5.997 -0.0792  0.4404 -0.2880
 1447SOL    HW1 5240   6.266   2.196   5.915 -0.7547 -0.7036 -1.1108
 1447SOL    HW2 5241   6.120   2.150   5.973 -0.7110  1.5994  1.0594
 1448SOL     OW 5242   5.443   1.547   0.897 -0.2609  0.0942 -0.6781
 1448SOL    HW1 5243   5.399   1.631   0.928 -0.6259  0.0648 -1.0943
 1448SOL    HW2 5244   5.382   1.470   0.912  1.0687 -0.5390  2.1415
 1449SOL     OW 5245   4.904   4.661   1.229  0.0819  0.1842  0.5923
 1449SOL    HW1 5246   4.972   4.661   1.302 -0.0872  0.5706  0.7568
 1449SOL    HW2 5247   4.944   4.627   1.145  1.0671  2.2783  0.1430
 1450SOL     OW 5248   5.082   2.367   4.157 -0.7160  0.3611 -0.3654
 1450SOL    HW1 5249   5.064   2.269   4.162  1.3694 -0.0472 -0.0535
 1450SOL    HW2 5250   5.007   2.417   4.200 -1.5298 -1.1122 -0.0108
 1451SOL     OW 5251   6.837   0.086   2.602  0.2280  0.1535 -0.2638
 1451SOL    HW1 5252   6.855   0.106   2.698  0.0827  0.4064 -0.2889
 1451SOL    HW2 5253   6.785   0.001   2.595  0.4201  0.0240 -0.1312
 1452SOL     OW 5254   1.552   1.702   5.637  0.3102  0.1498  0.1934
 1452SOL    HW1 5255   1.581   1.630   5.701 -0.6804 -0.1282  0.3573
 1452SOL    HW2 5256   1.608   1.783   5.650  0.5286 -0.1167  0.9964
 1453SOL     OW 5257   6.009   5.138   4.205  0.2023 -0.0780 -0.0481
 1453SOL    HW1 5258   5.934   5.175   4.150 -0.9317 -1.8110  0.2548
 1453SOL    HW2 5259   5.984   5.141   4.301  0.0173 -1.6427 -0.0150
 1454SOL     OW 5260   6.033   0.237   1.442 -0.1346  0.0890 -0.6223
 1454SOL    HW1 5261   6.042   0.248   1.343 -1.4668 -0.1434 -0.7894
 1454SOL    HW2 5262   5.980   0.154   1.462  0.1758  0.0983  0.2819
 1455SOL     OW 5263   0.645   2.643   2.269 -0.5592  0.3062 -0.3708
 1455SOL    HW1 5264   0.694   2.711   2.214  0.1947 -0.3160 -0.4829
 1455SOL    HW2 5265   0.640   2.675   2.364  0.2739  0.2752 -0.3091
 1456SOL     OW 5266   6.318   5.156   3.192  0.2074 -0.2817  0.0130
 1456SOL    HW1 5267   6.403   5.103   3.193 -0.0150 -0.6390 -0.0353
 1456SOL    HW2 5268   6.311   5.210   3.276  0.9355  0.4781 -0.3891
 1457SOL     OW 5269   3.827   1.214   5.210  0.4027  0.2366  0.4542
 1457SOL    HW1 5270   3.735   1.229   5.175  1.6075  0.5152 -2.9089
 1457SOL    HW2 5271   3.831   1.124   5.254 -1.1547 -0.3634 -0.5317
 1458SOL     OW 5272   6.817   3.710   0.791  0.2430 -0.4056 -0.5640
 1458SOL    HW1 5273   6.856   3.786   0.740  3.7975 -2.2711 -0.9886
 1458SOL    HW2 5274   6.791   3.637   0.728 -1.8561 -0.1326 -0.0790
 1459SOL     OW 5275   5.235   6.288   2.325  0.4686  0.1119 -0.3553
 1459SOL    HW1 5276   5.209   6.367   2.381 -0.5308 -0.8018  0.4972
 1459SOL    HW2 5277   5.320   6.249   2.361 -0.1960 -0.5024  0.5816
 1460SOL     OW 5278   0.628   1.288   6.715 -0.0831  0.5881 -0.1481
 1460SOL    HW1 5279   0.693   1.223   6.677 -0.0069 -0.6408  1.9603
 1460SOL    HW2 5280   0.535   1.256   6.698 -0.0450 -0.5648  1.5554
 1461SOL     OW 5281   4.967   2.829   0.438 -0.4361 -0.7841  0.6200
 1461SOL    HW1 5282   4.986   2.922   0.469  2.3133 -1.4384  1.0963
 1461SOL    HW2 5283   4.971   2.826   0.338  1.9673 -0.8110  0.6724
 1462SOL     OW 5284   4.390   7.012   3.938  0.5046 -0.2942  0.0581
 1462SOL    HW1 5285   4.325   6.964   3.997 -0.1406 -2.1167 -2.0250
 1462SOL    HW2 5286   4.413   7.100   3.979 -0.2354 -1.2625  2.7857
 1463SOL     OW 5287   6.257   1.012   6.048  0.4088 -0.0932 -0.1320
 1463SOL    HW1 5288   6.159   1.008   6.029  0.6022  1.9753 -1.9257
 1463SOL    HW2 5289   6.296   0.920   6.041 -1.5877 -1.2341  2.1741
 1464SOL     OW 5290   5.986   6.959   1.299  0.2542  0.0787 -0.2304
 1464SOL    HW1 5291   5.927   7.023   1.250  1.3241  0.4186 -1.1111
 1464SOL    HW2 5292   6.000   6.878   1.243  1.7103  0.5855 -0.6389
 1465SOL     OW 5293   3.171   1.689   3.702  0.1121 -0.5549  0.0212
 1465SOL    HW1 5294   3.167   1.767   3.640  1.5361 -0.9987 -0.6639
 1465SOL    HW2 5295   3.246   1.629   3.676  0.2900 -1.1457  1.7474
 1466SOL     OW 5296   0.080   5.859   6.130  0.0604 -0.1590  0.0737
 1466SOL    HW1 5297   0.024   5.804   6.192 -1.2175  1.1619  0.1590
 1466SOL    HW2 5298   0.099   5.808   6.047 -0.5456 -0.9519  0.4141
 1467SOL     OW 5299   6.913   4.110   4.938 -0.0797  0.3579  0.2289
 1467SOL    HW1 5300   6.837   4.046   4.953 -1.2425  1.6432 -0.0469
 1467SOL    HW2 5301   6.999   4.064   4.961 -0.7583 -1.6604 -0.9320
 1468SOL     OW 5302   3.763   5.761   2.414 -1.0061  0.1519 -0.1340
 1468SOL    HW1 5303   3.862   5.754   2.407 -0.8298 -1.1775  2.4503
 1468SOL    HW2 5304   3.721   5.678   2.375 -1.1106  0.5445 -0.8816
 1469SOL     OW 5305   5.950   6.971   1.572 -0.2498  0.8053  0.0067
 1469SOL    HW1 5306   5.956   6.958   1.473 -0.4632  0.9986 -0.0314
 1469SOL    HW2 5307   5.858   6.949   1.603  0.3595 -1.2739  0.4661
 1470SOL     OW 5308   2.407   0.895   2.994  0.0857 -0.0111 -0.0794
 1470SOL    HW1 5309   2.495   0.854   2.972  0.7014  0.9487  0.5396
 1470SOL    HW2 5310   2.403   0.989   2.959 -1.1335 -0.4013 -1.0835
 1471SOL     OW 5311   6.656   0.909   0.934  0.6921 -0.0689 -0.3174
 1471SOL    HW1 5312   6.721   0.858   0.990  2.8519  3.3624  0.6349
 1471SOL    HW2 5313   6.700   0.937   0.849  0.2031  1.4252 -0.1236
 1472SOL     OW 5314   4.688   5.060   4.749  0.3256 -0.1531  0.0192
 1472SOL    HW1 5315   4.664   5.113   4.667  0.5008 -1.4527 -0.8934
 1472SOL    HW2 5316   4.672   4.963   4.732 -0.7948 -0.3605  1.9522
 1473SOL     OW 5317   6.451   2.241   4.500 -0.2055  0.4353 -0.0014
 1473SOL    HW1 5318   6.513   2.239   4.423 -0.5919 -1.1140 -0.3083
 1473SOL    HW2 5319   6.369   2.294   4.476  0.5570  1.7060  0.0949
 1474SOL     OW 5320   0.012   6.001   1.476  1.2162 -0.1330  0.4621
 1474SOL    HW1 5321   0.105   6.010   1.440  0.8559 -0.0711 -0.4863
 1474SOL    HW2 5322  -0.012   6.084   1.526  1.0169  0.6608 -0.8937
 1475SOL     OW 5323   4.512   6.542   4.234 -0.2273 -0.3731  0.1544
 1475SOL    HW1 5324   4.529   6.451   4.197 -0.5396 -1.5287  2.6547
 1475SOL    HW2 5325   4.435   6.538   4.298  1.0362  1.1860  1.8683
 1476SOL     OW 5326   0.115   3.033   6.778  0.7914  0.0809 -0.2941
 1476SOL    HW1 5327   0.175   2.962   6.815  0.7966 -0.2151 -0.8715
 1476SOL    HW2 5328   0.120   3.114   6.837  1.4407 -0.0878 -0.1068
 1477SOL     OW 5329   2.096   6.757   5.412 -0.7401 -0.1718  0.0964
 1477SOL    HW1 5330   2.109   6.758   5.512  2.4153 -0.2940 -0.2032
 1477SOL    HW2 5331   2.129   6.670   5.376 -1.6469 -0.0391 -1.1122
 1478SOL     OW 5332   5.292   4.729   6.359  0.4148  0.2133 -0.5650
 1478SOL    HW1 5333   5.368   4.788   6.386  0.5960 -0.7235  1.1147
 1478SOL    HW2 5334   5.306   4.637   6.396 -1.6606  0.0811  0.0252
 1479SOL     OW 5335   3.175   6.031   5.697  0.3258  0.4553  0.5025
 1479SOL    HW1 5336   3.142   5.949   5.745  2.3951 -0.0312  1.2074
 1479SOL    HW2 5337   3.097   6.080   5.657 -1.0955 -1.1325  1.1910
 1480SOL     OW 5338   3.076   0.528   0.118  0.0142 -0.2132  0.0815
 1480SOL    HW1 5339   3.002   0.468   0.149  0.3787 -0.5052  0.4102
 1480SOL    HW2 5340   3.082   0.525   0.018 -1.9462  1.6720 -0.1570
 1481SOL     OW 5341   5.990   3.306   6.379 -0.7780 -0.4303 -0.0405
 1481SOL    HW1 5342   5.973   3.337   6.472 -0.0723  1.5749 -0.5315
 1481SOL    HW2 5343   5.905   3.307   6.327 -0.3857  4.7104 -1.0990
 1482SOL     OW 5344   6.909   6.068   3.916  0.1262 -0.2976  0.1062
 1482SOL    HW1 5345   6.992   6.027   3.954  0.8697 -0.7502 -1.8662
 1482SOL    HW2 5346   6.834   6.002   3.922  0.4995 -0.7593 -0.1288
 1483SOL     OW 5347   2.664   2.260   6.565 -0.2311  0.2796  0.3569
 1483SOL    HW1 5348   2.572   2.251   6.525  0.1529  1.6176 -0.8954
 1483SOL    HW2 5349   2.662   2.326   6.639 -0.4173 -0.2371  0.8165
 1484SOL     OW 5350   4.848   0.117   2.218  0.4301 -0.5304 -0.1623
 1484SOL    HW1 5351   4.773   0.103   2.282  1.6571  0.2473  1.5146
 1484SOL    HW2 5352   4.898   0.200   2.242  2.5006 -1.6091 -0.5058
 1485SOL     OW 5353   5.001   3.564   4.817 -0.2359  0.0094 -0.4535
 1485SOL    HW1 5354   5.061   3.613   4.881 -0.8483  0.5173 -0.2513
 1485SOL    HW2 5355   4.908   3.564   4.853 -0.1489 -1.8549 -0.1647
 1486SOL     OW 5356   0.597   3.586   1.327  0.5549 -0.5595  0.0763
 1486SOL    HW1 5357   0.540   3.533   1.264 -0.5018  0.5208  0.0756
 1486SOL    HW2 5358   0.635   3.664   1.279 -0.5732  0.4906  0.8294
 1487SOL     OW 5359   1.283   5.530   4.351 -0.4707 -0.2253  0.1227
 1487SOL    HW1 5360   1.273   5.457   4.418 -2.2146 -0.0944  0.0511
 1487SOL    HW2 5361   1.350   5.504   4.281  2.2354  0.0801  2.4434
 1488SOL     OW 5362   4.979   2.107   3.797  0.3466 -0.1821 -0.3499
 1488SOL    HW1 5363   5.003   2.084   3.703  1.0672  2.9958 -1.0942
 1488SOL    HW2 5364   4.996   2.029   3.857  0.0557 -2.2329 -2.7849
 1489SOL     OW 5365   3.186   5.656   4.330  0.3224  0.1760 -0.2019
 1489SOL    HW1 5366   3.112   5.719   4.353  2.3018  2.2437  0.8684
 1489SOL    HW2 5367   3.206   5.661   4.232  0.1856  0.9175 -0.1934
 1490SOL     OW 5368   4.121   2.317   1.142  0.0514 -0.1451  0.6454
 1490SOL    HW1 5369   4.197   2.381   1.157 -0.8753  1.3731 -0.8474
 1490SOL    HW2 5370   4.078   2.336   1.054 -0.9239 -2.1923  0.6175
 1491SOL     OW 5371   3.090   2.167   4.347 -0.0632 -0.5626 -0.6309
 1491SOL    HW1 5372   3.080   2.068   4.339  0.7827 -0.6589 -0.6280
 1491SOL    HW2 5373   3.119   2.191   4.440 -0.6088 -0.2721 -0.5256
 1492SOL     OW 5374   5.597   3.108   1.220  0.0124  0.3152 -0.0997
 1492SOL    HW1 5375   5.525   3.137   1.158  1.0438  0.4080 -1.3038
 1492SOL    HW2 5376   5.613   3.010   1.209 -0.5129  0.1224  0.7987
 1493SOL     OW 5377   5.644   3.128   6.395  0.1181 -0.4874  0.0064
 1493SOL    HW1 5378   5.673   3.177   6.477 -0.3837  0.6244 -0.4610
 1493SOL    HW2 5379   5.547   3.145   6.379  0.5423  0.6496 -1.6930
 1494SOL     OW 5380   5.567   1.168   4.548  0.5388 -0.4087 -0.3069
 1494SOL    HW1 5381   5.666   1.155   4.554  0.4495 -1.3302 -0.6398
 1494SOL    HW2 5382   5.520   1.084   4.576 -0.1343 -0.2551 -0.9238
 1495SOL     OW 5383   6.896   3.474   2.361 -0.5685 -0.5984 -0.7889
 1495SOL    HW1 5384   6.976   3.474   2.420  0.3451  0.9318 -1.9209
 1495SOL    HW2 5385   6.820   3.519   2.408  0.3840  1.3382 -1.0026
 1496SOL     OW 5386   0.051   6.249   2.754 -0.2625  0.6715  0.8497
 1496SOL    HW1 5387   0.063   6.266   2.852 -0.6554  1.9117  0.7070
 1496SOL    HW2 5388  -0.005   6.322   2.714 -1.6604 -0.7902  0.0341
 1497SOL     OW 5389   6.208   4.037   4.573 -0.0996 -0.2658 -0.4400
 1497SOL    HW1 5390   6.159   4.105   4.518  2.2522  1.2313 -0.8316
 1497SOL    HW2 5391   6.255   4.083   4.649  1.4958 -1.4229 -0.6658
 1498SOL     OW 5392   3.479   0.980   6.343  0.2332  0.1971  0.7862
 1498SOL    HW1 5393   3.416   1.021   6.409  0.5182 -1.1936  1.9776
 1498SOL    HW2 5394   3.553   1.044   6.323 -0.4633  1.0694  0.9406
 1499SOL     OW 5395   2.013   3.901   5.426  0.2731 -0.1966  0.1510
 1499SOL    HW1 5396   2.057   3.842   5.493  0.0011 -1.4819 -0.7767
 1499SOL    HW2 5397   2.083   3.952   5.375  0.4792  0.9231  1.4688
 1500SOL     OW 5398   4.850   0.339   4.290 -0.5668  0.3340  0.0192
 1500SOL    HW1 5399   4.836   0.427   4.243  0.4550 -0.7814 -2.5524
 1500SOL    HW2 5400   4.933   0.344   4.344 -1.1405  1.2819  0.8655
 1501SOL     OW 5401   4.029   0.592   2.803 -0.3625 -0.1598  0.6578
 1501SOL    HW1 5402   4.048   0.536   2.883  1.0429  0.2299  0.6170
 1501SOL    HW2 5403   3.959   0.547   2.747 -0.6964 -0.8809  1.6236
 1502SOL     OW 5404   0.840   0.317   5.325 -0.1851 -0.4588 -0.5951
 1502SOL    HW1 5405   0.899   0.382   5.372  1.8293 -1.9690 -0.9199
 1502SOL    HW2 5406   0.794   0.363   5.248  0.0208  0.9099  0.0792
 1503SOL     OW 5407   5.022   3.007   6.585  0.9134 -0.4015 -0.0173
 1503SOL    HW1 5408   5.000   2.922   6.537  0.1873  0.4772 -1.2893
 1503SOL    HW2 5409   4.938   3.057   6.606  1.3363  0.0637  0.6103
 1504SOL     OW 5410   2.701   6.998   3.577 -0.2828  0.4661  0.1644
 1504SOL    HW1 5411   2.767   7.067   3.551 -0.4613  0.8718  0.7743
 1504SOL    HW2 5412   2.613   7.018   3.534 -0.6970  1.3846  1.3949
 1505SOL     OW 5413   4.124   6.011   2.213  0.4147  0.2611  0.0433
 1505SOL    HW1 5414   4.039   6.059   2.195 -0.8332 -1.7855  0.1896
 1505SOL    HW2 5415   4.150   6.022   2.308 -0.1950  0.1630  0.2253
 1506SOL     OW 5416   5.317   0.620   3.527 -0.0890 -0.0199 -0.1362
 1506SOL    HW1 5417   5.286   0.715   3.518  0.8317  0.4270  1.1049
 1506SOL    HW2 5418   5.243   0.563   3.561 -1.0623 -0.0580 -2.1588
 1507SOL     OW 5419   1.317   1.988   6.145  0.1806  0.4848  0.1332
 1507SOL    HW1 5420   1.220   1.995   6.120  0.0631  0.0115  0.4467
 1507SOL    HW2 5421   1.364   1.930   6.079  0.1026  0.1412  0.3783
 1508SOL     OW 5422   5.076   6.820   0.618 -0.4145  0.3589  0.0095
 1508SOL    HW1 5423   5.084   6.853   0.525  2.4210  1.2835  0.4992
 1508SOL    HW2 5424   5.165   6.825   0.664 -1.8414  0.6491  3.0126
 1509SOL     OW 5425   4.834   2.550   4.470 -0.2389  0.0986 -0.4726
 1509SOL    HW1 5426   4.877   2.627   4.518 -0.3383  0.5621 -1.1077
 1509SOL    HW2 5427   4.741   2.537   4.503  0.4780 -1.1427  1.1711
 1510SOL     OW 5428   1.186   2.864   2.651 -0.2380  0.1038  0.1493
 1510SOL    HW1 5429   1.223   2.930   2.585 -0.1583  0.0785  0.1691
 1510SOL    HW2 5430   1.211   2.892   2.744  0.1133 -0.1564  0.1354
 1511SOL     OW 5431   0.549   3.048   6.467  0.2667 -0.0685  0.4567
 1511SOL    HW1 5432   0.580   3.031   6.373  0.6544 -2.0756  0.9061
 1511SOL    HW2 5433   0.586   3.136   6.498  0.5126  0.4186 -1.0985
 1512SOL     OW 5434   1.479   1.308   4.837  0.3283  0.3326 -0.2593
 1512SOL    HW1 5435   1.402   1.271   4.890  2.4523 -1.3398  1.8673
 1512SOL    HW2 5436   1.444   1.372   4.769 -2.9426 -0.4675  0.4726
 1513SOL     OW 5437   1.158   0.749   2.214  0.9805 -0.1798  0.0429
 1513SOL    HW1 5438   1.237   0.695   2.245  0.7109 -0.4195  0.3146
 1513SOL    HW2 5439   1.124   0.711   2.128  0.8619 -0.3776  0.1755
 1514SOL     OW 5440   3.684   0.414   5.702  0.1303 -0.1194 -0.5759
 1514SOL    HW1 5441   3.740   0.412   5.785  2.1200 -0.1097 -1.8754
 1514SOL    HW2 5442   3.736   0.380   5.625 -0.7234  2.3467 -2.3811
 1515SOL     OW 5443   4.562   0.095   5.138  0.3698 -0.0106 -1.0481
 1515SOL    HW1 5444   4.594   0.169   5.197 -1.2153  0.8562 -1.2155
 1515SOL    HW2 5445   4.547   0.130   5.046 -0.7368 -0.4254 -1.0439
 1516SOL     OW 5446   0.269   2.915   4.069  0.4851  0.7607 -0.1908
 1516SOL    HW1 5447   0.307   2.859   4.142 -0.2766  1.2158  0.5759
 1516SOL    HW2 5448   0.311   3.006   4.072  1.1980  0.4738 -0.9811
 1517SOL     OW 5449   4.299   5.464   3.437 -0.2717  0.1209 -0.0281
 1517SOL    HW1 5450   4.249   5.387   3.477  0.2629 -0.4307 -0.4086
 1517SOL    HW2 5451   4.266   5.482   3.345  0.0416 -0.0598 -0.1748
 1518SOL     OW 5452   0.249   2.854   6.226 -0.5532 -0.0722  0.4054
 1518SOL    HW1 5453   0.265   2.949   6.251  0.7480 -0.5764  1.6369
 1518SOL    HW2 5454   0.153   2.832   6.240 -0.8183  0.9964  0.3377
 1519SOL     OW 5455   1.423   4.507   1.254 -0.2527 -0.2599  0.1529
 1519SOL    HW1 5456   1.514   4.548   1.254  0.1040 -1.0196 -0.6913
 1519SOL    HW2 5457   1.430   4.410   1.232 -1.3910  0.0007 -1.6072
 1520SOL     OW 5458   0.903   5.452   3.628  0.6813  0.6246 -0.2498
 1520SOL    HW1 5459   0.988   5.422   3.672  0.1516 -1.0827 -0.3092
 1520SOL    HW2 5460   0.880   5.388   3.555 -1.8567 -0.3210  1.2687
 1521SOL     OW 5461   0.767   4.079   6.842 -0.6275 -0.6782 -0.7894
 1521SOL    HW1 5462   0.729   4.151   6.785 -0.1469  0.1109 -0.1327
 1521SOL    HW2 5463   0.775   4.112   6.936 -2.0903 -2.1914 -0.0907
 1522SOL     OW 5464   0.243   2.870   4.787 -0.2063 -0.0669 -0.1833
 1522SOL    HW1 5465   0.302   2.947   4.765  2.9916 -1.7893  1.6922
 1522SOL    HW2 5466   0.255   2.843   4.882 -2.1429 -2.1401 -0.4163
 1523SOL     OW 5467   2.842   1.296   6.529 -0.1300 -0.0560  0.3041
 1523SOL    HW1 5468   2.811   1.369   6.468  0.0898  1.0447  1.4650
 1523SOL    HW2 5469   2.865   1.215   6.475 -2.2180  0.0561 -0.8398
 1524SOL     OW 5470   2.778   0.428   2.829 -0.7020 -0.5748  0.1994
 1524SOL    HW1 5471   2.777   0.459   2.734  0.7943 -4.1387 -1.1630
 1524SOL    HW2 5472   2.846   0.355   2.840 -1.8494 -1.3225  3.6701
 1525SOL     OW 5473   4.822   0.227   6.895 -0.5984  0.0617  0.2939
 1525SOL    HW1 5474   4.751   0.287   6.930 -0.2087  0.8822 -0.2842
 1525SOL    HW2 5475   4.845   0.253   6.801 -0.9765 -1.4929 -0.2600
 1526SOL     OW 5476   4.963   2.782   1.520 -0.1780 -0.1305  0.2384
 1526SOL    HW1 5477   4.941   2.753   1.613 -2.1945 -0.5881 -0.3258
 1526SOL    HW2 5478   5.010   2.708   1.471  1.3103  0.2793  0.9990
 1527SOL     OW 5479   2.099   2.237   5.247  0.1800 -0.6846 -0.9207
 1527SOL    HW1 5480   2.026   2.177   5.277 -0.3256 -0.0676 -0.9009
 1527SOL    HW2 5481   2.089   2.327   5.290  1.4743 -0.8599 -0.1930
 1528SOL     OW 5482   6.506   5.504   4.516  0.5871  0.2325  0.5939
 1528SOL    HW1 5483   6.543   5.411   4.511 -0.7170 -0.2981  0.2753
 1528SOL    HW2 5484   6.491   5.529   4.612  0.3412 -0.1458  0.6578
 1529SOL     OW 5485   0.430   5.467   6.243 -0.7120 -0.2063 -0.4955
 1529SOL    HW1 5486   0.453   5.512   6.157  1.3714  0.8680  0.5555
 1529SOL    HW2 5487   0.332   5.480   6.262 -1.8889 -2.6707 -3.8493
 1530SOL     OW 5488   3.564   6.546   0.976 -0.0232 -0.0583  0.4575
 1530SOL    HW1 5489   3.585   6.593   0.890  0.6137 -1.5509 -0.2566
 1530SOL    HW2 5490   3.599   6.599   1.053 -1.2491  1.6751 -0.1175
 1531SOL     OW 5491   4.591   2.789   6.729  0.2617 -0.1355 -0.8751
 1531SOL    HW1 5492   4.636   2.719   6.673  1.1103 -0.3828  0.0727
 1531SOL    HW2 5493   4.503   2.814   6.689 -0.2097 -1.9868 -1.0562
 1532SOL     OW 5494   3.207   1.600   4.379  0.4245  0.0190  0.0255
 1532SOL    HW1 5495   3.260   1.652   4.311 -0.8367  0.9723 -0.2633
 1532SOL    HW2 5496   3.154   1.529   4.333  0.4338 -0.0738  0.1563
 1533SOL     OW 5497   3.640   2.581   1.733  0.4581  0.3141 -0.2646
 1533SOL    HW1 5498   3.642   2.501   1.792  1.6736  0.6863  0.2259
 1533SOL    HW2 5499   3.725   2.585   1.680 -0.3986  0.2418 -1.7217
 1534SOL     OW 5500   6.564   0.208   0.444  0.2786 -0.2878  0.1141
 1534SOL    HW1 5501   6.469   0.194   0.415  0.4874 -1.2993 -0.1113
 1534SOL    HW2 5502   6.581   0.306   0.457 -0.7948 -0.1016  0.1645
 1535SOL     OW 5503   5.628   5.577   4.708 -0.1067 -0.4270  0.9821
 1535SOL    HW1 5504   5.705   5.535   4.757  0.5881 -0.2424  0.0693
 1535SOL    HW2 5505   5.565   5.505   4.678  1.4525 -0.9722 -1.2160
 1536SOL     OW 5506   1.454   6.415   4.004  0.0312  0.4125  0.1302
 1536SOL    HW1 5507   1.443   6.358   4.085  0.3286  2.5971  1.8287
 1536SOL    HW2 5508   1.549   6.415   3.975 -0.2386 -1.1125 -0.8533
 1537SOL     OW 5509   0.099   4.145   6.163  0.0621 -0.1751  0.0315
 1537SOL    HW1 5510   0.119   4.127   6.259 -0.5679 -0.3441  0.1314
 1537SOL    HW2 5511   0.117   4.062   6.110 -0.3405 -0.3214  0.1190
 1538SOL     OW 5512   3.023   6.950   0.671 -0.1977  0.1731  0.1925
 1538SOL    HW1 5513   3.023   6.996   0.760  0.4708 -0.1549  0.3675
 1538SOL    HW2 5514   3.069   6.861   0.679 -1.5699 -0.5886 -0.1090
 1539SOL     OW 5515   2.334   6.449   1.985 -0.0235  0.1569  0.6400
 1539SOL    HW1 5516   2.383   6.368   2.018  1.4568  0.9285  0.4234
 1539SOL    HW2 5517   2.283   6.425   1.902  1.5766 -0.2367 -0.2666
 1540SOL     OW 5518   5.187   2.376   6.182  0.1093 -0.0628  0.2939
 1540SOL    HW1 5519   5.255   2.304   6.167  1.2815  0.9181  0.8374
 1540SOL    HW2 5520   5.120   2.344   6.249  1.3797 -0.1752  1.5536
 1541SOL     OW 5521   2.225   2.281   0.637 -0.1925 -0.1545 -0.0825
 1541SOL    HW1 5522   2.290   2.263   0.563 -0.9837  0.5002 -0.9570
 1541SOL    HW2 5523   2.260   2.354   0.696 -1.1331  1.9020 -1.9246
 1542SOL     OW 5524   1.393   6.637   1.212 -0.0237 -0.2044  0.0320
 1542SOL    HW1 5525   1.362   6.703   1.143  2.0706  0.2250 -0.5846
 1542SOL    HW2 5526   1.344   6.653   1.297 -0.1180  1.6745 -0.3279
 1543SOL     OW 5527   3.585   4.154   2.944 -0.4073  0.4331 -0.0836
 1543SOL    HW1 5528   3.564   4.170   2.848 -0.7836  2.2510  0.2726
 1543SOL    HW2 5529   3.684   4.142   2.955 -0.2397  1.3131 -0.5673
 1544SOL     OW 5530   3.849   3.930   1.731  0.3866  0.1469  0.2323
 1544SOL    HW1 5531   3.769   3.970   1.687  0.9797 -1.1751 -2.2746
 1544SOL    HW2 5532   3.835   3.925   1.830 -2.9444 -0.7485 -0.1825
 1545SOL     OW 5533   0.539   0.236   5.905  0.1224 -0.3812  0.2210
 1545SOL    HW1 5534   0.513   0.332   5.912  0.1949 -0.3367 -0.1355
 1545SOL    HW2 5535   0.464   0.184   5.864 -0.0718 -0.5482  0.7685
 1546SOL     OW 5536   0.009   3.530   1.309 -0.3548  0.1920 -1.2668
 1546SOL    HW1 5537  -0.028   3.530   1.216 -0.2905  2.1385 -1.3300
 1546SOL    HW2 5538   0.085   3.594   1.315 -0.3212  0.0599  0.1251
 1547SOL     OW 5539   3.194   6.913   0.419 -0.3466  0.0669  0.3271
 1547SOL    HW1 5540   3.189   6.814   0.412 -0.0586  0.1367 -1.0063
 1547SOL    HW2 5541   3.107   6.949   0.453 -0.8479 -0.5539 -0.2815
 1548SOL     OW 5542   6.892   3.684   4.611 -0.1172 -0.0898 -0.2675
 1548SOL    HW1 5543   6.898   3.768   4.557  1.7218  0.8554  1.2938
 1548SOL    HW2 5544   6.821   3.696   4.682  1.2901  0.8778  1.0443
 1549SOL     OW 5545   5.477   2.516   2.213 -0.0755 -0.1876  0.2016
 1549SOL    HW1 5546   5.378   2.518   2.194 -0.0943  0.7055  0.3446
 1549SOL    HW2 5547   5.499   2.588   2.279  0.2217 -2.1630  2.4065
 1550SOL     OW 5548   1.396   3.853   2.201  0.0765  0.6073 -0.1190
 1550SOL    HW1 5549   1.325   3.924   2.198 -1.1425 -0.5087  0.8098
 1550SOL    HW2 5550   1.481   3.892   2.235 -0.4174  1.7447 -0.1377
 1551SOL     OW 5551   3.134   2.339   1.742 -1.0239 -0.2518 -0.6843
 1551SOL    HW1 5552   3.127   2.241   1.756 -0.9537 -0.2608 -0.7096
 1551SOL    HW2 5553   3.057   2.385   1.787 -0.3110 -0.2013  0.5410
 1552SOL     OW 5554   2.369   6.004   1.027  0.0539  0.5460  0.4673
 1552SOL    HW1 5555   2.383   6.100   1.002 -2.9807  0.6830 -1.1979
 1552SOL    HW2 5556   2.295   5.997   1.093  1.6953 -0.5889  2.3031
 1553SOL     OW 5557   4.540   1.898   4.347 -0.1331 -0.2325  0.0211
 1553SOL    HW1 5558   4.507   1.888   4.254 -0.9352 -1.6833  0.4307
 1553SOL    HW2 5559   4.639   1.912   4.346 -0.0594 -0.7257 -1.0293
 1554SOL     OW 5560   1.272   2.814   6.462 -0.0348  0.0206  0.0627
 1554SOL    HW1 5561   1.316   2.731   6.496  2.9316  1.7703  0.8323
 1554SOL    HW2 5562   1.234   2.797   6.371 -2.4380 -2.9877  1.4423
 1555SOL     OW 5563   3.489   0.836   1.240  0.4950  0.3325  0.2977
 1555SOL    HW1 5564   3.412   0.898   1.229  0.3060  0.0204 -0.1987
 1555SOL    HW2 5565   3.558   0.878   1.299 -0.5972  0.1096  1.7859
 1556SOL     OW 5566   2.297   4.025   6.924 -0.3039 -0.0023  0.2308
 1556SOL    HW1 5567   2.282   3.926   6.924 -1.4433  0.1011 -1.7213
 1556SOL    HW2 5568   2.213   4.072   6.952  0.3763  0.4260  1.6208
 1557SOL     OW 5569   1.701   1.943   5.703  0.0892 -0.2188 -0.4490
 1557SOL    HW1 5570   1.630   2.012   5.717  0.7084 -0.0191  2.1439
 1557SOL    HW2 5571   1.779   1.961   5.763  0.8163 -2.4391 -0.6046
 1558SOL     OW 5572   5.413   0.800   2.216  0.2169 -0.5522  0.0272
 1558SOL    HW1 5573   5.513   0.798   2.221  0.2866  0.2088 -0.7783
 1558SOL    HW2 5574   5.384   0.785   2.122 -0.2911  2.1818 -0.3239
 1559SOL     OW 5575   2.464   5.230   3.624  0.2846 -0.5620  0.0923
 1559SOL    HW1 5576   2.366   5.244   3.611  0.5854  0.5032 -1.3236
 1559SOL    HW2 5577   2.481   5.188   3.713 -1.3462  0.7205  1.0624
 1560SOL     OW 5578   5.307   5.055   1.092 -0.0648  0.3085 -0.0070
 1560SOL    HW1 5579   5.376   5.065   1.021 -0.7525 -0.8316 -0.8775
 1560SOL    HW2 5580   5.352   5.039   1.180  0.8638 -2.7012 -0.8986
 1561SOL     OW 5581   6.020   0.748   1.565  0.3326  0.2249  0.5927
 1561SOL    HW1 5582   5.968   0.776   1.484  0.6192  1.6683  0.8765
 1561SOL    HW2 5583   5.989   0.657   1.594 -0.3220  0.0142 -0.6602
 1562SOL     OW 5584   4.925   0.264   2.722 -0.1815  0.5397  0.0575
 1562SOL    HW1 5585   4.843   0.233   2.769 -0.7558 -1.9302 -2.3261
 1562SOL    HW2 5586   4.945   0.359   2.748 -2.7916  0.6589  1.9544
 1563SOL     OW 5587   2.171   5.795   4.656  0.1629  0.6615 -0.1768
 1563SOL    HW1 5588   2.264   5.788   4.619  0.0607 -0.9690 -0.1953
 1563SOL    HW2 5589   2.128   5.879   4.623  0.8040  0.2894 -2.0776
 1564SOL     OW 5590   1.233   2.181   2.388 -0.3435 -0.2516  0.1682
 1564SOL    HW1 5591   1.214   2.188   2.290 -0.7746  0.6932  0.3158
 1564SOL    HW2 5592   1.320   2.226   2.409 -0.3069 -0.3557  0.2447
 1565SOL     OW 5593   6.790   2.249   5.609  0.2999 -0.3428  0.0757
 1565SOL    HW1 5594   6.763   2.333   5.656 -0.7168  0.2120 -1.4132
 1565SOL    HW2 5595   6.743   2.171   5.651  1.4460 -0.2562  1.6335
 1566SOL     OW 5596   0.110   2.414   3.505 -1.0538 -0.4677 -0.3041
 1566SOL    HW1 5597   0.180   2.415   3.577 -1.3445 -0.1976 -0.0254
 1566SOL    HW2 5598   0.154   2.421   3.416 -0.5457 -2.4999 -0.2629
 1567SOL     OW 5599   6.067   0.580   2.061  0.6894  0.6721  0.4761
 1567SOL    HW1 5600   6.133   0.618   2.127  1.0095  0.5051  0.2526
 1567SOL    HW2 5601   6.105   0.499   2.019  0.0585  0.1708  0.8525
 1568SOL     OW 5602   3.522   6.171   0.281 -0.3423  0.4403 -0.2116
 1568SOL    HW1 5603   3.601   6.175   0.220  0.2606  1.1181  0.5920
 1568SOL    HW2 5604   3.439   6.157   0.227  0.2376  0.5222 -1.1364
 1569SOL     OW 5605   2.277   2.673   1.287 -0.2564 -0.4080 -0.2323
 1569SOL    HW1 5606   2.276   2.772   1.305 -1.5061 -0.4320 -0.0843
 1569SOL    HW2 5607   2.307   2.625   1.369 -0.3819 -0.1904 -0.0581
 1570SOL     OW 5608   1.347   0.729   6.338 -0.6562 -0.3423 -0.1949
 1570SOL    HW1 5609   1.355   0.696   6.432  0.4886 -0.5994 -0.3611
 1570SOL    HW2 5610   1.402   0.671   6.278 -0.2075  0.6682 -0.7921
 1571SOL     OW 5611   1.196   3.008   4.168 -0.1028 -0.0210  0.2035
 1571SOL    HW1 5612   1.163   2.954   4.091 -0.9473  0.5694  0.1451
 1571SOL    HW2 5613   1.192   3.105   4.146 -0.5912  0.1720  1.0691
 1572SOL     OW 5614   1.861   5.352   2.782  0.0054 -0.3248 -0.4167
 1572SOL    HW1 5615   1.853   5.253   2.774  0.7452 -0.4206 -0.0774
 1572SOL    HW2 5616   1.916   5.388   2.706  0.9954 -0.3646  0.2673
 1573SOL     OW 5617   4.871   0.472   6.177  0.2152 -0.3217 -0.3669
 1573SOL    HW1 5618   4.773   0.478   6.154  0.6929  0.2887 -2.4642
 1573SOL    HW2 5619   4.912   0.562   6.166  1.1616 -0.7286 -0.2001
 1574SOL     OW 5620   6.152   3.228   3.411  0.4203  1.2207 -0.3188
 1574SOL    HW1 5621   6.104   3.237   3.324 -0.1063  0.3688 -0.1355
 1574SOL    HW2 5622   6.111   3.290   3.478 -1.8438 -0.8937  0.4024
 1575SOL     OW 5623   0.622   1.408   0.406 -0.4935  0.4873 -0.0696
 1575SOL    HW1 5624   0.694   1.464   0.365  0.3360 -0.6098 -0.1680
 1575SOL    HW2 5625   0.663   1.349   0.476 -1.5671  0.9502  0.9869
 1576SOL     OW 5626   6.119   5.957   0.485 -0.1923  0.0513  0.6492
 1576SOL    HW1 5627   6.129   6.001   0.574 -1.3447  1.9633 -0.1037
 1576SOL    HW2 5628   6.205   5.962   0.435 -0.0538  0.6864  0.9376
 1577SOL     OW 5629   3.430   5.817   5.470 -0.1942 -0.1590 -0.5861
 1577SOL    HW1 5630   3.354   5.761   5.438 -0.8336  1.0962 -1.3168
 1577SOL    HW2 5631   3.429   5.821   5.570 -0.0779 -1.5099 -0.5161
 1578SOL     OW 5632   1.474   0.387   2.162  0.5208  0.4192 -0.2905
 1578SOL    HW1 5633   1.566   0.392   2.201  0.7418  2.0563 -0.9352
 1578SOL    HW2 5634   1.464   0.303   2.109  1.6471  0.2220 -0.2034
 1579SOL     OW 5635   3.070   6.218   1.661  0.3311 -0.3824  0.1798
 1579SOL    HW1 5636   3.160   6.227   1.706  0.7579  0.7670 -0.8632
 1579SOL    HW2 5637   2.998   6.227   1.730  0.9929 -1.4790  1.0600
 1580SOL     OW 5638   4.235   4.088   5.661  0.4952 -1.2382 -0.0561
 1580SOL    HW1 5639   4.313   4.084   5.724  0.2565  0.6831  0.4185
 1580SOL    HW2 5640   4.262   4.133   5.576 -0.2594  0.2678  0.4563
 1581SOL     OW 5641   5.030   5.638   5.291 -0.5680 -0.3006  0.5076
 1581SOL    HW1 5642   4.945   5.687   5.273 -1.0982 -1.1327  0.6799
 1581SOL    HW2 5643   5.093   5.652   5.215 -0.7658  0.5194  0.4917
 1582SOL     OW 5644   3.240   5.937   4.620 -0.0272 -0.1013 -1.2456
 1582SOL    HW1 5645   3.192   5.911   4.536 -1.0389 -1.0473 -0.4111
 1582SOL    HW2 5646   3.176   5.935   4.697  1.2673 -1.1620 -0.1275
 1583SOL     OW 5647   6.814   4.136   4.516  0.1832  0.5088  0.1962
 1583SOL    HW1 5648   6.741   4.168   4.455 -1.8037 -1.0843  1.6206
 1583SOL    HW2 5649   6.843   4.045   4.488 -1.9202 -0.9661  2.4506
 1584SOL     OW 5650   0.837   3.687   0.968  0.6112  0.4374  0.1314
 1584SOL    HW1 5651   0.818   3.600   1.014  1.2162  0.0701 -0.2957
 1584SOL    HW2 5652   0.869   3.754   1.035  0.5269  0.2132  0.3993
 1585SOL     OW 5653   3.812   0.907   5.107 -0.1750 -0.0932  0.5825
 1585SOL    HW1 5654   3.882   0.839   5.129 -1.0254 -0.4381  2.4893
 1585SOL    HW2 5655   3.849   0.974   5.044  0.6000 -2.4748 -1.6753
 1586SOL     OW 5656   1.907   5.819   2.117  0.1394 -0.0242  0.1077
 1586SOL    HW1 5657   1.912   5.749   2.189 -0.5204 -0.7646 -0.5561
 1586SOL    HW2 5658   1.943   5.906   2.153 -1.4824  0.0166  1.8114
 1587SOL     OW 5659   4.220   1.435   5.707  1.0126  0.2775  0.2421
 1587SOL    HW1 5660   4.193   1.350   5.660 -0.6009  0.8297  0.1034
 1587SOL    HW2 5661   4.275   1.491   5.645 -1.5261  1.2436 -1.2976
 1588SOL     OW 5662   1.057   1.344   3.825  0.9074 -0.0347 -0.4577
 1588SOL    HW1 5663   1.078   1.442   3.829 -1.0992  0.4120  0.4260
 1588SOL    HW2 5664   1.142   1.291   3.836  1.9256  1.5825 -0.1688
 1589SOL     OW 5665   0.500   1.794   4.501  0.6741 -0.4090 -0.2750
 1589SOL    HW1 5666   0.591   1.766   4.472  0.1217 -2.5570 -0.0949
 1589SOL    HW2 5667   0.488   1.774   4.598 -0.4384 -1.4665 -0.6100
 1590SOL     OW 5668   3.170   0.085   2.750 -0.0139  0.1176 -0.0030
 1590SOL    HW1 5669   3.218  -0.001   2.735 -2.4828 -1.3483 -0.0303
 1590SOL    HW2 5670   3.163   0.135   2.664  0.6575 -0.0677 -0.1681
 1591SOL     OW 5671   6.666   4.850   0.658 -0.2709 -0.1351  0.0038
 1591SOL    HW1 5672   6.734   4.777   0.646 -0.9721 -0.7304 -0.4315
 1591SOL    HW2 5673   6.605   4.853   0.579  0.8529  2.1605 -0.8586
 1592SOL     OW 5674   6.514   4.235   6.684  0.3240  0.1773 -0.1616
 1592SOL    HW1 5675   6.581   4.166   6.656 -0.8584 -0.5178 -1.4196
 1592SOL    HW2 5676   6.476   4.279   6.603 -0.0891  1.2001  0.5672
 1593SOL     OW 5677   4.490   4.428   0.509 -0.2582  0.1423  0.2194
 1593SOL    HW1 5678   4.402   4.472   0.493 -0.9150 -0.8210  1.0044
 1593SOL    HW2 5679   4.497   4.347   0.451  0.7789  1.0462 -0.9494
 1594SOL     OW 5680   4.559   0.811   2.067 -0.4667  0.3975 -0.2364
 1594SOL    HW1 5681   4.578   0.818   1.969  0.0777  0.6941 -0.1137
 1594SOL    HW2 5682   4.470   0.768   2.081  0.7314 -2.4812 -0.8147
 1595SOL     OW 5683   2.353   5.538   6.224 -0.6829  0.2083  0.0921
 1595SOL    HW1 5684   2.418   5.609   6.250  2.8690 -2.7777  0.1362
 1595SOL    HW2 5685   2.327   5.485   6.305 -2.9790  1.0594 -0.0026
 1596SOL     OW 5686   4.512   4.829   5.851  0.4673  0.0438  0.3978
 1596SOL    HW1 5687   4.520   4.904   5.916 -0.3468  0.4141  0.0902
 1596SOL    HW2 5688   4.585   4.836   5.783 -1.2438  2.3208 -1.3680
 1597SOL     OW 5689   4.711   2.246   6.578  0.0747  1.0682 -0.2607
 1597SOL    HW1 5690   4.681   2.164   6.626  0.2189  0.1962 -1.6034
 1597SOL    HW2 5691   4.811   2.251   6.581  0.0346  1.5097  0.3214
 1598SOL     OW 5692   1.625   5.405   6.652 -0.9637 -0.0615  0.3657
 1598SOL    HW1 5693   1.672   5.396   6.739 -1.5936 -0.4222  0.6730
 1598SOL    HW2 5694   1.561   5.329   6.640 -1.4379  0.3912 -0.0644
 1599SOL     OW 5695   5.128   4.768   5.135  0.3531  0.3944 -0.5548
 1599SOL    HW1 5696   5.145   4.680   5.090 -0.6861 -0.5953  0.9302
 1599SOL    HW2 5697   5.064   4.756   5.210  2.2688  1.9186  1.4573
 1600SOL     OW 5698   4.195   1.224   3.025 -0.2125 -0.0634  0.4493
 1600SOL    HW1 5699   4.274   1.166   3.045  0.1807  0.2096 -0.2467
 1600SOL    HW2 5700   4.151   1.192   2.941  0.0184  0.6425  0.0479
 1601SOL     OW 5701   4.753   1.164   5.103 -0.0974 -0.4569 -0.1274
 1601SOL    HW1 5702   4.819   1.238   5.087 -0.8024  0.5889  1.5610
 1601SOL    HW2 5703   4.777   1.116   5.187 -1.9747  0.5279  1.0173
 1602SOL     OW 5704   5.548   4.828   1.768 -0.2679  0.3332 -0.4007
 1602SOL    HW1 5705   5.597   4.746   1.739  1.4646  1.2249 -0.1496
 1602SOL    HW2 5706   5.586   4.860   1.855 -0.7210  1.5561 -0.6297
 1603SOL     OW 5707   2.092   4.163   1.911 -0.1662  0.0634 -0.6161
 1603SOL    HW1 5708   2.040   4.093   1.863 -0.0611  0.1123 -0.8038
 1603SOL    HW2 5709   2.180   4.176   1.865  0.1982 -0.3342 -0.0427
 1604SOL     OW 5710   4.591   5.549   6.856 -0.5886  0.2461 -0.2932
 1604SOL    HW1 5711   4.594   5.549   6.956 -2.3728  0.5787 -0.2134
 1604SOL    HW2 5712   4.683   5.567   6.820  0.2101 -0.5310  1.2594
 1605SOL     OW 5713   4.630   5.016   1.448 -0.7448 -0.0926  0.4167
 1605SOL    HW1 5714   4.679   5.042   1.531 -0.8210 -2.1801  1.1945
 1605SOL    HW2 5715   4.679   5.048   1.368  0.2664  0.4673  1.2408
 1606SOL     OW 5716   4.382   5.956   4.190 -0.0096  0.0850  0.0212
 1606SOL    HW1 5717   4.476   5.986   4.206 -0.4145  1.1192  0.5982
 1606SOL    HW2 5718   4.328   6.034   4.159 -0.9904 -0.1654  1.0480
 1607SOL     OW 5719   6.013   3.475   2.142 -0.6917  0.1469  0.2565
 1607SOL    HW1 5720   6.055   3.455   2.231 -2.2838 -0.6329  0.8779
 1607SOL    HW2 5721   6.064   3.549   2.098  0.9482 -0.3520  1.1988
 1608SOL     OW 5722   6.422   4.787   3.667  0.7948  0.2851 -0.0623
 1608SOL    HW1 5723   6.379   4.714   3.720  1.7201  0.4423  0.9526
 1608SOL    HW2 5724   6.500   4.824   3.719  0.6510  1.6477 -0.7798
 1609SOL     OW 5725   2.863   6.503   2.601  0.0685  0.0957 -0.3882
 1609SOL    HW1 5726   2.776   6.466   2.569 -0.2326 -0.2856  0.8175
 1609SOL    HW2 5727   2.918   6.532   2.523 -0.9126 -0.1702 -1.1904
 1610SOL     OW 5728   5.727   4.104   0.483  0.1907 -0.1448 -0.2837
 1610SOL    HW1 5729   5.809   4.107   0.539 -0.5075  1.5593  0.7015
 1610SOL    HW2 5730   5.646   4.109   0.541 -0.6084 -0.8066 -1.2999
 1611SOL     OW 5731   1.788   4.179   1.523 -0.2017 -0.4981  0.3059
 1611SOL    HW1 5732   1.716   4.121   1.484  0.9189 -0.7233 -1.5524
 1611SOL    HW2 5733   1.747   4.240   1.591 -2.1412 -0.6724 -0.6143
 1612SOL     OW 5734   3.390   6.941   0.772  0.3486 -0.0623 -0.3823
 1612SOL    HW1 5735   3.438   6.994   0.841 -1.5128 -0.9009  1.6845
 1612SOL    HW2 5736   3.345   7.002   0.707  1.2657  0.7518 -0.2699
 1613SOL     OW 5737   5.676   0.436   2.522  0.6080 -0.0889 -0.3446
 1613SOL    HW1 5738   5.679   0.532   2.497 -5.5516  0.4655 -0.3545
 1613SOL    HW2 5739   5.703   0.380   2.443 -0.4430  1.6802 -2.0208
 1614SOL     OW 5740   0.439   0.424   4.933  0.0021 -0.4367  0.0987
 1614SOL    HW1 5741   0.467   0.514   4.967  3.3157 -1.3504  0.1323
 1614SOL    HW2 5742   0.389   0.435   4.847  1.3059  1.4185 -0.4746
 1615SOL     OW 5743   6.622   2.712   5.508  0.2417 -0.2751 -0.5785
 1615SOL    HW1 5744   6.600   2.759   5.594  0.5659  0.9434 -1.1398
 1615SOL    HW2 5745   6.721   2.710   5.495  0.1636  0.7944 -1.5631
 1616SOL     OW 5746   1.118   0.874   3.335  0.6455 -0.0922 -0.4879
 1616SOL    HW1 5747   1.124   0.972   3.352  0.1026 -0.0648 -0.4384
 1616SOL    HW2 5748   1.106   0.858   3.237  1.7255 -0.1581 -0.6182
 1617SOL     OW 5749   0.874   5.105   0.014  0.1058 -0.1728 -0.2906
 1617SOL    HW1 5750   0.794   5.139  -0.036 -0.1610 -0.5460 -0.1203
 1617SOL    HW2 5751   0.937   5.180   0.031 -1.1982  0.5908  1.4626
 1618SOL     OW 5752   4.294   5.279   2.915  0.0749 -0.3613 -0.0417
 1618SOL    HW1 5753   4.266   5.193   2.872 -2.1960  0.6435 -0.7248
 1618SOL    HW2 5754   4.214   5.325   2.954  1.4580  0.7705  1.5952
 1619SOL     OW 5755   0.983   4.296   2.791  0.0431  0.1671 -0.0578
 1619SOL    HW1 5756   1.007   4.389   2.817 -1.0837  0.8768 -1.4590
 1619SOL    HW2 5757   0.910   4.297   2.723  1.0683 -1.6950 -1.2843
 1620SOL     OW 5758   2.215   6.725   5.098  0.4056 -0.3450  0.3076
 1620SOL    HW1 5759   2.266   6.663   5.038 -0.9729 -0.8564 -0.3820
 1620SOL    HW2 5760   2.120   6.729   5.069  0.5612  2.6844 -0.1452
 1621SOL     OW 5761   4.119   5.624   1.943 -0.1560  0.3221  0.2968
 1621SOL    HW1 5762   4.048   5.681   1.902  0.1730 -0.5215 -1.5825
 1621SOL    HW2 5763   4.183   5.681   1.993 -0.7262  1.4149 -0.1838
 1622SOL     OW 5764   0.153   3.915   5.978  0.2802  0.5411  0.2606
 1622SOL    HW1 5765   0.123   3.868   5.895 -0.2068  1.9790 -0.4063
 1622SOL    HW2 5766   0.247   3.947   5.966  1.1424 -1.4446  1.2599
 1623SOL     OW 5767   0.099   0.911   3.658  0.3138  0.1175  0.2638
 1623SOL    HW1 5768   0.002   0.897   3.676 -0.5232  2.2103 -2.0115
 1623SOL    HW2 5769   0.148   0.925   3.745 -1.7982  1.1602  1.3555
 1624SOL     OW 5770   4.557   3.312   0.406 -0.0607 -0.1794  0.0316
 1624SOL    HW1 5771   4.577   3.317   0.308 -2.7016  2.0564 -0.5011
 1624SOL    HW2 5772   4.637   3.343   0.457  1.0202 -0.4383 -1.4276
 1625SOL     OW 5773   1.150   3.492   6.874  0.1602 -0.7359  0.6482
 1625SOL    HW1 5774   1.246   3.492   6.846 -0.1982 -0.5790 -0.6645
 1625SOL    HW2 5775   1.092   3.491   6.793 -0.9554  0.7037  1.3760
 1626SOL     OW 5776   2.739   6.183   1.514  0.2147  0.2524 -0.4770
 1626SOL    HW1 5777   2.705   6.101   1.469  0.4943 -0.5018  0.6286
 1626SOL    HW2 5778   2.779   6.158   1.602 -0.1374  1.6436  0.1051
 1627SOL     OW 5779   4.258   0.835   6.807 -0.3822 -0.0050  0.5154
 1627SOL    HW1 5780   4.269   0.816   6.709  2.2202  0.1586  0.7098
 1627SOL    HW2 5781   4.180   0.897   6.820 -2.4329 -2.0574 -1.1299
 1628SOL     OW 5782   6.153   5.452   0.038  0.6069  0.1279 -0.1323
 1628SOL    HW1 5783   6.106   5.490   0.117  1.2157 -0.4303  0.5048
 1628SOL    HW2 5784   6.142   5.515  -0.040  1.0450  1.2904  0.7146
 1629SOL     OW 5785   3.282   5.356   2.504  0.1504 -0.0835 -0.1552
 1629SOL    HW1 5786   3.252   5.271   2.460 -1.3192 -0.1692  0.9227
 1629SOL    HW2 5787   3.216   5.429   2.484  1.2967  0.7862 -0.9145
 1630SOL     OW 5788   6.592   4.411   6.380 -0.8435 -0.2961 -0.0348
 1630SOL    HW1 5789   6.607   4.480   6.452 -2.5517  1.6561 -1.4234
 1630SOL    HW2 5790   6.569   4.457   6.294 -2.0586 -2.6312 -1.0531
 1631SOL     OW 5791   5.026   5.306   5.610  0.1262 -0.1870  0.4392
 1631SOL    HW1 5792   5.082   5.385   5.585  0.4544 -0.4333  0.3918
 1631SOL    HW2 5793   4.996   5.258   5.528 -0.5315  0.1967  0.4431
 1632SOL     OW 5794   6.143   4.476   0.874  0.5040  0.5936  0.2823
 1632SOL    HW1 5795   6.086   4.557   0.886  0.1632  0.4255 -0.2066
 1632SOL    HW2 5796   6.112   4.404   0.936 -0.7192  0.0211 -0.9460
 1633SOL     OW 5797   0.604   3.785   6.874 -0.5980 -0.0627 -0.5631
 1633SOL    HW1 5798   0.690   3.836   6.876 -0.6063 -0.0644 -0.0550
 1633SOL    HW2 5799   0.616   3.697   6.918 -0.9302  0.0507 -0.2408
 1634SOL     OW 5800   1.749   5.007   6.202 -0.2386 -0.3520  0.3762
 1634SOL    HW1 5801   1.832   5.063   6.192 -1.4876  1.9056  1.8108
 1634SOL    HW2 5802   1.774   4.920   6.245  1.5280 -0.2374 -0.3069
 1635SOL     OW 5803   3.804   0.690   4.715  0.4480  0.2874 -0.1681
 1635SOL    HW1 5804   3.843   0.598   4.716  0.3124  0.2270  1.7015
 1635SOL    HW2 5805   3.705   0.685   4.729  0.5387  0.7478  0.6780
 1636SOL     OW 5806   6.482   6.216   3.118  0.3769 -0.2352  0.6956
 1636SOL    HW1 5807   6.391   6.246   3.145  1.3895  2.9493  1.0855
 1636SOL    HW2 5808   6.510   6.266   3.036  1.7340 -1.2188  0.5313
 1637SOL     OW 5809   2.679   1.286   1.143  0.3810  0.3439  0.1127
 1637SOL    HW1 5810   2.673   1.379   1.181 -0.4126 -0.5664  2.3648
 1637SOL    HW2 5811   2.771   1.250   1.157 -0.1842 -0.3771  2.2756
 1638SOL     OW 5812   5.810   0.254   3.204  0.0476 -0.3658  0.4425
 1638SOL    HW1 5813   5.740   0.298   3.148  0.1087  0.2455  0.8376
 1638SOL    HW2 5814   5.900   0.291   3.181 -0.0159  0.5234  1.5211
 1639SOL     OW 5815   4.698   3.579   1.410 -0.4908  1.0526 -0.1262
 1639SOL    HW1 5816   4.639   3.546   1.484  0.7956  0.3655  0.6179
 1639SOL    HW2 5817   4.790   3.592   1.445 -0.0061  1.3143 -1.4747
 1640SOL     OW 5818   6.518   1.797   6.596 -0.2919 -0.5998 -0.0822
 1640SOL    HW1 5819   6.495   1.894   6.588 -0.7376 -0.7695 -0.9453
 1640SOL    HW2 5820   6.615   1.787   6.619 -0.5354  0.0749  1.3439
 1641SOL     OW 5821   6.134   1.108   1.268  0.3210 -0.1185 -0.4418
 1641SOL    HW1 5822   6.092   1.145   1.185  0.8810  3.1457  0.6018
 1641SOL    HW2 5823   6.232   1.128   1.268  0.2142  0.5934  1.2663
 1642SOL     OW 5824   0.754   2.387   6.939 -0.3200 -0.0282  0.3989
 1642SOL    HW1 5825   0.768   2.472   6.888 -0.8210 -0.0485  0.2260
 1642SOL    HW2 5826   0.835   2.368   6.995 -0.2864  0.6686  0.5898
 1643SOL     OW 5827   1.042   4.258   3.991 -0.3667  0.2747  0.2737
 1643SOL    HW1 5828   1.093   4.181   3.954  1.3243  1.0347  0.9148
 1643SOL    HW2 5829   0.985   4.299   3.919 -0.4601 -0.9026 -0.3361
 1644SOL     OW 5830   0.227   1.555   3.177 -0.6099  0.1864 -0.3095
 1644SOL    HW1 5831   0.131   1.548   3.152 -0.4199  0.4722 -1.1393
 1644SOL    HW2 5832   0.269   1.464   3.174 -1.1752 -0.1691  1.4569
 1645SOL     OW 5833   2.074   0.151   1.977 -0.5263 -0.3878  0.1785
 1645SOL    HW1 5834   2.129   0.140   2.060  0.0225  0.8555  0.0019
 1645SOL    HW2 5835   1.991   0.096   1.984 -0.6518 -0.0417  1.7070
 1646SOL     OW 5836   6.783   6.926   3.575  0.3355  0.4247 -0.3028
 1646SOL    HW1 5837   6.762   6.886   3.664 -0.8027 -0.8859 -1.1274
 1646SOL    HW2 5838   6.868   6.980   3.582  0.6864 -0.2912  1.3718
 1647SOL     OW 5839   5.696   5.293   5.982 -0.1310  0.4845  0.4951
 1647SOL    HW1 5840   5.653   5.255   5.900 -1.1998  0.4621  1.0373
 1647SOL    HW2 5841   5.785   5.251   5.996  0.7318  1.5735 -1.4650
 1648SOL     OW 5842   6.626   4.548   2.594  0.3991 -0.0863 -0.3026
 1648SOL    HW1 5843   6.549   4.491   2.567 -1.5486  1.6428  1.3533
 1648SOL    HW2 5844   6.641   4.619   2.526  1.0124 -0.8013 -0.9438
 1649SOL     OW 5845   4.386   0.807   3.864 -0.4028  0.1982 -0.2147
 1649SOL    HW1 5846   4.484   0.792   3.859 -0.6639 -1.8849 -0.0145
 1649SOL    HW2 5847   4.353   0.786   3.956 -1.0046  1.2060 -0.1855
 1650SOL     OW 5848   3.356   2.509   0.030  0.3745 -0.5159 -0.2421
 1650SOL    HW1 5849   3.329   2.446   0.103 -0.6793  1.3828  1.0929
 1650SOL    HW2 5850   3.285   2.577   0.017  1.7910  0.8597 -1.1146
 1651SOL     OW 5851   2.439   3.224   5.381  0.3726 -0.9755  0.3986
 1651SOL    HW1 5852   2.353   3.247   5.335 -0.6576 -1.3007  2.1099
 1651SOL    HW2 5853   2.490   3.159   5.324 -0.2372 -0.3740 -0.8859
 1652SOL     OW 5854   6.914   4.254   2.823  0.3082  0.1216  0.4345
 1652SOL    HW1 5855   6.983   4.325   2.839  1.6511 -0.5132 -2.1054
 1652SOL    HW2 5856   6.915   4.225   2.727 -4.0202  0.5450  0.0300
 1653SOL     OW 5857   4.397   2.815   0.594 -0.0575  0.2729 -0.2142
 1653SOL    HW1 5858   4.476   2.877   0.597 -0.4469  0.7396  1.1657
 1653SOL    HW2 5859   4.322   2.859   0.545  0.3724  0.0147 -1.1224
 1654SOL     OW 5860   1.329   3.998   2.626 -0.1861  0.4911 -0.4597
 1654SOL    HW1 5861   1.304   3.920   2.568  0.3655 -1.1871  1.4240
 1654SOL    HW2 5862   1.416   4.037   2.595 -2.1220  2.7635 -3.5964
 1655SOL     OW 5863   6.661   1.407   0.527 -0.4406 -0.0778 -0.3839
 1655SOL    HW1 5864   6.630   1.346   0.454  0.4018 -0.0266 -0.7911
 1655SOL    HW2 5865   6.754   1.382   0.555 -0.8400 -0.2681  0.8603
 1656SOL     OW 5866   3.518   4.936   4.110 -0.2151  0.7523 -0.0711
 1656SOL    HW1 5867   3.423   4.919   4.086  0.3853 -0.7617 -1.6338
 1656SOL    HW2 5868   3.524   4.966   4.205 -2.1209 -0.7256  0.5877
 1657SOL     OW 5869   6.792   1.027   5.636 -0.5762  0.1821 -0.0815
 1657SOL    HW1 5870   6.712   1.067   5.680 -0.8288 -0.5961  0.1676
 1657SOL    HW2 5871   6.775   0.931   5.613  0.1397  0.1144 -0.3868
 1658SOL     OW 5872   4.377   6.784   6.460  0.7899  0.1687 -0.0450
 1658SOL    HW1 5873   4.332   6.731   6.531  0.6710  1.2764  0.7293
 1658SOL    HW2 5874   4.467   6.743   6.440 -0.0877 -1.4568 -0.8842
 1659SOL     OW 5875   2.028   0.600   6.095  0.4045  0.0754  0.3470
 1659SOL    HW1 5876   2.065   0.578   6.185  0.1791  1.1533  0.7213
 1659SOL    HW2 5877   2.101   0.639   6.038  0.0534  1.5633  0.8589
 1660SOL     OW 5878   2.606   0.648   2.288 -0.3871  0.3812  0.1207
 1660SOL    HW1 5879   2.515   0.645   2.247 -0.8956  2.5542  0.9543
 1660SOL    HW2 5880   2.659   0.721   2.245  0.5835 -0.1500  0.3931
 1661SOL     OW 5881   4.285   4.626   3.396  0.4025 -0.1171  0.5925
 1661SOL    HW1 5882   4.375   4.667   3.413  0.9139 -1.3276  0.9280
 1661SOL    HW2 5883   4.289   4.573   3.311  0.3170 -0.9933  1.1209
 1662SOL     OW 5884   6.631   1.438   4.324  0.0814 -0.6061 -0.6268
 1662SOL    HW1 5885   6.592   1.495   4.251 -1.2746 -1.9975 -1.0250
 1662SOL    HW2 5886   6.579   1.452   4.408  1.2399  0.5034 -0.0589
 1663SOL     OW 5887   5.013   3.847   2.533 -0.0494 -0.1859  0.6243
 1663SOL    HW1 5888   4.957   3.764   2.538  1.4772 -1.3150 -0.2827
 1663SOL    HW2 5889   5.105   3.824   2.503  0.8156  1.6818  1.6629
 1664SOL     OW 5890   0.099   0.657   0.656  0.9361 -0.4007 -0.3960
 1664SOL    HW1 5891   0.141   0.689   0.571  1.6995  0.0576  0.1416
 1664SOL    HW2 5892   0.127   0.563   0.675  0.2345 -0.7423 -0.9776
 1665SOL     OW 5893   1.688   3.309   5.875 -0.1433  0.4910 -0.9339
 1665SOL    HW1 5894   1.671   3.299   5.777 -1.5254 -0.9361 -0.5865
 1665SOL    HW2 5895   1.601   3.312   5.924  0.5166  1.6340  0.2391
 1666SOL     OW 5896   5.890   6.859   5.544  0.1789  0.2873  0.6712
 1666SOL    HW1 5897   5.960   6.929   5.533  0.7542 -0.3977 -0.2327
 1666SOL    HW2 5898   5.906   6.809   5.629  1.3440 -0.4257  0.0699
 1667SOL     OW 5899   6.663   5.871   1.078 -0.3026 -0.1460 -0.0852
 1667SOL    HW1 5900   6.711   5.955   1.103 -0.3510  0.0904 -0.7807
 1667SOL    HW2 5901   6.658   5.811   1.158 -1.2209  0.9676  0.7156
 1668SOL     OW 5902   1.994   1.310   2.625 -0.3427  0.6780  0.2084
 1668SOL    HW1 5903   2.076   1.252   2.617  0.1428  1.2327  0.9782
 1668SOL    HW2 5904   1.914   1.252   2.635  0.1124  0.1281  0.7689
 1669SOL     OW 5905   4.322   4.039   6.572 -0.3564  0.1691 -0.2144
 1669SOL    HW1 5906   4.262   4.086   6.507  0.7749  0.3279 -1.1713
 1669SOL    HW2 5907   4.417   4.059   6.550  0.1148 -1.4542  0.2146
 1670SOL     OW 5908   3.196   3.894   4.914  0.5585 -0.6502 -0.6356
 1670SOL    HW1 5909   3.187   3.963   4.843 -0.8971 -0.6856 -0.5123
 1670SOL    HW2 5910   3.111   3.843   4.923  0.3436  0.0045  1.8129
 1671SOL     OW 5911   4.930   2.659   0.205  1.1407 -0.0478  0.2495
 1671SOL    HW1 5912   4.831   2.676   0.199  0.9469 -1.4227 -1.3334
 1671SOL    HW2 5913   4.946   2.581   0.266  0.9075 -1.8337 -1.8461
 1672SOL     OW 5914   6.526   3.108   1.832  0.5991  0.0294 -0.1412
 1672SOL    HW1 5915   6.449   3.143   1.779  0.5729  0.2337  0.0283
 1672SOL    HW2 5916   6.501   3.108   1.929 -0.9277 -4.1573 -0.3501
 1673SOL     OW 5917   2.772   0.460   5.776 -0.0009  0.2547  0.2410
 1673SOL    HW1 5918   2.788   0.420   5.685 -2.1113 -0.0161 -0.0601
 1673SOL    HW2 5919   2.682   0.432   5.809  1.0131 -0.2634  2.7835
 1674SOL     OW 5920   4.980   4.431   3.685  0.2914  0.2095 -0.2553
 1674SOL    HW1 5921   4.912   4.435   3.612 -0.9986  0.0398  0.8913
 1674SOL    HW2 5922   4.971   4.511   3.744  1.0680  0.1725 -0.0769
 1675SOL     OW 5923   5.386   0.203   0.527 -0.7967  0.3693  0.1484
 1675SOL    HW1 5924   5.403   0.301   0.535 -1.2464  0.5126 -0.5895
 1675SOL    HW2 5925   5.383   0.177   0.431  0.6804 -0.6158  0.3397
 1676SOL     OW 5926   2.536   1.340   2.845 -0.2197 -0.6183  0.4019
 1676SOL    HW1 5927   2.597   1.275   2.890  0.1877 -0.9676 -0.6268
 1676SOL    HW2 5928   2.471   1.377   2.912 -0.2233 -1.8044  1.0809
 1677SOL     OW 5929   3.853   3.387   3.067 -0.6673 -0.8006  0.0378
 1677SOL    HW1 5930   3.810   3.392   2.977 -1.3240  1.2554  0.4151
 1677SOL    HW2 5931   3.896   3.475   3.089 -1.1790 -0.9969  2.0351
 1678SOL     OW 5932   6.401   4.884   6.751  0.4071  0.0177  0.0896
 1678SOL    HW1 5933   6.415   4.824   6.830  0.0941 -1.3461 -0.8566
 1678SOL    HW2 5934   6.488   4.926   6.725  0.4444  0.8159  1.3780
 1679SOL     OW 5935   6.365   2.423   0.529 -0.2973  0.5679  0.1467
 1679SOL    HW1 5936   6.441   2.483   0.552 -1.6722  2.8395 -0.8619
 1679SOL    HW2 5937   6.340   2.436   0.433  1.0728 -3.7175 -1.0254
 1680SOL     OW 5938   5.678   0.120   4.247  0.1352 -0.1745 -0.3040
 1680SOL    HW1 5939   5.754   0.069   4.287 -0.1749 -0.9758 -0.7076
 1680SOL    HW2 5940   5.709   0.212   4.222  0.5713  0.0185  0.8997
 1681SOL     OW 5941   2.929   1.417   3.996  0.4758 -0.2968 -0.3096
 1681SOL    HW1 5942   3.008   1.357   3.990 -0.9783 -2.2334 -1.5881
 1681SOL    HW2 5943   2.902   1.445   3.904 -1.2328 -1.0146 -0.0763
 1682SOL     OW 5944   4.635   1.076   4.675  0.2481  0.1194  0.3099
 1682SOL    HW1 5945   4.693   1.156   4.688  0.1502 -0.0155  1.6461
 1682SOL    HW2 5946   4.689   0.993   4.691 -0.1682 -0.0197  1.0553
 1683SOL     OW 5947   2.052   4.960   4.015  0.7622  0.0001  0.0665
 1683SOL    HW1 5948   1.983   4.925   4.079 -0.7564 -1.1181 -2.0632
 1683SOL    HW2 5949   2.074   4.890   3.948  1.6291  1.4211 -1.1987
 1684SOL     OW 5950   2.608   5.270   1.909 -0.3434  0.1468 -0.5451
 1684SOL    HW1 5951   2.524   5.319   1.887 -0.8747  0.0241  1.0712
 1684SOL    HW2 5952   2.685   5.317   1.866 -1.0673  1.1945 -0.7572
 1685SOL     OW 5953   1.362   1.488   4.627  0.3935 -0.4160  0.0901
 1685SOL    HW1 5954   1.383   1.476   4.529  0.9289 -2.8652  0.4431
 1685SOL    HW2 5955   1.434   1.542   4.670  1.1512 -0.9186 -0.5207
 1686SOL     OW 5956   2.594   6.457   1.190 -0.1198 -0.4233  0.4052
 1686SOL    HW1 5957   2.596   6.460   1.290 -1.7643  0.0606  0.4576
 1686SOL    HW2 5958   2.684   6.430   1.156  1.2076  1.7515  1.9255
 1687SOL     OW 5959   5.701   4.389   0.872  0.0500 -0.0983  0.4769
 1687SOL    HW1 5960   5.651   4.397   0.785  2.7850 -0.3032 -1.2195
 1687SOL    HW2 5961   5.755   4.471   0.888  0.4046 -0.5069  1.4570
 1688SOL     OW 5962   3.240   0.227   3.306 -0.4831 -0.4615 -0.4087
 1688SOL    HW1 5963   3.147   0.230   3.269 -1.6190 -0.1705  2.2222
 1688SOL    HW2 5964   3.248   0.152   3.371  0.4159  0.8051  1.0200
 1689SOL     OW 5965   4.179   1.533   2.073  0.0011  0.0322 -0.5794
 1689SOL    HW1 5966   4.160   1.497   2.164  1.0679  1.4370  0.2481
 1689SOL    HW2 5967   4.099   1.522   2.015 -1.0700  0.0510  0.8394
 1690SOL     OW 5968   0.293   2.909   5.609 -0.5335 -0.6715 -0.2169
 1690SOL    HW1 5969   0.277   2.817   5.573  1.8461 -0.1973 -2.8149
 1690SOL    HW2 5970   0.298   2.974   5.533  0.6100  1.1498  1.3410
 1691SOL     OW 5971   5.357   4.114   3.977 -0.8764  0.8985 -0.6467
 1691SOL    HW1 5972   5.388   4.027   4.016  0.3709  1.0258 -1.3024
 1691SOL    HW2 5973   5.257   4.114   3.973 -0.9035 -0.6446 -0.9342
 1692SOL     OW 5974   5.922   4.482   0.618  0.3577 -0.0216  0.5980
 1692SOL    HW1 5975   5.875   4.552   0.672  1.8482  1.4712  0.0348
 1692SOL    HW2 5976   6.021   4.499   0.619  0.5479 -0.7234 -1.5310
 1693SOL     OW 5977   6.758   0.230   5.471  0.8094 -0.0509  0.5393
 1693SOL    HW1 5978   6.798   0.238   5.563  0.1284 -0.2514  0.8619
 1693SOL    HW2 5979   6.700   0.149   5.467  0.4429  0.2291  0.0827
 1694SOL     OW 5980   3.198   1.100   6.145 -0.4115 -0.2154  0.6117
 1694SOL    HW1 5981   3.113   1.124   6.193 -0.5601 -2.3023  1.4769
 1694SOL    HW2 5982   3.241   1.022   6.189  1.6949  0.4225 -0.1784
 1695SOL     OW 5983   5.838   1.913   3.504 -0.0230  0.0989  0.4847
 1695SOL    HW1 5984   5.777   1.979   3.549 -0.5086 -0.5591  0.7986
 1695SOL    HW2 5985   5.918   1.898   3.562 -0.3124 -0.2203  0.7983
 1696SOL     OW 5986   6.286   5.081   1.195  0.8582 -0.0975  0.2045
 1696SOL    HW1 5987   6.191   5.110   1.182  1.1263  0.7291  0.0550
 1696SOL    HW2 5988   6.313   5.094   1.290  1.5083  1.7988 -0.2063
 1697SOL     OW 5989   3.599   3.673   1.746  0.3751  0.8412 -0.3125
 1697SOL    HW1 5990   3.551   3.759   1.726 -1.1179  0.1548  0.2464
 1697SOL    HW2 5991   3.587   3.610   1.669  0.9018  0.8732 -0.4262
 1698SOL     OW 5992   5.226   2.267   2.182 -0.1641  0.3078  0.1494
 1698SOL    HW1 5993   5.300   2.271   2.115  0.0275 -0.2861  0.3163
 1698SOL    HW2 5994   5.227   2.349   2.238 -0.5775  1.0017 -0.8323
 1699SOL     OW 5995   2.007   0.505   1.707  0.1287 -0.1993 -0.4420
 1699SOL    HW1 5996   2.069   0.560   1.652 -0.3090  0.3691 -0.3835
 1699SOL    HW2 5997   1.966   0.433   1.651  0.7697 -0.5263 -0.4986
 1700SOL     OW 5998   6.217   3.588   2.593 -0.6957  0.1896 -0.3765
 1700SOL    HW1 5999   6.301   3.546   2.629 -0.5894  0.8728  0.1902
 1700SOL    HW2 6000   6.150   3.595   2.666 -0.4435  1.6800 -0.2649
 1701SOL     OW 6001   0.200   4.819   4.731 -0.0986  0.1175 -0.5765
 1701SOL    HW1 6002   0.211   4.913   4.698 -1.7961  0.2898 -0.7794
 1701SOL    HW2 6003   0.259   4.803   4.809 -0.4128  1.6491  0.0068
 1702SOL     OW 6004   0.765   2.485   5.098  0.1389 -0.4380  0.0115
 1702SOL    HW1 6005   0.691   2.552   5.100  1.5693  1.2651 -1.3967
 1702SOL    HW2 6006   0.741   2.408   5.157 -2.7912 -0.0267 -0.4932
 1703SOL     OW 6007   3.418   2.377   1.269  0.1605 -0.0756 -0.5052
 1703SOL    HW1 6008   3.404   2.320   1.351  0.0424 -0.9041 -1.0935
 1703SOL    HW2 6009   3.330   2.414   1.239 -0.1931 -1.7371 -1.6491
 1704SOL     OW 6010   3.918   0.885   6.562 -0.2431 -0.3340 -0.1203
 1704SOL    HW1 6011   3.939   0.942   6.483 -1.0750  0.9236  0.5317
 1704SOL    HW2 6012   3.957   0.794   6.548  0.3508  0.1049 -1.5868
 1705SOL     OW 6013   5.045   3.738   1.700  0.1859 -0.5342  0.3209
 1705SOL    HW1 6014   5.135   3.781   1.696  0.0396  0.1022  2.4571
 1705SOL    HW2 6015   5.042   3.676   1.778 -1.5452  0.2915  0.9603
 1706SOL     OW 6016   5.144   0.163   0.717 -0.0891  0.4232  0.4451
 1706SOL    HW1 6017   5.216   0.176   0.785 -0.7840  0.5840  1.1664
 1706SOL    HW2 6018   5.185   0.147   0.627  0.8405  2.8147  0.3983
 1707SOL     OW 6019   0.766   1.699   5.237 -0.4221  0.5894 -0.8276
 1707SOL    HW1 6020   0.854   1.724   5.197 -0.6106  3.3072  0.2619
 1707SOL    HW2 6021   0.771   1.605   5.272  2.8732  1.3769  1.2928
 1708SOL     OW 6022   0.809   4.825   2.253  0.1292  0.2507  0.5495
 1708SOL    HW1 6023   0.813   4.756   2.180  0.2602  0.4525  0.3665
 1708SOL    HW2 6024   0.897   4.828   2.300  0.0873  0.2152  0.6307
 1709SOL     OW 6025   6.304   5.085   1.809 -0.0026  0.0465 -0.6150
 1709SOL    HW1 6026   6.308   4.991   1.775 -0.3902 -0.0359 -0.4450
 1709SOL    HW2 6027   6.256   5.143   1.744 -1.1422 -0.2051 -0.0266
 1710SOL     OW 6028   3.704   1.684   1.747  0.0669  0.0951 -0.0988
 1710SOL    HW1 6029   3.631   1.641   1.693  1.0584  0.6791 -2.0234
 1710SOL    HW2 6030   3.705   1.783   1.729  1.9715 -0.0327 -1.0051
 1711SOL     OW 6031   4.552   3.626   0.481  0.0750  0.3294  0.0217
 1711SOL    HW1 6032   4.629   3.689   0.491 -0.5486  1.1188 -0.0416
 1711SOL    HW2 6033   4.559   3.553   0.549 -0.4928  1.8252  1.7693
 1712SOL     OW 6034   0.303   3.492   3.009  0.4813 -0.1041  0.1003
 1712SOL    HW1 6035   0.304   3.393   2.995  1.0446 -0.2769  1.2533
 1712SOL    HW2 6036   0.270   3.537   2.926 -1.0788 -1.3250  0.0108
 1713SOL     OW 6037   1.971   2.861   3.581  0.4307  0.2829  0.3008
 1713SOL    HW1 6038   1.950   2.782   3.523  2.0752  0.5098 -0.6649
 1713SOL    HW2 6039   2.040   2.917   3.536  1.1218  0.9341  2.1101
 1714SOL     OW 6040   2.611   3.881   6.966 -0.0182 -0.4658  0.1692
 1714SOL    HW1 6041   2.547   3.848   7.035 -0.4668  0.0085 -0.0210
 1714SOL    HW2 6042   2.599   3.828   6.882 -2.0148  1.3349 -0.7493
 1715SOL     OW 6043   2.015   4.903   1.124 -0.0101  0.3861 -0.1183
 1715SOL    HW1 6044   1.947   4.926   1.054 -0.6714 -1.0689  0.0110
 1715SOL    HW2 6045   2.095   4.862   1.081 -1.4762 -2.9971  0.0417
 1716SOL     OW 6046   4.766   1.880   2.509  0.1223 -0.4697 -0.2836
 1716SOL    HW1 6047   4.718   1.960   2.473  0.1574 -0.3265 -0.0185
 1716SOL    HW2 6048   4.760   1.880   2.609 -2.2053 -2.2215 -0.3216
 1717SOL     OW 6049   3.816   5.975   3.417  0.1117 -0.1234  0.0108
 1717SOL    HW1 6050   3.760   5.915   3.360 -0.1684 -0.9564  1.1296
 1717SOL    HW2 6051   3.859   5.921   3.491  1.8555  0.6056 -0.4109
 1718SOL     OW 6052   0.624   5.533   3.294  0.6107 -0.2847  0.1548
 1718SOL    HW1 6053   0.583   5.598   3.229  1.5208  0.0768 -0.0768
 1718SOL    HW2 6054   0.627   5.442   3.253  2.3405  0.1817 -0.8546
 1719SOL     OW 6055   6.885   5.011   3.931  0.4458 -0.1592 -0.4161
 1719SOL    HW1 6056   6.827   5.087   3.901  1.5854 -0.4493 -3.8959
 1719SOL    HW2 6057   6.915   5.026   4.025 -4.7064  0.2175  1.4673
 1720SOL     OW 6058   2.939   0.285   6.101  0.5879  0.1436 -0.3417
 1720SOL    HW1 6059   3.012   0.349   6.127  1.9163 -1.3903 -0.0845
 1720SOL    HW2 6060   2.948   0.262   6.004 -0.0708  0.5666 -0.5068
 1721SOL     OW 6061   2.117   4.503   6.216  0.1229  0.5987  0.7297
 1721SOL    HW1 6062   2.093   4.508   6.313  0.9369 -0.1041  0.9757
 1721SOL    HW2 6063   2.175   4.581   6.192  1.0958  0.0244  1.1611
 1722SOL     OW 6064   3.279   1.860   2.901 -0.0407  0.2259 -0.6015
 1722SOL    HW1 6065   3.282   1.959   2.887 -0.0914  0.5455  1.3320
 1722SOL    HW2 6066   3.348   1.834   2.969 -1.1980 -0.7890  0.2311
 1723SOL     OW 6067   5.378   0.049   3.193  0.4177  0.2624  0.5774
 1723SOL    HW1 6068   5.444   0.055   3.267  1.0234 -0.1434  0.0765
 1723SOL    HW2 6069   5.426   0.048   3.105 -0.2991  1.0178  0.1591
 1724SOL     OW 6070   4.880   5.781   1.782  0.5222 -0.6129  0.0262
 1724SOL    HW1 6071   4.814   5.726   1.833 -0.7919  0.5926 -0.2969
 1724SOL    HW2 6072   4.962   5.727   1.765  0.0405 -1.8234  1.3295
 1725SOL     OW 6073   1.872   5.597   4.831 -0.4407  0.0470  0.5937
 1725SOL    HW1 6074   1.789   5.610   4.778 -0.0430 -1.3069 -0.4380
 1725SOL    HW2 6075   1.883   5.500   4.853  0.9958  0.1432  0.4433
 1726SOL     OW 6076   5.956   6.406   1.881  0.0191 -0.3953 -0.0816
 1726SOL    HW1 6077   5.961   6.357   1.968 -2.6335  0.5566  0.6958
 1726SOL    HW2 6078   5.898   6.356   1.818 -0.1336  0.1606 -0.3928
 1727SOL     OW 6079   4.165   4.697   5.239  0.7063  0.2007  0.2542
 1727SOL    HW1 6080   4.250   4.739   5.271  1.3615 -0.7843 -0.1388
 1727SOL    HW2 6081   4.185   4.608   5.199 -0.7160 -0.8003  1.6552
 1728SOL     OW 6082   6.258   3.221   4.563  0.0535 -0.5671 -0.2716
 1728SOL    HW1 6083   6.263   3.162   4.644  0.2149 -1.0985 -0.6604
 1728SOL    HW2 6084   6.349   3.230   4.522 -0.2027 -1.2257 -1.0292
 1729SOL     OW 6085   0.902   3.991   2.733 -0.0570 -0.1683  0.9210
 1729SOL    HW1 6086   0.961   3.919   2.770 -0.2404  0.0113  1.5686
 1729SOL    HW2 6087   0.957   4.069   2.705  0.1094 -0.4200  0.5349
 1730SOL     OW 6088   3.292   0.227   5.769  0.1843  0.3872 -0.1134
 1730SOL    HW1 6089   3.392   0.232   5.769  0.1724  0.7060 -0.8971
 1730SOL    HW2 6090   3.262   0.162   5.700 -0.1793  1.2716 -0.8162
 1731SOL     OW 6091   5.545   5.055   4.057 -0.5843 -0.4352  0.6571
 1731SOL    HW1 6092   5.538   5.047   4.156  0.3351 -0.2252  0.7509
 1731SOL    HW2 6093   5.628   5.009   4.026  0.9598  2.3186  0.3876
 1732SOL     OW 6094   3.231   3.275   4.430  0.3965 -0.1523 -0.3313
 1732SOL    HW1 6095   3.192   3.249   4.342  0.0363  0.8590 -0.4800
 1732SOL    HW2 6096   3.301   3.209   4.456 -0.5462 -1.3051 -0.6459
 1733SOL     OW 6097   0.328   1.582   6.150 -0.2975 -1.1176  1.1914
 1733SOL    HW1 6098   0.264   1.513   6.185 -0.5792 -1.5398 -0.1028
 1733SOL    HW2 6099   0.281   1.641   6.084  0.7097 -1.6383 -0.0245
 1734SOL     OW 6100   0.353   5.727   2.487  0.2352  0.1740  0.0949
 1734SOL    HW1 6101   0.450   5.752   2.491  0.7051 -1.0205 -2.0766
 1734SOL    HW2 6102   0.343   5.643   2.434 -1.9877  0.0924  0.5509
 1735SOL     OW 6103   3.635   6.838   6.176  0.2343  0.2099  0.4774
 1735SOL    HW1 6104   3.568   6.846   6.250  0.3156 -1.4344  0.7672
 1735SOL    HW2 6105   3.590   6.800   6.095  0.5291  0.3840  0.2312
 1736SOL     OW 6106   3.143   0.341   5.296  0.3734 -0.1098 -0.3259
 1736SOL    HW1 6107   3.145   0.400   5.215  0.4393 -1.3751 -1.2714
 1736SOL    HW2 6108   3.117   0.395   5.376 -1.3092  0.8483 -1.4631
 1737SOL     OW 6109   1.906   1.444   0.075 -0.7857 -0.3034 -0.4259
 1737SOL    HW1 6110   1.904   1.544   0.071  0.4117 -0.3049 -2.7805
 1737SOL    HW2 6111   1.995   1.413   0.107  0.0415 -0.5527 -2.7458
 1738SOL     OW 6112   1.666   5.651   0.599  0.3003 -0.1312  0.4528
 1738SOL    HW1 6113   1.640   5.717   0.529  0.7631 -0.9744 -0.5315
 1738SOL    HW2 6114   1.763   5.662   0.621  0.8177 -1.5669 -0.9543
 1739SOL     OW 6115   5.069   5.393   2.532  0.6550 -0.0976  0.0837
 1739SOL    HW1 6116   4.971   5.412   2.528  0.5701 -0.8166 -2.7000
 1739SOL    HW2 6117   5.113   5.463   2.589 -1.2848  0.9183  0.4495
 1740SOL     OW 6118   5.719   0.369   4.121  0.7254 -0.1600  0.1499
 1740SOL    HW1 6119   5.633   0.396   4.078  1.2093  0.4312 -0.4737
 1740SOL    HW2 6120   5.768   0.450   4.152  1.3392 -0.4387 -0.0628
 1741SOL     OW 6121   0.692   2.517   4.669  0.3370 -0.0375  0.3446
 1741SOL    HW1 6122   0.623   2.568   4.720 -0.8788 -0.5620 -0.7267
 1741SOL    HW2 6123   0.742   2.457   4.732 -0.1484  0.3743  1.1350
 1742SOL     OW 6124   6.354   0.308   5.794  0.1966  0.6845  0.2012
 1742SOL    HW1 6125   6.442   0.347   5.767  1.1060 -1.3621  0.0030
 1742SOL    HW2 6126   6.334   0.229   5.736 -0.9663  0.1106  1.3398
 1743SOL     OW 6127   1.903   3.851   0.658  0.4363  0.1650  0.2014
 1743SOL    HW1 6128   1.947   3.893   0.737  1.0221 -0.4384  0.2018
 1743SOL    HW2 6129   1.877   3.922   0.593 -2.2316  0.9818  1.9571
 1744SOL     OW 6130   2.579   0.376   4.693 -0.2618  0.2502 -0.1619
 1744SOL    HW1 6131   2.499   0.343   4.643 -0.8484  0.6940  0.4637
 1744SOL    HW2 6132   2.550   0.419   4.778  0.6906 -0.0944  0.3562
 1745SOL     OW 6133   6.141   0.723   0.335  0.4690 -0.3769  0.2909
 1745SOL    HW1 6134   6.061   0.772   0.369  0.1107  0.1017 -1.1756
 1745SOL    HW2 6135   6.113   0.647   0.276  1.0726 -0.6085  0.2896
 1746SOL     OW 6136   3.938   0.309   2.031  0.4461 -0.2347 -0.0350
 1746SOL    HW1 6137   3.905   0.216   2.047  2.2198 -1.0286 -0.7055
 1746SOL    HW2 6138   3.882   0.374   2.082 -2.5524 -1.3784 -1.6808
 1747SOL     OW 6139   3.138   6.102   2.731 -0.4914 -0.4834 -0.4201
 1747SOL    HW1 6140   3.176   6.040   2.800 -0.3415  0.6615  0.5742
 1747SOL    HW2 6141   3.090   6.177   2.777  2.7671  2.4225 -1.3208
 1748SOL     OW 6142   6.778   6.789   3.826 -0.5226 -0.3678 -0.2987
 1748SOL    HW1 6143   6.777   6.856   3.901  1.8575 -1.5519  0.8903
 1748SOL    HW2 6144   6.695   6.734   3.830 -0.6646 -0.0965  1.1975
 1749SOL     OW 6145   1.018   6.963   1.510 -0.2469 -0.1613 -0.7234
 1749SOL    HW1 6146   0.943   6.989   1.570 -0.3501  0.4332 -1.0977
 1749SOL    HW2 6147   1.051   6.872   1.535  0.0329  0.2640  0.5492
 1750SOL     OW 6148   3.814   2.375   0.352  0.6783 -0.0929 -0.5539
 1750SOL    HW1 6149   3.764   2.402   0.270  1.2961  0.6218 -0.7121
 1750SOL    HW2 6150   3.867   2.292   0.333 -1.1924 -1.4408 -0.0811
 1751SOL     OW 6151   0.351   6.358   4.128 -0.4028 -0.3752  0.3043
 1751SOL    HW1 6152   0.419   6.304   4.177 -1.1321 -2.9298 -1.3178
 1751SOL    HW2 6153   0.261   6.341   4.167 -0.5143  0.6439  0.5177
 1752SOL     OW 6154   7.006   5.362   1.315  0.0874 -0.4097 -0.1622
 1752SOL    HW1 6155   6.978   5.317   1.231  0.4978 -0.6017 -0.1985
 1752SOL    HW2 6156   7.101   5.394   1.306 -0.3441  0.8811 -0.3126
 1753SOL     OW 6157   2.218   1.704   6.584  0.1309 -0.1491  0.3494
 1753SOL    HW1 6158   2.211   1.688   6.683  1.1488  1.6627  0.7683
 1753SOL    HW2 6159   2.313   1.726   6.561 -0.1965 -0.0234 -0.9526
 1754SOL     OW 6160   1.830   4.657   4.751 -0.0907 -0.1383  0.0666
 1754SOL    HW1 6161   1.811   4.663   4.849 -0.2907 -0.4493  0.0485
 1754SOL    HW2 6162   1.899   4.724   4.726  0.0909 -0.1810  0.4541
 1755SOL     OW 6163   3.523   6.558   2.535  0.4149 -0.7209  0.6478
 1755SOL    HW1 6164   3.455   6.499   2.491  0.1693 -0.5406  0.7804
 1755SOL    HW2 6165   3.615   6.521   2.519  0.2312 -1.3923  1.1119
 1756SOL     OW 6166   5.057   5.865   5.717  0.3322 -0.2229 -0.3432
 1756SOL    HW1 6167   5.146   5.831   5.747  1.1069  1.0580 -1.1135
 1756SOL    HW2 6168   5.043   5.957   5.752 -0.5527 -0.2905 -0.5060
 1757SOL     OW 6169   3.151   5.635   4.038 -0.1780 -0.0553  0.2258
 1757SOL    HW1 6170   3.077   5.570   4.024 -1.4099  1.2835  0.3358
 1757SOL    HW2 6171   3.228   5.612   3.978 -1.9609  0.4601 -2.3883
 1758SOL     OW 6172   5.912   5.124   4.846 -0.6043 -0.7335  0.4230
 1758SOL    HW1 6173   5.884   5.056   4.778 -0.4507  1.1682 -1.6554
 1758SOL    HW2 6174   5.831   5.159   4.893 -1.2148  0.6243 -1.5187
 1759SOL     OW 6175   1.684   6.075   5.953  0.4296 -0.4594  0.0530
 1759SOL    HW1 6176   1.760   6.015   5.931 -0.4263 -1.8817  0.8364
 1759SOL    HW2 6177   1.710   6.136   6.027  0.8901 -0.7384  0.1226
 1760SOL     OW 6178   5.509   2.839   3.485 -0.2455  0.0622 -0.2511
 1760SOL    HW1 6179   5.508   2.739   3.499 -0.9855  0.0715 -0.2118
 1760SOL    HW2 6180   5.595   2.876   3.520  1.0631 -0.8411 -2.3045
 1761SOL     OW 6181   4.465   0.918   4.333 -0.0037 -0.2454 -0.2860
 1761SOL    HW1 6182   4.385   0.902   4.275 -0.7275  0.6977  0.4081
 1761SOL    HW2 6183   4.438   0.915   4.429  0.4419  1.6474 -0.0579
 1762SOL     OW 6184   1.519   1.008   4.723  0.0300  0.5927 -0.0070
 1762SOL    HW1 6185   1.476   1.035   4.637  2.1671  2.1228 -0.6838
 1762SOL    HW2 6186   1.489   1.069   4.796 -0.9654 -0.0352  0.1212
 1763SOL     OW 6187   0.284   4.287   5.650 -0.2969  0.4169  0.3331
 1763SOL    HW1 6188   0.278   4.384   5.671  1.4299  0.5714  0.2435
 1763SOL    HW2 6189   0.380   4.258   5.650 -0.8113 -1.4701  1.1399
 1764SOL     OW 6190   6.774   5.169   2.964  0.0513 -0.3437 -0.2605
 1764SOL    HW1 6191   6.687   5.141   2.924  0.1745  0.0754 -0.8453
 1764SOL    HW2 6192   6.818   5.091   3.008 -0.8562 -0.4435  0.5012
 1765SOL     OW 6193   5.172   4.257   3.272 -1.1240  0.9137 -0.7841
 1765SOL    HW1 6194   5.175   4.294   3.179  0.2257 -0.6360 -1.3960
 1765SOL    HW2 6195   5.230   4.312   3.331 -1.7044  1.6914 -0.9139
 1766SOL     OW 6196   5.109   4.068   4.409 -0.3711 -0.6031  0.3710
 1766SOL    HW1 6197   5.022   4.027   4.437 -0.7085 -0.3603 -0.2917
 1766SOL    HW2 6198   5.144   4.125   4.483 -1.1005 -0.1989  0.4152
 1767SOL     OW 6199   2.051   3.436   2.463  0.0781  0.2641 -0.1353
 1767SOL    HW1 6200   2.087   3.516   2.416 -0.1926  0.8172  0.5730
 1767SOL    HW2 6201   2.096   3.425   2.552 -0.2038 -0.1057 -0.0308
 1768SOL     OW 6202   2.642   5.460   2.745  0.1664  0.3293 -0.1936
 1768SOL    HW1 6203   2.643   5.558   2.762  0.6962  0.5810 -1.5424
 1768SOL    HW2 6204   2.605   5.443   2.653 -0.5522 -0.7809  0.2821
 1769SOL     OW 6205   4.942   1.210   0.356 -0.3542 -0.3427  0.4521
 1769SOL    HW1 6206   4.855   1.260   0.352 -0.0599  0.1275 -1.9153
 1769SOL    HW2 6207   4.940   1.135   0.290  0.5777 -1.1507  1.3174
 1770SOL     OW 6208   2.087   1.717   6.167 -0.6680 -0.9647  0.6365
 1770SOL    HW1 6209   2.160   1.784   6.181  0.2838 -1.7464 -0.4192
 1770SOL    HW2 6210   1.999   1.764   6.164 -0.1591  0.0739  1.2324
 1771SOL     OW 6211   0.541   4.958   5.335 -0.4912 -0.2796 -0.1266
 1771SOL    HW1 6212   0.605   4.893   5.293 -2.2936 -3.9600  2.3024
 1771SOL    HW2 6213   0.469   4.981   5.269  0.4440 -0.2873 -1.1919
 1772SOL     OW 6214   3.100   5.326   1.871  0.7184  0.0222  0.0963
 1772SOL    HW1 6215   3.152   5.412   1.868 -0.2870  0.6546  0.4223
 1772SOL    HW2 6216   3.119   5.278   1.956  1.1358  0.0083 -0.0019
 1773SOL     OW 6217   0.502   6.839   0.114  0.4246  0.0209  0.0778
 1773SOL    HW1 6218   0.533   6.780   0.040 -1.5534  0.3536 -1.0802
 1773SOL    HW2 6219   0.570   6.911   0.130  0.0579  1.1502 -2.8327
 1774SOL     OW 6220   5.855   4.521   1.535  0.0347 -0.6579  0.2755
 1774SOL    HW1 6221   5.936   4.523   1.476 -0.5965 -0.9282 -0.6276
 1774SOL    HW2 6222   5.774   4.502   1.479 -0.9183  1.3978  0.8451
 1775SOL     OW 6223   1.843   5.828   6.781  0.1820 -0.2492  0.6304
 1775SOL    HW1 6224   1.921   5.849   6.722 -0.0524 -4.1539 -1.3813
 1775SOL    HW2 6225   1.759   5.860   6.738  0.2299 -0.9292  0.0149
 1776SOL     OW 6226   5.022   2.027   5.882  0.1449 -0.3173  0.1564
 1776SOL    HW1 6227   5.058   1.948   5.933 -1.8803 -1.3667  0.0949
 1776SOL    HW2 6228   4.923   2.031   5.895  0.0762  1.6137 -0.7330
 1777SOL     OW 6229   5.877   4.671   0.283 -0.3388  0.0229  0.4455
 1777SOL    HW1 6230   5.891   4.591   0.342  0.0622 -0.9240 -0.8722
 1777SOL    HW2 6231   5.965   4.699   0.244 -0.6446  0.3765 -0.0093
 1778SOL     OW 6232   6.185   0.699   5.251 -0.2066  0.3684 -0.2470
 1778SOL    HW1 6233   6.126   0.725   5.327  1.1425 -0.2739  1.0588
 1778SOL    HW2 6234   6.281   0.710   5.277  0.3610 -2.3602 -0.8540
 1779SOL     OW 6235   0.271   6.324   6.050 -0.2975  0.1837  0.6670
 1779SOL    HW1 6236   0.361   6.326   6.006 -1.0526 -3.0895 -1.3755
 1779SOL    HW2 6237   0.270   6.387   6.128  3.0162  1.9116 -0.5093
 1780SOL     OW 6238   4.498   0.880   5.555 -0.0750  0.0277  0.7505
 1780SOL    HW1 6239   4.401   0.870   5.576  0.3965  1.7861  4.5778
 1780SOL    HW2 6240   4.549   0.807   5.600  0.4613 -0.9808 -1.3678
 1781SOL     OW 6241   3.685   1.553   4.468  0.4684 -0.0825  0.2220
 1781SOL    HW1 6242   3.603   1.546   4.525  0.4104 -1.6399  0.0086
 1781SOL    HW2 6243   3.760   1.503   4.511  0.6741 -0.5223 -0.6191
 1782SOL     OW 6244   5.613   6.186   0.991  0.0610  0.1407 -0.0618
 1782SOL    HW1 6245   5.619   6.232   1.079 -0.4504  1.0262 -0.4779
 1782SOL    HW2 6246   5.701   6.194   0.943 -0.2172  1.2438 -0.4005
 1783SOL     OW 6247   0.638   2.980   5.042  0.5897  0.0962 -0.1252
 1783SOL    HW1 6248   0.553   3.032   5.052  0.7829  0.1186  2.0042
 1783SOL    HW2 6249   0.685   3.007   4.958 -1.2464  0.4251 -1.0957
 1784SOL     OW 6250   2.845   4.499   0.819  0.0410  0.3035  0.0268
 1784SOL    HW1 6251   2.774   4.434   0.793  0.8591 -1.1313  1.2310
 1784SOL    HW2 6252   2.817   4.547   0.902 -0.8611  2.0538 -1.2274
 1785SOL     OW 6253   2.297   4.954   3.633  0.2754 -0.0362 -0.7031
 1785SOL    HW1 6254   2.257   4.893   3.702  1.0223 -0.7483 -0.8943
 1785SOL    HW2 6255   2.269   5.048   3.653 -1.4191 -0.4940 -0.7728
 1786SOL     OW 6256   6.885   6.212   1.644  0.0033  0.5546 -0.0995
 1786SOL    HW1 6257   6.924   6.304   1.646 -1.3136  1.1258  2.5651
 1786SOL    HW2 6258   6.798   6.210   1.693 -1.2063 -1.6505 -2.0968
 1787SOL     OW 6259   2.711   0.079   0.217  0.1498  0.7138 -0.9692
 1787SOL    HW1 6260   2.623   0.033   0.225  1.2539 -1.5755 -1.3392
 1787SOL    HW2 6261   2.750   0.093   0.308  0.5103 -0.5768 -0.9057
 1788SOL     OW 6262   3.825   3.163   0.618  0.1022  0.5131 -0.0954
 1788SOL    HW1 6263   3.727   3.154   0.595  0.2838  1.7878 -1.5481
 1788SOL    HW2 6264   3.834   3.202   0.709 -0.7744  1.4768 -0.4016
 1789SOL     OW 6265   1.635   1.651   3.443 -0.4255 -0.3482 -0.0467
 1789SOL    HW1 6266   1.735   1.658   3.449 -0.3790 -1.6377  1.6028
 1789SOL    HW2 6267   1.611   1.558   3.414 -1.1404 -0.0593 -0.3750
 1790SOL     OW 6268   0.643   3.735   4.494 -0.2247 -0.0262  0.2225
 1790SOL    HW1 6269   0.550   3.697   4.490 -0.5187  0.1124  3.2171
 1790SOL    HW2 6270   0.706   3.666   4.529  0.3082  0.6192  0.5643
 1791SOL     OW 6271   6.454   0.439   2.174  0.2531  0.0365  0.1979
 1791SOL    HW1 6272   6.483   0.394   2.090  0.9492  0.0110  0.4483
 1791SOL    HW2 6273   6.419   0.370   2.238 -1.9761  0.2290 -0.7176
 1792SOL     OW 6274   0.074   3.194   6.413  0.6868 -0.0648  0.1231
 1792SOL    HW1 6275   0.164   3.229   6.440  0.7991 -0.8473  0.7990
 1792SOL    HW2 6276   0.037   3.250   6.339  1.4387  0.6648  0.2905
 1793SOL     OW 6277   2.979   2.050   6.126 -0.0213  0.4230 -0.4995
 1793SOL    HW1 6278   2.971   1.962   6.077  0.4036 -0.0304  0.2330
 1793SOL    HW2 6279   3.006   2.121   6.061 -1.1135  0.1805 -1.2588
 1794SOL     OW 6280   5.517   1.008   5.816 -0.2829 -0.3868  0.3951
 1794SOL    HW1 6281   5.543   0.945   5.889  0.6819  0.4929  0.8443
 1794SOL    HW2 6282   5.584   1.002   5.741 -1.5337 -1.6433 -0.6820
 1795SOL     OW 6283   6.080   4.523   6.946  0.0712  0.2522 -0.3813
 1795SOL    HW1 6284   6.015   4.562   6.881 -0.7282 -1.9172 -1.0042
 1795SOL    HW2 6285   6.171   4.518   6.904  0.1914  1.4147 -0.2752
 1796SOL     OW 6286   5.246   6.315   6.894  0.3600  0.0960  0.2046
 1796SOL    HW1 6287   5.343   6.338   6.894  0.7945 -1.5165 -1.3159
 1796SOL    HW2 6288   5.224   6.261   6.813 -1.7305  0.0467  0.7351
 1797SOL     OW 6289   2.959   4.648   6.306  0.2210 -0.1142  0.4170
 1797SOL    HW1 6290   2.860   4.644   6.289  0.1835 -1.4159  0.8021
 1797SOL    HW2 6291   2.975   4.668   6.403  0.2439 -2.8228  1.0505
 1798SOL     OW 6292   3.998   4.880   4.523 -0.1930 -0.0391 -0.0605
 1798SOL    HW1 6293   4.024   4.962   4.471 -0.9919 -0.3809 -1.0345
 1798SOL    HW2 6294   4.081   4.835   4.557  0.3021  0.6597 -0.3090
 1799SOL     OW 6295   4.289   1.413   1.365  0.2162 -0.2696  0.5611
 1799SOL    HW1 6296   4.291   1.440   1.268  0.1315  2.0912  1.1542
 1799SOL    HW2 6297   4.359   1.344   1.382 -1.2709 -2.5148 -1.5992
 1800SOL     OW 6298   5.355   3.330   6.771 -0.6615  0.4797  0.1170
 1800SOL    HW1 6299   5.294   3.379   6.709 -1.0616  1.3615  1.1603
 1800SOL    HW2 6300   5.449   3.362   6.759 -0.5014 -0.3676 -0.9951
 1801SOL     OW 6301   0.572   2.907   3.326  0.2850 -0.6659  0.7807
 1801SOL    HW1 6302   0.661   2.952   3.325 -0.2011  0.3304  0.1287
 1801SOL    HW2 6303   0.534   2.910   3.419 -0.0867  1.0474  0.6061
 1802SOL     OW 6304   6.605   4.112   4.340  0.3245 -0.1043 -0.5845
 1802SOL    HW1 6305   6.545   4.044   4.299 -1.0123  1.0789 -0.6896
 1802SOL    HW2 6306   6.645   4.169   4.267  0.5644 -0.0751 -0.4314
 1803SOL     OW 6307   5.317   6.374   1.561  0.3312 -0.1623 -0.1269
 1803SOL    HW1 6308   5.388   6.335   1.621  0.2258 -0.8577 -0.4474
 1803SOL    HW2 6309   5.357   6.396   1.472  0.1872 -0.3874 -0.2482
 1804SOL     OW 6310   0.229   2.316   5.246 -0.6388  0.3877  0.0631
 1804SOL    HW1 6311   0.304   2.296   5.310 -0.2019 -1.5037 -0.9518
 1804SOL    HW2 6312   0.196   2.230   5.206 -1.9080  1.3853 -1.1359
 1805SOL     OW 6313   6.649   5.940   6.872  0.2936  0.3300  0.0345
 1805SOL    HW1 6314   6.613   5.847   6.862  0.6649  0.3844 -2.2118
 1805SOL    HW2 6315   6.727   5.939   6.935  0.1520 -0.8155  0.2197
 1806SOL     OW 6316   7.010   5.939   2.750 -0.0098 -0.1892 -0.0976
 1806SOL    HW1 6317   6.928   5.947   2.808  0.5282 -1.4795  0.8880
 1806SOL    HW2 6318   7.035   6.029   2.715 -1.6070  0.2884 -0.0760
 1807SOL     OW 6319   6.877   3.197   3.399  0.1240  0.1037 -0.6332
 1807SOL    HW1 6320   6.942   3.223   3.470  0.2957 -1.4258 -0.2127
 1807SOL    HW2 6321   6.921   3.205   3.309  0.9551 -1.0611 -0.3437
 1808SOL     OW 6322   4.794   0.569   0.531  0.3424 -0.1662  0.0891
 1808SOL    HW1 6323   4.764   0.552   0.625 -1.2416  0.5785 -0.2458
 1808SOL    HW2 6324   4.893   0.556   0.525  0.3060 -1.4552  1.5626
 1809SOL     OW 6325   4.866   6.545   4.637 -0.2093  0.0912  0.4631
 1809SOL    HW1 6326   4.923   6.560   4.717  1.1758 -0.7124 -0.3263
 1809SOL    HW2 6327   4.813   6.461   4.649  1.3793 -1.0530 -0.1606
 1810SOL     OW 6328   0.154   0.310   1.931  0.0385  0.4669 -0.0501
 1810SOL    HW1 6329   0.088   0.293   1.858 -0.7579 -0.9549  0.9603
 1810SOL    HW2 6330   0.115   0.376   1.996  0.0431  0.4190  0.0010
 1811SOL     OW 6331   2.683   4.747   2.385  0.4573  0.0715  0.1885
 1811SOL    HW1 6332   2.745   4.787   2.452  0.2795 -2.2423  1.8324
 1811SOL    HW2 6333   2.725   4.751   2.294  0.3584  4.0110  0.1262
 1812SOL     OW 6334   2.513   0.800   4.886 -0.5498  0.4353 -0.0632
 1812SOL    HW1 6335   2.422   0.760   4.884  0.3974 -2.2058  2.3005
 1812SOL    HW2 6336   2.577   0.741   4.837  0.5144  0.0826  1.6389
 1813SOL     OW 6337   5.938   1.832   0.379 -0.3151 -0.0714  0.5475
 1813SOL    HW1 6338   5.978   1.845   0.470 -0.7668  0.7624  0.6451
 1813SOL    HW2 6339   5.952   1.738   0.349 -0.4866 -0.4700  1.6511
 1814SOL     OW 6340   5.155   6.050   2.190 -0.3605 -0.2718  0.0444
 1814SOL    HW1 6341   5.065   6.045   2.146 -0.0802 -1.2364 -0.4399
 1814SOL    HW2 6342   5.170   6.142   2.224 -1.4749 -0.0572  0.0002
 1815SOL     OW 6343   0.083   5.681   0.496  0.2915  0.4113 -0.2047
 1815SOL    HW1 6344   0.157   5.648   0.555 -0.2040 -0.5426 -0.1080
 1815SOL    HW2 6345  -0.004   5.647   0.529 -0.0750  0.5518 -1.0142
 1816SOL     OW 6346   4.959   4.954   4.442 -0.4081 -0.2012  0.3290
 1816SOL    HW1 6347   5.049   4.964   4.401 -0.4586  1.7261  0.5974
 1816SOL    HW2 6348   4.902   4.896   4.384  0.4347  0.0515 -0.7840
 1817SOL     OW 6349   0.896   0.990   5.046  0.1600 -0.0828 -0.1198
 1817SOL    HW1 6350   0.907   1.076   5.097  2.1478 -0.2874 -0.0986
 1817SOL    HW2 6351   0.925   1.004   4.952  1.3325 -0.9134  0.0980
 1818SOL     OW 6352   0.206   1.889   0.465 -0.5729  0.7064 -0.4135
 1818SOL    HW1 6353   0.231   1.886   0.368 -1.1491  0.5418 -0.5595
 1818SOL    HW2 6354   0.284   1.922   0.518  0.0257  0.0080 -0.8362
 1819SOL     OW 6355   6.619   2.159   0.274  0.0986  0.2008  0.1519
 1819SOL    HW1 6356   6.634   2.177   0.371 -0.9624  0.1366  0.3389
 1819SOL    HW2 6357   6.677   2.220   0.220 -0.8234  1.7197  0.8028
 1820SOL     OW 6358   4.449   6.299   3.952 -0.0803 -0.0112 -0.1027
 1820SOL    HW1 6359   4.497   6.279   4.038  0.0006  0.6846  0.0214
 1820SOL    HW2 6360   4.420   6.394   3.952 -0.2742 -0.0661 -0.7590
 1821SOL     OW 6361   2.869   0.805   3.472 -0.0261 -0.8092 -0.4680
 1821SOL    HW1 6362   2.910   0.896   3.471  0.9806 -1.2037  1.0711
 1821SOL    HW2 6363   2.772   0.812   3.447 -0.3110  0.9013  0.9182
 1822SOL     OW 6364   0.461   4.324   5.950 -0.1861 -0.2141 -0.2608
 1822SOL    HW1 6365   0.513   4.404   5.977 -0.0076 -0.7821  1.1327
 1822SOL    HW2 6366   0.494   4.291   5.861  0.2172  0.8181 -0.5049
 1823SOL     OW 6367   5.371   5.817   6.872 -0.1152 -0.0869 -0.1559
 1823SOL    HW1 6368   5.311   5.798   6.794  0.8434 -1.3731 -0.6181
 1823SOL    HW2 6369   5.343   5.763   6.950  1.1330 -1.6584 -0.7405
 1824SOL     OW 6370   5.966   3.256   3.179  0.2962  0.1821  0.8332
 1824SOL    HW1 6371   5.892   3.269   3.113  0.3580 -0.3310  0.6587
 1824SOL    HW2 6372   5.943   3.182   3.241  0.4220  0.3924  1.1303
 1825SOL     OW 6373   1.093   3.974   0.589  0.3633  0.2595 -0.4366
 1825SOL    HW1 6374   0.997   3.987   0.564  0.2463 -1.3035 -0.8989
 1825SOL    HW2 6375   1.100   3.964   0.688  0.2186  1.5816 -0.2756
 1826SOL     OW 6376   4.726   1.746   6.872  0.0871  0.0293 -0.5002
 1826SOL    HW1 6377   4.695   1.668   6.926 -1.3370  1.7999  1.4014
 1826SOL    HW2 6378   4.736   1.719   6.777 -0.7739 -2.3430  0.0188
 1827SOL     OW 6379   3.482   5.275   6.698  0.5047 -0.2756 -0.0262
 1827SOL    HW1 6380   3.456   5.207   6.767 -1.9770 -1.4296 -1.9413
 1827SOL    HW2 6381   3.560   5.242   6.646  0.4373 -0.8358  0.2167
 1828SOL     OW 6382   2.197   5.597   5.651 -0.3138  0.2156  0.5354
 1828SOL    HW1 6383   2.157   5.506   5.658 -0.5710  0.3725  1.2600
 1828SOL    HW2 6384   2.286   5.591   5.607 -1.2006 -0.1099 -1.2816
 1829SOL     OW 6385   3.051   6.875   1.269 -0.2604 -0.1655  1.1185
 1829SOL    HW1 6386   3.123   6.901   1.205  0.9626 -2.9381  1.2469
 1829SOL    HW2 6387   2.963   6.872   1.221  0.2913 -0.2015  0.0944
 1830SOL     OW 6388   3.389   0.163   6.310 -0.1157  0.2151 -0.2893
 1830SOL    HW1 6389   3.466   0.175   6.373  0.6908 -0.2492 -1.1643
 1830SOL    HW2 6390   3.397   0.228   6.234 -0.3343 -0.1436 -0.6261
 1831SOL     OW 6391   4.019   5.066   1.001 -0.2603 -0.4520 -0.3211
 1831SOL    HW1 6392   4.059   5.079   1.092  0.7168 -0.1614 -0.7781
 1831SOL    HW2 6393   4.017   4.969   0.979 -0.4342 -0.5173 -0.0269
 1832SOL     OW 6394   6.609   3.063   6.088 -1.2133 -0.0557 -0.0887
 1832SOL    HW1 6395   6.652   2.989   6.140 -0.6636 -0.4090 -1.0254
 1832SOL    HW2 6396   6.630   3.052   5.991 -3.0983 -0.0043 -0.5408
 1833SOL     OW 6397   4.486   1.243   1.416  0.1639 -0.1725 -0.4154
 1833SOL    HW1 6398   4.476   1.218   1.513 -0.0038  2.5066  0.3168
 1833SOL    HW2 6399   4.555   1.184   1.374  0.0564 -1.5677  1.2451
 1834SOL     OW 6400   2.335   5.481   6.719 -0.4011 -0.1280  0.1306
 1834SOL    HW1 6401   2.421   5.430   6.731 -0.6806 -0.9362 -1.1686
 1834SOL    HW2 6402   2.355   5.572   6.685  0.1044  0.7142  2.4522
 1835SOL     OW 6403   5.693   1.761   6.122  0.2100 -0.1272 -0.3255
 1835SOL    HW1 6404   5.782   1.768   6.167  0.5408  0.7290 -1.0833
 1835SOL    HW2 6405   5.638   1.691   6.168  1.4605 -1.0412 -0.1663
 1836SOL     OW 6406   4.334   0.103   5.991  0.1032  0.1813  0.3290
 1836SOL    HW1 6407   4.237   0.116   6.013  0.4033  0.9124  1.2700
 1836SOL    HW2 6408   4.363   0.012   6.024 -0.8722 -1.1606 -2.2544
 1837SOL     OW 6409   2.277   1.159   1.302 -0.1520 -0.2005 -0.1458
 1837SOL    HW1 6410   2.361   1.126   1.345  0.4493 -1.2603 -2.0044
 1837SOL    HW2 6411   2.279   1.139   1.204 -2.3117  0.3280 -0.3672
 1838SOL     OW 6412   4.250   0.437   6.252 -0.0470 -0.0034  0.3138
 1838SOL    HW1 6413   4.199   0.358   6.284  0.8390 -2.1296 -2.9947
 1838SOL    HW2 6414   4.193   0.492   6.191 -0.1636  1.0741  1.3543
 1839SOL     OW 6415   6.331   3.070   1.456 -0.1490  0.0689  0.1283
 1839SOL    HW1 6416   6.265   3.125   1.507  0.7939  0.1590  1.3023
 1839SOL    HW2 6417   6.417   3.122   1.447  0.1567 -0.5085 -0.3329
 1840SOL     OW 6418   1.651   5.063   0.029  0.0187 -0.0556 -0.2852
 1840SOL    HW1 6419   1.633   5.075   0.127 -1.8568  0.2738 -0.6381
 1840SOL    HW2 6420   1.730   5.118   0.003  0.6062 -0.2236  1.0447
 1841SOL     OW 6421   1.512   0.025   1.631  0.3174  0.3660 -0.0381
 1841SOL    HW1 6422   1.540   0.033   1.536  0.1191 -0.2008 -0.1482
 1841SOL    HW2 6423   1.594   0.021   1.689  0.4336  1.8468 -0.0720
 1842SOL     OW 6424   6.934   3.925   1.539 -0.2658  0.4301  0.4764
 1842SOL    HW1 6425   6.988   3.863   1.595 -0.9665  0.4855  1.2158
 1842SOL    HW2 6426   6.988   4.007   1.520 -0.1163  0.5246  1.2876
 1843SOL     OW 6427   2.679   6.782   5.726 -0.0147 -0.4323 -0.5247
 1843SOL    HW1 6428   2.582   6.793   5.706  0.0362  0.2954 -0.3866
 1843SOL    HW2 6429   2.707   6.849   5.795  0.1724 -1.8217  0.8137
 1844SOL     OW 6430   3.149   1.611   1.056  0.3558 -0.3155  0.5776
 1844SOL    HW1 6431   3.054   1.613   1.024  0.5038 -0.5473  0.1109
 1844SOL    HW2 6432   3.178   1.516   1.070  0.7602 -0.2933 -0.0432
 1845SOL     OW 6433   6.752   2.206   3.354  0.1939 -0.0293 -0.5323
 1845SOL    HW1 6434   6.789   2.298   3.358 -0.3048  0.3393 -2.7298
 1845SOL    HW2 6435   6.670   2.200   3.411  1.7389  0.0560  1.7960
 1846SOL     OW 6436   2.695   1.838   1.562 -0.0612  0.5050  0.1888
 1846SOL    HW1 6437   2.625   1.864   1.629  0.9406  0.5143  1.2559
 1846SOL    HW2 6438   2.694   1.739   1.550 -0.3545  0.5190  0.0815
 1847SOL     OW 6439   1.550   5.557   0.823 -0.4470 -0.0225  0.1589
 1847SOL    HW1 6440   1.505   5.641   0.855  0.2047 -0.4220  2.3080
 1847SOL    HW2 6441   1.598   5.576   0.738 -1.3582  1.4570 -0.0738
 1848SOL     OW 6442   3.820   6.045   6.537  0.2643  0.4476  0.5084
 1848SOL    HW1 6443   3.848   5.981   6.608  0.2773  0.6970  0.7333
 1848SOL    HW2 6444   3.731   6.084   6.562 -0.3202 -0.3854 -0.2278
 1849SOL     OW 6445   3.888   1.829   1.392  0.7936  0.5012  0.2356
 1849SOL    HW1 6446   3.836   1.760   1.342 -0.3661  0.0038  2.0039
 1849SOL    HW2 6447   3.851   1.920   1.372 -0.5998  0.1800  1.2251
 1850SOL     OW 6448   4.411   6.864   6.036  0.5397  0.3521 -0.0993
 1850SOL    HW1 6449   4.485   6.820   6.087 -1.3470 -3.7872 -0.5313
 1850SOL    HW2 6450   4.325   6.852   6.086 -0.6066  0.5012 -1.9764
 1851SOL     OW 6451   6.897   6.549   3.682 -0.9728  0.0309  0.3856
 1851SOL    HW1 6452   6.854   6.627   3.727 -0.3988 -1.0433  2.9803
 1851SOL    HW2 6453   6.830   6.475   3.670 -0.7290 -0.2966  1.0284
 1852SOL     OW 6454   2.023   0.612   2.909  0.2807  0.4177 -1.0729
 1852SOL    HW1 6455   2.122   0.603   2.904  0.4359 -1.8729  2.3713
 1852SOL    HW2 6456   1.979   0.536   2.863  0.3878 -0.9770  0.9939
 1853SOL     OW 6457   1.513   2.280   4.323 -0.0924  0.5538  0.0987
 1853SOL    HW1 6458   1.458   2.350   4.278 -0.7938  0.4847  0.8271
 1853SOL    HW2 6459   1.500   2.192   4.276 -2.2450  0.0811  1.4850
 1854SOL     OW 6460   1.246   6.695   4.200  0.3263 -0.1852  0.2272
 1854SOL    HW1 6461   1.278   6.645   4.120  1.7491  1.6286 -0.3970
 1854SOL    HW2 6462   1.182   6.767   4.171 -2.7163 -2.3071  1.2299
 1855SOL     OW 6463   0.417   1.920   4.094  0.2750 -0.0422  0.8546
 1855SOL    HW1 6464   0.342   1.974   4.055  0.8375  0.5208  0.5340
 1855SOL    HW2 6465   0.466   1.874   4.020  0.3409 -0.2971  1.0541
 1856SOL     OW 6466   3.816   5.237   0.887  0.1021 -0.0974  0.1087
 1856SOL    HW1 6467   3.881   5.181   0.938  0.6740 -1.7635 -2.2310
 1856SOL    HW2 6468   3.725   5.198   0.896  0.4196 -1.2378 -1.1062
 1857SOL     OW 6469   4.893   0.919   3.705  0.4132  0.3193 -1.1962
 1857SOL    HW1 6470   4.854   0.971   3.629 -1.4887 -1.5302 -1.6063
 1857SOL    HW2 6471   4.925   0.830   3.670 -1.6894 -1.1077  0.2681
 1858SOL     OW 6472   4.626   1.339   4.146  0.2546 -0.7058  0.0908
 1858SOL    HW1 6473   4.697   1.385   4.200  0.5673 -2.4724  1.2572
 1858SOL    HW2 6474   4.539   1.345   4.193  0.0923 -0.5264 -0.2241
 1859SOL     OW 6475   0.098   6.841   2.550  0.1018  0.1632 -0.0577
 1859SOL    HW1 6476   0.080   6.818   2.645 -0.2373 -0.2675 -0.2222
 1859SOL    HW2 6477   0.163   6.917   2.545  1.4679 -0.9345  0.4901
 1860SOL     OW 6478   2.245   5.873   0.823  0.1349 -0.6504 -0.1018
 1860SOL    HW1 6479   2.293   5.913   0.744 -0.6606  0.2366 -0.1519
 1860SOL    HW2 6480   2.288   5.906   0.907  0.0454 -0.3916 -0.1550
 1861SOL     OW 6481   0.358   0.695   3.934 -0.0678  0.6935 -0.0143
 1861SOL    HW1 6482   0.311   0.637   3.868 -2.4840  1.1466  1.1995
 1861SOL    HW2 6483   0.421   0.640   3.990 -1.8529 -0.6956  0.7035
 1862SOL     OW 6484   3.546   5.999   3.707 -0.3994  0.2498  0.1567
 1862SOL    HW1 6485   3.504   5.987   3.617  2.6028  1.5271 -1.5577
 1862SOL    HW2 6486   3.589   5.913   3.735 -2.1886 -0.4376  0.9043
 1863SOL     OW 6487   5.511   1.447   0.599 -0.1751 -0.0038 -0.6566
 1863SOL    HW1 6488   5.498   1.529   0.655 -0.5136 -0.5397  0.0674
 1863SOL    HW2 6489   5.544   1.372   0.657  0.1711 -0.3741 -1.3173
 1864SOL     OW 6490   2.278   5.351   3.082  0.0553 -0.3155 -0.3637
 1864SOL    HW1 6491   2.250   5.256   3.070 -0.4599 -0.2968  0.5573
 1864SOL    HW2 6492   2.376   5.355   3.102  0.4288 -0.5097 -2.0373
 1865SOL     OW 6493   5.713   2.017   6.033  0.4670 -0.2082 -0.3427
 1865SOL    HW1 6494   5.766   2.043   6.114 -1.1244  1.2463  0.3115
 1865SOL    HW2 6495   5.674   1.927   6.046 -1.8521  0.9823  1.7195
 1866SOL     OW 6496   5.704   3.720   4.572  0.5305  0.4846 -0.1316
 1866SOL    HW1 6497   5.797   3.686   4.583 -0.0375 -0.8157  0.9794
 1866SOL    HW2 6498   5.639   3.651   4.604 -0.7318  2.2017  1.2532
 1867SOL     OW 6499   1.407   5.337   1.625  0.0259  0.3477 -0.1187
 1867SOL    HW1 6500   1.409   5.390   1.710 -2.1248  0.4563 -0.0829
 1867SOL    HW2 6501   1.327   5.278   1.624  1.2004 -1.3206 -1.1340
 1868SOL     OW 6502   6.013   2.664   0.485 -0.1133 -0.4441 -0.1753
 1868SOL    HW1 6503   5.964   2.654   0.398  0.7467 -0.8404 -0.6268
 1868SOL    HW2 6504   5.950   2.698   0.555 -0.5421  1.0000 -1.2215
 1869SOL     OW 6505   4.342   0.551   5.481  0.4285  0.2511  0.2448
 1869SOL    HW1 6506   4.247   0.526   5.463  0.6058 -0.9592  0.8643
 1869SOL    HW2 6507   4.379   0.492   5.554  1.9833 -0.0384 -0.7251
 1870SOL     OW 6508   4.377   1.237   6.841  0.1932  0.0029 -0.4121
 1870SOL    HW1 6509   4.326   1.294   6.905  1.1557  1.2004 -0.6668
 1870SOL    HW2 6510   4.445   1.183   6.891 -0.1364 -0.2830 -0.2662
 1871SOL     OW 6511   2.542   5.270   0.946  0.4588  0.1211  0.1428
 1871SOL    HW1 6512   2.602   5.324   1.005 -1.4928  2.3783  0.2443
 1871SOL    HW2 6513   2.515   5.325   0.867 -1.4282 -0.7861  0.1013
 1872SOL     OW 6514   2.594   3.818   6.294 -0.4430  0.6751  0.1316
 1872SOL    HW1 6515   2.537   3.889   6.336 -0.0182  0.4079  1.1985
 1872SOL    HW2 6516   2.552   3.787   6.209 -0.2849  2.6970 -0.7427
 1873SOL     OW 6517   6.065   0.602   3.389 -0.1477  0.1733  0.1325
 1873SOL    HW1 6518   5.977   0.647   3.401 -0.8431 -0.6494 -1.5059
 1873SOL    HW2 6519   6.136   0.671   3.375 -0.7321  0.8154  0.2866
 1874SOL     OW 6520   1.933   4.982   5.371 -0.1923 -0.2912  0.1127
 1874SOL    HW1 6521   1.888   4.905   5.416 -2.1305 -0.3316 -1.7652
 1874SOL    HW2 6522   2.011   4.949   5.317 -0.5201 -0.8134 -0.0412
 1875SOL     OW 6523   1.320   6.413   2.540  0.2521  0.1255  0.0989
 1875SOL    HW1 6524   1.273   6.449   2.460  0.9163  0.8618  0.0219
 1875SOL    HW2 6525   1.369   6.487   2.586  0.6025 -0.4516  0.6783
 1876SOL     OW 6526   2.562   4.253   5.739  0.3493 -0.0143  0.2046
 1876SOL    HW1 6527   2.498   4.270   5.814 -0.9515  0.0157 -0.8820
 1876SOL    HW2 6528   2.571   4.154   5.726 -0.1596 -0.0098 -0.2025
 1877SOL     OW 6529   1.041   2.848   3.911  0.3942 -0.3889 -0.1897
 1877SOL    HW1 6530   0.966   2.808   3.964  0.5400 -0.7446 -0.2458
 1877SOL    HW2 6531   1.084   2.776   3.856  0.4525 -0.0897 -0.5401
 1878SOL     OW 6532   6.030   4.621   2.150 -0.4997 -0.3080  0.8237
 1878SOL    HW1 6533   5.958   4.689   2.133 -0.8044 -0.8085  0.0285
 1878SOL    HW2 6534   6.066   4.633   2.242 -1.3631  0.1762  1.1137
 1879SOL     OW 6535   4.116   5.470   5.394  0.1285 -0.0416 -0.5060
 1879SOL    HW1 6536   4.152   5.416   5.471 -1.6768 -2.5286 -1.2596
 1879SOL    HW2 6537   4.189   5.528   5.357  1.1122  1.0849  2.8611
 1880SOL     OW 6538   1.396   3.709   3.531  0.8443  0.5997  0.0900
 1880SOL    HW1 6539   1.408   3.773   3.607 -2.1951  0.1159  1.1103
 1880SOL    HW2 6540   1.333   3.748   3.464 -0.0740 -0.7874  0.1083
 1881SOL     OW 6541   1.584   0.266   2.570 -0.0384 -0.5787 -0.2780
 1881SOL    HW1 6542   1.536   0.333   2.626  1.5470 -0.0237  0.4939
 1881SOL    HW2 6543   1.521   0.194   2.542 -1.3004  0.1236  0.6610
 1882SOL     OW 6544   5.580   0.056   0.299 -0.3072  0.3089  0.0292
 1882SOL    HW1 6545   5.659   0.044   0.239 -1.1626  0.4187 -1.1613
 1882SOL    HW2 6546   5.513  -0.016   0.281  0.3374 -0.9894  2.4385
 1883SOL     OW 6547   0.352   4.472   2.289 -0.3096 -0.6976  0.2338
 1883SOL    HW1 6548   0.345   4.558   2.239  1.6415 -0.5766  0.1022
 1883SOL    HW2 6549   0.340   4.396   2.226  1.8015 -0.5410 -0.4183
 1884SOL     OW 6550   4.652   0.998   1.366  0.1186  0.5239  0.6420
 1884SOL    HW1 6551   4.619   0.980   1.273 -0.4539  2.5131  0.4052
 1884SOL    HW2 6552   4.637   0.918   1.423  0.6036 -0.7945 -0.9991
 1885SOL     OW 6553   6.152   1.315   2.142 -0.0902 -0.4062  0.1948
 1885SOL    HW1 6554   6.121   1.332   2.048  3.0567 -0.9365 -1.0427
 1885SOL    HW2 6555   6.098   1.241   2.182 -1.7262  0.0574 -1.0248
 1886SOL     OW 6556   3.226   4.019   5.825  0.1781 -0.1355 -0.2685
 1886SOL    HW1 6557   3.253   4.107   5.865  0.9275  0.4382 -1.9474
 1886SOL    HW2 6558   3.154   4.034   5.758  0.1237 -0.8510 -0.3769
 1887SOL     OW 6559   1.893   5.345   4.932 -0.5972  0.1136 -0.7152
 1887SOL    HW1 6560   1.945   5.313   5.011  0.7439  0.4913 -1.4078
 1887SOL    HW2 6561   1.796   5.323   4.944 -0.6660  1.3789  1.6832
 1888SOL     OW 6562   1.341   1.253   5.076 -0.5982 -0.0415  0.4337
 1888SOL    HW1 6563   1.258   1.291   5.036  0.8225  0.1771 -2.5702
 1888SOL    HW2 6564   1.394   1.326   5.118  0.1433  0.7102 -1.6579
 1889SOL     OW 6565   4.517   2.526   5.142  0.0369  0.1074 -0.2404
 1889SOL    HW1 6566   4.485   2.584   5.217 -0.4978 -1.4392  0.7836
 1889SOL    HW2 6567   4.612   2.499   5.159 -0.7231 -2.0175  1.1256
 1890SOL     OW 6568   5.339   0.098   6.380 -0.3939 -0.4328 -0.0654
 1890SOL    HW1 6569   5.298   0.176   6.332  0.6025  0.4840  0.5271
 1890SOL    HW2 6570   5.422   0.069   6.332 -0.4850 -0.8048 -0.0011
 1891SOL     OW 6571   6.022   4.075   6.061  0.1034  0.0878 -0.2156
 1891SOL    HW1 6572   6.055   4.122   6.143  0.0248 -0.5711  0.1919
 1891SOL    HW2 6573   5.993   3.983   6.084  0.1249 -0.1206 -0.9952
 1892SOL     OW 6574   1.022   1.592   1.589  0.1859 -0.5224 -0.3407
 1892SOL    HW1 6575   1.071   1.510   1.618  0.3395 -0.1894  0.3765
 1892SOL    HW2 6576   1.048   1.669   1.648  0.8202  0.2916 -1.6246
 1893SOL     OW 6577   3.533   1.439   5.851 -0.4443  0.7413 -0.3470
 1893SOL    HW1 6578   3.487   1.368   5.904 -2.2975  1.4284 -0.9517
 1893SOL    HW2 6579   3.582   1.499   5.913 -1.0782  0.4819  0.4343
 1894SOL     OW 6580   3.016   3.116   1.639 -0.2493 -0.3094  0.5209
 1894SOL    HW1 6581   2.965   3.169   1.708  0.6132 -1.5117  2.1431
 1894SOL    HW2 6582   2.968   3.121   1.552 -2.3059 -0.1067  1.5960
 1895SOL     OW 6583   2.985   4.846   3.647 -0.1193  0.3698 -0.1456
 1895SOL    HW1 6584   2.985   4.818   3.552  1.1593 -0.2458  0.0193
 1895SOL    HW2 6585   3.049   4.922   3.660  3.1680 -2.3368  0.9361
 1896SOL     OW 6586   0.029   0.893   2.871  0.6107  0.3035  0.4717
 1896SOL    HW1 6587  -0.049   0.930   2.821  1.2544  0.7882 -0.1980
 1896SOL    HW2 6588   0.031   0.794   2.862 -1.7235 -0.1022  3.1424
 1897SOL     OW 6589   6.593   6.112   3.734 -0.5692  0.6851  0.1631
 1897SOL    HW1 6590   6.657   6.153   3.669 -0.6474  1.9079  0.8177
 1897SOL    HW2 6591   6.552   6.184   3.790 -1.2540 -0.2435  0.8956
 1898SOL     OW 6592   5.143   5.709   6.669  0.2484 -0.2603  0.4603
 1898SOL    HW1 6593   5.147   5.736   6.573  0.0087  2.4918  1.1319
 1898SOL    HW2 6594   5.147   5.610   6.676 -2.8392 -0.7624 -2.5404
 1899SOL     OW 6595   1.026   3.600   3.625 -0.5942 -0.4117  0.2878
 1899SOL    HW1 6596   0.947   3.604   3.563  0.2074  2.1667 -0.6953
 1899SOL    HW2 6597   1.005   3.650   3.709 -0.1308 -0.0412  0.1818
 1900SOL     OW 6598   2.637   6.191   0.626  0.5828 -0.1461 -0.0832
 1900SOL    HW1 6599   2.719   6.193   0.569  0.5087  1.7955 -0.1837
 1900SOL    HW2 6600   2.585   6.108   0.607 -0.0658  0.9452 -3.7295
 1901SOL     OW 6601   6.563   5.413   0.266  0.5571 -0.0126  0.3094
 1901SOL    HW1 6602   6.486   5.349   0.276  0.7060 -0.6151 -1.7941
 1901SOL    HW2 6603   6.595   5.411   0.171  2.0354  1.5552  0.7293
 1902SOL     OW 6604   6.359   3.147   5.995  0.1068  0.0846  0.7408
 1902SOL    HW1 6605   6.448   3.125   6.033  0.9508  0.4203 -0.9418
 1902SOL    HW2 6606   6.361   3.238   5.954  0.3771 -1.4738 -3.1074
 1903SOL     OW 6607   0.154   0.971   4.760  0.4079 -0.5630  0.1405
 1903SOL    HW1 6608   0.188   1.060   4.790 -0.8100 -0.5020  1.4123
 1903SOL    HW2 6609   0.055   0.977   4.743  0.6038 -1.2704 -1.3755
 1904SOL     OW 6610   1.841   0.460   5.203 -0.2163 -0.1319 -0.0417
 1904SOL    HW1 6611   1.916   0.469   5.269 -1.4455  0.5354  1.3332
 1904SOL    HW2 6612   1.821   0.550   5.163 -1.3636  0.0619  0.8927
 1905SOL     OW 6613   5.354   2.555   6.476  0.0394  0.2650  0.6975
 1905SOL    HW1 6614   5.391   2.646   6.494  1.8858  0.1003 -1.6551
 1905SOL    HW2 6615   5.423   2.486   6.497 -0.0471 -0.3080 -0.7683
 1906SOL     OW 6616   0.893   5.628   3.195  0.0897  0.3847  0.3132
 1906SOL    HW1 6617   0.881   5.556   3.127  0.0100  1.4613 -0.8481
 1906SOL    HW2 6618   0.822   5.619   3.265 -1.6412  0.9119 -1.2778
 1907SOL     OW 6619   3.957   1.179   0.539  0.7243  0.3996 -0.5158
 1907SOL    HW1 6620   3.870   1.224   0.558  1.2678  0.7184  1.4440
 1907SOL    HW2 6621   3.955   1.139   0.447 -2.1922 -1.2397  0.1506
 1908SOL     OW 6622   4.698   4.258   2.758 -0.0112 -0.6551  0.6401
 1908SOL    HW1 6623   4.660   4.282   2.668  0.8833 -0.6257  0.2549
 1908SOL    HW2 6624   4.788   4.215   2.745  0.4915  0.0879  1.5577
 1909SOL     OW 6625   5.684   4.782   3.680 -0.3376  0.4237  0.0311
 1909SOL    HW1 6626   5.784   4.781   3.678 -0.2550  2.2323  0.8541
 1909SOL    HW2 6627   5.653   4.800   3.774 -1.3706  1.4298 -0.4770
 1910SOL     OW 6628   6.183   4.629   5.676 -0.3662 -0.2023 -0.3726
 1910SOL    HW1 6629   6.159   4.533   5.662 -1.6686 -0.1117  0.9449
 1910SOL    HW2 6630   6.279   4.643   5.653 -0.3258 -1.6684 -1.2369
 1911SOL     OW 6631   0.256   2.313   4.394  0.9018  1.1165 -0.2941
 1911SOL    HW1 6632   0.195   2.251   4.345  0.9259  1.3085 -0.5735
 1911SOL    HW2 6633   0.268   2.282   4.488  1.3704  0.3721 -0.5925
 1912SOL     OW 6634   2.667   6.431   1.457  0.0056  0.0191 -0.3679
 1912SOL    HW1 6635   2.716   6.493   1.519 -1.2356 -0.6610  1.3687
 1912SOL    HW2 6636   2.691   6.336   1.478 -2.2580 -0.3598  0.8059
 1913SOL     OW 6637   4.100   3.193   0.094  0.0407  0.4311 -0.8076
 1913SOL    HW1 6638   4.161   3.127   0.138 -0.0898  0.0198 -1.2404
 1913SOL    HW2 6639   4.049   3.242   0.165  0.9388  0.8544 -0.4348
 1914SOL     OW 6640   4.482   2.477   3.874 -0.0613 -0.3521  0.3236
 1914SOL    HW1 6641   4.434   2.390   3.872 -0.0492 -0.3584  0.3049
 1914SOL    HW2 6642   4.504   2.505   3.780 -1.9912  0.7350  0.1447
 1915SOL     OW 6643   2.627   6.465   4.017 -0.0814  0.2547  0.2110
 1915SOL    HW1 6644   2.533   6.431   4.023  0.1052 -0.8577 -1.9440
 1915SOL    HW2 6645   2.626   6.560   3.986 -0.5087  0.3361  0.4713
 1916SOL     OW 6646   1.770   6.752   2.467  0.1810  0.4671 -0.3965
 1916SOL    HW1 6647   1.719   6.691   2.406  0.8902  0.4655 -1.0140
 1916SOL    HW2 6648   1.846   6.702   2.509 -2.1620 -0.4588  3.1216
 1917SOL     OW 6649   3.020   3.201   3.987 -0.2316  0.4470 -0.0432
 1917SOL    HW1 6650   3.032   3.120   3.929  0.2957  0.1093  0.5306
 1917SOL    HW2 6651   3.015   3.173   4.083 -0.1478  1.0879  0.1528
 1918SOL     OW 6652   1.602   1.075   0.419 -0.3903  0.7162  0.1420
 1918SOL    HW1 6653   1.515   1.025   0.420 -0.7377  1.3117  0.2709
 1918SOL    HW2 6654   1.649   1.063   0.507  1.3930 -2.5411 -1.0977
 1919SOL     OW 6655   5.774   1.138   6.995 -0.2281 -0.0344 -0.1883
 1919SOL    HW1 6656   5.719   1.079   7.053 -1.1394  0.6550 -0.3371
 1919SOL    HW2 6657   5.806   1.216   7.048  1.3693 -0.8620  0.1358
 1920SOL     OW 6658   6.602   6.504   3.683 -0.3153  0.0478 -0.1141
 1920SOL    HW1 6659   6.570   6.472   3.772  1.4052  1.8889  1.2633
 1920SOL    HW2 6660   6.584   6.602   3.674 -0.2481 -0.0519 -1.7182
 1921SOL     OW 6661   1.808   0.611   6.404 -0.1759 -0.4832  0.2401
 1921SOL    HW1 6662   1.774   0.674   6.474 -1.8899 -0.3768 -0.6363
 1921SOL    HW2 6663   1.792   0.517   6.434 -0.1549 -0.4524  0.3492
 1922SOL     OW 6664   3.587   6.920   1.647  0.0482 -0.4721  0.1168
 1922SOL    HW1 6665   3.609   6.827   1.676 -0.3883 -0.1505  1.5698
 1922SOL    HW2 6666   3.664   6.980   1.666  0.0328 -0.3909 -0.0743
 1923SOL     OW 6667   0.417   2.877   1.884  1.0635 -0.7534 -0.0518
 1923SOL    HW1 6668   0.408   2.784   1.849  0.8196 -0.1660 -1.6348
 1923SOL    HW2 6669   0.331   2.906   1.925  0.9202 -0.9624 -0.2074
 1924SOL     OW 6670   6.724   4.829   1.940  0.1144 -0.3005 -0.0593
 1924SOL    HW1 6671   6.729   4.896   2.014 -0.8688 -1.6825  1.3126
 1924SOL    HW2 6672   6.632   4.829   1.901  0.8173  0.9345 -1.8430
 1925SOL     OW 6673   3.373   4.126   6.997  0.1326 -0.4346 -0.5398
 1925SOL    HW1 6674   3.365   4.036   7.039  1.0521 -0.3833 -0.2241
 1925SOL    HW2 6675   3.460   4.133   6.948 -0.4587 -0.1338 -1.6036
 1926SOL     OW 6676   1.167   0.614   1.194 -0.0372 -0.4450  0.3474
 1926SOL    HW1 6677   1.109   0.533   1.193 -0.0724 -0.4130 -0.3967
 1926SOL    HW2 6678   1.241   0.603   1.128  0.2272 -0.0659  0.5761
 1927SOL     OW 6679   3.899   3.998   0.408 -0.5387 -0.4543 -0.5690
 1927SOL    HW1 6680   3.807   4.033   0.422  0.0714  0.6930  0.9772
 1927SOL    HW2 6681   3.965   4.065   0.443  0.7355 -2.7917  1.8906
 1928SOL     OW 6682   1.653   6.691   4.545  0.8802 -0.2041 -0.1785
 1928SOL    HW1 6683   1.580   6.659   4.485  0.6847 -1.0502  0.4934
 1928SOL    HW2 6684   1.614   6.717   4.634  1.5068 -1.6943  0.5628
 1929SOL     OW 6685   0.716   6.637   2.801 -0.0128 -0.9303 -0.4595
 1929SOL    HW1 6686   0.628   6.634   2.849  0.2644 -0.5340  0.0805
 1929SOL    HW2 6687   0.776   6.565   2.836  0.9370  0.6205  1.2995
 1930SOL     OW 6688   0.144   6.820   6.060 -0.3931  0.2147 -0.1422
 1930SOL    HW1 6689   0.090   6.748   6.015  1.1076 -0.0710 -1.6364
 1930SOL    HW2 6690   0.242   6.799   6.049  0.0561  1.7297  0.6911
 1931SOL     OW 6691   1.404   2.292   4.938  0.2407 -0.3923  0.5771
 1931SOL    HW1 6692   1.341   2.355   4.981  0.7254 -1.0476  2.3306
 1931SOL    HW2 6693   1.411   2.313   4.840  0.3113  2.1633  1.0649
 1932SOL     OW 6694   5.486   1.198   3.049  0.4553 -0.2388 -0.3062
 1932SOL    HW1 6695   5.500   1.169   3.144  0.2119  0.5666 -0.0122
 1932SOL    HW2 6696   5.429   1.280   3.047  1.6708  0.6323 -1.0479
 1933SOL     OW 6697   3.485   4.328   0.719  0.1109  0.0664 -0.2374
 1933SOL    HW1 6698   3.532   4.254   0.768 -1.1100  0.8327  2.2634
 1933SOL    HW2 6699   3.386   4.313   0.721 -0.1020  1.2877 -0.4930
 1934SOL     OW 6700   1.134   6.641   2.672  0.1458 -0.7532  0.6018
 1934SOL    HW1 6701   1.196   6.601   2.740  0.1885 -1.8582 -0.0651
 1934SOL    HW2 6702   1.188   6.677   2.595  0.1741  1.3622  1.5296
 1935SOL     OW 6703   1.946   1.427   1.923  0.3460 -0.5275 -0.4002
 1935SOL    HW1 6704   1.967   1.364   1.849  3.3115 -0.8011  0.5450
 1935SOL    HW2 6705   1.910   1.376   2.001  0.3122 -0.6728 -0.5104
 1936SOL     OW 6706   0.134   4.720   4.475  0.2437 -1.0822  0.3956
 1936SOL    HW1 6707   0.100   4.795   4.418  0.0611 -2.5211 -1.4509
 1936SOL    HW2 6708   0.150   4.755   4.568  1.0899  1.4746 -0.6163
 1937SOL     OW 6709   4.700   1.063   4.348  0.2549 -0.0408 -0.6599
 1937SOL    HW1 6710   4.690   1.159   4.376  0.5200 -0.3893  0.7152
 1937SOL    HW2 6711   4.610   1.019   4.347  0.2690 -0.0878 -0.0876
 1938SOL     OW 6712   5.240   0.829   5.199  0.1036 -0.4333  0.3352
 1938SOL    HW1 6713   5.247   0.785   5.109 -0.6668  0.8658 -0.3921
 1938SOL    HW2 6714   5.147   0.821   5.234  0.1518 -0.0897  0.5534
 1939SOL     OW 6715   4.745   0.164   5.705 -0.0448  0.3984 -0.6133
 1939SOL    HW1 6716   4.795   0.194   5.786 -0.4936  0.5727 -0.3969
 1939SOL    HW2 6717   4.651   0.142   5.730  0.6665 -2.9177 -0.3595
 1940SOL     OW 6718   0.091   1.499   0.618 -0.2282 -0.5268 -0.3243
 1940SOL    HW1 6719   0.184   1.520   0.649 -0.4943 -0.3832  0.3845
 1940SOL    HW2 6720   0.059   1.571   0.556 -0.2858 -0.0082  0.3086
 1941SOL     OW 6721   4.961   3.629   2.891 -0.8984 -0.2899 -0.2331
 1941SOL    HW1 6722   5.056   3.661   2.890  0.1603 -2.9617  1.4868
 1941SOL    HW2 6723   4.931   3.612   2.797  1.6665 -2.6536 -0.7880
 1942SOL     OW 6724   6.871   1.864   3.458 -0.4192 -0.2115  0.5725
 1942SOL    HW1 6725   6.907   1.771   3.450 -1.3254 -0.4549 -1.2691
 1942SOL    HW2 6726   6.881   1.896   3.552  1.5469 -1.4821  0.8431
 1943SOL     OW 6727   4.025   4.829   3.380 -0.3194  0.1710 -0.1080
 1943SOL    HW1 6728   4.094   4.757   3.382  0.6702  1.0925 -0.6156
 1943SOL    HW2 6729   4.012   4.865   3.473 -0.3004 -0.1632  0.0271
 1944SOL     OW 6730   6.166   0.103   0.582 -0.2369  0.0113 -0.6419
 1944SOL    HW1 6731   6.206   0.177   0.528 -1.4793  0.2561 -1.2528
 1944SOL    HW2 6732   6.168   0.127   0.679 -0.8708  0.9686 -0.8582
 1945SOL     OW 6733   3.642   5.887   3.225  0.4542 -0.1889 -0.3514
 1945SOL    HW1 6734   3.695   5.802   3.233  0.9545  0.0487 -0.9992
 1945SOL    HW2 6735   3.625   5.906   3.128 -0.3993  0.0033 -0.1721
 1946SOL     OW 6736   1.316   6.879   0.767 -0.1022 -0.2198 -0.1104
 1946SOL    HW1 6737   1.247   6.829   0.714 -1.8811  2.1906 -0.2786
 1946SOL    HW2 6738   1.387   6.913   0.705 -0.9364  0.6135 -0.6529
 1947SOL     OW 6739   4.781   0.639   3.845 -0.2470 -0.2420 -0.2150
 1947SOL    HW1 6740   4.870   0.624   3.890 -0.8285 -0.1712  1.0024
 1947SOL    HW2 6741   4.796   0.677   3.754  0.9733 -0.1502 -0.0006
 1948SOL     OW 6742   6.603   3.556   3.876  0.3896  0.0157 -0.2639
 1948SOL    HW1 6743   6.682   3.558   3.938  0.5464  2.6750 -0.4621
 1948SOL    HW2 6744   6.536   3.624   3.905 -0.7824 -0.5869 -1.4701
 1949SOL     OW 6745   3.280   5.524   0.677  0.3206 -0.0017  0.1004
 1949SOL    HW1 6746   3.326   5.598   0.727  0.3490  0.7278 -0.9695
 1949SOL    HW2 6747   3.184   5.522   0.702  0.0329  1.2493 -0.7672
 1950SOL     OW 6748   1.680   4.734   0.687  0.5250 -0.4624 -0.1318
 1950SOL    HW1 6749   1.690   4.689   0.598 -0.2340 -0.0803 -0.4162
 1950SOL    HW2 6750   1.762   4.718   0.741  1.5140  0.3003 -1.3498
 1951SOL     OW 6751   6.034   2.467   6.897 -0.1005  0.0464  0.5582
 1951SOL    HW1 6752   6.097   2.492   6.970 -0.5057 -1.6081  1.5213
 1951SOL    HW2 6753   6.061   2.513   6.812  2.9512 -1.2315  0.7092
 1952SOL     OW 6754   3.526   3.615   3.702  0.6450  0.2114 -0.1224
 1952SOL    HW1 6755   3.444   3.658   3.665  1.0626 -0.5192 -2.0438
 1952SOL    HW2 6756   3.505   3.573   3.790 -0.8254  0.6844 -0.2157
 1953SOL     OW 6757   0.541   2.040   4.314 -0.3638  0.2266  0.0725
 1953SOL    HW1 6758   0.501   1.969   4.372 -0.5419 -1.3941 -1.9159
 1953SOL    HW2 6759   0.530   2.014   4.218  1.3586  2.0059 -0.6679
 1954SOL     OW 6760   1.405   0.862   3.749  0.1251 -0.4692 -0.6621
 1954SOL    HW1 6761   1.362   0.950   3.727 -1.5871 -1.5543 -1.8423
 1954SOL    HW2 6762   1.490   0.853   3.696 -0.2271  0.0191 -1.3264
 1955SOL     OW 6763   4.814   6.197   1.833 -0.0850  0.1872 -0.2290
 1955SOL    HW1 6764   4.747   6.272   1.837  0.1899  0.4134  0.1036
 1955SOL    HW2 6765   4.846   6.187   1.738 -0.9909 -0.2833 -0.5012
 1956SOL     OW 6766   3.970   5.148   3.493  0.2297 -0.0375  0.1211
 1956SOL    HW1 6767   4.069   5.147   3.476  0.1315 -4.3037 -1.5166
 1956SOL    HW2 6768   3.947   5.073   3.554 -2.0826  0.6146  0.1123
 1957SOL     OW 6769   0.357   6.965   6.903 -0.4067 -0.5977  0.3250
 1957SOL    HW1 6770   0.284   7.033   6.907  0.9875  1.0720 -1.2101
 1957SOL    HW2 6771   0.388   6.943   6.995 -0.5460  1.2457  0.8323
 1958SOL     OW 6772   2.448   1.342   6.550 -0.2172  0.3019 -0.1250
 1958SOL    HW1 6773   2.510   1.413   6.583 -0.8359  0.2798  1.1570
 1958SOL    HW2 6774   2.491   1.253   6.558  0.1267  0.4132 -0.6514
 1959SOL     OW 6775   2.473   0.067   1.474  0.1023  0.5182 -0.6301
 1959SOL    HW1 6776   2.490   0.160   1.507  1.9602  0.4377 -1.2345
 1959SOL    HW2 6777   2.477   0.003   1.550 -2.8934  1.0415  0.0881
 1960SOL     OW 6778   6.343   5.167   1.446  0.6462  0.4392  0.4558
 1960SOL    HW1 6779   6.389   5.079   1.462  0.3762  0.5053  1.6473
 1960SOL    HW2 6780   6.396   5.241   1.486  0.1831  0.6665  0.6623
 1961SOL     OW 6781   5.245   6.126   5.596 -0.2086  0.4205  0.2401
 1961SOL    HW1 6782   5.305   6.047   5.606  0.1946  0.8049  0.9017
 1961SOL    HW2 6783   5.153   6.095   5.572  0.3008 -0.1567 -1.0323
 1962SOL     OW 6784   0.281   0.674   4.593  1.5014  0.5683 -0.0618
 1962SOL    HW1 6785   0.184   0.685   4.612  1.4919 -0.4805  0.5745
 1962SOL    HW2 6786   0.319   0.761   4.561  0.1610  0.7213 -1.2761
 1963SOL     OW 6787   3.779   0.315   6.402 -0.5736  0.0145  0.1104
 1963SOL    HW1 6788   3.700   0.293   6.459 -0.4278 -2.4199 -0.5149
 1963SOL    HW2 6789   3.862   0.310   6.456 -0.6701  0.9023  0.3699
 1964SOL     OW 6790   6.687   3.639   3.618 -0.7999 -0.3154 -0.5140
 1964SOL    HW1 6791   6.666   3.616   3.713  0.8184  2.3723  0.6020
 1964SOL    HW2 6792   6.638   3.723   3.592 -1.3309 -1.0865 -2.1314
 1965SOL     OW 6793   0.726   6.892   1.323  0.4173  0.0976  0.3001
 1965SOL    HW1 6794   0.662   6.884   1.399  2.1565 -0.8429  1.7643
 1965SOL    HW2 6795   0.741   6.988   1.300 -0.4079  0.3699  0.9076
 1966SOL     OW 6796   0.276   6.896   0.743  0.0894  0.1460  0.0754
 1966SOL    HW1 6797   0.182   6.882   0.710 -0.5247 -1.7814  2.3018
 1966SOL    HW2 6798   0.274   6.920   0.840  1.8899  0.6697  0.0178
 1967SOL     OW 6799   2.085   1.512   5.723 -0.5457  0.6205 -0.1078
 1967SOL    HW1 6800   2.157   1.504   5.655 -0.1945  0.8859  0.2291
 1967SOL    HW2 6801   2.023   1.587   5.697 -0.6671  0.4327 -0.3639
 1968SOL     OW 6802   5.719   6.971   5.379  0.7134  0.4580  0.1005
 1968SOL    HW1 6803   5.764   6.915   5.448  0.0320 -0.9497 -0.5554
 1968SOL    HW2 6804   5.620   6.974   5.398  0.4375 -0.3941 -1.0822
 1969SOL     OW 6805   6.146   0.373   1.909  0.1748 -0.3017  0.3188
 1969SOL    HW1 6806   6.220   0.414   1.856  1.1541 -0.2957  1.6268
 1969SOL    HW2 6807   6.167   0.276   1.925 -1.0047 -0.7757 -0.8099
 1970SOL     OW 6808   1.888   0.261   5.016  0.1085 -0.2187  0.1253
 1970SOL    HW1 6809   1.984   0.266   5.041 -0.4008 -0.6682  2.4696
 1970SOL    HW2 6810   1.839   0.337   5.060 -0.7214 -0.4180 -0.4332
 1971SOL     OW 6811   6.971   1.674   4.465  0.1551 -0.2041  0.4707
 1971SOL    HW1 6812   7.065   1.690   4.435 -0.6647  0.9391 -1.7085
 1971SOL    HW2 6813   6.916   1.756   4.446 -1.3810 -0.9859  1.3432
 1972SOL     OW 6814   1.151   6.254   4.308 -0.2513  0.3379 -0.6987
 1972SOL    HW1 6815   1.076   6.229   4.369 -0.1805 -1.1467 -1.1803
 1972SOL    HW2 6816   1.121   6.242   4.213  1.0825 -1.8601 -0.8904
 1973SOL     OW 6817   4.446   1.668   1.477 -0.3058  0.1488  0.6890
 1973SOL    HW1 6818   4.518   1.735   1.496  0.6492 -0.5537 -0.2958
 1973SOL    HW2 6819   4.434   1.660   1.378 -0.5406 -0.9876  0.7965
 1974SOL     OW 6820   6.252   6.503   3.905 -0.2351 -0.0158 -0.4134
 1974SOL    HW1 6821   6.185   6.443   3.949  0.8768  0.4442  2.1132
 1974SOL    HW2 6822   6.234   6.598   3.931  1.8579  0.0366  1.1272
 1975SOL     OW 6823   3.519   1.336   3.575  0.7463  0.3497  0.0539
 1975SOL    HW1 6824   3.461   1.348   3.494  1.3426  1.0252 -0.2837
 1975SOL    HW2 6825   3.613   1.318   3.546  1.0707  1.1285  0.5812
 1976SOL     OW 6826   5.827   2.765   5.353 -0.2177  0.4231  0.2924
 1976SOL    HW1 6827   5.754   2.796   5.293 -0.4783 -0.9554 -0.1333
 1976SOL    HW2 6828   5.890   2.705   5.303  0.3211  0.3349  1.0433
 1977SOL     OW 6829   3.424   2.188   5.220 -0.7972  0.4870  0.6079
 1977SOL    HW1 6830   3.350   2.255   5.221 -1.5063  0.0144 -3.4578
 1977SOL    HW2 6831   3.399   2.109   5.277 -2.4158  1.3034  1.0752
 1978SOL     OW 6832   1.654   1.922   6.654  0.1567  0.0271 -0.6416
 1978SOL    HW1 6833   1.566   1.926   6.608 -0.1579 -1.4884 -0.2429
 1978SOL    HW2 6834   1.720   1.875   6.596  0.4105  0.2299 -0.5173
 1979SOL     OW 6835   5.428   3.271   6.038  0.0586  0.1758  0.3441
 1979SOL    HW1 6836   5.519   3.312   6.043 -0.3049  1.0053  0.3989
 1979SOL    HW2 6837   5.434   3.181   5.995  0.7989  0.5546 -0.3748
 1980SOL     OW 6838   2.304   1.793   2.108  0.3649  0.6782 -0.2114
 1980SOL    HW1 6839   2.234   1.730   2.075  2.4712 -1.5862 -0.6394
 1980SOL    HW2 6840   2.291   1.808   2.206 -0.2119 -0.4277 -0.0952
 1981SOL     OW 6841   5.155   3.203   3.324 -0.3794 -0.4480  0.0721
 1981SOL    HW1 6842   5.180   3.289   3.369 -0.0890 -0.7645  0.5245
 1981SOL    HW2 6843   5.073   3.217   3.269 -0.4295  0.0785  0.2729
 1982SOL     OW 6844   1.117   6.237   5.826  0.0041 -0.2082  0.3605
 1982SOL    HW1 6845   1.041   6.267   5.884 -0.4285  1.3279 -0.9281
 1982SOL    HW2 6846   1.106   6.277   5.734  2.5290  0.3132  0.2284
 1983SOL     OW 6847   2.962   5.897   1.896  0.2253  1.0437  0.0742
 1983SOL    HW1 6848   2.898   5.833   1.852 -0.2596 -0.0049  2.1434
 1983SOL    HW2 6849   3.036   5.919   1.833 -0.9147  0.4009 -1.5672
 1984SOL     OW 6850   3.982   2.734   5.853  0.4329  0.4899  0.0393
 1984SOL    HW1 6851   3.959   2.810   5.793  1.2778  1.2739  0.6911
 1984SOL    HW2 6852   4.081   2.727   5.863  0.3342 -0.1494  0.6894
 1985SOL     OW 6853   0.168   5.206   2.581  0.2784 -0.1876 -0.3704
 1985SOL    HW1 6854   0.167   5.285   2.642  1.4677 -0.4649  0.0389
 1985SOL    HW2 6855   0.161   5.238   2.486  1.2713  0.4658 -0.2432
 1986SOL     OW 6856   6.921   1.728   2.924  0.4040  0.0540 -0.1402
 1986SOL    HW1 6857   6.999   1.725   2.862  0.0437  0.5861 -0.6355
 1986SOL    HW2 6858   6.928   1.654   2.991  1.6959  0.5392  0.2734
 1987SOL     OW 6859   1.547   2.489   5.068 -0.0760 -0.2904 -0.0667
 1987SOL    HW1 6860   1.515   2.399   5.039  1.0799 -0.4743 -0.8420
 1987SOL    HW2 6861   1.552   2.550   4.989  0.9080 -0.1122  0.1183
 1988SOL     OW 6862   4.194   2.284   1.882 -0.2151  0.5172 -0.1747
 1988SOL    HW1 6863   4.157   2.250   1.969  0.4953 -0.2041 -0.1462
 1988SOL    HW2 6864   4.122   2.283   1.813 -0.0253 -1.9378 -0.4191
 1989SOL     OW 6865   1.055   4.214   4.905  0.4067  0.4528 -0.0328
 1989SOL    HW1 6866   1.103   4.148   4.848  0.4844 -0.6511  1.2757
 1989SOL    HW2 6867   1.063   4.188   5.001 -1.8151  0.8677  0.3201
 1990SOL     OW 6868   6.071   6.472   5.551  0.1727 -0.5205 -0.6916
 1990SOL    HW1 6869   6.111   6.544   5.494  1.1799 -1.0866 -0.7201
 1990SOL    HW2 6870   6.009   6.416   5.496  0.9266 -0.8950 -1.1621
 1991SOL     OW 6871   5.952   3.967   0.988 -0.6007  0.7145 -0.1356
 1991SOL    HW1 6872   5.954   3.872   1.020 -0.3097  0.6677 -0.2889
 1991SOL    HW2 6873   5.913   4.025   1.060 -0.9989  0.4459 -0.1324
 1992SOL     OW 6874   2.460   5.773   6.308 -0.2743  0.2736  0.3936
 1992SOL    HW1 6875   2.529   5.762   6.237  2.1618  0.7802  2.5046
 1992SOL    HW2 6876   2.451   5.869   6.333 -0.9780  0.0966  0.8859
 1993SOL     OW 6877   3.282   2.943   4.078  0.2655 -0.6426  0.4385
 1993SOL    HW1 6878   3.257   2.892   4.160  0.4121  1.3710  1.8011
 1993SOL    HW2 6879   3.354   3.008   4.100  0.3488 -0.0881 -1.3188
 1994SOL     OW 6880   0.027   2.510   0.854  0.1199 -0.0233 -0.7880
 1994SOL    HW1 6881   0.086   2.501   0.934 -0.9147  0.7370  0.0904
 1994SOL    HW2 6882   0.017   2.420   0.810 -1.2184 -1.0263  1.3691
 1995SOL     OW 6883   4.164   2.552   1.709  0.2332  1.0699 -0.1286
 1995SOL    HW1 6884   4.232   2.547   1.636 -0.5422 -0.7666 -0.7752
 1995SOL    HW2 6885   4.210   2.538   1.797  0.6635 -1.0289 -0.6182
 1996SOL     OW 6886   1.956   5.476   6.234 -0.1395 -0.6872  0.2193
 1996SOL    HW1 6887   1.996   5.469   6.143 -1.4726  0.1646 -0.4540
 1996SOL    HW2 6888   1.950   5.572   6.261 -0.0077 -0.9133  1.0978
 1997SOL     OW 6889   0.710   6.502   5.257 -0.5611  0.1064  0.0952
 1997SOL    HW1 6890   0.749   6.584   5.298 -1.0296  0.3147  0.1329
 1997SOL    HW2 6891   0.650   6.528   5.182 -0.5443 -0.2166 -0.0329
 1998SOL     OW 6892   2.391   5.413   4.135  0.6403 -0.3851  0.2052
 1998SOL    HW1 6893   2.452   5.337   4.156  0.5883 -1.0033 -1.6673
 1998SOL    HW2 6894   2.348   5.397   4.046  0.1387  1.5374  0.0642
 1999SOL     OW 6895   2.829   6.277   3.967  0.7358  0.0641 -0.0596
 1999SOL    HW1 6896   2.755   6.343   3.980  0.8580 -0.1971  2.5304
 1999SOL    HW2 6897   2.911   6.324   3.936  0.1483  0.7102 -0.6813
 2000SOL     OW 6898   1.754   2.124   0.819 -0.3043 -0.1753 -0.8147
 2000SOL    HW1 6899   1.690   2.200   0.810 -0.3675  0.2404  2.1855
 2000SOL    HW2 6900   1.843   2.151   0.783 -0.1663  1.5996  0.7349
 2001SOL     OW 6901   1.086   3.215   6.648 -0.6477  0.2369  0.5167
 2001SOL    HW1 6902   0.993   3.185   6.668 -0.2678  0.1174  2.3142
 2001SOL    HW2 6903   1.086   3.313   6.629 -1.4383 -0.1865 -2.0219
 2002SOL     OW 6904   2.208   5.940   6.052  0.1849  0.1058 -0.3519
 2002SOL    HW1 6905   2.295   5.937   6.004  1.4198 -0.1380  1.7985
 2002SOL    HW2 6906   2.199   5.859   6.110 -0.9262  0.7230  0.3696
 2003SOL     OW 6907   0.091   1.996   3.721 -0.9740  0.0989  0.2225
 2003SOL    HW1 6908   0.055   2.062   3.656 -0.9077  0.5962  0.6891
 2003SOL    HW2 6909   0.015   1.944   3.762 -0.9980 -0.4343 -0.4672
 2004SOL     OW 6910   3.521   1.529   0.494 -0.3208  0.3384 -0.2444
 2004SOL    HW1 6911   3.618   1.522   0.520 -0.5252  0.1835  0.4994
 2004SOL    HW2 6912   3.488   1.621   0.515 -0.3826  0.3312 -0.3131
 2005SOL     OW 6913   2.528   6.150   5.971 -0.1995  0.0181 -0.1165
 2005SOL    HW1 6914   2.571   6.061   5.991  0.6269  0.5593  0.5853
 2005SOL    HW2 6915   2.514   6.200   6.056  0.4666  1.0703 -0.6112
 2006SOL     OW 6916   4.995   1.412   2.444 -0.1933 -0.1729  0.2790
 2006SOL    HW1 6917   5.051   1.392   2.364 -0.9955  2.0036 -0.9255
 2006SOL    HW2 6918   4.987   1.331   2.501  2.4715 -1.1086 -0.5310
 2007SOL     OW 6919   5.491   4.891   6.430  0.2161  0.5727 -0.7778
 2007SOL    HW1 6920   5.427   4.967   6.435 -1.2913 -0.7107  1.1800
 2007SOL    HW2 6921   5.548   4.900   6.349 -2.2151  1.9767 -2.4446
 2008SOL     OW 6922   1.624   5.266   4.896 -0.4806 -0.4368 -0.1166
 2008SOL    HW1 6923   1.620   5.167   4.889  0.4827 -0.5284  0.5788
 2008SOL    HW2 6924   1.594   5.306   4.809  2.6185 -1.4120 -1.8091
 2009SOL     OW 6925   0.483   5.569   0.397 -0.2378 -0.1081  0.1173
 2009SOL    HW1 6926   0.528   5.486   0.364  0.9347  0.2386  0.8056
 2009SOL    HW2 6927   0.510   5.587   0.491 -0.8225  0.8221  0.1176
 2010SOL     OW 6928   1.419   1.435   1.408  0.1051 -0.1808 -0.4247
 2010SOL    HW1 6929   1.384   1.342   1.415 -0.3913  0.1193  1.6359
 2010SOL    HW2 6930   1.508   1.441   1.453  0.3890  0.2170 -1.0344
 2011SOL     OW 6931   0.039   3.192   3.190  0.9684  0.1128 -0.1838
 2011SOL    HW1 6932   0.018   3.098   3.165 -0.4173 -0.0735  1.4716
 2011SOL    HW2 6933   0.135   3.198   3.217  0.9814 -0.9156  0.0392
 2012SOL     OW 6934   6.173   4.556   2.622  0.1217  0.2324 -0.4438
 2012SOL    HW1 6935   6.155   4.633   2.560 -0.6325  0.0700 -0.4380
 2012SOL    HW2 6936   6.119   4.567   2.706 -1.2021 -1.0622 -1.0793
 2013SOL     OW 6937   3.512   2.107   2.272  0.1690 -0.0519 -0.6619
 2013SOL    HW1 6938   3.428   2.128   2.222  1.3527  1.1447 -2.2791
 2013SOL    HW2 6939   3.590   2.112   2.209  1.7798  1.7086  1.3127
 2014SOL     OW 6940   4.645   5.931   2.765  0.0820  0.1668 -0.0297
 2014SOL    HW1 6941   4.690   5.868   2.828  0.5964  0.9182  0.3668
 2014SOL    HW2 6942   4.656   6.024   2.798 -0.5421  0.4821 -0.6903
 2015SOL     OW 6943   3.588   6.089   5.606  0.0628  0.3534  0.4632
 2015SOL    HW1 6944   3.631   6.155   5.668 -1.9525  1.7244  0.5075
 2015SOL    HW2 6945   3.530   6.138   5.540 -1.2595 -1.3374  0.2923
 2016SOL     OW 6946   0.334   4.092   5.447 -0.6934 -0.2551 -0.1359
 2016SOL    HW1 6947   0.268   4.041   5.392 -1.9735  0.2515  0.8966
 2016SOL    HW2 6948   0.289   4.168   5.493  0.6009  0.0928  0.6273
 2017SOL     OW 6949   2.086   3.341   0.453 -0.0187 -0.5730  0.2602
 2017SOL    HW1 6950   2.137   3.255   0.463  2.1011  0.5113 -0.6043
 2017SOL    HW2 6951   2.006   3.339   0.512  0.5389 -2.7263  1.0431
 2018SOL     OW 6952   0.041   3.318   5.765  0.1888 -0.2566 -0.0248
 2018SOL    HW1 6953   0.043   3.410   5.803  1.7171 -0.4012  0.3255
 2018SOL    HW2 6954  -0.011   3.317   5.680 -0.6364  0.7178  0.4514
 2019SOL     OW 6955   5.456   0.094   1.864 -0.1376 -0.3025  0.1155
 2019SOL    HW1 6956   5.387   0.122   1.931  0.5146 -0.6293  0.9542
 2019SOL    HW2 6957   5.424   0.014   1.814 -1.3749  0.9774 -1.2299
 2020SOL     OW 6958   2.148   6.265   2.236 -0.4539 -0.6158 -0.4900
 2020SOL    HW1 6959   2.086   6.342   2.252 -1.8152 -1.9118  0.8563
 2020SOL    HW2 6960   2.193   6.240   2.322  0.4732 -0.9261 -1.0518
 2021SOL     OW 6961   2.993   1.830   1.395  0.2280 -0.7206 -0.2388
 2021SOL    HW1 6962   3.036   1.875   1.473 -2.5599  1.3864  0.2603
 2021SOL    HW2 6963   3.054   1.834   1.316  1.1685  1.6411  0.5156
 2022SOL     OW 6964   6.176   5.668   2.207  0.1104 -0.1361 -0.4069
 2022SOL    HW1 6965   6.244   5.595   2.198  1.4257  1.0968 -0.7054
 2022SOL    HW2 6966   6.115   5.667   2.127  1.2574  0.2165 -1.3018
 2023SOL     OW 6967   6.099   1.633   4.940  0.3215 -0.1179 -0.1146
 2023SOL    HW1 6968   6.161   1.683   4.878  0.9938 -0.6647  0.1055
 2023SOL    HW2 6969   6.054   1.560   4.889 -0.3960  0.4824 -0.3531
 2024SOL     OW 6970   6.319   6.271   4.649  0.1281  0.3894 -0.4305
 2024SOL    HW1 6971   6.220   6.284   4.642 -0.1340 -1.5981 -1.2122
 2024SOL    HW2 6972   6.349   6.206   4.579  1.7163 -0.4046  0.9128
 2025SOL     OW 6973   5.350   0.919   0.358  0.4947 -0.4281 -0.5454
 2025SOL    HW1 6974   5.382   1.013   0.346  0.3438 -0.1309  1.1975
 2025SOL    HW2 6975   5.251   0.916   0.348  0.4372 -0.2915 -0.0420
 2026SOL     OW 6976   2.380   2.614   5.205  0.2629  0.1230  0.1883
 2026SOL    HW1 6977   2.416   2.634   5.114  0.7655 -0.4433  0.2535
 2026SOL    HW2 6978   2.358   2.699   5.252 -3.4957  0.4384 -1.7969
 2027SOL     OW 6979   6.636   0.132   3.821 -0.7382  0.1699  0.4888
 2027SOL    HW1 6980   6.672   0.083   3.900 -0.3138  0.3616  0.4123
 2027SOL    HW2 6981   6.578   0.070   3.767  0.6959 -0.5883 -0.2313
 2028SOL     OW 6982   4.000   3.597   5.940 -0.0750  0.0564  0.0766
 2028SOL    HW1 6983   4.017   3.603   5.842 -0.3157  1.1907  0.0857
 2028SOL    HW2 6984   4.053   3.521   5.979  1.3487  0.6314 -0.6539
 2029SOL     OW 6985   0.911   0.508   5.579  0.5923 -0.0810 -0.1651
 2029SOL    HW1 6986   0.820   0.522   5.541  0.1265 -0.6524  0.7259
 2029SOL    HW2 6987   0.931   0.581   5.644 -0.0343 -1.0044  1.1065
 2030SOL     OW 6988   1.811   1.771   2.500 -0.4396  0.0891 -0.1235
 2030SOL    HW1 6989   1.723   1.746   2.539 -0.6235  1.5080  0.4465
 2030SOL    HW2 6990   1.809   1.867   2.473  0.3076 -0.3599 -1.9116
 2031SOL     OW 6991   5.961   0.706   2.663 -0.1039  0.3678  0.3067
 2031SOL    HW1 6992   5.928   0.676   2.753  1.1597 -1.3012  0.2640
 2031SOL    HW2 6993   5.887   0.752   2.614 -1.3074 -0.1664  1.5467
 2032SOL     OW 6994   5.100   0.486   3.704  0.0598  0.0835  0.5564
 2032SOL    HW1 6995   5.062   0.423   3.637 -1.0130  0.6956  0.5798
 2032SOL    HW2 6996   5.157   0.435   3.769  1.6838 -0.4381 -1.1672
 2033SOL     OW 6997   5.989   5.614   6.854 -0.3844 -0.4001  0.4460
 2033SOL    HW1 6998   6.045   5.692   6.825  0.1591 -1.0458 -0.2823
 2033SOL    HW2 6999   5.979   5.550   6.779 -1.3215 -0.7632  0.8630
 2034SOL     OW 7000   3.665   5.080   2.268  0.4165 -0.3336  0.1828
 2034SOL    HW1 7001   3.623   4.993   2.241 -0.7750 -0.2312  1.5814
 2034SOL    HW2 7002   3.625   5.154   2.214  0.9410 -0.5642 -0.5352
 2035SOL     OW 7003   1.874   2.542   3.848  0.2897  0.2090  0.5660
 2035SOL    HW1 7004   1.922   2.531   3.761  1.3664 -0.2216  1.2071
 2035SOL    HW2 7005   1.776   2.524   3.834  0.5635 -0.6125 -0.3939
 2036SOL     OW 7006   1.221   4.881   2.593 -0.2605  0.2931 -0.0315
 2036SOL    HW1 7007   1.295   4.873   2.527  1.9837 -0.2406  2.3696
 2036SOL    HW2 7008   1.227   4.969   2.639  0.4074 -0.6389  1.7823
 2037SOL     OW 7009   5.227   1.694   5.167 -0.2611 -0.0427 -0.6319
 2037SOL    HW1 7010   5.200   1.604   5.132  1.7971 -0.1585 -2.0952
 2037SOL    HW2 7011   5.257   1.752   5.091 -0.0265  1.3392  0.4707
 2038SOL     OW 7012   1.455   0.037   5.036  0.0011 -0.1688 -0.5355
 2038SOL    HW1 7013   1.534   0.056   4.978 -0.0526  1.6821 -0.0859
 2038SOL    HW2 7014   1.373   0.030   4.980  0.3303 -1.1017 -0.9134
 2039SOL     OW 7015   0.369   5.278   1.753  0.5142  0.2821  0.4240
 2039SOL    HW1 7016   0.455   5.230   1.768  0.7091  0.4305 -0.1956
 2039SOL    HW2 7017   0.304   5.217   1.708  0.6146  0.4603  0.0352
 2040SOL     OW 7018   3.506   3.909   4.399 -0.4862  0.3627 -0.7144
 2040SOL    HW1 7019   3.605   3.898   4.387  0.5505  3.6597  2.7820
 2040SOL    HW2 7020   3.472   3.974   4.331  0.3845  1.3034 -0.2792
 2041SOL     OW 7021   4.069   2.805   1.476  0.4457 -0.0059 -0.1468
 2041SOL    HW1 7022   4.113   2.715   1.478  1.1844  0.3516 -0.0547
 2041SOL    HW2 7023   4.128   2.872   1.519 -0.5697  0.3359  0.7558
 2042SOL     OW 7024   4.577   6.336   1.470 -0.2713  0.4414 -0.3272
 2042SOL    HW1 7025   4.564   6.270   1.544 -0.4313  0.2100 -0.5647
 2042SOL    HW2 7026   4.501   6.331   1.406 -0.2314  0.7813 -0.4063
 2043SOL     OW 7027   4.649   4.953   4.050 -0.2776  0.7278 -0.4668
 2043SOL    HW1 7028   4.625   4.884   4.118  1.8357  0.3566 -0.0334
 2043SOL    HW2 7029   4.687   4.909   3.969 -1.7367  1.2423 -1.4842
 2044SOL     OW 7030   0.707   1.281   1.637  0.4126  0.2836  0.2037
 2044SOL    HW1 7031   0.680   1.326   1.722 -0.8220 -1.3251  0.7037
 2044SOL    HW2 7032   0.736   1.188   1.656 -0.3776 -0.2821 -1.2030
 2045SOL     OW 7033   4.468   4.772   6.912  0.0536 -0.1365 -0.4144
 2045SOL    HW1 7034   4.537   4.720   6.863  1.0200  0.2035  0.5454
 2045SOL    HW2 7035   4.483   4.762   7.011 -2.3407 -1.5217 -0.0850
 2046SOL     OW 7036   6.246   0.598   4.791  0.5369 -0.6922 -0.3033
 2046SOL    HW1 7037   6.213   0.504   4.805 -0.5963 -0.1613  0.8016
 2046SOL    HW2 7038   6.173   0.653   4.751  0.3682  0.2750  1.2512
 2047SOL     OW 7039   3.658   1.953   6.562  0.1341 -0.0718  0.7886
 2047SOL    HW1 7040   3.689   1.912   6.648 -1.4636  0.5238  1.6843
 2047SOL    HW2 7041   3.558   1.946   6.556  0.3308 -2.0662 -2.0629
 2048SOL     OW 7042   4.883   6.864   6.938 -0.3719 -0.2554  0.0487
 2048SOL    HW1 7043   4.885   6.808   7.021  0.1002 -0.0026  0.2113
 2048SOL    HW2 7044   4.825   6.944   6.955 -0.0461 -0.0554  0.2361
 2049SOL     OW 7045   0.407   5.256   6.792  0.2938 -0.1523 -0.0120
 2049SOL    HW1 7046   0.333   5.309   6.751  0.4001  1.4804  1.7796
 2049SOL    HW2 7047   0.369   5.173   6.834 -0.1769 -0.4661 -1.0311
 2050SOL     OW 7048   6.709   5.882   3.890 -0.2235  0.2084  0.1041
 2050SOL    HW1 7049   6.645   5.885   3.967  0.1254 -0.9054  0.4626
 2050SOL    HW2 7050   6.668   5.925   3.810 -0.3497  1.9560  1.0792
 2051SOL     OW 7051   4.311   5.407   0.282 -0.3364 -0.2342 -0.6493
 2051SOL    HW1 7052   4.340   5.332   0.223 -0.5765 -2.1360  1.5049
 2051SOL    HW2 7053   4.375   5.483   0.273 -0.2810 -0.4791 -3.1586
 2052SOL     OW 7054   1.772   3.519   2.200 -0.0384 -0.2757  0.0584
 2052SOL    HW1 7055   1.769   3.579   2.279 -0.0157 -1.8997  1.3425
 2052SOL    HW2 7056   1.819   3.434   2.224  0.0894 -0.7574 -1.7403
 2053SOL     OW 7057   4.806   2.068   5.577 -0.1328 -0.1742  0.7347
 2053SOL    HW1 7058   4.872   2.070   5.502 -1.3453  1.6560 -0.3338
 2053SOL    HW2 7059   4.783   1.973   5.598 -0.4298 -0.7426 -1.8184
 2054SOL     OW 7060   0.059   2.154   0.307  0.1851  0.1019  0.3081
 2054SOL    HW1 7061   0.017   2.111   0.387 -1.6781 -0.1088 -0.7354
 2054SOL    HW2 7062   0.092   2.082   0.246  1.8531  0.2640  0.9612
 2055SOL     OW 7063   6.980   0.875   3.418 -0.1796 -0.5937 -0.1638
 2055SOL    HW1 7064   6.951   0.958   3.370  0.9363 -0.7465 -1.1407
 2055SOL    HW2 7065   7.041   0.899   3.494 -1.0922 -0.4345  0.5466
 2056SOL     OW 7066   0.513   1.955   3.132 -0.0239  0.0997  0.0376
 2056SOL    HW1 7067   0.587   1.954   3.065 -1.6072 -0.5409 -1.8014
 2056SOL    HW2 7068   0.461   1.870   3.125 -1.0106  0.5772  1.2105
 2057SOL     OW 7069   4.317   1.786   3.702 -0.2519  0.6046  0.1061
 2057SOL    HW1 7070   4.374   1.850   3.650  0.0671 -0.9841 -1.6084
 2057SOL    HW2 7071   4.231   1.831   3.727  0.2556  1.9136 -0.4101
 2058SOL     OW 7072   1.966   1.116   1.354  0.4795  0.5735 -0.1859
 2058SOL    HW1 7073   1.964   1.060   1.437  0.5020  0.5171 -0.2233
 2058SOL    HW2 7074   2.058   1.150   1.339  0.6214  0.0467 -0.5449
 2059SOL     OW 7075   1.613   0.663   0.547 -0.0900  0.8601  0.2223
 2059SOL    HW1 7076   1.664   0.710   0.475  0.5214 -0.9379 -0.5626
 2059SOL    HW2 7077   1.515   0.671   0.529  0.0592 -0.8241 -1.7282
 2060SOL     OW 7078   1.145   5.334   3.973  0.4906 -0.4388 -0.2474
 2060SOL    HW1 7079   1.156   5.432   3.992  0.9210 -0.6874  0.8621
 2060SOL    HW2 7080   1.225   5.301   3.922  0.5565 -0.3032 -0.2323
 2061SOL     OW 7081   1.227   0.970   0.697  0.4180 -0.1743  0.4572
 2061SOL    HW1 7082   1.223   1.045   0.630 -0.6045 -1.9272 -1.5746
 2061SOL    HW2 7083   1.187   1.000   0.783 -3.4754  0.6092 -1.4148
 2062SOL     OW 7084   3.312   0.284   2.848 -0.3133 -0.1259  0.6230
 2062SOL    HW1 7085   3.251   0.208   2.830 -0.4633  0.0584  0.3477
 2062SOL    HW2 7086   3.358   0.270   2.936  1.1060 -1.4766 -0.2840
 2063SOL     OW 7087   2.113   3.965   2.126  0.2775 -0.1082 -0.6489
 2063SOL    HW1 7088   2.103   3.876   2.082  0.8763 -0.4368 -0.1423
 2063SOL    HW2 7089   2.092   4.038   2.060 -1.5219 -0.6285 -0.7058
 2064SOL     OW 7090   5.604   0.060   6.585 -0.4313 -0.1768  0.0504
 2064SOL    HW1 7091   5.567  -0.012   6.645  0.8532  0.0648  1.1706
 2064SOL    HW2 7092   5.681   0.104   6.630  0.0827  0.5461 -1.4893
 2065SOL     OW 7093   0.772   4.560   2.905  0.7392  0.1736 -0.3058
 2065SOL    HW1 7094   0.720   4.636   2.867  0.1361 -0.5566 -0.9774
 2065SOL    HW2 7095   0.858   4.594   2.944 -1.1743  1.7925  2.9062
 2066SOL     OW 7096   6.558   6.152   2.635  0.3016  0.4213  0.1404
 2066SOL    HW1 7097   6.465   6.115   2.644 -0.2311  1.9571  1.3625
 2066SOL    HW2 7098   6.566   6.198   2.547 -0.5883  1.4968  0.5906
 2067SOL     OW 7099   0.177   1.673   6.584 -0.2088 -0.4216  0.3169
 2067SOL    HW1 7100   0.246   1.682   6.656  1.6884 -0.6451 -1.4000
 2067SOL    HW2 7101   0.210   1.611   6.513 -0.9447  1.6188 -1.9388
 2068SOL     OW 7102   3.162   1.083   5.593 -0.3646  1.1126 -0.3929
 2068SOL    HW1 7103   3.256   1.100   5.623 -0.2282 -0.0329 -0.1587
 2068SOL    HW2 7104   3.102   1.076   5.673 -0.1096 -1.2818 -0.3413
 2069SOL     OW 7105   0.611   3.793   1.554 -0.0938 -0.3458 -0.2365
 2069SOL    HW1 7106   0.571   3.731   1.486  0.8831 -0.6737 -0.5223
 2069SOL    HW2 7107   0.699   3.826   1.522 -0.6497  1.3202 -0.1464
 2070SOL     OW 7108   0.283   2.267   2.132  0.2074 -0.1701 -0.1834
 2070SOL    HW1 7109   0.321   2.285   2.223  2.5361 -1.1721 -0.8857
 2070SOL    HW2 7110   0.270   2.168   2.121 -0.0280 -0.0566 -0.9444
 2071SOL     OW 7111   3.081   5.260   5.735 -0.1605 -0.2993 -0.5438
 2071SOL    HW1 7112   3.147   5.227   5.803  0.7304 -0.3773 -1.4372
 2071SOL    HW2 7113   3.101   5.355   5.712  2.4411 -1.4992 -4.0058
 2072SOL     OW 7114   5.499   4.991   4.328  0.2061  0.5265 -0.0391
 2072SOL    HW1 7115   5.512   5.053   4.406  1.6567 -1.2528  1.2207
 2072SOL    HW2 7116   5.402   4.970   4.318  0.0726 -0.0971  2.0626
 2073SOL     OW 7117   1.999   6.548   6.364 -0.4025  0.1037  0.3554
 2073SOL    HW1 7118   2.038   6.542   6.456  1.9978  1.8453 -0.4788
 2073SOL    HW2 7119   1.899   6.549   6.371 -0.3699 -2.1950  2.7386
 2074SOL     OW 7120   4.628   1.882   3.117 -0.6271 -1.0687  0.1827
 2074SOL    HW1 7121   4.566   1.843   3.049 -1.4374 -2.0130  1.4287
 2074SOL    HW2 7122   4.690   1.810   3.150  2.7003  0.2380 -2.5583
 2075SOL     OW 7123   3.341   2.256   0.621  0.6106  0.3984 -0.1570
 2075SOL    HW1 7124   3.376   2.183   0.680  0.3844  2.0531  2.1633
 2075SOL    HW2 7125   3.387   2.342   0.643 -1.6678  1.7114 -0.1708
 2076SOL     OW 7126   3.524   0.376   6.737 -0.6182 -0.4375  0.0903
 2076SOL    HW1 7127   3.476   0.345   6.819  1.4765  2.3964  2.6615
 2076SOL    HW2 7128   3.499   0.471   6.718  0.7742 -0.2677 -1.0388
 2077SOL     OW 7129   4.249   0.765   5.337  0.4848 -0.0494  0.0789
 2077SOL    HW1 7130   4.286   0.706   5.409  0.3837 -1.1462 -0.7532
 2077SOL    HW2 7131   4.318   0.780   5.267 -0.2834 -1.3088 -0.9923
 2078SOL     OW 7132   4.081   5.847   4.333 -0.0446 -0.5472 -0.2198
 2078SOL    HW1 7133   4.143   5.811   4.403 -0.1024 -0.1409  0.0395
 2078SOL    HW2 7134   4.069   5.945   4.346 -0.8704 -0.6488 -0.1721
 2079SOL     OW 7135   3.806   6.259   3.257  0.3189  0.5950 -0.3420
 2079SOL    HW1 7136   3.803   6.161   3.280  1.5671  0.6044 -0.0959
 2079SOL    HW2 7137   3.768   6.272   3.165 -2.6917  0.2874  0.7369
 2080SOL     OW 7138   4.088   2.178   3.698 -0.8030 -0.2286  0.6602
 2080SOL    HW1 7139   4.011   2.193   3.636  0.6271  1.9975 -0.7500
 2080SOL    HW2 7140   4.067   2.218   3.788 -1.8492 -1.0026  0.7696
 2081SOL     OW 7141   1.178   0.538   4.890 -0.3723  0.6320  0.0127
 2081SOL    HW1 7142   1.209   0.545   4.795 -0.2487 -3.6232 -0.4436
 2081SOL    HW2 7143   1.249   0.495   4.945 -1.0056  1.7323  1.7674
 2082SOL     OW 7144   4.486   6.216   1.940 -0.1598  0.2457 -0.7283
 2082SOL    HW1 7145   4.558   6.232   2.008  0.0727 -1.3126 -0.5534
 2082SOL    HW2 7146   4.449   6.303   1.909 -1.0069  1.0316  2.1812
 2083SOL     OW 7147   4.245   6.271   6.281  0.4883 -0.3001  0.6586
 2083SOL    HW1 7148   4.246   6.201   6.353 -2.5026 -0.7827  0.3976
 2083SOL    HW2 7149   4.184   6.240   6.207  1.6544  1.2054 -1.0058
 2084SOL     OW 7150   5.663   3.695   3.878 -0.6430  0.3399  0.6421
 2084SOL    HW1 7151   5.615   3.738   3.956  0.2418 -1.6262  2.3628
 2084SOL    HW2 7152   5.686   3.601   3.902 -0.1688 -0.2696 -1.9980
 2085SOL     OW 7153   0.227   6.060   0.602  0.1480  0.7337  0.2950
 2085SOL    HW1 7154   0.133   6.031   0.621  1.0889 -1.1317  2.6638
 2085SOL    HW2 7155   0.259   6.015   0.519 -0.3041 -0.5692  0.7994
 2086SOL     OW 7156   3.750   6.077   0.415 -0.0162 -0.1732  0.2104
 2086SOL    HW1 7157   3.812   6.154   0.434 -0.0512  0.0540 -0.5776
 2086SOL    HW2 7158   3.662   6.112   0.384 -0.7580 -0.4749  1.8605
 2087SOL     OW 7159   5.112   6.544   1.208 -0.3042  0.3190 -0.7398
 2087SOL    HW1 7160   5.166   6.479   1.154  1.6239  1.7487 -0.6558
 2087SOL    HW2 7161   5.171   6.620   1.236 -2.2868  1.7133 -0.1765
 2088SOL     OW 7162   2.065   5.452   1.545  0.8359 -0.2899  0.1252
 2088SOL    HW1 7163   2.093   5.440   1.450  1.6618 -1.2279  0.4687
 2088SOL    HW2 7164   2.062   5.363   1.590 -1.6432 -0.1427  0.4310
 2089SOL     OW 7165   1.584   6.319   5.853 -0.1868  0.0240  0.2004
 2089SOL    HW1 7166   1.625   6.228   5.867 -0.0091 -0.2098 -1.6185
 2089SOL    HW2 7167   1.506   6.330   5.914 -1.7046 -2.3424 -1.1667
 2090SOL     OW 7168   3.832   3.957   3.131  0.0365  0.0205  0.1138
 2090SOL    HW1 7169   3.813   3.867   3.170 -2.0632  0.6485  0.6853
 2090SOL    HW2 7170   3.775   4.025   3.176  0.0189  1.3109 -1.7501
 2091SOL     OW 7171   2.213   4.744   0.770 -0.4322 -0.2120  0.1294
 2091SOL    HW1 7172   2.263   4.672   0.722  1.1669  0.4676  0.7102
 2091SOL    HW2 7173   2.163   4.799   0.703  1.0940  0.2206 -0.7080
 2092SOL     OW 7174   0.464   0.703   1.564  0.3449  0.4967  0.6696
 2092SOL    HW1 7175   0.408   0.673   1.487  1.6569 -0.7376  0.1493
 2092SOL    HW2 7176   0.484   0.801   1.555  0.6158  0.3426 -0.6659
 2093SOL     OW 7177   6.168   1.499   1.185  0.1375  0.2590 -0.2676
 2093SOL    HW1 7178   6.099   1.539   1.125  0.7975  0.5141 -0.8605
 2093SOL    HW2 7179   6.229   1.441   1.132  0.8085  0.5932  0.1256
 2094SOL     OW 7180   2.755   1.085   1.503  0.0475  0.1879  0.9626
 2094SOL    HW1 7181   2.818   1.010   1.524 -0.5963 -0.0658  2.0558
 2094SOL    HW2 7182   2.735   1.136   1.586 -0.4254  0.8615  0.4444
 2095SOL     OW 7183   6.070   6.721   3.648  0.4421 -0.3800  0.1388
 2095SOL    HW1 7184   6.151   6.774   3.673  1.0190 -0.1171 -2.0796
 2095SOL    HW2 7185   6.093   6.623   3.648  0.4495 -0.3778  0.5781
 2096SOL     OW 7186   6.739   2.973   3.495  0.8856  0.7306 -0.3360
 2096SOL    HW1 7187   6.796   3.038   3.445  0.3527  2.0151  0.6439
 2096SOL    HW2 7188   6.676   3.023   3.554 -1.3609 -0.6120 -1.4441
 2097SOL     OW 7189   6.496   3.756   6.985  0.3360 -0.3317  0.1536
 2097SOL    HW1 7190   6.402   3.734   7.012 -0.3279  1.6853 -0.3691
 2097SOL    HW2 7191   6.521   3.847   7.019  0.8887  0.6053 -2.4922
 2098SOL     OW 7192   5.289   0.304   5.406  0.0269  0.6294  0.2293
 2098SOL    HW1 7193   5.290   0.256   5.494  3.1728 -3.1566 -1.5760
 2098SOL    HW2 7194   5.208   0.276   5.354  0.0461 -0.0310  0.5400
 2099SOL     OW 7195   3.231   1.836   1.199  0.0358  0.0808 -0.0133
 2099SOL    HW1 7196   3.262   1.900   1.128  0.6717  0.3451  0.4936
 2099SOL    HW2 7197   3.210   1.748   1.157  1.4235 -0.0927 -0.3938
 2100SOL     OW 7198   4.511   4.444   4.477  0.4501  0.1121 -0.5922
 2100SOL    HW1 7199   4.513   4.346   4.456 -0.0972  0.0740 -0.4674
 2100SOL    HW2 7200   4.443   4.489   4.419 -0.6508  0.1065  0.6723
 2101SOL     OW 7201   4.558   6.152   1.674  0.0391 -0.0324  0.0547
 2101SOL    HW1 7202   4.621   6.075   1.670  1.1201  0.8642 -1.0788
 2101SOL    HW2 7203   4.510   6.151   1.762 -1.6410 -3.2148 -0.7359
 2102SOL     OW 7204   6.230   3.737   0.990  0.3534  0.1234 -0.6534
 2102SOL    HW1 7205   6.171   3.725   1.069  1.1837 -0.3530 -0.0846
 2102SOL    HW2 7206   6.283   3.654   0.975  0.5203  0.3603 -1.4537
 2103SOL     OW 7207   5.142   6.072   0.920  0.5671 -0.3560  0.1137
 2103SOL    HW1 7208   5.061   6.014   0.907  0.5084 -0.6637  1.7328
 2103SOL    HW2 7209   5.175   6.063   1.014  3.8188 -1.9964 -1.0133
 2104SOL     OW 7210   5.287   5.673   0.102  0.1231  0.6255 -0.0902
 2104SOL    HW1 7211   5.198   5.632   0.084  0.0525  0.8901 -0.3450
 2104SOL    HW2 7212   5.312   5.658   0.197 -0.5961  1.3150  0.2180
 2105SOL     OW 7213   6.116   5.087   2.093 -0.0727  0.0500  0.0248
 2105SOL    HW1 7214   6.174   5.026   2.039  0.1155 -0.9781  1.3614
 2105SOL    HW2 7215   6.135   5.074   2.190 -3.8264 -1.7304  0.6831
 2106SOL     OW 7216   6.184   0.648   0.005  0.0992  0.0363  0.0433
 2106SOL    HW1 7217   6.219   0.563   0.044  0.7744  0.7273  0.9942
 2106SOL    HW2 7218   6.247   0.683  -0.064  0.5725  0.5126  0.7019
 2107SOL     OW 7219   2.779   6.348   6.010 -0.2391  0.1546  0.0799
 2107SOL    HW1 7220   2.765   6.427   6.070  0.6313  0.0436  0.4358
 2107SOL    HW2 7221   2.799   6.267   6.065 -2.3552 -0.6309 -0.2015
 2108SOL     OW 7222   4.658   3.491   5.973  0.6478  0.6018  0.3283
 2108SOL    HW1 7223   4.731   3.429   5.999 -0.0012  0.1083  1.0086
 2108SOL    HW2 7224   4.639   3.482   5.875 -0.1303 -1.0267  0.6088
 2109SOL     OW 7225   4.631   5.566   3.180  0.2126 -0.5372  0.1721
 2109SOL    HW1 7226   4.724   5.604   3.179 -0.3984  1.0933 -1.2999
 2109SOL    HW2 7227   4.579   5.608   3.254  0.5924 -1.3746  0.9324
 2110SOL     OW 7228   1.153   6.020   5.431 -0.0071 -0.7382  0.0223
 2110SOL    HW1 7229   1.095   6.097   5.460  0.5955 -0.3213  0.1225
 2110SOL    HW2 7230   1.171   6.027   5.333  1.0065 -0.0894  0.2351
 2111SOL     OW 7231   2.482   2.460   6.092  0.2349 -0.2614  0.3049
 2111SOL    HW1 7232   2.543   2.404   6.149 -0.1298 -1.2418 -0.2522
 2111SOL    HW2 7233   2.389   2.455   6.129  0.3911  0.8834  0.8971
 2112SOL     OW 7234   5.438   2.853   0.847 -0.3132 -0.2638 -0.0405
 2112SOL    HW1 7235   5.357   2.801   0.819 -1.3049  0.4051  1.4254
 2112SOL    HW2 7236   5.469   2.820   0.936  0.3278  0.2486 -0.0681
 2113SOL     OW 7237   6.185   6.449   4.295 -0.0748  0.0001  0.4115
 2113SOL    HW1 7238   6.188   6.525   4.231 -0.4290 -1.1131 -0.9790
 2113SOL    HW2 7239   6.246   6.468   4.372  1.7486  0.6485 -1.0892
 2114SOL     OW 7240   1.019   3.306   6.048 -0.4003 -0.0404 -0.1431
 2114SOL    HW1 7241   0.996   3.398   6.016  1.3131  0.0086 -1.3633
 2114SOL    HW2 7242   1.040   3.309   6.146  0.1523  0.9820 -0.2760
 2115SOL     OW 7243   2.801   6.395   0.765 -0.7970  0.6237 -0.3103
 2115SOL    HW1 7244   2.868   6.466   0.741 -1.8189  1.3775 -1.0328
 2115SOL    HW2 7245   2.800   6.326   0.693  0.8098 -0.6398  0.7955
 2116SOL     OW 7246   6.783   2.972   3.924  0.0609 -0.0066  0.1477
 2116SOL    HW1 7247   6.764   2.880   3.959 -1.3241  0.2518  0.1191
 2116SOL    HW2 7248   6.882   2.988   3.925  0.3056 -1.4209  0.3256
 2117SOL     OW 7249   5.856   6.086   5.856  0.2237  0.6985  0.0848
 2117SOL    HW1 7250   5.793   6.074   5.780  0.7675 -0.4267 -0.2001
 2117SOL    HW2 7251   5.861   6.002   5.909  2.5831  0.2443 -0.7425
 2118SOL     OW 7252   5.091   4.048   1.149  0.2150 -0.2918  0.1025
 2118SOL    HW1 7253   5.109   3.997   1.233  0.0308 -1.5435 -0.5930
 2118SOL    HW2 7254   5.172   4.044   1.090  1.2073  2.5113  1.1252
 2119SOL     OW 7255   4.016   6.954   1.835  0.0178 -0.1268 -0.3983
 2119SOL    HW1 7256   4.115   6.946   1.849  0.3767 -0.9127 -2.9059
 2119SOL    HW2 7257   3.968   6.911   1.912  1.5744  0.7260  1.1220
 2120SOL     OW 7258   5.806   3.713   6.935  0.0781 -0.1221  0.3344
 2120SOL    HW1 7259   5.876   3.649   6.965  1.2726  0.0805 -1.8570
 2120SOL    HW2 7260   5.761   3.678   6.853 -0.5214  1.0025  0.1648
 2121SOL     OW 7261   1.886   3.542   3.758  0.3103 -0.0329  0.0666
 2121SOL    HW1 7262   1.841   3.528   3.845 -1.6525  1.8563 -0.5402
 2121SOL    HW2 7263   1.843   3.485   3.688 -1.3398  1.8291 -0.5291
 2122SOL     OW 7264   2.332   5.981   5.353 -0.7604 -0.2042 -0.3105
 2122SOL    HW1 7265   2.356   6.051   5.420 -1.8531  0.7715 -0.9061
 2122SOL    HW2 7266   2.246   5.937   5.380  0.0402 -1.5348  0.1975
 2123SOL     OW 7267   4.712   6.174   3.720 -0.2777  0.2906  0.1890
 2123SOL    HW1 7268   4.644   6.150   3.790 -0.0835  0.1438  0.3272
 2123SOL    HW2 7269   4.785   6.106   3.720  0.1151  0.7139  0.3633
 2124SOL     OW 7270   1.401   4.391   0.503  0.2104 -0.2634  0.1342
 2124SOL    HW1 7271   1.349   4.313   0.468 -0.7358 -0.1464  1.2060
 2124SOL    HW2 7272   1.361   4.475   0.465 -0.4927 -0.1659  1.0556
 2125SOL     OW 7273   5.933   5.218   5.775  0.1547  0.2222  0.1130
 2125SOL    HW1 7274   5.942   5.134   5.829 -0.4799  1.4061  2.1646
 2125SOL    HW2 7275   5.838   5.228   5.744  0.2362  0.1623 -0.1549
 2126SOL     OW 7276   3.428   1.480   1.927 -0.6505 -0.0822 -0.3354
 2126SOL    HW1 7277   3.392   1.574   1.919 -0.7020  0.1373  1.8727
 2126SOL    HW2 7278   3.507   1.470   1.866 -0.6500  1.3946 -0.6373
 2127SOL     OW 7279   4.744   2.455   4.241 -0.6062  0.1970 -0.1058
 2127SOL    HW1 7280   4.807   2.491   4.309  0.4019 -1.8644  0.1156
 2127SOL    HW2 7281   4.656   2.503   4.248 -0.5243  0.0708  2.6307
 2128SOL     OW 7282   0.795   4.431   5.826 -0.1802 -0.5004 -0.0045
 2128SOL    HW1 7283   0.730   4.415   5.751 -0.8045 -3.5641  1.0398
 2128SOL    HW2 7284   0.808   4.529   5.838 -3.7220  0.2572 -1.0430
 2129SOL     OW 7285   4.376   2.714   5.272 -0.3769 -0.3475 -0.5636
 2129SOL    HW1 7286   4.316   2.662   5.211  0.5575  0.5309 -2.3045
 2129SOL    HW2 7287   4.329   2.798   5.301 -0.4035 -0.1929 -1.0412
 2130SOL     OW 7288   6.683   4.533   4.316 -0.4028  0.2953  0.2891
 2130SOL    HW1 7289   6.614   4.559   4.384 -0.3684  0.5033  0.2442
 2130SOL    HW2 7290   6.727   4.615   4.281 -1.1941  0.2613 -0.8123
 2131SOL     OW 7291   5.070   1.051   5.835 -0.5118 -0.0531 -0.0889
 2131SOL    HW1 7292   5.047   1.146   5.813  1.9714  0.4366 -0.8929
 2131SOL    HW2 7293   5.108   1.006   5.754  0.8140 -0.8871  0.9500
 2132SOL     OW 7294   0.376   2.855   2.829  0.1842  0.1359  0.2947
 2132SOL    HW1 7295   0.427   2.875   2.912  1.0475 -1.4684  0.1892
 2132SOL    HW2 7296   0.303   2.922   2.817  2.2575  2.5256  0.4162
 2133SOL     OW 7297   2.965   2.930   5.842 -0.5755  0.1405 -0.4480
 2133SOL    HW1 7298   2.931   2.840   5.870 -2.2573  0.8864  0.0317
 2133SOL    HW2 7299   2.912   2.962   5.764  1.3923 -0.1441 -1.9892
 2134SOL     OW 7300   1.081   0.362   1.819  0.2009  0.2586 -0.5759
 2134SOL    HW1 7301   1.028   0.312   1.888  1.2226  0.9365  0.7494
 2134SOL    HW2 7302   1.174   0.377   1.852  0.3681  1.6800 -1.5915
 2135SOL     OW 7303   0.050   5.951   3.544 -0.4333 -0.2569 -0.6254
 2135SOL    HW1 7304  -0.020   5.883   3.521  0.0488 -0.5239 -1.3496
 2135SOL    HW2 7305   0.074   6.003   3.461 -2.2630  2.2199  0.2871
 2136SOL     OW 7306   1.508   6.631   5.331  0.5139  0.0691  0.3658
 2136SOL    HW1 7307   1.554   6.669   5.411  2.0131  1.3057 -1.0209
 2136SOL    HW2 7308   1.506   6.699   5.258  2.0674 -1.9710 -1.7437
 2137SOL     OW 7309   2.673   5.893   3.664 -0.0893 -0.0675  0.1797
 2137SOL    HW1 7310   2.669   5.908   3.565  0.4771 -0.8403  0.0252
 2137SOL    HW2 7311   2.725   5.967   3.707 -1.6376  1.1017  0.1126
 2138SOL     OW 7312   4.489   3.090   1.652  0.3098 -0.2876  0.2835
 2138SOL    HW1 7313   4.553   3.108   1.578  0.5291  0.3336  0.6233
 2138SOL    HW2 7314   4.538   3.051   1.730 -0.0266 -1.6069 -0.1352
 2139SOL     OW 7315   3.080   6.166   6.269  0.4129  0.0931  0.1621
 2139SOL    HW1 7316   3.149   6.150   6.198  0.3898  0.3717  0.0777
 2139SOL    HW2 7317   3.051   6.078   6.307  3.0410  0.0241  2.3580
 2140SOL     OW 7318   1.455   2.423   4.068 -1.0647  0.4356 -0.2987
 2140SOL    HW1 7319   1.380   2.357   4.064 -0.4147 -0.5864  2.3007
 2140SOL    HW2 7320   1.538   2.381   4.032 -0.3577 -0.7613  2.4501
 2141SOL     OW 7321   5.571   3.016   1.549 -0.4725  0.8741  0.0980
 2141SOL    HW1 7322   5.613   2.995   1.637 -2.5184  0.7459  1.1078
 2141SOL    HW2 7323   5.508   2.943   1.524 -0.6481  1.3849 -1.0010
 2142SOL     OW 7324   2.348   0.573   2.167 -0.2791  0.3152  0.3843
 2142SOL    HW1 7325   2.267   0.519   2.187 -0.8010 -0.5161 -3.2460
 2142SOL    HW2 7326   2.347   0.600   2.071  3.8825  0.0327  0.0689
 2143SOL     OW 7327   6.850   5.852   4.994 -0.6257 -0.1894  0.1730
 2143SOL    HW1 7328   6.894   5.913   5.060 -0.2397 -1.3050  0.9784
 2143SOL    HW2 7329   6.914   5.833   4.920 -1.2472  1.4966 -0.8446
 2144SOL     OW 7330   5.806   5.183   3.089  0.5339  0.3196 -0.4160
 2144SOL    HW1 7331   5.758   5.099   3.112 -1.3644  1.2427 -0.8114
 2144SOL    HW2 7332   5.855   5.217   3.169 -1.3506  0.5229  0.7118
 2145SOL     OW 7333   1.869   6.031   3.724 -0.7341 -0.2585  0.0745
 2145SOL    HW1 7334   1.903   5.972   3.797 -1.4075 -0.8634 -0.0913
 2145SOL    HW2 7335   1.786   5.991   3.684 -0.5920  0.2548 -0.7653
 2146SOL     OW 7336   0.858   1.889   5.602  0.3733  0.2331  0.4121
 2146SOL    HW1 7337   0.905   1.970   5.565 -2.7178  1.8457 -0.3497
 2146SOL    HW2 7338   0.859   1.892   5.701 -1.7072  2.5917  0.4370
 2147SOL     OW 7339   5.997   0.971   5.974 -0.1239  0.1667  0.2242
 2147SOL    HW1 7340   5.957   0.885   5.944 -1.7514  0.8274  0.4113
 2147SOL    HW2 7341   5.935   1.017   6.037 -0.2984  2.4424 -1.4443
 2148SOL     OW 7342   2.126   3.156   5.035  0.4332 -0.1556  0.4756
 2148SOL    HW1 7343   2.203   3.095   5.056 -0.8923 -1.4710  1.7597
 2148SOL    HW2 7344   2.075   3.118   4.958 -0.9041 -1.2233  1.8308
 2149SOL     OW 7345   4.995   5.513   1.116  0.5733 -0.1618 -0.1351
 2149SOL    HW1 7346   5.038   5.436   1.069 -0.5930 -0.5962 -0.5352
 2149SOL    HW2 7347   4.927   5.479   1.181  1.7833  0.4544  1.5313
 2150SOL     OW 7348   1.167   2.328   0.698 -0.3491 -0.2693 -0.5473
 2150SOL    HW1 7349   1.069   2.311   0.694 -0.9667  2.7652 -1.0553
 2150SOL    HW2 7350   1.185   2.423   0.674  2.5143 -0.0893  1.7541
 2151SOL     OW 7351   1.234   5.185   5.856  0.0579  0.4215 -0.4813
 2151SOL    HW1 7352   1.155   5.235   5.820 -0.8702 -1.4006 -1.1388
 2151SOL    HW2 7353   1.275   5.236   5.931 -1.0800  1.9283 -0.8393
 2152SOL     OW 7354   5.084   6.413   4.245  0.0297  0.3630  0.7728
 2152SOL    HW1 7355   5.097   6.452   4.336  0.8373 -0.3350  0.9659
 2152SOL    HW2 7356   5.154   6.344   4.227 -1.2508 -0.8794  0.3567
 2153SOL     OW 7357   2.125   0.476   3.168  0.4308  0.2698  0.4585
 2153SOL    HW1 7358   2.103   0.378   3.170 -1.5041  0.6430  2.4979
 2153SOL    HW2 7359   2.086   0.517   3.085 -0.5596 -0.3637  0.5855
 2154SOL     OW 7360   1.217   5.150   1.622  0.2267 -0.1679 -0.0182
 2154SOL    HW1 7361   1.278   5.107   1.690  1.7649 -1.7921 -2.2981
 2154SOL    HW2 7362   1.126   5.111   1.630  0.0629  0.4618  1.7840
 2155SOL     OW 7363   0.400   0.606   0.903 -0.4160 -0.3940 -0.5843
 2155SOL    HW1 7364   0.339   0.536   0.866 -3.1206  2.0623 -1.1786
 2155SOL    HW2 7365   0.345   0.680   0.942  2.2712  1.4697 -0.1064
 2156SOL     OW 7366   0.410   2.332   3.182 -0.3394  0.1286  0.1948
 2156SOL    HW1 7367   0.372   2.417   3.220  0.7823  0.5948  0.3059
 2156SOL    HW2 7368   0.335   2.269   3.161 -1.0857  0.4067  1.8453
 2157SOL     OW 7369   3.171   5.903   3.991  0.2367  0.1607 -0.9367
 2157SOL    HW1 7370   3.261   5.941   3.970 -0.0689  0.8023 -1.1058
 2157SOL    HW2 7371   3.180   5.806   4.012  1.3410  0.7026  1.4571
 2158SOL     OW 7372   1.842   5.933   1.259 -0.1911 -0.4940  0.4298
 2158SOL    HW1 7373   1.795   5.845   1.265 -2.7314  0.5882 -1.2986
 2158SOL    HW2 7374   1.825   5.973   1.168  2.4815  0.9516  0.4746
 2159SOL     OW 7375   3.171   1.322   4.972 -0.1886  0.1961  0.0950
 2159SOL    HW1 7376   3.233   1.365   5.037  2.2826 -0.1446 -1.8898
 2159SOL    HW2 7377   3.209   1.234   4.944 -2.1050 -0.4925 -0.4873
 2160SOL     OW 7378   5.596   0.277   1.701 -0.4716  0.0013 -0.6875
 2160SOL    HW1 7379   5.692   0.298   1.722 -0.3720 -0.8575 -0.2195
 2160SOL    HW2 7380   5.562   0.209   1.767 -0.6414 -1.5672 -2.3204
 2161SOL     OW 7381   2.499   4.955   0.653 -0.3340 -0.1036  0.3823
 2161SOL    HW1 7382   2.507   4.878   0.717  0.9705  0.1351  0.5292
 2161SOL    HW2 7383   2.409   4.998   0.665 -0.6718 -0.9507  1.0376
 2162SOL     OW 7384   1.216   5.877   0.611 -0.1369 -0.1694 -0.1547
 2162SOL    HW1 7385   1.165   5.803   0.653  0.2699 -1.1736 -1.3662
 2162SOL    HW2 7386   1.152   5.951   0.585 -0.9622 -1.2439 -1.3185
 2163SOL     OW 7387   1.196   3.874   5.723 -0.1458 -0.0680 -0.1569
 2163SOL    HW1 7388   1.267   3.804   5.725 -1.8215 -1.8818 -0.8937
 2163SOL    HW2 7389   1.212   3.939   5.797  1.9578 -0.7012  0.0262
 2164SOL     OW 7390   0.384   4.823   2.688  0.0230 -0.2175 -0.1627
 2164SOL    HW1 7391   0.463   4.819   2.626  0.7391  1.9277  0.5107
 2164SOL    HW2 7392   0.416   4.823   2.782 -0.8419 -0.1723  0.1391
 2165SOL     OW 7393   4.750   0.559   0.810 -0.3889 -0.4338 -0.3026
 2165SOL    HW1 7394   4.706   0.498   0.876  1.9901 -3.4912 -1.3328
 2165SOL    HW2 7395   4.845   0.574   0.836 -0.3418  1.1314 -1.2578
 2166SOL     OW 7396   0.380   2.613   1.791 -0.3416  0.6991 -0.3638
 2166SOL    HW1 7397   0.322   2.539   1.759  1.0909 -0.3676 -0.6156
 2166SOL    HW2 7398   0.458   2.623   1.729 -0.2677  2.1145 -0.0717
 2167SOL     OW 7399   0.666   2.209   4.474  0.0057  0.4840 -0.7893
 2167SOL    HW1 7400   0.618   2.149   4.410  1.6075 -1.4442 -0.3082
 2167SOL    HW2 7401   0.622   2.204   4.564 -0.5286  0.9071 -1.0273
 2168SOL     OW 7402   0.456   3.766   3.785 -0.2940  0.0725 -0.1869
 2168SOL    HW1 7403   0.361   3.738   3.771 -0.6056 -0.1563  2.0033
 2168SOL    HW2 7404   0.510   3.745   3.703 -2.0297 -0.1739 -1.3078
 2169SOL     OW 7405   5.207   0.091   1.133  0.5633  0.0929 -0.2479
 2169SOL    HW1 7406   5.202   0.024   1.207 -2.4109  1.6695  1.1754
 2169SOL    HW2 7407   5.132   0.074   1.068 -0.3068  2.0174  0.1966
 2170SOL     OW 7408   0.625   2.133   6.643  0.0732 -0.1870  0.0044
 2170SOL    HW1 7409   0.656   2.074   6.717  0.9244 -0.8603 -0.8601
 2170SOL    HW2 7410   0.616   2.227   6.676 -1.7099 -0.8286  1.5114
 2171SOL     OW 7411   4.767   0.889   0.693  0.0708  0.7908 -0.2607
 2171SOL    HW1 7412   4.738   0.804   0.650 -0.2581  1.3999 -1.3022
 2171SOL    HW2 7413   4.854   0.875   0.741 -0.0369 -0.1469 -0.3289
 2172SOL     OW 7414   1.670   1.335   5.170  0.6449  0.0315  0.2149
 2172SOL    HW1 7415   1.716   1.302   5.087 -0.2078  0.1662 -0.3213
 2172SOL    HW2 7416   1.639   1.256   5.223  0.5051 -0.0509  0.0138
 2173SOL     OW 7417   2.403   6.038   6.398  0.2113  0.0846  0.2263
 2173SOL    HW1 7418   2.306   6.051   6.422  0.3740  0.4622  0.7076
 2173SOL    HW2 7419   2.438   6.122   6.356 -0.4319 -0.9850 -2.7243
 2174SOL     OW 7420   5.942   0.460   6.229  0.1763  0.1377  0.2263
 2174SOL    HW1 7421   5.916   0.452   6.133 -0.0820 -1.0007  0.3840
 2174SOL    HW2 7422   5.891   0.393   6.283  0.3633  0.7287  1.1542
 2175SOL     OW 7423   3.839   3.249   5.401  0.4729  0.5701 -0.5894
 2175SOL    HW1 7424   3.749   3.292   5.392  0.4444  0.7021  0.2503
 2175SOL    HW2 7425   3.838   3.161   5.355  0.0970  0.8334 -1.1007
 2176SOL     OW 7426   1.468   2.564   3.260 -0.2422  0.4779  0.0138
 2176SOL    HW1 7427   1.401   2.496   3.229 -0.2554  0.6653 -0.3772
 2176SOL    HW2 7428   1.476   2.636   3.191  0.3862  0.4419  0.0479
 2177SOL     OW 7429   0.592   0.203   4.030 -0.3134 -0.1626 -0.0622
 2177SOL    HW1 7430   0.658   0.194   4.105 -0.0927  1.5249 -0.0356
 2177SOL    HW2 7431   0.513   0.145   4.049  1.2908 -2.6182 -0.3183
 2178SOL     OW 7432   0.965   2.911   2.245 -0.0794 -0.0917 -0.1316
 2178SOL    HW1 7433   0.875   2.956   2.252 -0.8816 -1.3086 -1.8941
 2178SOL    HW2 7434   0.993   2.879   2.336 -2.0685 -0.8464  0.2768
 2179SOL     OW 7435   2.876   3.838   6.412  0.0156  0.4178 -0.0167
 2179SOL    HW1 7436   2.816   3.917   6.417  1.2045  1.3445  0.0415
 2179SOL    HW2 7437   2.832   3.760   6.457 -2.0151  0.4474 -1.8196
 2180SOL     OW 7438   2.524   3.382   1.072 -0.2325 -0.3584  0.1476
 2180SOL    HW1 7439   2.461   3.415   1.002 -0.2009  1.9149  1.1050
 2180SOL    HW2 7440   2.485   3.301   1.117 -2.5933  1.0449  0.7915
 2181SOL     OW 7441   4.412   6.334   3.419  0.2229  0.0724 -0.5215
 2181SOL    HW1 7442   4.501   6.293   3.398  0.3522 -0.7947  1.4609
 2181SOL    HW2 7443   4.426   6.413   3.479 -0.3761 -0.8007  0.8119
 2182SOL     OW 7444   5.564   6.355   6.903  0.4198  0.3989  0.6133
 2182SOL    HW1 7445   5.625   6.386   6.976  2.4467 -0.2753 -0.6987
 2182SOL    HW2 7446   5.562   6.255   6.901 -1.1165  0.3900  0.8749
 2183SOL     OW 7447   4.518   4.472   6.739 -0.3125  0.0027 -0.4430
 2183SOL    HW1 7448   4.460   4.537   6.690 -0.5170  0.8745  0.9124
 2183SOL    HW2 7449   4.478   4.380   6.732 -1.5547  0.4926 -0.0131
 2184SOL     OW 7450   6.131   2.184   0.313  0.1289  0.0888  0.4139
 2184SOL    HW1 7451   6.162   2.275   0.285 -1.1067 -0.1274 -1.8968
 2184SOL    HW2 7452   6.203   2.117   0.293  0.6274  0.3990  1.1273
 2185SOL     OW 7453   1.169   2.258   1.278 -0.0679 -0.4649  0.3939
 2185SOL    HW1 7454   1.178   2.320   1.355 -0.3788 -0.5252  0.4826
 2185SOL    HW2 7455   1.259   2.226   1.249  0.0428 -0.5323  0.8067
 2186SOL     OW 7456   0.947   0.061   5.355  0.1572  0.0585  0.0647
 2186SOL    HW1 7457   0.926   0.018   5.442  0.1735  0.3711  0.2274
 2186SOL    HW2 7458   0.896   0.147   5.348 -0.6131 -0.4461 -0.6667
 2187SOL     OW 7459   5.338   3.380   0.868 -0.5031  0.2070 -0.1380
 2187SOL    HW1 7460   5.265   3.343   0.926  0.2699 -0.7967  0.2136
 2187SOL    HW2 7461   5.298   3.430   0.792 -1.6426 -2.4309 -1.3785
 2188SOL     OW 7462   2.466   2.645   6.788  0.5254 -0.0064  0.1658
 2188SOL    HW1 7463   2.506   2.730   6.754  0.5512 -0.4474 -0.9320
 2188SOL    HW2 7464   2.367   2.648   6.774  0.4821 -0.0125  0.4640
 2189SOL     OW 7465   2.103   2.705   1.033  0.2092  0.4104  0.2745
 2189SOL    HW1 7466   2.040   2.678   1.106 -0.1775 -0.7767 -0.4736
 2189SOL    HW2 7467   2.185   2.648   1.036  1.2559  1.9061  1.2008
 2190SOL     OW 7468   0.656   5.961   3.050  0.4687 -0.3673  0.0366
 2190SOL    HW1 7469   0.633   6.034   3.114  0.9151 -1.4532  1.4915
 2190SOL    HW2 7470   0.725   5.994   2.985  0.3192  0.6278  0.3649
 2191SOL     OW 7471   2.272   5.642   0.165  0.3783  0.3778  0.6321
 2191SOL    HW1 7472   2.209   5.655   0.088  0.7739 -0.3791  0.1695
 2191SOL    HW2 7473   2.356   5.692   0.149  0.2243  0.7145  0.8632
 2192SOL     OW 7474   4.898   3.075   1.234  0.8310 -0.0413  0.1734
 2192SOL    HW1 7475   4.962   3.071   1.310 -1.7698 -0.8976  2.4972
 2192SOL    HW2 7476   4.886   3.170   1.205  2.3374  0.2290  0.3785
 2193SOL     OW 7477   2.394   6.342   4.856 -0.1360 -0.9405  0.3599
 2193SOL    HW1 7478   2.399   6.260   4.800  1.1914  0.1175 -1.1444
 2193SOL    HW2 7479   2.298   6.368   4.868 -0.5237 -2.1966  0.1310
 2194SOL     OW 7480   0.495   4.788   5.533  0.0055 -0.3949 -0.4595
 2194SOL    HW1 7481   0.509   4.845   5.453 -1.9386  1.4280  0.4051
 2194SOL    HW2 7482   0.454   4.842   5.607 -0.9043 -2.6448  0.8108
 2195SOL     OW 7483   6.910   4.857   5.562 -0.1411 -0.6351  0.0512
 2195SOL    HW1 7484   6.988   4.895   5.613 -0.7953  1.1713 -0.2009
 2195SOL    HW2 7485   6.894   4.763   5.591  0.9456 -0.4147  1.5088
 2196SOL     OW 7486   1.671   6.797   0.093  0.1048  0.1666 -0.1396
 2196SOL    HW1 7487   1.629   6.749   0.016  0.0330 -0.0499  0.0319
 2196SOL    HW2 7488   1.744   6.856   0.060  0.0469  0.1072 -0.3778
 2197SOL     OW 7489   2.646   4.394   6.577  0.4080 -0.6282  0.0444
 2197SOL    HW1 7490   2.728   4.426   6.626  0.3503  0.4420 -0.5116
 2197SOL    HW2 7491   2.593   4.333   6.636  0.7181  0.0506  1.0510
 2198SOL     OW 7492   6.672   0.071   6.824 -0.2253  0.0230 -0.1670
 2198SOL    HW1 7493   6.764   0.111   6.823 -0.1790 -0.0917 -1.1702
 2198SOL    HW2 7494   6.654   0.027   6.736 -0.2323 -2.2701  0.9050
 2199SOL     OW 7495   3.899   5.505   4.821 -0.1840 -0.7299  0.1733
 2199SOL    HW1 7496   3.813   5.527   4.775 -0.2878  0.5737  0.9321
 2199SOL    HW2 7497   3.929   5.413   4.795 -0.3363 -0.1368 -2.2886
 2200SOL     OW 7498   2.487   2.217   5.399  0.1643  0.0831  0.0351
 2200SOL    HW1 7499   2.389   2.237   5.398 -0.0392 -0.7742 -2.0476
 2200SOL    HW2 7500   2.538   2.303   5.410 -0.7996  0.9170 -1.5359
 2201SOL     OW 7501   6.458   4.520   4.922 -0.3185 -0.8639 -0.1887
 2201SOL    HW1 7502   6.381   4.524   4.986  0.8294 -0.1115  1.1929
 2201SOL    HW2 7503   6.481   4.613   4.893 -0.6982 -1.1816 -1.5759
 2202SOL     OW 7504   4.735   0.770   4.532 -0.3195 -0.3396 -0.0954
 2202SOL    HW1 7505   4.661   0.721   4.485  0.6369 -0.5083 -1.4588
 2202SOL    HW2 7506   4.718   0.768   4.631 -2.0414 -0.5197 -0.3615
 2203SOL     OW 7507   1.632   6.712   1.637  0.0420  0.4335 -0.0973
 2203SOL    HW1 7508   1.650   6.778   1.564 -2.1225  2.1787  0.8058
 2203SOL    HW2 7509   1.580   6.757   1.710 -1.8207 -2.3293  0.4549
 2204SOL     OW 7510   4.160   3.552   6.422  0.3962  0.0016 -0.1329
 2204SOL    HW1 7511   4.103   3.505   6.354  1.1344  2.5342 -2.6792
 2204SOL    HW2 7512   4.104   3.574   6.502 -1.2697 -0.6649 -1.0509
 2205SOL     OW 7513   5.432   4.376   1.354  0.2369  0.3883 -0.4322
 2205SOL    HW1 7514   5.406   4.312   1.282 -0.2311 -0.6163  0.6118
 2205SOL    HW2 7515   5.395   4.467   1.333 -2.1338 -0.4509 -0.1953
 2206SOL     OW 7516   3.260   2.591   5.785 -0.5634  0.0525  0.2709
 2206SOL    HW1 7517   3.177   2.579   5.730 -1.6619  1.2530  1.6020
 2206SOL    HW2 7518   3.321   2.655   5.739 -0.6937 -0.2621 -0.3575
 2207SOL     OW 7519   6.035   3.935   2.284  0.0737  0.0596  0.6337
 2207SOL    HW1 7520   5.959   3.869   2.282 -0.9579  1.2188 -0.1057
 2207SOL    HW2 7521   6.104   3.905   2.350 -1.1440 -0.9147  1.5104
 2208SOL     OW 7522   5.671   5.216   3.367  0.2112  0.0111  0.6534
 2208SOL    HW1 7523   5.707   5.250   3.280  0.1656 -0.7556  0.3287
 2208SOL    HW2 7524   5.572   5.206   3.360  0.3770 -1.5191  0.2681
 2209SOL     OW 7525   2.726   5.872   4.498 -0.1585  0.1568 -0.2985
 2209SOL    HW1 7526   2.700   5.953   4.446 -1.1704  1.0962  1.5560
 2209SOL    HW2 7527   2.683   5.791   4.458 -2.6649  1.1324  0.2588
 2210SOL     OW 7528   4.360   4.574   2.409 -0.1456  0.8592 -0.1623
 2210SOL    HW1 7529   4.418   4.531   2.340  0.3244  0.3704  0.5240
 2210SOL    HW2 7530   4.341   4.669   2.382 -1.7476  0.0826 -2.0340
 2211SOL     OW 7531   2.842   1.304   0.814  0.0583  0.0055 -0.3978
 2211SOL    HW1 7532   2.838   1.232   0.884 -1.0720 -2.0535 -2.4366
 2211SOL    HW2 7533   2.918   1.286   0.752  0.3257  1.1384 -0.4217
 2212SOL     OW 7534   1.888   5.169   6.931 -0.1943  0.0168  0.2959
 2212SOL    HW1 7535   1.919   5.075   6.949 -0.1778  0.0763  0.5851
 2212SOL    HW2 7536   1.965   5.223   6.898 -0.0691  0.0697  0.6636
 2213SOL     OW 7537   2.168   1.868   3.631 -0.0515 -0.2884  0.1049
 2213SOL    HW1 7538   2.214   1.906   3.711  0.9712  0.5130 -0.8321
 2213SOL    HW2 7539   2.141   1.773   3.650  1.0324 -0.4266  1.0738
 2214SOL     OW 7540   3.920   6.230   1.353  0.6458 -0.3881 -0.3230
 2214SOL    HW1 7541   3.970   6.182   1.425 -0.9865  0.5497  1.5407
 2214SOL    HW2 7542   3.983   6.253   1.279  2.7180 -0.3254  1.3390
 2215SOL     OW 7543   0.889   3.668   1.445 -0.5162  0.2456  0.0181
 2215SOL    HW1 7544   0.799   3.645   1.483  0.3749  1.6493  3.3093
 2215SOL    HW2 7545   0.959   3.612   1.490  0.2986 -1.2978 -2.9597
 2216SOL     OW 7546   0.154   5.536   6.035  0.2144 -0.0309 -0.3263
 2216SOL    HW1 7547   0.155   5.560   6.132  0.9779 -0.9265 -0.0981
 2216SOL    HW2 7548   0.061   5.545   6.000 -0.0149  0.5994  0.4101
 2217SOL     OW 7549   3.630   1.387   4.252  0.6066 -0.1666  0.1670
 2217SOL    HW1 7550   3.550   1.421   4.203  0.1430 -1.6711 -0.1877
 2217SOL    HW2 7551   3.669   1.460   4.308  0.0048  1.0610 -0.9616
 2218SOL     OW 7552   0.337   3.651   6.447 -0.2187 -0.3775 -0.0594
 2218SOL    HW1 7553   0.305   3.691   6.362 -0.4619  2.2588  1.1732
 2218SOL    HW2 7554   0.259   3.613   6.497 -0.8847  2.1186  0.9513
 2219SOL     OW 7555   4.653   6.626   1.643 -0.3202  0.2349  0.3193
 2219SOL    HW1 7556   4.736   6.570   1.634 -0.9367 -0.7097  0.4496
 2219SOL    HW2 7557   4.652   6.695   1.570  0.1041 -0.3721 -0.2722
 2220SOL     OW 7558   0.448   0.467   4.628  0.2475 -0.3873 -0.1647
 2220SOL    HW1 7559   0.397   0.552   4.622  0.0569 -0.4116  0.8565
 2220SOL    HW2 7560   0.542   0.486   4.655  0.8697 -0.3270 -2.2302
 2221SOL     OW 7561   2.452   0.043   3.148  0.2455  0.1471 -0.8437
 2221SOL    HW1 7562   2.404   0.100   3.215  0.7614 -0.0426 -0.2999
 2221SOL    HW2 7563   2.407   0.050   3.059 -2.9405 -2.6695  0.3453
 2222SOL     OW 7564   4.064   6.526   3.674 -0.1141 -0.1116 -0.4631
 2222SOL    HW1 7565   3.968   6.536   3.700 -0.3999  0.5011 -1.7096
 2222SOL    HW2 7566   4.103   6.616   3.656  0.2229 -0.4740 -1.5841
 2223SOL     OW 7567   7.012   5.027   6.945 -0.6398  1.1716 -0.1931
 2223SOL    HW1 7568   7.062   5.061   7.024  1.0036  0.8020 -1.0262
 2223SOL    HW2 7569   6.928   4.981   6.975  0.9414 -0.7718  1.5039
 2224SOL     OW 7570   4.703   3.464   0.199  0.0671 -0.5345 -0.5005
 2224SOL    HW1 7571   4.709   3.508   0.109 -0.0653 -1.3078 -0.8998
 2224SOL    HW2 7572   4.693   3.366   0.186  1.1174 -0.7724  0.3845
 2225SOL     OW 7573   0.060   1.023   0.376 -0.7791  0.1609  0.0603
 2225SOL    HW1 7574  -0.030   1.062   0.392 -0.9936 -1.0320  2.0419
 2225SOL    HW2 7575   0.122   1.049   0.451 -0.0134 -0.5605 -0.2980
 2226SOL     OW 7576   3.156   3.402   6.633  0.2081 -0.1843 -0.4780
 2226SOL    HW1 7577   3.243   3.352   6.639 -0.3649 -1.0510  1.7439
 2226SOL    HW2 7578   3.087   3.344   6.588  0.3632 -0.1108 -0.8144
 2227SOL     OW 7579   4.996   3.628   0.527  0.2893  0.1851  0.1698
 2227SOL    HW1 7580   4.949   3.707   0.566  0.2553  0.2040  0.0903
 2227SOL    HW2 7581   4.993   3.633   0.427  2.2824  1.3086  0.1096
 2228SOL     OW 7582   2.919   5.355   6.648  0.1400  0.2356 -0.1052
 2228SOL    HW1 7583   3.010   5.314   6.658 -0.2694 -0.3800  1.4880
 2228SOL    HW2 7584   2.927   5.454   6.650  0.7248  0.1833  0.6472
 2229SOL     OW 7585   2.882   3.789   4.764  0.1282  0.4744 -0.7664
 2229SOL    HW1 7586   2.816   3.840   4.709  0.3878  2.1484  0.3997
 2229SOL    HW2 7587   2.887   3.829   4.856 -0.0867 -2.0527  0.4278
 2230SOL     OW 7588   0.207   1.057   0.166 -0.2182 -0.3826 -0.7429
 2230SOL    HW1 7589   0.294   1.009   0.181  0.0157  0.1964 -0.2426
 2230SOL    HW2 7590   0.153   1.055   0.250  0.8145  2.2880  0.0822
 2231SOL     OW 7591   1.303   5.441   5.500  0.3131 -0.0550 -0.7599
 2231SOL    HW1 7592   1.400   5.418   5.494  0.5819  1.0208 -0.8132
 2231SOL    HW2 7593   1.293   5.534   5.536 -0.7316 -0.4735  0.1211
 2232SOL     OW 7594   0.214   1.207   6.784  0.1452  0.0355  0.1970
 2232SOL    HW1 7595   0.124   1.178   6.754  0.5634  0.0205 -1.0861
 2232SOL    HW2 7596   0.250   1.275   6.721  0.7683  0.5328  1.0612
 2233SOL     OW 7597   3.359   5.575   1.551  0.0451 -0.9432 -0.3515
 2233SOL    HW1 7598   3.299   5.635   1.498 -0.7164 -0.8209  0.6209
 2233SOL    HW2 7599   3.352   5.482   1.515 -1.6414 -1.1634  0.4703
 2234SOL     OW 7600   6.028   2.078   2.809 -0.1109  0.2866 -0.3171
 2234SOL    HW1 7601   6.007   1.980   2.811  0.0295  0.2588  1.0381
 2234SOL    HW2 7602   6.093   2.099   2.882  0.0218  1.3568 -0.7322
 2235SOL     OW 7603   2.250   1.120   3.458  0.2200 -0.0945 -0.2305
 2235SOL    HW1 7604   2.194   1.197   3.431 -1.2366  0.1219  2.9212
 2235SOL    HW2 7605   2.193   1.038   3.467  0.6669 -0.2670  1.4368
 2236SOL     OW 7606   1.601   5.158   5.481 -0.1006 -0.0224  0.0321
 2236SOL    HW1 7607   1.526   5.130   5.541  0.6144  0.6373  1.2654
 2236SOL    HW2 7608   1.688   5.129   5.520  0.4872  1.6753  0.0887
 2237SOL     OW 7609   5.008   1.192   0.622  1.4372 -0.2244  0.0766
 2237SOL    HW1 7610   5.107   1.181   0.633  1.3165 -1.3521  0.1603
 2237SOL    HW2 7611   4.988   1.213   0.526  1.7752  0.2703  0.1111
 2238SOL     OW 7612   5.390   4.108   6.777 -0.1009  0.5104 -0.5533
 2238SOL    HW1 7613   5.328   4.029   6.773 -0.8081  1.0710 -1.0595
 2238SOL    HW2 7614   5.454   4.096   6.853 -2.9216  1.3773  2.2212
 2239SOL     OW 7615   3.794   1.707   2.722  0.3130  0.7196  0.4979
 2239SOL    HW1 7616   3.821   1.629   2.778  2.0731  0.9415  0.0163
 2239SOL    HW2 7617   3.694   1.714   2.721  0.1899  0.0629  2.6752
 2240SOL     OW 7618   5.956   6.138   0.690 -0.2360 -0.1015 -0.3402
 2240SOL    HW1 7619   5.888   6.085   0.741 -0.6812 -0.7134 -1.5022
 2240SOL    HW2 7620   6.048   6.111   0.719 -0.4338  1.2178  1.7296
 2241SOL     OW 7621   2.284   3.028   4.657 -0.0750 -0.4832  0.6679
 2241SOL    HW1 7622   2.228   2.945   4.659  0.2001 -1.1299 -4.7406
 2241SOL    HW2 7623   2.380   3.003   4.671 -0.2700 -0.4621  2.3253
 2242SOL     OW 7624   5.518   1.891   3.122 -0.1425  0.4609 -0.3769
 2242SOL    HW1 7625   5.597   1.950   3.141 -0.9265  1.3468  0.2366
 2242SOL    HW2 7626   5.498   1.892   3.024  1.3678 -0.7972 -0.7395
 2243SOL     OW 7627   1.573   6.786   0.995  0.6581  0.3425  0.4557
 2243SOL    HW1 7628   1.498   6.798   0.930  0.4019 -0.5504  0.5785
 2243SOL    HW2 7629   1.553   6.710   1.057  2.3948 -1.0917 -0.6204
 2244SOL     OW 7630   3.302   2.986   0.048 -0.2321 -0.0038  0.1237
 2244SOL    HW1 7631   3.355   2.901   0.049 -1.1145 -0.5907 -0.6202
 2244SOL    HW2 7632   3.304   3.025  -0.044  0.5878  1.0782  0.5809
 2245SOL     OW 7633   6.348   1.038   0.940 -0.2747 -0.0001  0.2021
 2245SOL    HW1 7634   6.442   1.068   0.921 -0.2903  0.8447  1.3753
 2245SOL    HW2 7635   6.340   0.941   0.920  0.5009  0.1819 -1.1515
 2246SOL     OW 7636   6.092   6.836   5.987  0.0299 -0.3553 -0.0811
 2246SOL    HW1 7637   6.012   6.780   6.004  0.3494 -1.4538 -1.9052
 2246SOL    HW2 7638   6.067   6.912   5.926 -0.0633  0.5865  1.1008
 2247SOL     OW 7639   4.055   3.089   2.398 -0.2830 -0.0076  0.5881
 2247SOL    HW1 7640   4.005   3.023   2.343  1.0951 -0.9213  0.3861
 2247SOL    HW2 7641   4.039   3.071   2.495 -1.6036  0.7358  0.5359
 2248SOL     OW 7642   5.748   2.881   3.612 -0.5181 -0.4786 -0.2450
 2248SOL    HW1 7643   5.820   2.832   3.563  1.3483  0.7302  1.1492
 2248SOL    HW2 7644   5.785   2.965   3.652 -2.4518 -0.3175  1.4093
 2249SOL     OW 7645   2.176   0.923   2.211 -0.6258 -0.9831  0.0730
 2249SOL    HW1 7646   2.190   0.848   2.145 -1.1038 -1.4301  0.4674
 2249SOL    HW2 7647   2.120   0.994   2.168  1.6819  0.2459 -1.0893
 2250SOL     OW 7648   4.178   5.300   4.190  0.2028  0.2944 -0.0814
 2250SOL    HW1 7649   4.134   5.210   4.191 -1.6803  1.1552 -0.4847
 2250SOL    HW2 7650   4.186   5.334   4.284 -0.1442  0.1724 -0.0050
 2251SOL     OW 7651   3.122   0.655   3.911 -0.1104  0.1265  0.0496
 2251SOL    HW1 7652   3.122   0.556   3.899  1.0599 -0.0078  0.8556
 2251SOL    HW2 7653   3.120   0.701   3.822  0.2460 -0.6381 -0.3570
 2252SOL     OW 7654   2.442   2.821   1.529  0.1104 -0.0903 -0.3927
 2252SOL    HW1 7655   2.520   2.801   1.589  0.2897  0.5570 -0.4012
 2252SOL    HW2 7656   2.471   2.812   1.434  0.7987  2.2140 -0.4629
 2253SOL     OW 7657   6.979   2.783   1.179 -0.2612 -0.7988 -0.3287
 2253SOL    HW1 7658   6.987   2.731   1.264 -0.1004  1.3154  1.0210
 2253SOL    HW2 7659   6.883   2.787   1.152 -0.4676 -0.4622  0.4324
 2254SOL     OW 7660   3.308   3.737   1.555 -0.0510 -0.9532  0.4761
 2254SOL    HW1 7661   3.250   3.692   1.623  1.2629 -0.7742  1.7633
 2254SOL    HW2 7662   3.370   3.670   1.514 -0.4331 -0.9448 -0.1326
 2255SOL     OW 7663   2.298   2.468   6.422 -0.1627 -0.4971  0.2375
 2255SOL    HW1 7664   2.219   2.521   6.453  0.3105  0.1291  0.3982
 2255SOL    HW2 7665   2.381   2.523   6.433  0.4313 -1.5104  1.0567
 2256SOL     OW 7666   4.339   0.002   0.850  0.3911 -0.0859  0.1533
 2256SOL    HW1 7667   4.319  -0.066   0.779 -2.5389  1.7503 -0.9786
 2256SOL    HW2 7668   4.416   0.059   0.821 -0.3775  0.2523 -1.3724
 2257SOL     OW 7669   0.437   2.201   0.917 -0.2006  0.2363  0.2217
 2257SOL    HW1 7670   0.402   2.108   0.904 -1.4953  0.6607  0.5365
 2257SOL    HW2 7671   0.537   2.200   0.910 -0.2332 -1.0610 -0.4642
 2258SOL     OW 7672   2.856   4.834   2.582  0.2576 -0.3491 -0.0352
 2258SOL    HW1 7673   2.951   4.836   2.613  0.0510 -2.9519  1.0435
 2258SOL    HW2 7674   2.801   4.899   2.635  0.8112 -1.3498  1.8579
 2259SOL     OW 7675   5.228   6.974   5.069 -0.1827 -0.3005 -0.0308
 2259SOL    HW1 7676   5.325   6.994   5.062  0.0554 -1.1972  0.5426
 2259SOL    HW2 7677   5.193   7.003   5.158 -0.4309 -0.0168 -0.2185
 2260SOL     OW 7678   0.279   2.961   2.181 -0.6218 -0.3829  0.4930
 2260SOL    HW1 7679   0.228   3.029   2.233 -1.9285 -1.6719  0.9782
 2260SOL    HW2 7680   0.302   2.884   2.241  0.9938 -0.3161  0.0095
 2261SOL     OW 7681   4.584   3.885   6.882  0.3308 -0.1647 -0.2031
 2261SOL    HW1 7682   4.599   3.979   6.851 -1.5295 -0.3594 -1.8483
 2261SOL    HW2 7683   4.628   3.822   6.818  0.9547 -0.4690  0.5028
 2262SOL     OW 7684   1.336   2.972   2.464  0.4089 -0.3245 -0.2588
 2262SOL    HW1 7685   1.418   2.927   2.501  0.8421  0.6548  0.0193
 2262SOL    HW2 7686   1.363   3.049   2.407 -0.3069  0.8449  0.9051
 2263SOL     OW 7687   1.210   4.882   6.781  0.7043  0.6725  0.2186
 2263SOL    HW1 7688   1.265   4.955   6.822  1.5888 -0.5771  1.2977
 2263SOL    HW2 7689   1.123   4.873   6.831  0.8908  0.5361  0.5209
 2264SOL     OW 7690   0.469   0.155   0.071 -0.2797 -0.4946 -0.4929
 2264SOL    HW1 7691   0.558   0.198   0.089 -0.2572 -0.7554  0.0501
 2264SOL    HW2 7692   0.438   0.108   0.153 -0.5417 -1.0837 -0.9170
 2265SOL     OW 7693   6.934   0.507   6.136  0.1839 -0.0262 -0.5635
 2265SOL    HW1 7694   6.936   0.494   6.235 -1.1375 -1.8561 -0.7312
 2265SOL    HW2 7695   6.973   0.427   6.091  2.1839  1.4076 -1.5481
 2266SOL     OW 7696   5.603   4.067   6.237 -0.8074  0.1240 -0.3732
 2266SOL    HW1 7697   5.505   4.048   6.231 -0.5462 -1.1241 -1.0627
 2266SOL    HW2 7698   5.639   4.083   6.145 -0.5606  1.7263 -0.0219
 2267SOL     OW 7699   5.647   3.492   4.943  0.1834 -0.5900  0.4520
 2267SOL    HW1 7700   5.592   3.423   4.990  2.3795 -2.7004  0.1120
 2267SOL    HW2 7701   5.662   3.464   4.848 -0.1677  1.1904 -0.1700
 2268SOL     OW 7702   1.503   6.939   4.404  0.1079  0.6294 -0.2010
 2268SOL    HW1 7703   1.531   7.018   4.458 -1.4410  1.9421 -1.2585
 2268SOL    HW2 7704   1.521   6.957   4.307  1.3301 -1.0366 -0.3293
 2269SOL     OW 7705   1.898   1.730   4.915 -0.0406  0.0884 -0.6357
 2269SOL    HW1 7706   1.823   1.699   4.974  0.3204 -0.7038 -0.5780
 2269SOL    HW2 7707   1.963   1.783   4.969 -0.6555  0.9771 -0.7322
 2270SOL     OW 7708   4.342   2.471   6.949 -0.0054  0.0859 -0.3607
 2270SOL    HW1 7709   4.316   2.484   6.854 -0.3950  0.2196 -0.2384
 2270SOL    HW2 7710   4.421   2.529   6.970  0.0258  0.1218 -0.5779
 2271SOL     OW 7711   4.622   6.468   5.091 -0.1583  0.1647  0.0383
 2271SOL    HW1 7712   4.555   6.397   5.072 -0.6442  0.6932 -0.2509
 2271SOL    HW2 7713   4.669   6.447   5.177  0.7726 -1.2889 -0.7912
 2272SOL     OW 7714   5.789   1.021   6.639 -1.1161  0.4850 -0.1778
 2272SOL    HW1 7715   5.871   0.980   6.678 -0.8266  1.4711  0.2861
 2272SOL    HW2 7716   5.708   0.972   6.671 -0.6855 -1.4436 -1.7992
 2273SOL     OW 7717   1.647   3.231   5.085  0.0452  0.2798  0.4945
 2273SOL    HW1 7718   1.626   3.322   5.050 -0.0508  0.5488  1.2277
 2273SOL    HW2 7719   1.699   3.240   5.170  0.4793 -0.3558  0.2963
 2274SOL     OW 7720   0.048   1.261   6.431  0.2323 -0.3136 -0.6777
 2274SOL    HW1 7721   0.028   1.289   6.525  0.1143 -1.9919 -0.1836
 2274SOL    HW2 7722   0.138   1.218   6.428  0.8274  0.9267 -1.6105
 2275SOL     OW 7723   5.514   4.612   3.971  0.1794  0.5889 -0.0312
 2275SOL    HW1 7724   5.575   4.567   3.906  0.6787  1.4271 -0.1607
 2275SOL    HW2 7725   5.444   4.547   4.001  0.9143 -0.2814 -0.1512
 2276SOL     OW 7726   1.548   3.239   1.364  0.2148  0.4076  1.1333
 2276SOL    HW1 7727   1.458   3.253   1.405  0.8488  2.1528  2.0338
 2276SOL    HW2 7728   1.611   3.308   1.398  1.0225  1.4383 -2.0927
 2277SOL     OW 7729   3.796   3.987   2.018 -0.4867 -0.1498  0.2488
 2277SOL    HW1 7730   3.865   4.059   2.015  0.6637 -1.2135  0.4337
 2277SOL    HW2 7731   3.757   3.981   2.110 -0.1133 -0.2014  0.4036
 2278SOL     OW 7732   5.865   4.425   5.468  0.2110  0.3321 -0.1469
 2278SOL    HW1 7733   5.964   4.431   5.482  0.4973 -0.0164 -1.7543
 2278SOL    HW2 7734   5.818   4.429   5.556  1.6157  1.1533  0.6028
 2279SOL     OW 7735   0.675   5.116   5.502  0.2166 -0.5063  0.0697
 2279SOL    HW1 7736   0.739   5.151   5.434  0.7399  0.3553  0.9836
 2279SOL    HW2 7737   0.600   5.069   5.456 -0.3064  1.4702 -1.2064
 2280SOL     OW 7738   5.214   3.711   2.893  0.4452 -0.5609 -0.6442
 2280SOL    HW1 7739   5.271   3.722   2.812 -0.6284 -1.4875 -1.5440
 2280SOL    HW2 7740   5.220   3.794   2.950  0.9777  0.2118 -1.8012
 2281SOL     OW 7741   5.750   6.266   1.655  0.0605 -0.1513  0.0593
 2281SOL    HW1 7742   5.662   6.281   1.699  0.5279 -1.6899  1.5917
 2281SOL    HW2 7743   5.780   6.172   1.670  2.2321  0.4830  0.0480
 2282SOL     OW 7744   4.654   6.440   3.574  0.4015 -0.2672  0.9649
 2282SOL    HW1 7745   4.678   6.384   3.653 -1.4326 -0.5787  1.3652
 2282SOL    HW2 7746   4.653   6.383   3.492 -0.4708 -0.6211  1.2081
 2283SOL     OW 7747   1.004   0.331   5.749 -0.2184 -0.4665  0.3168
 2283SOL    HW1 7748   1.099   0.347   5.723 -0.5890  0.2751 -0.6480
 2283SOL    HW2 7749   0.944   0.386   5.691 -1.2544 -1.1355  0.7261
 2284SOL     OW 7750   3.861   3.941   6.441  0.0250 -0.1229 -0.2756
 2284SOL    HW1 7751   3.869   3.842   6.433  1.6141 -0.0126 -0.4046
 2284SOL    HW2 7752   3.881   3.969   6.535  0.8752  0.1611 -0.5289
 2285SOL     OW 7753   2.296   5.947   2.087  0.1522  0.2693  0.7171
 2285SOL    HW1 7754   2.385   5.928   2.128  0.5070 -0.1525 -0.2245
 2285SOL    HW2 7755   2.305   5.950   1.988 -0.6646  1.3773  0.6512
 2286SOL     OW 7756   6.311   5.728   1.408  0.1954 -0.8402  0.9508
 2286SOL    HW1 7757   6.329   5.682   1.321 -0.4542 -0.6831  0.7273
 2286SOL    HW2 7758   6.374   5.805   1.418 -0.3036 -0.3112  0.1923
 2287SOL     OW 7759   2.898   0.139   3.466  0.0254 -0.6015  0.2527
 2287SOL    HW1 7760   2.919   0.158   3.370 -0.1168  0.2867  0.3889
 2287SOL    HW2 7761   2.900   0.224   3.518 -1.7499 -0.7794  0.6882
 2288SOL     OW 7762   6.007   5.461   3.156 -0.2228  0.2425  0.2663
 2288SOL    HW1 7763   5.980   5.395   3.227 -2.7651  0.2617 -0.5643
 2288SOL    HW2 7764   6.106   5.468   3.153  0.0331 -1.3342  2.3708
 2289SOL     OW 7765   0.390   4.746   6.690  0.5831 -0.0279  0.1686
 2289SOL    HW1 7766   0.490   4.748   6.690  0.5910  1.3175 -1.3165
 2289SOL    HW2 7767   0.358   4.738   6.784  2.0920  1.2219  0.8565
 2290SOL     OW 7768   2.550   5.311   6.113 -0.4155 -0.2986 -0.0472
 2290SOL    HW1 7769   2.496   5.283   6.193 -0.4612 -1.5624 -0.5011
 2290SOL    HW2 7770   2.635   5.259   6.112  0.5966  1.2937  0.3676
 2291SOL     OW 7771   1.511   2.075   4.692  0.4912  0.3506  0.0446
 2291SOL    HW1 7772   1.506   2.021   4.776  1.2741 -0.5680 -0.4880
 2291SOL    HW2 7773   1.606   2.094   4.669  0.2605  1.1581 -0.2882
 2292SOL     OW 7774   2.221   1.823   4.372 -0.1039 -0.1892  0.0329
 2292SOL    HW1 7775   2.273   1.836   4.288 -1.4913 -0.0597 -0.8224
 2292SOL    HW2 7776   2.267   1.871   4.447  0.5371  0.6539 -0.8769
 2293SOL     OW 7777   5.503   4.473   2.599  0.6387  0.1632 -0.2465
 2293SOL    HW1 7778   5.463   4.548   2.547  1.1111  1.0918  0.6716
 2293SOL    HW2 7779   5.502   4.497   2.697 -0.1218 -1.4670  0.1838
 2294SOL     OW 7780   4.696   5.966   3.965  0.1535  0.1502  0.4071
 2294SOL    HW1 7781   4.793   5.960   3.990  0.6845 -1.3361 -1.7916
 2294SOL    HW2 7782   4.643   5.990   4.046  2.1755 -0.5093  2.0207
 2295SOL     OW 7783   6.595   1.216   1.904 -0.4114 -0.7725 -0.0670
 2295SOL    HW1 7784   6.599   1.202   2.003 -1.2780 -2.1270 -0.2003
 2295SOL    HW2 7785   6.649   1.297   1.879 -0.7088 -0.0408  1.5745
 2296SOL     OW 7786   3.472   0.542   5.524 -0.1177 -0.0370 -0.2650
 2296SOL    HW1 7787   3.548   0.514   5.583  0.7517 -0.9144 -1.7467
 2296SOL    HW2 7788   3.387   0.542   5.577  0.8335  0.5843  1.3245
 2297SOL     OW 7789   5.113   6.985   5.310  0.2533 -0.4890 -0.0115
 2297SOL    HW1 7790   5.047   6.916   5.281  0.1681 -0.5854  0.3999
 2297SOL    HW2 7791   5.065   7.060   5.356  0.1311  0.7530 -2.0470
 2298SOL     OW 7792   5.929   2.952   5.136 -0.2230 -0.3666 -0.3097
 2298SOL    HW1 7793   5.853   2.903   5.180 -0.4072  0.1096 -0.0923
 2298SOL    HW2 7794   5.942   3.041   5.180  0.6264 -0.5457 -0.1834
 2299SOL     OW 7795   5.587   1.071   2.594 -0.1005  0.1320 -0.4129
 2299SOL    HW1 7796   5.598   1.168   2.616 -0.8594 -0.1854  1.5023
 2299SOL    HW2 7797   5.647   1.016   2.652  0.9517 -0.5510 -2.0506
 2300SOL     OW 7798   6.713   5.000   1.285 -0.0890  0.1117 -0.3595
 2300SOL    HW1 7799   6.632   4.987   1.344 -0.3371 -0.7371 -0.8699
 2300SOL    HW2 7800   6.795   4.977   1.336 -0.3905 -1.8388 -0.6761
 2301SOL     OW 7801   2.208   1.977   0.898 -0.0615  0.1496 -0.0921
 2301SOL    HW1 7802   2.263   2.037   0.957 -1.2123  0.9643  0.1844
 2301SOL    HW2 7803   2.170   1.903   0.953 -0.3690  0.3782  0.0073
 2302SOL     OW 7804   2.230   6.673   2.343 -0.2945 -0.0369  0.0064
 2302SOL    HW1 7805   2.141   6.680   2.387  0.5196 -1.3930  1.9998
 2302SOL    HW2 7806   2.283   6.601   2.387  0.6439 -1.4857 -3.1866
 2303SOL     OW 7807   6.074   3.309   5.265  0.6900  0.6733  0.6292
 2303SOL    HW1 7808   6.079   3.325   5.363  2.0289  1.6568  0.4237
 2303SOL    HW2 7809   5.979   3.318   5.235 -0.0623 -1.5516  2.1029
 2304SOL     OW 7810   0.204   0.438   3.853  0.3544 -0.1703 -0.3836
 2304SOL    HW1 7811   0.127   0.433   3.917 -1.1932  0.8943 -2.0549
 2304SOL    HW2 7812   0.248   0.349   3.847 -0.7525 -0.8170  0.6109
 2305SOL     OW 7813   4.251   4.823   1.602  0.1388 -0.0082  0.3172
 2305SOL    HW1 7814   4.351   4.823   1.607  0.1523  0.9285  0.1963
 2305SOL    HW2 7815   4.214   4.827   1.695  0.2061 -0.6158  0.3743
 2306SOL     OW 7816   1.840   4.604   2.554  0.1737  0.2751 -0.1638
 2306SOL    HW1 7817   1.817   4.525   2.497  0.4041  0.7058 -0.8779
 2306SOL    HW2 7818   1.828   4.581   2.650  2.6519 -1.4351 -0.1784
 2307SOL     OW 7819   6.996   6.905   3.038  0.2908  0.0808  0.2254
 2307SOL    HW1 7820   7.004   6.815   3.082  3.6279  0.0346 -0.2134
 2307SOL    HW2 7821   7.024   6.976   3.103  1.4396  0.3779 -0.5575
 2308SOL     OW 7822   3.015   0.689   6.477  0.3893 -0.9514  0.3788
 2308SOL    HW1 7823   3.090   0.650   6.423  0.9674  0.7058 -0.1102
 2308SOL    HW2 7824   3.037   0.784   6.499 -2.3088  0.1963 -1.2974
 2309SOL     OW 7825   0.311   6.227   2.718 -0.0187  0.6355 -0.4892
 2309SOL    HW1 7826   0.211   6.223   2.713  0.0536  0.4451 -3.5332
 2309SOL    HW2 7827   0.341   6.322   2.725 -0.3553  0.6518  1.4641
 2310SOL     OW 7828   5.534   0.686   3.215  0.0809 -0.2738 -0.6633
 2310SOL    HW1 7829   5.546   0.700   3.313 -0.7942  0.3739 -0.6389
 2310SOL    HW2 7830   5.460   0.745   3.181 -1.1620 -2.1146 -1.2843
 2311SOL     OW 7831   4.164   6.759   2.125 -0.4077  0.3001  0.5769
 2311SOL    HW1 7832   4.066   6.765   2.147 -0.4783 -1.5109  0.8614
 2311SOL    HW2 7833   4.209   6.696   2.188  0.3849 -1.0512 -1.2608
 2312SOL     OW 7834   3.121   6.998   3.703  0.0438 -0.1040  0.3522
 2312SOL    HW1 7835   3.143   7.003   3.605  0.6580 -0.0789  0.4900
 2312SOL    HW2 7836   3.108   7.091   3.739 -2.5787 -0.1808 -0.2274
 2313SOL     OW 7837   5.525   5.307   1.385  0.3508  0.3652 -0.2681
 2313SOL    HW1 7838   5.482   5.365   1.315  0.4253 -0.6324 -1.1733
 2313SOL    HW2 7839   5.487   5.215   1.379  0.4417  0.2349  0.9614
 2314SOL     OW 7840   6.785   6.789   3.336 -0.5563 -0.3636 -0.1400
 2314SOL    HW1 7841   6.786   6.837   3.424  0.4255 -1.1007  0.2705
 2314SOL    HW2 7842   6.846   6.710   3.341 -1.2959 -1.0204 -1.1544
 2315SOL     OW 7843   6.696   6.905   4.794 -0.3752  0.2198  0.4067
 2315SOL    HW1 7844   6.604   6.889   4.756  0.5339 -2.2140 -1.0632
 2315SOL    HW2 7845   6.711   6.842   4.870 -0.0396  0.8672  0.8779
 2316SOL     OW 7846   3.688   3.576   5.822 -0.0286 -0.7709  0.2094
 2316SOL    HW1 7847   3.777   3.623   5.826 -0.0953 -0.6643  0.4795
 2316SOL    HW2 7848   3.648   3.588   5.732  0.1514 -0.6673  0.1431
 2317SOL     OW 7849   6.554   4.927   2.250  0.5953  0.4880 -0.3510
 2317SOL    HW1 7850   6.528   4.944   2.155  2.3749 -0.2549 -1.0063
 2317SOL    HW2 7851   6.577   5.013   2.294 -2.7222  1.2162  0.2769
 2318SOL     OW 7852   0.905   5.106   3.786  0.6444  0.5305  0.5893
 2318SOL    HW1 7853   0.905   5.051   3.702  1.2816  0.8704  0.3619
 2318SOL    HW2 7854   0.833   5.175   3.780  0.9726  0.8403  0.1245
 2319SOL     OW 7855   1.392   5.515   2.181  0.1847  0.1416 -0.2360
 2319SOL    HW1 7856   1.424   5.423   2.202  2.8328  0.2033 -3.2376
 2319SOL    HW2 7857   1.297   5.525   2.209  0.8750 -2.2010  3.5463
 2320SOL     OW 7858   1.205   2.344   0.406 -0.2360 -0.1679  0.3632
 2320SOL    HW1 7859   1.282   2.365   0.467 -0.0706 -0.3639  0.2263
 2320SOL    HW2 7860   1.137   2.290   0.456  0.2014 -0.8918  0.2042
 2321SOL     OW 7861   6.957   5.240   4.455  0.4222  0.0468 -0.1609
 2321SOL    HW1 7862   7.023   5.275   4.389  0.7129  0.8659  0.5396
 2321SOL    HW2 7863   6.988   5.261   4.548  0.1984 -1.3820  0.2671
 2322SOL     OW 7864   1.480   1.978   2.104  0.0005  0.4030  0.5700
 2322SOL    HW1 7865   1.387   1.940   2.104 -1.0765  2.5927  4.1632
 2322SOL    HW2 7866   1.479   2.066   2.057  0.5030  0.0891 -0.0536
 2323SOL     OW 7867   2.554   0.336   5.854  0.4732 -0.3647  0.6613
 2323SOL    HW1 7868   2.470   0.391   5.848  2.0186  2.0215 -2.7154
 2323SOL    HW2 7869   2.571   0.311   5.949 -2.9542  0.7486  1.7215
 2324SOL     OW 7870   0.130   6.713   1.055  0.9263 -0.0856 -0.2059
 2324SOL    HW1 7871   0.090   6.665   1.133 -0.9386  1.8964  0.1180
 2324SOL    HW2 7872   0.088   6.680   0.970  0.2098  0.4309 -0.0513
 2325SOL     OW 7873   6.721   4.989   1.681  0.2687 -0.2711  0.2490
 2325SOL    HW1 7874   6.658   4.911   1.690 -0.7126  0.2337 -1.7135
 2325SOL    HW2 7875   6.815   4.955   1.672  0.0956 -1.1071  1.2978
 2326SOL     OW 7876   2.033   6.041   0.778 -0.2089 -0.0035  0.5519
 2326SOL    HW1 7877   1.968   6.064   0.850  1.1513  0.9148  1.5119
 2326SOL    HW2 7878   2.080   5.956   0.801 -0.1718 -0.0065  0.4671
 2327SOL     OW 7879   4.937   5.571   3.822 -0.3496 -0.2623 -0.3480
 2327SOL    HW1 7880   4.984   5.582   3.735 -0.4180  1.3123 -0.2202
 2327SOL    HW2 7881   4.838   5.582   3.809 -0.4673 -1.1311 -0.2381
 2328SOL     OW 7882   2.828   5.395   1.797 -0.0483 -0.1619  0.3285
 2328SOL    HW1 7883   2.879   5.424   1.717 -1.8641  3.1259  0.2160
 2328SOL    HW2 7884   2.888   5.396   1.877  0.5342  2.0808 -0.0684
 2329SOL     OW 7885   1.210   5.843   1.308 -0.4793 -0.4494  0.0213
 2329SOL    HW1 7886   1.259   5.914   1.359 -1.2605 -0.6710  1.1130
 2329SOL    HW2 7887   1.276   5.777   1.272  0.2801  0.9086 -1.1822
 2330SOL     OW 7888   4.807   2.976   2.719 -0.6446  0.1868 -0.1151
 2330SOL    HW1 7889   4.830   2.879   2.728 -1.1807 -0.0432 -1.1233
 2330SOL    HW2 7890   4.790   2.997   2.623  1.2496  1.6811 -0.1769
 2331SOL     OW 7891   5.635   4.666   0.503 -0.0935 -0.7394  0.0489
 2331SOL    HW1 7892   5.700   4.670   0.427 -0.3568 -0.9917 -0.1955
 2331SOL    HW2 7893   5.641   4.576   0.547 -1.1892 -1.2440 -0.8020
 2332SOL     OW 7894   5.058   0.495   5.844  0.0139  0.4365  0.5094
 2332SOL    HW1 7895   5.122   0.530   5.775  3.0940 -1.0927  2.3412
 2332SOL    HW2 7896   5.092   0.520   5.935 -1.9143 -0.6840  1.5862
 2333SOL     OW 7897   0.416   5.187   3.455  0.9829 -0.0229  0.2716
 2333SOL    HW1 7898   0.425   5.145   3.546 -2.2792 -1.3771  0.1234
 2333SOL    HW2 7899   0.349   5.261   3.459 -0.5722 -1.2595 -1.2873
 2334SOL     OW 7900   4.732   2.108   3.517 -0.6918  0.2918  0.0474
 2334SOL    HW1 7901   4.812   2.048   3.521 -0.4996  0.5517  0.1477
 2334SOL    HW2 7902   4.662   2.073   3.579 -1.0346 -0.4704 -0.7516
 2335SOL     OW 7903   5.559   6.523   3.789  0.5489 -0.4158  0.7895
 2335SOL    HW1 7904   5.536   6.429   3.767  1.9320 -0.4554 -0.7069
 2335SOL    HW2 7905   5.505   6.585   3.733  1.5601 -0.4188 -0.2208
 2336SOL     OW 7906   3.038   2.161   3.890 -0.2706  0.1421  0.3783
 2336SOL    HW1 7907   3.061   2.195   3.981  0.1316 -0.6953  0.5973
 2336SOL    HW2 7908   3.120   2.161   3.832 -0.2580 -0.4767  0.3904
 2337SOL     OW 7909   3.377   1.398   2.483 -0.8062  0.4142 -0.0091
 2337SOL    HW1 7910   3.382   1.420   2.386 -0.4313  0.8039  0.0964
 2337SOL    HW2 7911   3.285   1.419   2.517 -0.6373  1.2620 -0.0508
 2338SOL     OW 7912   1.136   3.267   4.108  0.2230 -0.2300 -0.2118
 2338SOL    HW1 7913   1.122   3.334   4.180 -0.9070 -0.0914 -0.5348
 2338SOL    HW2 7914   1.208   3.298   4.046  1.4904 -0.5440  1.0649
 2339SOL     OW 7915   3.382   3.857   2.964  0.0227 -0.3531 -0.4219
 2339SOL    HW1 7916   3.462   3.844   2.906  1.7582  0.4124  1.6699
 2339SOL    HW2 7917   3.370   3.955   2.983  0.3991 -0.6469  1.5905
 2340SOL     OW 7918   2.754   4.918   6.500 -0.1138 -0.5204 -0.4958
 2340SOL    HW1 7919   2.701   4.843   6.459  0.0074 -0.5257 -0.6452
 2340SOL    HW2 7920   2.815   4.881   6.570 -0.0351 -0.5658 -0.5876
 2341SOL     OW 7921   2.089   4.517   3.571 -0.4407 -0.6404 -0.7006
 2341SOL    HW1 7922   2.034   4.462   3.509 -0.5162 -1.4509  0.0743
 2341SOL    HW2 7923   2.176   4.471   3.589 -0.3988 -0.3953 -0.2513
 2342SOL     OW 7924   4.563   0.635   4.363  0.1603 -0.2308 -0.4959
 2342SOL    HW1 7925   4.536   0.719   4.314  0.9254  0.9891  1.0666
 2342SOL    HW2 7926   4.606   0.572   4.299 -2.4075 -0.4271 -2.1696
 2343SOL     OW 7927   6.914   6.599   1.256  0.5517 -0.3420 -0.2002
 2343SOL    HW1 7928   6.859   6.517   1.274  1.6586 -1.1187 -0.2272
 2343SOL    HW2 7929   6.881   6.674   1.312 -1.1033 -0.5234 -0.8798
 2344SOL     OW 7930   0.722   4.271   0.588  0.3013 -0.4054 -0.9572
 2344SOL    HW1 7931   0.627   4.280   0.619  0.5042 -2.4493  0.4665
 2344SOL    HW2 7932   0.771   4.356   0.608 -0.5438 -0.2986  0.9804
 2345SOL     OW 7933   4.168   5.740   3.470  0.6202 -0.8083  0.4976
 2345SOL    HW1 7934   4.194   5.657   3.519  1.9069 -0.1006  1.0495
 2345SOL    HW2 7935   4.103   5.792   3.525  1.0439 -0.6668  0.8691
 2346SOL     OW 7936   4.796   3.678   0.909 -0.0457  0.0718  0.5466
 2346SOL    HW1 7937   4.702   3.713   0.899 -0.1075 -0.3008 -0.2474
 2346SOL    HW2 7938   4.797   3.580   0.893  0.3465 -0.0727  1.4379
 2347SOL     OW 7939   0.523   3.202   0.840 -0.1132 -0.3618 -0.5563
 2347SOL    HW1 7940   0.442   3.144   0.840  0.0876 -0.6831 -2.4411
 2347SOL    HW2 7941   0.595   3.160   0.896 -0.1861 -1.6446 -1.4072
 2348SOL     OW 7942   5.883   4.978   1.895 -0.0000 -0.3869  0.0576
 2348SOL    HW1 7943   5.931   4.979   1.807 -0.4271 -2.2317 -0.2384
 2348SOL    HW2 7944   5.846   5.069   1.914  1.5937  0.4847 -0.8109
 2349SOL     OW 7945   0.488   5.041   0.066 -0.4322 -0.2844  0.1324
 2349SOL    HW1 7946   0.420   4.986   0.018  0.3793 -0.1353 -1.2677
 2349SOL    HW2 7947   0.576   4.995   0.063 -0.1512  0.2136  0.6043
 2350SOL     OW 7948   4.467   3.451   0.681  0.0225  0.1276  0.1340
 2350SOL    HW1 7949   4.485   3.544   0.715  0.2210 -0.8190  2.8603
 2350SOL    HW2 7950   4.370   3.430   0.692 -0.0657  0.0559 -0.6979
 2351SOL     OW 7951   1.048   5.623   0.645 -0.0058  0.4150 -0.1976
 2351SOL    HW1 7952   1.136   5.589   0.678  0.8224  1.9684 -0.7133
 2351SOL    HW2 7953   1.016   5.696   0.704  1.0627  2.6206 -2.1750
 2352SOL     OW 7954   6.838   1.466   1.485 -0.4220 -0.0485 -0.2729
 2352SOL    HW1 7955   6.741   1.467   1.509 -1.0326 -2.4942 -2.2256
 2352SOL    HW2 7956   6.859   1.546   1.429 -2.0367 -0.8411 -2.1159
 2353SOL     OW 7957   3.058   6.668   5.197  0.1800 -0.2232  0.6036
 2353SOL    HW1 7958   2.994   6.745   5.205  2.6946  1.8575  2.2681
 2353SOL    HW2 7959   3.151   6.703   5.187  1.3168 -3.1122  0.2533
 2354SOL     OW 7960   4.950   1.337   3.670  0.1790  0.0064  0.8737
 2354SOL    HW1 7961   4.893   1.272   3.620  0.0745  1.2533 -0.7244
 2354SOL    HW2 7962   4.912   1.350   3.762  0.1910 -2.1036  1.2285
 2355SOL     OW 7963   2.687   6.565   6.123  0.3346  0.0114  0.1522
 2355SOL    HW1 7964   2.624   6.625   6.073  2.2430  0.7933 -1.4616
 2355SOL    HW2 7965   2.725   6.614   6.202 -2.1787 -1.0011  2.1238
 2356SOL     OW 7966   6.348   2.693   4.742  0.1668  0.2474  0.2471
 2356SOL    HW1 7967   6.333   2.673   4.839 -0.5974  2.3300  0.6022
 2356SOL    HW2 7968   6.297   2.627   4.686 -0.4131 -0.1981  1.2809
 2357SOL     OW 7969   1.425   6.838   2.192  0.0701 -0.6696  0.2873
 2357SOL    HW1 7970   1.330   6.848   2.165  0.0486 -0.2135  0.5215
 2357SOL    HW2 7971   1.454   6.742   2.180 -0.6559 -0.9911  0.9924
 2358SOL     OW 7972   6.481   4.068   3.384 -0.3357  0.3018 -0.4701
 2358SOL    HW1 7973   6.522   4.001   3.323 -1.0144 -0.6600  0.1042
 2358SOL    HW2 7974   6.494   4.160   3.347  0.9437 -0.1104 -1.0726
 2359SOL     OW 7975   3.087   0.821   3.204 -0.1486 -0.3787 -0.1143
 2359SOL    HW1 7976   3.066   0.784   3.295  2.9960  2.6199  2.0990
 2359SOL    HW2 7977   3.135   0.752   3.151 -1.7306 -2.0930  0.5524
 2360SOL     OW 7978   5.231   2.252   0.140  0.4562  0.1247 -0.1328
 2360SOL    HW1 7979   5.207   2.344   0.109 -0.9005  0.3197  1.3486
 2360SOL    HW2 7980   5.266   2.256   0.233  1.7014 -0.7379 -0.5388
 2361SOL     OW 7981   2.565   0.948   0.392 -0.1724 -0.5705  0.2622
 2361SOL    HW1 7982   2.497   0.921   0.460  0.5169 -0.0090  1.2175
 2361SOL    HW2 7983   2.648   0.892   0.404  0.6337  0.7392  1.1362
 2362SOL     OW 7984   2.593   5.610   2.171 -0.1349 -0.1230  0.1709
 2362SOL    HW1 7985   2.606   5.582   2.076 -0.4983 -0.2543  0.1568
 2362SOL    HW2 7986   2.680   5.643   2.209 -0.1425  0.5809 -0.4101
 2363SOL     OW 7987   3.630   1.078   4.783 -0.5815 -0.8799  0.0319
 2363SOL    HW1 7988   3.726   1.080   4.810 -0.6830 -0.5440  0.3748
 2363SOL    HW2 7989   3.574   1.047   4.860 -0.9133  0.4465  0.3428
 2364SOL     OW 7990   2.993   2.108   0.227 -0.0666  0.3733 -0.2613
 2364SOL    HW1 7991   2.930   2.165   0.280 -1.4985 -1.4065  0.0583
 2364SOL    HW2 7992   2.944   2.064   0.152  0.5396 -1.7407  0.5018
 2365SOL     OW 7993   5.169   1.095   1.578 -0.0804  0.1347  1.0340
 2365SOL    HW1 7994   5.123   1.012   1.610  1.8057 -0.8451  1.3300
 2365SOL    HW2 7995   5.127   1.175   1.620 -3.4142 -0.3828 -0.9162
 2366SOL     OW 7996   4.887   3.948   0.291  0.6577 -0.0720 -0.1657
 2366SOL    HW1 7997   4.893   3.976   0.387 -1.3192 -0.4641  0.1318
 2366SOL    HW2 7998   4.882   3.848   0.287 -0.9998 -0.0059 -0.4995
 2367SOL     OW 7999   2.072   5.440   5.284  0.1723  0.2425 -0.2858
 2367SOL    HW1 8000   2.130   5.505   5.234 -0.0438 -0.4500 -1.4729
 2367SOL    HW2 8001   1.984   5.483   5.304 -0.3265  0.0485 -1.9026
 2368SOL     OW 8002   7.002   6.245   1.283  0.5429 -0.4636  0.0374
 2368SOL    HW1 8003   6.917   6.295   1.299  0.3112 -0.4526 -1.1532
 2368SOL    HW2 8004   6.996   6.155   1.325  0.6745  0.2039  1.5585
 2369SOL     OW 8005   2.021   1.470   2.881 -0.0798 -0.1517  0.1078
 2369SOL    HW1 8006   2.030   1.419   2.795 -1.2067  0.8043 -0.6047
 2369SOL    HW2 8007   2.108   1.517   2.900 -0.5418  1.6703 -1.8800
 2370SOL     OW 8008   6.214   3.958   5.864 -0.1523 -0.8509 -0.3068
 2370SOL    HW1 8009   6.146   4.007   5.918  0.4285  1.0129 -1.1954
 2370SOL    HW2 8010   6.172   3.926   5.779 -0.1763 -0.6382 -0.3743
 2371SOL     OW 8011   2.321   0.460   1.205  0.0707 -0.0676  0.3887
 2371SOL    HW1 8012   2.314   0.559   1.197 -1.2245 -0.0583  1.3268
 2371SOL    HW2 8013   2.405   0.437   1.255  1.1158  0.4527 -1.0479
 2372SOL     OW 8014   6.513   3.190   4.430  0.1615  0.2942  0.7289
 2372SOL    HW1 8015   6.539   3.106   4.479 -0.5124  0.7793  1.9734
 2372SOL    HW2 8016   6.520   3.174   4.332 -2.5726 -2.1452  0.7874
 2373SOL     OW 8017   3.499   2.989   6.185  0.7593 -0.1018 -0.7556
 2373SOL    HW1 8018   3.459   2.897   6.181 -0.5676  0.3533  0.7692
 2373SOL    HW2 8019   3.445   3.051   6.128  0.9425 -0.0217 -0.8434
 2374SOL     OW 8020   5.554   3.228   4.381  0.0928 -0.2289  0.0671
 2374SOL    HW1 8021   5.632   3.248   4.323  0.4394 -2.4446 -0.3142
 2374SOL    HW2 8022   5.469   3.245   4.330  0.3108  1.1220  0.1186
 2375SOL     OW 8023   5.594   4.975   6.188  0.2646  0.5316 -0.2444
 2375SOL    HW1 8024   5.637   4.957   6.100 -0.2262  1.5788 -0.7184
 2375SOL    HW2 8025   5.660   5.022   6.248  0.6878 -0.4266  0.0627
 2376SOL     OW 8026   6.575   2.580   4.324  0.3699  0.1055  0.3664
 2376SOL    HW1 8027   6.550   2.626   4.240  0.3986 -0.8651 -0.1939
 2376SOL    HW2 8028   6.648   2.631   4.370  0.5116  0.5227 -0.3096
 2377SOL     OW 8029   3.217   3.627   2.591  0.2600 -0.2013 -0.2498
 2377SOL    HW1 8030   3.171   3.545   2.559  0.9965 -0.8824  0.3855
 2377SOL    HW2 8031   3.220   3.695   2.518  2.1620 -1.7993 -1.7789
 2378SOL     OW 8032   5.645   0.412   0.053 -0.4105  0.0987 -0.3872
 2378SOL    HW1 8033   5.683   0.474   0.122 -0.4657 -0.7115  0.3835
 2378SOL    HW2 8034   5.546   0.405   0.065 -0.5080  0.4343 -0.9497
 2379SOL     OW 8035   6.983   0.975   5.949 -0.0600 -0.1022 -0.0334
 2379SOL    HW1 8036   6.941   0.887   5.974  0.5555 -1.0294 -2.0559
 2379SOL    HW2 8037   6.915   1.032   5.902  0.3186 -0.7392 -1.3959
 2380SOL     OW 8038   6.438   3.894   5.354 -0.2082  0.1082 -0.3262
 2380SOL    HW1 8039   6.388   3.838   5.288  0.7721 -1.1891 -0.0002
 2380SOL    HW2 8040   6.376   3.963   5.392 -2.0727 -1.9630  0.6997
 2381SOL     OW 8041   2.819   5.395   2.944 -1.0500 -0.2857 -0.2825
 2381SOL    HW1 8042   2.882   5.318   2.935 -1.6364 -0.7362 -0.6211
 2381SOL    HW2 8043   2.775   5.412   2.856 -0.4948  0.8178 -0.3578
 2382SOL     OW 8044   2.537   2.490   4.601 -0.1147 -0.3128  0.1544
 2382SOL    HW1 8045   2.598   2.447   4.668  0.2207  0.9458  0.6918
 2382SOL    HW2 8046   2.475   2.421   4.563  0.9599 -1.4235  0.3416
 2383SOL     OW 8047   5.729   3.780   0.504  0.5494 -0.1719 -0.2538
 2383SOL    HW1 8048   5.716   3.872   0.468 -0.4688 -0.6216 -1.0808
 2383SOL    HW2 8049   5.731   3.714   0.429 -0.8391 -1.0469  0.4357
 2384SOL     OW 8050   4.495   1.119   2.765 -0.0821 -0.6991 -0.2250
 2384SOL    HW1 8051   4.426   1.165   2.708 -0.3938 -1.5690 -0.5717
 2384SOL    HW2 8052   4.450   1.060   2.831  0.3263 -1.8226 -0.9190
 2385SOL     OW 8053   0.732   3.943   6.602 -0.3364 -0.0634  0.1763
 2385SOL    HW1 8054   0.664   3.874   6.628 -1.1428  0.0663 -1.4267
 2385SOL    HW2 8055   0.719   4.025   6.658 -1.2761 -0.1727  0.1394
 2386SOL     OW 8056   6.092   4.172   2.854  0.1648  0.7217  0.0338
 2386SOL    HW1 8057   6.111   4.077   2.876 -0.7374  0.6447  0.5366
 2386SOL    HW2 8058   6.134   4.195   2.766 -1.2837 -0.7256 -1.0980
 2387SOL     OW 8059   6.576   0.164   1.548  0.1790 -0.4438 -0.2907
 2387SOL    HW1 8060   6.507   0.160   1.619 -0.0548  1.3572 -0.3796
 2387SOL    HW2 8061   6.578   0.255   1.508  2.0648 -0.6743 -0.8337
 2388SOL     OW 8062   6.821   0.978   3.706 -0.7089  0.3917 -0.3909
 2388SOL    HW1 8063   6.819   1.063   3.653 -2.2671 -0.0240 -1.0832
 2388SOL    HW2 8064   6.762   0.910   3.662 -0.9457 -0.4447  1.1292
 2389SOL     OW 8065   2.972   0.523   3.025 -0.4679 -0.9665  0.0416
 2389SOL    HW1 8066   3.057   0.575   3.024  0.7072 -2.6436 -2.7450
 2389SOL    HW2 8067   2.918   0.546   2.944 -1.0319 -2.3158  0.0023
 2390SOL     OW 8068   5.161   4.739   0.483 -0.7789 -0.0462  0.2962
 2390SOL    HW1 8069   5.065   4.713   0.499 -0.8064  0.5200  1.1250
 2390SOL    HW2 8070   5.175   4.753   0.386 -1.3046 -1.0316  0.0650
 2391SOL     OW 8071   3.370   5.186   5.299 -0.2557  0.5857  0.3129
 2391SOL    HW1 8072   3.346   5.253   5.369 -2.8557  0.9806 -0.8496
 2391SOL    HW2 8073   3.337   5.217   5.210  1.5559 -0.6555 -0.8805
 2392SOL     OW 8074   5.191   2.440   1.635  0.5072  0.4186  0.3049
 2392SOL    HW1 8075   5.279   2.404   1.606  1.7091  0.9664  2.9821
 2392SOL    HW2 8076   5.145   2.483   1.557  3.1235  1.1529 -0.9287
 2393SOL     OW 8077   4.062   5.965   0.176  0.2588 -0.1608 -0.0917
 2393SOL    HW1 8078   3.962   5.956   0.172  0.1809 -0.2401  1.4008
 2393SOL    HW2 8079   4.103   5.875   0.188  0.6998 -0.4114 -2.8310
 2394SOL     OW 8080   1.934   4.896   6.913 -0.0434 -0.0251 -0.1781
 2394SOL    HW1 8081   1.876   4.833   6.964  0.2709 -0.1759 -0.0005
 2394SOL    HW2 8082   1.913   4.889   6.816  0.6361 -1.1081 -0.2685
 2395SOL     OW 8083   5.573   6.397   5.433 -0.0518 -0.5088 -0.1426
 2395SOL    HW1 8084   5.568   6.484   5.480 -1.8385 -0.3213 -0.5884
 2395SOL    HW2 8085   5.483   6.353   5.433  0.3557 -1.4636 -1.5648
 2396SOL     OW 8086   3.415   5.771   0.433  0.0912  0.3898 -0.0527
 2396SOL    HW1 8087   3.456   5.709   0.500 -0.1843 -0.0574 -0.2911
 2396SOL    HW2 8088   3.388   5.856   0.478 -1.9783 -0.6763  0.8772
 2397SOL     OW 8089   1.938   1.670   3.719 -0.0043  0.6218  0.0980
 2397SOL    HW1 8090   2.021   1.625   3.751 -1.6940 -2.4725  0.5261
 2397SOL    HW2 8091   1.928   1.654   3.620  0.0556  1.2797 -0.0189
 2398SOL     OW 8092   4.597   3.901   0.450  0.3244 -0.4540 -0.4438
 2398SOL    HW1 8093   4.574   3.982   0.503  1.4065 -0.8202  0.6417
 2398SOL    HW2 8094   4.523   3.880   0.387 -0.4661  0.7064  0.0653
 2399SOL     OW 8095   4.692   2.469   1.526 -0.7346 -0.3214  0.3572
 2399SOL    HW1 8096   4.709   2.450   1.623  0.6786 -3.4654 -0.3665
 2399SOL    HW2 8097   4.597   2.447   1.504 -1.1313  0.6374  1.0416
 2400SOL     OW 8098   2.364   3.731   0.779 -0.0566 -0.2094  0.3094
 2400SOL    HW1 8099   2.396   3.788   0.855 -0.7870 -0.5192  0.8643
 2400SOL    HW2 8100   2.319   3.789   0.710  0.1283  0.0107  0.3735
 2401SOL     OW 8101   5.648   5.890   6.697 -0.1136 -0.1266  0.4447
 2401SOL    HW1 8102   5.566   5.841   6.726 -1.0713  1.0753 -0.1592
 2401SOL    HW2 8103   5.658   5.882   6.598 -0.1163  0.6403  0.3773
 2402SOL     OW 8104   6.480   6.833   4.083  0.2400  0.1824 -0.4964
 2402SOL    HW1 8105   6.426   6.807   4.003  1.0832 -0.8357 -0.7627
 2402SOL    HW2 8106   6.444   6.917   4.122 -1.0683 -0.0836 -1.0940
 2403SOL     OW 8107   1.700   1.037   3.903 -0.2093  0.0521 -0.1959
 2403SOL    HW1 8108   1.638   1.115   3.893 -0.0368  0.1953 -0.1559
 2403SOL    HW2 8109   1.650   0.960   3.942 -0.1987  0.3932  0.5142
 2404SOL     OW 8110   1.181   0.215   1.285 -0.4553  0.0883  0.2815
 2404SOL    HW1 8111   1.214   0.192   1.376  1.2761  1.8677  0.1761
 2404SOL    HW2 8112   1.253   0.195   1.217  0.5019  3.6694 -0.0074
 2405SOL     OW 8113   1.551   4.055   1.869 -0.2783  0.2743 -0.1573
 2405SOL    HW1 8114   1.459   4.059   1.910 -1.1680 -0.7226 -1.9573
 2405SOL    HW2 8115   1.592   3.966   1.887 -0.2599  0.1953 -0.5960
 2406SOL     OW 8116   3.843   1.411   1.423 -0.3940 -0.1286 -0.7427
 2406SOL    HW1 8117   3.915   1.461   1.472  0.2772 -1.3764 -0.4060
 2406SOL    HW2 8118   3.792   1.475   1.365  0.4487  0.9304 -0.3648
 2407SOL     OW 8119   3.568   6.986   2.720  0.1333  0.3206 -0.2451
 2407SOL    HW1 8120   3.512   6.986   2.803 -0.0550  2.8109 -0.2957
 2407SOL    HW2 8121   3.600   6.893   2.702 -2.0482 -0.7880  1.0732
 2408SOL     OW 8122   3.207   5.282   2.956 -0.2351 -0.2944 -0.9497
 2408SOL    HW1 8123   3.305   5.272   2.938 -0.1683  1.2256 -1.6699
 2408SOL    HW2 8124   3.186   5.379   2.970 -1.2544 -0.8142  1.7354
 2409SOL     OW 8125   1.459   3.959   0.106  0.4274  0.4720  0.3563
 2409SOL    HW1 8126   1.554   3.977   0.081 -0.0107 -0.9421 -2.8315
 2409SOL    HW2 8127   1.400   3.988   0.031 -1.3697 -1.6002  0.8796
 2410SOL     OW 8128   2.923   3.261   1.897 -0.2864 -0.0675  0.1623
 2410SOL    HW1 8129   2.963   3.327   1.960  0.3945  0.0747 -0.3911
 2410SOL    HW2 8130   2.824   3.264   1.903 -0.2368  0.0310  1.1234
 2411SOL     OW 8131   4.017   1.837   0.349  0.9119  0.4360 -0.1451
 2411SOL    HW1 8132   3.945   1.889   0.395  0.7773 -0.7676  1.0491
 2411SOL    HW2 8133   4.106   1.879   0.369  0.5955  1.9877 -1.7066
 2412SOL     OW 8134   4.865   2.472   6.376 -0.2473  0.3077 -0.3484
 2412SOL    HW1 8135   4.912   2.560   6.369  1.2610 -0.3964  0.3709
 2412SOL    HW2 8136   4.846   2.436   6.285 -0.4594  1.1521 -0.6444
 2413SOL     OW 8137   2.137   2.140   3.386  0.1829 -0.0571 -0.1595
 2413SOL    HW1 8138   2.124   2.212   3.318 -0.5237  0.2043  0.2429
 2413SOL    HW2 8139   2.228   2.148   3.425 -0.4866  1.7495  1.1603
 2414SOL     OW 8140   5.866   3.484   3.368  0.5341 -0.8441  0.1997
 2414SOL    HW1 8141   5.895   3.421   3.295  0.0236  0.5424 -1.2580
 2414SOL    HW2 8142   5.815   3.560   3.328  2.8001  1.5907  1.6456
 2415SOL     OW 8143   4.364   5.893   0.673 -0.7213  0.2079  0.2021
 2415SOL    HW1 8144   4.364   5.851   0.582 -0.6775  3.3212 -1.3665
 2415SOL    HW2 8145   4.271   5.898   0.708 -0.6335 -1.9827  0.9133
 2416SOL     OW 8146   4.692   1.320   4.430  0.4052  0.4982 -0.1011
 2416SOL    HW1 8147   4.691   1.417   4.406  2.7375  0.3756 -0.9411
 2416SOL    HW2 8148   4.739   1.309   4.518  1.0518  0.0706 -0.4919
 2417SOL     OW 8149   4.149   3.458   0.111  0.0832 -0.2551  0.0785
 2417SOL    HW1 8150   4.160   3.375   0.057 -1.5124  2.0454 -4.2698
 2417SOL    HW2 8151   4.237   3.503   0.122  0.6987 -1.6410  1.0298
 2418SOL     OW 8152   2.895   4.116   1.144 -0.4734 -0.6080  0.2299
 2418SOL    HW1 8153   2.860   4.092   1.054 -2.4514  0.6798  0.6030
 2418SOL    HW2 8154   2.904   4.033   1.199 -1.5037 -1.1712 -0.4158
 2419SOL     OW 8155   6.183   0.457   3.574  0.5452 -0.1974 -0.2307
 2419SOL    HW1 8156   6.220   0.374   3.532  0.3660 -0.2931 -0.2040
 2419SOL    HW2 8157   6.131   0.508   3.505  0.3690 -0.2828 -0.1627
 2420SOL     OW 8158   0.306   6.696   1.799  0.7450  0.4278  0.6777
 2420SOL    HW1 8159   0.242   6.639   1.748  1.3024 -0.4361  0.9435
 2420SOL    HW2 8160   0.361   6.750   1.735  1.8787 -1.1112  0.3127
 2421SOL     OW 8161   4.862   1.514   3.009  0.2151 -0.1134 -0.0559
 2421SOL    HW1 8162   4.784   1.470   2.964  1.2959 -1.6829 -0.4808
 2421SOL    HW2 8163   4.891   1.594   2.955 -1.3033  0.7292  0.3205
 2422SOL     OW 8164   4.196   1.097   1.312 -0.5906  0.3978  0.0091
 2422SOL    HW1 8165   4.240   1.174   1.358  0.4024  0.6766 -1.3319
 2422SOL    HW2 8166   4.196   1.018   1.373  2.8217  0.0595 -0.2370
 2423SOL     OW 8167   2.389   5.449   1.822  1.0409 -0.2173 -0.2282
 2423SOL    HW1 8168   2.334   5.366   1.823  1.3934 -0.5103 -1.8379
 2423SOL    HW2 8169   2.339   5.524   1.865 -0.5729 -0.5188 -1.4924
 2424SOL     OW 8170   6.589   0.354   0.777  0.1318  0.0387 -0.0587
 2424SOL    HW1 8171   6.493   0.330   0.792  0.1913 -0.6197 -0.6816
 2424SOL    HW2 8172   6.631   0.286   0.717  0.8567  0.5999 -0.1942
 2425SOL     OW 8173   6.350   0.423   4.351 -0.5729 -0.3249  0.1261
 2425SOL    HW1 8174   6.260   0.442   4.313 -1.4350 -0.6294  1.8968
 2425SOL    HW2 8175   6.344   0.348   4.416  0.4886  1.0453  1.9354
 2426SOL     OW 8176   1.658   6.962   4.836 -0.5915  0.5968 -0.1649
 2426SOL    HW1 8177   1.709   6.968   4.922 -1.0716 -0.8592  0.2450
 2426SOL    HW2 8178   1.708   7.011   4.764  0.5538  0.5985  0.6061
 2427SOL     OW 8179   5.063   0.236   4.853 -0.1783  0.2029  0.1495
 2427SOL    HW1 8180   5.046   0.160   4.916 -2.2276  0.6841  0.2338
 2427SOL    HW2 8181   5.005   0.227   4.773  1.5167  0.2662 -1.1478
 2428SOL     OW 8182   4.833   1.870   6.544 -0.3704  0.2275  0.1546
 2428SOL    HW1 8183   4.902   1.935   6.511  0.6449 -1.7298 -1.8568
 2428SOL    HW2 8184   4.878   1.791   6.585 -1.4793 -0.5075  0.0009
 2429SOL     OW 8185   5.123   2.710   3.433 -0.1016  0.6218  0.3045
 2429SOL    HW1 8186   5.123   2.806   3.406  2.5677  0.5247 -0.3301
 2429SOL    HW2 8187   5.058   2.659   3.377  0.1998  1.6602 -1.0471
 2430SOL     OW 8188   6.227   0.055   0.886 -0.1686 -0.1178 -0.1187
 2430SOL    HW1 8189   6.290  -0.022   0.900 -1.3564 -1.0078  0.5077
 2430SOL    HW2 8190   6.137   0.032   0.923 -0.5889  1.5507 -0.0217
 2431SOL     OW 8191   6.138   5.538   1.221  0.3285 -0.3425 -0.2799
 2431SOL    HW1 8192   6.157   5.445   1.250  3.2858  0.7840  1.9054
 2431SOL    HW2 8193   6.092   5.588   1.296 -1.8219 -0.1203 -1.6497
 2432SOL     OW 8194   1.528   4.415   2.898  0.2033 -0.0489 -0.3070
 2432SOL    HW1 8195   1.601   4.467   2.852  1.8628 -2.4339 -0.5996
 2432SOL    HW2 8196   1.465   4.379   2.829 -1.0150  1.5652 -0.0955
 2433SOL     OW 8197   5.194   6.543   0.072  0.2527 -0.1389  0.5777
 2433SOL    HW1 8198   5.273   6.559   0.131 -1.1370  3.1208  1.8272
 2433SOL    HW2 8199   5.198   6.451   0.034  2.1560 -1.8040  4.3295
 2434SOL     OW 8200   3.621   2.966   5.125 -0.4747 -0.2643  0.3250
 2434SOL    HW1 8201   3.560   3.019   5.066  0.4179  0.8312  0.3549
 2434SOL    HW2 8202   3.571   2.887   5.162 -1.1289 -0.8575 -1.6648
 2435SOL     OW 8203   6.320   3.706   5.898 -0.1628  0.1666  0.0962
 2435SOL    HW1 8204   6.272   3.793   5.905  0.7965  0.7508 -0.2700
 2435SOL    HW2 8205   6.378   3.693   5.979 -0.6973 -0.3816  0.3939
 2436SOL     OW 8206   4.697   2.859   0.456 -0.2734 -0.0448  0.5891
 2436SOL    HW1 8207   4.796   2.843   0.467 -0.0375  1.2389  0.4079
 2436SOL    HW2 8208   4.662   2.799   0.384  0.5647  0.1326  0.0173
 2437SOL     OW 8209   6.892   6.605   0.340  0.0672 -0.0737  0.3724
 2437SOL    HW1 8210   6.937   6.693   0.323 -2.4464  1.5978  1.7344
 2437SOL    HW2 8211   6.833   6.613   0.421 -1.3380 -2.5993 -0.3038
 2438SOL     OW 8212   2.693   2.009   6.677 -0.5222  0.0249 -0.1691
 2438SOL    HW1 8213   2.735   1.951   6.607  1.4359  1.5770 -0.3812
 2438SOL    HW2 8214   2.682   2.101   6.641 -1.4840  0.3514  0.8969
 2439SOL     OW 8215   0.735   3.849   0.754  0.0977 -0.1994  0.0645
 2439SOL    HW1 8216   0.735   3.760   0.798 -0.5466 -1.0797 -1.6264
 2439SOL    HW2 8217   0.829   3.880   0.740  0.3149 -0.2583  1.2975
 2440SOL     OW 8218   6.596   4.764   5.882 -0.3958  0.1834 -0.1647
 2440SOL    HW1 8219   6.647   4.692   5.929 -2.5499 -1.1157  0.3266
 2440SOL    HW2 8220   6.659   4.838   5.856  1.4938 -0.7535  1.4442
 2441SOL     OW 8221   0.389   1.012   6.163 -0.2829  0.2248 -0.0737
 2441SOL    HW1 8222   0.300   0.967   6.164  0.0054 -0.3522  0.0370
 2441SOL    HW2 8223   0.380   1.103   6.123 -0.7030 -0.3062 -1.2342
 2442SOL     OW 8224   5.890   1.663   2.372 -0.1595 -0.1090 -0.4862
 2442SOL    HW1 8225   5.931   1.738   2.321  2.6831 -0.9379  0.3965
 2442SOL    HW2 8226   5.834   1.700   2.446  1.9047  1.2364  0.4919
 2443SOL     OW 8227   3.255   3.851   6.072 -0.0733  0.2724 -0.1783
 2443SOL    HW1 8228   3.184   3.786   6.099  0.5676 -1.1969 -1.8328
 2443SOL    HW2 8229   3.278   3.838   5.976  2.3285  0.7998  0.2553
 2444SOL     OW 8230   4.422   3.764   5.577 -0.9462  0.5696  0.2170
 2444SOL    HW1 8231   4.440   3.775   5.479 -1.8636 -0.9326 -0.1489
 2444SOL    HW2 8232   4.465   3.839   5.627  1.1858  0.3532 -1.1465
 2445SOL     OW 8233   1.766   0.412   0.556  0.1432  0.0184  0.0465
 2445SOL    HW1 8234   1.697   0.484   0.549 -0.8835 -0.6879  2.0854
 2445SOL    HW2 8235   1.736   0.332   0.503 -1.9240 -1.1656  2.7235
 2446SOL     OW 8236   4.226   3.355   0.746  0.2032 -0.1066  0.0475
 2446SOL    HW1 8237   4.158   3.344   0.819 -1.0742  0.2460 -1.0511
 2446SOL    HW2 8238   4.233   3.269   0.695  0.6119 -0.1499  0.1763
 2447SOL     OW 8239   2.069   1.470   6.865  0.0469 -0.2008  0.3657
 2447SOL    HW1 8240   2.098   1.566   6.865 -0.3114 -0.0867  0.1784
 2447SOL    HW2 8241   1.997   1.458   6.933 -1.9382  0.3275 -1.5051
 2448SOL     OW 8242   6.053   6.776   4.503 -0.3378 -0.7045 -0.1211
 2448SOL    HW1 8243   6.004   6.835   4.439 -0.6534 -0.0764  0.6795
 2448SOL    HW2 8244   5.998   6.764   4.586  0.1752 -1.2938  0.1408
 2449SOL     OW 8245   5.622   3.392   6.748  0.2778 -0.6596 -0.0047
 2449SOL    HW1 8246   5.653   3.483   6.720  2.1665 -0.9009  1.1012
 2449SOL    HW2 8247   5.693   3.325   6.728 -0.0416 -1.4798  1.4241
 2450SOL     OW 8248   3.291   3.185   6.867  0.2222  0.1737 -0.0270
 2450SOL    HW1 8249   3.292   3.183   6.767  0.6887  2.5895 -0.1296
 2450SOL    HW2 8250   3.206   3.227   6.898  0.1807 -0.3665  0.6042
 2451SOL     OW 8251   1.765   6.150   2.572  0.4066  0.0553 -0.5082
 2451SOL    HW1 8252   1.797   6.060   2.603  0.2574  0.3526  0.5311
 2451SOL    HW2 8253   1.675   6.140   2.529 -0.2652 -0.1069  0.8846
 2452SOL     OW 8254   3.767   1.634   5.425  0.0337 -0.0051 -0.4990
 2452SOL    HW1 8255   3.846   1.620   5.366  0.7500  0.3812  0.3371
 2452SOL    HW2 8256   3.729   1.546   5.453  1.0582 -0.2353  0.2313
 2453SOL     OW 8257   0.801   3.646   3.211  0.0770  0.2377  0.2212
 2453SOL    HW1 8258   0.873   3.685   3.153 -0.4076 -0.7088 -1.0832
 2453SOL    HW2 8259   0.712   3.667   3.172 -0.3010  0.2823  1.0984
 2454SOL     OW 8260   0.775   1.202   2.207  0.2908 -0.0282 -0.1175
 2454SOL    HW1 8261   0.683   1.168   2.223  0.9409 -1.0658  1.6695
 2454SOL    HW2 8262   0.835   1.126   2.182  0.5061  0.7778 -2.3109
 2455SOL     OW 8263   5.658   2.256   6.994 -0.2108 -0.3178  0.0481
 2455SOL    HW1 8264   5.684   2.306   6.911  1.6215 -0.0898  0.7080
 2455SOL    HW2 8265   5.572   2.209   6.979  0.3175 -0.6920 -2.1786
 2456SOL     OW 8266   2.390   6.104   6.713 -0.5251 -0.4414  0.0951
 2456SOL    HW1 8267   2.441   6.107   6.627  0.1016  0.4425  0.4787
 2456SOL    HW2 8268   2.418   6.024   6.766 -0.5534 -0.7185 -0.3049
 2457SOL     OW 8269   4.515   6.525   4.782 -0.3690  0.1092  0.0535
 2457SOL    HW1 8270   4.539   6.578   4.864 -0.3971 -0.1622  0.2418
 2457SOL    HW2 8271   4.491   6.587   4.708  0.5456  0.3833 -0.0250
 2458SOL     OW 8272   1.123   6.311   1.248  0.8598  0.2316 -0.7285
 2458SOL    HW1 8273   1.033   6.268   1.254  1.0241 -0.1291 -0.8105
 2458SOL    HW2 8274   1.141   6.363   1.332  1.6775 -1.8676  0.4620
 2459SOL     OW 8275   1.792   2.197   6.209 -0.1063 -0.2754 -0.2350
 2459SOL    HW1 8276   1.866   2.211   6.274 -1.3011  2.8002  0.6411
 2459SOL    HW2 8277   1.719   2.143   6.252  0.2494 -0.5462  0.0273
 2460SOL     OW 8278   1.408   5.856   1.768  0.1024  0.5656 -0.1985
 2460SOL    HW1 8279   1.381   5.936   1.822  1.6315 -0.8511  2.9228
 2460SOL    HW2 8280   1.505   5.862   1.745  0.4982 -0.7829  0.9626
 2461SOL     OW 8281   5.105   0.890   3.886 -0.4481  0.1536  0.0909
 2461SOL    HW1 8282   5.045   0.921   3.812  1.3921  1.2201 -1.0051
 2461SOL    HW2 8283   5.195   0.931   3.876  0.6614 -1.8043  1.4097
 2462SOL     OW 8284   4.390   4.822   0.610  0.3255  0.4388 -0.7071
 2462SOL    HW1 8285   4.454   4.835   0.685 -0.8439  1.6420  0.1300
 2462SOL    HW2 8286   4.319   4.893   0.614 -2.0617 -1.7768 -0.5081
 2463SOL     OW 8287   1.761   3.869   6.410 -0.5230 -0.5100 -0.2127
 2463SOL    HW1 8288   1.714   3.886   6.323 -0.5218 -0.2217 -0.1587
 2463SOL    HW2 8289   1.830   3.940   6.424  0.4207 -1.3124 -0.6344
 2464SOL     OW 8290   0.165   3.699   0.711 -0.3475 -0.8093 -0.1818
 2464SOL    HW1 8291   0.218   3.678   0.629 -0.9015  0.9011 -1.0187
 2464SOL    HW2 8292   0.068   3.698   0.689 -0.4540  2.2256 -0.2933
 2465SOL     OW 8293   6.416   3.489   4.256 -0.2497 -0.0563 -0.0443
 2465SOL    HW1 8294   6.426   3.440   4.169 -2.1041 -0.9606  0.2009
 2465SOL    HW2 8295   6.438   3.428   4.331  0.8210  0.5666  0.1674
 2466SOL     OW 8296   2.133   2.245   6.846  0.1094  0.1096  0.1678
 2466SOL    HW1 8297   2.226   2.270   6.872  1.2537 -2.7959 -0.8187
 2466SOL    HW2 8298   2.134   2.164   6.788 -3.0550 -0.0020  0.0708
 2467SOL     OW 8299   3.542   0.184   5.738 -0.1144  0.0090  0.0573
 2467SOL    HW1 8300   3.561   0.118   5.811  2.9196 -1.7037 -2.0540
 2467SOL    HW2 8301   3.614   0.253   5.737 -0.8553  0.7765 -0.5221
 2468SOL     OW 8302   5.944   5.691   1.355  0.8206  0.0439 -0.4232
 2468SOL    HW1 8303   5.995   5.775   1.335  0.3338 -0.2303 -3.1257
 2468SOL    HW2 8304   5.881   5.672   1.280 -0.3173 -1.8474  0.9385
 2469SOL     OW 8305   3.478   0.777   6.126  0.6572  0.4472 -0.0838
 2469SOL    HW1 8306   3.394   0.743   6.086  1.3279 -0.0931 -1.0708
 2469SOL    HW2 8307   3.457   0.851   6.190 -0.4532  1.1789 -1.2559
 2470SOL     OW 8308   2.670   3.415   0.439  0.2538  0.2941 -0.0984
 2470SOL    HW1 8309   2.607   3.485   0.473 -2.0570 -1.7917  0.2233
 2470SOL    HW2 8310   2.649   3.328   0.482  0.9807 -1.2653 -2.6691
 2471SOL     OW 8311   2.494   0.507   2.791  0.1543 -0.2005 -0.1621
 2471SOL    HW1 8312   2.585   0.515   2.832  0.9855 -2.9776 -1.2078
 2471SOL    HW2 8313   2.503   0.480   2.695 -1.7751 -0.4433 -0.3170
 2472SOL     OW 8314   6.828   1.502   3.331 -0.1962 -0.3874 -0.0221
 2472SOL    HW1 8315   6.771   1.507   3.413  1.9616 -1.9261  1.6878
 2472SOL    HW2 8316   6.924   1.519   3.356  0.4682 -0.3498 -2.3555
 2473SOL     OW 8317   0.023   4.276   4.681 -0.0818 -0.7271  0.2883
 2473SOL    HW1 8318   0.039   4.236   4.771 -1.3525 -1.3675  0.2517
 2473SOL    HW2 8319  -0.023   4.209   4.622  0.3046 -0.1558 -0.6879
 2474SOL     OW 8320   5.325   0.259   4.162  0.8199 -0.2957  0.4597
 2474SOL    HW1 8321   5.316   0.170   4.115  1.3396  0.3939 -1.0041
 2474SOL    HW2 8322   5.382   0.320   4.107  1.0053  0.7443  1.7672
 2475SOL     OW 8323   3.127   1.794   6.087 -0.3516  0.6356  0.2395
 2475SOL    HW1 8324   3.205   1.736   6.109 -0.6230  0.4092  0.6382
 2475SOL    HW2 8325   3.126   1.814   5.989 -0.1151  0.1700  0.1400
 2476SOL     OW 8326   0.352   2.085   3.589 -0.3687  0.0518  0.6124
 2476SOL    HW1 8327   0.348   2.097   3.490 -0.7873  0.0306  0.6260
 2476SOL    HW2 8328   0.261   2.100   3.628  0.0527  1.3922  1.1355
 2477SOL     OW 8329   5.178   5.470   0.736  0.0267  0.1558 -0.1734
 2477SOL    HW1 8330   5.188   5.411   0.656  1.0805  0.6604 -0.4253
 2477SOL    HW2 8331   5.156   5.563   0.707  0.3828  0.3348  0.1135
 2478SOL     OW 8332   1.160   1.322   2.357  0.4635  0.9734 -0.3383
 2478SOL    HW1 8333   1.173   1.225   2.341  1.4710  0.8797  0.8518
 2478SOL    HW2 8334   1.214   1.350   2.436 -0.9964  2.1958  0.2817
 2479SOL     OW 8335   2.869   4.415   0.126  0.7269  0.3432 -0.0746
 2479SOL    HW1 8336   2.940   4.451   0.188  0.6412  0.4813 -0.0564
 2479SOL    HW2 8337   2.912   4.357   0.057  0.6536 -1.1367  1.0696
 2480SOL     OW 8338   6.239   6.123   1.199 -0.2084 -0.3410  0.6887
 2480SOL    HW1 8339   6.280   6.203   1.244  0.1633 -1.4474  2.4079
 2480SOL    HW2 8340   6.166   6.153   1.137  2.1097  1.5734 -1.3014
 2481SOL     OW 8341   5.065   3.742   2.176 -0.3997  0.3693 -0.3586
 2481SOL    HW1 8342   5.091   3.680   2.250  0.0984 -0.3946 -1.1385
 2481SOL    HW2 8343   5.016   3.821   2.213  1.1687  0.7823  0.9336
 2482SOL     OW 8344   3.994   1.172   5.773  0.2686  0.5924  0.0463
 2482SOL    HW1 8345   3.897   1.193   5.758 -0.5286 -2.5214 -0.0710
 2482SOL    HW2 8346   4.007   1.140   5.867  0.9502  0.0020 -0.2375
 2483SOL     OW 8347   5.470   2.987   5.434 -0.2388  0.1703 -0.2847
 2483SOL    HW1 8348   5.427   2.921   5.373  1.0066 -0.6205 -0.3396
 2483SOL    HW2 8349   5.564   3.002   5.405 -0.2844  1.4447  0.1578
 2484SOL     OW 8350   4.898   5.656   0.567 -0.5899  0.0437  0.3087
 2484SOL    HW1 8351   4.881   5.703   0.480  0.8581 -1.7954 -1.0909
 2484SOL    HW2 8352   4.989   5.681   0.601 -1.1851  0.8188  1.3783
 2485SOL     OW 8353   0.190   2.590   1.077  0.0765  0.8855 -0.4335
 2485SOL    HW1 8354   0.136   2.673   1.089 -0.1426  1.2208 -3.1097
 2485SOL    HW2 8355   0.259   2.605   1.007  1.5170 -0.5545  0.5984
 2486SOL     OW 8356   2.493   5.651   5.097  0.3106 -0.0272  0.0755
 2486SOL    HW1 8357   2.497   5.555   5.070 -1.0766 -0.9496  2.8090
 2486SOL    HW2 8358   2.563   5.670   5.165  0.9957  1.1320 -0.9052
 2487SOL     OW 8359   2.976   1.533   1.387  0.0948  0.7251  0.0495
 2487SOL    HW1 8360   3.002   1.626   1.413 -1.0424  0.9021  0.6136
 2487SOL    HW2 8361   2.941   1.484   1.467 -3.1663  1.1722 -0.9448
 2488SOL     OW 8362   1.407   5.938   5.492  0.0830  0.4380  0.5626
 2488SOL    HW1 8363   1.309   5.956   5.486  0.0424  0.0988  0.1806
 2488SOL    HW2 8364   1.444   5.922   5.401  0.5413  0.7996  0.6829
 2489SOL     OW 8365   0.425   4.598   5.121  0.0918  0.0174  0.4295
 2489SOL    HW1 8366   0.352   4.541   5.085  0.8623 -0.5545 -0.2495
 2489SOL    HW2 8367   0.514   4.563   5.090  0.6712  0.5661  1.4225
 2490SOL     OW 8368   5.361   3.624   1.893  0.1673 -0.2799 -0.2506
 2490SOL    HW1 8369   5.327   3.697   1.835 -0.9761 -0.0150  0.7184
 2490SOL    HW2 8370   5.461   3.619   1.885  0.2666  1.3484 -0.3623
 2491SOL     OW 8371   6.374   2.391   2.256 -0.0456  0.3015 -0.3956
 2491SOL    HW1 8372   6.351   2.381   2.353 -0.3329 -0.1830 -0.5090
 2491SOL    HW2 8373   6.417   2.480   2.241 -0.3925  0.5599  0.1020
 2492SOL     OW 8374   2.986   6.578   0.683 -0.4260 -0.4287 -0.5060
 2492SOL    HW1 8375   3.068   6.589   0.739 -0.6361  1.1227 -0.4450
 2492SOL    HW2 8376   2.929   6.660   0.691 -0.3033  0.0258 -3.2437
 2493SOL     OW 8377   6.191   0.464   5.949  0.0258  0.0292  0.1281
 2493SOL    HW1 8378   6.253   0.396   5.910  0.2064  0.4028 -0.2442
 2493SOL    HW2 8379   6.199   0.464   6.048  0.7535  0.2004  0.0684
 2494SOL     OW 8380   6.315   0.312   0.869  0.6939  0.4470 -0.2009
 2494SOL    HW1 8381   6.266   0.224   0.866  0.5489  0.2618  3.3012
 2494SOL    HW2 8382   6.252   0.385   0.844  0.4237 -0.2869 -1.7894
 2495SOL     OW 8383   1.832   2.777   3.285  0.1702 -0.6732 -0.1272
 2495SOL    HW1 8384   1.754   2.754   3.228  1.1316 -1.5135 -1.1653
 2495SOL    HW2 8385   1.819   2.738   3.376  0.1228 -2.3276 -0.7931
 2496SOL     OW 8386   1.215   5.228   1.356  0.2430 -0.2811  0.4878
 2496SOL    HW1 8387   1.283   5.264   1.293  0.6176  0.8669  1.5092
 2496SOL    HW2 8388   1.258   5.165   1.420  0.4811  0.8540  1.4722
 2497SOL     OW 8389   6.363   1.092   5.536 -0.1917  0.3115 -0.4947
 2497SOL    HW1 8390   6.353   0.993   5.541  1.9894  0.0509 -0.2182
 2497SOL    HW2 8391   6.296   1.129   5.472  0.7826 -1.7007 -2.8652
 2498SOL     OW 8392   6.782   3.103   5.558  0.0027  0.1502  0.4743
 2498SOL    HW1 8393   6.686   3.096   5.533  0.4567 -0.5779 -1.1955
 2498SOL    HW2 8394   6.825   3.013   5.550  1.2783  0.8343 -0.9014
 2499SOL     OW 8395   5.665   1.271   6.791  0.3970 -0.0633  0.3303
 2499SOL    HW1 8396   5.727   1.221   6.851  1.2390 -0.1291 -0.5607
 2499SOL    HW2 8397   5.623   1.206   6.726 -1.4941 -0.2101  1.6246
 2500SOL     OW 8398   5.122   2.645   4.309  0.2437  0.2366 -0.1642
 2500SOL    HW1 8399   5.085   2.643   4.402  1.1111  2.0019  0.2452
 2500SOL    HW2 8400   5.209   2.694   4.308  0.7439 -0.6060 -1.7559
 2501SOL     OW 8401   6.257   4.915   0.341 -0.0413 -0.1201 -0.3094
 2501SOL    HW1 8402   6.163   4.914   0.375 -0.0996 -0.0417 -0.4668
 2501SOL    HW2 8403   6.258   4.949   0.247  0.1382 -0.1704 -0.3265
 2502SOL     OW 8404   6.114   6.046   3.166  0.0380  0.3197 -0.4306
 2502SOL    HW1 8405   6.065   6.071   3.083 -1.5616  0.4918  0.5240
 2502SOL    HW2 8406   6.133   6.129   3.219 -1.1860 -0.0021  0.5466
 2503SOL     OW 8407   4.638   5.349   4.031 -0.5284  0.3742 -0.6641
 2503SOL    HW1 8408   4.640   5.393   4.121 -0.1014  0.5819 -0.7722
 2503SOL    HW2 8409   4.561   5.286   4.027 -1.1165  1.0622 -0.4767
 2504SOL     OW 8410   3.801   5.625   3.557  0.7671 -0.0203 -0.4395
 2504SOL    HW1 8411   3.711   5.661   3.580  1.1656 -0.2281  1.5631
 2504SOL    HW2 8412   3.872   5.684   3.595  1.5121  0.1814 -2.0569
 2505SOL     OW 8413   5.405   4.683   2.473  0.3256 -0.8954 -0.1710
 2505SOL    HW1 8414   5.451   4.677   2.384  1.1022 -0.3267  0.1848
 2505SOL    HW2 8415   5.306   4.683   2.459  0.4361 -1.5873 -0.9830
 2506SOL     OW 8416   0.733   1.690   6.488  0.5136 -0.3644  0.5436
 2506SOL    HW1 8417   0.791   1.717   6.565 -0.1595 -0.4621  1.0879
 2506SOL    HW2 8418   0.782   1.623   6.432  2.0313  1.5727 -0.5770
 2507SOL     OW 8419   0.468   6.306   1.843  0.0704  0.2343  0.2323
 2507SOL    HW1 8420   0.403   6.353   1.784 -0.0918  0.5149  0.6286
 2507SOL    HW2 8421   0.430   6.216   1.868  0.5241 -0.2602 -0.7862
 2508SOL     OW 8422   2.383   1.708   0.669  0.3181  0.0113  0.2156
 2508SOL    HW1 8423   2.458   1.658   0.711  0.4051 -0.4705 -0.5192
 2508SOL    HW2 8424   2.296   1.666   0.696  0.4414 -1.9454 -2.1262
 2509SOL     OW 8425   5.935   1.072   5.539 -0.4664 -0.4132  0.5123
 2509SOL    HW1 8426   6.004   1.086   5.610  2.5393 -2.4011 -1.7297
 2509SOL    HW2 8427   5.904   1.160   5.505  0.5033  0.5628  2.0186
 2510SOL     OW 8428   5.110   4.956   3.219 -0.3384 -0.4471 -0.2800
 2510SOL    HW1 8429   5.056   4.917   3.293  0.8377  0.7602  1.2687
 2510SOL    HW2 8430   5.191   5.002   3.256  1.2643 -1.3160 -2.4283
 2511SOL     OW 8431   4.107   4.920   3.131 -0.2735 -0.0879 -0.0963
 2511SOL    HW1 8432   4.190   4.970   3.159 -0.6998  0.4106  0.2920
 2511SOL    HW2 8433   4.060   4.886   3.212 -1.0142  0.5481 -0.2488
 2512SOL     OW 8434   4.895   3.781   4.586  0.2845 -0.6366 -0.4543
 2512SOL    HW1 8435   4.866   3.792   4.681 -0.0233 -1.3454 -0.4646
 2512SOL    HW2 8436   4.983   3.734   4.583  0.1073 -0.9603 -0.5383
 2513SOL     OW 8437   1.244   3.853   3.334 -0.2640 -0.1582  0.0633
 2513SOL    HW1 8438   1.213   3.879   3.243  1.2310 -0.4003 -0.5397
 2513SOL    HW2 8439   1.337   3.888   3.349 -0.1400 -0.8976  1.1462
 2514SOL     OW 8440   1.016   1.850   3.634  0.0985  0.1725 -0.6502
 2514SOL    HW1 8441   1.006   1.775   3.698  2.5787  0.7784  0.5472
 2514SOL    HW2 8442   0.941   1.916   3.647 -0.8732 -0.9786 -0.2424
 2515SOL     OW 8443   0.742   4.473   1.870  0.1505 -0.1661 -0.2241
 2515SOL    HW1 8444   0.768   4.389   1.919  0.6201 -0.0023 -0.1845
 2515SOL    HW2 8445   0.719   4.450   1.776  0.8120 -0.2685 -0.3624
 2516SOL     OW 8446   5.911   0.239   4.974 -0.4808 -0.4525 -0.6367
 2516SOL    HW1 8447   5.955   0.157   5.012 -1.2204 -0.1909  0.8928
 2516SOL    HW2 8448   5.818   0.216   4.946 -1.0267  0.0306  0.6863
 2517SOL     OW 8449   6.554   0.771   0.420  0.0053  0.0970 -0.4876
 2517SOL    HW1 8450   6.645   0.812   0.425 -0.0285  0.0784  0.5945
 2517SOL    HW2 8451   6.500   0.803   0.498 -0.6193 -0.6019 -0.6279
 2518SOL     OW 8452   2.560   2.901   5.471  0.0719 -0.2051 -0.1385
 2518SOL    HW1 8453   2.514   2.882   5.384 -3.4259  0.2018  1.4362
 2518SOL    HW2 8454   2.523   2.840   5.541  1.1818  0.9600  1.5186
 2519SOL     OW 8455   6.177   3.762   6.547  0.1446 -0.1265 -0.8815
 2519SOL    HW1 8456   6.149   3.826   6.476 -1.6887 -0.3325 -0.4120
 2519SOL    HW2 8457   6.212   3.813   6.626 -2.3404  0.4601 -0.0667
 2520SOL     OW 8458   3.648   6.635   0.405  0.3763  0.4580 -0.0305
 2520SOL    HW1 8459   3.689   6.544   0.416 -0.4971  0.0936  0.4104
 2520SOL    HW2 8460   3.645   6.659   0.309  1.8967  0.6425 -0.0532
 2521SOL     OW 8461   5.698   6.193   0.090 -0.1634  0.1235 -0.8419
 2521SOL    HW1 8462   5.793   6.180   0.117  0.5659  1.8649 -2.3452
 2521SOL    HW2 8463   5.671   6.120   0.027  0.6159  0.3333 -1.4286
 2522SOL     OW 8464   2.566   4.592   5.141  0.2177  0.0609 -0.4165
 2522SOL    HW1 8465   2.665   4.585   5.124  0.2385  1.8092 -1.3069
 2522SOL    HW2 8466   2.550   4.615   5.237  0.5247 -2.4051  0.2837
 2523SOL     OW 8467   1.175   1.424   0.108 -0.6525  0.3415  0.2126
 2523SOL    HW1 8468   1.181   1.325   0.097 -2.3745  0.4403 -2.4072
 2523SOL    HW2 8469   1.237   1.469   0.043  0.4978  1.0480  1.7235
 2524SOL     OW 8470   2.628   1.117   5.357 -0.0529  0.3817  0.2608
 2524SOL    HW1 8471   2.636   1.209   5.320  0.9674  0.4003  0.5207
 2524SOL    HW2 8472   2.718   1.083   5.384 -0.0527 -1.5179 -1.7974
 2525SOL     OW 8473   2.851   5.432   2.108  0.1982  0.7110 -0.1604
 2525SOL    HW1 8474   2.869   5.376   2.189 -1.7742  1.3261  0.7546
 2525SOL    HW2 8475   2.908   5.514   2.111 -0.5453  1.2131  1.1614
 2526SOL     OW 8476   2.801   2.266   5.773 -0.1405 -0.4417 -0.3048
 2526SOL    HW1 8477   2.784   2.181   5.723 -1.6378 -0.8138  0.7586
 2526SOL    HW2 8478   2.876   2.253   5.838  1.0400 -0.2947 -1.6006
 2527SOL     OW 8479   0.554   0.011   4.742 -0.3841  0.7026 -0.1944
 2527SOL    HW1 8480   0.566  -0.074   4.794  0.0279  0.3095 -0.9083
 2527SOL    HW2 8481   0.643   0.052   4.723 -0.5573  1.0781 -0.2083
 2528SOL     OW 8482   5.655   5.607   3.295  0.9218  0.0807 -0.4825
 2528SOL    HW1 8483   5.707   5.692   3.287  0.3676  0.5606  0.7249
 2528SOL    HW2 8484   5.585   5.617   3.367 -0.8581 -0.5325 -2.0421
 2529SOL     OW 8485   3.245   6.883   5.337  0.0424  0.1312  0.2342
 2529SOL    HW1 8486   3.293   6.820   5.276 -0.0282 -0.9861  1.2892
 2529SOL    HW2 8487   3.198   6.953   5.283  0.0831 -0.7501 -0.9810
 2530SOL     OW 8488   0.680   6.281   2.672 -0.3417 -0.1008  0.7924
 2530SOL    HW1 8489   0.734   6.317   2.595 -0.1960 -0.0680  0.9088
 2530SOL    HW2 8490   0.599   6.338   2.685 -0.1323  0.1619  0.9492
 2531SOL     OW 8491   6.454   1.987   3.203  0.2494  0.2219  0.0960
 2531SOL    HW1 8492   6.377   1.938   3.244 -0.9993  0.5636 -1.6988
 2531SOL    HW2 8493   6.538   1.936   3.218 -0.2807 -0.1103  2.1996
 2532SOL     OW 8494   6.311   5.773   6.157 -0.2170 -0.1773 -0.3927
 2532SOL    HW1 8495   6.261   5.796   6.073 -2.7728 -0.9718  0.8211
 2532SOL    HW2 8496   6.331   5.857   6.208  1.7841  0.3631 -1.9405
 2533SOL     OW 8497   5.092   1.337   3.264 -0.3946  0.3264 -0.5213
 2533SOL    HW1 8498   5.095   1.258   3.204  0.8696 -0.0458 -0.0048
 2533SOL    HW2 8499   5.115   1.419   3.212 -0.4145  0.1694 -0.7789
 2534SOL     OW 8500   6.658   6.773   2.084  0.1161 -0.9110 -0.8713
 2534SOL    HW1 8501   6.611   6.783   2.172  0.7426 -0.6453 -0.5646
 2534SOL    HW2 8502   6.671   6.863   2.043  1.0228 -0.9059 -0.5963
 2535SOL     OW 8503   3.947   6.847   0.157 -0.1667  0.4897 -0.0335
 2535SOL    HW1 8504   3.942   6.796   0.243 -1.7132  1.0403  0.2423
 2535SOL    HW2 8505   4.028   6.818   0.106  0.6228 -0.0639  1.4618
 2536SOL     OW 8506   6.932   1.254   2.243  0.1025  0.0448  0.1615
 2536SOL    HW1 8507   6.971   1.316   2.312 -1.9117 -0.2503  1.7023
 2536SOL    HW2 8508   6.855   1.300   2.198  1.6955  0.4047 -2.3250
 2537SOL     OW 8509   2.533   6.008   1.702 -0.0255 -0.2713  0.0837
 2537SOL    HW1 8510   2.607   6.061   1.742 -1.4103  0.2149  2.1636
 2537SOL    HW2 8511   2.495   6.057   1.624 -0.1717  1.0148  0.9274
 2538SOL     OW 8512   2.024   4.508   1.005  0.0997  0.4172 -0.1555
 2538SOL    HW1 8513   2.014   4.415   0.968 -0.4247 -1.0248  3.2849
 2538SOL    HW2 8514   2.113   4.518   1.048 -0.3008  1.0888  0.5522
 2539SOL     OW 8515   3.846   6.816   0.634 -0.2330  0.6665  0.0525
 2539SOL    HW1 8516   3.923   6.852   0.688  0.6057 -2.3050  1.0168
 2539SOL    HW2 8517   3.762   6.863   0.661  0.3983  0.3151  3.0041
 2540SOL     OW 8518   0.082   2.399   1.965  0.6594  0.0515 -0.2513
 2540SOL    HW1 8519   0.057   2.485   2.010 -0.0309 -1.3901  2.2585
 2540SOL    HW2 8520   0.161   2.359   2.011  0.2422 -1.2563 -0.6380
 2541SOL     OW 8521   1.491   0.102   5.296 -0.0578  0.5325 -0.1112
 2541SOL    HW1 8522   1.578   0.058   5.316  0.2948  0.8105 -0.9755
 2541SOL    HW2 8523   1.473   0.095   5.198 -1.1295  0.2683  0.0929
 2542SOL     OW 8524   2.941   0.959   3.954  0.1997 -0.3231 -0.4240
 2542SOL    HW1 8525   2.863   0.906   3.920 -1.9377  1.3056  1.6285
 2542SOL    HW2 8526   2.964   0.929   4.046  0.3667  0.8625 -0.0657
 2543SOL     OW 8527   0.250   0.050   6.169  0.2381  0.1382  0.0311
 2543SOL    HW1 8528   0.207  -0.037   6.142 -0.8045  0.7400 -0.3212
 2543SOL    HW2 8529   0.332   0.032   6.222 -0.4393 -1.0618  0.7058
 2544SOL     OW 8530   6.877   6.992   0.184 -0.0882 -0.0387  0.5771
 2544SOL    HW1 8531   6.817   6.919   0.152 -0.9394 -0.1178  2.1981
 2544SOL    HW2 8532   6.942   7.017   0.113 -1.4670 -0.5801 -0.9167
 2545SOL     OW 8533   0.280   1.599   0.231 -0.0303 -0.4711 -0.9548
 2545SOL    HW1 8534   0.229   1.593   0.146  1.1173 -0.9744 -1.6283
 2545SOL    HW2 8535   0.372   1.635   0.213  0.6468 -1.6946 -0.1252
 2546SOL     OW 8536   0.002   2.795   2.936 -0.1133 -0.1928 -0.2174
 2546SOL    HW1 8537   0.065   2.718   2.930 -0.0979 -0.3004  1.0061
 2546SOL    HW2 8538  -0.091   2.763   2.918  0.1413 -0.0639 -1.8656
 2547SOL     OW 8539   6.613   3.480   1.426 -0.3171 -0.1551 -0.3323
 2547SOL    HW1 8540   6.623   3.520   1.518 -0.1642  0.2668 -0.5297
 2547SOL    HW2 8541   6.613   3.554   1.358  2.9263 -0.6073 -0.9687
 2548SOL     OW 8542   2.240   6.793   3.370  0.0915 -0.1582  0.3214
 2548SOL    HW1 8543   2.141   6.798   3.365  0.1500 -0.3447 -1.7932
 2548SOL    HW2 8544   2.267   6.724   3.438 -1.2883 -2.2260 -1.1209
 2549SOL     OW 8545   3.906   3.299   6.009 -0.7916  0.5702 -0.0732
 2549SOL    HW1 8546   3.917   3.200   6.021  0.9317  0.6096 -0.9471
 2549SOL    HW2 8547   3.951   3.327   5.924  0.0236  2.3105  0.8820
 2550SOL     OW 8548   3.992   0.973   1.938  0.4348 -0.6012 -0.6490
 2550SOL    HW1 8549   4.066   1.039   1.953  0.8836 -1.2787  0.2338
 2550SOL    HW2 8550   3.982   0.916   2.020 -0.4770 -1.0996 -1.1011
 2551SOL     OW 8551   3.664   4.205   0.899  0.1938  0.7030  0.1956
 2551SOL    HW1 8552   3.725   4.157   0.962 -1.2818  1.0183  1.9354
 2551SOL    HW2 8553   3.661   4.302   0.924 -1.6477  0.5448  0.7254
 2552SOL     OW 8554   3.147   5.469   1.331 -0.9549 -0.0215  0.1196
 2552SOL    HW1 8555   3.067   5.429   1.287 -0.8775 -0.6443  0.5289
 2552SOL    HW2 8556   3.226   5.410   1.317 -0.2303  1.2556 -1.4314
 2553SOL     OW 8557   4.923   2.107   2.833  0.0982  0.0342 -0.4237
 2553SOL    HW1 8558   4.978   2.130   2.753  0.4621  0.9254  0.0701
 2553SOL    HW2 8559   4.983   2.095   2.913 -0.3985  1.0614  0.1290
 2554SOL     OW 8560   2.060   5.274   1.889 -0.3344  0.4468 -0.1993
 2554SOL    HW1 8561   2.081   5.228   1.975  0.7794 -0.9484 -1.1609
 2554SOL    HW2 8562   2.126   5.245   1.819 -0.8124  2.0340 -1.3677
 2555SOL     OW 8563   5.509   5.442   3.975  0.4663 -0.5858 -1.0484
 2555SOL    HW1 8564   5.429   5.382   3.969  0.3792 -0.4855 -0.8917
 2555SOL    HW2 8565   5.588   5.396   3.934  0.6016 -1.1451 -0.1714
 2556SOL     OW 8566   5.183   1.483   6.729  0.0309 -0.5409 -0.0118
 2556SOL    HW1 8567   5.203   1.393   6.691 -0.8628 -0.5314 -0.5333
 2556SOL    HW2 8568   5.268   1.525   6.761  0.6816 -0.9504 -1.1375
 2557SOL     OW 8569   3.506   2.472   6.840 -0.2971 -0.3690  0.2816
 2557SOL    HW1 8570   3.455   2.474   6.926  1.2032  0.9491  1.1992
 2557SOL    HW2 8571   3.583   2.409   6.848  0.7064  0.8451  0.4616
 2558SOL     OW 8572   4.284   2.199   3.500  0.3469  0.2381 -0.0827
 2558SOL    HW1 8573   4.280   2.273   3.433 -0.3736  0.4083  0.1301
 2558SOL    HW2 8574   4.202   2.203   3.558  1.0706  0.2448  0.9636
 2559SOL     OW 8575   5.439   6.636   1.646 -0.6080  0.0780 -0.4242
 2559SOL    HW1 8576   5.486   6.599   1.727 -0.8140  0.6775 -0.0243
 2559SOL    HW2 8577   5.506   6.652   1.573  0.3831  3.5182  1.0481
 2560SOL     OW 8578   3.499   3.727   0.619 -0.4505  0.3907 -0.1638
 2560SOL    HW1 8579   3.495   3.823   0.647  0.5693  0.6023 -0.7267
 2560SOL    HW2 8580   3.462   3.670   0.693 -0.7461  1.1761  0.3146
 2561SOL     OW 8581   2.827   0.115   6.280 -0.0101  0.2314  0.0586
 2561SOL    HW1 8582   2.793   0.034   6.232 -0.8023  0.5906 -0.0198
 2561SOL    HW2 8583   2.859   0.182   6.213 -1.8070  1.0363 -0.0589
 2562SOL     OW 8584   0.184   4.621   6.265 -0.2433 -0.3826  0.4479
 2562SOL    HW1 8585   0.180   4.556   6.189 -1.1223  0.6230 -0.4028
 2562SOL    HW2 8586   0.158   4.575   6.350 -0.9153 -1.1367 -0.1516
 2563SOL     OW 8587   4.153   2.489   0.337  0.4237  0.3954  0.0533
 2563SOL    HW1 8588   4.139   2.394   0.364  1.6539 -0.0952 -0.9077
 2563SOL    HW2 8589   4.176   2.544   0.417  1.2032 -0.4348  0.4142
 2564SOL     OW 8590   3.347   1.195   1.971 -0.0439 -0.2445 -0.1393
 2564SOL    HW1 8591   3.426   1.176   2.028  0.4114 -0.7765 -0.9360
 2564SOL    HW2 8592   3.346   1.292   1.947 -0.3837  0.0382  0.9666
 2565SOL     OW 8593   4.205   6.691   0.799  0.5891  0.2006 -0.2547
 2565SOL    HW1 8594   4.265   6.613   0.779 -1.5038 -1.6262  0.1897
 2565SOL    HW2 8595   4.154   6.673   0.883  0.4140  2.3282  0.1505
 2566SOL     OW 8596   2.395   3.815   0.133  0.0745 -0.5787  0.1136
 2566SOL    HW1 8597   2.345   3.873   0.197  0.0253 -0.9666  0.4333
 2566SOL    HW2 8598   2.331   3.755   0.086 -0.0204  0.4196 -1.0719
 2567SOL     OW 8599   0.069   0.014   5.883 -0.5226  0.0488  0.2965
 2567SOL    HW1 8600   0.100  -0.062   5.940 -1.5707 -0.0041  0.8268
 2567SOL    HW2 8601   0.003  -0.019   5.816 -1.0460  0.4811  0.5822
 2568SOL     OW 8602   3.765   0.163   4.752 -0.0768 -0.0728 -0.8921
 2568SOL    HW1 8603   3.809   0.246   4.786 -1.2264 -0.4423  1.7559
 2568SOL    HW2 8604   3.697   0.132   4.819 -0.6033 -2.4329 -2.4174
 2569SOL     OW 8605   2.995   6.704   5.999  0.2709 -0.0984  0.6419
 2569SOL    HW1 8606   3.053   6.717   6.079 -1.0547  0.3435  1.5638
 2569SOL    HW2 8607   2.899   6.706   6.027 -0.2664  1.3708 -1.1224
 2570SOL     OW 8608   6.802   1.097   3.036  0.0807  0.0153 -0.5389
 2570SOL    HW1 8609   6.815   1.192   3.005 -0.7367 -0.2468 -1.7929
 2570SOL    HW2 8610   6.846   1.035   2.971  1.3238 -0.4577  0.7226
 2571SOL     OW 8611   3.078   3.065   3.135 -0.3543 -0.1989  0.0663
 2571SOL    HW1 8612   3.017   3.128   3.087 -0.8003  0.2570  1.2043
 2571SOL    HW2 8613   3.067   3.076   3.234 -0.2213 -1.8612  0.2978
 2572SOL     OW 8614   1.984   6.994   3.145 -0.3591 -0.3536  0.2429
 2572SOL    HW1 8615   2.064   7.006   3.086  0.1829 -0.0315  1.0311
 2572SOL    HW2 8616   1.914   6.943   3.095  0.3567 -0.6998 -0.4421
 2573SOL     OW 8617   0.390   6.943   2.429  0.5988 -0.0005 -0.1109
 2573SOL    HW1 8618   0.481   6.954   2.468  0.1913 -2.0027  1.5518
 2573SOL    HW2 8619   0.381   7.002   2.349  3.2426  0.4317 -0.1754
 2574SOL     OW 8620   1.741   6.055   3.197  0.2007 -0.1798  0.4140
 2574SOL    HW1 8621   1.648   6.031   3.225 -0.9302  1.4221 -1.7365
 2574SOL    HW2 8622   1.775   6.131   3.252 -0.4244  0.3210  0.1099
 2575SOL     OW 8623   4.390   5.153   0.475  0.0322 -0.1805  0.1380
 2575SOL    HW1 8624   4.431   5.120   0.560  1.7575  0.9547 -0.1953
 2575SOL    HW2 8625   4.455   5.143   0.400 -0.0289  2.1663 -0.3227
 2576SOL     OW 8626   2.319   0.631   2.960  0.5202  0.0537  0.6012
 2576SOL    HW1 8627   2.400   0.610   2.905  1.6540  1.1400  1.7595
 2576SOL    HW2 8628   2.322   0.727   2.988 -2.9321  1.1670 -2.1166
 2577SOL     OW 8629   1.697   5.740   6.209 -0.8261 -0.4447 -0.1002
 2577SOL    HW1 8630   1.768   5.778   6.149  1.2887 -0.7465  2.0758
 2577SOL    HW2 8631   1.689   5.642   6.191 -0.1247 -0.5558  0.1635
 2578SOL     OW 8632   4.227   0.199   4.921 -0.1638  0.6846 -0.2449
 2578SOL    HW1 8633   4.245   0.102   4.939 -0.2718  1.1475  3.0049
 2578SOL    HW2 8634   4.298   0.255   4.964 -1.5970  2.1136  0.4001
 2579SOL     OW 8635   6.605   2.991   4.575  0.2249  0.1826 -0.4629
 2579SOL    HW1 8636   6.702   2.990   4.597  0.2625  0.4902 -0.6002
 2579SOL    HW2 8637   6.551   2.978   4.658  0.3943 -1.5504 -0.5937
 2580SOL     OW 8638   1.269   3.111   6.399 -0.0240 -0.1544  0.0397
 2580SOL    HW1 8639   1.245   3.019   6.431  0.6680 -0.3378  0.0543
 2580SOL    HW2 8640   1.186   3.159   6.370 -0.3132 -1.0411 -0.6613
 2581SOL     OW 8641   6.536   6.812   5.059 -0.2963  0.3515  0.8265
 2581SOL    HW1 8642   6.445   6.845   5.034  0.7263  3.2311  0.4921
 2581SOL    HW2 8643   6.561   6.850   5.149  1.5030  1.7480 -0.1973
 2582SOL     OW 8644   6.402   4.212   2.405 -0.5166  0.0238 -0.4079
 2582SOL    HW1 8645   6.490   4.178   2.373 -1.3920 -2.8862 -0.0140
 2582SOL    HW2 8646   6.336   4.209   2.330 -0.2273  2.8863 -0.9119
 2583SOL     OW 8647   1.422   5.597   6.733  0.4669  0.4959 -0.3307
 2583SOL    HW1 8648   1.428   5.663   6.658  1.0488  1.2762  0.3996
 2583SOL    HW2 8649   1.501   5.536   6.730  1.2933  1.5075  0.5620
 2584SOL     OW 8650   3.743   1.701   4.246 -0.0652 -0.3091 -0.4256
 2584SOL    HW1 8651   3.718   1.644   4.324 -2.0916  0.1450 -0.6936
 2584SOL    HW2 8652   3.683   1.781   4.242  1.2228  0.6733 -1.3887
 2585SOL     OW 8653   3.061   1.630   2.463  0.0729 -0.2453  0.5830
 2585SOL    HW1 8654   3.092   1.725   2.468 -0.4682 -0.0086 -0.4291
 2585SOL    HW2 8655   3.054   1.602   2.368 -2.0313 -0.5379  0.7823
 2586SOL     OW 8656   1.062   2.552   4.655  0.2309  0.6262 -0.1666
 2586SOL    HW1 8657   1.136   2.485   4.666  0.1651  0.2573 -1.6830
 2586SOL    HW2 8658   1.017   2.566   4.743 -0.4191 -2.1356  0.0391
 2587SOL     OW 8659   6.513   2.090   3.510 -0.4822 -0.1407  0.2151
 2587SOL    HW1 8660   6.415   2.082   3.529 -0.4516  0.7381  0.8189
 2587SOL    HW2 8661   6.532   2.056   3.418 -1.3576 -0.2765  0.0755
 2588SOL     OW 8662   3.574   6.753   2.993  0.0536  0.7774 -0.2905
 2588SOL    HW1 8663   3.656   6.714   3.035 -1.4535 -2.1226  0.1974
 2588SOL    HW2 8664   3.583   6.751   2.893  0.3983  0.0658 -0.2456
 2589SOL     OW 8665   5.321   6.542   2.183 -0.2760  0.8149 -0.6374
 2589SOL    HW1 8666   5.291   6.450   2.207  0.1382  1.0202  0.7813
 2589SOL    HW2 8667   5.275   6.572   2.100  1.2423 -1.5379 -2.4674
 2590SOL     OW 8668   3.055   5.375   4.253  0.5210 -0.2199 -0.0707
 2590SOL    HW1 8669   3.003   5.383   4.168 -1.3207 -0.3234  1.0071
 2590SOL    HW2 8670   3.081   5.467   4.284  0.3698 -0.1216 -0.2302
 2591SOL     OW 8671   3.243   6.952   2.270 -0.4127 -0.0124  0.4627
 2591SOL    HW1 8672   3.219   6.992   2.181 -1.4486  1.0073  1.1725
 2591SOL    HW2 8673   3.169   6.969   2.335  0.5186 -0.3842  1.6434
 2592SOL     OW 8674   4.020   4.679   7.004  0.5362 -0.2519  0.1668
 2592SOL    HW1 8675   3.943   4.668   7.066  0.8248  1.1597  0.8174
 2592SOL    HW2 8676   4.099   4.714   7.055  1.3311 -0.7833 -0.6655
 2593SOL     OW 8677   3.075   6.985   6.744  0.3748  0.3877 -0.2922
 2593SOL    HW1 8678   3.171   6.991   6.769  0.0197 -0.2875  1.3205
 2593SOL    HW2 8679   3.054   7.057   6.677  2.0447  0.3591 -0.8865
 2594SOL     OW 8680   3.902   4.618   1.533  0.7105 -0.5482  0.0584
 2594SOL    HW1 8681   3.995   4.649   1.513  0.5292  0.3971  0.6366
 2594SOL    HW2 8682   3.864   4.672   1.607 -0.6362 -0.2954 -0.7824
 2595SOL     OW 8683   6.368   3.343   6.618 -0.1846 -0.3048  0.4281
 2595SOL    HW1 8684   6.313   3.265   6.587 -1.2341  1.0057 -1.1864
 2595SOL    HW2 8685   6.451   3.349   6.562 -1.6326  1.5120 -1.7254
 2596SOL     OW 8686   3.860   1.577   5.846  0.2126  0.0512 -0.4166
 2596SOL    HW1 8687   3.796   1.577   5.923  0.9168 -1.2757  0.1985
 2596SOL    HW2 8688   3.869   1.670   5.810  0.4887  0.8621  1.6389
 2597SOL     OW 8689   2.557   1.929   5.532  0.2333  0.8111 -0.1320
 2597SOL    HW1 8690   2.463   1.895   5.523 -0.2438  2.3045 -1.3631
 2597SOL    HW2 8691   2.597   1.940   5.441  1.9813 -0.7040  0.4045
 2598SOL     OW 8692   0.170   2.023   2.095  0.4898  0.4352 -0.1651
 2598SOL    HW1 8693   0.104   2.037   2.169  0.6085  1.8230 -0.3078
 2598SOL    HW2 8694   0.144   1.942   2.043 -0.6441  0.5075  0.2619
 2599SOL     OW 8695   6.894   3.517   0.083  0.5095 -0.8926  0.6787
 2599SOL    HW1 8696   6.795   3.526   0.096  0.1653  0.3399 -2.0686
 2599SOL    HW2 8697   6.935   3.482   0.167 -2.5784 -4.3271  1.0369
 2600SOL     OW 8698   5.771   3.792   5.545 -0.8414  0.1137 -0.4655
 2600SOL    HW1 8699   5.826   3.806   5.463 -1.4228 -0.9855 -1.0721
 2600SOL    HW2 8700   5.713   3.711   5.532 -0.5803 -0.3811  1.2145
 2601SOL     OW 8701   3.760   3.131   4.138 -0.0826  0.3762  0.0079
 2601SOL    HW1 8702   3.755   3.186   4.221  1.4795  0.6846 -0.0691
 2601SOL    HW2 8703   3.777   3.190   4.059  2.7503 -0.2214  0.0703
 2602SOL     OW 8704   5.183   0.350   0.117 -0.6611 -0.1276 -0.3026
 2602SOL    HW1 8705   5.262   0.411   0.107  0.3058 -1.4336 -0.9223
 2602SOL    HW2 8706   5.099   0.403   0.101  0.1130  1.1141 -0.4539
 2603SOL     OW 8707   2.972   3.704   6.701 -0.0726  0.0146  0.6423
 2603SOL    HW1 8708   3.072   3.712   6.700 -0.0796  0.6234  2.3535
 2603SOL    HW2 8709   2.932   3.791   6.728 -1.0910 -0.2419  0.0213
 2604SOL     OW 8710   5.438   0.910   6.330  0.4683  0.6032  0.2223
 2604SOL    HW1 8711   5.357   0.917   6.388  1.1702  0.8077  1.2242
 2604SOL    HW2 8712   5.513   0.869   6.384  0.0763 -2.9964 -1.6719
 2605SOL     OW 8713   6.371   1.760   5.331  0.1143 -0.7873 -0.2690
 2605SOL    HW1 8714   6.317   1.828   5.379  0.1588 -1.1842  0.3538
 2605SOL    HW2 8715   6.441   1.722   5.392  0.9623 -0.4387 -0.9973
 2606SOL     OW 8716   6.993   4.734   2.820  0.5664  0.0324  0.3013
 2606SOL    HW1 8717   6.982   4.687   2.733 -1.8768 -0.1591  0.6501
 2606SOL    HW2 8718   6.994   4.833   2.805  1.6580 -0.0238 -0.0570
 2607SOL     OW 8719   0.978   0.032   1.253  0.1815 -0.0494 -0.1086
 2607SOL    HW1 8720   1.039   0.109   1.233  1.2542 -0.3601  1.6673
 2607SOL    HW2 8721   0.994   0.001   1.347 -2.8248 -0.0904  0.4864
 2608SOL     OW 8722   5.004   1.696   6.674 -0.2028 -0.3617 -0.5145
 2608SOL    HW1 8723   5.048   1.609   6.694 -0.9244 -0.3106  1.4982
 2608SOL    HW2 8724   5.032   1.764   6.742 -1.2495  0.4192 -0.8388
 2609SOL     OW 8725   1.013   1.731   2.344 -0.4194  0.4892  0.1883
 2609SOL    HW1 8726   0.981   1.696   2.432 -2.2338  0.1083 -0.5735
 2609SOL    HW2 8727   0.960   1.812   2.319  1.9449  2.3234  0.6861
 2610SOL     OW 8728   6.019   0.072   5.904  0.3907 -0.1065  0.3425
 2610SOL    HW1 8729   6.091   0.123   5.950  0.2332  0.1068  0.3531
 2610SOL    HW2 8730   5.935   0.126   5.903  0.1705 -0.4420  0.5209
 2611SOL     OW 8731   2.428   0.386   1.454  0.5661 -0.1366 -0.3968
 2611SOL    HW1 8732   2.499   0.349   1.513 -0.0245 -0.5908  0.0268
 2611SOL    HW2 8733   2.359   0.433   1.509  0.1671 -0.3105 -0.7417
 2612SOL     OW 8734   1.025   6.887   3.594  0.2106 -0.3373  0.6227
 2612SOL    HW1 8735   0.981   6.972   3.622  0.6652 -0.0066  0.3377
 2612SOL    HW2 8736   1.025   6.880   3.494 -1.0887 -1.3491  0.6536
 2613SOL     OW 8737   2.805   2.013   0.071 -0.5988  0.2939  0.4861
 2613SOL    HW1 8738   2.737   2.087   0.069 -0.4201  0.4751 -1.3574
 2613SOL    HW2 8739   2.811   1.972  -0.020 -1.3656 -2.6632  1.6617
 2614SOL     OW 8740   5.136   6.520   6.403  0.1988 -0.2106 -0.2573
 2614SOL    HW1 8741   5.188   6.563   6.477 -0.9844 -1.8362  1.6235
 2614SOL    HW2 8742   5.200   6.483   6.336  1.4134 -0.4327  0.9600
 2615SOL     OW 8743   1.360   4.405   1.777  0.1339  0.4812 -0.4742
 2615SOL    HW1 8744   1.359   4.490   1.723  0.9633  1.7164  1.3674
 2615SOL    HW2 8745   1.266   4.378   1.798 -0.1491  0.7607 -1.3187
 2616SOL     OW 8746   3.648   3.452   2.159 -0.1115 -0.2661 -0.3180
 2616SOL    HW1 8747   3.744   3.455   2.185 -0.2546  0.7812  0.1465
 2616SOL    HW2 8748   3.632   3.376   2.097  1.0329 -0.3832 -0.4790
 2617SOL     OW 8749   3.891   6.029   1.595  0.1913 -0.4662 -0.4764
 2617SOL    HW1 8750   3.873   5.943   1.644  1.7099  0.7387  2.4933
 2617SOL    HW2 8751   3.990   6.041   1.586  0.0812  1.6883  0.6873
 2618SOL     OW 8752   2.192   6.946   0.480  0.2494 -0.2484 -0.4333
 2618SOL    HW1 8753   2.218   6.891   0.560 -1.0889 -0.2989 -0.0042
 2618SOL    HW2 8754   2.115   7.005   0.504 -0.0601 -0.1306 -1.6399
 2619SOL     OW 8755   4.995   0.339   2.277 -0.5691 -0.1771 -0.4332
 2619SOL    HW1 8756   4.998   0.406   2.203  1.0301 -1.4802 -1.6064
 2619SOL    HW2 8757   5.086   0.300   2.291 -1.1552 -1.0698  1.2112
 2620SOL     OW 8758   1.224   6.023   2.492 -0.3026  0.2634  0.1486
 2620SOL    HW1 8759   1.211   5.934   2.448  0.6096  0.3751 -0.3691
 2620SOL    HW2 8760   1.138   6.051   2.536 -0.8676 -0.4340 -0.4785
 2621SOL     OW 8761   2.666   6.464   5.230  0.8533 -0.2277  0.0918
 2621SOL    HW1 8762   2.729   6.485   5.304  1.3524 -0.2785 -0.3105
 2621SOL    HW2 8763   2.586   6.415   5.266  0.7989  0.2891  0.6794
 2622SOL     OW 8764   0.715   2.576   4.216  0.1302  0.9504 -0.4488
 2622SOL    HW1 8765   0.647   2.634   4.172 -1.0478 -1.0913 -1.4881
 2622SOL    HW2 8766   0.699   2.574   4.315 -1.8123 -0.0328 -0.7472
 2623SOL     OW 8767   3.027   0.212   6.639  0.3644 -0.1557  0.3038
 2623SOL    HW1 8768   2.971   0.220   6.722  0.2533 -2.8918  0.6068
 2623SOL    HW2 8769   3.104   0.275   6.645 -1.1871  1.7923  1.1046
 2624SOL     OW 8770   6.216   1.261   4.935 -0.6080  0.1914  0.2501
 2624SOL    HW1 8771   6.171   1.197   4.873 -1.3905  0.9967 -0.0372
 2624SOL    HW2 8772   6.280   1.318   4.883  1.5486 -1.5740  0.7954
 2625SOL     OW 8773   0.976   0.046   5.809 -0.1782 -0.0680  0.4139
 2625SOL    HW1 8774   0.962   0.142   5.783  0.6483  0.0940  0.5425
 2625SOL    HW2 8775   0.922   0.025   5.890 -0.4534  0.2601  0.3175
 2626SOL     OW 8776   2.591   0.018   5.493 -0.3568  0.2092  0.1265
 2626SOL    HW1 8777   2.518  -0.022   5.549 -0.8653  0.6262 -0.2265
 2626SOL    HW2 8778   2.680  -0.016   5.524 -0.6929 -0.2135  0.6385
 2627SOL     OW 8779   1.061   6.915   4.215 -0.2147  0.6269  0.2464
 2627SOL    HW1 8780   1.087   6.960   4.130  2.1740  0.7823  0.9887
 2627SOL    HW2 8781   0.961   6.906   4.219 -0.3904  0.0851 -2.7937
 2628SOL     OW 8782   5.553   5.468   5.199  0.6015  0.2142 -0.0585
 2628SOL    HW1 8783   5.558   5.567   5.191  1.5924  0.1289 -0.6743
 2628SOL    HW2 8784   5.611   5.437   5.275  0.4473  0.0998  0.0122
 2629SOL     OW 8785   3.290   4.078   4.671  0.1243 -0.1909  0.4346
 2629SOL    HW1 8786   3.372   4.097   4.616  0.8276 -1.0580  1.1379
 2629SOL    HW2 8787   3.243   4.164   4.692  2.2526  0.6533  2.1297
 2630SOL     OW 8788   4.510   1.919   2.010 -0.4470 -0.2534  0.2216
 2630SOL    HW1 8789   4.444   1.845   2.024  0.6242 -0.8304  2.6632
 2630SOL    HW2 8790   4.603   1.882   2.014  0.1436  1.2542  2.2643
 2631SOL     OW 8791   3.649   5.930   4.551 -0.1986  0.3855  0.2927
 2631SOL    HW1 8792   3.555   5.933   4.585 -0.4763  0.4903 -0.4624
 2631SOL    HW2 8793   3.691   6.020   4.560  0.2791  0.0497  1.8146
 2632SOL     OW 8794   4.425   1.951   6.291  0.5816  0.0267  0.0604
 2632SOL    HW1 8795   4.357   1.978   6.359  0.8454  1.0647 -0.0741
 2632SOL    HW2 8796   4.517   1.964   6.328  0.8185  3.3476 -1.4085
 2633SOL     OW 8797   0.872   1.661   0.023 -0.5625 -0.0942 -0.0702
 2633SOL    HW1 8798   0.891   1.588  -0.042  2.9996  1.1938 -0.6832
 2633SOL    HW2 8799   0.846   1.744  -0.026 -1.3967 -0.0394  0.4304
 2634SOL     OW 8800   2.475   0.465   0.472 -0.2546 -0.4801  0.1475
 2634SOL    HW1 8801   2.445   0.433   0.561 -1.2459  0.0194  0.0132
 2634SOL    HW2 8802   2.457   0.395   0.403 -0.2273 -0.5590  0.2215
 2635SOL     OW 8803   0.856   3.963   3.241 -0.2960  0.1996  0.0109
 2635SOL    HW1 8804   0.902   3.907   3.173 -1.1031 -1.8723  1.0980
 2635SOL    HW2 8805   0.893   3.942   3.332 -2.7708 -0.9541  0.8153
 2636SOL     OW 8806   5.767   3.462   6.264  0.8659  0.3455  0.1725
 2636SOL    HW1 8807   5.691   3.456   6.328 -0.3777 -0.0963 -1.2893
 2636SOL    HW2 8808   5.733   3.454   6.170  2.5226  1.7656 -0.6195
 2637SOL     OW 8809   6.225   4.838   1.697 -0.0035  0.1237  0.7353
 2637SOL    HW1 8810   6.162   4.914   1.679  0.2636  0.0972 -0.3686
 2637SOL    HW2 8811   6.176   4.751   1.688 -0.0159  0.1274  0.7656
 2638SOL     OW 8812   6.139   5.259   0.427 -0.0940 -0.0097 -0.5044
 2638SOL    HW1 8813   6.154   5.277   0.525  1.7991  0.7013 -0.8699
 2638SOL    HW2 8814   6.045   5.230   0.412 -0.7790  1.0747  1.3685
 2639SOL     OW 8815   5.340   6.716   0.654  0.1208 -0.2085  0.5780
 2639SOL    HW1 8816   5.383   6.691   0.741  2.2637 -2.2997 -0.9766
 2639SOL    HW2 8817   5.270   6.649   0.630 -1.4151  1.0755  1.2124
 2640SOL     OW 8818   5.446   5.920   0.365  1.1291  0.3284  0.2581
 2640SOL    HW1 8819   5.406   5.957   0.281 -1.7260 -0.1453  1.2956
 2640SOL    HW2 8820   5.497   5.993   0.412  0.6479  1.2922 -0.6652
 2641SOL     OW 8821   0.104   0.564   1.710 -0.4108 -0.1197 -0.5470
 2641SOL    HW1 8822   0.066   0.647   1.668 -1.6117  0.5894  1.7444
 2641SOL    HW2 8823   0.182   0.588   1.768 -1.1272 -0.4537  0.5971
 2642SOL     OW 8824   6.379   0.394   2.647  0.1169 -0.4111  0.1782
 2642SOL    HW1 8825   6.292   0.435   2.621  0.8958  1.4638  0.3806
 2642SOL    HW2 8826   6.450   0.423   2.582  0.7396 -1.3606  0.4084
 2643SOL     OW 8827   1.448   0.067   3.256  0.1906 -0.3852  0.4545
 2643SOL    HW1 8828   1.360   0.036   3.219  0.0350  0.1777  0.3346
 2643SOL    HW2 8829   1.460   0.164   3.235 -0.5946  0.3848  3.1380
 2644SOL     OW 8830   5.330   6.677   4.039  0.3921 -0.3377 -0.4559
 2644SOL    HW1 8831   5.266   6.619   3.988 -1.4255  1.0276  0.1736
 2644SOL    HW2 8832   5.295   6.693   4.131  2.6296 -1.0919  0.5785
 2645SOL     OW 8833   6.907   5.994   5.243  0.0707  0.8337 -0.2050
 2645SOL    HW1 8834   6.869   5.950   5.324  1.1919 -0.4000 -0.3229
 2645SOL    HW2 8835   6.836   6.048   5.198 -1.4470 -0.9773 -0.1257
 2646SOL     OW 8836   5.731   5.939   5.568  0.1182 -0.4681 -0.0916
 2646SOL    HW1 8837   5.721   6.035   5.541 -0.6409 -0.2898  0.7511
 2646SOL    HW2 8838   5.827   5.912   5.563  0.8499  1.2610  2.6083
 2647SOL     OW 8839   3.994   4.328   1.691 -0.2865 -0.4831  0.1159
 2647SOL    HW1 8840   3.991   4.253   1.625 -1.2620  0.2682 -0.7326
 2647SOL    HW2 8841   3.901   4.362   1.707  0.2954  2.0465 -1.3242
 2648SOL     OW 8842   5.304   3.465   3.263  0.0786 -0.3882 -0.8913
 2648SOL    HW1 8843   5.306   3.565   3.272 -2.0228 -0.2544 -1.2711
 2648SOL    HW2 8844   5.376   3.425   3.319  0.2341  1.2977  0.1940
 2649SOL     OW 8845   4.288   3.147   0.331  0.7693  0.4206  0.4687
 2649SOL    HW1 8846   4.388   3.142   0.331  0.7944  0.7361 -0.6831
 2649SOL    HW2 8847   4.259   3.227   0.383  1.2141  1.6313 -1.0936
 2650SOL     OW 8848   1.137   6.760   2.149  0.6848 -0.3068  0.3970
 2650SOL    HW1 8849   1.098   6.846   2.183 -0.2462 -0.0227 -1.2324
 2650SOL    HW2 8850   1.063   6.703   2.113  1.5410 -0.6546 -0.8928
 2651SOL     OW 8851   0.674   0.033   2.829  0.3556 -0.0734 -0.4364
 2651SOL    HW1 8852   0.760  -0.016   2.815  1.2935  1.2969  0.2870
 2651SOL    HW2 8853   0.677   0.081   2.917 -1.8248 -1.3211  0.3960
 2652SOL     OW 8854   3.742   3.198   1.689  0.3239 -0.3173  0.0730
 2652SOL    HW1 8855   3.721   3.283   1.739  0.6774 -1.1880  1.7983
 2652SOL    HW2 8856   3.840   3.181   1.694  0.5264  0.0909 -1.8637
 2653SOL     OW 8857   5.255   0.767   6.698 -0.1203 -0.6763  0.0745
 2653SOL    HW1 8858   5.222   0.792   6.607 -2.6426  0.2791  1.1575
 2653SOL    HW2 8859   5.185   0.714   6.745  1.8846 -2.8125  0.8597
 2654SOL     OW 8860   1.140   1.855   5.817 -0.1608  0.2715 -0.3373
 2654SOL    HW1 8861   1.155   1.795   5.738 -1.2043  1.1351 -1.2371
 2654SOL    HW2 8862   1.066   1.819   5.873 -0.5015  0.4824 -0.6454
 2655SOL     OW 8863   5.714   3.255   0.174  0.1350  0.3278 -0.0555
 2655SOL    HW1 8864   5.689   3.278   0.268  2.2875  1.2305  0.3513
 2655SOL    HW2 8865   5.724   3.156   0.165 -2.7304 -0.0465 -0.0987
 2656SOL     OW 8866   6.493   2.462   3.708  0.0573  0.4935 -0.2747
 2656SOL    HW1 8867   6.561   2.392   3.729 -0.3367  0.4037  0.7370
 2656SOL    HW2 8868   6.418   2.456   3.773 -0.4683  1.2068 -0.8051
 2657SOL     OW 8869   3.122   0.885   3.745 -0.1903  0.0236  0.7992
 2657SOL    HW1 8870   3.070   0.930   3.818 -1.7700  0.4450 -0.5314
 2657SOL    HW2 8871   3.092   0.920   3.656 -1.5794 -3.6262 -0.3592
 2658SOL     OW 8872   5.637   4.717   0.148 -0.3723  0.3296 -0.0564
 2658SOL    HW1 8873   5.600   4.629   0.117 -3.3302  0.9259  1.4531
 2658SOL    HW2 8874   5.724   4.701   0.195 -0.7826 -1.7724  0.0872
 2659SOL     OW 8875   0.168   1.128   2.196 -0.3895  0.4918 -0.3358
 2659SOL    HW1 8876   0.149   1.070   2.276  0.5065  0.0003 -0.4593
 2659SOL    HW2 8877   0.087   1.182   2.173 -0.8081  0.2870  0.6173
 2660SOL     OW 8878   1.882   1.375   4.319 -0.0882  1.0854 -0.0873
 2660SOL    HW1 8879   1.833   1.458   4.345  0.8949  1.3038  1.1056
 2660SOL    HW2 8880   1.946   1.396   4.245  2.0491  2.0450  1.9162
 2661SOL     OW 8881   4.466   0.347   3.618 -0.2394  0.3201  0.3329
 2661SOL    HW1 8882   4.560   0.347   3.653 -0.2236  0.2141  0.2908
 2661SOL    HW2 8883   4.462   0.400   3.534 -0.4298  1.2364  0.9019
 2662SOL     OW 8884   4.252   1.239   2.603  0.4497 -0.0524 -0.7694
 2662SOL    HW1 8885   4.244   1.331   2.641 -0.9833 -0.7983  0.8973
 2662SOL    HW2 8886   4.274   1.245   2.506 -1.3770  2.1103 -1.1373
 2663SOL     OW 8887   2.251   2.334   2.853  0.2257  0.3996 -0.0738
 2663SOL    HW1 8888   2.216   2.361   2.762  0.3674 -2.5248 -1.0794
 2663SOL    HW2 8889   2.282   2.416   2.901 -1.4248  2.2774 -1.9503
 2664SOL     OW 8890   4.744   3.392   1.056 -0.6631 -0.2422 -0.4260
 2664SOL    HW1 8891   4.705   3.362   0.969 -0.8174 -2.2832  0.2905
 2664SOL    HW2 8892   4.688   3.359   1.131  0.4143 -0.0246  0.5021
 2665SOL     OW 8893   6.207   6.495   6.301 -0.1475  0.0243  0.1649
 2665SOL    HW1 8894   6.167   6.446   6.224 -1.4655 -0.6636  1.2474
 2665SOL    HW2 8895   6.145   6.567   6.331  0.2136  0.0939  0.7620
 2666SOL     OW 8896   4.305   5.065   2.744 -0.2934 -0.0844  0.7816
 2666SOL    HW1 8897   4.225   5.006   2.754 -0.3938  0.0472  0.7588
 2666SOL    HW2 8898   4.306   5.105   2.652  1.3600 -2.3607 -0.2878
 2667SOL     OW 8899   0.502   5.100   3.741 -0.3550  0.1133 -0.2322
 2667SOL    HW1 8900   0.496   5.006   3.710 -0.3472 -0.1369  0.4983
 2667SOL    HW2 8901   0.597   5.130   3.741 -0.2961 -0.0688  0.0652
 2668SOL     OW 8902   6.595   2.564   4.821 -0.2823 -0.6129 -0.2380
 2668SOL    HW1 8903   6.531   2.620   4.769  0.0260 -1.3413 -1.4612
 2668SOL    HW2 8904   6.603   2.474   4.778  3.1376  0.1134 -1.4732
 2669SOL     OW 8905   2.558   6.304   5.426 -0.2929  0.1324 -0.4745
 2669SOL    HW1 8906   2.480   6.273   5.480  0.2360 -0.9448 -0.3153
 2669SOL    HW2 8907   2.601   6.382   5.472 -2.0291  1.6051 -1.2189
 2670SOL     OW 8908   2.322   6.078   4.773  0.3032 -0.5283  0.4303
 2670SOL    HW1 8909   2.225   6.052   4.777 -0.1971  0.5507 -2.2904
 2670SOL    HW2 8910   2.375   6.016   4.831 -1.5837 -3.4696 -0.7271
 2671SOL     OW 8911   3.789   3.742   0.320 -0.4255  0.4255 -0.2404
 2671SOL    HW1 8912   3.824   3.656   0.357  1.9142  0.9778 -1.0061
 2671SOL    HW2 8913   3.821   3.818   0.377 -0.9194  0.9206 -0.6211
 2672SOL     OW 8914   3.049   4.739   0.761  0.0687  0.3510 -0.4489
 2672SOL    HW1 8915   3.020   4.731   0.857 -0.0577 -0.3857 -0.5412
 2672SOL    HW2 8916   2.969   4.734   0.702  0.1181  1.1032 -0.5842
 2673SOL     OW 8917   4.621   2.170   3.018  0.2880  0.1135 -0.2133
 2673SOL    HW1 8918   4.688   2.228   3.064  1.4214 -0.5112 -1.0187
 2673SOL    HW2 8919   4.621   2.079   3.060  1.0493 -0.3413 -1.1432
 2674SOL     OW 8920   5.080   5.818   4.797  0.0087 -0.2857  0.0841
 2674SOL    HW1 8921   5.000   5.806   4.857 -1.0166 -1.9104 -1.5163
 2674SOL    HW2 8922   5.153   5.756   4.827 -0.2372 -0.5732  0.0924
 2675SOL     OW 8923   0.873   4.907   4.979  1.0678  0.4058 -0.4784
 2675SOL    HW1 8924   0.954   4.849   4.982  1.2332  0.5563 -1.6586
 2675SOL    HW2 8925   0.802   4.869   5.039  1.0013 -1.2771 -1.5539
 2676SOL     OW 8926   5.712   0.435   2.061 -0.0607  0.6992 -0.4619
 2676SOL    HW1 8927   5.778   0.363   2.039 -1.3741 -0.1015 -2.0061
 2676SOL    HW2 8928   5.635   0.395   2.110  0.7594  1.7219  1.8353
 2677SOL     OW 8929   0.877   4.793   1.349  0.6669 -0.2252 -0.1627
 2677SOL    HW1 8930   0.959   4.737   1.359  1.3938  0.8057 -0.1810
 2677SOL    HW2 8931   0.842   4.784   1.256  0.9282 -0.4398 -0.2422
 2678SOL     OW 8932   1.195   4.127   6.214 -0.4193  0.3591  0.1670
 2678SOL    HW1 8933   1.209   4.142   6.312  1.0683  0.1075  0.0227
 2678SOL    HW2 8934   1.097   4.124   6.194 -0.7518 -0.0863  1.7213
 2679SOL     OW 8935   2.405   5.636   1.528 -0.3040  0.4184  0.2404
 2679SOL    HW1 8936   2.488   5.655   1.581 -0.0112  0.9697 -0.3963
 2679SOL    HW2 8937   2.429   5.582   1.447 -0.7908 -0.6891  0.8183
 2680SOL     OW 8938   6.413   0.560   3.321  0.2057  0.1577  0.7042
 2680SOL    HW1 8939   6.360   0.567   3.406 -1.2898 -1.4943 -0.0148
 2680SOL    HW2 8940   6.351   0.573   3.243  0.7600 -2.0460 -0.1738
 2681SOL     OW 8941   6.245   1.864   1.279 -0.2499  0.0798 -0.3063
 2681SOL    HW1 8942   6.322   1.918   1.245  1.5427 -3.2355 -2.0798
 2681SOL    HW2 8943   6.274   1.815   1.362 -0.6961 -0.6019 -0.5506
 2682SOL     OW 8944   5.847   3.481   3.791  0.4848 -0.4253  0.1265
 2682SOL    HW1 8945   5.834   3.405   3.855  1.0715 -0.2855  0.4151
 2682SOL    HW2 8946   5.895   3.555   3.837 -0.5387  0.3414  0.0021
 2683SOL     OW 8947   2.102   2.171   2.177  0.1027  0.4111  0.0093
 2683SOL    HW1 8948   2.142   2.262   2.184  0.5594  0.2696 -0.6384
 2683SOL    HW2 8949   2.163   2.112   2.125  0.5571 -0.7270  1.7717
 2684SOL     OW 8950   4.738   4.106   3.642 -0.2934 -0.4345  0.3486
 2684SOL    HW1 8951   4.724   4.008   3.624  0.0211 -0.4584  0.2381
 2684SOL    HW2 8952   4.763   4.119   3.738  2.7829 -0.7855 -0.3162
 2685SOL     OW 8953   5.492   4.392   5.309 -0.1373  0.7173 -0.6082
 2685SOL    HW1 8954   5.485   4.371   5.407  0.0098  2.1372 -0.2695
 2685SOL    HW2 8955   5.583   4.367   5.277 -0.2730 -0.0026 -0.4544
 2686SOL     OW 8956   1.256   1.940   3.835  0.4979  0.5636  0.1220
 2686SOL    HW1 8957   1.272   1.894   3.747 -0.4338  0.2929  0.0786
 2686SOL    HW2 8958   1.321   2.015   3.845  1.6514 -0.3752 -0.0803
 2687SOL     OW 8959   6.627   5.314   2.591 -0.3458  0.2154  0.1243
 2687SOL    HW1 8960   6.715   5.289   2.632  0.6242  1.7814 -0.8821
 2687SOL    HW2 8961   6.629   5.410   2.565 -1.8405 -0.0797 -1.2464
 2688SOL     OW 8962   3.977   6.245   6.428  0.7798  0.1118 -0.1107
 2688SOL    HW1 8963   3.924   6.164   6.453 -0.3000  0.8076 -0.0746
 2688SOL    HW2 8964   4.073   6.219   6.415  0.7783 -0.8780  1.4984
 2689SOL     OW 8965   6.772   1.117   5.288  0.1087 -0.2102  0.7995
 2689SOL    HW1 8966   6.825   1.127   5.372 -0.9410  0.7542  1.3719
 2689SOL    HW2 8967   6.690   1.063   5.306  0.3046 -0.7172  0.1916
 2690SOL     OW 8968   3.998   3.583   3.633 -0.0860 -0.8307 -0.1907
 2690SOL    HW1 8969   3.904   3.552   3.625  0.5912 -2.6718 -1.9584
 2690SOL    HW2 8970   4.060   3.504   3.629  1.5650  0.3518  0.5295
 2691SOL     OW 8971   0.803   5.304   2.330  0.1034  0.0468  0.0134
 2691SOL    HW1 8972   0.818   5.394   2.372  1.1858  0.4828 -1.2659
 2691SOL    HW2 8973   0.830   5.307   2.234 -1.5484 -1.1700 -0.5164
 2692SOL     OW 8974   0.991   4.985   4.426 -0.1414 -0.2507 -0.1303
 2692SOL    HW1 8975   0.924   4.957   4.358  0.4627 -0.0608 -0.8146
 2692SOL    HW2 8976   1.081   4.949   4.401  0.0537 -0.3328  0.6651
 2693SOL     OW 8977   1.994   4.613   3.954  0.5133 -0.0276 -0.0272
 2693SOL    HW1 8978   1.917   4.554   3.977 -0.8512  1.9503  0.7418
 2693SOL    HW2 8979   2.062   4.560   3.903 -0.8972 -2.0695  0.0717
 2694SOL     OW 8980   2.240   2.935   3.041  0.1788 -0.2913 -0.1269
 2694SOL    HW1 8981   2.300   2.883   3.103  1.3099  0.1239 -0.8536
 2694SOL    HW2 8982   2.185   2.999   3.094  0.0440 -1.0001  0.6025
 2695SOL     OW 8983   3.763   2.179   1.682  0.1655 -0.1757 -0.3765
 2695SOL    HW1 8984   3.710   2.223   1.609  0.1582 -0.3081 -0.4509
 2695SOL    HW2 8985   3.731   2.211   1.771 -0.2186 -0.4556 -0.4104
 2696SOL     OW 8986   3.806   5.350   0.639 -0.4769  0.4864 -0.2009
 2696SOL    HW1 8987   3.888   5.408   0.637 -1.1893  1.5227 -0.4042
 2696SOL    HW2 8988   3.799   5.304   0.728 -0.6764  1.8900  0.5346
 2697SOL     OW 8989   2.677   0.731   5.117  0.3075 -0.1645  0.3436
 2697SOL    HW1 8990   2.725   0.796   5.058  1.2017 -1.0253  0.1001
 2697SOL    HW2 8991   2.591   0.704   5.074 -0.7162  1.8149  1.0397
 2698SOL     OW 8992   2.466   4.358   0.348  0.5242  0.2683  0.1275
 2698SOL    HW1 8993   2.447   4.391   0.255  1.4231  1.1387  0.2397
 2698SOL    HW2 8994   2.563   4.335   0.355  0.9585  2.2938  1.4640
 2699SOL     OW 8995   1.986   3.573   2.938  0.2514  0.0559  0.3310
 2699SOL    HW1 8996   2.035   3.518   3.005  0.8051  0.2063  0.0490
 2699SOL    HW2 8997   1.892   3.538   2.929 -1.0217  2.0707  3.7256
 2700SOL     OW 8998   2.124   3.506   3.967 -0.4199  0.1445  0.0262
 2700SOL    HW1 8999   2.049   3.539   3.910 -0.5521  0.9030  0.6336
 2700SOL    HW2 9000   2.117   3.406   3.976 -2.9346  0.3848  2.2080
 2701SOL     OW 9001   1.723   6.853   2.995 -0.3494 -0.7093  0.1442
 2701SOL    HW1 9002   1.665   6.802   3.060 -0.4757 -0.2897  0.3688
 2701SOL    HW2 9003   1.669   6.926   2.954  0.2095  0.1530  0.9016
 2702SOL     OW 9004   5.284   0.469   2.695  0.5975  0.1471  0.2543
 2702SOL    HW1 9005   5.261   0.551   2.642  0.4038 -0.4162 -0.5703
 2702SOL    HW2 9006   5.202   0.438   2.743 -0.2254 -1.3026 -1.9108
 2703SOL     OW 9007   2.086   2.916   1.840  0.3564  0.1790 -0.3533
 2703SOL    HW1 9008   2.133   3.004   1.851  0.5376  0.0873 -0.3883
 2703SOL    HW2 9009   2.144   2.853   1.787  0.2946 -0.0115 -0.1975
 2704SOL     OW 9010   1.647   6.575   2.287  0.5129  0.4701  0.0369
 2704SOL    HW1 9011   1.604   6.485   2.280  1.0599  0.1971  0.1241
 2704SOL    HW2 9012   1.659   6.615   2.196  0.7925  0.2004 -0.0463
 2705SOL     OW 9013   0.044   3.051   2.571 -0.0810  0.0680  0.1030
 2705SOL    HW1 9014  -0.032   3.113   2.590  1.4040  1.8190  0.6024
 2705SOL    HW2 9015   0.086   3.076   2.483  1.3164  0.6454  0.9000
 2706SOL     OW 9016   0.845   0.177   2.508 -0.4915  0.2807 -0.2585
 2706SOL    HW1 9017   0.907   0.112   2.553 -0.3183 -0.2578 -1.2606
 2706SOL    HW2 9018   0.751   0.149   2.523 -0.5253  1.1189  1.2987
 2707SOL     OW 9019   4.592   0.485   0.279 -0.1891 -0.4018  0.8031
 2707SOL    HW1 9020   4.654   0.539   0.337 -1.0170  1.3899  0.0951
 2707SOL    HW2 9021   4.511   0.539   0.258 -0.7034 -1.6656 -0.6270
 2708SOL     OW 9022   2.282   4.162   0.422  0.2882 -0.2343 -0.4691
 2708SOL    HW1 9023   2.206   4.210   0.379  0.2429 -2.3845 -3.0246
 2708SOL    HW2 9024   2.362   4.222   0.426 -1.1122  1.6432  1.1251
 2709SOL     OW 9025   3.641   1.090   0.063 -0.2407 -0.2891  0.2454
 2709SOL    HW1 9026   3.740   1.104   0.054 -0.4221  0.6369 -0.4347
 2709SOL    HW2 9027   3.624   0.998   0.098  0.8521 -0.6170 -0.0312
 2710SOL     OW 9028   5.365   4.170   3.655 -0.1410  0.0885 -0.5478
 2710SOL    HW1 9029   5.429   4.102   3.690  0.3585  1.5830  1.6236
 2710SOL    HW2 9030   5.271   4.137   3.671  0.0686 -0.8446 -1.1412
 2711SOL     OW 9031   0.215   0.163   2.990  0.3416  0.1079 -0.4582
 2711SOL    HW1 9032   0.283   0.236   2.981  0.0251  0.5326  0.4558
 2711SOL    HW2 9033   0.244   0.099   3.061 -0.1269  0.1985 -0.1797
 2712SOL     OW 9034   3.693   6.298   2.989 -0.0092 -0.7434 -0.5523
 2712SOL    HW1 9035   3.718   6.215   2.940  1.6517 -0.2302 -0.6254
 2712SOL    HW2 9036   3.645   6.360   2.926 -0.0303 -1.0732 -0.8684
 2713SOL     OW 9037   0.870   3.567   5.007 -0.0891  0.1447 -0.0573
 2713SOL    HW1 9038   0.861   3.541   4.911  0.9293  1.4950 -0.5527
 2713SOL    HW2 9039   0.960   3.541   5.041 -0.1467  0.3902  0.2918
 2714SOL     OW 9040   6.981   1.135   4.321 -0.1001 -0.2724  0.1273
 2714SOL    HW1 9041   6.992   1.040   4.292  0.8624 -0.3433  0.6769
 2714SOL    HW2 9042   6.887   1.150   4.352 -0.4605 -0.8436 -0.6365
 2715SOL     OW 9043   0.425   6.357   6.788  0.2583  0.1064  0.5404
 2715SOL    HW1 9044   0.340   6.349   6.737  1.8781 -1.1430 -2.1942
 2715SOL    HW2 9045   0.436   6.278   6.849 -0.1873 -0.0868  0.3709
 2716SOL     OW 9046   5.719   2.152   1.137 -0.0117  0.1044  0.0322
 2716SOL    HW1 9047   5.759   2.077   1.084 -1.7138  0.6425 -2.1890
 2716SOL    HW2 9048   5.743   2.239   1.093 -0.6702  0.6476  0.7384
 2717SOL     OW 9049   0.243   0.308   4.530  0.3632  1.3678  0.3219
 2717SOL    HW1 9050   0.233   0.208   4.531  1.4903  1.1789 -1.7421
 2717SOL    HW2 9051   0.340   0.332   4.529  0.1121  2.4232 -0.6625
 2718SOL     OW 9052   6.896   3.802   5.426  0.1381  0.5744 -0.0635
 2718SOL    HW1 9053   6.830   3.843   5.364  0.1419  0.2836 -0.2607
 2718SOL    HW2 9054   6.858   3.799   5.518  0.1960  1.1535 -0.0163
 2719SOL     OW 9055   3.867   5.769   2.905  0.1324 -0.2191  0.2573
 2719SOL    HW1 9056   3.819   5.685   2.931  0.2184 -0.5870 -0.7084
 2719SOL    HW2 9057   3.865   5.779   2.805 -0.2679  1.1614  0.3740
 2720SOL     OW 9058   0.730   1.086   3.872 -0.7557 -0.2062 -0.0533
 2720SOL    HW1 9059   0.756   1.069   3.968 -0.3182 -0.7606 -0.2682
 2720SOL    HW2 9060   0.648   1.033   3.850  0.4490 -1.8998 -0.6428
 2721SOL     OW 9061   5.279   5.952   3.047 -0.3099  0.1035 -0.1186
 2721SOL    HW1 9062   5.247   5.976   2.955 -0.7304 -1.3475 -0.3896
 2721SOL    HW2 9063   5.362   6.002   3.068 -0.7687  1.2166 -0.8801
 2722SOL     OW 9064   6.691   0.295   3.057 -0.8121 -0.2178  0.6181
 2722SOL    HW1 9065   6.661   0.213   3.009 -0.5052 -0.6631  1.1707
 2722SOL    HW2 9066   6.642   0.302   3.145  1.5287 -1.6421  2.1342
 2723SOL     OW 9067   1.729   0.636   4.504  0.2091 -0.0932 -0.5692
 2723SOL    HW1 9068   1.814   0.616   4.553  0.7764  0.9126 -1.1169
 2723SOL    HW2 9069   1.663   0.677   4.568 -0.8061 -3.0441  0.4550
 2724SOL     OW 9070   5.000   5.007   5.278 -0.5949 -0.5326 -0.3975
 2724SOL    HW1 9071   4.997   4.951   5.361  1.9285 -0.2394 -0.0387
 2724SOL    HW2 9072   5.066   4.970   5.214  1.4762  2.1104  0.0102
 2725SOL     OW 9073   1.954   5.730   1.878  0.2104 -0.2089 -0.3094
 2725SOL    HW1 9074   1.934   5.804   1.815 -1.7898 -2.0980 -2.0332
 2725SOL    HW2 9075   1.930   5.757   1.971  0.1514  1.4989 -0.8003
 2726SOL     OW 9076   3.960   6.823   3.847  0.1597  0.7802  0.8307
 2726SOL    HW1 9077   3.963   6.885   3.768  1.4854  0.7918  0.8705
 2726SOL    HW2 9078   4.032   6.848   3.912  0.6905 -0.7717  0.8689
 2727SOL     OW 9079   3.099   5.067   3.058  0.0212 -0.1721 -0.0747
 2727SOL    HW1 9080   3.132   5.155   3.026  0.0453  0.4591  1.5979
 2727SOL    HW2 9081   2.999   5.070   3.067  0.0424 -0.2464  0.1841
 2728SOL     OW 9082   2.586   6.536   0.691  0.3870  0.5811 -0.5701
 2728SOL    HW1 9083   2.654   6.488   0.748  0.3428  1.2472  0.0600
 2728SOL    HW2 9084   2.619   6.628   0.671 -0.3265  0.9023 -0.2751
 2729SOL     OW 9085   4.051   1.279   0.762  0.0523  0.0594  0.1618
 2729SOL    HW1 9086   4.006   1.216   0.699  0.0724  0.1077  0.0978
 2729SOL    HW2 9087   3.983   1.324   0.819 -0.0160  0.3947 -0.1773
 2730SOL     OW 9088   1.665   4.164   0.033  0.0507 -0.0921 -0.9865
 2730SOL    HW1 9089   1.578   4.210   0.055  0.2336  0.1647 -0.7871
 2730SOL    HW2 9090   1.738   4.233   0.027  0.7288 -0.5291  1.2947
 2731SOL     OW 9091   1.663   5.219   5.217 -0.0986  0.4596 -0.0478
 2731SOL    HW1 9092   1.634   5.208   5.312 -0.2018 -0.4801 -0.1757
 2731SOL    HW2 9093   1.763   5.211   5.212 -0.1053  0.3718 -0.0380
 2732SOL     OW 9094   4.794   2.834   4.327 -0.0952 -0.2525  0.4024
 2732SOL    HW1 9095   4.727   2.760   4.335  1.2412 -1.5234  0.3770
 2732SOL    HW2 9096   4.842   2.825   4.239  0.5594  0.2119  0.7049
 2733SOL     OW 9097   2.943   1.560   6.930 -0.6097 -0.6084  0.2719
 2733SOL    HW1 9098   3.042   1.558   6.920 -0.6406 -0.1958 -0.1477
 2733SOL    HW2 9099   2.906   1.469   6.911 -0.3706 -0.6020 -0.2462
 2734SOL     OW 9100   2.969   6.652   0.209 -0.1803 -0.5708 -0.0016
 2734SOL    HW1 9101   2.930   6.739   0.179 -0.5084 -0.0520  1.7951
 2734SOL    HW2 9102   3.062   6.643   0.174 -0.6768 -0.2301 -1.4773
 2735SOL     OW 9103   0.104   4.433   2.841 -0.0403 -0.4135 -0.0756
 2735SOL    HW1 9104   0.151   4.507   2.792 -0.5191 -0.5472 -0.7476
 2735SOL    HW2 9105   0.129   4.437   2.938 -1.0447  1.4385  0.1590
 2736SOL     OW 9106   2.749   0.169   4.749  0.2589  0.6464  0.2334
 2736SOL    HW1 9107   2.700   0.082   4.755  0.5873  0.4970  0.7877
 2736SOL    HW2 9108   2.687   0.244   4.771  0.6498  0.3473  2.6056
 2737SOL     OW 9109   5.041   3.643   5.571  0.3195  0.0476  0.2441
 2737SOL    HW1 9110   4.958   3.673   5.524  1.2023  0.3535 -1.2209
 2737SOL    HW2 9111   5.017   3.590   5.652 -1.3077 -1.2272 -1.0028
 2738SOL     OW 9112   2.322   2.949   5.879 -0.7131  0.2676 -0.1466
 2738SOL    HW1 9113   2.315   3.035   5.830 -2.0729  0.1094 -0.2578
 2738SOL    HW2 9114   2.411   2.944   5.925 -0.2455  1.3028 -0.8980
 2739SOL     OW 9115   4.383   4.459   1.283 -1.0239  0.3603  0.2168
 2739SOL    HW1 9116   4.362   4.365   1.258 -2.0029 -0.2864  3.0982
 2739SOL    HW2 9117   4.482   4.468   1.298 -1.0215 -0.4814  0.7979
 2740SOL     OW 9118   0.451   3.657   5.386  0.2701 -0.0065 -0.1695
 2740SOL    HW1 9119   0.549   3.635   5.384  0.3268 -0.3162  2.8057
 2740SOL    HW2 9120   0.439   3.753   5.411 -0.1789 -0.4618  1.4522
 2741SOL     OW 9121   0.927   2.644   4.888 -0.3520 -0.0884 -0.5172
 2741SOL    HW1 9122   0.865   2.709   4.843  0.3518 -0.5513 -2.2320
 2741SOL    HW2 9123   0.875   2.588   4.952 -0.9899  2.0964  1.0182
 2742SOL     OW 9124   1.999   5.639   6.452  0.1750  0.1682 -0.1074
 2742SOL    HW1 9125   2.043   5.552   6.474  0.6273  0.3523 -0.2843
 2742SOL    HW2 9126   1.907   5.640   6.491 -0.2209 -0.8093 -0.9601
 2743SOL     OW 9127   6.966   2.944   0.225 -0.2642  0.1858 -0.4216
 2743SOL    HW1 9128   6.888   2.884   0.246  0.0137 -0.2470 -0.6219
 2743SOL    HW2 9129   6.935   3.021   0.169 -0.7718  0.6505  0.4711
 2744SOL     OW 9130   0.536   6.383   2.361  0.2709 -0.5463  0.0241
 2744SOL    HW1 9131   0.630   6.410   2.343  0.5109  0.9773  2.8908
 2744SOL    HW2 9132   0.474   6.439   2.306  0.9764 -1.3656 -1.6710
 2745SOL     OW 9133   3.690   6.385   3.517 -0.1930  0.1783 -0.1047
 2745SOL    HW1 9134   3.761   6.372   3.448  0.6194  0.5310  0.6453
 2745SOL    HW2 9135   3.722   6.349   3.605 -2.2203 -2.7581 -0.4122
 2746SOL     OW 9136   3.290   2.873   4.911 -0.1092  0.1243 -0.1426
 2746SOL    HW1 9137   3.332   2.959   4.937  2.0659 -0.9439  0.0872
 2746SOL    HW2 9138   3.242   2.833   4.989 -0.5364  0.7753 -0.0670
 2747SOL     OW 9139   3.471   5.519   5.175  0.2887 -0.0561 -0.2957
 2747SOL    HW1 9140   3.444   5.444   5.115 -1.6001  0.4356 -0.1102
 2747SOL    HW2 9141   3.417   5.601   5.154  2.2777  1.2867 -0.4802
 2748SOL     OW 9142   6.933   0.111   6.545 -0.5591 -0.1548  0.2264
 2748SOL    HW1 9143   6.898   0.170   6.472 -0.7811 -0.4565  0.0875
 2748SOL    HW2 9144   6.885   0.131   6.630 -0.4630  0.0343  0.2375
 2749SOL     OW 9145   6.194   5.471   2.814 -0.3606  0.1342  0.6771
 2749SOL    HW1 9146   6.175   5.481   2.911  0.5814 -1.4987  1.0660
 2749SOL    HW2 9147   6.264   5.400   2.800  0.2651  1.0255 -1.1246
 2750SOL     OW 9148   0.958   0.487   0.701  0.0568 -0.1189 -0.3936
 2750SOL    HW1 9149   0.990   0.407   0.751 -1.0365  0.0868  0.6983
 2750SOL    HW2 9150   1.007   0.568   0.733 -0.1359 -0.0901 -0.1702
 2751SOL     OW 9151   5.508   6.387   0.584 -0.5132 -0.0399  0.0300
 2751SOL    HW1 9152   5.558   6.463   0.626  0.1691  1.4926 -3.2868
 2751SOL    HW2 9153   5.455   6.420   0.507 -1.4412 -2.7240 -0.5861
 2752SOL     OW 9154   1.500   3.719   6.733 -0.4631 -0.0121 -0.0470
 2752SOL    HW1 9155   1.495   3.792   6.665 -1.2023  0.6116  0.6607
 2752SOL    HW2 9156   1.420   3.724   6.794  1.1820  0.7493  2.1739
 2753SOL     OW 9157   4.300   4.955   3.651  0.0181 -0.3023 -0.2502
 2753SOL    HW1 9158   4.322   4.982   3.745 -0.4621  0.3598 -0.3222
 2753SOL    HW2 9159   4.259   4.864   3.652  1.0167 -0.7715  0.0652
 2754SOL     OW 9160   1.963   6.778   3.336 -0.0154  0.0690  0.0618
 2754SOL    HW1 9161   1.961   6.841   3.259 -1.3559  0.1149  0.1045
 2754SOL    HW2 9162   1.916   6.819   3.414 -1.6680 -1.2608 -0.1670
 2755SOL     OW 9163   3.319   6.321   2.732  0.8109 -0.3189  0.2106
 2755SOL    HW1 9164   3.267   6.238   2.715  0.5723  0.0406 -0.9798
 2755SOL    HW2 9165   3.345   6.362   2.644  1.7577  0.3425  0.7799
 2756SOL     OW 9166   4.681   2.942   6.154  0.4008  0.6346  0.8193
 2756SOL    HW1 9167   4.715   2.898   6.236 -1.1898 -0.7458  0.7800
 2756SOL    HW2 9168   4.690   2.880   6.076  2.6201  2.2034 -0.2777
 2757SOL     OW 9169   5.406   4.326   5.849 -0.1581  0.1780 -0.1726
 2757SOL    HW1 9170   5.362   4.415   5.848  1.8216  1.2229 -1.4488
 2757SOL    HW2 9171   5.359   4.266   5.913 -2.0490  1.8556  0.1076
 2758SOL     OW 9172   6.003   6.107   1.494 -0.1002 -0.1348 -0.3214
 2758SOL    HW1 9173   5.969   6.069   1.580 -2.4920  0.6236 -0.8710
 2758SOL    HW2 9174   5.930   6.107   1.426  0.7810  2.3359 -1.3617
 2759SOL     OW 9175   3.230   2.979   2.753  0.2061 -0.2734  0.2171
 2759SOL    HW1 9176   3.182   2.894   2.733 -0.5763  0.5226 -1.4414
 2759SOL    HW2 9177   3.321   2.959   2.787 -0.4549 -1.7831  1.2011
 2760SOL     OW 9178   5.768   6.582   2.621  0.0683 -0.7777  0.3338
 2760SOL    HW1 9179   5.780   6.565   2.719  2.3579 -1.8744 -0.0913
 2760SOL    HW2 9180   5.702   6.517   2.583 -1.0932 -0.1236  1.1782
 2761SOL     OW 9181   3.211   4.916   4.896  0.4161  0.3467 -0.4013
 2761SOL    HW1 9182   3.293   4.866   4.868 -0.8258 -0.6987 -2.4311
 2761SOL    HW2 9183   3.193   4.990   4.830 -1.1557 -0.5045 -0.9869
 2762SOL     OW 9184   3.442   1.015   3.464  0.3560  0.5624 -0.0507
 2762SOL    HW1 9185   3.525   1.006   3.409  1.1767  1.8230  0.9362
 2762SOL    HW2 9186   3.394   0.927   3.467 -0.1230  0.6005 -3.3509
 2763SOL     OW 9187   5.075   1.466   4.130  0.1422  0.0043  0.1297
 2763SOL    HW1 9188   4.998   1.507   4.178  1.6591  0.7789  2.0217
 2763SOL    HW2 9189   5.150   1.532   4.125  1.2808 -1.2743 -0.1993
 2764SOL     OW 9190   7.002   2.321   2.707 -0.3841 -0.6094 -0.0863
 2764SOL    HW1 9191   7.043   2.305   2.618 -1.4589 -1.0415 -0.5217
 2764SOL    HW2 9192   6.908   2.354   2.696 -0.1930  0.3316  0.8819
 2765SOL     OW 9193   0.504   5.517   5.495  0.7110  0.1672 -0.0493
 2765SOL    HW1 9194   0.506   5.461   5.412 -0.5625 -3.4998  2.1430
 2765SOL    HW2 9195   0.440   5.592   5.484  2.5375  1.4394 -3.1910
 2766SOL     OW 9196   4.033   2.212   6.435 -0.3516 -0.4278 -0.3444
 2766SOL    HW1 9197   4.002   2.125   6.397 -1.6961 -0.2642  0.3203
 2766SOL    HW2 9198   3.981   2.233   6.518  0.7960  0.4288  0.1854
 2767SOL     OW 9199   0.243   6.354   6.596  0.2553 -0.2696  0.3618
 2767SOL    HW1 9200   0.267   6.446   6.565  0.4425 -0.5509 -0.3405
 2767SOL    HW2 9201   0.145   6.340   6.585  0.1453  0.0098  0.9240
 2768SOL     OW 9202   4.231   0.880   4.208  0.4259 -0.1235  0.0684
 2768SOL    HW1 9203   4.140   0.841   4.220  0.5151 -0.4181 -0.1985
 2768SOL    HW2 9204   4.224   0.968   4.160  0.0820  0.9571  1.9934
 2769SOL     OW 9205   0.727   4.794   6.703  0.0790 -0.1879 -0.3374
 2769SOL    HW1 9206   0.761   4.866   6.642  0.6130 -0.7507 -0.7115
 2769SOL    HW2 9207   0.750   4.704   6.665  0.2527 -0.5532  0.6037
 2770SOL     OW 9208   6.957   5.949   0.622  0.5250 -0.3732  0.1163
 2770SOL    HW1 9209   6.949   5.889   0.702 -1.1192  1.1011  1.1500
 2770SOL    HW2 9210   6.973   5.894   0.540 -1.7336 -2.3270  0.8793
 2771SOL     OW 9211   4.140   6.646   5.708 -0.3250 -0.1903  1.0141
 2771SOL    HW1 9212   4.200   6.642   5.628 -0.7396 -0.4220  0.7098
 2771SOL    HW2 9213   4.170   6.579   5.776  0.9478  1.0395  1.7129
 2772SOL     OW 9214   1.741   1.008   1.246 -0.0546 -0.3491  0.1110
 2772SOL    HW1 9215   1.812   1.067   1.284 -1.4358  0.1511  2.0912
 2772SOL    HW2 9216   1.659   1.062   1.227 -1.1001 -1.4517  1.2676
 2773SOL     OW 9217   4.141   2.260   6.723  0.0439  0.0633  0.3370
 2773SOL    HW1 9218   4.192   2.336   6.682  1.2415 -1.4863 -1.2427
 2773SOL    HW2 9219   4.205   2.202   6.774 -0.6776 -0.3787  0.7447
 2774SOL     OW 9220   6.516   6.578   4.187 -0.0799 -0.0584 -0.2416
 2774SOL    HW1 9221   6.515   6.675   4.163 -0.0792  0.4911  1.7783
 2774SOL    HW2 9222   6.609   6.551   4.212  0.1103 -0.8598 -1.6906
 2775SOL     OW 9223   6.878   2.125   5.069  0.8834  0.3674 -0.3190
 2775SOL    HW1 9224   6.791   2.148   5.026  1.2236 -0.4679 -1.5168
 2775SOL    HW2 9225   6.919   2.207   5.108  0.8717  1.3426 -2.2112
 2776SOL     OW 9226   4.797   3.623   5.399 -0.6753 -0.0581  0.1835
 2776SOL    HW1 9227   4.740   3.598   5.321 -1.2315 -1.1511  0.9079
 2776SOL    HW2 9228   4.752   3.696   5.451  0.0654  1.2257 -0.9116
 2777SOL     OW 9229   0.009   2.053   0.574 -0.3077 -0.7037 -0.4039
 2777SOL    HW1 9230   0.001   2.043   0.674 -1.6981 -0.9025 -0.5177
 2777SOL    HW2 9231   0.082   1.993   0.541  1.6460  0.9470  0.7194
 2778SOL     OW 9232   2.548   5.209   4.197  0.6468 -0.1043  0.0715
 2778SOL    HW1 9233   2.580   5.213   4.292  0.3990  2.3053  0.1271
 2778SOL    HW2 9234   2.473   5.144   4.190  0.8589 -0.5274  1.4707
 2779SOL     OW 9235   5.569   1.588   1.843  0.4914 -0.7431 -0.2216
 2779SOL    HW1 9236   5.496   1.564   1.780 -3.4610  2.7721  2.4690
 2779SOL    HW2 9237   5.595   1.684   1.830  2.0934 -0.9217  1.2256
 2780SOL     OW 9238   1.053   5.315   6.971 -0.1959  0.7838  0.4285
 2780SOL    HW1 9239   1.036   5.376   7.049  1.3805 -0.9058  2.1989
 2780SOL    HW2 9240   1.147   5.325   6.941 -0.4875  0.6218 -0.5784
 2781SOL     OW 9241   1.442   1.217   2.667 -0.1034 -0.0064 -0.2680
 2781SOL    HW1 9242   1.357   1.166   2.679 -0.6584  1.1528  1.0874
 2781SOL    HW2 9243   1.420   1.312   2.646  0.9021 -0.0571 -1.6675
 2782SOL     OW 9244   5.666   6.006   5.258 -0.1395 -0.3697  0.4409
 2782SOL    HW1 9245   5.665   6.081   5.325 -0.2500  0.2351 -0.2303
 2782SOL    HW2 9246   5.710   6.037   5.174 -2.4786 -0.1739 -0.8132
 2783SOL     OW 9247   6.875   4.443   2.488  0.2886 -0.5404 -0.3522
 2783SOL    HW1 9248   6.792   4.496   2.470  0.7434 -0.4265 -2.2623
 2783SOL    HW2 9249   6.953   4.486   2.443  1.8986  0.5702  3.0764
 2784SOL     OW 9250   2.507   2.569   1.772 -0.3215 -0.5052 -0.6944
 2784SOL    HW1 9251   2.539   2.546   1.864 -0.6077  1.5975 -0.0053
 2784SOL    HW2 9252   2.494   2.485   1.719 -0.6829 -1.8145  1.3501
 2785SOL     OW 9253   4.643   0.320   5.269  0.2672 -0.7401 -0.3390
 2785SOL    HW1 9254   4.590   0.332   5.353 -0.0716  0.9366 -0.7550
 2785SOL    HW2 9255   4.728   0.372   5.276 -0.1016  0.0240 -1.3066
 2786SOL     OW 9256   1.367   0.084   1.045  0.2898 -0.3320 -0.0684
 2786SOL    HW1 9257   1.320  -0.002   1.065  2.4529 -1.0371  2.5423
 2786SOL    HW2 9258   1.460   0.080   1.081  0.6960  2.8849 -0.5142
 2787SOL     OW 9259   6.369   5.538   5.842 -0.1909 -0.1173  0.1272
 2787SOL    HW1 9260   6.285   5.484   5.830 -1.2103  1.5722 -0.6558
 2787SOL    HW2 9261   6.435   5.485   5.896 -1.7872 -1.4582  0.8553
 2788SOL     OW 9262   2.973   6.466   6.627  0.6523  1.1370  0.4433
 2788SOL    HW1 9263   2.992   6.513   6.540  0.1194  0.7563  0.1159
 2788SOL    HW2 9264   2.913   6.388   6.610  2.2986 -0.2870  0.8208
 2789SOL     OW 9265   2.047   3.034   4.375 -0.0730  0.2880  0.0995
 2789SOL    HW1 9266   2.073   3.116   4.323 -1.4400  0.2614 -0.6999
 2789SOL    HW2 9267   2.025   2.960   4.311 -0.1591 -0.2841  0.7776
 2790SOL     OW 9268   3.125   5.268   0.874  0.2177 -0.5757 -0.6785
 2790SOL    HW1 9269   3.184   5.241   0.798  0.2505  1.5591 -1.4530
 2790SOL    HW2 9270   3.172   5.335   0.931 -0.4288 -0.9248  0.2982
 2791SOL     OW 9271   6.952   2.686   6.459 -0.0292 -0.0067 -1.0072
 2791SOL    HW1 9272   6.882   2.631   6.504 -0.8844  0.5466 -1.6348
 2791SOL    HW2 9273   6.967   2.770   6.512  0.2215 -0.1561 -0.8362
 2792SOL     OW 9274   3.825   2.544   0.949 -0.4656  0.1018 -0.4709
 2792SOL    HW1 9275   3.820   2.593   1.036 -2.6052 -0.8447  0.0114
 2792SOL    HW2 9276   3.866   2.603   0.880 -1.5142  2.0155  0.4519
 2793SOL     OW 9277   4.208   2.876   6.105  0.1502  0.1615 -0.0472
 2793SOL    HW1 9278   4.286   2.938   6.099  0.6304 -0.3722  0.5279
 2793SOL    HW2 9279   4.203   2.820   6.022 -0.6719  1.3905 -0.8632
 2794SOL     OW 9280   1.430   1.560   0.230  0.3976 -0.4123 -0.0021
 2794SOL    HW1 9281   1.380   1.475   0.212 -0.3262 -0.0672  0.3419
 2794SOL    HW2 9282   1.525   1.549   0.200 -0.0956 -0.7627 -1.5755
 2795SOL     OW 9283   1.168   1.380   6.317 -0.7637 -0.6741  0.5027
 2795SOL    HW1 9284   1.252   1.336   6.345  0.0198  0.6161  0.2887
 2795SOL    HW2 9285   1.138   1.444   6.387  0.6669  1.8288 -0.9971
 2796SOL     OW 9286   1.413   4.732   6.786  0.8838  0.2064  0.1786
 2796SOL    HW1 9287   1.427   4.739   6.885 -0.0166  0.0646  0.3335
 2796SOL    HW2 9288   1.329   4.781   6.761  1.0003  0.0775 -0.4843
 2797SOL     OW 9289   3.606   3.355   6.707  0.5305 -0.0046 -0.1890
 2797SOL    HW1 9290   3.558   3.418   6.768  2.4418 -1.7586  3.4425
 2797SOL    HW2 9291   3.703   3.379   6.704  1.2255 -2.3969  0.9407
 2798SOL     OW 9292   5.103   2.709   2.489 -0.1353  0.3758 -0.5299
 2798SOL    HW1 9293   5.012   2.695   2.450 -0.0063 -1.3108 -0.2885
 2798SOL    HW2 9294   5.097   2.709   2.588  0.0517  0.9319 -0.5149
 2799SOL     OW 9295   2.987   6.926   4.233  0.3155 -0.1211 -0.2844
 2799SOL    HW1 9296   3.004   6.831   4.207  2.8587  0.0374  0.4433
 2799SOL    HW2 9297   2.890   6.939   4.250 -0.3645 -2.1092 -2.1440
 2800SOL     OW 9298   5.308   1.979   1.588  0.2550  0.4843 -0.3034
 2800SOL    HW1 9299   5.320   2.072   1.622  2.0682  0.5955 -1.1145
 2800SOL    HW2 9300   5.387   1.954   1.532 -0.5974 -1.2476 -0.7990
 2801SOL     OW 9301   1.264   3.335   4.538 -0.0032 -0.3284 -0.3477
 2801SOL    HW1 9302   1.328   3.266   4.504  0.6814 -0.0489  0.3487
 2801SOL    HW2 9303   1.315   3.412   4.577 -0.7604 -0.1525  0.3206
 2802SOL     OW 9304   1.575   3.487   5.020  0.2236  0.0450 -0.1548
 2802SOL    HW1 9305   1.623   3.555   4.965 -0.9847  1.0603 -0.0027
 2802SOL    HW2 9306   1.516   3.534   5.087 -0.5815 -1.1520  0.0034
 2803SOL     OW 9307   2.919   2.414   0.175 -0.1235 -0.1955  0.3324
 2803SOL    HW1 9308   3.011   2.442   0.201 -0.1212 -0.6050  0.7634
 2803SOL    HW2 9309   2.870   2.379   0.255 -0.0901 -1.5306 -0.2093
 2804SOL     OW 9310   4.850   2.412   2.590  0.3184  0.0552  0.3459
 2804SOL    HW1 9311   4.853   2.510   2.607  2.6439 -0.0596  1.0827
 2804SOL    HW2 9312   4.781   2.369   2.649  0.5019  1.0600  1.3215
 2805SOL     OW 9313   3.444   4.792   6.977  0.2137 -0.5726 -0.3159
 2805SOL    HW1 9314   3.351   4.821   6.998  0.4258  1.2670 -1.5739
 2805SOL    HW2 9315   3.458   4.797   6.878  1.4926 -1.3256 -0.1873
 2806SOL     OW 9316   6.770   3.500   5.698 -0.2818  0.6752  0.1955
 2806SOL    HW1 9317   6.710   3.488   5.777 -0.4009  0.7408  0.1146
 2806SOL    HW2 9318   6.716   3.494   5.614  0.2662 -2.8855 -0.0694
 2807SOL     OW 9319   0.667   2.079   3.341  0.1231 -0.2986 -0.0892
 2807SOL    HW1 9320   0.601   2.040   3.276  2.0245 -0.1984 -2.2112
 2807SOL    HW2 9321   0.620   2.141   3.403 -1.9829 -1.2629 -0.6297
 2808SOL     OW 9322   0.066   5.871   0.292  0.0065 -0.4564  0.1263
 2808SOL    HW1 9323   0.063   5.833   0.200 -2.8711  1.4318 -0.6936
 2808SOL    HW2 9324   0.077   5.798   0.359  0.1772 -2.0738 -1.6031
 2809SOL     OW 9325   2.737   4.498   1.607 -0.5267  0.2105 -0.1788
 2809SOL    HW1 9326   2.646   4.457   1.600 -0.3206 -0.1533 -0.8404
 2809SOL    HW2 9327   2.774   4.481   1.698 -1.8156  1.8733  0.7242
 2810SOL     OW 9328   5.963   5.710   2.670 -0.2513  0.4116 -1.0522
 2810SOL    HW1 9329   5.968   5.649   2.749  1.6536 -0.7028 -1.9597
 2810SOL    HW2 9330   5.878   5.763   2.674 -0.8221 -0.5516  1.0243
 2811SOL     OW 9331   0.673   4.817   6.980  0.1967  0.2582 -0.7438
 2811SOL    HW1 9332   0.644   4.811   6.884  2.7847 -0.2790 -1.5852
 2811SOL    HW2 9333   0.727   4.736   7.003 -0.4632  0.3305  1.2443
 2812SOL     OW 9334   0.856   5.627   6.667 -0.5040 -0.6803 -0.3462
 2812SOL    HW1 9335   0.862   5.595   6.573 -0.2447 -2.9471  0.3771
 2812SOL    HW2 9336   0.934   5.592   6.719 -0.6963  0.4377  0.7532
 2813SOL     OW 9337   6.895   0.866   1.073 -0.0683  0.2170  0.3961
 2813SOL    HW1 9338   6.987   0.848   1.038 -0.8637  0.1731 -1.8523
 2813SOL    HW2 9339   6.886   0.964   1.092  0.8808  0.0051  2.1262
 2814SOL     OW 9340   2.482   5.957   0.585 -0.1010  0.2621  0.0118
 2814SOL    HW1 9341   2.407   5.998   0.533 -0.4683  0.0665  0.3862
 2814SOL    HW2 9342   2.486   5.859   0.567  0.9031  0.4694 -1.0381
 2815SOL     OW 9343   6.895   5.747   4.246 -0.1724  0.0114  0.1809
 2815SOL    HW1 9344   6.885   5.723   4.150 -0.8222  0.2296  0.1857
 2815SOL    HW2 9345   6.816   5.714   4.297  0.6177 -0.9413  0.8193
 2816SOL     OW 9346   1.435   5.961   6.080 -0.0518  0.1773 -0.5534
 2816SOL    HW1 9347   1.373   6.039   6.088  0.6725  0.7795 -0.6948
 2816SOL    HW2 9348   1.513   5.986   6.022 -0.0964 -0.8361 -1.0791
 2817SOL     OW 9349   3.867   0.411   1.558  0.1015  0.7851 -0.4180
 2817SOL    HW1 9350   3.850   0.471   1.480  1.8318  0.5691 -1.0051
 2817SOL    HW2 9351   3.886   0.466   1.639  0.9731  1.0363 -0.7857
 2818SOL     OW 9352   2.060   5.620   0.335 -0.1280  0.4604 -0.8116
 2818SOL    HW1 9353   1.976   5.668   0.306 -0.1358  1.3555  0.5928
 2818SOL    HW2 9354   2.139   5.661   0.289 -0.1991  1.4786 -0.0794
 2819SOL     OW 9355   4.348   1.561   5.158  0.6439  0.6273  0.3242
 2819SOL    HW1 9356   4.423   1.496   5.172  0.8624  1.2939  2.7523
 2819SOL    HW2 9357   4.367   1.617   5.078  0.7345 -1.8174 -1.5067
 2820SOL     OW 9358   3.040   2.048   6.404 -0.7518 -0.5128  0.2839
 2820SOL    HW1 9359   3.017   2.123   6.466 -0.9424 -0.0045 -0.3822
 2820SOL    HW2 9360   3.009   2.071   6.312  2.8214  0.4700 -0.8396
 2821SOL     OW 9361   3.675   4.339   5.305 -0.7153  0.0342 -0.0141
 2821SOL    HW1 9362   3.775   4.339   5.311 -0.6703  0.1653 -0.7132
 2821SOL    HW2 9363   3.646   4.286   5.225 -1.1723  0.6180 -0.2464
 2822SOL     OW 9364   3.351   6.261   1.295  0.2064 -0.6600  0.2025
 2822SOL    HW1 9365   3.301   6.333   1.245  1.8714  0.6405  0.2886
 2822SOL    HW2 9366   3.446   6.261   1.264  0.4877 -2.1218  1.0175
 2823SOL     OW 9367   6.559   4.756   5.395 -0.1977  0.2615  0.1780
 2823SOL    HW1 9368   6.523   4.842   5.359  0.2072 -0.5885 -2.4580
 2823SOL    HW2 9369   6.623   4.717   5.329  2.1006 -0.5395  2.7116
 2824SOL     OW 9370   0.455   4.319   0.653 -0.2080  0.1172  0.3215
 2824SOL    HW1 9371   0.383   4.264   0.611  0.0145 -0.1991  0.3469
 2824SOL    HW2 9372   0.416   4.372   0.728 -0.3717 -0.2367  0.4935
 2825SOL     OW 9373   6.121   3.827   3.760  0.3723 -0.3150 -0.2194
 2825SOL    HW1 9374   6.044   3.883   3.729  0.1912  0.2582  1.1947
 2825SOL    HW2 9375   6.150   3.766   3.685 -0.1035  0.9016 -1.4425
 2826SOL     OW 9376   2.577   3.112   6.842  0.2258  0.1715  0.3815
 2826SOL    HW1 9377   2.574   3.190   6.780  0.8951 -1.0713 -1.2910
 2826SOL    HW2 9378   2.582   3.144   6.937 -0.7745  2.1271 -0.1743
 2827SOL     OW 9379   0.645   3.030   1.172  0.0070  0.2226 -0.3372
 2827SOL    HW1 9380   0.590   3.074   1.243  0.1859  3.0527 -1.8125
 2827SOL    HW2 9381   0.631   2.931   1.176 -1.2894  0.4199  2.4927
 2828SOL     OW 9382   2.699   2.965   6.085  0.0699 -0.1653  0.0917
 2828SOL    HW1 9383   2.770   3.031   6.109  1.2453 -1.5718  0.5947
 2828SOL    HW2 9384   2.616   3.014   6.058  1.0074  1.5064  0.1261
 2829SOL     OW 9385   2.923   5.367   1.206  0.0474 -0.1213 -0.0209
 2829SOL    HW1 9386   2.903   5.428   1.130  0.3496 -0.4920 -0.4021
 2829SOL    HW2 9387   2.837   5.336   1.247 -0.1412 -0.6232 -0.7793
 2830SOL     OW 9388   3.036   5.241   3.324  0.1230 -0.1233 -0.0529
 2830SOL    HW1 9389   3.074   5.330   3.301 -1.2878  0.7198  0.6978
 2830SOL    HW2 9390   3.035   5.182   3.242  0.8095  0.6454 -0.6225
 2831SOL     OW 9391   0.731   0.340   2.208  0.1336 -0.1620  0.2638
 2831SOL    HW1 9392   0.731   0.343   2.308  0.1168  1.2597  0.2463
 2831SOL    HW2 9393   0.637   0.350   2.174  0.2726  0.7424  0.1077
 2832SOL     OW 9394   1.953   4.081   6.416 -0.1108 -0.2266 -0.1135
 2832SOL    HW1 9395   1.962   4.151   6.486  0.0662  0.2776 -0.6346
 2832SOL    HW2 9396   2.027   4.090   6.349  0.5993 -1.6287  0.4200
 2833SOL     OW 9397   6.511   2.716   1.850  0.0160 -0.0923 -0.0224
 2833SOL    HW1 9398   6.462   2.634   1.881 -1.2698  0.7408  0.2060
 2833SOL    HW2 9399   6.589   2.732   1.911  0.0434 -0.9057  0.1762
 2834SOL     OW 9400   3.361   0.463   4.411  0.7898 -0.5733 -0.3917
 2834SOL    HW1 9401   3.461   0.465   4.403  0.8900  1.3559  0.5588
 2834SOL    HW2 9402   3.320   0.480   4.321  1.3204 -1.0633 -0.7298
 2835SOL     OW 9403   5.140   1.541   5.428 -0.2003 -0.3791 -0.1050
 2835SOL    HW1 9404   5.144   1.504   5.335 -0.2365 -0.4451 -0.0803
 2835SOL    HW2 9405   5.048   1.577   5.445 -0.5083 -1.3344  0.2759
 2836SOL     OW 9406   2.396   6.111   2.770 -0.6283  0.3483 -0.1668
 2836SOL    HW1 9407   2.425   6.193   2.819  1.3659 -1.0214  1.0744
 2836SOL    HW2 9408   2.307   6.081   2.804 -1.4457  2.0082 -0.7287
 2837SOL     OW 9409   4.752   4.574   2.157 -0.1743 -0.1902 -0.1069
 2837SOL    HW1 9410   4.778   4.514   2.082 -1.2608 -0.3317 -0.3910
 2837SOL    HW2 9411   4.817   4.565   2.232  1.1865  0.2848 -1.1937
 2838SOL     OW 9412   6.033   5.754   1.009 -0.6334  0.2343  0.5157
 2838SOL    HW1 9413   6.124   5.791   1.028 -0.1776  0.8799 -2.4380
 2838SOL    HW2 9414   6.019   5.672   1.064  0.7161  1.4379  2.8316
 2839SOL     OW 9415   4.219   2.939   5.362  0.7073  0.0055 -0.2212
 2839SOL    HW1 9416   4.218   2.947   5.461  0.9029  3.0224 -0.3733
 2839SOL    HW2 9417   4.140   2.886   5.332  0.1285 -0.1560  1.5029
 2840SOL     OW 9418   6.961   5.529   5.884 -0.4212  0.3205  0.4582
 2840SOL    HW1 9419   6.942   5.612   5.831  0.8068  1.2673  1.4658
 2840SOL    HW2 9420   6.958   5.450   5.822 -1.7778  1.0611 -0.4892
 2841SOL     OW 9421   6.241   2.771   2.946  0.0920 -0.4391  0.0467
 2841SOL    HW1 9422   6.287   2.739   2.864  1.2513  0.8893  0.1307
 2841SOL    HW2 9423   6.153   2.724   2.956 -0.2897 -0.3214 -2.1849
 2842SOL     OW 9424   1.720   3.729   4.851  0.6535 -0.3596 -0.2153
 2842SOL    HW1 9425   1.724   3.664   4.775  0.7600 -0.5041 -0.0878
 2842SOL    HW2 9426   1.727   3.822   4.815 -0.4438 -0.3657 -0.4813
 2843SOL     OW 9427   0.763   1.790   3.088 -0.1459  0.4012  0.9312
 2843SOL    HW1 9428   0.830   1.716   3.085 -0.5824 -0.0462  1.7312
 2843SOL    HW2 9429   0.775   1.844   3.172 -0.3644  0.7191  0.7628
 2844SOL     OW 9430   4.931   3.335   1.576 -0.2831  0.2560 -0.0538
 2844SOL    HW1 9431   4.992   3.276   1.522  1.9637 -0.1626  2.6997
 2844SOL    HW2 9432   4.891   3.282   1.651 -1.9332  1.2134 -0.2006
 2845SOL     OW 9433   1.396   2.248   0.852  0.1860  0.2907  0.2942
 2845SOL    HW1 9434   1.355   2.190   0.922  0.5134  1.4101  1.4682
 2845SOL    HW2 9435   1.328   2.316   0.821  0.6583  1.1531  1.1049
 2846SOL     OW 9436   5.569   1.216   5.255  0.2718 -0.2788  0.1647
 2846SOL    HW1 9437   5.603   1.245   5.344  0.8290 -1.8706  0.5095
 2846SOL    HW2 9438   5.646   1.203   5.192 -0.0042 -0.3829 -0.1573
 2847SOL     OW 9439   3.500   5.120   3.244  0.2857 -0.2402  0.3052
 2847SOL    HW1 9440   3.526   5.079   3.332 -3.1411 -1.3803  0.9372
 2847SOL    HW2 9441   3.443   5.055   3.193 -0.7337  1.7323 -1.1736
 2848SOL     OW 9442   0.895   2.205   6.744 -0.4286 -0.5212  0.6880
 2848SOL    HW1 9443   0.852   2.280   6.793 -0.8652 -0.5194  0.3087
 2848SOL    HW2 9444   0.902   2.229   6.647 -0.8699 -1.1031  0.5114
 2849SOL     OW 9445   4.780   1.793   5.628  0.5212  0.1266 -0.0207
 2849SOL    HW1 9446   4.860   1.755   5.674 -0.1359 -0.7604  0.4280
 2849SOL    HW2 9447   4.697   1.758   5.672 -0.1408  2.5286  0.7763
 2850SOL     OW 9448   6.271   1.521   1.444  0.0118  0.2099 -0.1314
 2850SOL    HW1 9449   6.256   1.511   1.346 -0.2113 -0.0463 -0.0701
 2850SOL    HW2 9450   6.280   1.619   1.466  1.3440  0.2044 -0.5932
 2851SOL     OW 9451   3.238   3.402   3.519  0.5171 -0.3280 -0.2450
 2851SOL    HW1 9452   3.171   3.459   3.565  1.3451  0.5234 -0.0790
 2851SOL    HW2 9453   3.212   3.390   3.423 -0.1440 -0.4490 -0.0535
 2852SOL     OW 9454   1.613   4.165   5.862  0.0635 -0.2737 -0.4353
 2852SOL    HW1 9455   1.680   4.103   5.820 -1.4838 -2.0743 -0.4300
 2852SOL    HW2 9456   1.660   4.243   5.903  1.8888 -0.0002 -2.8465
 2853SOL     OW 9457   0.678   6.075   6.515 -0.0641 -0.1705 -0.2680
 2853SOL    HW1 9458   0.625   6.116   6.441  1.2006 -0.1118 -1.1648
 2853SOL    HW2 9459   0.707   5.983   6.489  0.6298 -0.0435  0.0496
 2854SOL     OW 9460   2.000   6.595   5.898  0.1869 -0.4811  0.1947
 2854SOL    HW1 9461   1.968   6.562   5.987  0.0638 -0.8284  0.0232
 2854SOL    HW2 9462   2.077   6.539   5.867 -0.2444 -0.8276 -0.2589
 2855SOL     OW 9463   4.250   1.562   3.852 -0.5726  0.5436  0.4769
 2855SOL    HW1 9464   4.153   1.586   3.861 -0.0339  3.1094  0.3519
 2855SOL    HW2 9465   4.299   1.639   3.810  1.0196 -1.9054 -2.5445
 2856SOL     OW 9466   6.507   4.595   4.530  0.2697  0.2078  0.5567
 2856SOL    HW1 9467   6.506   4.678   4.585  0.9817  0.3849  0.3224
 2856SOL    HW2 9468   6.528   4.516   4.588  0.4625  0.3150  0.6329
 2857SOL     OW 9469   2.464   3.486   6.412  0.1941  0.3074  0.3825
 2857SOL    HW1 9470   2.481   3.442   6.324  1.3781 -1.4904  1.4541
 2857SOL    HW2 9471   2.544   3.538   6.439  0.3425 -0.2412  1.0062
 2858SOL     OW 9472   5.943   3.595   4.225 -0.1152  0.1809  0.2397
 2858SOL    HW1 9473   5.954   3.496   4.234 -4.7469 -0.3957  2.4894
 2858SOL    HW2 9474   5.976   3.640   4.308  0.4441  0.3651 -0.0764
 2859SOL     OW 9475   0.967   6.240   1.613  0.2934  0.3456 -0.4382
 2859SOL    HW1 9476   1.052   6.188   1.604  0.1221  0.1165 -0.7262
 2859SOL    HW2 9477   0.889   6.181   1.594  0.0432  0.4631  0.1850
 2860SOL     OW 9478   0.469   1.865   2.231  0.2132 -0.4127  0.3093
 2860SOL    HW1 9479   0.530   1.926   2.282  0.0422 -0.6740  0.8450
 2860SOL    HW2 9480   0.395   1.918   2.190  0.3690 -0.1904  0.3142
 2861SOL     OW 9481   4.943   4.359   5.180 -0.3623  0.5637  0.5243
 2861SOL    HW1 9482   5.020   4.296   5.180 -0.4416  0.4518  1.4503
 2861SOL    HW2 9483   4.859   4.309   5.160 -0.7423 -0.0923  3.2973
 2862SOL     OW 9484   4.126   0.026   1.061  0.0134  0.1693  0.0814
 2862SOL    HW1 9485   4.128   0.114   1.107  0.5789  0.8139 -1.1313
 2862SOL    HW2 9486   4.177   0.031   0.975 -3.0959 -0.2011 -1.9905
 2863SOL     OW 9487   4.476   2.127   6.095 -0.2953  0.5040  0.8603
 2863SOL    HW1 9488   4.449   2.054   6.158 -0.7539  0.6552  0.8433
 2863SOL    HW2 9489   4.426   2.210   6.118 -0.2942  0.6220  0.4377
 2864SOL     OW 9490   3.351   4.474   0.442 -0.1230 -0.3675 -0.2557
 2864SOL    HW1 9491   3.329   4.380   0.417  0.5064 -0.8248  0.8444
 2864SOL    HW2 9492   3.344   4.484   0.541 -0.4623  0.8271 -0.3896
 2865SOL     OW 9493   4.132   5.457   4.449 -0.3183  0.0316 -0.1021
 2865SOL    HW1 9494   4.134   5.522   4.374  2.6995 -1.2491 -1.2937
 2865SOL    HW2 9495   4.043   5.410   4.450 -1.0382  1.2614 -1.7850
 2866SOL     OW 9496   6.241   5.287   6.212  0.3714 -0.1378  0.0891
 2866SOL    HW1 9497   6.281   5.372   6.247 -1.4504  1.4333 -1.4040
 2866SOL    HW2 9498   6.182   5.247   6.282  0.0964  0.6445  0.3128
 2867SOL     OW 9499   0.233   0.772   2.014  0.2041  0.0905 -0.3157
 2867SOL    HW1 9500   0.188   0.731   2.093 -1.6026  1.4640 -0.5657
 2867SOL    HW2 9501   0.271   0.861   2.039 -1.1613  0.9458 -1.1554
 2868SOL     OW 9502   4.636   5.451   5.285 -0.4222  0.7865 -0.1257
 2868SOL    HW1 9503   4.656   5.362   5.326 -0.0549  1.8202  2.0872
 2868SOL    HW2 9504   4.625   5.441   5.186 -0.1328 -1.6524  0.0393
 2869SOL     OW 9505   4.187   6.327   6.696  0.0768 -0.6023  0.0810
 2869SOL    HW1 9506   4.118   6.385   6.654  0.5018  0.1969  0.4736
 2869SOL    HW2 9507   4.176   6.233   6.663  0.1602 -0.0764 -1.5228
 2870SOL     OW 9508   6.454   0.836   0.702 -0.0316 -0.0143  0.1012
 2870SOL    HW1 9509   6.473   0.740   0.720  2.3885  0.3365 -0.3318
 2870SOL    HW2 9510   6.355   0.849   0.695 -0.4012 -2.5668 -0.4383
 2871SOL     OW 9511   3.426   1.521   2.901  0.1036 -0.7305  0.0150
 2871SOL    HW1 9512   3.488   1.512   2.823 -0.8368 -0.9483 -0.7115
 2871SOL    HW2 9513   3.331   1.521   2.870 -0.2610  2.4067  0.8107
 2872SOL     OW 9514   2.953   5.749   2.561  0.7371  0.2137 -0.3149
 2872SOL    HW1 9515   2.859   5.717   2.570  1.3673 -1.1541  2.6933
 2872SOL    HW2 9516   2.957   5.848   2.580 -0.1817  0.4863 -1.4529
 2873SOL     OW 9517   1.005   0.445   4.015 -0.2716  0.3414 -0.0427
 2873SOL    HW1 9518   0.963   0.520   4.065 -2.1832  0.0650 -1.1606
 2873SOL    HW2 9519   1.066   0.481   3.945 -1.0830  0.8694 -0.4902
 2874SOL     OW 9520   2.452   1.080   2.449  0.2297  0.1091 -0.2956
 2874SOL    HW1 9521   2.448   1.129   2.362 -0.9206  1.3380  0.4150
 2874SOL    HW2 9522   2.454   0.982   2.431  0.5640  0.3494 -1.7166
 2875SOL     OW 9523   2.160   3.031   2.784 -0.3500 -0.3902 -0.1055
 2875SOL    HW1 9524   2.215   2.968   2.729 -0.3994 -0.0362 -0.5711
 2875SOL    HW2 9525   2.188   3.025   2.879 -1.0046 -1.8156  0.0268
 2876SOL     OW 9526   1.322   5.374   6.881 -0.7726 -0.5304  0.1741
 2876SOL    HW1 9527   1.332   5.298   6.817  0.1711 -1.4728  1.3892
 2876SOL    HW2 9528   1.338   5.461   6.833  0.7416 -1.2520 -0.7043
 2877SOL     OW 9529   1.829   3.153   4.181 -0.3674  1.0722  0.5623
 2877SOL    HW1 9530   1.911   3.202   4.213  0.1006 -0.6029  2.0735
 2877SOL    HW2 9531   1.795   3.094   4.254 -0.5020 -1.4081 -1.3847
 2878SOL     OW 9532   3.715   3.348   3.966  0.0774  0.1865 -0.1305
 2878SOL    HW1 9533   3.624   3.316   3.941 -0.9413  0.4039  2.8939
 2878SOL    HW2 9534   3.716   3.448   3.969 -0.3798  0.1585  2.2640
 2879SOL     OW 9535   6.290   7.001   1.656  0.3692  0.1724 -0.3021
 2879SOL    HW1 9536   6.335   6.937   1.719  1.5523  0.7366 -0.5568
 2879SOL    HW2 9537   6.303   7.094   1.688 -1.9873  0.3019  0.4739
 2880SOL     OW 9538   3.049   0.365   0.965  0.0492  0.1221 -0.3976
 2880SOL    HW1 9539   3.117   0.415   1.018  0.6325 -1.5731  0.5501
 2880SOL    HW2 9540   2.986   0.429   0.921  1.8652  1.7143 -0.7775
 2881SOL     OW 9541   6.073   0.022   5.631  0.7722 -0.0340  0.1742
 2881SOL    HW1 9542   6.050   0.024   5.728 -0.4545 -1.8759 -0.0134
 2881SOL    HW2 9543   6.047   0.108   5.588 -1.3186 -0.2143  0.9679
 2882SOL     OW 9544   4.112   0.187   0.646 -0.1799 -0.0554 -0.1656
 2882SOL    HW1 9545   4.182   0.227   0.705  0.0293 -1.2833  0.4660
 2882SOL    HW2 9546   4.047   0.257   0.618  0.9986  0.9980 -0.3188
 2883SOL     OW 9547   4.377   4.544   1.907 -0.1144  0.1554 -0.3029
 2883SOL    HW1 9548   4.309   4.518   1.838  1.6631  0.2605 -2.1745
 2883SOL    HW2 9549   4.431   4.464   1.933  0.3378  0.4560 -0.3028
 2884SOL     OW 9550   4.685   4.832   5.356 -0.7412 -0.0334 -0.0104
 2884SOL    HW1 9551   4.755   4.763   5.335 -1.0693 -0.1773 -0.6767
 2884SOL    HW2 9552   4.594   4.789   5.352 -1.0706  0.7274 -1.9433
 2885SOL     OW 9553   1.969   6.291   3.783 -0.0030  0.6850 -0.5332
 2885SOL    HW1 9554   1.926   6.205   3.754  1.1360 -0.6570  1.5755
 2885SOL    HW2 9555   2.068   6.284   3.772  0.5485  0.0037  3.5431
 2886SOL     OW 9556   0.292   5.403   4.524 -0.1090  0.7941  0.4171
 2886SOL    HW1 9557   0.245   5.341   4.461  1.6806 -2.4659  2.0056
 2886SOL    HW2 9558   0.385   5.419   4.493  0.2149  0.6547  1.2827
 2887SOL     OW 9559   6.107   5.545   3.523  0.2583  0.2879  0.2962
 2887SOL    HW1 9560   6.019   5.593   3.530 -0.3246 -1.0617  3.8657
 2887SOL    HW2 9561   6.181   5.612   3.527 -0.5697  1.2045  0.8129
 2888SOL     OW 9562   5.414   4.967   5.826  0.5441  0.1778  0.2615
 2888SOL    HW1 9563   5.338   4.960   5.892  0.1508  0.9526 -0.0975
 2888SOL    HW2 9564   5.380   4.948   5.734  0.4138  2.0478 -0.1217
 2889SOL     OW 9565   4.779   5.601   4.820  0.2880 -0.0507  0.5665
 2889SOL    HW1 9566   4.734   5.687   4.841  0.6427 -0.0845  1.5485
 2889SOL    HW2 9567   4.860   5.591   4.878  0.6174 -0.7438  0.0044
 2890SOL     OW 9568   1.432   2.506   0.831 -0.0637  0.4216 -0.0044
 2890SOL    HW1 9569   1.450   2.414   0.865  0.6576  1.1551  1.7366
 2890SOL    HW2 9570   1.436   2.506   0.731  2.2599 -1.0160 -0.0045
 2891SOL     OW 9571   1.230   2.490   5.092  0.3186 -0.4417 -0.6171
 2891SOL    HW1 9572   1.146   2.523   5.134  0.6391 -0.5074  0.0991
 2891SOL    HW2 9573   1.297   2.564   5.088  0.3090 -0.4521 -0.9581
 2892SOL     OW 9574   5.908   3.983   4.108 -0.4400  0.6896  0.0435
 2892SOL    HW1 9575   5.832   3.994   4.045  0.0680  0.8458 -0.5565
 2892SOL    HW2 9576   5.994   3.991   4.058 -0.0276  0.2845  0.6674
 2893SOL     OW 9577   0.185   5.051   4.963  0.2733  0.1507  0.1010
 2893SOL    HW1 9578   0.222   4.960   4.984  0.0581 -0.0210 -0.2401
 2893SOL    HW2 9579   0.133   5.046   4.877 -0.7475  0.3295  0.6937
 2894SOL     OW 9580   1.533   4.905   4.615  0.2050  0.5308  0.1518
 2894SOL    HW1 9581   1.599   4.845   4.570 -0.3003  0.7744 -0.9443
 2894SOL    HW2 9582   1.572   4.997   4.625 -0.2031  0.8627 -1.1383
 2895SOL     OW 9583   3.497   0.731   6.473 -0.3552 -0.2175  0.2461
 2895SOL    HW1 9584   3.488   0.813   6.417 -1.1517  0.8287  1.8148
 2895SOL    HW2 9585   3.587   0.690   6.458  0.5785  1.6845  0.3510
 2896SOL     OW 9586   6.047   0.440   0.240  0.2675 -0.5889 -0.0314
 2896SOL    HW1 9587   6.091   0.410   0.325 -0.3979  0.5879  0.7582
 2896SOL    HW2 9588   5.987   0.368   0.206 -0.9543 -0.3773  1.5680
 2897SOL     OW 9589   2.880   6.206   5.090 -0.7562 -0.3370 -0.1497
 2897SOL    HW1 9590   2.795   6.217   5.039  0.2696  2.0816 -1.4818
 2897SOL    HW2 9591   2.936   6.135   5.046 -0.8419  0.1445 -1.0593
 2898SOL     OW 9592   4.672   4.488   2.951  0.6385 -0.4368 -0.0767
 2898SOL    HW1 9593   4.672   4.574   2.900 -2.6370  0.8861  1.8308
 2898SOL    HW2 9594   4.676   4.411   2.887 -1.1256  1.1441 -2.2356
 2899SOL     OW 9595   4.388   2.161   1.076 -0.3631 -0.2232  0.2357
 2899SOL    HW1 9596   4.315   2.094   1.085 -1.1389  0.6151  0.2679
 2899SOL    HW2 9597   4.407   2.176   0.979 -0.1756 -0.4944  0.2283
 2900SOL     OW 9598   3.586   3.211   3.748  0.0498 -0.4190  0.0298
 2900SOL    HW1 9599   3.539   3.226   3.661 -1.8486 -0.4136  0.9900
 2900SOL    HW2 9600   3.597   3.113   3.764  1.6173 -0.4030 -0.7939
 2901SOL     OW 9601   2.177   3.179   1.807 -0.0789 -0.1478  0.1971
 2901SOL    HW1 9602   2.183   3.185   1.708  0.4549 -0.7204  0.1941
 2901SOL    HW2 9603   2.231   3.253   1.848 -0.5122  0.2470  0.0636
 2902SOL     OW 9604   6.998   4.856   3.607 -0.4151  0.1442 -0.0154
 2902SOL    HW1 9605   6.904   4.883   3.623  0.3439  2.2081  1.3903
 2902SOL    HW2 9606   7.021   4.870   3.511 -1.4496 -0.2170 -0.3302
 2903SOL     OW 9607   0.583   6.431   3.990  0.3376  0.4382  0.0669
 2903SOL    HW1 9608   0.632   6.445   4.076 -0.1935  0.0906  0.4285
 2903SOL    HW2 9609   0.489   6.405   4.009  0.2014  0.4090 -0.6242
 2904SOL     OW 9610   2.269   4.384   4.919  0.1721  0.0591 -0.0449
 2904SOL    HW1 9611   2.294   4.412   5.012  0.4526 -1.0591  0.2341
 2904SOL    HW2 9612   2.247   4.286   4.919  0.4470 -0.0128 -1.1996
 2905SOL     OW 9613   3.023   4.251   1.718  0.1873 -0.9250 -0.0236
 2905SOL    HW1 9614   3.008   4.255   1.619  1.7626  0.8467 -0.2609
 2905SOL    HW2 9615   2.953   4.304   1.765  1.5888  1.6082 -0.5744
 2906SOL     OW 9616   5.098   4.795   6.691 -0.1063 -0.1393  0.1910
 2906SOL    HW1 9617   5.020   4.772   6.633 -0.8755 -1.3094  1.6319
 2906SOL    HW2 9618   5.090   4.890   6.722  0.2086  0.4369 -1.3940
 2907SOL     OW 9619   6.083   2.791   6.556 -0.1978 -0.3826  0.1071
 2907SOL    HW1 9620   6.125   2.838   6.479  1.6809 -0.4788  1.0137
 2907SOL    HW2 9621   5.992   2.827   6.572  0.2947  1.2881 -0.6859
 2908SOL     OW 9622   3.153   6.878   4.491 -0.3560  0.8334  0.2974
 2908SOL    HW1 9623   3.066   6.830   4.502  0.0916 -1.1385 -3.2155
 2908SOL    HW2 9624   3.225   6.829   4.542 -0.9890  1.7381  2.1576
 2909SOL     OW 9625   0.443   5.114   1.295 -0.6111 -0.0582  0.0056
 2909SOL    HW1 9626   0.488   5.103   1.207  1.5804  0.4900  0.9974
 2909SOL    HW2 9627   0.484   5.191   1.344  0.0237 -1.9042  2.5590
 2910SOL     OW 9628   0.970   0.170   4.330  0.5398  0.1038  0.0130
 2910SOL    HW1 9629   0.904   0.224   4.278  1.4595  1.9325  0.6488
 2910SOL    HW2 9630   0.994   0.088   4.278 -1.5234 -0.1509 -0.6265
 2911SOL     OW 9631   4.981   2.652   3.869 -0.3253 -0.2975 -0.2146
 2911SOL    HW1 9632   5.061   2.667   3.812 -0.2376 -1.0593 -0.3033
 2911SOL    HW2 9633   4.985   2.560   3.909 -1.6126 -0.7082 -0.9708
 2912SOL     OW 9634   1.777   1.604   2.968 -0.0724  0.0662  0.4390
 2912SOL    HW1 9635   1.847   1.555   2.917  0.5748  0.1789  1.1925
 2912SOL    HW2 9636   1.813   1.692   3.000 -1.4961  1.5222 -1.6815
 2913SOL     OW 9637   0.300   0.488   3.154  0.4070  0.3332  0.5705
 2913SOL    HW1 9638   0.276   0.413   3.216 -0.5948  0.3487  0.2197
 2913SOL    HW2 9639   0.265   0.574   3.191 -0.5524  0.2869 -0.1917
 2914SOL     OW 9640   3.447   4.996   0.251 -0.2649 -0.1377  0.0472
 2914SOL    HW1 9641   3.454   4.977   0.349 -0.2540  0.7543  0.2330
 2914SOL    HW2 9642   3.434   5.094   0.238 -2.8277 -0.5141 -0.7233
 2915SOL     OW 9643   3.389   0.344   3.916  0.2105  0.3620 -0.2580
 2915SOL    HW1 9644   3.392   0.252   3.957 -0.8095  0.1608 -0.6215
 2915SOL    HW2 9645   3.345   0.339   3.827  1.0462  1.0543 -0.7198
 2916SOL     OW 9646   0.913   6.336   0.953  0.5326  0.2625 -0.0708
 2916SOL    HW1 9647   1.009   6.324   0.928  0.2165  1.9754 -2.4297
 2916SOL    HW2 9648   0.856   6.285   0.888 -0.2101  1.4603 -0.3838
 2917SOL     OW 9649   2.395   1.832   3.463  0.0738 -0.2876  0.6149
 2917SOL    HW1 9650   2.309   1.866   3.501 -0.1463 -1.5037  1.2660
 2917SOL    HW2 9651   2.401   1.733   3.478  0.7000 -0.5533 -1.1602
 2918SOL     OW 9652   5.527   0.154   1.474 -0.1647 -0.0321  0.4274
 2918SOL    HW1 9653   5.477   0.078   1.516  2.1381 -1.3779  0.8876
 2918SOL    HW2 9654   5.574   0.207   1.546  1.5068 -0.6531 -0.1605
 2919SOL     OW 9655   3.620   4.683   6.463  0.7689 -0.1168 -0.9614
 2919SOL    HW1 9656   3.710   4.724   6.446  1.1056 -1.2608 -2.0890
 2919SOL    HW2 9657   3.593   4.701   6.558  2.6353 -0.5944 -0.2973
 2920SOL     OW 9658   3.659   3.190   6.388  0.2044  0.0364  0.5006
 2920SOL    HW1 9659   3.614   3.129   6.323 -0.1814 -0.6190  1.3470
 2920SOL    HW2 9660   3.705   3.264   6.339  0.8070 -1.0073 -0.5594
 2921SOL     OW 9661   6.908   3.567   2.836  0.0599 -0.1249  0.5463
 2921SOL    HW1 9662   6.995   3.617   2.839  0.4822 -0.8243  0.1676
 2921SOL    HW2 9663   6.833   3.632   2.845  0.5517  0.7431 -1.0907
 2922SOL     OW 9664   4.010   5.075   5.349  0.4519 -0.3161  0.0148
 2922SOL    HW1 9665   4.023   5.119   5.438 -2.2868  0.0523  0.3385
 2922SOL    HW2 9666   3.961   4.989   5.361 -4.1178  1.7790 -1.2114
 2923SOL     OW 9667   2.678   4.731   4.794 -0.4488 -0.0070  0.1604
 2923SOL    HW1 9668   2.595   4.678   4.777  1.3348 -3.1641  0.3885
 2923SOL    HW2 9669   2.718   4.701   4.881  0.5632  2.0212  0.4514
 2924SOL     OW 9670   4.947   2.300   0.887  0.3663 -1.0014  0.7305
 2924SOL    HW1 9671   4.936   2.384   0.941  0.4512 -0.9712  0.7013
 2924SOL    HW2 9672   4.990   2.230   0.944 -1.7319 -1.7554  1.4640
 2925SOL     OW 9673   5.480   0.588   4.498  0.0447 -0.6803  0.5056
 2925SOL    HW1 9674   5.392   0.633   4.483  0.9703  0.7874 -0.8369
 2925SOL    HW2 9675   5.549   0.628   4.438  1.5897 -1.9819  1.3209
 2926SOL     OW 9676   6.544   1.964   4.570 -0.1515 -0.5822  0.1423
 2926SOL    HW1 9677   6.585   1.936   4.656 -0.4796 -1.1768  0.1068
 2926SOL    HW2 9678   6.531   2.064   4.570 -0.5639 -0.6287  0.9601
 2927SOL     OW 9679   2.196   2.886   4.021 -0.0833  0.0506 -0.2142
 2927SOL    HW1 9680   2.144   2.894   3.936 -1.0693 -2.5091  0.0541
 2927SOL    HW2 9681   2.273   2.823   4.007 -0.4710 -0.6917  0.8369
 2928SOL     OW 9682   5.625   5.077   6.792 -0.1496  0.0311  0.3866
 2928SOL    HW1 9683   5.536   5.116   6.815  0.4762  1.6591  0.2368
 2928SOL    HW2 9684   5.679   5.063   6.875 -0.9819 -2.2203  0.6138
 2929SOL     OW 9685   1.652   1.432   3.673  0.1029 -0.4922 -0.2858
 2929SOL    HW1 9686   1.656   1.531   3.685  0.9038 -0.4541 -0.8223
 2929SOL    HW2 9687   1.557   1.403   3.667 -0.2319  0.0129  1.7548
 2930SOL     OW 9688   1.116   1.397   3.486 -0.3974 -0.3303  0.0031
 2930SOL    HW1 9689   1.030   1.348   3.498 -1.0852  0.7406 -0.3811
 2930SOL    HW2 9690   1.097   1.490   3.455  0.8407  0.3247  1.0899
 2931SOL     OW 9691   4.641   4.175   6.814  0.1385  0.0041  0.4164
 2931SOL    HW1 9692   4.655   4.167   6.715  0.2769  1.8367  0.2526
 2931SOL    HW2 9693   4.708   4.238   6.852  1.4285 -2.2213  2.0658
 2932SOL     OW 9694   6.317   0.192   0.073 -0.2912  0.0300  0.2082
 2932SOL    HW1 9695   6.238   0.161   0.020 -0.5244 -2.3978  1.7800
 2932SOL    HW2 9696   6.400   0.150   0.037 -0.2086 -0.1810  0.6318
 2933SOL     OW 9697   0.976   2.463   6.338 -0.1690 -0.6184  0.0125
 2933SOL    HW1 9698   1.024   2.507   6.414  0.8995 -2.2426  0.3334
 2933SOL    HW2 9699   0.919   2.530   6.290  3.0059  1.6834 -0.8793
 2934SOL     OW 9700   6.239   5.313   3.451  0.5305  0.4774 -0.5675
 2934SOL    HW1 9701   6.189   5.391   3.489 -0.2424 -0.1824 -0.1845
 2934SOL    HW2 9702   6.261   5.249   3.525 -0.4548 -0.5313 -1.1059
 2935SOL     OW 9703   6.322   4.532   6.855 -0.3491  0.4914  0.1609
 2935SOL    HW1 9704   6.357   4.597   6.923 -0.1023  0.2661  0.2518
 2935SOL    HW2 9705   6.380   4.536   6.773 -0.9596  1.1457 -0.2449
 2936SOL     OW 9706   5.131   6.863   2.722 -0.2035 -0.3643 -0.0661
 2936SOL    HW1 9707   5.046   6.856   2.670  0.2915 -0.3342 -0.8896
 2936SOL    HW2 9708   5.201   6.805   2.681  0.1903 -0.3729  0.5952
 2937SOL     OW 9709   4.886   3.888   4.026 -0.2365  0.6627  0.3952
 2937SOL    HW1 9710   4.966   3.891   4.086 -0.3003  0.9131  0.4704
 2937SOL    HW2 9711   4.844   3.797   4.029  0.6506  0.2018 -0.4331
 2938SOL     OW 9712   6.014   5.008   3.551 -0.2171 -0.2832  0.1245
 2938SOL    HW1 9713   6.020   5.093   3.603  0.0946 -0.8073  0.9609
 2938SOL    HW2 9714   5.949   5.020   3.476  0.0056  0.7646  0.0857
 2939SOL     OW 9715   5.714   6.706   1.738  0.6499  0.5857  0.1467
 2939SOL    HW1 9716   5.727   6.706   1.837  3.3135  0.4187 -0.1507
 2939SOL    HW2 9717   5.732   6.797   1.701 -1.0367  0.8321 -0.1489
 2940SOL     OW 9718   0.092   6.094   3.317  0.1751 -0.4458 -0.4428
 2940SOL    HW1 9719   0.012   6.153   3.326  0.3912 -0.3054  0.7161
 2940SOL    HW2 9720   0.071   6.017   3.258 -1.3827 -1.3676  1.2388
 2941SOL     OW 9721   5.613   6.120   1.287 -0.3475 -0.3232 -0.2260
 2941SOL    HW1 9722   5.694   6.061   1.278  0.1604 -0.2723  2.9220
 2941SOL    HW2 9723   5.530   6.065   1.273  0.1703 -1.1348 -0.1790
 2942SOL     OW 9724   2.581   1.272   6.843  0.0667  0.6144  0.0284
 2942SOL    HW1 9725   2.623   1.240   6.758 -1.0422  1.3167 -0.8049
 2942SOL    HW2 9726   2.484   1.288   6.828 -0.1405  0.7761  1.4350
 2943SOL     OW 9727   6.987   3.978   3.883  0.1922  0.5392  0.3794
 2943SOL    HW1 9728   7.035   4.058   3.846  1.2950 -0.1720  0.2016
 2943SOL    HW2 9729   6.908   3.958   3.826  0.3825  1.0120 -0.0662
 2944SOL     OW 9730   5.659   4.200   4.546 -0.1113  0.7920 -1.3137
 2944SOL    HW1 9731   5.617   4.169   4.631 -0.7484  1.6374 -1.3101
 2944SOL    HW2 9732   5.699   4.122   4.498 -1.9378 -0.0920 -1.4681
 2945SOL     OW 9733   6.795   2.963   6.877  0.1688  0.3032  1.0707
 2945SOL    HW1 9734   6.823   3.024   6.803  0.0414  0.3321  1.0461
 2945SOL    HW2 9735   6.862   2.890   6.887 -1.0811 -1.1986 -0.7908
 2946SOL     OW 9736   3.452   2.908   3.356 -0.1045  1.0860 -0.3289
 2946SOL    HW1 9737   3.454   2.990   3.413 -0.7621  0.9274 -0.0709
 2946SOL    HW2 9738   3.459   2.827   3.413 -0.6544  0.9302 -0.4753
 2947SOL     OW 9739   6.628   5.998   0.842 -0.2185  0.3384 -0.0480
 2947SOL    HW1 9740   6.697   6.070   0.827  0.2583 -0.1678 -0.3207
 2947SOL    HW2 9741   6.649   5.950   0.927  0.9448 -1.1075 -1.0934
 2948SOL     OW 9742   6.245   5.710   1.689 -0.0256  0.2000  0.2849
 2948SOL    HW1 9743   6.245   5.711   1.589  0.7781 -1.0611  0.2530
 2948SOL    HW2 9744   6.165   5.661   1.723  1.9779 -3.6055  0.0894
 2949SOL     OW 9745   3.649   4.762   0.792  0.3110 -0.2617  0.4679
 2949SOL    HW1 9746   3.644   4.803   0.701 -0.7105 -1.1642  0.0869
 2949SOL    HW2 9747   3.587   4.684   0.796  0.9976 -0.7704  1.6747
 2950SOL     OW 9748   4.352   4.627   4.341 -0.3424 -0.0315 -0.1111
 2950SOL    HW1 9749   4.316   4.696   4.278 -0.6544 -0.0911  0.0052
 2950SOL    HW2 9750   4.294   4.621   4.422 -0.7836 -1.0032 -0.4819
 2951SOL     OW 9751   1.052   3.580   0.460 -0.1274  0.3122  0.0169
 2951SOL    HW1 9752   0.967   3.528   0.456 -2.0953  3.1758  1.3628
 2951SOL    HW2 9753   1.082   3.587   0.555  1.6693 -0.6457 -0.4380
 2952SOL     OW 9754   0.033   0.513   3.309 -0.0449  0.3196 -0.4173
 2952SOL    HW1 9755   0.004   0.439   3.370  0.3505 -1.1753 -1.9572
 2952SOL    HW2 9756   0.092   0.576   3.360 -0.5794 -0.2692  1.0042
 2953SOL     OW 9757   0.865   5.734   2.518 -0.3503  0.0425 -0.3460
 2953SOL    HW1 9758   0.805   5.811   2.536  0.5127  0.6579 -0.0242
 2953SOL    HW2 9759   0.853   5.703   2.423  0.0916  1.2954 -0.8290
 2954SOL     OW 9760   0.529   5.297   5.671  0.2923  0.2398  0.0911
 2954SOL    HW1 9761   0.579   5.235   5.610  1.1199 -0.9395  1.8628
 2954SOL    HW2 9762   0.528   5.389   5.632 -0.6335 -0.7581 -2.4379
 2955SOL     OW 9763   1.814   3.682   5.825 -0.3925 -0.8802  0.5229
 2955SOL    HW1 9764   1.878   3.651   5.754 -0.1358  0.1254  0.2975
 2955SOL    HW2 9765   1.827   3.627   5.907  0.7652 -0.7001  0.4800
 2956SOL     OW 9766   5.643   3.560   3.595  0.5156 -0.2010  0.1006
 2956SOL    HW1 9767   5.608   3.626   3.661  1.0973 -0.3091  0.5293
 2956SOL    HW2 9768   5.737   3.535   3.621  0.8883  0.0407 -0.9759
 2957SOL     OW 9769   2.190   5.298   0.661  0.1433 -0.0364  0.1953
 2957SOL    HW1 9770   2.226   5.239   0.588 -2.1711  0.8327 -1.8065
 2957SOL    HW2 9771   2.140   5.242   0.727 -0.9448 -0.5331 -0.9880
 2958SOL     OW 9772   0.506   5.185   2.036 -0.7317  0.2559 -0.8193
 2958SOL    HW1 9773   0.583   5.200   1.974 -1.8267  1.6771 -1.9344
 2958SOL    HW2 9774   0.476   5.273   2.074 -0.2422 -0.5592  1.6144
 2959SOL     OW 9775   0.282   3.443   4.749 -0.3883 -0.4491 -0.5967
 2959SOL    HW1 9776   0.238   3.360   4.715  0.0071 -0.5901 -0.7667
 2959SOL    HW2 9777   0.241   3.523   4.705  0.3153 -0.6423 -1.6400
 2960SOL     OW 9778   5.378   6.469   6.171 -0.2300 -0.2506 -0.1906
 2960SOL    HW1 9779   5.365   6.390   6.110 -3.5785 -0.0123  0.0025
 2960SOL    HW2 9780   5.415   6.438   6.258 -2.0137 -1.8126  0.0886
 2961SOL     OW 9781   5.425   1.347   6.950  0.3728 -0.1402  0.0585
 2961SOL    HW1 9782   5.433   1.443   6.923 -0.7186  1.1193  3.5929
 2961SOL    HW2 9783   5.493   1.292   6.901  3.6766  3.1060  0.5703
 2962SOL     OW 9784   0.110   6.277   4.209 -0.4103 -0.4316  0.3731
 2962SOL    HW1 9785   0.019   6.314   4.188 -0.6250 -1.2207 -0.1198
 2962SOL    HW2 9786   0.137   6.212   4.137  0.9836  0.5479 -0.0354
 2963SOL     OW 9787   1.968   6.808   5.010 -0.3285 -0.4450  0.3530
 2963SOL    HW1 9788   1.923   6.893   5.037  0.2307  0.4373 -1.3446
 2963SOL    HW2 9789   1.900   6.736   5.000 -1.2906  0.6264 -1.2396
 2964SOL     OW 9790   1.865   6.124   4.571  0.1379  0.3458  0.1265
 2964SOL    HW1 9791   1.834   6.218   4.588  0.6928  0.7816 -1.2044
 2964SOL    HW2 9792   1.963   6.124   4.552  0.0245 -0.4313 -0.4940
 2965SOL     OW 9793   5.025   1.964   1.499 -0.0701  0.2876 -0.4555
 2965SOL    HW1 9794   5.122   1.944   1.515  0.0125  0.1138 -1.1434
 2965SOL    HW2 9795   4.970   1.896   1.546  0.0694  1.5002  1.5756
 2966SOL     OW 9796   3.997   1.273   3.423  0.7773  0.4009  0.2652
 2966SOL    HW1 9797   3.929   1.342   3.447  0.0055 -0.5823  1.0159
 2966SOL    HW2 9798   4.054   1.252   3.502  1.1714  0.3622 -0.0270
 2967SOL     OW 9799   3.566   5.592   0.576  0.0093 -0.4043 -0.2805
 2967SOL    HW1 9800   3.641   5.654   0.553 -1.6352  1.5714 -0.6437
 2967SOL    HW2 9801   3.589   5.499   0.546  0.9755  0.7277 -3.4353
 2968SOL     OW 9802   1.478   1.531   2.107  0.5284  0.5243  0.7751
 2968SOL    HW1 9803   1.400   1.579   2.148 -0.1699 -0.2241  0.3504
 2968SOL    HW2 9804   1.524   1.477   2.178 -0.3454 -0.3385  0.6965
 2969SOL     OW 9805   4.462   1.871   5.684  0.2732 -0.1627  0.0232
 2969SOL    HW1 9806   4.501   1.933   5.751  2.4629  0.2265 -1.4727
 2969SOL    HW2 9807   4.377   1.833   5.718  0.8196  0.7275  2.5792
 2970SOL     OW 9808   3.177   2.474   6.048  0.2320 -0.0869  0.2213
 2970SOL    HW1 9809   3.109   2.530   6.096  0.8339  0.1166  0.8435
 2970SOL    HW2 9810   3.227   2.531   5.983  0.2146 -0.1044  0.1925
 2971SOL     OW 9811   4.497   5.381   6.217  0.1657  0.1845  0.1243
 2971SOL    HW1 9812   4.585   5.334   6.212  0.9288  1.4221  1.0844
 2971SOL    HW2 9813   4.511   5.480   6.205 -0.7112  0.7083  2.6749
 2972SOL     OW 9814   1.828   0.781   1.075  0.0946 -0.2739  0.0201
 2972SOL    HW1 9815   1.828   0.862   1.132  1.3186  0.5406 -1.0581
 2972SOL    HW2 9816   1.738   0.738   1.077 -1.0798  1.9862 -0.5812
 2973SOL     OW 9817   4.945   6.297   6.550 -0.6783  0.2931 -0.4603
 2973SOL    HW1 9818   4.847   6.294   6.567 -0.5561 -1.6981  0.1242
 2973SOL    HW2 9819   4.987   6.366   6.610 -1.3454 -0.9621  1.5459
 2974SOL     OW 9820   3.110   5.504   3.258 -0.2409 -0.4391  0.6411
 2974SOL    HW1 9821   3.209   5.503   3.245 -0.2059  1.3651  0.5914
 2974SOL    HW2 9822   3.080   5.596   3.285 -2.0736 -0.6206 -0.6055
 2975SOL     OW 9823   6.251   3.672   5.626  0.0989  0.2784  0.3142
 2975SOL    HW1 9824   6.338   3.686   5.580  1.7258  0.8614  3.3394
 2975SOL    HW2 9825   6.266   3.659   5.724 -3.2671  1.0476  1.0760
 2976SOL     OW 9826   2.595   6.739   1.095 -0.8833  0.3109  0.3065
 2976SOL    HW1 9827   2.661   6.725   1.022 -1.4136 -1.1150  0.0579
 2976SOL    HW2 9828   2.595   6.660   1.156 -2.2328  0.3387  0.3868
 2977SOL     OW 9829   2.281   1.088   1.044 -0.5345  0.0904 -0.1877
 2977SOL    HW1 9830   2.195   1.055   1.006 -0.2901  1.7337 -2.3743
 2977SOL    HW2 9831   2.357   1.044   0.995 -0.1752  0.5448 -0.0345
 2978SOL     OW 9832   3.975   5.720   0.517 -0.5798  0.1092  0.5339
 2978SOL    HW1 9833   3.885   5.745   0.552 -1.1455 -0.3447 -0.5757
 2978SOL    HW2 9834   4.015   5.648   0.575 -0.1656  1.4882  2.0471
 2979SOL     OW 9835   1.704   6.517   6.518  0.3236 -0.4442  0.2694
 2979SOL    HW1 9836   1.685   6.609   6.485  0.8004  0.1838  1.6594
 2979SOL    HW2 9837   1.626   6.457   6.497  0.2761  0.0989 -1.1965
 2980SOL     OW 9838   3.329   4.106   3.340  0.2241  0.4046 -0.1217
 2980SOL    HW1 9839   3.320   4.095   3.241  1.2093  1.8975 -0.4203
 2980SOL    HW2 9840   3.251   4.065   3.386  0.2883 -1.2771 -1.4396
 2981SOL     OW 9841   1.832   2.802   7.001 -0.1487 -0.1323 -0.0996
 2981SOL    HW1 9842   1.793   2.845   7.083 -2.3550  1.0187 -1.6409
 2981SOL    HW2 9843   1.792   2.712   6.989 -0.8390  0.2262 -0.5778
 2982SOL     OW 9844   1.248   1.851   4.880 -0.1736 -0.6227  0.4139
 2982SOL    HW1 9845   1.197   1.891   4.804 -0.1565 -2.0734 -0.3811
 2982SOL    HW2 9846   1.335   1.900   4.891 -0.1994 -0.3661 -0.4677
 2983SOL     OW 9847   1.730   2.279   5.700 -0.3829 -0.0198  0.5181
 2983SOL    HW1 9848   1.652   2.227   5.735 -0.3905  0.1029  0.6892
 2983SOL    HW2 9849   1.802   2.282   5.770  0.7819 -2.1864 -0.5237
 2984SOL     OW 9850   2.811   5.757   2.282 -0.4044 -0.0662  0.0403
 2984SOL    HW1 9851   2.781   5.748   2.376  2.9380 -0.4811  1.1914
 2984SOL    HW2 9852   2.858   5.845   2.270 -0.1143 -0.3534 -1.0532
 2985SOL     OW 9853   0.394   6.169   6.370  0.5009  0.4246  0.1964
 2985SOL    HW1 9854   0.321   6.233   6.395  0.2264  0.4891 -0.7185
 2985SOL    HW2 9855   0.370   6.124   6.284  1.9517  1.1528 -0.6373
 2986SOL     OW 9856   3.340   3.086   2.149 -0.3870 -0.1841 -0.5132
 2986SOL    HW1 9857   3.266   3.111   2.086 -1.1814 -0.6327  0.2288
 2986SOL    HW2 9858   3.413   3.155   2.144 -1.3824  0.9003 -0.3938
 2987SOL     OW 9859   1.049   6.138   6.643 -0.1102 -0.4479 -0.3057
 2987SOL    HW1 9860   1.132   6.085   6.627  0.2226 -0.1697  0.4353
 2987SOL    HW2 9861   0.983   6.082   6.695 -0.5558 -0.8078 -1.2436
 2988SOL     OW 9862   0.199   2.054   1.609 -0.0307 -0.6403  0.3655
 2988SOL    HW1 9863   0.269   2.031   1.677  0.2307 -0.1488  0.2657
 2988SOL    HW2 9864   0.243   2.091   1.528 -0.1525 -3.1063 -0.9193
 2989SOL     OW 9865   5.514   3.360   5.422 -0.3883 -0.0290 -0.5030
 2989SOL    HW1 9866   5.523   3.459   5.410 -0.8282  0.0939  0.0974
 2989SOL    HW2 9867   5.470   3.320   5.341  1.4497 -0.0200 -1.5546
 2990SOL     OW 9868   5.169   1.658   3.784 -0.0957  0.7049  0.2491
 2990SOL    HW1 9869   5.190   1.566   3.752  1.2237  1.1818 -0.2973
 2990SOL    HW2 9870   5.097   1.698   3.727 -0.1352  0.3025  0.0144
 2991SOL     OW 9871   0.401   2.060   1.795  0.5975  0.0455 -0.3593
 2991SOL    HW1 9872   0.439   1.983   1.846 -1.4596 -0.8219 -0.0194
 2991SOL    HW2 9873   0.404   2.142   1.852  0.3577 -0.4117  0.3342
 2992SOL     OW 9874   2.748   4.734   5.371  0.4723  0.2107  0.2805
 2992SOL    HW1 9875   2.787   4.652   5.330 -0.8019  0.5249 -1.6824
 2992SOL    HW2 9876   2.649   4.725   5.376  0.1727  2.0780 -1.1504
 2993SOL     OW 9877   4.812   6.155   6.052  0.1064 -0.1339 -0.0881
 2993SOL    HW1 9878   4.860   6.153   5.964  1.3693  0.0077  0.5804
 2993SOL    HW2 9879   4.876   6.176   6.125 -1.0480  0.4642  0.8029
 2994SOL     OW 9880   3.303   5.751   5.094 -0.5144  0.2458 -0.2326
 2994SOL    HW1 9881   3.235   5.718   5.160 -0.7540 -1.2596 -1.1841
 2994SOL    HW2 9882   3.260   5.816   5.032 -0.8946 -0.0656 -0.3060
 2995SOL     OW 9883   4.620   6.825   1.435 -0.3405 -0.3580 -0.0595
 2995SOL    HW1 9884   4.700   6.881   1.459 -0.3663  1.2022 -3.1232
 2995SOL    HW2 9885   4.542   6.852   1.491  0.7447 -0.5478  1.6248
 2996SOL     OW 9886   6.543   0.619   4.447 -0.2602  0.6617 -0.1258
 2996SOL    HW1 9887   6.624   0.567   4.473 -1.2494  0.1999  2.3064
 2996SOL    HW2 9888   6.472   0.556   4.414 -0.4001  0.8101 -0.1094
 2997SOL     OW 9889   4.050   0.468   2.439 -0.6244  0.1670  0.1741
 2997SOL    HW1 9890   3.975   0.465   2.372  0.2029  1.8011 -0.8921
 2997SOL    HW2 9891   4.108   0.547   2.420  2.4839 -2.0331 -0.2253
 2998SOL     OW 9892   2.138   0.740   2.007 -0.6425 -0.0855 -0.3956
 2998SOL    HW1 9893   2.053   0.790   1.990 -0.6398 -0.3977 -1.4171
 2998SOL    HW2 9894   2.117   0.653   2.051 -1.0688 -0.9410 -2.1607
 2999SOL     OW 9895   3.658   4.954   0.980  0.3801 -0.3722 -0.7267
 2999SOL    HW1 9896   3.698   4.895   0.909 -0.3851 -0.0620 -1.4305
 2999SOL    HW2 9897   3.568   4.986   0.950  0.8314  1.2798 -0.4463
 3000SOL     OW 9898   2.175   3.577   5.271  0.0785  0.0674  0.2177
 3000SOL    HW1 9899   2.224   3.591   5.356  2.5853 -2.1601 -0.7015
 3000SOL    HW2 9900   2.148   3.666   5.233  1.3805  1.2761  1.9355
 3001SOL     OW 9901   3.797   6.645   6.742 -0.4514 -0.2386 -0.3858
 3001SOL    HW1 9902   3.823   6.572   6.678  0.1460 -0.1774 -0.2155
 3001SOL    HW2 9903   3.863   6.720   6.736 -0.8287  0.1064 -0.2514
 3002SOL     OW 9904   1.420   2.179   1.210 -0.7088 -0.8504  0.0870
 3002SOL    HW1 9905   1.480   2.211   1.136 -0.0455 -3.2494 -0.5126
 3002SOL    HW2 9906   1.452   2.215   1.297  0.2920 -0.3600 -0.4638
 3003SOL     OW 9907   5.357   0.239   6.620  0.0805 -0.1008 -0.2683
 3003SOL    HW1 9908   5.389   0.166   6.561  0.1258 -0.2306 -0.0853
 3003SOL    HW2 9909   5.435   0.280   6.669  0.0601  0.0931 -0.3964
 3004SOL     OW 9910   3.169   1.347   5.431 -0.2161  0.2838  0.7635
 3004SOL    HW1 9911   3.074   1.314   5.436 -0.3420  0.5120 -0.0149
 3004SOL    HW2 9912   3.231   1.276   5.463 -0.3549 -1.3302 -2.2408
 3005SOL     OW 9913   2.380   0.301   0.263 -0.2131  0.2256  0.1859
 3005SOL    HW1 9914   2.353   0.210   0.232  1.4753 -0.3314  0.2888
 3005SOL    HW2 9915   2.393   0.361   0.184 -0.0774  0.0230  0.0546
 3006SOL     OW 9916   4.584   1.393   5.166  0.5451 -0.6307  0.5323
 3006SOL    HW1 9917   4.579   1.297   5.138  3.8381 -1.3629  1.9696
 3006SOL    HW2 9918   4.636   1.401   5.251 -0.4844  2.3913  1.0209
 3007SOL     OW 9919   6.439   5.935   0.177 -0.1285  0.0549 -0.6457
 3007SOL    HW1 9920   6.474   6.014   0.127 -2.0854  0.2892 -1.7184
 3007SOL    HW2 9921   6.415   5.963   0.270 -0.8929  0.7599 -1.0434
 3008SOL     OW 9922   5.509   3.807   5.831  0.2580  0.3377  0.5607
 3008SOL    HW1 9923   5.565   3.730   5.802  0.2008  0.5263 -0.0727
 3008SOL    HW2 9924   5.412   3.786   5.815 -0.0005 -0.5553  2.9621
 3009SOL     OW 9925   6.370   5.251   0.679  0.4018  0.1797  0.2164
 3009SOL    HW1 9926   6.305   5.228   0.751 -0.1574 -0.5479 -0.4894
 3009SOL    HW2 9927   6.381   5.350   0.674 -0.4301  0.2994  0.5514
 3010SOL     OW 9928   4.224   5.488   1.724  0.1726  0.1892  0.1831
 3010SOL    HW1 9929   4.260   5.395   1.712  0.8858  0.6890 -2.0353
 3010SOL    HW2 9930   4.163   5.490   1.803 -1.5135 -2.6553 -0.8959
 3011SOL     OW 9931   5.013   0.850   1.641  0.2580 -0.4556 -0.2958
 3011SOL    HW1 9932   5.077   0.779   1.672 -0.3099 -0.9017 -0.1126
 3011SOL    HW2 9933   4.954   0.877   1.717  1.9379  1.8871  0.2735
 3012SOL     OW 9934   2.318   2.569   3.768 -0.1226 -0.1848 -0.0513
 3012SOL    HW1 9935   2.254   2.494   3.751 -1.1445  0.7812 -0.6775
 3012SOL    HW2 9936   2.267   2.655   3.774  0.9308  0.3809  1.4322
 3013SOL     OW 9937   0.973   4.223   6.535 -0.2041 -0.4094 -0.2765
 3013SOL    HW1 9938   0.896   4.161   6.515 -0.7708  0.1289  0.1923
 3013SOL    HW2 9939   0.946   4.286   6.607  0.8019 -0.4227  0.1239
 3014SOL     OW 9940   3.273   0.878   0.072  0.6197  0.3733  0.0616
 3014SOL    HW1 9941   3.292   0.823   0.153  2.1211  0.3086 -0.3028
 3014SOL    HW2 9942   3.346   0.866   0.006 -0.4566  0.6248 -1.2130
 3015SOL     OW 9943   3.816   1.377   6.170 -0.8899  0.0833 -0.1253
 3015SOL    HW1 9944   3.853   1.365   6.262 -0.6593  0.2501 -0.1948
 3015SOL    HW2 9945   3.892   1.391   6.106 -0.9913 -0.8449 -0.4700
 3016SOL     OW 9946   4.158   0.485   4.345  0.1394 -0.1630 -0.0207
 3016SOL    HW1 9947   4.110   0.400   4.368 -0.1661 -0.0577 -0.2549
 3016SOL    HW2 9948   4.186   0.481   4.249  1.1286 -0.4725  0.2684
 3017SOL     OW 9949   1.724   5.609   6.519  0.4475 -0.3202 -0.0570
 3017SOL    HW1 9950   1.673   5.625   6.435 -1.5523 -0.7757  0.9860
 3017SOL    HW2 9951   1.676   5.540   6.574  2.7765 -1.5533  0.5724
 3018SOL     OW 9952   1.453   3.129   2.263  0.2893 -0.3976 -0.1625
 3018SOL    HW1 9953   1.427   3.224   2.279  0.2402 -0.3830 -0.3270
 3018SOL    HW2 9954   1.398   3.092   2.189 -0.5001 -0.9053  0.6537
 3019SOL     OW 9955   4.368   0.135   5.483 -0.5050 -0.5106  0.0507
 3019SOL    HW1 9956   4.394   0.039   5.488  0.8479 -0.1798 -0.2598
 3019SOL    HW2 9957   4.450   0.192   5.480 -1.2819  0.7061  0.9541
 3020SOL     OW 9958   5.392   3.253   6.433 -0.2621  0.1092 -0.1579
 3020SOL    HW1 9959   5.341   3.273   6.350 -0.1737 -3.0109 -1.0913
 3020SOL    HW2 9960   5.343   3.185   6.487  0.2751  1.1759  1.7784
 3021SOL     OW 9961   1.964   6.448   2.252  0.6260  0.1442 -0.1736
 3021SOL    HW1 9962   1.933   6.499   2.332  3.5334  1.2233  0.4089
 3021SOL    HW2 9963   1.978   6.511   2.175  0.3607 -0.4462 -0.7150
 3022SOL     OW 9964   5.462   5.842   3.480  0.0258  0.1289  0.0038
 3022SOL    HW1 9965   5.428   5.752   3.503  1.0930 -0.6274 -1.1941
 3022SOL    HW2 9966   5.413   5.877   3.400  0.4467  0.0505 -0.2956
 3023SOL     OW 9967   5.443   4.071   5.283 -0.0606  0.1425  0.3897
 3023SOL    HW1 9968   5.508   4.069   5.207  0.3357 -0.1950  0.7312
 3023SOL    HW2 9969   5.493   4.072   5.370 -0.5019  0.8539  0.6511
 3024SOL     OW 9970   6.416   1.120   0.431 -0.5973 -0.1946  0.1821
 3024SOL    HW1 9971   6.320   1.134   0.453 -0.5729  1.5719 -0.6977
 3024SOL    HW2 9972   6.467   1.102   0.516 -1.4470  0.4062  0.8406
 3025SOL     OW 9973   3.191   5.950   1.061 -0.6018  0.8566  0.1055
 3025SOL    HW1 9974   3.203   5.926   1.158  1.2649 -0.8429 -0.4950
 3025SOL    HW2 9975   3.132   5.882   1.018  0.0632  0.5761 -0.3594
 3026SOL     OW 9976   6.537   5.833   3.640 -0.1224  0.4033 -0.0700
 3026SOL    HW1 9977   6.603   5.844   3.565  0.4528 -0.7900  0.2386
 3026SOL    HW2 9978   6.526   5.920   3.687  1.4386  0.5775  0.0345
 3027SOL     OW 9979   2.840   0.148   1.818 -0.4803 -1.0049 -0.2794
 3027SOL    HW1 9980   2.902   0.124   1.893 -0.0309 -0.2284 -0.3900
 3027SOL    HW2 9981   2.747   0.119   1.841 -0.7204  0.9200  1.4463
 3028SOL     OW 9982   4.038   3.765   4.041 -0.2897 -0.8011 -0.0875
 3028SOL    HW1 9983   4.103   3.719   3.980 -0.2734  0.8190 -1.3489
 3028SOL    HW2 9984   4.066   3.750   4.136  1.0262 -1.4439 -0.5508
 3029SOL     OW 9985   6.543   1.647   5.526 -0.2699 -0.4228 -0.1886
 3029SOL    HW1 9986   6.626   1.599   5.498  0.3320 -0.5525  1.6807
 3029SOL    HW2 9987   6.469   1.581   5.541 -0.9881 -0.2455 -2.5713
 3030SOL     OW 9988   0.866   3.525   5.823 -0.1026  0.0321 -0.0832
 3030SOL    HW1 9989   0.962   3.529   5.852 -0.0903 -1.1735  0.0994
 3030SOL    HW2 9990   0.812   3.591   5.875  0.6732  0.9525 -0.4184
 3031SOL     OW 9991   1.861   2.885   6.616 -0.4473  0.1932  0.4111
 3031SOL    HW1 9992   1.842   2.852   6.524 -3.4859 -0.0424  1.0203
 3031SOL    HW2 9993   1.894   2.809   6.673  2.2107  0.5000 -0.5545
 3032SOL     OW 9994   4.205   0.699   3.648 -0.1876 -0.1924  0.7189
 3032SOL    HW1 9995   4.270   0.710   3.723 -0.8351 -0.6720  1.3640
 3032SOL    HW2 9996   4.146   0.780   3.642  1.5959  1.0800 -1.0310
 3033SOL     OW 9997   1.862   0.737   5.525 -0.6169 -0.2377 -0.0812
 3033SOL    HW1 9998   1.909   0.797   5.590  1.4976  1.0086 -2.5501
 3033SOL    HW2 9999   1.771   0.773   5.507 -0.7144  0.1841  1.1298
 3034SOL     OW10000   5.069   3.742   3.253  0.2110 -0.3176 -0.2834
 3034SOL    HW110001   5.069   3.839   3.225 -0.3710 -0.1140  0.3984
 3034SOL    HW210002   5.161   3.704   3.240  0.2209  0.0620 -1.4495
 3035SOL     OW10003   6.005   2.763   5.788  0.2997  0.7410  0.2517
 3035SOL    HW110004   6.089   2.799   5.830 -0.1936  0.5294  1.4842
 3035SOL    HW210005   5.963   2.697   5.851 -0.4258  0.3150 -0.6548
 3036SOL     OW10006   3.759   2.882   6.036  0.0730  0.1606 -0.6204
 3036SOL    HW110007   3.701   2.802   6.023 -0.5320  0.7594 -1.6659
 3036SOL    HW210008   3.705   2.957   6.074  0.7289 -0.0280  0.7501
 3037SOL     OW10009   0.294   4.235   0.191  0.1116 -0.6060 -0.5094
 3037SOL    HW110010   0.340   4.197   0.111  0.1896 -0.4721 -0.5280
 3037SOL    HW210011   0.326   4.328   0.207 -1.6220  0.2497 -1.7235
 3038SOL     OW10012   6.197   0.058   5.255  0.0702  0.0210 -0.5449
 3038SOL    HW110013   6.283   0.017   5.285 -0.0845  0.3348  0.3476
 3038SOL    HW210014   6.197   0.156   5.278 -1.2712 -0.3353  1.1900
 3039SOL     OW10015   6.744   4.768   1.002 -0.1561 -0.1989 -0.3069
 3039SOL    HW110016   6.820   4.782   0.939 -0.7023  1.6765 -0.5937
 3039SOL    HW210017   6.739   4.844   1.066 -1.7115 -0.3704 -0.1943
 3040SOL     OW10018   3.097   6.943   5.547  0.0188  0.1344 -0.4919
 3040SOL    HW110019   3.158   6.902   5.479  1.8215  1.1062  0.4712
 3040SOL    HW210020   3.075   7.037   5.520 -2.1787 -0.6350 -1.5039
 3041SOL     OW10021   2.127   4.442   0.038 -0.0834 -0.3711 -0.2440
 3041SOL    HW110022   2.103   4.476   0.129 -0.8399 -0.6286 -0.3377
 3041SOL    HW210023   2.221   4.410   0.038 -0.4501 -1.4931  0.7845
 3042SOL     OW10024   6.617   0.092   2.907 -0.1197  0.2695  0.1735
 3042SOL    HW110025   6.537   0.108   2.848  0.4440  2.8020  0.0005
 3042SOL    HW210026   6.633  -0.006   2.915 -2.4086 -0.2574 -0.9122
 3043SOL     OW10027   2.144   3.671   2.344  0.0171  0.3469 -0.1301
 3043SOL    HW110028   2.080   3.660   2.268  0.4808 -0.4023 -0.4221
 3043SOL    HW210029   2.219   3.732   2.316 -0.2058  0.6732 -0.0188
 3044SOL     OW10030   3.606   2.952   3.059 -0.0021 -0.0856  0.3228
 3044SOL    HW110031   3.673   2.971   3.131 -0.0256  0.3779  0.2282
 3044SOL    HW210032   3.516   2.984   3.087  0.2348  1.3531 -0.4392
 3045SOL     OW10033   0.480   1.089   2.894 -0.2681  0.3064 -0.1344
 3045SOL    HW110034   0.444   1.154   2.826  1.4652 -0.0906 -1.5019
 3045SOL    HW210035   0.422   1.008   2.895 -0.0989  0.1421 -1.4886
 3046SOL     OW10036   4.861   3.963   1.754 -0.6959 -0.4034 -0.3723
 3046SOL    HW110037   4.764   3.939   1.748 -0.9900  0.8281 -0.8006
 3046SOL    HW210038   4.916   3.880   1.742 -1.6748 -0.9637 -1.1796
 3047SOL     OW10039   3.104   1.173   3.989 -0.0208 -0.0223 -0.1465
 3047SOL    HW110040   3.042   1.098   3.964  0.6289  0.1681 -2.6012
 3047SOL    HW210041   3.177   1.137   4.046 -1.0389 -0.7344  0.7661
 3048SOL     OW10042   2.341   3.284   1.327  0.2297 -0.1653 -0.2930
 3048SOL    HW110043   2.298   3.341   1.396 -2.8344 -2.5108 -0.0801
 3048SOL    HW210044   2.429   3.249   1.362  0.2775  1.2239  1.0713
 3049SOL     OW10045   5.670   0.956   1.591 -0.2005 -0.5974 -0.2783
 3049SOL    HW110046   5.680   0.903   1.676  0.3302 -0.2826 -0.1438
 3049SOL    HW210047   5.573   0.973   1.575 -0.2850 -0.2913  0.4946
 3050SOL     OW10048   2.768   2.034   5.654  0.0249  0.2731 -0.0823
 3050SOL    HW110049   2.820   2.076   5.579  2.7016 -2.5039  0.0295
 3050SOL    HW210050   2.698   1.975   5.616 -1.5873  2.1938 -0.2533
 3051SOL     OW10051   1.713   6.088   6.624 -0.5130  0.6183 -0.0462
 3051SOL    HW110052   1.719   6.053   6.530 -0.8152 -0.5324  0.3438
 3051SOL    HW210053   1.767   6.172   6.632  3.3700 -1.5974 -0.2191
 3052SOL     OW10054   5.676   6.903   2.855  0.3947  0.1151  0.5023
 3052SOL    HW110055   5.646   6.829   2.915  0.8871  1.2862  2.2762
 3052SOL    HW210056   5.696   6.866   2.764 -1.3967 -1.5405  0.7210
 3053SOL     OW10057   6.521   5.382   5.996  0.4029 -0.2708 -0.1894
 3053SOL    HW110058   6.570   5.342   5.919  2.2040 -0.9252  1.2158
 3053SOL    HW210059   6.486   5.309   6.055 -0.4711  0.2238 -0.0729
 3054SOL     OW10060   5.650   5.499   2.083 -0.2232  0.6257 -0.1249
 3054SOL    HW110061   5.550   5.504   2.073 -0.1040  1.2040 -1.1906
 3054SOL    HW210062   5.675   5.415   2.130 -1.2510  0.7663  0.7181
 3055SOL     OW10063   0.035   4.245   0.058 -0.1800  0.5895  0.0622
 3055SOL    HW110064   0.049   4.170  -0.006  0.4374  0.6414  0.1278
 3055SOL    HW210065   0.109   4.246   0.125 -0.6848  0.6864  0.6324
 3056SOL     OW10066   4.754   2.381   6.897 -0.1670 -1.1108  0.5209
 3056SOL    HW110067   4.729   2.315   6.968 -1.5212 -2.8497 -1.4478
 3056SOL    HW210068   4.844   2.358   6.860 -0.1541 -1.1771  0.5930
 3057SOL     OW10069   6.007   3.499   1.838 -0.9006 -0.3973 -0.2362
 3057SOL    HW110070   5.963   3.516   1.926 -1.4890 -1.2460 -0.3553
 3057SOL    HW210071   5.937   3.486   1.768 -0.4371  0.0143 -0.7866
 3058SOL     OW10072   4.922   5.107   6.303  0.4626  0.3441  0.3217
 3058SOL    HW110073   4.842   5.059   6.268  0.7552  1.2175 -1.7175
 3058SOL    HW210074   4.989   5.041   6.336 -0.1157 -0.5084 -0.1749
 3059SOL     OW10075   6.740   2.313   2.052  0.3782 -0.1145  0.2273
 3059SOL    HW110076   6.727   2.237   2.115 -1.9579  0.9109  1.1070
 3059SOL    HW210077   6.779   2.391   2.100 -1.2464  0.6120  0.4499
 3060SOL     OW10078   0.315   1.650   2.944 -0.0129 -0.2042  0.2321
 3060SOL    HW110079   0.304   1.742   2.981  0.3241 -0.2077  0.3468
 3060SOL    HW210080   0.302   1.583   3.018  0.0761 -0.2335  0.2217
 3061SOL     OW10081   4.004   6.560   4.813  0.0938  0.1206 -0.3127
 3061SOL    HW110082   3.953   6.564   4.899  0.3366 -1.0215 -0.0934
 3061SOL    HW210083   4.006   6.651   4.771 -2.1576  0.2090 -0.3676
 3062SOL     OW10084   3.997   5.917   6.722 -0.4327 -0.0803  0.8058
 3062SOL    HW110085   4.090   5.935   6.691 -0.6778 -0.8594 -0.4659
 3062SOL    HW210086   3.991   5.826   6.761 -1.3390 -1.5533 -2.4177
 3063SOL     OW10087   0.776   6.858   2.573 -0.2052 -0.0977 -0.3473
 3063SOL    HW110088   0.756   6.808   2.657 -2.9692 -1.7524 -1.8395
 3063SOL    HW210089   0.703   6.924   2.555  1.8559  2.4372 -0.0100
 3064SOL     OW10090   4.023   0.780   5.877 -0.3734  0.0929  0.1935
 3064SOL    HW110091   3.923   0.782   5.879 -0.5033 -2.2922 -0.8836
 3064SOL    HW210092   4.054   0.707   5.817  2.0551  1.0955  0.1077
 3065SOL     OW10093   3.544   4.131   5.101  0.5301  0.2988 -0.2526
 3065SOL    HW110094   3.637   4.110   5.133  0.6676  1.1187 -0.1054
 3065SOL    HW210095   3.537   4.110   5.003  0.8399  0.1421 -0.2428
 3066SOL     OW10096   5.293   6.619   6.584 -0.2759  0.1391 -0.3792
 3066SOL    HW110097   5.322   6.692   6.523  0.3825  0.1275 -0.0831
 3066SOL    HW210098   5.307   6.647   6.679  0.4000 -0.5284 -0.2703
 3067SOL     OW10099   2.701   1.704   4.471  0.3113  0.3256  0.1092
 3067SOL    HW110100   2.757   1.769   4.524  0.7225  0.2534 -0.2334
 3067SOL    HW210101   2.733   1.611   4.489 -0.9646  0.1088  1.4395
 3068SOL     OW10102   6.499   6.825   0.574  0.4102 -0.0349  0.1369
 3068SOL    HW110103   6.416   6.814   0.630 -0.2269 -0.7171 -0.9060
 3068SOL    HW210104   6.557   6.896   0.614 -2.0875  2.7088 -0.7341
 3069SOL     OW10105   5.134   4.505   3.466  0.1594 -0.1494  0.7265
 3069SOL    HW110106   5.150   4.506   3.565  0.8749 -3.2553  0.7545
 3069SOL    HW210107   5.036   4.494   3.448 -0.3516  3.1639  0.9315
 3070SOL     OW10108   2.949   1.767   0.110  0.1092  0.2492 -0.3734
 3070SOL    HW110109   2.936   1.672   0.083  0.6330  0.1141 -0.1509
 3070SOL    HW210110   2.948   1.825   0.028  0.6035 -0.0362 -0.5807
 3071SOL     OW10111   5.685   3.822   6.226 -0.1135 -0.1061  0.6825
 3071SOL    HW110112   5.610   3.757   6.214  1.7593 -1.9507 -2.3264
 3071SOL    HW210113   5.648   3.914   6.234 -2.7171 -0.8895 -1.0196
 3072SOL     OW10114   0.551   6.683   3.942 -0.0900 -0.3539 -0.3060
 3072SOL    HW110115   0.637   6.707   3.897 -0.3623  0.2473 -0.5101
 3072SOL    HW210116   0.546   6.583   3.951  0.2803 -0.4468 -0.9959
 3073SOL     OW10117   0.662   4.173   4.064 -0.1317  0.1114  0.6547
 3073SOL    HW110118   0.635   4.077   4.054 -0.7779  0.4172 -0.7727
 3073SOL    HW210119   0.747   4.178   4.116  0.2685 -1.2998  0.1959
 3074SOL     OW10120   2.483   3.947   0.972 -0.5149 -0.0614 -0.4815
 3074SOL    HW110121   2.445   4.039   0.970  0.0650  0.1916 -0.0602
 3074SOL    HW210122   2.454   3.900   1.055  0.5248  0.3339  0.1302
 3075SOL     OW10123   5.097   2.990   1.656 -0.0233 -0.6863 -0.2090
 3075SOL    HW110124   5.040   2.909   1.638  1.3554 -2.4287  2.4851
 3075SOL    HW210125   5.056   3.042   1.731  0.6024 -0.5363  0.0306
 3076SOL     OW10126   4.333   0.866   4.586  0.1637  0.3169 -0.4945
 3076SOL    HW110127   4.320   0.767   4.574  0.1386  0.2331  0.1539
 3076SOL    HW210128   4.246   0.913   4.569 -0.4659 -0.0149  1.4870
 3077SOL     OW10129   6.456   6.725   3.788 -0.6294  0.0752 -0.3412
 3077SOL    HW110130   6.407   6.645   3.824 -0.8560  0.5626  0.4365
 3077SOL    HW210131   6.392   6.783   3.737 -1.3451  1.6547  2.1907
 3078SOL     OW10132   0.068   5.245   0.569 -0.7852 -0.1760  0.4828
 3078SOL    HW110133   0.153   5.283   0.605 -0.1980 -1.5125  0.5604
 3078SOL    HW210134   0.047   5.289   0.481 -0.9702  1.4114  1.2908
 3079SOL     OW10135   6.516   5.291   1.095  0.1268 -0.0155 -0.2099
 3079SOL    HW110136   6.550   5.332   1.010 -0.2650  0.5306 -0.1027
 3079SOL    HW210137   6.557   5.201   1.106 -1.6947 -1.2312 -2.3063
 3080SOL     OW10138   2.956   4.998   1.256 -0.6293  0.2675 -0.2854
 3080SOL    HW110139   3.027   4.928   1.268 -0.8292  0.2653  1.0296
 3080SOL    HW210140   2.954   5.028   1.161  1.6203  0.7653 -0.2360
 3081SOL     OW10141   2.561   0.534   6.823 -0.7234  0.0620  0.4245
 3081SOL    HW110142   2.597   0.588   6.900  0.4112  0.1200 -0.1292
 3081SOL    HW210143   2.631   0.470   6.792 -1.2860 -0.1824 -0.3626
 3082SOL     OW10144   6.625   2.288   4.070 -0.7075 -0.1050  0.8331
 3082SOL    HW110145   6.712   2.260   4.029  0.1203  2.7044  0.4818
 3082SOL    HW210146   6.641   2.317   4.165 -1.2939  0.2317  0.8345
 3083SOL     OW10147   4.371   5.788   2.901 -0.0168 -0.0124 -0.2588
 3083SOL    HW110148   4.470   5.779   2.886  0.4829  2.0495  1.3235
 3083SOL    HW210149   4.336   5.705   2.945  1.1765 -0.4208 -0.0359
 3084SOL     OW10150   0.861   6.929   5.571 -0.2794 -0.1430 -0.3481
 3084SOL    HW110151   0.767   6.938   5.605 -0.3524 -1.4624 -0.1314
 3084SOL    HW210152   0.925   6.954   5.644 -0.4425  1.0496 -0.5893
 3085SOL     OW10153   5.280   4.514   0.194  0.2331 -0.4797  0.3241
 3085SOL    HW110154   5.262   4.461   0.110  1.3889 -2.1265  1.0653
 3085SOL    HW210155   5.253   4.460   0.273  1.5099  0.0118  1.1161
 3086SOL     OW10156   6.313   6.312   5.378  0.9748  0.3097 -0.5772
 3086SOL    HW110157   6.231   6.324   5.435 -0.3675 -0.4865 -2.2340
 3086SOL    HW210158   6.379   6.254   5.425  1.2778  2.1617  1.4188
 3087SOL     OW10159   2.022   0.106   0.300  0.0948 -0.7150  0.3380
 3087SOL    HW110160   1.948   0.042   0.321 -2.0826  1.2778 -0.6418
 3087SOL    HW210161   2.018   0.183   0.364  0.1455  0.2807 -0.8154
 3088SOL     OW10162   2.192   2.830   5.010  0.5940  0.4783 -0.2465
 3088SOL    HW110163   2.204   2.761   5.082 -0.7436  1.9524  1.4928
 3088SOL    HW210164   2.256   2.905   5.026 -0.1409  1.1057 -0.2246
 3089SOL     OW10165   5.185   0.588   1.385 -0.0355 -0.5163  0.0092
 3089SOL    HW110166   5.152   0.604   1.292  1.5496  0.6172 -0.3970
 3089SOL    HW210167   5.276   0.629   1.396 -0.2200 -0.5596  2.0912
 3090SOL     OW10168   6.911   1.863   2.354  0.3368  0.0539 -0.0949
 3090SOL    HW110169   6.823   1.909   2.362  1.3525  2.3311 -1.0405
 3090SOL    HW210170   6.916   1.814   2.267  0.4059  0.9394 -0.6050
 3091SOL     OW10171   1.720   2.325   5.432 -0.0724 -0.3927 -0.2816
 3091SOL    HW110172   1.652   2.395   5.410 -1.8243 -1.9139  0.0601
 3091SOL    HW210173   1.743   2.330   5.529  1.1964  0.8335 -0.6147
 3092SOL     OW10174   5.238   2.361   3.174  0.5433  0.0235 -0.1882
 3092SOL    HW110175   5.258   2.377   3.271  0.0230 -2.2723  0.3543
 3092SOL    HW210176   5.298   2.289   3.139 -0.0409  0.0442 -1.2633
 3093SOL     OW10177   6.852   3.979   0.148 -0.1922 -0.1828 -0.2337
 3093SOL    HW110178   6.874   4.032   0.230  1.9239 -0.3645 -0.6333
 3093SOL    HW210179   6.755   3.989   0.128 -0.3491  1.5459  1.0978
 3094SOL     OW10180   1.006   0.856   1.118 -0.2606 -0.5029  0.6693
 3094SOL    HW110181   0.944   0.922   1.160  1.6585  1.2051  0.9723
 3094SOL    HW210182   1.061   0.812   1.189 -0.1216 -0.9264  0.3018
 3095SOL     OW10183   2.502   4.254   5.300 -0.1569 -0.0111 -0.1047
 3095SOL    HW110184   2.599   4.274   5.312 -0.6684  1.7767  1.5031
 3095SOL    HW210185   2.491   4.161   5.265  2.1500  0.1331 -1.4403
 3096SOL     OW10186   1.963   4.028   3.724 -0.1551 -0.6368  0.2339
 3096SOL    HW110187   2.053   4.050   3.688 -0.0237  0.2254  1.0299
 3096SOL    HW210188   1.971   4.002   3.820 -0.4964 -2.8375 -0.2829
 3097SOL     OW10189   5.643   1.700   4.833 -0.4313 -0.0137 -0.3099
 3097SOL    HW110190   5.615   1.701   4.929 -3.9155  1.5774 -1.1803
 3097SOL    HW210191   5.743   1.705   4.827 -0.0721 -0.5642  3.1765
 3098SOL     OW10192   3.122   6.485   1.518  0.0718  0.3023 -0.1171
 3098SOL    HW110193   3.109   6.386   1.516  0.1500  0.2496  1.2924
 3098SOL    HW210194   3.035   6.530   1.538  0.1457  0.4932 -0.2152
 3099SOL     OW10195   6.726   1.996   5.929 -0.1890  0.5517 -0.1054
 3099SOL    HW110196   6.679   2.031   5.848  1.2600  0.9467 -0.8167
 3099SOL    HW210197   6.825   2.012   5.920  0.0358  0.4011  1.6444
 3100SOL     OW10198   6.646   6.857   2.618 -0.0592  0.4323 -0.2766
 3100SOL    HW110199   6.646   6.802   2.701  0.5449  0.6010 -0.1636
 3100SOL    HW210200   6.552   6.865   2.584 -0.3120  0.3624  0.3844
 3101SOL     OW10201   5.074   5.601   3.582 -0.3521  0.3329  0.8553
 3101SOL    HW110202   4.985   5.607   3.535 -0.5246  0.7508  1.2260
 3101SOL    HW210203   5.140   5.557   3.522  0.2687  3.5753 -1.0920
 3102SOL     OW10204   6.794   1.995   1.875 -0.1512  0.2139 -0.7571
 3102SOL    HW110205   6.713   2.021   1.821 -1.0237 -0.6492  0.0901
 3102SOL    HW210206   6.872   2.051   1.847 -0.9044  0.7129 -1.9669
 3103SOL     OW10207   3.367   0.257   3.653  0.3664  0.3018 -0.0230
 3103SOL    HW110208   3.392   0.217   3.565  1.2130 -0.6240  0.6208
 3103SOL    HW210209   3.268   0.268   3.658  0.1792 -1.0274 -0.5119
 3104SOL     OW10210   6.023   1.877   5.526 -0.3588 -0.1448 -0.5857
 3104SOL    HW110211   6.009   1.800   5.587  0.5482 -0.6258 -0.9674
 3104SOL    HW210212   5.956   1.873   5.451 -1.1119  0.1416  0.0583
 3105SOL     OW10213   5.282   1.995   2.342 -0.4195 -0.0751  0.4070
 3105SOL    HW110214   5.352   2.045   2.393  0.3563 -0.3418 -0.3876
 3105SOL    HW210215   5.199   2.051   2.337  0.5025  1.2464 -0.6593
 3106SOL     OW10216   5.981   2.449   4.108 -0.1502  0.2295  0.1016
 3106SOL    HW110217   5.908   2.423   4.045  0.6277  1.6437 -1.4810
 3106SOL    HW210218   5.947   2.518   4.172  0.3233  2.9643 -2.3558
 3107SOL     OW10219   5.308   1.640   4.056  0.0868  0.0712  0.1279
 3107SOL    HW110220   5.266   1.644   3.965  0.6799 -0.6962 -0.1855
 3107SOL    HW210221   5.403   1.609   4.048  0.0464 -0.3169  1.0343
 3108SOL     OW10222   1.787   5.378   4.671  0.7739  0.1062  0.2731
 3108SOL    HW110223   1.835   5.419   4.593  0.6607  1.0295  0.6807
 3108SOL    HW210224   1.850   5.367   4.748  0.7491 -0.2957  0.2416
 3109SOL     OW10225   6.614   5.610   3.762  0.0000  0.0434 -0.1593
 3109SOL    HW110226   6.707   5.635   3.787 -0.3718  0.0863  1.2794
 3109SOL    HW210227   6.566   5.691   3.727 -0.1876  0.6154  1.3300
 3110SOL     OW10228   1.380   4.475   4.322 -0.0885 -0.0869  0.0467
 3110SOL    HW110229   1.432   4.505   4.242 -1.2753 -2.3083 -1.6650
 3110SOL    HW210230   1.301   4.535   4.336  0.3124  0.5071 -0.2367
 3111SOL     OW10231   6.495   2.539   5.104  0.1567 -0.1748 -0.6895
 3111SOL    HW110232   6.539   2.527   5.015  0.4248  0.6729 -0.6804
 3111SOL    HW210233   6.555   2.593   5.164 -1.6405  2.7531 -1.3159
 3112SOL     OW10234   4.905   0.283   0.762  0.2005  0.0848 -0.0593
 3112SOL    HW110235   4.892   0.273   0.861  0.2146 -0.5090 -0.1137
 3112SOL    HW210236   5.001   0.263   0.739  0.0019 -0.6202 -0.2945
 3113SOL     OW10237   1.685   5.732   2.810  0.1358  0.0539 -0.3831
 3113SOL    HW110238   1.656   5.638   2.793  1.4188 -0.2480 -1.0348
 3113SOL    HW210239   1.606   5.787   2.839 -0.8081 -0.9974 -0.8933
 3114SOL     OW10240   4.308   5.344   5.176  0.4842 -0.2081  0.0731
 3114SOL    HW110241   4.379   5.344   5.105  1.0984  1.4755  0.6276
 3114SOL    HW210242   4.242   5.272   5.157  1.7708 -1.1492 -1.0450
 3115SOL     OW10243   5.803   4.763   4.927  0.0723 -0.0032 -0.2002
 3115SOL    HW110244   5.840   4.778   5.019 -0.7536  0.7620  0.0291
 3115SOL    HW210245   5.711   4.724   4.934  0.8217 -1.9795 -0.7585
 3116SOL     OW10246   0.073   2.378   6.139  0.1603 -0.5305 -0.1840
 3116SOL    HW110247   0.119   2.385   6.228  1.4750  0.7471 -0.9169
 3116SOL    HW210248   0.081   2.465   6.091 -3.5141 -0.0495 -0.1947
 3117SOL     OW10249   4.667   0.389   2.034 -0.0724  0.1362  0.0511
 3117SOL    HW110250   4.579   0.355   2.002  0.8319 -1.5254 -0.8488
 3117SOL    HW210251   4.673   0.382   2.133  0.1214 -2.7111 -0.0738
 3118SOL     OW10252   2.002   1.130   4.275 -0.6323 -0.0533  0.1322
 3118SOL    HW110253   1.980   1.089   4.186 -1.4036 -2.4023  1.3179
 3118SOL    HW210254   1.943   1.210   4.289 -1.5600 -0.5255 -0.8470
 3119SOL     OW10255   5.111   0.107   2.838  0.5341  0.2283 -0.2295
 3119SOL    HW110256   5.069   0.185   2.792  0.6389  0.9618  0.8772
 3119SOL    HW210257   5.124   0.032   2.773  0.3942  1.1197 -1.2983
 3120SOL     OW10258   3.388   5.841   6.556 -1.1439  0.1927 -0.4980
 3120SOL    HW110259   3.297   5.883   6.555 -1.7503 -1.0025  0.9223
 3120SOL    HW210260   3.430   5.856   6.646 -1.8756 -3.1075  0.5519
 3121SOL     OW10261   5.988   1.189   4.107 -0.5907  0.5324  0.1019
 3121SOL    HW110262   5.918   1.216   4.041 -1.3330  1.2020  1.1272
 3121SOL    HW210263   6.006   1.266   4.168 -0.1784 -0.1933  0.9069
 3122SOL     OW10264   5.337   1.639   0.260 -0.3081  0.2871 -0.0994
 3122SOL    HW110265   5.289   1.573   0.317  0.2466  0.8128  1.0157
 3122SOL    HW210266   5.389   1.701   0.318 -0.2490  1.2613 -1.1611
 3123SOL     OW10267   1.578   1.530   2.806  0.1114  0.1859  0.1725
 3123SOL    HW110268   1.635   1.571   2.876 -1.0589  0.8714  0.7586
 3123SOL    HW210269   1.613   1.555   2.715  0.4822  0.9449  0.5210
 3124SOL     OW10270   6.400   5.158   4.599  0.4872 -0.8267  0.0779
 3124SOL    HW110271   6.477   5.220   4.594  1.3270 -1.8963 -0.9715
 3124SOL    HW210272   6.428   5.067   4.566 -1.6188 -0.8171 -2.0846
 3125SOL     OW10273   3.148   1.572   5.590 -0.6802  0.2534  0.4352
 3125SOL    HW110274   3.099   1.625   5.520  0.8052 -1.4839 -2.0878
 3125SOL    HW210275   3.169   1.481   5.554  1.2596 -0.3166  2.7372
 3126SOL     OW10276   4.417   4.658   6.277 -0.3035  0.3556  0.1028
 3126SOL    HW110277   4.510   4.694   6.274 -0.3077  0.4079  0.5145
 3126SOL    HW210278   4.361   4.703   6.207 -0.3449  1.2733  0.6976
 3127SOL     OW10279   6.497   2.907   5.682  0.0325 -0.2152  0.6806
 3127SOL    HW110280   6.482   2.963   5.601  0.3288 -1.2607 -0.1262
 3127SOL    HW210281   6.411   2.894   5.730  0.1436  1.8304  1.5223
 3128SOL     OW10282   3.281   1.012   0.575 -0.5909  0.1183  0.0292
 3128SOL    HW110283   3.265   1.021   0.476 -1.1291  1.0868  0.1894
 3128SOL    HW210284   3.375   1.040   0.596  0.0610 -1.6253 -0.3927
 3129SOL     OW10285   5.606   4.440   0.186 -0.3365  0.9703 -0.1156
 3129SOL    HW110286   5.511   4.469   0.200 -0.4141  0.2445  1.0433
 3129SOL    HW210287   5.648   4.422   0.275  0.4204 -0.1688 -0.6790
 3130SOL     OW10288   5.527   5.761   4.891  0.2656 -0.5725 -0.3291
 3130SOL    HW110289   5.529   5.691   4.820  1.6623  1.1328 -2.0818
 3130SOL    HW210290   5.538   5.851   4.849 -1.6383  0.7638  1.8151
 3131SOL     OW10291   1.687   1.540   1.824 -0.6130 -0.2251 -0.1145
 3131SOL    HW110292   1.614   1.520   1.890  0.1269 -1.0625  0.4815
 3131SOL    HW210293   1.776   1.525   1.868 -0.0903  0.2039 -1.0070
 3132SOL     OW10294   4.694   3.361   5.625  0.5982 -0.0332  0.0466
 3132SOL    HW110295   4.631   3.291   5.591  0.4938  0.2284 -0.2943
 3132SOL    HW210296   4.642   3.438   5.661  0.7186 -0.0474  0.2532
 3133SOL     OW10297   5.508   0.019   3.454 -0.1335 -0.3235 -0.0013
 3133SOL    HW110298   5.537   0.099   3.507  0.2390 -1.2768  1.2802
 3133SOL    HW210299   5.562  -0.060   3.482 -1.2561 -1.2703 -0.4545
 3134SOL     OW10300   2.542   4.625   3.004  0.4829  0.1662 -0.2362
 3134SOL    HW110301   2.569   4.590   2.915  0.5683  0.3251 -0.2727
 3134SOL    HW210302   2.623   4.656   3.054  0.4933 -0.3510  0.0839
 3135SOL     OW10303   4.584   1.552   0.010 -0.2568 -0.1798 -0.3813
 3135SOL    HW110304   4.486   1.535   0.018 -0.3719 -0.8362 -2.4348
 3135SOL    HW210305   4.634   1.477   0.054 -0.6241  0.5064  1.2839
 3136SOL     OW10306   5.731   0.080   2.526  1.1787  0.0151 -0.0492
 3136SOL    HW110307   5.721  -0.019   2.519 -0.9571 -0.0358  2.1568
 3136SOL    HW210308   5.760   0.104   2.619 -1.0301  1.5457  0.3143
 3137SOL     OW10309   5.442   1.730   5.353 -0.3006  0.0877  0.1100
 3137SOL    HW110310   5.450   1.653   5.417  0.5699  0.1641  0.1012
 3137SOL    HW210311   5.364   1.714   5.292  0.6434 -1.4582 -0.7641
 3138SOL     OW10312   5.704   2.180   5.460 -0.2257 -0.0767 -0.1546
 3138SOL    HW110313   5.658   2.264   5.490  1.0224  0.6005 -0.0858
 3138SOL    HW210314   5.637   2.106   5.455 -1.2451  0.7800  0.3300
 3139SOL     OW10315   2.711   6.195   2.789 -0.1906 -0.6270  0.5596
 3139SOL    HW110316   2.789   6.216   2.848 -1.2460  1.7214  1.2487
 3139SOL    HW210317   2.675   6.104   2.812  2.4923 -1.9400 -0.0480
 3140SOL     OW10318   4.982   5.190   0.339 -0.4034  0.0447  0.0908
 3140SOL    HW110319   5.030   5.103   0.330 -0.2052  0.0582  0.9774
 3140SOL    HW210320   4.889   5.174   0.373 -0.0356  0.2450  1.2342
 3141SOL     OW10321   4.920   3.354   2.421 -1.0855  0.1555  0.1790
 3141SOL    HW110322   4.895   3.283   2.355  0.0335 -0.8678  0.8073
 3141SOL    HW210323   4.935   3.312   2.510  1.9561  0.7487  0.0470
 3142SOL     OW10324   6.234   1.872   3.303  0.3653  0.3412 -0.3254
 3142SOL    HW110325   6.180   1.808   3.359 -0.3568 -0.3160 -1.7217
 3142SOL    HW210326   6.209   1.861   3.207  0.8960  2.1180 -0.6903
 3143SOL     OW10327   4.218   1.123   0.437  0.8706 -0.4104 -0.6127
 3143SOL    HW110328   4.240   1.196   0.372  0.2269 -0.7289 -1.2097
 3143SOL    HW210329   4.150   1.156   0.502  1.8063  0.0337  0.1625
 3144SOL     OW10330   5.665   4.571   6.389  0.3461  0.2304 -0.0183
 3144SOL    HW110331   5.681   4.532   6.480  1.0349 -0.5499 -0.4542
 3144SOL    HW210332   5.677   4.670   6.392 -2.0632  0.5471  1.2584
 3145SOL     OW10333   1.358   6.284   6.626 -0.6191 -0.1520 -0.0238
 3145SOL    HW110334   1.345   6.222   6.704  3.3605 -0.7813  0.3630
 3145SOL    HW210335   1.403   6.235   6.552 -2.5887  0.9392 -2.0541
 3146SOL     OW10336   0.207   0.680   3.538 -0.1011 -0.1559 -0.3029
 3146SOL    HW110337   0.155   0.610   3.586  0.2205  0.9710  1.7949
 3146SOL    HW210338   0.187   0.770   3.577  0.4050  0.8017 -2.1180
 3147SOL     OW10339   4.763   6.499   0.179 -0.1021 -0.3243  0.0008
 3147SOL    HW110340   4.678   6.515   0.129 -0.3629 -0.1764  0.4847
 3147SOL    HW210341   4.742   6.466   0.271  0.3264  0.6279  0.4628
 3148SOL     OW10342   5.245   6.733   1.942 -0.0063  0.6517  0.0763
 3148SOL    HW110343   5.345   6.726   1.950  0.0990  0.4788 -1.1134
 3148SOL    HW210344   5.205   6.755   2.031  1.3463  3.9317  0.0084
 3149SOL     OW10345   4.338   3.166   5.259 -0.2794  0.2807 -0.9144
 3149SOL    HW110346   4.272   3.235   5.232  0.2029  1.0305 -0.2201
 3149SOL    HW210347   4.292   3.092   5.308 -0.6945  0.4626 -1.0293
 3150SOL     OW10348   4.867   1.550   6.450 -0.2648  0.0152  0.0352
 3150SOL    HW110349   4.931   1.600   6.508 -0.8346  2.3480 -1.2273
 3150SOL    HW210350   4.781   1.536   6.500  0.4614 -1.3019  0.9932
 3151SOL     OW10351   2.558   1.968   0.657 -0.0230 -0.2617 -0.4733
 3151SOL    HW110352   2.543   1.994   0.752  1.6992 -0.7112 -0.0358
 3151SOL    HW210353   2.515   1.879   0.640  0.3623 -0.5822  0.1476
 3152SOL     OW10354   3.079   2.129   5.642 -0.1519 -0.2851  1.0421
 3152SOL    HW110355   3.073   2.202   5.573 -1.2839  0.1785  1.6128
 3152SOL    HW210356   3.144   2.059   5.610 -1.4367 -0.6339 -1.0079
 3153SOL     OW10357   4.652   5.789   6.433 -0.4635 -0.5411 -0.1318
 3153SOL    HW110358   4.667   5.879   6.473  0.9118 -1.0795  0.6169
 3153SOL    HW210359   4.570   5.748   6.473  0.1144 -0.4963  1.1483
 3154SOL     OW10360   2.526   2.989   1.254 -0.2899 -0.2128 -0.6902
 3154SOL    HW110361   2.559   3.051   1.325 -0.4664  0.1731 -0.9413
 3154SOL    HW210362   2.578   2.904   1.258 -0.9368 -0.5615  0.4991
 3155SOL     OW10363   6.939   3.907   4.394 -0.3634  0.6480 -0.9798
 3155SOL    HW110364   7.038   3.922   4.393 -0.1433 -0.6851 -0.6176
 3155SOL    HW210365   6.900   3.934   4.305  0.6183 -0.6409 -1.8321
 3156SOL     OW10366   2.047   3.505   1.749 -0.8645 -0.2183  0.2047
 3156SOL    HW110367   1.984   3.444   1.797 -0.1866 -0.3179  0.9926
 3156SOL    HW210368   2.127   3.522   1.806 -0.7933  0.9909 -0.2213
 3157SOL     OW10369   2.346   2.741   2.407  0.4288  0.1870  0.1430
 3157SOL    HW110370   2.331   2.689   2.323 -1.1998 -1.7093  1.5112
 3157SOL    HW210371   2.327   2.838   2.390 -0.4712 -0.2440 -1.5154
 3158SOL     OW10372   3.337   1.047   4.413  0.0786 -0.2779  0.3903
 3158SOL    HW110373   3.393   1.001   4.483  0.4525 -2.4111 -1.2125
 3158SOL    HW210374   3.330   1.144   4.435  1.9173 -0.4890  2.2506
 3159SOL     OW10375   5.469   3.999   0.727 -0.0735 -0.4941 -0.0637
 3159SOL    HW110376   5.546   4.046   0.769 -0.4404 -0.9016  1.0888
 3159SOL    HW210377   5.501   3.915   0.682  0.2310 -0.3956 -0.0289
 3160SOL     OW10378   1.850   1.449   5.358  0.4731  0.3270  0.4902
 3160SOL    HW110379   1.938   1.401   5.362 -0.3530 -1.1664  2.1175
 3160SOL    HW210380   1.789   1.402   5.294  0.9362  1.5928 -0.9433
 3161SOL     OW10381   2.200   2.464   5.828 -0.5849 -0.0703 -0.1151
 3161SOL    HW110382   2.196   2.549   5.775  0.0802 -0.8407 -1.4566
 3161SOL    HW210383   2.189   2.484   5.925 -0.3657  1.5465 -0.4053
 3162SOL     OW10384   1.803   6.662   2.819  0.2325 -0.0868 -0.4484
 3162SOL    HW110385   1.773   6.723   2.892  0.8519  1.5060 -1.4750
 3162SOL    HW210386   1.899   6.680   2.798 -0.2192  0.2651 -2.3776
 3163SOL     OW10387   0.426   4.592   1.914 -0.4198 -0.1702  0.6029
 3163SOL    HW110388   0.422   4.648   1.996 -1.5584  1.8585 -0.7683
 3163SOL    HW210389   0.522   4.581   1.886 -0.1399  0.5074  1.2571
 3164SOL     OW10390   2.627   1.215   1.698  0.4397  0.3438 -0.1390
 3164SOL    HW110391   2.605   1.124   1.734 -0.4389  0.1172 -1.1912
 3164SOL    HW210392   2.634   1.280   1.774  3.0406 -0.9301  0.8558
 3165SOL     OW10393   6.449   5.156   6.114 -0.2448 -0.1775 -0.4733
 3165SOL    HW110394   6.366   5.192   6.158 -0.1711 -1.6858  1.0128
 3165SOL    HW210395   6.426   5.073   6.063  0.5316 -1.4776  1.1951
 3166SOL     OW10396   3.469   1.601   3.707  0.1451  0.7180  0.5138
 3166SOL    HW110397   3.456   1.508   3.672 -2.5373  0.4242  2.0087
 3166SOL    HW210398   3.500   1.661   3.632 -0.4816 -0.8827 -1.0968
 3167SOL     OW10399   6.657   2.301   4.339 -0.0606 -0.2412  0.1391
 3167SOL    HW110400   6.647   2.395   4.373  1.6649  0.2438 -0.6111
 3167SOL    HW210401   6.753   2.274   4.343 -0.0878 -0.9367 -2.3353
 3168SOL     OW10402   6.777   2.567   0.830  0.2822  0.8358 -0.2925
 3168SOL    HW110403   6.863   2.547   0.878 -1.7041 -1.1130  2.8313
 3168SOL    HW210404   6.733   2.645   0.873 -0.9084 -0.0927  0.2357
 3169SOL     OW10405   1.050   2.631   1.130 -0.6865 -0.5972 -0.1470
 3169SOL    HW110406   0.962   2.584   1.130  0.2750 -2.5437  1.3392
 3169SOL    HW210407   1.103   2.601   1.051  0.1300 -2.5656  1.0763
 3170SOL     OW10408   2.649   5.271   4.742  0.2150 -0.1816 -0.5380
 3170SOL    HW110409   2.614   5.184   4.777 -0.3599 -0.5109 -1.8428
 3170SOL    HW210410   2.624   5.345   4.803 -3.0207 -0.3549 -1.4684
 3171SOL     OW10411   6.883   3.525   5.329 -0.3239 -0.4462  0.4790
 3171SOL    HW110412   6.889   3.612   5.378  0.0407  1.5381 -2.8031
 3171SOL    HW210413   6.893   3.450   5.394 -2.2359  1.8298  3.7128
 3172SOL     OW10414   5.628   4.323   1.786  0.1065 -1.1576  0.4273
 3172SOL    HW110415   5.566   4.331   1.864  0.5850 -0.0862  0.7266
 3172SOL    HW210416   5.706   4.265   1.811  2.2851  2.1861  2.2132
 3173SOL     OW10417   5.132   3.699   0.058  0.4270 -0.4818  0.1361
 3173SOL    HW110418   5.182   3.765   0.114  1.0383 -0.6305 -0.2227
 3173SOL    HW210419   5.175   3.609   0.067 -0.2567 -0.7803  0.4389
 3174SOL     OW10420   3.325   1.611   6.142 -0.4424 -0.3590 -0.1911
 3174SOL    HW110421   3.340   1.535   6.205 -2.0662  0.9560  1.9536
 3174SOL    HW210422   3.325   1.577   6.048 -3.3669 -3.5171  0.7213
 3175SOL     OW10423   6.022   0.368   6.902  0.3912  0.6718 -0.1516
 3175SOL    HW110424   5.933   0.376   6.945 -0.6444  1.2074 -2.2557
 3175SOL    HW210425   6.084   0.438   6.939  0.0427  0.1685  1.4641
 3176SOL     OW10426   5.017   4.354   4.344  0.0057  0.1549 -0.2333
 3176SOL    HW110427   5.043   4.260   4.365  0.8541  0.4110 -0.0815
 3176SOL    HW210428   4.945   4.384   4.407  0.7874  0.0908  0.7118
 3177SOL     OW10429   4.602   1.068   2.132  0.0737 -0.1842  0.0764
 3177SOL    HW110430   4.596   0.968   2.126  1.2007 -0.2554 -0.0177
 3177SOL    HW210431   4.667   1.102   2.063 -0.2116  0.6060  0.1875
 3178SOL     OW10432   1.956   2.379   0.505 -0.0439  0.0599 -0.3795
 3178SOL    HW110433   1.945   2.282   0.485  0.4264 -0.2717  0.9036
 3178SOL    HW210434   2.011   2.421   0.433 -0.5872 -0.5265 -1.1556
 3179SOL     OW10435   1.136   4.044   2.220 -0.2804 -0.2199  0.7684
 3179SOL    HW110436   1.105   4.119   2.279  1.9192 -0.8146  2.8188
 3179SOL    HW210437   1.063   3.975   2.213 -2.0281  1.6081 -0.4860
 3180SOL     OW10438   5.203   0.152   6.827  0.6975 -0.1088 -0.4964
 3180SOL    HW110439   5.163   0.236   6.864 -0.6205 -0.6951 -0.5370
 3180SOL    HW210440   5.259   0.174   6.747  1.9158  0.9341  0.6083
 3181SOL     OW10441   0.427   0.216   3.710  0.1566  0.4269  0.2185
 3181SOL    HW110442   0.357   0.191   3.776  0.3839 -0.3854  0.1605
 3181SOL    HW210443   0.515   0.177   3.738  0.1471 -0.3986 -0.8420
 3182SOL     OW10444   1.944   6.812   2.259  0.0608  0.1882 -0.0977
 3182SOL    HW110445   1.894   6.839   2.177  0.3478 -1.3027 -0.8034
 3182SOL    HW210446   1.879   6.777   2.327  0.0208 -0.7401 -0.5992
 3183SOL     OW10447   4.515   3.548   5.741  0.3038 -0.4077  0.1953
 3183SOL    HW110448   4.470   3.625   5.696 -0.0368 -0.3721  0.5835
 3183SOL    HW210449   4.464   3.523   5.824  1.3917  0.1164  1.0604
 3184SOL     OW10450   6.732   1.198   4.399 -0.2496  0.3921 -0.0768
 3184SOL    HW110451   6.684   1.143   4.467  1.2862  0.1597  0.8707
 3184SOL    HW210452   6.687   1.286   4.389 -1.1380  0.0044  0.4104
 3185SOL     OW10453   0.935   6.005   0.043 -0.4181  0.3240  0.3285
 3185SOL    HW110454   0.927   5.976  -0.052  1.2783 -0.2613  0.3345
 3185SOL    HW210455   0.923   6.104   0.049  2.0538  0.7903 -0.9328
 3186SOL     OW10456   6.616   6.965   6.567  0.4327 -0.5959  0.4178
 3186SOL    HW110457   6.541   6.898   6.567 -0.8184  0.7752  0.3447
 3186SOL    HW210458   6.660   6.965   6.477 -1.5722  0.8346 -0.6254
 3187SOL     OW10459   3.976   6.486   3.211  0.7449 -0.1111  0.6537
 3187SOL    HW110460   4.060   6.502   3.263  1.6531 -1.0238 -0.4897
 3187SOL    HW210461   3.925   6.411   3.253  1.5067 -0.8897  0.2216
 3188SOL     OW10462   2.387   0.914   0.591 -0.0229 -0.7041 -0.3290
 3188SOL    HW110463   2.446   0.842   0.629  1.5057  0.2592 -0.7732
 3188SOL    HW210464   2.383   0.991   0.654  2.1248  0.6958 -1.7541
 3189SOL     OW10465   3.295   0.237   0.148 -0.4636  0.3167 -0.6716
 3189SOL    HW110466   3.250   0.148   0.141  0.1651 -0.2329  1.5409
 3189SOL    HW210467   3.313   0.258   0.244 -0.4441  2.7772 -1.1488
 3190SOL     OW10468   6.481   5.804   4.146 -0.4242 -0.1219  0.2571
 3190SOL    HW110469   6.522   5.713   4.141 -1.3588 -0.5678  0.5138
 3190SOL    HW210470   6.467   5.840   4.054 -0.3675 -0.3794  0.1475
 3191SOL     OW10471   5.669   2.163   1.666  0.0334 -0.5731  0.2874
 3191SOL    HW110472   5.644   2.215   1.747  0.4098  0.9820 -0.5604
 3191SOL    HW210473   5.768   2.155   1.661  0.0469 -0.1031 -0.3392
 3192SOL     OW10474   3.592   7.005   1.999 -0.2060 -0.4447  0.1072
 3192SOL    HW110475   3.628   6.997   2.092 -1.1583 -0.5556  0.4715
 3192SOL    HW210476   3.541   6.923   1.975 -1.4547  0.3044  0.1419
 3193SOL     OW10477   4.139   5.951   4.968 -0.2556  0.4960 -0.3065
 3193SOL    HW110478   4.094   5.917   4.885  0.9632  0.4751 -0.9834
 3193SOL    HW210479   4.160   6.048   4.957  0.8350  0.2582 -0.4652
 3194SOL     OW10480   1.954   0.313   6.328  0.1999  1.5554  0.5462
 3194SOL    HW110481   1.902   0.318   6.413  0.1349  1.2443  0.5262
 3194SOL    HW210482   2.024   0.384   6.327  0.9717  0.8355  1.3793
 3195SOL     OW10483   6.575   5.899   6.426  0.1472  0.1357  0.5176
 3195SOL    HW110484   6.513   5.916   6.502 -1.4831  1.2933 -0.9977
 3195SOL    HW210485   6.619   5.984   6.398 -0.8787  0.1630 -1.1419
 3196SOL     OW10486   5.715   0.859   1.845 -0.5194 -0.2698  0.4541
 3196SOL    HW110487   5.660   0.929   1.890  1.7901  2.1928 -0.3378
 3196SOL    HW210488   5.774   0.814   1.912 -0.0463  0.4865  0.5491
 3197SOL     OW10489   3.796   5.771   1.663 -0.2310  0.3972 -0.4902
 3197SOL    HW110490   3.811   5.678   1.630 -1.1903  0.2821 -0.6186
 3197SOL    HW210491   3.702   5.780   1.696  0.3763  0.8332  1.1665
 3198SOL     OW10492   6.860   5.633   2.696  0.1882 -0.0566 -0.0128
 3198SOL    HW110493   6.789   5.697   2.728  1.1202  1.2587 -0.4800
 3198SOL    HW210494   6.846   5.544   2.738 -0.4099  0.7928  1.6653
 3199SOL     OW10495   5.427   4.359   4.810 -0.6004  0.2196 -0.0312
 3199SOL    HW110496   5.520   4.328   4.789 -0.1924  0.4910  1.2678
 3199SOL    HW210497   5.412   4.354   4.909 -2.3729 -0.9105 -0.3058
 3200SOL     OW10498   5.875   3.478   4.683  0.5621  0.6868  0.2611
 3200SOL    HW110499   5.930   3.422   4.745 -0.0301 -1.2547 -0.8675
 3200SOL    HW210500   5.906   3.464   4.589 -0.6609  0.9889 -0.2071
 3201SOL     OW10501   1.350   1.818   3.294  0.0645  0.2239  0.3267
 3201SOL    HW110502   1.375   1.721   3.300  1.2318  0.4248 -0.8763
 3201SOL    HW210503   1.261   1.832   3.338  0.5208 -1.1284  1.7718
 3202SOL     OW10504   2.811   3.073   5.635 -0.0354  0.7131  0.5953
 3202SOL    HW110505   2.796   3.020   5.551 -0.2315  0.5736  0.7171
 3202SOL    HW210506   2.723   3.103   5.671  0.1465  2.7248 -0.4749
 3203SOL     OW10507   3.786   5.233   2.035 -0.4407 -0.3409 -0.1728
 3203SOL    HW110508   3.768   5.314   2.091 -0.9041  0.1341 -0.9858
 3203SOL    HW210509   3.859   5.253   1.970 -1.9183  0.1385 -1.7617
 3204SOL     OW10510   7.003   0.610   2.861 -0.0350  0.1081  0.8121
 3204SOL    HW110511   6.951   0.595   2.945  0.0503  0.7606  0.9885
 3204SOL    HW210512   7.058   0.530   2.841 -1.8661 -1.0261  0.0615
 3205SOL     OW10513   5.227   3.342   6.221 -0.2621 -0.1728 -0.6740
 3205SOL    HW110514   5.267   3.317   6.133  0.0556 -1.1339 -0.2621
 3205SOL    HW210515   5.150   3.282   6.241  0.4913 -0.8251  0.3155
 3206SOL     OW10516   4.343   6.030   6.764 -0.2418 -0.8969 -0.1322
 3206SOL    HW110517   4.375   5.935   6.767 -0.9850 -1.1303  0.7621
 3206SOL    HW210518   4.378   6.079   6.844  0.9006 -0.1390 -1.0429
 3207SOL     OW10519   1.337   5.994   3.440 -0.6821 -0.7109 -0.7149
 3207SOL    HW110520   1.336   6.025   3.535  1.5886 -1.7174 -0.2867
 3207SOL    HW210521   1.292   5.905   3.434  0.7577 -1.5153 -0.1734
 3208SOL     OW10522   6.725   2.794   0.121 -0.1943  0.3843 -0.0528
 3208SOL    HW110523   6.698   2.698   0.116  0.3862  0.2286 -0.3685
 3208SOL    HW210524   6.653   2.852   0.083 -0.4245  0.0523 -0.1248
 3209SOL     OW10525   3.625   0.451   4.341  0.1737 -0.1964 -0.3319
 3209SOL    HW110526   3.626   0.374   4.277  0.1120  0.5293 -1.2196
 3209SOL    HW210527   3.647   0.536   4.293  1.8982  0.1410  0.9319
 3210SOL     OW10528   6.067   5.561   2.446 -0.4395 -0.4425  0.0803
 3210SOL    HW110529   6.110   5.626   2.383 -1.4949  1.2960  1.0571
 3210SOL    HW210530   6.010   5.611   2.511 -0.7044 -2.3208  1.3763
 3211SOL     OW10531   0.599   5.696   6.726 -0.8299  0.0580  0.2630
 3211SOL    HW110532   0.594   5.795   6.739 -0.3405  0.2611 -0.9994
 3211SOL    HW210533   0.694   5.669   6.711 -1.2776 -0.1449 -2.6642
 3212SOL     OW10534   5.070   0.498   2.862  0.1743 -0.2347  0.0669
 3212SOL    HW110535   5.053   0.463   2.954 -1.9246  0.4376 -0.0100
 3212SOL    HW210536   5.122   0.583   2.869 -2.5741  1.5377  0.9798
 3213SOL     OW10537   0.414   0.993   6.830  0.1688 -0.1163 -0.8326
 3213SOL    HW110538   0.359   0.911   6.845 -2.6226  0.8323 -4.3964
 3213SOL    HW210539   0.357   1.074   6.846  1.7554  1.0513 -0.8880
 3214SOL     OW10540   1.933   0.349   2.893 -0.8294 -0.1256  0.1154
 3214SOL    HW110541   1.915   0.252   2.878 -1.1797 -0.2653  1.3215
 3214SOL    HW210542   1.896   0.376   2.982  1.5244  0.5142  0.9522
 3215SOL     OW10543   2.041   3.030   0.724 -0.1487  0.3414  0.4694
 3215SOL    HW110544   1.979   3.102   0.756 -0.7846  0.0311 -0.0299
 3215SOL    HW210545   1.988   2.948   0.702  0.5544 -0.2463  0.9270
 3216SOL     OW10546   6.855   4.607   6.506  0.0401  0.5130  0.0991
 3216SOL    HW110547   6.868   4.527   6.446 -1.0027  1.5406 -1.5814
 3216SOL    HW210548   6.861   4.578   6.601  1.7403 -1.2084 -0.4527
 3217SOL     OW10549   6.085   5.450   6.023  1.3018 -0.3107 -0.6039
 3217SOL    HW110550   6.149   5.416   6.092 -0.0031 -1.1527  0.2577
 3217SOL    HW210551   6.107   5.411   5.934  1.5151 -1.2262 -0.1596
 3218SOL     OW10552   5.855   1.293   3.453 -0.0277 -0.2544  0.4023
 3218SOL    HW110553   5.782   1.357   3.432 -1.2991 -1.6656  0.3905
 3218SOL    HW210554   5.942   1.343   3.462 -0.3696  1.1268 -2.6847
 3219SOL     OW10555   3.833   0.959   2.574  0.2430  0.2165 -0.4117
 3219SOL    HW110556   3.907   0.905   2.615 -3.8708 -3.8103  2.8512
 3219SOL    HW210557   3.775   0.996   2.646 -2.2121  1.1563 -2.7044
 3220SOL     OW10558   0.212   3.219   5.283 -0.2744 -0.0933 -0.3991
 3220SOL    HW110559   0.205   3.257   5.190 -1.1372  0.7372 -0.0251
 3220SOL    HW210560   0.259   3.285   5.342  1.3264 -1.1246 -0.4928
 3221SOL     OW10561   3.069   0.724   0.969 -0.1973  0.2998 -0.9697
 3221SOL    HW110562   2.993   0.672   0.929 -1.5721  0.5517  1.1418
 3221SOL    HW210563   3.106   0.786   0.900  0.0794 -1.8873 -2.9197
 3222SOL     OW10564   3.050   0.039   4.000 -0.5252 -0.8505 -0.2049
 3222SOL    HW110565   3.139   0.068   4.035 -0.9892  0.3212  0.0485
 3222SOL    HW210566   3.017  -0.039   4.053 -0.6323  0.0908  1.1657
 3223SOL     OW10567   4.133   5.186   1.245  0.6203  0.5657  0.3933
 3223SOL    HW110568   4.114   5.097   1.287 -1.0877  0.5386 -0.3433
 3223SOL    HW210569   4.211   5.228   1.290 -1.3122  0.7553  3.9064
 3224SOL     OW10570   4.463   2.127   4.150  0.3515 -0.1575  0.4806
 3224SOL    HW110571   4.462   2.032   4.118 -1.9310  0.0613 -0.2767
 3224SOL    HW210572   4.442   2.129   4.248 -0.6965 -0.3912  0.2691
 3225SOL     OW10573   3.441   0.138   5.201  0.1291 -0.3120 -0.0487
 3225SOL    HW110574   3.373   0.189   5.253 -0.4064  0.5776 -1.5653
 3225SOL    HW210575   3.526   0.190   5.197  0.4123 -0.7216  0.5534
 3226SOL     OW10576   6.492   7.014   4.464 -0.4566  0.0351 -0.6509
 3226SOL    HW110577   6.515   7.072   4.542 -0.0379  1.8067 -2.0242
 3226SOL    HW210578   6.568   6.952   4.446  1.1701  2.2198 -1.8901
 3227SOL     OW10579   6.123   5.155   5.003  0.4405  0.0748  0.1522
 3227SOL    HW110580   6.079   5.203   5.079  1.2972 -0.7172  1.1921
 3227SOL    HW210581   6.053   5.116   4.943 -0.2885 -0.4045  1.2676
 3228SOL     OW10582   1.639   3.724   0.617 -0.0364  0.4097 -0.2728
 3228SOL    HW110583   1.659   3.668   0.537  0.1274  1.9014 -1.3048
 3228SOL    HW210584   1.724   3.751   0.662 -0.1448 -1.1687  0.9893
 3229SOL     OW10585   1.250   1.057   5.409 -0.1675  0.1763  0.1622
 3229SOL    HW110586   1.322   1.127   5.406 -0.6987  0.8442  1.6678
 3229SOL    HW210587   1.208   1.049   5.319  1.6333 -0.1024 -0.7116
 3230SOL     OW10588   4.806   0.933   4.939  0.4975 -0.0294 -0.4200
 3230SOL    HW110589   4.886   0.957   4.883 -0.8984  0.7613 -2.1953
 3230SOL    HW210590   4.768   1.016   4.980  0.4481 -0.3640  0.2157
 3231SOL     OW10591   3.112   1.050   2.014 -0.0249  0.3354  0.2642
 3231SOL    HW110592   3.092   0.983   1.943  0.2547 -0.4986  0.9617
 3231SOL    HW210593   3.198   1.097   1.993 -0.6000  1.0224 -0.6127
 3232SOL     OW10594   3.633   6.204   3.864  0.1244 -0.2018  0.2545
 3232SOL    HW110595   3.606   6.129   3.803 -0.7068  0.5679 -0.3505
 3232SOL    HW210596   3.703   6.260   3.818  1.0661 -0.8276  0.8772
 3233SOL     OW10597   2.143   5.134   6.484 -0.2031 -0.3049 -0.2597
 3233SOL    HW110598   2.066   5.197   6.491  0.0072  0.0808 -1.3170
 3233SOL    HW210599   2.127   5.069   6.410 -0.4526 -1.5716  0.8557
 3234SOL     OW10600   4.777   3.544   6.970 -0.8976  0.5565  0.1365
 3234SOL    HW110601   4.794   3.641   6.953  1.1507  0.3796  0.8427
 3234SOL    HW210602   4.845   3.489   6.922 -1.8634 -0.5274 -0.0385
 3235SOL     OW10603   0.742   2.133   2.045 -0.1489  0.5204  0.3219
 3235SOL    HW110604   0.703   2.190   1.973 -1.0958 -0.5274 -0.0218
 3235SOL    HW210605   0.822   2.179   2.084  0.7537  0.8568 -1.7944
 3236SOL     OW10606   6.513   5.709   0.913  0.2939 -0.5021  0.6434
 3236SOL    HW110607   6.454   5.655   0.973 -1.3830  0.0261 -0.4704
 3236SOL    HW210608   6.570   5.769   0.969  2.1380 -3.2379  1.9169
 3237SOL     OW10609   5.083   2.310   6.443 -0.1597  0.2174  0.0220
 3237SOL    HW110610   4.991   2.342   6.421  0.7265  2.1910 -1.1035
 3237SOL    HW210611   5.141   2.389   6.464  1.6319 -0.8345 -0.7704
 3238SOL     OW10612   1.415   5.186   2.536 -0.2597  0.1371  0.0145
 3238SOL    HW110613   1.350   5.262   2.534 -1.8957 -1.1690  0.9630
 3238SOL    HW210614   1.460   5.183   2.625 -0.7102 -0.3991  0.2286
 3239SOL     OW10615   5.813   1.872   5.379 -0.1422 -0.3979 -0.0832
 3239SOL    HW110616   5.747   1.932   5.334 -0.5300  0.2092  1.2342
 3239SOL    HW210617   5.810   1.781   5.337  1.8372  0.9110 -3.4370
 3240SOL     OW10618   1.171   1.408   1.686  0.2537  0.2411 -0.0902
 3240SOL    HW110619   1.255   1.408   1.741  0.7863 -0.6311 -0.8711
 3240SOL    HW210620   1.125   1.319   1.696  1.1153 -0.4899 -2.1307
 3241SOL     OW10621   6.110   3.049   0.539  0.0358 -0.1847  0.4307
 3241SOL    HW110622   6.130   3.118   0.609 -0.1914  0.3116  0.0182
 3241SOL    HW210623   6.191   2.993   0.523  0.8010  1.1014 -0.4582
 3242SOL     OW10624   0.832   4.036   4.976  0.2992 -0.5304  0.0063
 3242SOL    HW110625   0.736   4.008   4.979  0.0442  0.2118 -0.7889
 3242SOL    HW210626   0.853   4.074   4.885  1.1835 -0.1401  0.3603
 3243SOL     OW10627   6.468   3.357   4.872 -0.3156  0.0959 -0.2480
 3243SOL    HW110628   6.521   3.364   4.787  0.5553  0.0079  0.2811
 3243SOL    HW210629   6.527   3.323   4.945 -1.0742  0.1291  0.3860
 3244SOL     OW10630   4.023   0.432   0.910 -0.1986  0.3091  0.0971
 3244SOL    HW110631   4.100   0.423   0.846 -0.5008  1.1295 -0.4039
 3244SOL    HW210632   4.027   0.522   0.954  0.2893 -0.4269  1.6333
 3245SOL     OW10633   1.630   6.300   3.603  0.2948 -0.2198 -0.1891
 3245SOL    HW110634   1.531   6.288   3.595  0.0697  1.0220  0.4765
 3245SOL    HW210635   1.657   6.295   3.699  0.7102  0.5144 -0.2544
 3246SOL     OW10636   5.362   4.615   3.370 -0.4395  0.3156 -0.1130
 3246SOL    HW110637   5.276   4.570   3.396 -0.6697  1.2726  0.8568
 3246SOL    HW210638   5.352   4.654   3.278 -1.1494  0.6846  0.1152
 3247SOL     OW10639   0.768   4.284   5.320 -0.1180  0.0347  0.3944
 3247SOL    HW110640   0.687   4.228   5.301  0.6691 -0.2885 -2.3573
 3247SOL    HW210641   0.844   4.224   5.348 -0.2621  0.1434  1.0428
 3248SOL     OW10642   5.170   3.064   3.772 -0.2989  0.8506 -0.1648
 3248SOL    HW110643   5.144   3.075   3.868 -0.5338  1.7458 -0.3253
 3248SOL    HW210644   5.230   2.984   3.763  0.4747  1.3020  0.8670
 3249SOL     OW10645   3.221   3.448   2.956  0.4495 -0.5716  0.5198
 3249SOL    HW110646   3.179   3.538   2.946 -0.2290 -0.9284  0.0859
 3249SOL    HW210647   3.179   3.384   2.891  2.5943 -0.6189 -0.9261
 3250SOL     OW10648   4.551   5.116   4.264 -0.0304 -0.5009  0.1366
 3250SOL    HW110649   4.504   5.150   4.183  0.0624  0.7107  0.5798
 3250SOL    HW210650   4.603   5.034   4.239  2.8558  1.7322 -1.9436
 3251SOL     OW10651   2.285   2.788   2.673  0.6274 -0.0331 -0.0103
 3251SOL    HW110652   2.366   2.740   2.708  0.3909 -0.2354  0.2643
 3251SOL    HW210653   2.278   2.773   2.574  0.9666  0.0468 -0.0482
 3252SOL     OW10654   0.819   2.495   1.616 -0.1289  0.3193  0.7008
 3252SOL    HW110655   0.870   2.540   1.543  2.3943 -0.9459  1.5417
 3252SOL    HW210656   0.828   2.547   1.701 -0.7237  0.3543  0.7505
 3253SOL     OW10657   0.530   3.586   1.967  0.8360  0.6324 -0.0998
 3253SOL    HW110658   0.432   3.582   1.952  0.0056 -0.5144  4.2654
 3253SOL    HW210659   0.554   3.673   2.011  1.7586  0.7180 -0.7276
 3254SOL     OW10660   5.130   0.847   0.005  0.2306 -0.0617  0.1840
 3254SOL    HW110661   5.110   0.827   0.101 -1.3807 -2.2047 -0.5346
 3254SOL    HW210662   5.210   0.795  -0.024  1.0897  1.0507  0.4813
 3255SOL     OW10663   3.908   5.527   1.623 -0.0541  0.3415 -0.3094
 3255SOL    HW110664   3.946   5.472   1.548  2.8463  1.3903  0.2527
 3255SOL    HW210665   3.843   5.472   1.675 -0.5321 -1.0928 -2.2954
 3256SOL     OW10666   5.726   2.527   2.093  0.0972  0.2104 -0.1800
 3256SOL    HW110667   5.627   2.519   2.103  0.2262 -2.2039 -0.2843
 3256SOL    HW210668   5.770   2.506   2.180  0.5885 -2.4174 -0.9875
 3257SOL     OW10669   3.858   1.969   2.394  0.6695  0.1453 -0.7399
 3257SOL    HW110670   3.888   2.061   2.368 -0.4261  0.1092 -2.2507
 3257SOL    HW210671   3.787   1.938   2.331  1.6555 -2.1258 -0.8150
 3258SOL     OW10672   0.396   6.675   2.415  0.7971 -0.0733 -0.3682
 3258SOL    HW110673   0.339   6.639   2.342 -0.1410 -0.4797  0.5403
 3258SOL    HW210674   0.385   6.775   2.420  2.9622  0.3802 -2.5115
 3259SOL     OW10675   0.310   5.771   1.535 -0.2296  0.0396 -1.1144
 3259SOL    HW110676   0.221   5.770   1.580 -0.8339 -0.8689 -2.2517
 3259SOL    HW210677   0.382   5.766   1.603 -1.1262 -2.8489 -0.2447
 3260SOL     OW10678   4.145   5.633   2.974  0.2817  0.6225  0.5683
 3260SOL    HW110679   4.070   5.693   2.948  0.1567  0.1978 -0.0852
 3260SOL    HW210680   4.120   5.538   2.955  0.0465  0.2375  2.5959
 3261SOL     OW10681   6.760   6.604   4.586  0.2090  0.7209 -0.2183
 3261SOL    HW110682   6.727   6.528   4.642  1.2994 -0.5054 -1.1813
 3261SOL    HW210683   6.839   6.575   4.533  0.1153  2.2870 -1.2977
 3262SOL     OW10684   3.453   1.849   3.377  0.2544  0.6992 -0.1818
 3262SOL    HW110685   3.407   1.762   3.356 -0.8225  1.1147  0.4043
 3262SOL    HW210686   3.548   1.831   3.402  0.7024 -0.1110 -2.2169
 3263SOL     OW10687   4.404   1.055   0.165  0.4924  0.7842 -0.2850
 3263SOL    HW110688   4.436   1.081   0.256 -0.2783  3.5086 -0.7000
 3263SOL    HW210689   4.464   1.097   0.096 -1.2117  2.1003 -1.0208
 3264SOL     OW10690   2.475   5.128   1.296  0.1145 -0.6382 -0.0448
 3264SOL    HW110691   2.430   5.175   1.372 -0.0869 -1.8424  0.6113
 3264SOL    HW210692   2.563   5.092   1.326  0.8069  0.3072 -0.8716
 3265SOL     OW10693   5.441   6.403   6.428  1.0035 -0.6374 -0.2002
 3265SOL    HW110694   5.528   6.381   6.471  0.2329 -2.3708  0.5829
 3265SOL    HW210695   5.371   6.413   6.499  0.1216 -1.5008 -0.9211
 3266SOL     OW10696   3.566   4.435   6.665 -0.5055 -0.2124  0.0605
 3266SOL    HW110697   3.563   4.441   6.565  2.2136 -0.4007 -0.1158
 3266SOL    HW210698   3.639   4.494   6.700 -0.5327 -1.1445  1.8254
 3267SOL     OW10699   1.680   0.535   1.397 -0.4300  0.4839 -0.9135
 3267SOL    HW110700   1.779   0.551   1.407 -0.1363  0.7481 -3.5515
 3267SOL    HW210701   1.636   0.618   1.365 -1.4627  0.2024 -0.2754
 3268SOL     OW10702   5.629   4.410   2.053 -0.0661  0.4150  0.6736
 3268SOL    HW110703   5.639   4.504   2.020  0.5377 -0.0265 -0.4551
 3268SOL    HW210704   5.719   4.369   2.065 -0.3344 -0.1794  0.6878
 3269SOL     OW10705   4.065   5.678   6.829  0.1514 -0.8080  0.0408
 3269SOL    HW110706   4.124   5.631   6.894 -0.3515  0.2859  1.3299
 3269SOL    HW210707   3.970   5.651   6.843 -0.1335  0.4403  0.7254
 3270SOL     OW10708   1.852   4.109   5.559 -0.2120  0.0630 -0.2510
 3270SOL    HW110709   1.914   4.037   5.529 -0.4366  0.3985 -1.5862
 3270SOL    HW210710   1.817   4.158   5.479 -1.1818  0.7178  0.5524
 3271SOL     OW10711   6.189   3.258   1.642 -0.5478 -0.1761  0.6169
 3271SOL    HW110712   6.239   3.331   1.689  0.7385  0.3598 -1.4677
 3271SOL    HW210713   6.156   3.192   1.710 -1.5791  2.1688  2.5638
 3272SOL     OW10714   2.887   6.610   1.920  0.3142 -0.3775  0.1995
 3272SOL    HW110715   2.840   6.596   2.008 -0.2665  0.3241  0.0107
 3272SOL    HW210716   2.919   6.704   1.915  0.0818 -0.3317 -0.4656
 3273SOL     OW10717   4.713   2.566   0.896 -0.5608 -0.0180  0.0869
 3273SOL    HW110718   4.635   2.507   0.873 -1.4043  1.8807 -2.3522
 3273SOL    HW210719   4.687   2.662   0.882  2.5066  0.6440 -1.7824
 3274SOL     OW10720   3.718   1.934   1.649  0.3220  0.1695  0.4723
 3274SOL    HW110721   3.792   1.885   1.603  0.8864 -1.2594  2.7129
 3274SOL    HW210722   3.741   2.031   1.656 -0.0457  0.5930 -2.5675
 3275SOL     OW10723   4.913   0.470   2.503  0.0095  0.3862 -0.7831
 3275SOL    HW110724   4.823   0.428   2.516 -0.5354  1.8846  0.5305
 3275SOL    HW210725   4.950   0.442   2.414 -1.2653 -1.1063 -0.8826
 3276SOL     OW10726   0.774   5.176   1.511  0.4440 -0.3958  0.8164
 3276SOL    HW110727   0.824   5.208   1.430  1.3170 -0.1959  1.4157
 3276SOL    HW210728   0.803   5.083   1.533  0.3840 -0.3605  1.0425
 3277SOL     OW10729   5.898   1.952   1.948 -0.5911  0.4402 -0.1377
 3277SOL    HW110730   5.824   2.007   1.986  0.8721  1.5076  1.2620
 3277SOL    HW210731   5.932   1.890   2.018 -0.6159 -0.5683 -0.9954
 3278SOL     OW10732   3.715   7.012   0.811 -0.4942 -0.3548  0.1362
 3278SOL    HW110733   3.809   6.998   0.842 -1.4482 -0.3312  3.4011
 3278SOL    HW210734   3.705   7.103   0.772  0.2552  0.7749  2.4698
 3279SOL     OW10735   2.970   2.180   3.502 -0.2413  0.3625 -0.2206
 3279SOL    HW110736   2.920   2.212   3.582 -0.2658 -1.3730  0.4956
 3279SOL    HW210737   3.068   2.197   3.514 -0.0793 -1.1574  0.8539
 3280SOL     OW10738   6.906   1.202   5.799 -0.1890 -0.5009 -0.0928
 3280SOL    HW110739   6.889   1.123   5.741 -0.1503 -1.2226  0.8541
 3280SOL    HW210740   6.857   1.282   5.763 -1.0218 -1.1936 -0.5168
 3281SOL     OW10741   6.157   3.713   3.231  0.1788  0.1817 -0.4675
 3281SOL    HW110742   6.149   3.616   3.208 -0.3396  0.3338 -0.9618
 3281SOL    HW210743   6.071   3.759   3.209  0.7914  0.9680 -1.2755
 3282SOL     OW10744   6.975   4.720   4.927 -0.2018  0.4493 -0.2510
 3282SOL    HW110745   7.044   4.725   4.855  0.2779 -0.5175  0.1166
 3282SOL    HW210746   6.894   4.673   4.891 -0.1942  0.5047 -0.3409
 3283SOL     OW10747   3.110   2.118   3.095  1.0358  0.4587 -0.1782
 3283SOL    HW110748   3.182   2.066   3.141  0.0206  0.5227  1.5707
 3283SOL    HW210749   3.121   2.109   2.996  1.3716 -2.3968  0.0279
 3284SOL     OW10750   2.505   0.366   4.974 -0.3150  0.6350  0.0083
 3284SOL    HW110751   2.452   0.448   4.995  0.2300  0.9556  0.1695
 3284SOL    HW210752   2.465   0.288   5.021  0.3218  1.1755  1.5438
 3285SOL     OW10753   4.901   1.661   3.952 -0.7207 -0.4150  0.1904
 3285SOL    HW110754   4.811   1.673   3.910 -0.7981 -1.3838  0.0538
 3285SOL    HW210755   4.921   1.564   3.960  0.5318 -0.2078 -0.2350
 3286SOL     OW10756   0.504   5.289   4.293 -0.1911  0.1520 -0.1150
 3286SOL    HW110757   0.600   5.316   4.293  0.6141 -2.4622 -0.3600
 3286SOL    HW210758   0.455   5.342   4.223  1.0613  1.4450 -0.0606
 3287SOL     OW10759   2.123   1.569   0.379  0.1546 -0.3285  0.4468
 3287SOL    HW110760   2.146   1.644   0.316  0.2827  0.3579  1.2915
 3287SOL    HW210761   2.072   1.605   0.456 -3.0420 -1.6691 -0.8793
 3288SOL     OW10762   4.183   4.631   1.430 -0.0731 -0.0032 -0.2291
 3288SOL    HW110763   4.205   4.702   1.497 -0.3155  0.0139 -0.1670
 3288SOL    HW210764   4.257   4.565   1.425  0.4907  0.6511 -0.8121
 3289SOL     OW10765   3.967   6.875   1.501  0.1566  0.0228 -0.2286
 3289SOL    HW110766   4.001   6.927   1.579  3.0399  0.9898 -1.9598
 3289SOL    HW210767   3.896   6.928   1.454  0.5014  0.7729  0.0787
 3290SOL     OW10768   2.216   4.816   6.958  0.0749  0.0437 -0.0339
 3290SOL    HW110769   2.117   4.815   6.949 -0.0181  2.7334 -0.0560
 3290SOL    HW210770   2.240   4.823   7.055  0.1923  0.9106 -0.1239
 3291SOL     OW10771   6.056   6.564   6.656  0.7416  0.1337 -0.2839
 3291SOL    HW110772   6.045   6.590   6.560  1.1987  0.6669 -0.1978
 3291SOL    HW210773   5.971   6.583   6.705  0.0941 -1.2408 -0.8113
 3292SOL     OW10774   1.775   3.358   0.210 -0.3748 -0.1004 -0.4027
 3292SOL    HW110775   1.866   3.393   0.230 -0.6076  0.8917 -0.9921
 3292SOL    HW210776   1.706   3.415   0.254 -0.7233 -0.8918  0.1085
 3293SOL     OW10777   5.920   4.153   1.237  0.4651 -0.5905  0.0011
 3293SOL    HW110778   5.827   4.165   1.274  0.9105  0.9047  0.6961
 3293SOL    HW210779   5.983   4.132   1.311  0.8391 -0.7453 -0.3574
 3294SOL     OW10780   4.355   3.350   6.771 -0.5995  0.5613 -0.3696
 3294SOL    HW110781   4.425   3.292   6.813 -0.4164 -0.3604 -1.8734
 3294SOL    HW210782   4.365   3.443   6.805 -0.2723 -0.0523  1.3600
 3295SOL     OW10783   1.859   2.542   1.992 -0.3764 -0.8038 -1.0860
 3295SOL    HW110784   1.898   2.484   2.064  1.3376  2.0544  0.4910
 3295SOL    HW210785   1.928   2.559   1.922 -0.1557  0.7643 -0.5387
 3296SOL     OW10786   2.205   0.383   1.884 -0.3320 -0.1153  0.6455
 3296SOL    HW110787   2.146   0.436   1.822  0.4310 -0.5205 -0.4654
 3296SOL    HW210788   2.150   0.316   1.933 -0.6459 -1.4326 -1.3822
 3297SOL     OW10789   6.458   0.283   6.735  0.3037  0.0647 -0.0057
 3297SOL    HW110790   6.405   0.275   6.650  0.9385  0.6312 -0.4673
 3297SOL    HW210791   6.529   0.212   6.737  1.3087  1.0190 -0.7121
 3298SOL     OW10792   4.781   4.094   6.002  0.7064 -0.2415 -0.0571
 3298SOL    HW110793   4.702   4.131   6.051  1.1062  0.3512  0.1557
 3298SOL    HW210794   4.761   4.001   5.972 -1.3733  0.9983 -2.9877
 3299SOL     OW10795   3.609   0.179   4.498  0.1221 -0.5106 -0.0794
 3299SOL    HW110796   3.658   0.188   4.585  1.6549 -1.5033 -0.7880
 3299SOL    HW210797   3.626   0.261   4.442  0.4331 -0.5505 -0.0488
 3300SOL     OW10798   1.028   0.261   2.860 -0.1696 -0.3620  0.0216
 3300SOL    HW110799   0.970   0.180   2.845 -2.3073  1.0540  0.1888
 3300SOL    HW210800   0.980   0.325   2.919  1.4556  1.0747 -0.1584
 3301SOL     OW10801   0.538   3.139   1.407 -0.2428  0.1032 -0.0227
 3301SOL    HW110802   0.575   3.080   1.479  0.6517 -0.3299 -0.7992
 3301SOL    HW210803   0.601   3.216   1.392  1.3579 -1.5327 -2.5122
 3302SOL     OW10804   0.143   3.596   4.579 -0.4250 -0.2825  0.0592
 3302SOL    HW110805   0.071   3.665   4.591  1.0321  1.8490 -2.4452
 3302SOL    HW210806   0.139   3.558   4.487  0.0311 -2.1500  0.7677
 3303SOL     OW10807   3.978   4.693   6.157 -0.0147 -0.3471  0.0862
 3303SOL    HW110808   3.932   4.613   6.196 -1.4027 -0.3271 -1.4282
 3303SOL    HW210809   3.973   4.690   6.057  0.3499  1.3683 -0.0219
 3304SOL     OW10810   1.640   5.149   0.282 -0.6058 -0.1866  0.1063
 3304SOL    HW110811   1.691   5.095   0.349  1.8246  1.9904  0.1970
 3304SOL    HW210812   1.569   5.202   0.329  0.3039  0.4347  0.8117
 3305SOL     OW10813   3.099   2.361   0.507 -0.2554  0.7994  0.0767
 3305SOL    HW110814   3.091   2.401   0.416 -0.3228 -1.4631 -0.9963
 3305SOL    HW210815   3.193   2.328   0.521 -0.1914  1.3311  0.9150
 3306SOL     OW10816   1.896   1.861   1.107  0.0908  0.0177  0.1885
 3306SOL    HW110817   1.884   1.819   1.196 -1.5579 -1.2194 -0.5551
 3306SOL    HW210818   1.972   1.817   1.059  0.3185 -0.0207  0.5833
 3307SOL     OW10819   5.126   5.524   4.902 -0.1636  0.3349  0.2699
 3307SOL    HW110820   5.212   5.477   4.920 -0.8220 -0.6324  1.0790
 3307SOL    HW210821   5.062   5.506   4.978 -1.1060  0.9331 -0.3563
 3308SOL     OW10822   0.160   4.558   1.985 -0.5389 -0.6202  0.5746
 3308SOL    HW110823   0.249   4.568   1.942 -1.2486 -0.1519 -0.8286
 3308SOL    HW210824   0.135   4.644   2.030 -0.1988 -0.8272  1.1812
 3309SOL     OW10825   5.381   3.216   4.833 -0.0837 -0.4100 -0.1684
 3309SOL    HW110826   5.371   3.222   4.734 -1.1052  0.5603 -0.0248
 3309SOL    HW210827   5.295   3.186   4.873 -0.3504  1.2017  0.5644
 3310SOL     OW10828   6.029   3.935   0.304 -0.2958  0.0501 -0.0195
 3310SOL    HW110829   5.946   3.962   0.255 -0.2417 -0.3856 -0.3527
 3310SOL    HW210830   6.023   3.968   0.399 -1.4165 -1.0451  0.3207
 3311SOL     OW10831   6.069   1.062   6.897  0.6467 -0.5836 -0.1846
 3311SOL    HW110832   6.149   1.112   6.928 -0.5109  1.4032 -0.2466
 3311SOL    HW210833   5.999   1.063   6.969 -0.3109  0.0315 -1.1000
 3312SOL     OW10834   6.162   3.200   6.971 -0.0700 -0.6183 -0.1918
 3312SOL    HW110835   6.180   3.211   7.069 -0.9119  0.3327 -0.1287
 3312SOL    HW210836   6.249   3.207   6.921  0.4386 -1.6309  0.5055
 3313SOL     OW10837   6.999   4.825   2.369  0.1265 -0.3550 -0.0421
 3313SOL    HW110838   6.993   4.875   2.283  0.5692 -0.7143 -0.2860
 3313SOL    HW210839   7.043   4.883   2.438 -0.3261 -0.0282 -0.0221
 3314SOL     OW10840   5.369   5.748   1.858  0.0960  0.0240 -0.3419
 3314SOL    HW110841   5.329   5.748   1.766 -0.2620 -2.3050 -0.2583
 3314SOL    HW210842   5.367   5.655   1.895  1.4303  0.6696  1.5233
 3315SOL     OW10843   0.001   0.706   4.542 -0.2288  0.8942 -0.0781
 3315SOL    HW110844  -0.068   0.634   4.555 -0.1460  0.5968 -1.2232
 3315SOL    HW210845  -0.032   0.791   4.582 -0.3676  0.2608  1.2310
 3316SOL     OW10846   2.338   2.382   0.171  0.3514 -0.1561  0.2560
 3316SOL    HW110847   2.335   2.377   0.071 -0.5191 -0.2233  0.2791
 3316SOL    HW210848   2.252   2.422   0.205  0.1513 -1.2176  1.0461
 3317SOL     OW10849   4.845   2.200   1.701 -0.2254 -0.4789 -0.0670
 3317SOL    HW110850   4.904   2.261   1.755 -0.4315  0.4551 -0.8622
 3317SOL    HW210851   4.749   2.226   1.715 -0.3900 -1.2698  0.3466
 3318SOL     OW10852   2.895   3.118   0.491  0.5059  0.1511 -0.5633
 3318SOL    HW110853   2.927   3.069   0.572  0.2612  0.1360 -0.4742
 3318SOL    HW210854   2.807   3.160   0.511  0.6578  0.5224 -0.6799
 3319SOL     OW10855   6.180   6.785   3.955  0.2273  0.0357  0.2777
 3319SOL    HW110856   6.163   6.881   3.930  0.0328  0.4666  1.9187
 3319SOL    HW210857   6.114   6.756   4.024  0.4837 -1.1983  0.0310
 3320SOL     OW10858   6.386   6.766   3.099 -0.3004 -0.5604 -0.0249
 3320SOL    HW110859   6.307   6.706   3.091  0.2609 -1.1183 -1.7043
 3320SOL    HW210860   6.462   6.717   3.141 -0.6777 -0.1527  1.1848
 3321SOL     OW10861   3.828   1.949   5.912 -0.2952  0.3669  0.0031
 3321SOL    HW110862   3.855   1.905   5.826 -0.2415 -3.0331  1.5987
 3321SOL    HW210863   3.909   1.972   5.965 -0.3656  0.9434 -0.1300
 3322SOL     OW10864   5.662   3.345   1.070 -0.4523  0.1696 -0.3539
 3322SOL    HW110865   5.670   3.298   1.158  1.8423  0.5433 -0.3006
 3322SOL    HW210866   5.750   3.386   1.047 -1.2869  0.9069 -2.3787
 3323SOL     OW10867   0.065   1.353   1.403  0.4459 -0.4653  0.6081
 3323SOL    HW110868   0.005   1.414   1.455  0.1627 -1.2552  1.2316
 3323SOL    HW210869   0.010   1.294   1.345  0.7714  0.5988 -0.8503
 3324SOL     OW10870   6.934   3.864   6.403  0.9738 -0.0155 -0.1545
 3324SOL    HW110871   6.840   3.893   6.421  0.9627 -0.6576  0.8888
 3324SOL    HW210872   6.933   3.781   6.348  0.9792  0.8376 -1.5025
 3325SOL     OW10873   1.003   5.264   5.734  0.4484  0.3120  0.2444
 3325SOL    HW110874   1.026   5.310   5.648  0.3713 -0.0765  0.0147
 3325SOL    HW210875   0.973   5.171   5.715 -0.4627  0.5180  0.6084
 3326SOL     OW10876   3.508   2.832   1.720 -0.4755 -0.2469 -0.3746
 3326SOL    HW110877   3.457   2.840   1.806 -1.5063  1.8423 -1.0903
 3326SOL    HW210878   3.556   2.745   1.717 -0.3306 -0.3453  2.3421
 3327SOL     OW10879   1.325   5.306   6.324 -0.7740  0.4784  0.0949
 3327SOL    HW110880   1.294   5.379   6.264 -0.9358 -0.3790 -0.8916
 3327SOL    HW210881   1.257   5.290   6.396 -1.8588 -0.2667 -1.0677
 3328SOL     OW10882   2.997   1.303   6.237  0.1947  0.0856  0.2158
 3328SOL    HW110883   3.062   1.356   6.291  0.0238 -0.3835  0.8906
 3328SOL    HW210884   2.950   1.364   6.172 -0.2476  0.8268  1.2088
 3329SOL     OW10885   1.002   5.597   5.137  0.2084  0.3503 -0.4902
 3329SOL    HW110886   1.034   5.659   5.209  1.1768  0.0266 -0.6270
 3329SOL    HW210887   1.073   5.586   5.068  0.9163 -2.4724  0.5407
 3330SOL     OW10888   6.739   2.275   3.782 -0.3269  0.9735 -0.4003
 3330SOL    HW110889   6.773   2.318   3.699  0.1465  1.1169 -0.1429
 3330SOL    HW210890   6.750   2.176   3.776 -2.8663  0.7051 -1.6378
 3331SOL     OW10891   3.646   4.527   0.621  0.2981  0.3901  0.0156
 3331SOL    HW110892   3.736   4.483   0.627 -0.4129 -0.9453  2.0601
 3331SOL    HW210893   3.575   4.461   0.643 -0.9972  2.0194  1.0014
 3332SOL     OW10894   6.561   6.548   1.426 -0.3654 -0.2681  0.0178
 3332SOL    HW110895   6.582   6.618   1.357 -1.8292 -0.6611 -0.8636
 3332SOL    HW210896   6.494   6.584   1.490 -2.2229 -1.2845 -1.2820
 3333SOL     OW10897   3.236   6.580   4.360  0.1214  0.1102  0.3570
 3333SOL    HW110898   3.197   6.617   4.276 -1.8687  0.4745  1.3722
 3333SOL    HW210899   3.193   6.624   4.439 -0.8162 -2.7953  1.6212
 3334SOL     OW10900   0.375   2.540   2.055  0.1536 -0.1081  0.1427
 3334SOL    HW110901   0.377   2.557   1.957 -2.8861 -0.3832 -0.0829
 3334SOL    HW210902   0.369   2.441   2.072 -0.5191 -0.0102  0.5256
 3335SOL     OW10903   4.734   3.889   5.506  0.0914  0.5896 -0.2522
 3335SOL    HW110904   4.679   3.899   5.589  0.0021  1.2732 -0.3804
 3335SOL    HW210905   4.803   3.962   5.503  0.6178  0.0880 -0.3844
 3336SOL     OW10906   2.670   5.923   6.049 -0.1541  0.1041  0.3792
 3336SOL    HW110907   2.671   5.830   6.011  0.9636 -0.2734  1.2652
 3336SOL    HW210908   2.644   5.919   6.145 -0.4984  0.7596  0.3169
 3337SOL     OW10909   3.262   0.528   1.062 -0.0454  0.0500  0.3081
 3337SOL    HW110910   3.203   0.607   1.046  0.4478  0.8278  2.1264
 3337SOL    HW210911   3.345   0.537   1.007 -0.6807 -0.0264 -0.6932
 3338SOL     OW10912   5.211   3.955   0.460 -0.4958  0.4516  0.2779
 3338SOL    HW110913   5.250   4.029   0.515  0.4792 -1.4619  2.3245
 3338SOL    HW210914   5.120   3.934   0.494  0.0966 -0.7160  1.1953
 3339SOL     OW10915   5.500   6.851   6.692 -0.1186  0.1918  0.2472
 3339SOL    HW110916   5.414   6.892   6.724  0.8760  1.5189  1.3681
 3339SOL    HW210917   5.541   6.799   6.766  0.2939 -0.0269 -0.1331
 3340SOL     OW10918   3.235   6.707   0.796 -0.4228 -0.0532  0.3478
 3340SOL    HW110919   3.290   6.781   0.758 -0.0949 -0.4291  0.0811
 3340SOL    HW210920   3.232   6.716   0.896  0.7799 -0.4680  0.4357
 3341SOL     OW10921   0.749   6.493   0.806  0.4276 -0.6684 -0.6389
 3341SOL    HW110922   0.802   6.449   0.734  0.1948 -3.2530  0.6710
 3341SOL    HW210923   0.764   6.447   0.893 -1.3479  0.6712  0.4692
 3342SOL     OW10924   1.719   6.260   5.470 -0.6713 -0.5512  0.0971
 3342SOL    HW110925   1.808   6.244   5.427 -0.6996 -2.5174  0.6712
 3342SOL    HW210926   1.703   6.358   5.478  1.9517 -0.1134  0.9585
 3343SOL     OW10927   0.982   2.023   0.801  0.3374  0.3271  0.2367
 3343SOL    HW110928   0.910   2.000   0.736  1.1620  0.8652 -0.8958
 3343SOL    HW210929   0.969   1.970   0.885 -0.5548 -0.6194 -0.4742
 3344SOL     OW10930   2.531   2.635   6.464  0.0171  0.0361 -0.2356
 3344SOL    HW110931   2.566   2.679   6.546 -2.7703  2.9466 -0.3947
 3344SOL    HW210932   2.583   2.667   6.384  0.1481  0.4810  0.0229
 3345SOL     OW10933   2.989   0.841   0.046  0.1472  0.4348 -0.0237
 3345SOL    HW110934   3.089   0.850   0.040 -0.0017  2.0147 -0.7958
 3345SOL    HW210935   2.966   0.784   0.124  1.6559  0.1959  0.2911
 3346SOL     OW10936   3.422   5.992   3.973 -0.4942 -0.0325 -0.0376
 3346SOL    HW110937   3.491   6.044   4.023 -1.5489  0.4547  0.9621
 3346SOL    HW210938   3.460   5.962   3.885  1.5109 -1.1795  1.1586
 3347SOL     OW10939   0.385   3.298   2.679 -0.4666 -0.3532 -0.7358
 3347SOL    HW110940   0.306   3.351   2.647 -0.4818  0.6948  0.8809
 3347SOL    HW210941   0.419   3.241   2.605 -1.8530  0.2448 -1.8965
 3348SOL     OW10942   2.904   3.462   3.949 -0.2103 -0.3413 -0.0230
 3348SOL    HW110943   2.913   3.366   3.975  1.1263  0.0535  1.1572
 3348SOL    HW210944   2.878   3.516   4.029 -1.2285  0.2526 -0.7364
 3349SOL     OW10945   4.624   2.036   6.708  0.1735 -0.0971  0.4482
 3349SOL    HW110946   4.647   1.952   6.658  1.0042  0.6872 -0.5233
 3349SOL    HW210947   4.580   2.011   6.795  0.7843 -1.5472  0.3806
 3350SOL     OW10948   1.256   3.641   6.462  0.2868 -0.0111 -0.0300
 3350SOL    HW110949   1.325   3.570   6.459  0.2464 -0.0256 -1.3162
 3350SOL    HW210950   1.299   3.729   6.483  0.7819  0.0470 -1.2049
 3351SOL     OW10951   5.193   2.857   1.246 -0.2938  0.9282  0.1581
 3351SOL    HW110952   5.130   2.881   1.172  0.0957 -1.3539 -0.9659
 3351SOL    HW210953   5.141   2.814   1.320 -0.5217  2.2507  0.8025
 3352SOL     OW10954   1.624   2.668   1.866  0.1811  0.9594 -0.2974
 3352SOL    HW110955   1.566   2.661   1.947 -2.2945  0.2640 -2.0032
 3352SOL    HW210956   1.709   2.618   1.881 -1.0527 -0.8184  1.2198
 3353SOL     OW10957   1.107   6.793   0.608  0.5076  0.3486  0.7714
 3353SOL    HW110958   1.026   6.831   0.563  1.4247  1.0740 -0.3102
 3353SOL    HW210959   1.094   6.695   0.624  0.1691  0.0588 -1.1162
 3354SOL     OW10960   1.071   0.029   2.241  0.2048  0.2520  0.2720
 3354SOL    HW110961   1.083   0.004   2.337  0.1703  0.7579  0.4119
 3354SOL    HW210962   0.975   0.016   2.216 -0.0008  1.0489  0.5906
 3355SOL     OW10963   5.837   1.147   4.516 -0.2675  0.2969 -0.1461
 3355SOL    HW110964   5.861   1.200   4.435  0.0669 -1.9687 -1.6181
 3355SOL    HW210965   5.799   1.059   4.488  2.0134 -1.5541  2.0869
 3356SOL     OW10966   2.894   2.681   5.869 -0.0478 -0.0163 -0.3375
 3356SOL    HW110967   2.878   2.620   5.947  1.5927  2.3472  2.0150
 3356SOL    HW210968   2.936   2.629   5.795 -1.9203 -2.4210  0.1364
 3357SOL     OW10969   2.643   6.413   4.289  0.0698  0.0296 -0.1346
 3357SOL    HW110970   2.691   6.327   4.306 -0.2538 -0.0563  0.3698
 3357SOL    HW210971   2.653   6.439   4.193  2.6853  0.9772  0.2991
 3358SOL     OW10972   1.082   4.777   4.031 -0.3292  0.6262 -0.6019
 3358SOL    HW110973   1.152   4.735   3.975  0.1708  3.0114 -1.9145
 3358SOL    HW210974   1.001   4.795   3.976 -1.8939 -1.6545  0.7797
 3359SOL     OW10975   1.308   2.038   0.447 -0.1418 -0.2393  0.2406
 3359SOL    HW110976   1.339   2.002   0.358  1.3168  2.1453 -0.3079
 3359SOL    HW210977   1.375   2.105   0.480 -2.1982  1.2232  1.6394
 3360SOL     OW10978   3.201   6.987   0.154  0.4579  0.0290  0.5037
 3360SOL    HW110979   3.218   6.977   0.252 -0.7602 -0.3486  0.6902
 3360SOL    HW210980   3.250   6.914   0.105 -0.6819 -1.1520  1.0461
 3361SOL     OW10981   3.334   0.026   6.847 -0.2680 -0.0060  0.1375
 3361SOL    HW110982   3.418   0.005   6.796 -0.1553  0.6310  0.0457
 3361SOL    HW210983   3.337   0.122   6.877  0.4651 -0.8272  2.9035
 3362SOL     OW10984   2.930   1.137   4.316  0.5034 -0.2931  0.0589
 3362SOL    HW110985   2.833   1.162   4.313  0.6190  0.5650  2.2419
 3362SOL    HW210986   2.939   1.038   4.304 -0.8374 -0.6568  1.7245
 3363SOL     OW10987   2.433   1.152   0.801 -0.0486 -0.0340 -0.6324
 3363SOL    HW110988   2.499   1.214   0.758  0.4230 -1.8586 -2.6699
 3363SOL    HW210989   2.340   1.179   0.776  0.0904  0.4365 -0.6506
 3364SOL     OW10990   1.530   5.693   5.334  0.1521  0.2711  0.2382
 3364SOL    HW110991   1.473   5.680   5.254  0.8656  0.9842 -0.4061
 3364SOL    HW210992   1.558   5.604   5.371  0.6226 -0.0643 -0.8995
 3365SOL     OW10993   5.871   1.936   4.106  0.2770  0.8655  0.1448
 3365SOL    HW110994   5.833   2.026   4.129 -0.4316  1.0712 -1.6504
 3365SOL    HW210995   5.802   1.866   4.123 -0.2225  1.0104 -1.1379
 3366SOL     OW10996   4.460   1.566   6.445 -0.1196  0.2618  0.2374
 3366SOL    HW110997   4.439   1.637   6.511 -1.1074  0.9892 -0.8192
 3366SOL    HW210998   4.410   1.482   6.468  0.7088  0.0302  1.2362
 3367SOL     OW10999   2.536   1.147   3.344 -0.4063  0.2717  0.2877
 3367SOL    HW111000   2.445   1.155   3.384 -0.1294 -1.0698  1.2629
 3367SOL    HW211001   2.604   1.183   3.409 -0.0343 -1.1060  0.7031
 3368SOL     OW11002   6.340   1.415   3.364 -0.0375 -0.8274  0.5044
 3368SOL    HW111003   6.354   1.463   3.451 -1.6599 -0.5450  0.6380
 3368SOL    HW211004   6.354   1.478   3.288 -0.7046 -0.5203  0.6338
 3369SOL     OW11005   3.383   3.251   5.671 -0.2066 -0.2714 -0.0451
 3369SOL    HW111006   3.370   3.300   5.584  0.7937  1.1105  0.5465
 3369SOL    HW211007   3.338   3.162   5.666 -0.5845 -0.0205 -1.8045
 3370SOL     OW11008   0.378   0.032   4.138 -0.0678 -0.2715 -0.1590
 3370SOL    HW111009   0.352  -0.045   4.196 -0.0436 -0.2934 -0.1769
 3370SOL    HW211010   0.346   0.117   4.179  0.8125 -0.1943  0.4043
 3371SOL     OW11011   4.808   6.725   2.093 -0.0342  0.1748 -0.0514
 3371SOL    HW111012   4.728   6.777   2.123 -0.6286  0.2991 -1.7741
 3371SOL    HW211013   4.780   6.635   2.060  0.8667 -0.8413  1.8207
 3372SOL     OW11014   2.600   2.464   2.471  0.1146  0.5019 -0.0079
 3372SOL    HW111015   2.610   2.549   2.420  1.0250  0.5221  0.1830
 3372SOL    HW211016   2.548   2.481   2.555 -0.0422  0.7834 -0.1600
 3373SOL     OW11017   0.120   2.423   4.994  0.4507 -0.3681  0.4910
 3373SOL    HW111018   0.065   2.505   5.005  4.0659  2.1524  1.4291
 3373SOL    HW211019   0.169   2.403   5.079  2.2917 -1.4033 -0.7304
 3374SOL     OW11020   2.969   6.176   5.627 -0.1042 -0.4026 -0.0479
 3374SOL    HW111021   3.003   6.269   5.614 -2.8518  0.8395  0.9187
 3374SOL    HW211022   2.925   6.145   5.543  0.6039 -0.7494 -0.2947
 3375SOL     OW11023   3.533   4.831   6.728 -0.5788  0.4720  0.3844
 3375SOL    HW111024   3.626   4.804   6.704 -0.5628  0.0092  0.9220
 3375SOL    HW211025   3.488   4.872   6.649  0.5138  1.9279  0.4741
 3376SOL     OW11026   5.053   2.043   1.012  0.3830 -0.8365 -0.2265
 3376SOL    HW111027   4.994   2.004   0.942 -1.6806 -1.7838  1.8869
 3376SOL    HW211028   5.007   2.036   1.101  1.5864  2.9166  0.8634
 3377SOL     OW11029   3.200   5.644   0.132  0.4451  0.4851  0.2802
 3377SOL    HW111030   3.179   5.596   0.218  1.7788 -0.6839 -0.0091
 3377SOL    HW211031   3.293   5.682   0.137  0.5255  0.4276 -0.6408
 3378SOL     OW11032   6.087   1.876   0.605 -0.5410  0.0254  0.3075
 3378SOL    HW111033   6.086   1.976   0.617  0.3009  0.1762 -0.8018
 3378SOL    HW211034   6.118   1.833   0.690 -1.4770  0.6609  0.9949
 3379SOL     OW11035   6.014   5.502   5.469 -0.0541  0.0816 -0.1247
 3379SOL    HW111036   6.112   5.510   5.450 -0.5409  3.9334 -2.0365
 3379SOL    HW211037   5.994   5.546   5.557  0.0046 -1.9770  0.9818
 3380SOL     OW11038   0.541   4.139   5.266  0.3057  0.1005 -0.0241
 3380SOL    HW111039   0.600   4.061   5.244  0.8369 -0.4654  3.0495
 3380SOL    HW211040   0.474   4.112   5.334 -0.9143  1.8310 -0.4735
 3381SOL     OW11041   2.301   2.969   6.911  0.0798 -0.1605  0.0886
 3381SOL    HW111042   2.269   2.998   6.820 -1.0900 -1.2716  0.1162
 3381SOL    HW211043   2.401   2.961   6.910  0.0594 -0.4718 -1.1979
 3382SOL     OW11044   5.878   6.611   6.890 -0.6580 -0.2520 -0.2064
 3382SOL    HW111045   5.780   6.624   6.872 -0.5931  1.9770  0.7372
 3382SOL    HW211046   5.891   6.533   6.952 -1.8724 -0.2299  0.0995
 3383SOL     OW11047   0.944   6.373   3.182  0.3917 -0.0381  0.0848
 3383SOL    HW111048   1.004   6.423   3.119 -0.4400  1.0843  0.1506
 3383SOL    HW211049   0.999   6.321   3.247  1.2871  0.6634 -0.0965
 3384SOL     OW11050   3.776   2.934   2.060 -0.0872 -0.3138 -0.0353
 3384SOL    HW111051   3.726   2.849   2.075  0.5585 -0.4742  1.3570
 3384SOL    HW211052   3.778   2.987   2.144  0.6285  0.4847 -0.5375
 3385SOL     OW11053   6.904   1.405   4.251 -0.2417  0.4694  0.7362
 3385SOL    HW111054   6.956   1.323   4.276  0.3147  0.0474 -1.6079
 3385SOL    HW211055   6.812   1.398   4.288  0.5381  0.0335  2.7676
 3386SOL     OW11056   5.534   4.721   4.228  0.9771  0.1294  0.3150
 3386SOL    HW111057   5.531   4.696   4.131  1.0387  0.6956  0.1657
 3386SOL    HW211058   5.546   4.820   4.237 -1.2689  0.4098  0.8839
 3387SOL     OW11059   3.056   1.456   1.809  0.0878 -0.2253 -0.0616
 3387SOL    HW111060   3.039   1.543   1.856 -0.7644  0.2369 -1.1898
 3387SOL    HW211061   3.052   1.382   1.876  0.8611  0.5833  0.9245
 3388SOL     OW11062   5.558   2.643   1.556 -0.2089 -0.2020  0.4255
 3388SOL    HW111063   5.481   2.705   1.568  1.1477  1.3474  1.4734
 3388SOL    HW211064   5.577   2.596   1.642 -0.3118 -0.9967  0.0226
 3389SOL     OW11065   4.587   5.198   2.200  0.6885  0.2578  0.3304
 3389SOL    HW111066   4.645   5.160   2.272 -0.8453  0.7742  1.9218
 3389SOL    HW211067   4.516   5.132   2.176 -1.6065  1.7006  2.6646
 3390SOL     OW11068   3.946   2.001   4.348 -0.1449  0.0032  0.0292
 3390SOL    HW111069   3.954   1.953   4.261 -0.3912 -0.4547  0.2507
 3390SOL    HW211070   4.010   1.961   4.414  0.7371  0.9874 -0.2145
 3391SOL     OW11071   3.019   0.356   4.881  0.2563  0.4940  0.3969
 3391SOL    HW111072   2.920   0.363   4.889  0.1954  0.2740 -0.1212
 3391SOL    HW211073   3.062   0.413   4.951 -0.2334  0.7500  0.4958
 3392SOL     OW11074   5.812   5.586   4.373  0.3271 -0.5289 -0.1275
 3392SOL    HW111075   5.834   5.508   4.431 -0.0941 -0.0200  0.7301
 3392SOL    HW211076   5.715   5.584   4.350 -0.0472  0.5956  1.2316
 3393SOL     OW11077   0.483   1.240   4.461  0.5087  0.2933 -0.1967
 3393SOL    HW111078   0.571   1.215   4.501 -0.3832  0.4093  1.9719
 3393SOL    HW211079   0.481   1.339   4.443  0.6468  0.3750  0.2298
 3394SOL     OW11080   5.205   0.764   2.627  0.2185 -0.2122  0.3507
 3394SOL    HW111081   5.217   0.726   2.535  0.3837  1.7074 -0.4570
 3394SOL    HW211082   5.271   0.837   2.642 -0.7271  0.4497  1.4640
 3395SOL     OW11083   0.466   3.506   5.086  0.5930  0.7370 -0.1238
 3395SOL    HW111084   0.521   3.586   5.109  2.7134 -1.0422  1.3722
 3395SOL    HW211085   0.499   3.467   5.000  0.4481  0.7259 -0.1742
 3396SOL     OW11086   6.063   3.864   5.651  0.3285  0.1889 -0.4285
 3396SOL    HW111087   5.973   3.821   5.648 -0.5663  1.9795 -0.2689
 3396SOL    HW211088   6.133   3.793   5.658 -1.1357 -1.1948  0.9463
 3397SOL     OW11089   2.475   5.408   7.011  0.4644 -0.3396  0.4067
 3397SOL    HW111090   2.487   5.312   6.985 -0.0712 -0.0943 -0.8211
 3397SOL    HW211091   2.455   5.414   7.109  0.3834 -1.4883  0.4722
 3398SOL     OW11092   1.142   1.997   3.413 -0.1582  0.0735  0.7588
 3398SOL    HW111093   1.131   1.971   3.509  0.7329 -0.7497  0.6495
 3398SOL    HW211094   1.237   2.020   3.395 -0.3681  0.4723  0.1302
 3399SOL     OW11095   3.718   5.629   3.306 -0.6032  0.0628 -0.6245
 3399SOL    HW111096   3.748   5.622   3.402 -1.8131 -0.0983 -0.2496
 3399SOL    HW211097   3.781   5.577   3.248  0.8876  1.1802 -0.0964
 3400SOL     OW11098   5.718   2.828   0.918 -0.3774  0.0595  0.2726
 3400SOL    HW111099   5.793   2.783   0.869 -0.5630 -0.0591  0.0931
 3400SOL    HW211100   5.633   2.817   0.865 -0.6539 -0.3857  0.8045
 3401SOL     OW11101   6.223   3.831   2.460  0.4052 -0.0903  0.8092
 3401SOL    HW111102   6.272   3.868   2.539  1.8900 -0.0156 -0.1101
 3401SOL    HW211103   6.203   3.734   2.476  2.1170 -0.5006  0.6521
 3402SOL     OW11104   3.574   5.364   2.702  0.2891  0.0632 -0.0996
 3402SOL    HW111105   3.493   5.349   2.646  0.4889  0.0144 -0.3798
 3402SOL    HW211106   3.655   5.364   2.643  0.4865  0.1606  0.1709
 3403SOL     OW11107   3.822   0.708   6.894 -0.2272 -0.0588  0.0795
 3403SOL    HW111108   3.775   0.768   6.830  0.9465 -1.0004 -1.7494
 3403SOL    HW211109   3.855   0.627   6.846  1.9573 -0.1389  1.5406
 3404SOL     OW11110   3.694   5.841   2.665  0.2653  0.0946  0.3528
 3404SOL    HW111111   3.607   5.888   2.647  0.7951  1.1596  0.5005
 3404SOL    HW211112   3.727   5.798   2.581 -0.9721 -1.3239  0.5528
 3405SOL     OW11113   5.264   3.968   0.929 -0.3137  0.0452  0.6015
 3405SOL    HW111114   5.363   3.980   0.926 -0.3936  0.6247 -0.0556
 3405SOL    HW211115   5.228   3.968   0.835 -1.1342  1.5780  0.8924
 3406SOL     OW11116   0.874   3.137   1.607 -0.7454  0.8752  0.4652
 3406SOL    HW111117   0.869   3.056   1.665  0.2912  0.8527  0.5515
 3406SOL    HW211118   0.896   3.110   1.513 -0.4534  1.0415  0.4816
 3407SOL     OW11119   6.872   5.374   2.812  0.1430 -0.3069 -0.1310
 3407SOL    HW111120   6.826   5.298   2.858  1.2115 -0.3760  0.8864
 3407SOL    HW211121   6.970   5.355   2.808  0.3139  0.6457 -0.6287
 3408SOL     OW11122   4.817   2.686   2.622  0.2932 -0.2581 -0.4359
 3408SOL    HW111123   4.751   2.657   2.691  0.6727  1.3409  0.6628
 3408SOL    HW211124   4.771   2.742   2.553  0.2732 -0.2031 -0.3775
 3409SOL     OW11125   2.639   1.444   0.162  0.3660  0.0570 -0.5306
 3409SOL    HW111126   2.735   1.417   0.173 -0.2496 -2.0004  0.1945
 3409SOL    HW211127   2.606   1.484   0.248 -0.4670 -2.8793  0.6145
 3410SOL     OW11128   0.189   1.678   1.482 -0.0879  0.1891 -0.1863
 3410SOL    HW111129   0.284   1.673   1.453  0.8544 -0.7247  2.6892
 3410SOL    HW211130   0.132   1.709   1.406  2.8428  3.6512 -1.2277
 3411SOL     OW11131   5.397   2.229   1.663  0.0908 -0.3642 -0.2697
 3411SOL    HW111132   5.371   2.258   1.754 -0.6478 -0.0012 -0.5896
 3411SOL    HW211133   5.496   2.215   1.659  0.1865  0.0826  0.4505
 3412SOL     OW11134   4.072   2.567   6.503 -0.2996 -0.5938  0.3076
 3412SOL    HW111135   4.011   2.645   6.495  0.1771 -0.1934  0.4948
 3412SOL    HW211136   4.081   2.521   6.414 -0.4508 -0.3346  0.1588
 3413SOL     OW11137   6.547   6.354   2.843  0.2983 -0.1182  0.6231
 3413SOL    HW111138   6.447   6.363   2.850 -0.1575 -3.9435  0.9976
 3413SOL    HW211139   6.570   6.297   2.764  2.0558 -0.7569  1.5485
 3414SOL     OW11140   2.820   6.615   6.784 -0.0761 -1.0059  0.1289
 3414SOL    HW111141   2.888   6.570   6.726  0.0419  0.9315 -1.3322
 3414SOL    HW211142   2.841   6.713   6.790 -1.3037 -0.7970  1.7617
 3415SOL     OW11143   1.289   0.308   5.747 -0.7159  0.1339  0.0781
 3415SOL    HW111144   1.345   0.296   5.665  0.9269  0.2154  1.1398
 3415SOL    HW211145   1.269   0.219   5.787 -2.9086 -0.0421 -1.2368
 3416SOL     OW11146   1.187   5.878   6.192  0.0773  0.0897 -0.5129
 3416SOL    HW111147   1.285   5.901   6.193  0.2015 -0.4474  0.5165
 3416SOL    HW211148   1.135   5.958   6.162  0.7382  0.7739  0.1065
 3417SOL     OW11149   6.132   2.046   1.882  0.7024  0.7918  0.1402
 3417SOL    HW111150   6.206   1.978   1.876  0.7385  0.9225 -1.3980
 3417SOL    HW211151   6.046   1.999   1.901  0.8249  0.3583 -0.3284
 3418SOL     OW11152   3.001   1.718   4.139 -0.0528 -0.1852 -0.2184
 3418SOL    HW111153   2.996   1.621   4.117 -0.3677 -0.2668  0.2076
 3418SOL    HW211154   3.054   1.765   4.069 -0.7060 -0.5040 -0.9326
 3419SOL     OW11155   5.610   1.865   5.650  0.4776  0.3605  0.0711
 3419SOL    HW111156   5.616   1.951   5.701  1.8457  1.5089 -1.8564
 3419SOL    HW211157   5.676   1.867   5.574  1.3208 -2.8443  0.5697
 3420SOL     OW11158   4.101   0.198   5.447  0.2663  0.1196 -0.1431
 3420SOL    HW111159   4.053   0.110   5.451 -0.7158  0.5589 -1.7567
 3420SOL    HW211160   4.199   0.181   5.437 -0.1391 -0.8840 -3.4371
 3421SOL     OW11161   1.238   6.634   3.459 -0.3283 -0.4637  0.6602
 3421SOL    HW111162   1.209   6.647   3.553 -1.3895 -0.7921  0.3951
 3421SOL    HW211163   1.264   6.538   3.444  3.4151  0.2574  1.5279
 3422SOL     OW11164   2.476   2.338   2.261 -0.2394 -0.0658 -0.0341
 3422SOL    HW111165   2.455   2.240   2.267  0.3478 -0.2395 -0.6601
 3422SOL    HW211166   2.546   2.362   2.328 -0.9348  0.0930  0.6498
 3423SOL     OW11167   1.940   2.759   0.359 -0.6762  0.1722  0.1569
 3423SOL    HW111168   1.858   2.709   0.333 -0.4104 -0.6148  0.7753
 3423SOL    HW211169   1.942   2.847   0.314 -0.3016 -1.0409 -2.3661
 3424SOL     OW11170   5.283   2.336   1.008 -0.0531  0.0678 -0.2775
 3424SOL    HW111171   5.246   2.273   1.076 -0.4058  0.3013 -0.2531
 3424SOL    HW211172   5.255   2.429   1.030 -0.3366  0.1233 -0.8522
 3425SOL     OW11173   4.978   3.578   1.478  0.3798  0.2100  0.0750
 3425SOL    HW111174   5.033   3.634   1.540 -0.2896  1.4616 -0.4228
 3425SOL    HW211175   4.971   3.485   1.514 -0.1311  0.9428  1.9676
 3426SOL     OW11176   5.302   3.696   0.622 -0.1610 -0.4233  0.3871
 3426SOL    HW111177   5.238   3.765   0.657  1.3366  0.9180  0.5928
 3426SOL    HW211178   5.272   3.667   0.531  0.3691  2.2885 -0.7783
 3427SOL     OW11179   6.165   1.343   0.239  0.7522 -0.4382 -0.5715
 3427SOL    HW111180   6.120   1.363   0.152  0.6529 -1.9566 -0.8904
 3427SOL    HW211181   6.264   1.333   0.224  0.5382 -2.4340 -0.8576
 3428SOL     OW11182   4.492   4.409   3.897 -0.2206 -0.1361  0.0872
 3428SOL    HW111183   4.529   4.448   3.812  1.5024  0.3695  1.0230
 3428SOL    HW211184   4.534   4.319   3.913 -0.8764 -0.4322  0.2009
 3429SOL     OW11185   5.852   2.569   6.456 -0.6019  0.0202 -0.2251
 3429SOL    HW111186   5.824   2.663   6.477  2.5851  1.1473 -0.3482
 3429SOL    HW211187   5.933   2.546   6.511 -1.0542 -2.5261 -0.5302
 3430SOL     OW11188   0.311   3.864   1.209  0.1609  0.0534 -0.7627
 3430SOL    HW111189   0.403   3.862   1.169  1.4740  0.1497  1.9820
 3430SOL    HW211190   0.285   3.772   1.239  0.9245  0.5012  1.5159
 3431SOL     OW11191   1.750   4.598   1.868  0.3243 -0.4799  0.3065
 3431SOL    HW111192   1.804   4.648   1.935 -0.2188  1.4376 -0.6283
 3431SOL    HW211193   1.732   4.506   1.903  1.2215 -0.0114  2.1537
 3432SOL     OW11194   3.329   2.658   6.564  0.2625  0.5070  0.4706
 3432SOL    HW111195   3.415   2.709   6.570  0.7185  0.1643 -2.0106
 3432SOL    HW211196   3.349   2.560   6.565 -0.0789  0.4256 -0.2526
 3433SOL     OW11197   3.025   1.778   2.992  0.4167 -0.3734  0.3783
 3433SOL    HW111198   3.106   1.819   2.949  0.4294 -0.9887 -0.1979
 3433SOL    HW211199   3.054   1.718   3.066  0.4331  0.0851  0.7531
 3434SOL     OW11200   5.244   0.792   4.417  0.0406  0.3574 -0.4038
 3434SOL    HW111201   5.161   0.770   4.365 -0.1814 -1.8298  0.7460
 3434SOL    HW211202   5.308   0.842   4.359 -0.9110 -0.4301 -2.2071
 3435SOL     OW11203   0.791   1.112   6.032  0.3098  0.1872  0.1211
 3435SOL    HW111204   0.876   1.150   6.069  0.4696  0.2556 -0.3062
 3435SOL    HW211205   0.718   1.180   6.037  0.0751 -0.1226  1.1890
 3436SOL     OW11206   4.631   6.475   2.062  0.1199 -0.0625 -0.3004
 3436SOL    HW111207   4.534   6.488   2.041  0.2704 -0.3037 -1.1610
 3436SOL    HW211208   4.642   6.469   2.161 -0.7629 -0.1821 -0.1949
 3437SOL     OW11209   5.517   1.157   6.298 -0.0065  0.1012 -0.3357
 3437SOL    HW111210   5.509   1.058   6.284  1.9455 -0.2504  0.7199
 3437SOL    HW211211   5.473   1.204   6.221  0.2553 -1.5907 -1.6009
 3438SOL     OW11212   6.395   5.346   6.946  0.2381  0.0005 -0.5187
 3438SOL    HW111213   6.309   5.382   6.983 -0.8524 -0.9304 -2.0154
 3438SOL    HW211214   6.471   5.405   6.975 -1.0990  1.8315 -0.5294
 3439SOL     OW11215   3.805   0.679   4.017 -0.2457 -0.2287 -0.0486
 3439SOL    HW111216   3.798   0.715   3.924 -2.7575  1.6291  0.7364
 3439SOL    HW211217   3.721   0.630   4.040  0.6185 -1.2612  1.0546
 3440SOL     OW11218   3.930   2.521   1.354 -0.7273 -0.0517  0.3062
 3440SOL    HW111219   3.894   2.551   1.442 -1.1601 -0.4370  0.2603
 3440SOL    HW211220   3.865   2.544   1.281 -0.8042 -0.5946  0.2015
 3441SOL     OW11221   3.253   1.209   3.491  0.2212 -0.0014  0.7522
 3441SOL    HW111222   3.325   1.144   3.512  1.5216  0.6895 -1.3036
 3441SOL    HW211223   3.198   1.225   3.573  2.3303 -0.6168  2.3716
 3442SOL     OW11224   5.121   4.930   2.864 -1.0385 -0.1020  0.5356
 3442SOL    HW111225   5.186   4.975   2.926 -1.3727  1.1105  0.0453
 3442SOL    HW211226   5.055   4.998   2.831  0.3078 -0.1948 -2.7376
 3443SOL     OW11227   0.218   6.764   6.630 -0.5659  0.2638 -0.4325
 3443SOL    HW111228   0.262   6.736   6.715 -0.3519  0.0643 -0.6075
 3443SOL    HW211229   0.164   6.847   6.645  0.9058  1.2757 -0.5058
 3444SOL     OW11230   2.472   6.427   0.059 -0.0724 -0.5678 -0.4359
 3444SOL    HW111231   2.545   6.487   0.027 -0.8470  1.1348  0.8491
 3444SOL    HW211232   2.511   6.353   0.114  0.8185 -0.7726 -1.3091
 3445SOL     OW11233   0.566   5.508   4.486 -0.2246  0.2204 -0.4897
 3445SOL    HW111234   0.502   5.566   4.435  2.0716  1.0493 -2.5986
 3445SOL    HW211235   0.616   5.449   4.423  0.3269 -1.2330  1.2230
 3446SOL     OW11236   2.172   5.073   1.273 -0.3399 -0.2553  0.1030
 3446SOL    HW111237   2.128   4.999   1.221  0.3473 -0.2644 -0.4849
 3446SOL    HW211238   2.272   5.064   1.266 -0.2216 -0.3447  1.5728
 3447SOL     OW11239   6.948   4.430   5.885 -0.4567 -0.2101 -0.3084
 3447SOL    HW111240   7.030   4.437   5.941  0.6081  1.4792 -1.9906
 3447SOL    HW211241   6.941   4.337   5.848 -0.0506 -0.7344  0.8650
 3448SOL     OW11242   3.830   3.154   5.673 -0.3595 -0.2478  0.1451
 3448SOL    HW111243   3.838   3.180   5.576 -0.8307 -1.4147 -0.2198
 3448SOL    HW211244   3.756   3.207   5.715 -0.3730  0.0248 -0.2135
 3449SOL     OW11245   5.691   5.858   3.636 -0.2284  0.2287 -0.2708
 3449SOL    HW111246   5.605   5.865   3.585  0.0536 -0.6133 -0.8881
 3449SOL    HW211247   5.671   5.851   3.733 -1.0443 -2.3344 -0.5352
 3450SOL     OW11248   0.370   2.496   0.821 -0.0878 -0.6171 -0.2843
 3450SOL    HW111249   0.452   2.445   0.847 -0.2414 -0.7865 -0.1293
 3450SOL    HW211250   0.390   2.594   0.823  0.5626 -0.6911 -1.7720
 3451SOL     OW11251   6.260   5.221   4.239  0.3049 -0.1349 -0.3822
 3451SOL    HW111252   6.293   5.129   4.216 -0.2353 -0.4474  0.0524
 3451SOL    HW211253   6.160   5.221   4.239  0.3012  0.4694 -0.4282
 3452SOL     OW11254   5.578   1.937   1.542  0.1704  0.2923  0.4909
 3452SOL    HW111255   5.625   2.020   1.570 -0.4912  1.5386 -1.8336
 3452SOL    HW211256   5.628   1.893   1.467 -0.9883  0.2369 -0.2850
 3453SOL     OW11257   6.395   4.408   3.671  0.1374 -0.0939 -0.4831
 3453SOL    HW111258   6.328   4.334   3.671 -1.9650  1.7059 -0.6593
 3453SOL    HW211259   6.367   4.479   3.736  3.4095 -0.4708  1.6110
 3454SOL     OW11260   6.043   2.163   0.583 -0.0722 -0.2759 -0.3584
 3454SOL    HW111261   6.121   2.205   0.630 -0.4001  0.6613 -0.6291
 3454SOL    HW211262   6.066   2.148   0.487 -0.0331 -0.5077 -0.3125
 3455SOL     OW11263   0.404   4.196   3.659 -0.4496  0.1090  0.4445
 3455SOL    HW111264   0.371   4.287   3.682  0.5034  0.3568  0.8936
 3455SOL    HW211265   0.503   4.193   3.671 -0.3324 -0.6831 -0.5827
 3456SOL     OW11266   1.177   6.323   2.070  0.0364  0.0807  0.4303
 3456SOL    HW111267   1.238   6.260   2.117  1.5915  0.5763 -0.8365
 3456SOL    HW211268   1.114   6.272   2.012  1.6649 -0.3650 -1.0372
 3457SOL     OW11269   6.978   6.347   2.251 -1.1395  0.5430  0.1898
 3457SOL    HW111270   6.977   6.278   2.324  0.2142  0.1681 -0.1117
 3457SOL    HW211271   7.030   6.313   2.173 -0.7297  1.7746 -0.1063
 3458SOL     OW11272   3.487   2.793   6.825 -0.6618 -0.2388 -0.7136
 3458SOL    HW111273   3.570   2.835   6.862  0.3651 -0.5834 -2.5109
 3458SOL    HW211274   3.484   2.696   6.850 -0.3074 -0.3219 -0.9928
 3459SOL     OW11275   5.123   0.098   3.116  0.0142 -0.1306 -0.4815
 3459SOL    HW111276   5.217   0.075   3.142 -0.4775 -0.6977  0.8656
 3459SOL    HW211277   5.122   0.125   3.020  1.7526  1.1413 -0.1939
 3460SOL     OW11278   3.717   1.153   5.719  0.4152  0.1807  0.4483
 3460SOL    HW111279   3.678   1.085   5.656 -0.9268  0.1704  1.2607
 3460SOL    HW211280   3.697   1.245   5.686  1.4157  0.2106 -0.1452
 3461SOL     OW11281   2.087   0.091   3.575 -0.1376  0.2785 -0.5488
 3461SOL    HW111282   2.177   0.086   3.620  0.8888  0.1821 -2.5145
 3461SOL    HW211283   2.099   0.118   3.480 -2.1189 -0.8042 -1.1563
 3462SOL     OW11284   5.217   1.435   3.623 -0.0797  0.2470 -0.2558
 3462SOL    HW111285   5.216   1.339   3.650  1.4113 -0.0188 -1.0727
 3462SOL    HW211286   5.131   1.457   3.576  0.1231 -1.0736 -1.3201
 3463SOL     OW11287   1.490   2.765   0.490 -0.1275 -0.2269 -0.2082
 3463SOL    HW111288   1.508   2.828   0.414  1.9778 -0.9052 -0.3470
 3463SOL    HW211289   1.512   2.811   0.576  0.8734 -0.5519 -0.2739
 3464SOL     OW11290   0.835   1.159   4.267 -0.3288  0.1692  0.1988
 3464SOL    HW111291   0.885   1.201   4.343 -1.4601  0.0040  1.0709
 3464SOL    HW211292   0.880   1.180   4.181  1.1649  0.1154  0.9343
 3465SOL     OW11293   2.309   3.762   1.085 -0.1579 -0.1883 -0.6025
 3465SOL    HW111294   2.384   3.732   1.145 -0.5578  0.2377  0.1246
 3465SOL    HW211295   2.262   3.682   1.047  0.8070 -0.4601 -1.2601
 3466SOL     OW11296   6.290   4.360   4.777 -0.7470 -0.2962 -0.1937
 3466SOL    HW111297   6.293   4.271   4.823  2.2569 -0.6167 -0.8157
 3466SOL    HW211298   6.345   4.425   4.828 -0.9428  0.5551 -1.0473
 3467SOL     OW11299   3.737   2.698   0.072 -0.2062 -0.1393 -0.2334
 3467SOL    HW111300   3.716   2.795   0.066 -0.7815 -0.2732 -0.3999
 3467SOL    HW211301   3.714   2.653  -0.014  0.4240 -0.3587 -0.2972
 3468SOL     OW11302   3.775   0.703   2.200 -0.0953  0.3760  0.0396
 3468SOL    HW111303   3.712   0.743   2.267 -1.1921  1.3145 -1.5077
 3468SOL    HW211304   3.860   0.757   2.198  0.7794 -0.7937  2.0036
 3469SOL     OW11305   3.190   6.228   5.911 -0.4805  0.0608 -0.2591
 3469SOL    HW111306   3.125   6.205   5.838 -1.1598  0.1941  0.2949
 3469SOL    HW211307   3.246   6.148   5.933 -1.0414 -0.3078 -0.1543
 3470SOL     OW11308   0.651   3.457   6.835 -0.0369 -0.2276 -0.2330
 3470SOL    HW111309   0.734   3.455   6.889  0.1285  1.5700 -0.3543
 3470SOL    HW211310   0.574   3.424   6.890  0.3462  0.3774  0.6901
 3471SOL     OW11311   5.093   4.136   3.938  0.6092  0.0733 -0.2959
 3471SOL    HW111312   5.082   4.115   3.841 -1.1507 -1.2814  0.1317
 3471SOL    HW211313   5.011   4.182   3.972  1.1445  0.4104  0.5823
 3472SOL     OW11314   5.339   1.001   3.880 -0.2867 -0.3438  0.3125
 3472SOL    HW111315   5.376   1.086   3.917 -2.1101  0.8526 -0.4728
 3472SOL    HW211316   5.406   0.928   3.891  0.5432  0.6922  2.8660
 3473SOL     OW11317   0.120   4.246   0.870 -0.1229  0.0124  0.2014
 3473SOL    HW111318   0.169   4.319   0.918  0.7070  0.4644 -1.2853
 3473SOL    HW211319   0.137   4.159   0.917  0.5969  0.4462  0.7783
 3474SOL     OW11320   4.909   4.653   3.828 -0.1837 -0.1568 -0.6691
 3474SOL    HW111321   4.884   4.749   3.817  2.3902  0.8487  1.2347
 3474SOL    HW211322   4.844   4.608   3.889  0.7977  1.5843  1.8376
 3475SOL     OW11323   5.341   4.896   2.649  0.6990 -0.6958  0.5579
 3475SOL    HW111324   5.352   4.808   2.602 -0.0155 -0.7170  0.4116
 3475SOL    HW211325   5.267   4.888   2.715  0.0229  0.0419 -0.0903
 3476SOL     OW11326   2.167   3.211   3.653  0.7311  0.0094 -0.4662
 3476SOL    HW111327   2.069   3.208   3.674  0.8582 -1.8351  0.0143
 3476SOL    HW211328   2.217   3.246   3.733  0.6003 -0.6895 -0.0643
 3477SOL     OW11329   0.407   4.069   3.281 -0.0778  0.4821  0.2520
 3477SOL    HW111330   0.365   4.021   3.204  0.8208  1.3829 -0.8316
 3477SOL    HW211331   0.381   4.024   3.366 -0.3119 -1.1237 -0.6323
 3478SOL     OW11332   2.588   1.597   6.903  0.2557 -0.4133  0.0104
 3478SOL    HW111333   2.518   1.527   6.891  0.5483 -0.9124  1.1238
 3478SOL    HW211334   2.670   1.557   6.944  0.9714  0.2948 -0.6706
 3479SOL     OW11335   6.322   3.893   6.747  0.4160 -0.6200 -0.0813
 3479SOL    HW111336   6.418   3.905   6.724  1.1017  1.3357  3.1276
 3479SOL    HW211337   6.293   3.967   6.807 -2.1965 -2.8811  1.6908
 3480SOL     OW11338   2.422   3.610   6.699  0.0002 -0.2767 -0.0169
 3480SOL    HW111339   2.386   3.573   6.613 -0.7326  0.9223 -0.2543
 3480SOL    HW211340   2.399   3.549   6.775 -0.0431 -0.9444 -0.5618
 3481SOL     OW11341   0.981   0.720   5.028 -0.6747 -1.0026  0.4248
 3481SOL    HW111342   0.934   0.794   4.981  1.7218  0.4483  0.1552
 3481SOL    HW211343   1.035   0.668   4.962  0.1614 -0.9810  1.0819
 3482SOL     OW11344   6.029   3.873   6.885 -0.2225 -0.1581 -0.0425
 3482SOL    HW111345   5.943   3.823   6.889 -0.7713  0.8694  2.4712
 3482SOL    HW211346   6.097   3.827   6.942 -0.0762  0.7128  0.5143
 3483SOL     OW11347   3.914   0.364   6.154 -0.2374  0.1578  0.1478
 3483SOL    HW111348   3.875   0.325   6.237  2.2352  1.3585  2.0194
 3483SOL    HW211349   3.925   0.463   6.166  2.5321  0.0190 -0.5040
 3484SOL     OW11350   2.114   3.797   5.114 -0.2611  0.3310  0.3090
 3484SOL    HW111351   2.052   3.866   5.152  0.3239  1.1737 -0.2586
 3484SOL    HW211352   2.203   3.838   5.095 -0.0689 -0.4485 -0.5393
 3485SOL     OW11353   5.993   2.950   0.955  0.4035  0.5341  0.2042
 3485SOL    HW111354   6.054   2.889   1.004  0.4061  0.2907 -0.0997
 3485SOL    HW211355   5.979   3.034   1.008  0.3173  0.2275  0.6717
 3486SOL     OW11356   2.088   5.531   3.213  0.5577  0.0860 -0.0561
 3486SOL    HW111357   2.155   5.468   3.173  0.0244 -0.5771  0.0651
 3486SOL    HW211358   2.123   5.624   3.210  1.3108 -0.2019 -0.3622
 3487SOL     OW11359   4.288   4.607   0.484 -0.2544 -0.4778 -0.0960
 3487SOL    HW111360   4.208   4.559   0.520 -0.7933 -0.5645 -1.3424
 3487SOL    HW211361   4.305   4.689   0.538 -0.8568 -0.7438  0.5136
 3488SOL     OW11362   4.213   6.555   6.348  0.3854 -0.2578  0.2891
 3488SOL    HW111363   4.268   6.618   6.294  3.1119 -0.5889  2.4471
 3488SOL    HW211364   4.212   6.465   6.304  1.0123 -0.0725 -0.1110
 3489SOL     OW11365   4.479   5.519   1.451 -0.4219  0.1377 -0.0477
 3489SOL    HW111366   4.499   5.501   1.355 -0.5476 -1.4261  0.1998
 3489SOL    HW211367   4.383   5.545   1.461 -0.3783  0.4204 -0.3517
 3490SOL     OW11368   3.448   0.808   6.877  0.2049  0.3403 -0.4314
 3490SOL    HW111369   3.423   0.720   6.838 -0.3481 -0.5691  1.7870
 3490SOL    HW211370   3.534   0.840   6.836  1.2415 -1.9969 -0.2176
 3491SOL     OW11371   4.600   5.380   3.617  0.7156 -0.1404  1.0834
 3491SOL    HW111372   4.560   5.292   3.592 -0.1694 -0.4117  3.2601
 3491SOL    HW211373   4.533   5.433   3.669  1.1056  1.9972 -0.4721
 3492SOL     OW11374   0.127   3.847   5.672 -0.4104  0.1256 -0.0314
 3492SOL    HW111375   0.180   3.766   5.648 -1.5461 -0.6298 -0.0478
 3492SOL    HW211376   0.141   3.918   5.602  0.1827 -0.2287 -0.2841
 3493SOL     OW11377   2.809   5.115   6.802 -0.1082  0.3290  0.1897
 3493SOL    HW111378   2.792   5.186   6.734 -1.2301 -0.5376 -0.4830
 3493SOL    HW211379   2.905   5.087   6.798 -0.5998 -1.3994 -2.8332
 3494SOL     OW11380   4.075   6.643   1.033 -0.2469 -0.1000  0.1480
 3494SOL    HW111381   4.096   6.699   1.114  2.0712 -0.7872  0.0913
 3494SOL    HW211382   4.015   6.568   1.059  0.0550 -0.0154  1.1261
 3495SOL     OW11383   1.598   2.069   2.351  0.2733  0.0846 -0.1345
 3495SOL    HW111384   1.543   2.038   2.273  1.7779 -0.2718 -1.0885
 3495SOL    HW211385   1.559   2.154   2.387 -1.9967 -1.1081  0.4439
 3496SOL     OW11386   0.291   6.334   1.644  0.0323  0.3086 -0.6057
 3496SOL    HW111387   0.228   6.409   1.624 -0.7002 -0.5203 -1.4970
 3496SOL    HW211388   0.296   6.272   1.565 -0.8966 -1.6469  0.7793
 3497SOL     OW11389   2.890   0.542   0.851  0.8994 -0.5365 -0.1093
 3497SOL    HW111390   2.918   0.529   0.756 -0.8587  0.0617 -0.7369
 3497SOL    HW211391   2.795   0.572   0.855  0.3882 -2.1355  1.9053
 3498SOL     OW11392   1.164   2.610   6.845 -0.7755 -0.1093 -0.2947
 3498SOL    HW111393   1.196   2.520   6.875 -1.6531  0.2910  1.9893
 3498SOL    HW211394   1.241   2.674   6.844 -0.7379 -0.0923  1.3884
 3499SOL     OW11395   6.125   5.244   5.405  0.3566  0.0111 -0.3794
 3499SOL    HW111396   6.208   5.239   5.460  0.7215  1.0008 -0.8126
 3499SOL    HW211397   6.059   5.304   5.451 -1.5540 -3.3692  1.7313
 3500SOL     OW11398   1.855   1.593   4.670 -0.5704 -0.0950 -0.2373
 3500SOL    HW111399   1.934   1.607   4.611 -0.9118 -0.4914 -0.8016
 3500SOL    HW211400   1.877   1.622   4.764 -0.2766  1.2989 -0.7103
 3501SOL     OW11401   1.801   6.803   6.451 -0.2707  0.6535  0.3668
 3501SOL    HW111402   1.809   6.898   6.482 -1.4168  1.7378 -2.3927
 3501SOL    HW211403   1.774   6.800   6.355 -1.0994 -2.4979  0.5535
 3502SOL     OW11404   5.207   2.523   2.273 -0.0038 -0.8925 -0.0548
 3502SOL    HW111405   5.128   2.550   2.218  0.5853 -0.7295 -0.8282
 3502SOL    HW211406   5.190   2.547   2.369  0.6865  2.7718 -0.7163
 3503SOL     OW11407   6.206   4.929   0.058 -0.2665  0.8134  0.1033
 3503SOL    HW111408   6.120   4.980   0.051 -0.8385 -0.0111  0.7783
 3503SOL    HW211409   6.185   4.832   0.077  0.7690  0.2609 -1.3914
 3504SOL     OW11410   2.128   0.875   3.937  0.1437 -0.1861  0.2132
 3504SOL    HW111411   2.191   0.824   3.997  2.2213  0.3191 -1.4243
 3504SOL    HW211412   2.047   0.900   3.989  0.7837 -1.7988  2.1456
 3505SOL     OW11413   6.681   1.818   3.223  0.2845  0.0560 -0.9990
 3505SOL    HW111414   6.758   1.802   3.285 -1.4679 -2.4777  0.7248
 3505SOL    HW211415   6.685   1.752   3.147 -0.1694 -0.0594 -0.9223
 3506SOL     OW11416   5.093   4.974   5.708  0.4172 -0.0204  0.0854
 3506SOL    HW111417   5.149   5.018   5.778  0.4903  0.2913 -0.1642
 3506SOL    HW211418   4.998   5.006   5.716  0.8858  1.9218 -1.4850
 3507SOL     OW11419   2.735   1.547   2.112  0.0956 -0.4424  0.4057
 3507SOL    HW111420   2.746   1.491   2.195 -2.0083 -3.9247 -1.4290
 3507SOL    HW211421   2.672   1.622   2.130 -0.0968 -0.9559  2.0450
 3508SOL     OW11422   5.182   1.182   4.918  1.3512 -0.1456 -0.1922
 3508SOL    HW111423   5.246   1.156   4.990  0.7039 -0.1110  0.4070
 3508SOL    HW211424   5.149   1.100   4.871  2.1803 -0.1317 -0.8095
 3509SOL     OW11425   4.671   6.076   6.855 -0.0020 -0.1688  0.3599
 3509SOL    HW111426   4.719   6.162   6.835  0.0187 -0.0591  0.8653
 3509SOL    HW211427   4.680   6.055   6.953 -0.2916 -0.5737  0.3006
 3510SOL     OW11428   2.611   2.679   0.112  0.1902  0.8186 -0.4416
 3510SOL    HW111429   2.532   2.740   0.115 -1.5351 -1.2430 -0.9355
 3510SOL    HW211430   2.642   2.660   0.206 -1.6816 -0.4361 -0.0207
 3511SOL     OW11431   2.721   5.002   1.397 -0.2822 -0.5290  0.3707
 3511SOL    HW111432   2.804   5.011   1.341  0.5017  1.1666  1.6915
 3511SOL    HW211433   2.723   4.915   1.446  1.9617  0.4225  2.1694
 3512SOL     OW11434   0.304   3.763   6.845 -0.0621  0.3764 -1.0012
 3512SOL    HW111435   0.403   3.781   6.841  0.6558 -2.2011  1.7425
 3512SOL    HW211436   0.283   3.710   6.927 -3.9136  1.4923 -1.0659
 3513SOL     OW11437   4.727   0.871   6.444  0.4786 -0.2215 -0.0570
 3513SOL    HW111438   4.665   0.806   6.401  0.2700 -0.0722  0.0113
 3513SOL    HW211439   4.749   0.945   6.380 -2.3139  1.7012  0.9986
 3514SOL     OW11440   2.770   1.902   2.956  0.8260  0.4165  0.1040
 3514SOL    HW111441   2.781   2.000   2.938  0.0741  0.4267 -0.3629
 3514SOL    HW211442   2.859   1.858   2.960  1.1266  0.8695 -1.1745
 3515SOL     OW11443   1.572   4.899   3.326 -0.5795 -0.6317 -0.5267
 3515SOL    HW111444   1.571   4.996   3.303 -1.1636 -0.2918  0.8010
 3515SOL    HW211445   1.520   4.884   3.410 -1.2964 -2.2392 -1.2087
 3516SOL     OW11446   4.081   1.095   2.804  0.0834 -0.5697 -0.3758
 3516SOL    HW111447   4.035   1.014   2.768  0.0296 -0.7685  0.1412
 3516SOL    HW211448   4.124   1.145   2.728  0.0530 -1.0365 -0.7037
 3517SOL     OW11449   4.533   1.011   3.463  0.0397 -0.0558  0.5862
 3517SOL    HW111450   4.475   0.984   3.540  0.1050 -1.2952  0.2268
 3517SOL    HW211451   4.495   1.093   3.420  0.2138  0.8790  2.1477
 3518SOL     OW11452   0.929   2.050   4.814 -0.3421  0.1499  0.1572
 3518SOL    HW111453   0.922   2.097   4.726  0.6712 -0.1354 -0.0953
 3518SOL    HW211454   0.980   2.107   4.879  0.5197 -0.3888 -0.0218
 3519SOL     OW11455   3.618   1.523   1.318  0.3375  0.4715 -0.1337
 3519SOL    HW111456   3.552   1.460   1.275 -1.1447  1.0574  1.1962
 3519SOL    HW211457   3.595   1.617   1.294  1.0585  0.6590 -0.1171
 3520SOL     OW11458   2.263   0.891   1.834  0.3741 -0.0654  0.4302
 3520SOL    HW111459   2.252   0.973   1.890  1.9319  0.5532 -0.1177
 3520SOL    HW211460   2.229   0.812   1.884 -0.6260  0.8185  1.1990
 3521SOL     OW11461   1.600   2.795   4.541 -0.6080  0.0898  0.0763
 3521SOL    HW111462   1.502   2.804   4.555 -0.2948  2.1310  1.3852
 3521SOL    HW211463   1.649   2.853   4.606  1.4296  0.3087 -1.5277
 3522SOL     OW11464   1.968   5.697   0.660  0.2852 -0.0548 -0.1689
 3522SOL    HW111465   1.985   5.676   0.757  2.3465  0.1796 -0.4394
 3522SOL    HW211466   2.039   5.654   0.604  0.1020  1.2262 -1.4296
 3523SOL     OW11467   4.909   4.408   0.511 -0.5695  0.3665  0.1200
 3523SOL    HW111468   4.893   4.506   0.520 -0.2879  0.5788 -1.3686
 3523SOL    HW211469   4.844   4.370   0.445 -2.0721 -0.8750  2.2013
 3524SOL     OW11470   5.709   2.512   3.173 -0.1994 -0.8853  0.2106
 3524SOL    HW111471   5.675   2.558   3.091  1.0278  1.2991  0.8480
 3524SOL    HW211472   5.769   2.437   3.147  1.1180  0.5083 -0.9558
 3525SOL     OW11473   1.451   3.105   6.164  0.0190 -0.1100  0.0842
 3525SOL    HW111474   1.548   3.084   6.180  0.2949  0.6960 -0.4680
 3525SOL    HW211475   1.408   3.128   6.251 -0.2280 -2.5495  0.6819
 3526SOL     OW11476   0.073   0.113   2.379 -0.0438 -0.0737  0.2933
 3526SOL    HW111477   0.072   0.065   2.291  2.1998 -2.1971  1.3034
 3526SOL    HW211478   0.036   0.053   2.450 -0.5593  1.0999  1.0554
 3527SOL     OW11479   0.703   2.768   1.162 -0.1315 -0.2072  0.0134
 3527SOL    HW111480   0.758   2.756   1.245  0.0025 -1.5933 -0.2530
 3527SOL    HW211481   0.679   2.678   1.125 -0.0726  0.3938 -1.5364
 3528SOL     OW11482   2.614   3.210   6.333 -0.0419  0.0664  0.1825
 3528SOL    HW111483   2.647   3.172   6.247  0.7325 -1.1528  0.9802
 3528SOL    HW211484   2.669   3.290   6.357  0.6549 -0.4208  0.2271
 3529SOL     OW11485   5.405   5.038   1.378  0.5191  0.1446  0.2318
 3529SOL    HW111486   5.322   5.045   1.435 -0.7530 -1.0117 -1.3762
 3529SOL    HW211487   5.451   4.952   1.398  1.9784  1.2342  1.8572
 3530SOL     OW11488   5.201   1.018   6.082 -0.4913 -0.1604  0.0922
 3530SOL    HW111489   5.268   1.088   6.108 -1.5023  0.2568  1.7203
 3530SOL    HW211490   5.186   1.021   5.983  1.7621 -0.1864 -0.3029
 3531SOL     OW11491   4.985   1.621   1.911  0.6390 -0.4970  0.1232
 3531SOL    HW111492   5.029   1.677   1.841  0.8292 -1.1955 -0.3372
 3531SOL    HW211493   5.027   1.640   2.000  0.0629  0.7544  0.1433
 3532SOL     OW11494   2.523   1.900   1.776  0.4702  0.1516 -0.0728
 3532SOL    HW111495   2.523   1.993   1.813 -0.7912  0.0269  0.2664
 3532SOL    HW211496   2.547   1.835   1.848 -1.0713 -0.0014  0.3377
 3533SOL     OW11497   0.945   2.741   2.520  0.4488 -0.1970 -0.3309
 3533SOL    HW111498   0.939   2.642   2.506  1.1412 -0.3221  0.2317
 3533SOL    HW211499   1.040   2.767   2.533  0.1132  0.2680  1.4885
 3534SOL     OW11500   1.144   1.659   0.418 -0.1098  0.1992  0.3112
 3534SOL    HW111501   1.223   1.648   0.359 -2.0519 -2.1283 -2.1138
 3534SOL    HW211502   1.105   1.750   0.407  0.1365  0.1248 -1.3006
 3535SOL     OW11503   2.979   6.339   2.825 -0.0878 -0.3016  0.1408
 3535SOL    HW111504   3.021   6.387   2.902 -2.1804  1.2346  0.4014
 3535SOL    HW211505   2.950   6.405   2.756  1.8893 -1.6509 -2.1469
 3536SOL     OW11506   4.675   2.200   4.426 -0.0786 -0.0817  0.7498
 3536SOL    HW111507   4.662   2.278   4.365 -0.1580 -1.5139 -1.1504
 3536SOL    HW211508   4.678   2.232   4.521  2.8532  2.6011 -0.0841
 3537SOL     OW11509   1.157   4.765   2.101 -0.0510 -0.1937 -1.1263
 3537SOL    HW111510   1.254   4.772   2.078 -0.1502  0.6665 -1.3146
 3537SOL    HW211511   1.139   4.818   2.185 -0.3169 -0.5185 -0.9770
 3538SOL     OW11512   2.310   5.051   2.307  0.1254 -0.8362 -0.3783
 3538SOL    HW111513   2.354   5.010   2.227  0.5619 -0.3889 -0.3732
 3538SOL    HW211514   2.303   4.982   2.380  0.5925 -0.9827 -0.4673
 3539SOL     OW11515   3.819   4.113   5.166  0.1341 -0.0850  0.4903
 3539SOL    HW111516   3.851   4.143   5.076 -0.4064 -0.9181  0.0113
 3539SOL    HW211517   3.844   4.182   5.234  0.4272  0.6248 -0.3100
 3540SOL     OW11518   1.403   2.028   3.499  0.9056  0.0430  0.0040
 3540SOL    HW111519   1.417   1.941   3.547 -1.3289 -1.7062 -2.2268
 3540SOL    HW211520   1.486   2.051   3.448  0.9462 -1.8783 -0.8973
 3541SOL     OW11521   3.834   3.012   2.886  0.3059  0.2304 -0.2127
 3541SOL    HW111522   3.883   3.060   2.959  1.2288 -0.9602 -0.0022
 3541SOL    HW211523   3.744   2.983   2.920  0.6929 -0.2389  0.4539
 3542SOL     OW11524   6.557   5.087   0.383 -0.3093 -0.1331  0.1433
 3542SOL    HW111525   6.472   5.111   0.337 -0.6782 -1.7239 -0.0584
 3542SOL    HW211526   6.564   4.987   0.392  1.3991 -0.0300  0.4107
 3543SOL     OW11527   5.396   0.717   4.140 -0.2399 -0.4324 -0.1951
 3543SOL    HW111528   5.311   0.693   4.188  0.3264 -0.7583  0.6647
 3543SOL    HW211529   5.375   0.738   4.045 -1.2898 -0.5057  0.0046
 3544SOL     OW11530   1.956   5.411   0.114 -0.3560  0.2544  0.1142
 3544SOL    HW111531   2.021   5.478   0.150  1.2305 -0.9707 -0.3528
 3544SOL    HW211532   1.959   5.412   0.014 -0.0245 -0.7532  0.1029
 3545SOL     OW11533   3.460   4.077   0.263 -0.2120  0.4440  0.6492
 3545SOL    HW111534   3.500   3.987   0.246 -0.2587  0.2727  1.4078
 3545SOL    HW211535   3.417   4.111   0.180 -1.1661 -0.7190  0.6384
 3546SOL     OW11536   0.739   5.125   2.988 -0.1743 -0.0204  0.3344
 3546SOL    HW111537   0.703   5.165   2.904 -0.3679 -1.4214 -0.2797
 3546SOL    HW211538   0.667   5.070   3.032 -0.0527  0.6381  1.3900
 3547SOL     OW11539   3.689   5.421   5.047 -0.4061  0.1881  0.7935
 3547SOL    HW111540   3.631   5.486   5.097 -1.1903 -2.1937  3.2312
 3547SOL    HW211541   3.779   5.416   5.090  0.0319  0.4093 -0.0656
 3548SOL     OW11542   5.130   3.083   6.021  0.3458 -0.5030 -0.5894
 3548SOL    HW111543   5.203   3.015   6.026  0.7829  0.0568  1.5678
 3548SOL    HW211544   5.048   3.049   6.067  1.2684  1.1477  2.5649
 3549SOL     OW11545   5.189   3.210   1.014 -0.2826  0.5464 -0.3501
 3549SOL    HW111546   5.118   3.272   1.050 -1.1714 -0.3860 -0.4615
 3549SOL    HW211547   5.148   3.147   0.948  0.8567  0.6237 -1.1671
 3550SOL     OW11548   4.889   0.402   3.522 -0.0376 -0.0236  0.0164
 3550SOL    HW111549   4.905   0.317   3.471 -0.0583 -0.5054  0.7839
 3550SOL    HW211550   4.839   0.381   3.606  1.0917  0.5504  0.8697
 3551SOL     OW11551   1.448   6.139   0.173  0.5759 -0.2150  0.3768
 3551SOL    HW111552   1.374   6.113   0.234 -0.1239 -0.9904 -0.7683
 3551SOL    HW211553   1.533   6.094   0.201  0.1689 -0.8861  0.5387
 3552SOL     OW11554   5.824   4.786   2.110  0.1289 -0.7300 -0.0868
 3552SOL    HW111555   5.835   4.840   2.026 -1.1876  2.1600  1.4319
 3552SOL    HW211556   5.727   4.762   2.121  0.3451 -1.3806  0.4116
 3553SOL     OW11557   1.284   2.133   3.087  0.4932 -0.6160 -0.3767
 3553SOL    HW111558   1.374   2.104   3.055  0.8039  0.0990 -0.1844
 3553SOL    HW211559   1.223   2.054   3.094  1.1243 -1.1111 -0.4446
 3554SOL     OW11560   3.736   6.264   5.767  0.7103  1.1102 -0.0184
 3554SOL    HW111561   3.694   6.352   5.792  0.7482  2.1143 -3.0967
 3554SOL    HW211562   3.827   6.280   5.729  1.4761 -0.4818  1.0387
 3555SOL     OW11563   6.249   2.972   3.302 -0.1027  0.0620  0.1306
 3555SOL    HW111564   6.319   3.013   3.243  0.2284  0.7259  0.9779
 3555SOL    HW211565   6.195   3.044   3.345  1.4948 -0.2675  2.8837
 3556SOL     OW11566   4.045   1.885   6.234 -0.3836 -0.2057  0.1242
 3556SOL    HW111567   4.068   1.934   6.150 -0.6883  0.5034  0.4453
 3556SOL    HW211568   3.961   1.923   6.273 -0.3734 -0.6855  0.6238
 3557SOL     OW11569   2.106   1.463   4.199 -0.3610  0.2818 -0.1563
 3557SOL    HW111570   2.201   1.459   4.165  0.2097  0.5427  1.3329
 3557SOL    HW211571   2.071   1.556   4.186  0.1011  0.5691  0.5400
 3558SOL     OW11572   6.356   5.892   2.314 -0.2695 -0.3979  0.0352
 3558SOL    HW111573   6.301   5.975   2.318 -0.6450 -0.6910  2.1956
 3558SOL    HW211574   6.309   5.823   2.259  1.5983  1.7606 -4.8766
 3559SOL     OW11575   1.817   6.170   5.068  0.3934 -0.3300  0.0113
 3559SOL    HW111576   1.785   6.263   5.082  1.4529 -0.0740  0.8920
 3559SOL    HW211577   1.880   6.168   4.990 -1.1527 -0.7079 -1.2827
 3560SOL     OW11578   5.274   0.408   1.852 -0.2584  0.1681 -0.1129
 3560SOL    HW111579   5.322   0.400   1.765  1.1895  1.2275  0.5416
 3560SOL    HW211580   5.262   0.317   1.892 -0.7195 -0.3066 -1.2755
 3561SOL     OW11581   5.650   4.433   3.317  0.0171  0.1987 -0.3076
 3561SOL    HW111582   5.681   4.490   3.394  1.0047 -0.3588 -0.2743
 3561SOL    HW211583   5.618   4.345   3.352  0.3278  0.0006 -0.5226
 3562SOL     OW11584   5.738   2.042   3.850 -0.4008  0.1831  0.1667
 3562SOL    HW111585   5.694   2.055   3.939 -0.2670 -0.1838  0.2887
 3562SOL    HW211586   5.814   2.107   3.841  0.6742 -0.8954  1.0361
 3563SOL     OW11587   4.489   0.178   1.102 -0.5533 -0.0337 -0.3635
 3563SOL    HW111588   4.581   0.162   1.066 -0.4723  0.4971 -0.3975
 3563SOL    HW211589   4.481   0.136   1.192  0.8201  2.6407  1.1564
 3564SOL     OW11590   6.233   4.176   1.992 -0.3275 -0.3902 -0.2245
 3564SOL    HW111591   6.253   4.274   1.993  1.0418 -0.6388  1.4385
 3564SOL    HW211592   6.169   4.155   2.065  0.5144 -0.9275  0.3724
 3565SOL     OW11593   1.231   1.038   5.981 -0.5936 -0.0798  0.0101
 3565SOL    HW111594   1.245   0.940   5.999 -2.0032  0.0201  1.9329
 3565SOL    HW211595   1.201   1.049   5.886  0.4011 -1.3991 -0.5024
 3566SOL     OW11596   0.233   5.471   6.683  0.3387 -0.4839  0.3243
 3566SOL    HW111597   0.275   5.555   6.651  1.5482 -1.0226  0.4315
 3566SOL    HW211598   0.148   5.492   6.732  0.0744  0.5677 -0.5615
 3567SOL     OW11599   6.632   1.026   1.714  0.1005 -0.0998 -0.3107
 3567SOL    HW111600   6.717   1.069   1.683 -0.7802  1.2486 -1.0092
 3567SOL    HW211601   6.578   1.094   1.764  0.5019 -1.6296  2.3487
 3568SOL     OW11602   5.637   5.344   4.270  0.3305 -0.5380  0.2426
 3568SOL    HW111603   5.573   5.420   4.270  0.7518 -0.1595 -0.9376
 3568SOL    HW211604   5.613   5.280   4.343 -0.4952  0.3264  0.7501
 3569SOL     OW11605   3.330   2.933   3.128 -0.3280 -0.4288 -0.2944
 3569SOL    HW111606   3.234   2.959   3.124 -0.4727 -0.8334  0.3984
 3569SOL    HW211607   3.355   2.912   3.223  0.7569  0.8312 -0.2678
 3570SOL     OW11608   6.336   2.234   5.770  0.0667  0.0308 -0.2238
 3570SOL    HW111609   6.395   2.314   5.786 -0.1743  0.3830 -1.0883
 3570SOL    HW211610   6.289   2.243   5.683 -0.8721 -0.5085  0.2118
 3571SOL     OW11611   4.526   0.250   4.242  0.7600 -0.2827  0.0436
 3571SOL    HW111612   4.608   0.230   4.189  0.6097 -0.5813 -0.0798
 3571SOL    HW211613   4.450   0.194   4.209  0.4124  0.2543 -0.0840
 3572SOL     OW11614   4.680   4.210   1.685  0.4568 -0.0944  0.1443
 3572SOL    HW111615   4.589   4.225   1.724  0.8151 -0.2756  1.0967
 3572SOL    HW211616   4.703   4.113   1.691  0.5531 -0.1131 -0.4668
 3573SOL     OW11617   6.781   5.394   3.128  0.5204  0.2815 -0.1389
 3573SOL    HW111618   6.775   5.309   3.075 -3.9822 -0.1276  0.6153
 3573SOL    HW211619   6.780   5.472   3.066  0.5830 -0.2011 -0.7559
 3574SOL     OW11620   2.696   3.629   6.846  0.5728 -0.0002  0.3726
 3574SOL    HW111621   2.681   3.543   6.797  0.5951  0.6952 -0.8915
 3574SOL    HW211622   2.787   3.663   6.826 -0.1299  1.2990 -0.7136
 3575SOL     OW11623   3.200   5.508   0.379 -0.1054 -0.2008  0.3361
 3575SOL    HW111624   3.244   5.533   0.466  0.2423  0.0813  0.0874
 3575SOL    HW211625   3.201   5.409   0.368  0.3779 -0.2063  0.3907
 3576SOL     OW11626   2.365   1.829   5.911 -0.1559  0.1019  0.9458
 3576SOL    HW111627   2.267   1.809   5.905  0.2536 -2.2866  1.1338
 3576SOL    HW211628   2.403   1.839   5.819  0.2980 -4.4376  0.3909
 3577SOL     OW11629   1.792   3.460   4.008 -0.2269  0.6092 -0.1765
 3577SOL    HW111630   1.741   3.399   4.068  2.1742  0.6548  2.1010
 3577SOL    HW211631   1.825   3.539   4.061 -0.7329  2.3697 -2.3554
 3578SOL     OW11632   3.876   3.347   1.399 -0.7281  0.4007  0.1678
 3578SOL    HW111633   3.787   3.302   1.393  1.1430 -3.5658 -2.5352
 3578SOL    HW211634   3.924   3.317   1.481  0.0663 -1.8760 -1.0561
 3579SOL     OW11635   1.992   5.007   3.422  0.0774 -0.2203 -0.7156
 3579SOL    HW111636   1.990   4.915   3.461 -1.4963  0.5373  1.0964
 3579SOL    HW211637   1.971   5.002   3.324 -0.9467 -1.6895 -0.4504
 3580SOL     OW11638   0.219   4.579   2.642  0.6673 -0.3870  0.1587
 3580SOL    HW111639   0.158   4.582   2.563  0.8469  0.3033  0.0357
 3580SOL    HW211640   0.259   4.670   2.656 -1.2580  0.2249  2.5181
 3581SOL     OW11641   0.587   1.553   2.248 -0.7506  0.1984 -0.0434
 3581SOL    HW111642   0.648   1.545   2.327 -0.9890  1.6795  0.3226
 3581SOL    HW211643   0.543   1.642   2.250 -3.1036 -0.8900 -0.1771
 3582SOL     OW11644   5.225   6.352   1.013 -0.0450  0.2148 -0.2537
 3582SOL    HW111645   5.213   6.260   1.051  1.4073  0.5333  1.0760
 3582SOL    HW211646   5.173   6.359   0.928  0.7999 -2.2690 -1.0878
 3583SOL     OW11647   1.731   1.015   0.654 -0.0579  0.1203 -0.2707
 3583SOL    HW111648   1.780   0.950   0.712 -0.9353 -0.6619 -0.3803
 3583SOL    HW211649   1.657   1.057   0.707 -0.4131 -0.0628 -0.6201
 3584SOL     OW11650   4.695   5.308   5.576  0.3466 -0.3609  0.3880
 3584SOL    HW111651   4.791   5.307   5.603  0.2032 -0.8925  0.8842
 3584SOL    HW211652   4.661   5.402   5.578  1.0163 -0.0885 -0.3941
 3585SOL     OW11653   5.323   2.880   3.201  0.0754 -0.0558 -0.2096
 3585SOL    HW111654   5.291   2.804   3.144 -1.2008  0.1730  0.1643
 3585SOL    HW211655   5.341   2.846   3.294  0.3054 -0.0625 -0.2573
 3586SOL     OW11656   0.342   3.882   4.048  0.4934 -0.8806  0.1407
 3586SOL    HW111657   0.305   3.820   4.118 -0.6165 -1.7933 -1.2071
 3586SOL    HW211658   0.362   3.830   3.965 -0.0873  0.4950 -0.9027
 3587SOL     OW11659   4.028   1.018   5.999 -0.0337 -0.0540  0.1289
 3587SOL    HW111660   3.966   1.014   6.078  0.1376  1.2989  0.3575
 3587SOL    HW211661   4.027   0.930   5.952 -2.5125  0.0768 -0.1819
 3588SOL     OW11662   5.402   3.657   4.768  0.5864  0.4034 -0.2738
 3588SOL    HW111663   5.382   3.706   4.683  0.9278  2.1766  0.6207
 3588SOL    HW211664   5.473   3.589   4.751  0.7872  0.8580 -1.3597
 3589SOL     OW11665   0.867   1.187   5.436  0.3504  0.0044  0.1328
 3589SOL    HW111666   0.869   1.087   5.426 -2.9261 -0.0659 -0.7072
 3589SOL    HW211667   0.802   1.212   5.508 -0.2465  1.5745 -0.8990
 3590SOL     OW11668   0.270   5.840   5.890  0.5934  0.0515 -0.3110
 3590SOL    HW111669   0.342   5.908   5.905  1.3776 -1.3242  3.0074
 3590SOL    HW211670   0.309   5.748   5.890 -0.9918 -0.6829  0.7933
 3591SOL     OW11671   2.892   1.824   1.901 -0.2242  0.6189 -0.2039
 3591SOL    HW111672   2.820   1.804   1.834  1.8924  0.5321 -2.6140
 3591SOL    HW211673   2.883   1.919   1.931 -1.0721  0.7458 -0.8026
 3592SOL     OW11674   2.096   0.003   2.596 -0.0648 -0.6617  0.0614
 3592SOL    HW111675   2.196   0.002   2.600  0.1429  2.0726 -1.5232
 3592SOL    HW211676   2.067   0.066   2.524 -2.9621 -1.3988  0.4733
 3593SOL     OW11677   5.316   4.708   0.708  0.2147  0.0608 -0.5176
 3593SOL    HW111678   5.322   4.608   0.712 -1.1276 -0.0312 -0.1502
 3593SOL    HW211679   5.255   4.735   0.634  0.0798  0.5801 -0.2235
 3594SOL     OW11680   6.813   6.319   6.017  0.0365 -0.3387 -0.1707
 3594SOL    HW111681   6.769   6.309   5.928  1.0701  1.2879 -0.9093
 3594SOL    HW211682   6.850   6.230   6.046 -0.8225 -1.0129 -1.0536
 3595SOL     OW11683   4.346   4.946   4.979  0.2932  0.6660 -0.0988
 3595SOL    HW111684   4.274   4.971   5.044  0.0728  2.3536 -0.9358
 3595SOL    HW211685   4.303   4.918   4.892  0.6254  0.7917 -0.3042
 3596SOL     OW11686   4.679   3.718   6.689 -0.2293 -0.3424  0.2732
 3596SOL    HW111687   4.666   3.667   6.604 -2.2737  2.3868 -1.2127
 3596SOL    HW211688   4.764   3.771   6.683  0.1820 -0.9708  0.4216
 3597SOL     OW11689   4.989   5.590   6.178  0.3941  0.5747 -0.6804
 3597SOL    HW111690   4.993   5.598   6.078 -0.6166 -1.1385 -0.8976
 3597SOL    HW211691   4.914   5.647   6.213 -0.6425 -0.4387 -1.1666
 3598SOL     OW11692   6.187   6.481   4.897 -0.0204 -0.0459 -0.1540
 3598SOL    HW111693   6.133   6.443   4.822  0.8240 -0.7091 -0.4397
 3598SOL    HW211694   6.284   6.467   4.879  0.3760  2.4179 -0.3616
 3599SOL     OW11695   2.691   0.711   5.456 -0.2956 -0.8825  0.1569
 3599SOL    HW111696   2.726   0.709   5.550  0.8702 -0.6535 -0.2530
 3599SOL    HW211697   2.723   0.794   5.410 -0.4526 -1.2287 -0.5939
 3600SOL     OW11698   1.953   4.805   0.308 -0.2846 -0.1793  0.3861
 3600SOL    HW111699   2.021   4.827   0.378 -0.2310 -0.4128  0.4078
 3600SOL    HW211700   1.937   4.885   0.251  0.9099 -0.4660 -0.3823
 3601SOL     OW11701   3.333   0.607   1.307  0.1394 -0.0486  0.5299
 3601SOL    HW111702   3.317   0.564   1.218  0.1432 -3.0958  1.8716
 3601SOL    HW211703   3.403   0.678   1.298 -0.7265  0.5913 -2.0481
 3602SOL     OW11704   2.164   4.242   6.235  0.0992  0.5392  0.0247
 3602SOL    HW111705   2.150   4.341   6.227  0.5870  0.5296 -1.1672
 3602SOL    HW211706   2.262   4.221   6.229 -0.0646 -0.0784 -0.7356
 3603SOL     OW11707   0.784   6.920   6.273  0.1423 -0.0921 -0.3368
 3603SOL    HW111708   0.761   7.009   6.314 -1.8934 -1.2792  1.2775
 3603SOL    HW211709   0.828   6.862   6.342  0.5892 -0.6766 -1.1037
 3604SOL     OW11710   5.612   1.993   4.520  0.1498 -0.3718  0.0967
 3604SOL    HW111711   5.704   2.002   4.558  0.0324  0.7050  0.1579
 3604SOL    HW211712   5.602   2.053   4.441 -1.1879  1.3480  1.4691
 3605SOL     OW11713   2.345   6.196   5.554  0.4212  0.5009  1.1341
 3605SOL    HW111714   2.320   6.116   5.609  0.7388  1.1354  2.2499
 3605SOL    HW211715   2.271   6.263   5.559  0.1289  0.2598  0.1515
 3606SOL     OW11716   2.081   2.553   2.433 -0.0441 -0.2723 -0.3470
 3606SOL    HW111717   2.146   2.512   2.496 -0.2035 -0.8086 -0.5216
 3606SOL    HW211718   2.092   2.513   2.342  0.1809  0.4867 -0.6633
 3607SOL     OW11719   6.618   1.101   3.231  0.2901  0.3251 -0.0989
 3607SOL    HW111720   6.661   1.105   3.141 -0.3548  0.0037 -0.4318
 3607SOL    HW211721   6.655   1.024   3.283  1.3633  1.0763  0.2963
 3608SOL     OW11722   5.006   1.133   6.430 -0.0268 -0.6778 -0.1206
 3608SOL    HW111723   4.933   1.098   6.370 -1.2872  2.6226 -0.7279
 3608SOL    HW211724   5.008   1.233   6.425  2.7505 -0.5013  2.0828
 3609SOL     OW11725   1.368   0.405   5.027 -0.1626 -0.2003 -0.1851
 3609SOL    HW111726   1.326   0.315   5.041  0.9511 -0.9040 -1.1551
 3609SOL    HW211727   1.402   0.440   5.114  1.7352 -1.9545 -0.1274
 3610SOL     OW11728   1.109   6.583   6.577  0.2466 -0.2236 -0.3817
 3610SOL    HW111729   1.022   6.630   6.565 -0.3985 -1.3490 -0.3024
 3610SOL    HW211730   1.136   6.541   6.490  0.4805 -0.2579 -0.2926
 3611SOL     OW11731   5.945   4.014   2.641 -0.3249 -0.1395 -0.2372
 3611SOL    HW111732   5.938   3.962   2.556  2.1272 -0.5318 -0.2673
 3611SOL    HW211733   6.027   4.071   2.638 -1.2853  1.4015  1.0768
 3612SOL     OW11734   5.538   6.907   0.967 -0.1618 -0.1150  0.0789
 3612SOL    HW111735   5.485   6.961   0.901 -0.9630 -1.7507 -0.6786
 3612SOL    HW211736   5.571   6.967   1.040 -1.1736  1.3515 -0.6120
 3613SOL     OW11737   5.076   1.023   2.262 -0.1720 -0.1899 -0.4697
 3613SOL    HW111738   5.088   1.016   2.163  0.7219  0.3616 -0.4129
 3613SOL    HW211739   5.165   1.017   2.306 -0.5591 -0.3224  0.2958
 3614SOL     OW11740   5.148   5.735   0.654 -0.4792  0.1533  1.1610
 3614SOL    HW111741   5.245   5.741   0.679  0.0107  1.9510 -0.9226
 3614SOL    HW211742   5.102   5.821   0.678 -1.0747  0.1037  0.2298
 3615SOL     OW11743   6.058   1.500   4.514 -0.0088 -0.0563 -0.4347
 3615SOL    HW111744   5.989   1.536   4.578 -0.5024 -1.1778 -0.2926
 3615SOL    HW211745   6.145   1.546   4.529 -0.8584  1.7950 -1.0021
 3616SOL     OW11746   3.280   6.446   0.703 -0.1750  0.2829 -0.2026
 3616SOL    HW111747   3.367   6.403   0.728 -0.4304  0.3025  0.7784
 3616SOL    HW211748   3.271   6.532   0.754 -1.1637 -0.1557  0.3799
 3617SOL     OW11749   4.848   5.191   4.202  0.2816  0.0273  0.3290
 3617SOL    HW111750   4.856   5.262   4.132 -2.2821  0.3640  0.2517
 3617SOL    HW211751   4.751   5.178   4.225  0.8400 -1.9665  1.8966
 3618SOL     OW11752   0.800   5.682   3.475 -0.6676  0.1127 -0.8797
 3618SOL    HW111753   0.870   5.638   3.531 -0.2761  1.4299 -0.3032
 3618SOL    HW211754   0.738   5.612   3.439  0.1563 -0.9402 -0.3201
 3619SOL     OW11755   6.759   3.014   2.330 -0.3410 -0.0558 -0.3653
 3619SOL    HW111756   6.775   2.917   2.343 -1.7388 -0.1895  0.5329
 3619SOL    HW211757   6.693   3.047   2.397  3.0875  2.4306  2.2068
 3620SOL     OW11758   3.135   6.932   4.990  0.3892  0.0634  0.4749
 3620SOL    HW111759   3.070   6.888   4.928  0.5760  0.7285 -0.1967
 3620SOL    HW211760   3.086   6.964   5.072 -0.1554  0.6394 -0.0667
 3621SOL     OW11761   3.218   3.484   2.302  0.2504 -0.5202  0.3282
 3621SOL    HW111762   3.313   3.491   2.332 -0.0637  0.9027  1.0973
 3621SOL    HW211763   3.165   3.437   2.373  0.3573 -1.2878 -0.0879
 3622SOL     OW11764   0.973   6.060   6.139 -0.5410 -0.6075  0.4755
 3622SOL    HW111765   0.907   6.011   6.082 -1.8679  2.6004 -1.0025
 3622SOL    HW211766   0.925   6.105   6.214  0.3040 -0.0568  0.7039
 3623SOL     OW11767   6.553   0.419   6.037  0.1550  0.4524 -0.1006
 3623SOL    HW111768   6.549   0.518   6.037  0.8863  0.5316 -1.8398
 3623SOL    HW211769   6.542   0.386   5.943  0.3489 -1.0876  0.3907
 3624SOL     OW11770   1.562   2.743   0.847  0.6351 -0.2601 -0.0368
 3624SOL    HW111771   1.487   2.678   0.859  1.4727 -1.5124 -1.2891
 3624SOL    HW211772   1.648   2.693   0.840  1.5774  1.1332  1.0805
 3625SOL     OW11773   5.614   1.319   2.674  0.3401  0.6465  0.2151
 3625SOL    HW111774   5.636   1.384   2.601  0.5743 -1.2881 -1.5498
 3625SOL    HW211775   5.526   1.343   2.715 -1.2454  0.2132 -2.6974
 3626SOL     OW11776   6.336   2.577   4.481 -0.4982 -0.3362 -0.6820
 3626SOL    HW111777   6.424   2.559   4.437  1.2514  0.9105  1.9652
 3626SOL    HW211778   6.282   2.493   4.485  0.1497 -0.9372 -3.1519
 3627SOL     OW11779   1.939   2.333   3.293 -0.6105 -0.3132 -0.2270
 3627SOL    HW111780   1.846   2.338   3.257 -0.9743  0.6838  0.7863
 3627SOL    HW211781   2.004   2.331   3.217 -1.3299  1.7982 -0.9784
 3628SOL     OW11782   1.094   1.783   1.783 -0.3395 -0.1983 -0.5233
 3628SOL    HW111783   1.191   1.798   1.768 -0.0654  0.2962  1.5209
 3628SOL    HW211784   1.081   1.705   1.844 -1.1247  0.7382  0.5459
 3629SOL     OW11785   2.682   5.402   4.011  0.7149  0.3493  0.3716
 3629SOL    HW111786   2.643   5.319   4.050  2.4496 -1.3487 -1.2875
 3629SOL    HW211787   2.614   5.476   4.015 -0.7817 -1.0290  2.1320
 3630SOL     OW11788   6.250   1.287   2.739  0.6091 -0.1515 -0.3754
 3630SOL    HW111789   6.228   1.373   2.786  1.1795  0.0874 -0.5317
 3630SOL    HW211790   6.223   1.210   2.797 -0.5548  0.1169 -0.5315
 3631SOL     OW11791   1.813   5.525   3.089  0.6989 -0.2224 -0.3362
 3631SOL    HW111792   1.910   5.545   3.105  0.7871  0.1380 -1.3164
 3631SOL    HW211793   1.762   5.610   3.081  0.7571 -0.3366 -2.5281
 3632SOL     OW11794   4.826   4.834   1.783  0.4959  0.1468  0.0316
 3632SOL    HW111795   4.804   4.741   1.810 -1.8542  0.4066 -0.6924
 3632SOL    HW211796   4.906   4.834   1.723  2.1579 -1.0383  2.1231
 3633SOL     OW11797   4.240   6.239   4.863  0.0333  0.0123  0.2437
 3633SOL    HW111798   4.290   6.324   4.883  1.1256 -1.0380  2.2991
 3633SOL    HW211799   4.152   6.241   4.910 -0.9332  0.8697 -1.4905
 3634SOL     OW11800   2.954   4.848   5.019  0.2248  0.2464  0.6655
 3634SOL    HW111801   2.886   4.776   5.028 -0.7916  0.6581 -2.4184
 3634SOL    HW211802   3.042   4.808   4.991 -0.4455  0.1481 -1.4606
 3635SOL     OW11803   3.210   0.655   3.024 -0.1124 -0.3766  0.0467
 3635SOL    HW111804   3.236   0.702   2.940  0.4432 -1.2252 -0.2715
 3635SOL    HW211805   3.288   0.602   3.058 -0.0318  0.6691  1.6090
 3636SOL     OW11806   0.161   5.212   5.404  0.9462  0.5614 -0.1159
 3636SOL    HW111807   0.136   5.291   5.348  1.1890 -1.1167 -2.7752
 3636SOL    HW211808   0.106   5.133   5.377  3.3313 -1.1428 -0.3240
 3637SOL     OW11809   5.059   2.274   0.661 -0.4269 -0.3353  0.4706
 3637SOL    HW111810   5.039   2.179   0.638 -2.7066  0.2253 -0.1067
 3637SOL    HW211811   5.044   2.290   0.758  2.2954 -1.0511  1.0965
 3638SOL     OW11812   0.689   2.548   3.403 -0.6799  0.0963  0.2866
 3638SOL    HW111813   0.626   2.472   3.420  0.1148 -0.9879 -1.3734
 3638SOL    HW211814   0.759   2.550   3.474  0.5030 -2.0918 -0.7140
 3639SOL     OW11815   2.909   3.775   3.613  0.5733  0.6413 -0.1771
 3639SOL    HW111816   2.821   3.767   3.660  1.2238  0.2345  1.0076
 3639SOL    HW211817   2.981   3.793   3.680  1.2548  2.0053 -1.2412
 3640SOL     OW11818   6.231   1.742   2.721 -0.6406 -0.0593  0.4237
 3640SOL    HW111819   6.324   1.719   2.751  0.0753  1.9487 -0.0949
 3640SOL    HW211820   6.232   1.763   2.623 -1.1716  2.1300  0.8379
 3641SOL     OW11821   5.507   4.801   1.440 -0.3882 -0.0294  0.0022
 3641SOL    HW111822   5.484   4.737   1.366 -0.0427  0.2682 -0.3698
 3641SOL    HW211823   5.479   4.762   1.527  1.1666 -1.3721 -0.0564
 3642SOL     OW11824   1.684   6.282   6.197 -0.0860  0.2992 -0.1131
 3642SOL    HW111825   1.718   6.219   6.267  1.3024  0.9594 -0.1681
 3642SOL    HW211826   1.599   6.325   6.229 -0.4434 -0.7474  0.3880
 3643SOL     OW11827   4.251   5.001   6.229  0.4854  0.2202  0.3455
 3643SOL    HW111828   4.286   5.085   6.189  1.6798 -0.6933 -0.6024
 3643SOL    HW211829   4.237   4.933   6.157 -2.7544  0.3179  0.7423
 3644SOL     OW11830   1.926   3.191   1.546 -0.3276  0.5444  0.3886
 3644SOL    HW111831   2.002   3.126   1.549 -1.7654 -1.2059  1.0296
 3644SOL    HW211832   1.952   3.271   1.491  2.0081  0.1092  0.7749
 3645SOL     OW11833   0.896   4.504   5.170 -0.3925 -0.0312 -0.1484
 3645SOL    HW111834   0.991   4.476   5.155 -0.4121 -0.0167 -0.2957
 3645SOL    HW211835   0.847   4.429   5.215 -0.6637 -0.5706 -1.3220
 3646SOL     OW11836   2.872   5.544   5.155 -0.3884 -0.0427 -0.1692
 3646SOL    HW111837   2.785   5.528   5.201 -1.4982  0.5800 -1.9592
 3646SOL    HW211838   2.939   5.477   5.186 -1.3786 -0.3089  1.5122
 3647SOL     OW11839   3.156   0.443   6.110 -0.2166  0.2627 -1.2433
 3647SOL    HW111840   3.158   0.490   6.198 -0.7510 -0.9660 -0.5639
 3647SOL    HW211841   3.242   0.396   6.095 -0.7883 -1.0496 -0.5183
 3648SOL     OW11842   6.217   6.920   4.302  0.2674 -0.5104  0.2168
 3648SOL    HW111843   6.266   6.973   4.233  0.1014  1.4829  1.5137
 3648SOL    HW211844   6.276   6.849   4.338  1.6915  0.8183  0.6185
 3649SOL     OW11845   5.811   2.234   1.393 -0.5713  0.9097  0.0902
 3649SOL    HW111846   5.788   2.191   1.306 -0.2838  0.7064  0.1145
 3649SOL    HW211847   5.730   2.232   1.453  0.2541 -2.7188  1.3769
 3650SOL     OW11848   5.881   6.852   6.707  0.1372 -0.0199 -0.9767
 3650SOL    HW111849   5.879   6.771   6.766  0.2337  0.1308 -0.7630
 3650SOL    HW211850   5.855   6.932   6.760  0.3718  0.1401 -1.1039
 3651SOL     OW11851   5.907   1.563   5.564 -0.8759 -0.0493  0.1355
 3651SOL    HW111852   5.827   1.575   5.623 -1.0235 -3.2051  0.7815
 3651SOL    HW211853   5.989   1.593   5.613 -1.3671  0.5811  0.5862
 3652SOL     OW11854   5.529   3.527   2.485 -0.2768 -0.5216  0.3920
 3652SOL    HW111855   5.539   3.606   2.424  0.1428 -0.9278 -0.0733
 3652SOL    HW211856   5.433   3.499   2.487 -0.5749  0.4898  1.1931
 3653SOL     OW11857   1.527   3.721   0.208 -0.0475  0.5887 -0.1426
 3653SOL    HW111858   1.509   3.815   0.178 -0.1488  0.8835  0.8133
 3653SOL    HW211859   1.485   3.657   0.143 -1.4549  1.2275  0.1029
 3654SOL     OW11860   4.178   6.175   5.602  0.3520 -0.0973 -0.3668
 3654SOL    HW111861   4.248   6.243   5.623  0.0293 -0.1113  0.7986
 3654SOL    HW211862   4.161   6.118   5.682  0.3141 -1.2932 -1.2068
 3655SOL     OW11863   2.975   0.865   4.203 -0.3211  0.0678 -0.0703
 3655SOL    HW111864   2.911   0.788   4.207  0.2431 -0.3911  0.3291
 3655SOL    HW211865   3.068   0.832   4.222  0.0717  0.6875 -0.8404
 3656SOL     OW11866   1.900   1.593   1.609  0.3635  0.0698  0.5124
 3656SOL    HW111867   1.976   1.656   1.624 -0.3735  1.3836 -0.9737
 3656SOL    HW211868   1.818   1.628   1.653  0.2294 -0.4949  0.7225
 3657SOL     OW11869   5.382   5.170   6.835  0.0464 -0.4954 -0.5905
 3657SOL    HW111870   5.377   5.247   6.772  0.2307 -0.2794 -0.3429
 3657SOL    HW211871   5.291   5.129   6.845 -0.2410  0.2487 -0.0316
 3658SOL     OW11872   3.521   4.961   5.368 -1.1129 -0.2579 -0.8121
 3658SOL    HW111873   3.470   4.879   5.395 -3.0858  1.6308  1.5694
 3658SOL    HW211874   3.459   5.025   5.322 -1.3490  2.4145  2.8009
 3659SOL     OW11875   0.566   1.683   6.044 -0.0149 -0.3253  0.6122
 3659SOL    HW111876   0.566   1.781   6.023 -0.7582  0.0824  2.2975
 3659SOL    HW211877   0.506   1.666   6.123  2.4763 -1.6884  2.3354
 3660SOL     OW11878   3.955   4.870   4.107 -0.3058 -0.2124  0.1035
 3660SOL    HW111879   3.896   4.838   4.032  0.3438 -0.2776 -0.3837
 3660SOL    HW211880   3.898   4.895   4.186 -1.0527  0.6920 -0.7109
 3661SOL     OW11881   1.954   6.478   5.014  0.6175 -0.1728 -0.0916
 3661SOL    HW111882   1.876   6.520   4.967 -0.1483 -1.1944  0.2246
 3661SOL    HW211883   2.022   6.450   4.946 -1.4451 -3.6504 -0.9749
 3662SOL     OW11884   4.105   3.467   4.226 -0.0896  0.1371 -0.1229
 3662SOL    HW111885   4.068   3.380   4.260  1.1601 -0.0346  0.9016
 3662SOL    HW211886   4.154   3.451   4.141 -0.8055  0.0423 -0.5199
 3663SOL     OW11887   6.840   2.463   0.429 -0.4694  0.0941  0.6110
 3663SOL    HW111888   6.770   2.435   0.495 -0.3589  1.2738  1.2428
 3663SOL    HW211889   6.850   2.562   0.430  0.1792  0.0581 -0.5367
 3664SOL     OW11890   2.287   4.531   2.558 -0.1275 -0.3810  0.4204
 3664SOL    HW111891   2.280   4.499   2.652  3.8234 -0.5127  0.8342
 3664SOL    HW211892   2.381   4.521   2.526 -1.0569  0.8040 -3.1763
 3665SOL     OW11893   6.336   4.783   4.700  0.1807  0.3975  0.3561
 3665SOL    HW111894   6.374   4.782   4.792 -0.2914  0.6786  0.5603
 3665SOL    HW211895   6.257   4.845   4.698 -1.0477 -1.0938  0.2624
 3666SOL     OW11896   1.774   3.114   4.839 -0.3999 -0.5155  0.4058
 3666SOL    HW111897   1.864   3.072   4.848  0.7213  1.8790  1.2480
 3666SOL    HW211898   1.741   3.139   4.930 -1.8252 -1.1096  0.0751
 3667SOL     OW11899   0.828   6.206   2.226 -0.6876 -0.3849  0.0705
 3667SOL    HW111900   0.776   6.254   2.155 -0.7107 -0.9363 -0.2939
 3667SOL    HW211901   0.805   6.244   2.316 -0.2420  0.7121 -0.2532
 3668SOL     OW11902   5.221   1.239   6.609  0.5377 -0.0824  0.3133
 3668SOL    HW111903   5.201   1.250   6.511  0.7851  0.2448  0.2945
 3668SOL    HW211904   5.315   1.208   6.620  1.0510  1.4593  0.4892
 3669SOL     OW11905   6.394   6.964   2.558  0.8452 -0.5419 -0.5895
 3669SOL    HW111906   6.419   7.017   2.639  0.3868 -1.2013  0.0004
 3669SOL    HW211907   6.404   7.020   2.476  0.1299  0.5359  0.0384
 3670SOL     OW11908   2.784   6.893   1.224  0.0183  0.6682 -0.0074
 3670SOL    HW111909   2.711   6.838   1.184 -0.2483  0.7766  0.3191
 3670SOL    HW211910   2.748   6.982   1.251  0.7070  1.4596 -1.5822
 3671SOL     OW11911   2.227   0.601   5.563 -0.2185  0.3604 -0.3157
 3671SOL    HW111912   2.251   0.669   5.633 -1.3059  1.4255 -0.9273
 3671SOL    HW211913   2.234   0.644   5.473 -1.0823 -0.3048 -0.7015
 3672SOL     OW11914   2.903   1.342   0.291  0.3323  0.4243  0.5231
 3672SOL    HW111915   2.945   1.275   0.229 -0.2811  0.0184  0.5443
 3672SOL    HW211916   2.857   1.294   0.366  0.5624  0.8971  0.9699
 3673SOL     OW11917   4.442   2.173   0.804 -0.2087 -0.1649 -0.5392
 3673SOL    HW111918   4.418   2.123   0.721  0.2331 -0.5242 -0.4552
 3673SOL    HW211919   4.541   2.175   0.815 -0.2736 -0.4324  0.1592
 3674SOL     OW11920   6.730   0.186   4.496 -0.2319  0.2542 -0.8079
 3674SOL    HW111921   6.644   0.202   4.545 -1.1616 -1.2722 -1.8330
 3674SOL    HW211922   6.761   0.093   4.514  0.2042  0.1699 -1.8941
 3675SOL     OW11923   6.488   0.666   5.308  0.3908 -0.0739  0.1928
 3675SOL    HW111924   6.513   0.594   5.372 -0.9354 -0.3608  0.4153
 3675SOL    HW211925   6.494   0.632   5.215 -1.7322 -1.0146  0.3472
 3676SOL     OW11926   1.611   0.435   4.333 -0.4796  0.2285  0.7548
 3676SOL    HW111927   1.660   0.490   4.401 -0.5475 -0.6326  1.5203
 3676SOL    HW211928   1.607   0.485   4.246  0.7917  0.7744  0.9928
 3677SOL     OW11929   0.558   1.062   5.367 -0.4997  0.3776 -0.0888
 3677SOL    HW111930   0.590   0.995   5.300 -0.0487  0.3977  0.1043
 3677SOL    HW211931   0.473   1.029   5.409 -0.3404 -0.0254 -0.0760
 3678SOL     OW11932   3.642   1.009   4.220  0.2144  0.7385 -0.0349
 3678SOL    HW111933   3.610   1.062   4.299  0.4045  0.9682 -0.1101
 3678SOL    HW211934   3.742   1.013   4.215  0.2585  0.0501  0.1783
 3679SOL     OW11935   0.288   1.926   1.240  0.5112 -0.6427  0.7573
 3679SOL    HW111936   0.352   1.862   1.282  1.9891  0.7638  0.7231
 3679SOL    HW211937   0.315   2.020   1.261  0.8233  0.1370 -2.4888
 3680SOL     OW11938   4.927   0.665   3.605  0.2807 -0.2874 -0.2030
 3680SOL    HW111939   4.999   0.603   3.637  1.3047  0.5704 -0.7765
 3680SOL    HW211940   4.877   0.623   3.530  0.1012 -0.9354  0.2719
 3681SOL     OW11941   6.853   4.760   4.548 -0.6553  0.2124  0.0631
 3681SOL    HW111942   6.918   4.828   4.515  0.6826 -0.4130  1.2726
 3681SOL    HW211943   6.901   4.674   4.566 -2.3787 -1.2449 -1.8899
 3682SOL     OW11944   6.655   1.005   1.284  0.0211  0.1594 -0.0687
 3682SOL    HW111945   6.643   1.013   1.185 -0.1376 -2.2256 -0.2918
 3682SOL    HW211946   6.566   1.014   1.329 -0.6638 -2.9589 -0.5607
 3683SOL     OW11947   4.209   3.675   1.153 -0.0664 -0.1846  0.0980
 3683SOL    HW111948   4.292   3.626   1.176  0.3752 -0.2150 -1.4304
 3683SOL    HW211949   4.144   3.668   1.228  1.4023  0.0894  1.4413
 3684SOL     OW11950   2.423   6.958   1.044  0.1531  0.4935  0.2725
 3684SOL    HW111951   2.339   6.914   1.073  0.2224 -1.0482 -1.6184
 3684SOL    HW211952   2.502   6.903   1.072  0.2965 -0.1016 -1.1930
 3685SOL     OW11953   0.917   5.564   4.018  0.8068  0.4354 -0.4186
 3685SOL    HW111954   0.911   5.476   4.065 -0.2153  0.6190 -0.1688
 3685SOL    HW211955   1.002   5.569   3.966  1.1197 -0.4852 -0.0128
 3686SOL     OW11956   2.866   5.949   0.306  0.6040  0.9719 -0.4597
 3686SOL    HW111957   2.892   5.860   0.268  1.5904  0.4026  1.3927
 3686SOL    HW211958   2.949   6.001   0.328  0.0771  1.5153  0.2886
 3687SOL     OW11959   1.256   4.106   5.292  0.1653  0.3984 -0.1717
 3687SOL    HW111960   1.253   4.166   5.372  1.6054  0.8707 -0.4314
 3687SOL    HW211961   1.176   4.045   5.292 -0.9917  1.8595  0.4436
 3688SOL     OW11962   6.680   2.313   1.090 -0.2264  0.4161 -0.1161
 3688SOL    HW111963   6.642   2.399   1.125 -1.0605 -0.0641  0.1847
 3688SOL    HW211964   6.729   2.266   1.164 -3.0305 -1.1908  0.8371
 3689SOL     OW11965   2.617   0.882   4.278 -0.2687 -0.2919  0.6605
 3689SOL    HW111966   2.615   0.956   4.345 -0.5955 -1.5909  2.1370
 3689SOL    HW211967   2.585   0.798   4.321  3.1383 -2.0777 -0.0039
 3690SOL     OW11968   5.321   4.736   3.124  0.3009 -0.3235  0.2583
 3690SOL    HW111969   5.261   4.809   3.156  0.1772 -0.7445  1.0302
 3690SOL    HW211970   5.398   4.775   3.075  0.2521  0.3284  0.6826
 3691SOL     OW11971   2.491   1.576   5.827  0.0625  0.1193 -0.4488
 3691SOL    HW111972   2.410   1.578   5.886 -0.0068  0.4937 -0.5578
 3691SOL    HW211973   2.539   1.663   5.832 -0.1872  0.3123 -1.2771
 3692SOL     OW11974   0.164   1.237   5.025  0.3657 -0.1022 -0.0741
 3692SOL    HW111975   0.147   1.169   5.096  1.1545  1.2170  1.4359
 3692SOL    HW211976   0.220   1.311   5.062 -1.0394  1.7520 -1.4383
 3693SOL     OW11977   2.492   1.257   3.636  0.2654 -0.1895  0.0447
 3693SOL    HW111978   2.400   1.224   3.617 -0.2109  1.0380  0.1143
 3693SOL    HW211979   2.489   1.324   3.710  0.6095  2.6334 -2.2953
 3694SOL     OW11980   6.369   6.824   0.966  0.2897 -0.6700 -0.1878
 3694SOL    HW111981   6.299   6.776   1.018 -1.1942 -0.1339 -1.5945
 3694SOL    HW211982   6.432   6.758   0.926 -0.1485 -1.2576  0.0800
 3695SOL     OW11983   6.770   5.032   5.223  0.0045 -0.0947 -0.4420
 3695SOL    HW111984   6.818   4.955   5.264 -0.3708  0.0382  0.2634
 3695SOL    HW211985   6.726   5.003   5.138 -0.6590 -0.8196  0.1384
 3696SOL     OW11986   2.234   0.050   2.943 -0.3016  0.1686  0.1404
 3696SOL    HW111987   2.267   0.085   2.856 -1.5816  0.1485 -0.3842
 3696SOL    HW211988   2.240  -0.050   2.943  0.3076  0.2015  0.3434
 3697SOL     OW11989   6.256   4.892   3.456  0.3939 -0.4774 -0.1760
 3697SOL    HW111990   6.319   4.855   3.524  1.3595 -0.4862 -1.0448
 3697SOL    HW211991   6.177   4.933   3.502  0.8251 -0.8405  0.9175
 3698SOL     OW11992   2.355   6.655   0.968 -0.3265  0.1912 -0.6783
 3698SOL    HW111993   2.364   6.556   0.959 -1.0810  0.0808 -0.3178
 3698SOL    HW211994   2.436   6.692   1.013  0.0725 -0.2238 -1.0462
 3699SOL     OW11995   4.554   2.131   1.789  0.2449  0.4059  0.2210
 3699SOL    HW111996   4.622   2.194   1.827  1.1797 -1.0231  0.9939
 3699SOL    HW211997   4.515   2.076   1.862 -0.9848  0.4602 -0.3709
 3700SOL     OW11998   1.187   4.455   5.167 -0.2552 -0.4266 -0.0298
 3700SOL    HW111999   1.211   4.390   5.094  1.0543 -2.8933  2.4342
 3700SOL    HW212000   1.270   4.496   5.204 -0.9479  1.2130 -0.1792
 3701SOL     OW12001   6.272   6.843   2.258  0.2195 -0.3363  0.8241
 3701SOL    HW112002   6.335   6.794   2.319 -0.3426 -0.3778  1.3793
 3701SOL    HW212003   6.194   6.876   2.310 -1.3362 -2.1631 -0.2016
 3702SOL     OW12004   6.299   5.933   1.883  0.1946  0.1295  0.1413
 3702SOL    HW112005   6.273   5.861   1.818 -0.4992 -0.0173  0.5695
 3702SOL    HW212006   6.398   5.933   1.894  0.3061  0.0222 -0.7581
 3703SOL     OW12007   2.097   1.611   2.054  0.1126  0.3770 -0.7111
 3703SOL    HW112008   2.039   1.624   2.134  1.0718 -0.9556  0.2380
 3703SOL    HW212009   2.041   1.581   1.977 -0.8483  1.8487 -0.6273
 3704SOL     OW12010   0.153   6.239   1.045 -0.2920  0.1049 -0.0173
 3704SOL    HW112011   0.222   6.175   1.081  1.0385  2.4523  1.8582
 3704SOL    HW212012   0.104   6.281   1.121 -0.3244  2.1435 -1.1052
 3705SOL     OW12013   5.624   3.681   0.959 -0.2297 -0.2426  0.3217
 3705SOL    HW112014   5.658   3.588   0.964 -1.4880 -0.7913 -0.7931
 3705SOL    HW212015   5.580   3.696   0.870  1.5588  1.9918 -0.2826
 3706SOL     OW12016   6.548   6.674   6.920  0.3422  0.6557 -0.4164
 3706SOL    HW112017   6.466   6.665   6.863  0.1501 -1.2498  0.1084
 3706SOL    HW212018   6.605   6.593   6.909  0.4600  0.3747  1.8516
 3707SOL     OW12019   5.833   3.887   3.761  0.1680  0.0348  0.3390
 3707SOL    HW112020   5.792   3.809   3.809  0.8389 -0.5821 -0.0716
 3707SOL    HW212021   5.765   3.927   3.700 -0.3357  0.0946  0.9276
 3708SOL     OW12022   1.104   5.137   2.813  0.0063 -0.1012 -0.2878
 3708SOL    HW112023   1.065   5.179   2.731  0.6001 -0.9522 -1.0268
 3708SOL    HW212024   1.133   5.209   2.876  1.2658  0.6363 -1.6439
 3709SOL     OW12025   5.941   0.307   1.730  0.0761  0.1472 -0.3783
 3709SOL    HW112026   5.996   0.240   1.679  0.0905 -0.8992  0.9601
 3709SOL    HW212027   5.987   0.329   1.816 -1.7407 -1.0501  0.9620
 3710SOL     OW12028   2.094   3.410   5.724 -0.8501  0.1301  0.0970
 3710SOL    HW112029   2.040   3.397   5.807 -0.1752 -2.2721  0.2324
 3710SOL    HW212030   2.191   3.413   5.747 -0.7101  0.5039 -0.5144
 3711SOL     OW12031   1.926   4.834   6.631 -0.3244  0.5326 -0.1534
 3711SOL    HW112032   1.933   4.740   6.666 -1.4868  0.5972  0.2913
 3711SOL    HW212033   2.018   4.868   6.611  0.0267 -1.7052 -3.0940
 3712SOL     OW12034   4.013   5.106   3.828 -0.6595  0.4539 -0.5051
 3712SOL    HW112035   3.984   5.117   3.924  0.6927  0.6564 -0.1060
 3712SOL    HW212036   4.096   5.158   3.812 -1.2526  0.9901 -2.0026
 3713SOL     OW12037   5.439   1.604   6.816  0.4317  0.0519  0.0732
 3713SOL    HW112038   5.511   1.667   6.845 -0.0225  0.0169  1.3438
 3713SOL    HW212039   5.450   1.583   6.719  2.5348 -0.4823  0.3774
 3714SOL     OW12040   1.841   5.865   5.214  0.3229  0.1683  0.1260
 3714SOL    HW112041   1.771   5.830   5.152  0.3927  0.4240 -0.0955
 3714SOL    HW212042   1.829   5.963   5.226  1.4416  0.4517 -0.9519
 3715SOL     OW12043   6.948   2.088   0.887 -0.0008 -0.2877 -0.6888
 3715SOL    HW112044   7.021   2.154   0.905  0.4604 -1.2173  1.0917
 3715SOL    HW212045   6.883   2.088   0.962 -0.1209 -1.6855 -0.7636
 3716SOL     OW12046   5.055   4.710   5.646  0.0491 -0.4591 -0.2601
 3716SOL    HW112047   4.957   4.700   5.664 -0.5450 -1.6040 -3.4351
 3716SOL    HW212048   5.080   4.806   5.649 -2.0625  0.2970 -2.7403
 3717SOL     OW12049   4.207   5.602   1.452 -0.4284 -0.8234  0.6888
 3717SOL    HW112050   4.200   5.699   1.476  0.6908 -0.6198  0.2838
 3717SOL    HW212051   4.182   5.546   1.531  1.9731 -0.1646  2.0257
 3718SOL     OW12052   6.047   6.661   6.410 -0.2696  0.1864 -0.2218
 3718SOL    HW112053   5.952   6.632   6.397 -0.0317  0.5814 -4.1303
 3718SOL    HW212054   6.049   6.757   6.440 -1.1447  0.3682 -0.6999
 3719SOL     OW12055   2.069   4.736   1.647 -0.0198 -0.2694  0.0573
 3719SOL    HW112056   1.994   4.704   1.590 -0.5538 -0.4115  0.8245
 3719SOL    HW212057   2.052   4.830   1.676  0.4570 -0.0490 -0.3611
 3720SOL     OW12058   1.270   2.236   6.589 -0.1330 -0.4929  0.1910
 3720SOL    HW112059   1.178   2.205   6.562 -0.8281  0.9412  0.8094
 3720SOL    HW212060   1.298   2.188   6.672 -1.8452  1.4694  2.0159
 3721SOL     OW12061   6.732   1.450   5.434  0.3379 -0.1835  0.0711
 3721SOL    HW112062   6.805   1.458   5.366  0.0254  3.2025 -0.0480
 3721SOL    HW212063   6.660   1.391   5.400  0.0930  1.5658 -2.7325
 3722SOL     OW12064   4.843   5.715   2.606 -0.2381 -0.0372  0.0545
 3722SOL    HW112065   4.837   5.806   2.566 -1.3942 -0.2946 -0.4053
 3722SOL    HW212066   4.779   5.707   2.682  1.3859  0.1932  1.5103
 3723SOL     OW12067   4.601   5.826   0.126  0.2041  0.1126 -0.0698
 3723SOL    HW112068   4.555   5.914   0.119 -0.6675 -0.2582  0.7760
 3723SOL    HW212069   4.696   5.835   0.096  0.0771  1.2941 -0.1462
 3724SOL     OW12070   6.913   3.297   4.902  0.0188 -0.4709 -0.0501
 3724SOL    HW112071   6.936   3.211   4.857  2.3038  0.4020 -0.6987
 3724SOL    HW212072   6.884   3.364   4.833  1.4888  0.2442 -0.0020
 3725SOL     OW12073   1.075   5.851   1.788 -0.5981 -0.2268  0.2066
 3725SOL    HW112074   1.114   5.906   1.714  1.9766 -1.3730  0.5807
 3725SOL    HW212075   1.076   5.755   1.762 -3.0933 -0.3558  0.3712
 3726SOL     OW12076   5.683   3.394   6.012 -0.5983  0.7376 -0.2692
 3726SOL    HW112077   5.633   3.470   5.971 -1.1526  0.8440  0.5871
 3726SOL    HW212078   5.697   3.323   5.943 -0.9503  1.1882 -0.8116
 3727SOL     OW12079   0.845   1.279   3.438 -0.1747  0.0496 -0.1043
 3727SOL    HW112080   0.768   1.333   3.470 -0.8903 -1.5862  1.0526
 3727SOL    HW212081   0.858   1.200   3.498  2.0250 -0.0539 -0.6282
 3728SOL     OW12082   2.045   3.411   0.203 -0.1259 -0.0271  0.5230
 3728SOL    HW112083   2.055   3.331   0.143  1.3040  1.2106 -0.9867
 3728SOL    HW212084   2.077   3.388   0.295  3.2390 -0.4443 -0.6052
 3729SOL     OW12085   0.103   5.952   6.831 -0.4285 -0.1240  0.5043
 3729SOL    HW112086   0.175   5.991   6.888 -0.7665 -1.2430  1.7325
 3729SOL    HW212087   0.026   6.015   6.826  0.0221  0.4306  0.4039
 3730SOL     OW12088   5.588   4.177   5.487  0.8230  0.5722  0.0603
 3730SOL    HW112089   5.600   4.100   5.550 -0.1051  0.8242  0.5608
 3730SOL    HW212090   5.560   4.258   5.538 -0.2719  0.6910 -0.7009
 3731SOL     OW12091   5.871   1.845   1.696  0.1861  0.0008 -0.0207
 3731SOL    HW112092   5.810   1.885   1.628 -1.5363 -2.5948 -0.1165
 3731SOL    HW212093   5.848   1.880   1.787 -1.8620 -1.2852  0.0131
 3732SOL     OW12094   4.202   1.793   5.791 -0.3192 -0.0642 -0.1867
 3732SOL    HW112095   4.135   1.799   5.717  0.7355 -0.3318 -1.2025
 3732SOL    HW212096   4.160   1.819   5.878 -2.3029 -2.1851 -0.4212
 3733SOL     OW12097   1.651   6.701   3.784  0.7539  0.5971 -0.0989
 3733SOL    HW112098   1.661   6.603   3.802  0.2112  0.0675 -2.4082
 3733SOL    HW212099   1.731   6.749   3.818  1.4313 -0.7509  0.3095
 3734SOL     OW12100   6.025   1.114   2.271 -0.8569 -0.0898  0.3155
 3734SOL    HW112101   6.085   1.142   2.346  0.1542  0.6361 -0.7241
 3734SOL    HW212102   6.032   1.016   2.257  2.0872  0.2309 -1.3497
 3735SOL     OW12103   3.895   1.376   2.553 -0.5028 -0.4821 -0.0763
 3735SOL    HW112104   3.928   1.282   2.552  0.2642 -0.2335  0.7323
 3735SOL    HW212105   3.870   1.401   2.646  1.4061  0.8100  0.1512
 3736SOL     OW12106   0.307   6.396   0.825 -0.5065 -0.2328 -0.6397
 3736SOL    HW112107   0.317   6.483   0.872  0.8761 -1.0198  0.6164
 3736SOL    HW212108   0.244   6.338   0.876 -0.9419 -0.2063 -1.1371
 3737SOL     OW12109   0.758   1.753   4.476 -0.1551  0.4041 -0.2458
 3737SOL    HW112110   0.814   1.791   4.549  0.7717  0.3898 -0.9162
 3737SOL    HW212111   0.806   1.764   4.389 -1.3595  0.6872 -0.8998
 3738SOL     OW12112   0.019   0.384   0.295 -0.2095 -0.4873  0.0557
 3738SOL    HW112113  -0.003   0.309   0.357 -0.6879  0.7899  1.5013
 3738SOL    HW212114   0.118   0.395   0.289 -0.1454 -1.0955  0.0023
 3739SOL     OW12115   2.988   0.516   0.588  0.0193  0.3868  0.5843
 3739SOL    HW112116   3.049   0.587   0.553 -0.2862  0.2493 -0.2706
 3739SOL    HW212117   3.016   0.427   0.551 -0.6127  0.3065  0.2847
 3740SOL     OW12118   1.027   5.926   5.661 -0.1420  0.0516 -0.2437
 3740SOL    HW112119   1.103   5.970   5.709  1.4895  0.1602 -2.7531
 3740SOL    HW212120   1.012   5.972   5.573 -0.9411 -2.0008 -1.2444
 3741SOL     OW12121   4.918   3.664   0.251  0.5976  0.0498 -0.4304
 3741SOL    HW112122   4.840   3.603   0.236 -2.0650  3.2213 -0.9262
 3741SOL    HW212123   4.982   3.656   0.175  1.0805 -2.9365  0.1806
 3742SOL     OW12124   4.037   5.250   0.211 -0.6663  0.3989  0.0500
 3742SOL    HW112125   4.135   5.268   0.222 -0.5545 -0.8123  1.2492
 3742SOL    HW212126   4.016   5.240   0.113  1.0126 -2.2900 -0.1438
 3743SOL     OW12127   1.567   4.060   3.066 -0.3891 -0.0916  0.0114
 3743SOL    HW112128   1.654   4.013   3.052 -0.5508 -0.3354 -0.1720
 3743SOL    HW212129   1.585   4.154   3.097 -0.0631 -0.1593  0.0307
 3744SOL     OW12130   0.751   6.514   2.263 -0.3551 -0.1274 -0.1907
 3744SOL    HW112131   0.682   6.586   2.251  0.8846  1.1628  0.0667
 3744SOL    HW212132   0.825   6.528   2.197  1.4873  0.8402  1.9188
 3745SOL     OW12133   5.733   3.271   4.185 -0.6321 -0.7943  0.0221
 3745SOL    HW112134   5.674   3.352   4.181  0.3593 -0.1243 -1.7807
 3745SOL    HW212135   5.686   3.193   4.144 -1.1927 -0.8966  0.8338
 3746SOL     OW12136   5.476   6.933   4.138  0.1832 -0.5744 -0.1726
 3746SOL    HW112137   5.551   6.996   4.157 -1.2793  0.8491  1.2807
 3746SOL    HW212138   5.480   6.856   4.203  0.9514 -1.0453 -0.7711
 3747SOL     OW12139   3.522   4.028   6.540  0.6092  0.4473 -0.2319
 3747SOL    HW112140   3.581   4.003   6.616  0.5204 -1.6430 -0.8009
 3747SOL    HW212141   3.575   4.078   6.471  1.4537 -0.4298 -0.2277
 3748SOL     OW12142   6.161   1.149   2.517 -0.2102 -0.8597 -0.0376
 3748SOL    HW112143   6.175   1.220   2.587  1.1779 -1.7219  0.5970
 3748SOL    HW212144   6.134   1.064   2.561  0.9639 -1.4887 -0.5073
 3749SOL     OW12145   4.945   5.479   2.250 -0.1373 -0.4352 -0.0054
 3749SOL    HW112146   4.906   5.470   2.341 -1.2683  1.3140 -0.2600
 3749SOL    HW212147   5.035   5.523   2.255  0.2298 -1.2169  0.3251
 3750SOL     OW12148   0.494   4.850   1.122 -0.2768 -0.0729 -1.0191
 3750SOL    HW112149   0.543   4.843   1.209 -1.3498  0.9532 -0.3021
 3750SOL    HW212150   0.491   4.946   1.093  0.1880 -0.4113 -2.2903
 3751SOL     OW12151   0.718   4.149   1.848 -0.2380 -0.0495 -0.0781
 3751SOL    HW112152   0.744   4.101   1.932  0.2692  0.0234 -0.1912
 3751SOL    HW212153   0.619   4.162   1.847 -0.8269 -3.5563 -1.3279
 3752SOL     OW12154   0.990   6.735   5.989 -0.0094  0.0945  0.0388
 3752SOL    HW112155   1.087   6.730   5.964 -0.2217  0.5220 -0.8939
 3752SOL    HW212156   0.934   6.706   5.912 -0.6574  0.8364  0.2175
 3753SOL     OW12157   6.562   2.500   6.289 -0.6419 -0.2565  0.2381
 3753SOL    HW112158   6.500   2.436   6.242 -0.0942  0.7832 -2.0458
 3753SOL    HW212159   6.655   2.464   6.287 -0.9352 -1.3484  2.7962
 3754SOL     OW12160   5.684   5.872   6.403  0.3447 -0.6748 -0.4829
 3754SOL    HW112161   5.713   5.912   6.316  1.3712 -0.9776 -0.2924
 3754SOL    HW212162   5.682   5.772   6.396  0.3786 -0.7005 -0.1791
 3755SOL     OW12163   5.396   2.163   3.086  0.0468  0.3025  0.3372
 3755SOL    HW112164   5.361   2.179   2.993 -0.2075 -1.4458  0.1053
 3755SOL    HW212165   5.474   2.101   3.082 -0.3648 -0.2908  1.3451
 3756SOL     OW12166   2.929   0.951   0.753 -0.3168 -0.5831  0.3673
 3756SOL    HW112167   2.964   1.026   0.697  2.8445 -1.1559  1.3382
 3756SOL    HW212168   2.919   0.982   0.848 -1.5048 -0.7354  0.3030
 3757SOL     OW12169   3.404   1.399   6.311 -0.6614 -0.7953 -0.0978
 3757SOL    HW112170   3.499   1.377   6.333 -0.8680 -0.7150  0.9528
 3757SOL    HW212171   3.345   1.369   6.386 -1.4939 -1.0286 -0.8236
 3758SOL     OW12172   0.322   3.008   0.886 -0.1542 -0.3561  0.5025
 3758SOL    HW112173   0.259   3.019   0.963  0.5401 -0.6163  1.1185
 3758SOL    HW212174   0.359   2.915   0.886  1.2106  0.1645  0.9165
 3759SOL     OW12175   0.849   2.778   1.397 -0.8290  0.3076 -0.2555
 3759SOL    HW112176   0.893   2.833   1.467 -0.4754  1.9985 -1.7519
 3759SOL    HW212177   0.903   2.695   1.381 -0.9524 -0.1394  1.4682
 3760SOL     OW12178   2.174   2.458   6.147 -0.2385  0.3195  0.2739
 3760SOL    HW112179   2.101   2.522   6.172  0.0015  0.7255 -0.0573
 3760SOL    HW212180   2.230   2.439   6.228 -1.6799 -1.2939  0.9565
 3761SOL     OW12181   0.820   0.088   4.614  0.2663 -0.0625 -1.1409
 3761SOL    HW112182   0.872   0.004   4.602 -0.1208 -0.3098 -1.0977
 3761SOL    HW212183   0.881   0.167   4.601  0.5200 -0.3416 -1.6918
 3762SOL     OW12184   0.667   4.475   3.393 -0.1547  0.0216 -0.1638
 3762SOL    HW112185   0.607   4.410   3.347 -0.6180  1.1647 -1.2383
 3762SOL    HW212186   0.742   4.501   3.332  0.1424  0.3317  0.3245
 3763SOL     OW12187   1.941   1.399   6.636 -0.7005  0.0507 -0.3056
 3763SOL    HW112188   1.970   1.327   6.573  0.5903  0.9445 -0.7840
 3763SOL    HW212189   2.008   1.407   6.710 -1.4469 -0.0081  0.3835
 3764SOL     OW12190   1.699   0.378   1.759 -0.2383  0.3184 -0.3535
 3764SOL    HW112191   1.764   0.359   1.685 -1.1588 -0.0267 -1.0948
 3764SOL    HW212192   1.621   0.429   1.723 -0.2349  1.0154  0.5914
 3765SOL     OW12193   6.444   2.466   1.953  0.5966 -0.0607 -0.3124
 3765SOL    HW112194   6.375   2.405   1.915  0.2964 -0.1297  0.3297
 3765SOL    HW212195   6.525   2.413   1.979 -0.4764 -0.5907  2.2735
 3766SOL     OW12196   0.312   0.316   6.196  0.1819  0.3308 -1.3372
 3766SOL    HW112197   0.288   0.223   6.168  1.0740 -0.9366  1.7497
 3766SOL    HW212198   0.411   0.325   6.200  0.1521  0.1736  1.8089
 3767SOL     OW12199   6.029   4.769   1.298  0.3887  0.1374 -0.0586
 3767SOL    HW112200   6.096   4.716   1.246 -0.0715 -0.8222  0.3119
 3767SOL    HW212201   6.053   4.769   1.395 -0.7027 -1.1020  0.2306
 3768SOL     OW12202   3.718   5.650   1.353  0.0634 -0.1593 -0.3813
 3768SOL    HW112203   3.727   5.748   1.369 -0.3355 -0.1410 -0.2561
 3768SOL    HW212204   3.806   5.606   1.366  0.3176  0.2287 -0.7798
 3769SOL     OW12205   3.541   5.465   5.451 -0.1674  0.6423 -0.6084
 3769SOL    HW112206   3.617   5.401   5.441 -0.6604  0.2613 -2.1721
 3769SOL    HW212207   3.496   5.478   5.363 -3.9947 -1.7383  0.7458
 3770SOL     OW12208   0.516   2.806   0.403  0.5476  0.5019  0.3972
 3770SOL    HW112209   0.469   2.722   0.431  1.8357 -0.9032 -1.4600
 3770SOL    HW212210   0.456   2.861   0.345 -1.1205  2.0746  3.3783
 3771SOL     OW12211   0.483   1.652   5.608  0.6252 -0.3445 -0.5707
 3771SOL    HW112212   0.445   1.744   5.597  1.7899  0.3449  0.8788
 3771SOL    HW212213   0.583   1.658   5.618  0.6139 -1.6744  0.5894
 3772SOL     OW12214   6.174   0.897   3.309  0.3044  0.1254  0.5315
 3772SOL    HW112215   6.240   0.964   3.274 -0.3366 -0.2745 -1.6300
 3772SOL    HW212216   6.124   0.856   3.232 -0.4948 -1.6373  1.9044
 3773SOL     OW12217   4.345   3.948   1.106 -0.0052  0.1401  0.4812
 3773SOL    HW112218   4.436   3.949   1.064  0.2486 -1.7460  0.9141
 3773SOL    HW212219   4.276   3.926   1.037 -0.1956  1.7438  0.1150
 3774SOL     OW12220   3.400   2.020   0.758  0.0870 -0.6028 -0.2155
 3774SOL    HW112221   3.392   1.924   0.731 -0.0836  0.0849 -2.8992
 3774SOL    HW212222   3.345   2.036   0.840 -1.2585 -2.4445 -0.6918
 3775SOL     OW12223   6.088   4.098   3.443 -0.2076  0.1571 -0.4516
 3775SOL    HW112224   6.102   4.110   3.345 -0.8782  0.1027 -0.5549
 3775SOL    HW212225   5.992   4.113   3.466  0.0822  0.9845  0.3194
 3776SOL     OW12226   2.043   2.996   0.271 -0.8712 -0.2085  0.8261
 3776SOL    HW112227   2.113   3.006   0.342 -1.6409  1.2243  1.4085
 3776SOL    HW212228   2.085   2.955   0.190  1.0363  1.9469  0.6087
 3777SOL     OW12229   0.575   4.858   3.635 -0.1260  0.4213  0.0811
 3777SOL    HW112230   0.555   4.767   3.672 -1.0402  0.7852  0.5137
 3777SOL    HW212231   0.672   4.864   3.612 -0.1049 -0.7518 -0.2044
 3778SOL     OW12232   1.447   2.167   6.788 -0.3781  0.2335  0.4224
 3778SOL    HW112233   1.467   2.118   6.873 -0.2199  1.0160  0.8477
 3778SOL    HW212234   1.522   2.154   6.724 -0.4201 -0.2243  0.4612
 3779SOL     OW12235   1.858   4.192   1.252 -0.0952 -0.1571  0.3420
 3779SOL    HW112236   1.812   4.206   1.339 -0.3744 -0.9061  0.3204
 3779SOL    HW212237   1.950   4.233   1.256 -0.2733  0.2078  0.8242
 3780SOL     OW12238   2.951   5.456   4.010 -0.1229  0.3832  0.0586
 3780SOL    HW112239   2.984   5.373   3.965  0.5327 -0.4983  2.0472
 3780SOL    HW212240   2.851   5.455   4.015 -0.1497  0.0466 -0.5013
 3781SOL     OW12241   3.245   4.962   4.077 -0.1610  0.1985  0.0306
 3781SOL    HW112242   3.215   4.923   4.164  0.2233 -0.8425 -0.2931
 3781SOL    HW212243   3.178   4.941   4.006 -0.4243  0.9629  0.0414
 3782SOL     OW12244   2.699   2.005   2.632  0.7690 -0.3352 -0.0531
 3782SOL    HW112245   2.606   1.991   2.596  0.5787  0.4682  0.1143
 3782SOL    HW212246   2.741   1.916   2.650 -0.3527 -0.7013  0.8546
 3783SOL     OW12247   6.012   5.779   4.399  0.2087  0.6352  0.3655
 3783SOL    HW112248   6.085   5.721   4.434  0.9118  1.0172 -0.4062
 3783SOL    HW212249   5.923   5.738   4.420  0.6773 -0.6830 -0.0950
 3784SOL     OW12250   4.855   2.869   3.448  0.2421 -0.0224 -0.5963
 3784SOL    HW112251   4.804   2.846   3.532  0.8492 -0.2099 -0.2765
 3784SOL    HW212252   4.946   2.901   3.472  0.1523  0.6787 -1.1536
 3785SOL     OW12253   0.392   1.245   0.937  0.2872 -0.5789  0.0365
 3785SOL    HW112254   0.479   1.195   0.938  0.2717 -0.6592 -1.1796
 3785SOL    HW212255   0.332   1.209   1.009  1.8352  0.5844  2.0043
 3786SOL     OW12256   2.018   4.523   0.647  0.1975 -0.3139 -0.6184
 3786SOL    HW112257   2.111   4.528   0.611 -0.2394 -0.0130 -1.7494
 3786SOL    HW212258   1.964   4.460   0.590  0.2398 -2.1915  1.2885
 3787SOL     OW12259   2.588   0.311   2.994  0.0692  0.1266 -0.1520
 3787SOL    HW112260   2.642   0.343   2.916 -1.1888  2.7473 -0.0547
 3787SOL    HW212261   2.535   0.387   3.031  0.0204 -1.2115  2.8168
 3788SOL     OW12262   0.230   2.799   3.427 -0.2713 -0.4148  0.2967
 3788SOL    HW112263   0.236   2.836   3.334  1.1809 -1.1610  0.0830
 3788SOL    HW212264   0.235   2.874   3.493  3.3500 -0.1545 -0.1089
 3789SOL     OW12265   2.537   4.575   1.987 -0.0658  0.4168 -0.4601
 3789SOL    HW112266   2.633   4.601   1.989  0.0472  0.0094 -0.4818
 3789SOL    HW212267   2.513   4.527   2.072  0.1124 -0.7186 -1.0205
 3790SOL     OW12268   1.558   2.949   4.002 -0.0988  0.1461 -0.1211
 3790SOL    HW112269   1.623   2.894   3.949  1.1417  1.0649  0.4036
 3790SOL    HW212270   1.489   2.889   4.042  1.6230 -1.1603  1.0317
 3791SOL     OW12271   5.260   0.298   3.414  0.7929 -0.4946  0.8180
 3791SOL    HW112272   5.163   0.291   3.393  0.8738 -1.8622  0.8319
 3791SOL    HW212273   5.289   0.219   3.467  2.0845 -0.5477  0.0852
 3792SOL     OW12274   0.712   2.648   0.477 -0.2464  0.0318  0.1183
 3792SOL    HW112275   0.629   2.703   0.468 -0.2038  0.2180  0.7764
 3792SOL    HW212276   0.780   2.679   0.411  0.1352  1.4625  1.1323
 3793SOL     OW12277   4.538   6.880   0.428  0.2308 -0.2854 -0.0415
 3793SOL    HW112278   4.586   6.932   0.499  1.7342 -2.2766  0.5144
 3793SOL    HW212279   4.443   6.865   0.455  0.1269  1.0376  0.3727
 3794SOL     OW12280   3.256   6.474   5.415  0.7561  0.1079  0.0356
 3794SOL    HW112281   3.312   6.531   5.355  0.9616  1.5298  1.5098
 3794SOL    HW212282   3.169   6.454   5.370  0.3671  2.2513 -0.2644
 3795SOL     OW12283   5.795   2.229   5.203 -0.1431 -0.5445 -0.0188
 3795SOL    HW112284   5.751   2.213   5.292 -0.1010 -1.4431 -0.1486
 3795SOL    HW212285   5.791   2.145   5.148  1.3264 -0.5246 -0.2087
 3796SOL     OW12286   6.449   2.385   6.562  0.3322  0.2285 -0.4331
 3796SOL    HW112287   6.497   2.456   6.612  0.0991  1.3682 -1.7689
 3796SOL    HW212288   6.391   2.426   6.492  0.5210 -1.2782 -1.5450
 3797SOL     OW12289   0.019   5.192   1.817 -0.1203 -0.8417  0.3542
 3797SOL    HW112290  -0.043   5.221   1.743  1.7281  0.0337 -0.9302
 3797SOL    HW212291   0.008   5.253   1.895 -1.3692 -1.1431  0.4349
 3798SOL     OW12292   0.559   4.006   0.348 -0.2702 -0.0215  0.1334
 3798SOL    HW112293   0.527   3.949   0.272 -0.8405  1.6090 -0.9006
 3798SOL    HW212294   0.546   3.957   0.434  0.0563 -1.7795 -0.7611
 3799SOL     OW12295   0.692   1.283   5.664  0.7427 -0.2809  0.3799
 3799SOL    HW112296   0.612   1.284   5.605  1.7382 -1.3978 -1.0728
 3799SOL    HW212297   0.686   1.357   5.731  0.0904  1.8477 -1.8929
 3800SOL     OW12298   3.900   1.857   4.954  0.1601  0.1563 -0.0438
 3800SOL    HW112299   3.901   1.941   4.899 -1.7518  0.6974  0.6505
 3800SOL    HW212300   3.986   1.808   4.942  0.8608  1.6205 -1.3828
 3801SOL     OW12301   5.919   0.771   5.784  0.2120 -0.1671  0.1117
 3801SOL    HW112302   6.016   0.745   5.777  0.2802 -0.3786  1.5815
 3801SOL    HW212303   5.863   0.700   5.740  0.6757 -0.3958 -0.1253
 3802SOL     OW12304   6.958   0.289   5.264  0.1377  0.2318 -0.5104
 3802SOL    HW112305   6.926   0.376   5.228 -0.0184  0.2925 -0.2294
 3802SOL    HW212306   6.895   0.257   5.335 -2.8235 -2.6467 -3.9874
 3803SOL     OW12307   4.633   1.733   1.794  1.0152 -0.3252 -0.2769
 3803SOL    HW112308   4.553   1.775   1.837  2.2060  0.2731  1.5066
 3803SOL    HW212309   4.654   1.647   1.840  3.3937  1.2018  1.8252
 3804SOL     OW12310   4.479   4.565   5.872  0.4007 -0.4023 -0.0836
 3804SOL    HW112311   4.532   4.649   5.873 -1.6016  0.9116  0.1958
 3804SOL    HW212312   4.398   4.576   5.815  1.4640 -3.1079 -2.4026
 3805SOL     OW12313   2.506   2.378   1.202 -0.3477  0.1359 -0.3572
 3805SOL    HW112314   2.463   2.287   1.201 -0.0865 -0.0072 -2.3891
 3805SOL    HW212315   2.459   2.438   1.137  2.0967  0.1365 -2.2595
 3806SOL     OW12316   4.638   0.405   0.003  0.1356  0.8775  0.2448
 3806SOL    HW112317   4.650   0.447   0.093 -1.0176 -0.7682  1.2109
 3806SOL    HW212318   4.545   0.371  -0.006  0.5546  0.0194 -1.1501
 3807SOL     OW12319   2.338   5.385   2.748  0.0244 -0.1392 -0.4218
 3807SOL    HW112320   2.257   5.388   2.805 -0.2891 -0.6608 -0.8303
 3807SOL    HW212321   2.358   5.290   2.722  0.8940 -0.0449 -0.1401
 3808SOL     OW12322   2.570   0.987   1.841  0.2607  0.3626  0.3690
 3808SOL    HW112323   2.633   0.929   1.893 -0.0431 -1.5673 -1.2884
 3808SOL    HW212324   2.488   0.935   1.818 -0.0870  1.4966 -1.1124
 3809SOL     OW12325   2.220   0.061   6.349  0.5175  0.4027 -0.2483
 3809SOL    HW112326   2.302   0.055   6.406 -0.0492 -0.4235  0.4852
 3809SOL    HW212327   2.141   0.081   6.405  0.0512  0.2209 -0.8288
 3810SOL     OW12328   1.365   4.387   6.380  0.4618  0.2249 -0.0482
 3810SOL    HW112329   1.320   4.445   6.312  0.6729 -0.7662 -1.0473
 3810SOL    HW212330   1.306   4.310   6.404 -0.1578  1.2132  1.8778
 3811SOL     OW12331   6.538   0.753   6.582  0.3635  0.3106  0.4257
 3811SOL    HW112332   6.468   0.732   6.513  1.3594 -1.4108 -0.1455
 3811SOL    HW212333   6.534   0.850   6.605 -2.9543  0.1110  1.2966
 3812SOL     OW12334   3.160   6.779   6.571  0.0550  0.2541  0.1329
 3812SOL    HW112335   3.117   6.850   6.626  1.3172 -0.1947  1.7900
 3812SOL    HW212336   3.129   6.787   6.476 -2.9069  0.4794  1.0236
 3813SOL     OW12337   3.953   5.102   2.316  0.2865  0.0612 -0.4239
 3813SOL    HW112338   3.856   5.116   2.297 -0.3683 -2.0895  0.9361
 3813SOL    HW212339   3.975   5.005   2.312  1.6605  0.1521  2.2777
 3814SOL     OW12340   0.797   0.741   0.984 -0.2142  0.1183  0.0755
 3814SOL    HW112341   0.879   0.764   1.037  0.4653 -0.1850 -0.8069
 3814SOL    HW212342   0.795   0.643   0.966 -1.2372 -0.0112  0.8172
 3815SOL     OW12343   2.393   0.696   3.297 -0.1104  0.0378 -0.1386
 3815SOL    HW112344   2.364   0.645   3.378 -1.3721 -0.9276 -1.1644
 3815SOL    HW212345   2.329   0.679   3.222 -0.6588  3.2245 -0.5114
 3816SOL     OW12346   5.024   4.347   0.753  0.0504 -0.1032 -0.6038
 3816SOL    HW112347   4.962   4.277   0.787 -0.5611 -0.0368 -1.5556
 3816SOL    HW212348   4.989   4.385   0.668  1.0139  0.4749 -0.7628
 3817SOL     OW12349   6.657   1.720   3.877 -0.0203 -1.1050 -0.1442
 3817SOL    HW112350   6.567   1.758   3.857 -1.0306 -2.6970  1.1021
 3817SOL    HW212351   6.699   1.771   3.952  0.8800  0.6673 -1.7764
 3818SOL     OW12352   2.614   6.317   2.576 -0.1629 -0.3725 -0.5182
 3818SOL    HW112353   2.658   6.283   2.659 -0.5512 -0.4583 -0.3455
 3818SOL    HW212354   2.545   6.251   2.545 -0.3516 -0.1219 -0.6384
 3819SOL     OW12355   4.833   3.347   5.180 -0.3580  0.1873 -0.2689
 3819SOL    HW112356   4.786   3.434   5.194 -1.4752 -0.2697 -1.0624
 3819SOL    HW212357   4.872   3.316   5.267 -1.1531  0.8037  0.3184
 3820SOL     OW12358   4.607   0.412   2.569 -0.4881 -0.3447 -0.4579
 3820SOL    HW112359   4.562   0.340   2.621  0.5637  0.0148  1.0208
 3820SOL    HW212360   4.605   0.497   2.621  1.0832 -0.1068 -0.7182
 3821SOL     OW12361   1.033   4.014   1.852 -0.0622 -0.1397 -0.0015
 3821SOL    HW112362   0.934   4.019   1.845 -0.1130  1.4668  1.3539
 3821SOL    HW212363   1.060   3.919   1.867 -1.4916 -0.4650  0.7185
 3822SOL     OW12364   1.479   2.293   1.471  0.0554  0.2021  0.4231
 3822SOL    HW112365   1.525   2.368   1.519  0.0672 -0.4767  1.5159
 3822SOL    HW212366   1.523   2.206   1.495  0.2321 -0.1365 -1.0644
 3823SOL     OW12367   1.281   4.360   5.722  0.0933 -0.1256 -0.0335
 3823SOL    HW112368   1.187   4.329   5.705  0.2523 -0.2337 -0.7449
 3823SOL    HW212369   1.304   4.432   5.657  1.1262 -1.3651 -1.0849
 3824SOL     OW12370   5.164   1.932   5.581 -0.1256 -0.1878 -0.2254
 3824SOL    HW112371   5.103   1.881   5.520 -0.2296 -0.8553  0.4159
 3824SOL    HW212372   5.211   2.004   5.529  0.4287 -1.2691 -1.2758
 3825SOL     OW12373   0.082   5.515   0.129  0.1118  0.1034  0.0494
 3825SOL    HW112374   0.016   5.566   0.074  0.4948 -0.3155 -0.8185
 3825SOL    HW212375   0.143   5.579   0.176  0.4168  0.4666 -0.8115
 3826SOL     OW12376   6.234   1.750   0.314 -0.5067 -0.6004 -0.7755
 3826SOL    HW112377   6.164   1.741   0.385  0.1917 -0.0847  0.0003
 3826SOL    HW212378   6.215   1.831   0.259 -0.0284  0.0689  0.0201
 3827SOL     OW12379   5.242   2.285   2.565  0.0877  0.3279 -0.5475
 3827SOL    HW112380   5.320   2.254   2.511 -0.0511  0.7406 -0.9956
 3827SOL    HW212381   5.158   2.247   2.527 -0.0026  0.5514 -0.5783
 3828SOL     OW12382   2.151   6.810   1.056 -0.0218 -0.0952  0.1941
 3828SOL    HW112383   2.228   6.752   1.031 -1.0785 -1.0410 -0.9788
 3828SOL    HW212384   2.084   6.756   1.107  0.3434  0.8753  1.7795
 3829SOL     OW12385   0.205   6.339   4.478 -0.2373 -0.0714  0.1744
 3829SOL    HW112386   0.155   6.359   4.393 -0.1551 -1.9339 -0.3594
 3829SOL    HW212387   0.270   6.265   4.461  2.5932  2.0791  0.9124
 3830SOL     OW12388   1.682   5.992   0.078  0.5203  0.0412  0.0561
 3830SOL    HW112389   1.696   6.065   0.011  3.7100 -0.7517 -0.2918
 3830SOL    HW212390   1.630   5.917   0.036 -0.8665  1.1413 -0.2595
 3831SOL     OW12391   2.959   1.250   2.199 -0.3503 -0.5116 -0.0095
 3831SOL    HW112392   3.002   1.336   2.229 -0.2919 -1.0832  1.6338
 3831SOL    HW212393   3.020   1.203   2.135  0.3994 -0.1592  0.4283
 3832SOL     OW12394   5.148   6.660   3.161 -0.4405 -0.2603 -0.1615
 3832SOL    HW112395   5.209   6.602   3.215  0.5339  0.2628 -0.6697
 3832SOL    HW212396   5.075   6.605   3.121 -0.2883 -0.9017  0.4309
 3833SOL     OW12397   0.247   0.099   2.727 -0.2012  0.4387  0.5588
 3833SOL    HW112398   0.254   0.137   2.819  1.7921  1.2905  0.0983
 3833SOL    HW212399   0.235   0.173   2.660  2.4082  0.2525 -0.2157
 3834SOL     OW12400   3.840   1.558   6.822 -0.8096 -0.0581  0.2404
 3834SOL    HW112401   3.780   1.478   6.829 -1.1204  0.1974  0.5682
 3834SOL    HW212402   3.785   1.641   6.835 -0.5324  0.2209 -0.3320
 3835SOL     OW12403   4.042   5.786   2.647 -0.0636 -0.0029 -0.0668
 3835SOL    HW112404   4.029   5.776   2.548 -0.4476 -1.1570  0.0904
 3835SOL    HW212405   4.097   5.711   2.682 -1.7896 -0.8530  0.9369
 3836SOL     OW12406   1.498   1.915   5.251  0.3198  0.0006 -0.4024
 3836SOL    HW112407   1.572   1.896   5.316  1.4591  0.0218 -1.6574
 3836SOL    HW212408   1.496   2.013   5.231 -0.1863  0.0278 -0.2295
 3837SOL     OW12409   3.718   2.890   5.585  0.0054 -0.3316 -0.3583
 3837SOL    HW112410   3.780   2.969   5.584 -0.5990  0.1533  0.1096
 3837SOL    HW212411   3.634   2.914   5.632  0.5486 -1.8238  1.4765
 3838SOL     OW12412   6.802   3.376   0.440 -0.5299  0.0471  0.1015
 3838SOL    HW112413   6.729   3.313   0.415 -0.6524  0.1877  0.1057
 3838SOL    HW212414   6.870   3.378   0.366  0.2256 -1.1998  0.7252
 3839SOL     OW12415   0.386   5.634   6.553 -1.0311  0.0416 -0.0883
 3839SOL    HW112416   0.454   5.647   6.625 -1.2042 -2.1508  0.5332
 3839SOL    HW212417   0.369   5.721   6.507  0.0360  1.2242  1.6553
 3840SOL     OW12418   2.359   2.596   2.945  0.1186 -0.2643  0.0535
 3840SOL    HW112419   2.272   2.644   2.935 -0.2594 -0.9068  0.1846
 3840SOL    HW212420   2.380   2.583   3.042 -0.5162 -1.6359  0.0338
 3841SOL     OW12421   1.880   2.878   3.032 -0.0601 -0.4081  0.0177
 3841SOL    HW112422   1.806   2.837   2.979  0.0281 -0.1568 -0.3016
 3841SOL    HW212423   1.863   2.865   3.129 -1.7555  1.7016  0.0770
 3842SOL     OW12424   3.001   4.301   0.910 -0.2066  0.1009 -0.6253
 3842SOL    HW112425   2.981   4.293   1.007 -1.9919  0.4313 -0.9283
 3842SOL    HW212426   2.944   4.373   0.870  0.0833 -0.4224 -2.0262
 3843SOL     OW12427   5.915   4.620   6.739  0.6300  0.0511  0.2377
 3843SOL    HW112428   5.820   4.599   6.717  0.6820 -0.2126  0.2605
 3843SOL    HW212429   5.966   4.637   6.655  0.5070  0.4306  0.2404
 3844SOL     OW12430   3.676   4.000   5.443  0.6122  0.2422  0.0651
 3844SOL    HW112431   3.593   3.958   5.479  0.1839  1.3329  0.4005
 3844SOL    HW212432   3.724   3.935   5.383  0.7562 -1.2092  1.6993
 3845SOL     OW12433   3.485   4.200   4.537  0.5760 -0.0731 -0.1002
 3845SOL    HW112434   3.485   4.159   4.446  3.2707  1.3965 -0.8899
 3845SOL    HW212435   3.441   4.290   4.533 -0.5829 -0.5883  0.4325
 3846SOL     OW12436   5.889   3.655   4.936 -0.0452  0.1358  1.0091
 3846SOL    HW112437   5.798   3.615   4.938 -1.2273  2.5898  0.2999
 3846SOL    HW212438   5.935   3.629   4.851 -0.3398 -0.5620  1.0537
 3847SOL     OW12439   1.876   3.784   1.296  0.0421  0.4488  0.0237
 3847SOL    HW112440   1.905   3.730   1.375 -1.5283  0.2445  0.4879
 3847SOL    HW212441   1.863   3.879   1.324  2.4809  1.0748 -0.7181
 3848SOL     OW12442   2.194   6.974   2.215  0.3644  0.0412 -0.2727
 3848SOL    HW112443   2.235   6.900   2.160  1.3627 -0.3202  0.8988
 3848SOL    HW212444   2.112   6.940   2.261  0.2264 -0.0202 -0.5613
 3849SOL     OW12445   1.145   0.872   5.160 -0.3887  0.0747  0.4316
 3849SOL    HW112446   1.066   0.932   5.174 -0.6002 -0.2986  0.8884
 3849SOL    HW212447   1.113   0.779   5.142 -0.1020  0.3664 -1.8332
 3850SOL     OW12448   1.683   3.140   1.942  0.2347 -0.2053  0.0229
 3850SOL    HW112449   1.648   3.234   1.945 -2.5364 -1.1083 -0.7668
 3850SOL    HW212450   1.694   3.106   2.035 -2.3253 -0.2232  0.3995
 3851SOL     OW12451   2.732   3.345   5.935 -0.2279  0.4080 -0.1533
 3851SOL    HW112452   2.687   3.389   5.857  0.6088  0.3546 -0.6752
 3851SOL    HW212453   2.809   3.290   5.903 -0.4909 -0.4391  0.6169
 3852SOL     OW12454   6.823   0.454   4.539 -0.1267 -0.0863 -0.3577
 3852SOL    HW112455   6.800   0.364   4.501 -0.4013 -0.9220  1.6288
 3852SOL    HW212456   6.778   0.464   4.629 -2.3732  3.1424 -1.6384
 3853SOL     OW12457   6.685   4.120   2.916 -0.2949  0.0202  0.0835
 3853SOL    HW112458   6.766   4.173   2.890 -0.3823 -0.1545 -0.5567
 3853SOL    HW212459   6.604   4.178   2.906 -0.3112  0.0024  0.1136
 3854SOL     OW12460   2.118   1.359   4.481 -0.0571  0.2284 -0.4226
 3854SOL    HW112461   2.075   1.334   4.395 -0.0390 -1.9290  0.1448
 3854SOL    HW212462   2.104   1.457   4.498 -4.1759 -0.1458 -0.5933
 3855SOL     OW12463   6.756   1.895   5.141 -0.3566 -0.0800 -0.2080
 3855SOL    HW112464   6.813   1.974   5.118 -0.6950  0.3745  0.4520
 3855SOL    HW212465   6.678   1.891   5.079 -1.7416  1.6476  1.2893
 3856SOL     OW12466   0.354   6.314   5.078 -0.0893 -0.0364 -0.2378
 3856SOL    HW112467   0.412   6.393   5.096 -0.7544  0.4777 -0.3039
 3856SOL    HW212468   0.347   6.258   5.161  1.0457 -0.4837 -0.4258
 3857SOL     OW12469   0.518   1.064   6.587  0.1604  0.2605 -0.3999
 3857SOL    HW112470   0.561   0.987   6.541 -1.1937 -1.9631  1.8062
 3857SOL    HW212471   0.468   1.032   6.667 -0.9930  3.3955  0.3065
 3858SOL     OW12472   4.502   6.880   0.143 -0.2223  0.6383 -0.4623
 3858SOL    HW112473   4.515   6.970   0.101  3.3259  0.2202 -0.5792
 3858SOL    HW212474   4.525   6.886   0.240 -2.4189  0.2952  0.1406
 3859SOL     OW12475   6.259   6.633   2.069  0.1556 -0.1623  0.1465
 3859SOL    HW112476   6.255   6.722   2.114  2.0256 -0.7500  1.6392
 3859SOL    HW212477   6.249   6.561   2.137 -2.5506 -1.1928 -1.1817
 3860SOL     OW12478   2.626   5.119   5.368 -0.2313  0.2165  0.3014
 3860SOL    HW112479   2.690   5.160   5.434  0.6018 -1.5330  0.6538
 3860SOL    HW212480   2.678   5.067   5.300 -1.2851 -1.2610  0.5954
 3861SOL     OW12481   3.031   3.661   0.157 -0.0323 -0.5384  0.3101
 3861SOL    HW112482   2.961   3.605   0.202  0.0817 -0.2232  0.8973
 3861SOL    HW212483   3.117   3.652   0.207  0.3204 -0.8374 -0.3452
 3862SOL     OW12484   1.702   6.688   6.224  0.1339  0.1713  0.5503
 3862SOL    HW112485   1.697   6.589   6.216 -0.2317  0.1986  0.4164
 3862SOL    HW212486   1.754   6.725   6.147  0.6556  0.0482  0.8420
 3863SOL     OW12487   1.317   3.727   6.932  0.4113 -0.8130 -0.2013
 3863SOL    HW112488   1.274   3.817   6.922  0.1000 -0.9236  0.1468
 3863SOL    HW212489   1.246   3.656   6.938  0.5244 -0.8016  2.5938
 3864SOL     OW12490   4.723   2.762   2.148 -0.2642  0.2582 -0.4271
 3864SOL    HW112491   4.741   2.857   2.121 -1.6089  0.9474  0.9110
 3864SOL    HW212492   4.662   2.719   2.082  0.1957  0.3844 -0.9381
 3865SOL     OW12493   3.700   2.341   1.464 -0.0683 -0.0381 -0.1720
 3865SOL    HW112494   3.726   2.367   1.371 -0.4371  0.8071 -0.0463
 3865SOL    HW212495   3.615   2.387   1.489  1.3628  1.8703  1.5289
 3866SOL     OW12496   5.062   0.575   1.119 -0.2598  0.7090  0.4502
 3866SOL    HW112497   5.074   0.574   1.020  0.6714 -0.6984  0.5434
 3866SOL    HW212498   5.006   0.653   1.145  2.6676  3.4562 -0.7986
 3867SOL     OW12499   2.632   6.699   2.895 -0.0464 -0.3044 -0.3168
 3867SOL    HW112500   2.625   6.756   2.978 -0.6239 -0.0617 -0.5230
 3867SOL    HW212501   2.546   6.705   2.844  1.4644  2.5592 -2.8822
 3868SOL     OW12502   2.513   5.508   3.097  0.2613 -0.0305 -0.2259
 3868SOL    HW112503   2.591   5.565   3.124  1.9956 -2.4741  0.1774
 3868SOL    HW212504   2.510   5.501   2.997 -0.3082  1.1524 -0.3129
 3869SOL     OW12505   1.359   1.061   4.494 -0.3989  0.2895  0.4802
 3869SOL    HW112506   1.395   0.982   4.444  0.8789  0.3642  1.2237
 3869SOL    HW212507   1.270   1.087   4.457 -0.9122 -1.5823  0.3077
 3870SOL     OW12508   5.278   5.433   1.746  0.3851  0.2682 -0.7522
 3870SOL    HW112509   5.220   5.356   1.772 -0.2038  1.4004  1.5876
 3870SOL    HW212510   5.261   5.457   1.651 -0.0084 -1.9309 -1.2878
 3871SOL     OW12511   1.543   0.734   4.665  0.3479  0.2593  0.7002
 3871SOL    HW112512   1.460   0.730   4.609  0.3518 -1.1786  0.7591
 3871SOL    HW212513   1.554   0.827   4.702 -1.1901  0.4942  0.6248
 3872SOL     OW12514   5.115   4.124   5.606  0.3152  0.2764 -0.0273
 3872SOL    HW112515   5.169   4.041   5.620  2.2798  1.2380 -1.3859
 3872SOL    HW212516   5.044   4.107   5.538  0.3979 -0.4219  0.0597
 3873SOL     OW12517   5.496   5.855   2.333 -0.0557  0.2179 -0.2844
 3873SOL    HW112518   5.451   5.803   2.260  1.2542 -0.3713 -0.7098
 3873SOL    HW212519   5.487   5.805   2.420 -0.6152  0.3460 -0.2635
 3874SOL     OW12520   5.141   0.571   5.422  0.8324 -0.0053 -0.0577
 3874SOL    HW112521   5.176   0.479   5.441  0.2931 -0.2720 -0.3108
 3874SOL    HW212522   5.208   0.639   5.450  0.7836 -0.4402  1.1720
 3875SOL     OW12523   2.402   3.383   6.884  0.1029  0.1807  0.0506
 3875SOL    HW112524   2.386   3.336   6.971  0.9270 -1.0998 -0.4677
 3875SOL    HW212525   2.435   3.318   6.816  1.2373  1.5135 -0.7240
 3876SOL     OW12526   5.757   6.048   5.003  0.4203  0.3108 -0.3335
 3876SOL    HW112527   5.812   5.972   4.967  0.7243  1.2754 -1.9814
 3876SOL    HW212528   5.674   6.058   4.948  0.2148  0.9542  0.0854
 3877SOL     OW12529   6.078   4.151   1.757 -0.0267 -0.1239 -0.1535
 3877SOL    HW112530   6.010   4.078   1.764  0.1774 -0.2553  0.5927
 3877SOL    HW212531   6.146   4.140   1.830  1.6167 -0.8062 -1.7330
 3878SOL     OW12532   6.327   5.694   5.071 -0.3380 -0.6760  0.1137
 3878SOL    HW112533   6.250   5.735   5.022 -0.3945  0.2444  0.9372
 3878SOL    HW212534   6.298   5.608   5.114 -0.2510 -1.5599 -1.5391
 3879SOL     OW12535   3.118   5.738   0.878  0.7584 -0.3257 -0.4234
 3879SOL    HW112536   3.217   5.738   0.897  0.3749  1.4665  2.1157
 3879SOL    HW212537   3.100   5.800   0.801  1.4988  0.5446  0.0753
 3880SOL     OW12538   1.044   2.326   3.296  0.0422 -0.4558 -0.6902
 3880SOL    HW112539   0.968   2.313   3.232 -1.9190 -0.7649  1.5696
 3880SOL    HW212540   1.039   2.257   3.368  0.3262  1.6443  1.4631
 3881SOL     OW12541   1.081   0.343   6.871 -0.7537  0.2914  0.3284
 3881SOL    HW112542   1.073   0.358   6.970 -1.9038 -2.4158  0.7066
 3881SOL    HW212543   1.161   0.286   6.853 -2.1699 -1.6725  0.0388
 3882SOL     OW12544   5.898   5.608   0.607 -0.3521  0.2683  0.1313
 3882SOL    HW112545   5.981   5.662   0.622 -0.7865  0.6922  1.1163
 3882SOL    HW212546   5.844   5.649   0.533  0.0616  0.2902 -0.1606
 3883SOL     OW12547   4.079   2.322   1.419 -0.2781 -0.0388  0.8416
 3883SOL    HW112548   4.108   2.288   1.329 -1.1072 -1.5701  1.1287
 3883SOL    HW212549   4.036   2.411   1.408  0.1511  0.0538 -0.2082
 3884SOL     OW12550   2.986   5.937   0.724 -0.1302 -0.4223  0.2160
 3884SOL    HW112551   2.932   5.956   0.641 -0.5023 -0.6671  0.3968
 3884SOL    HW212552   2.998   6.022   0.775 -0.7741 -0.4510  0.4231
 3885SOL     OW12553   2.635   0.603   3.182 -0.2233 -0.1112 -0.6224
 3885SOL    HW112554   2.687   0.529   3.223 -0.3865 -0.3203 -0.7902
 3885SOL    HW212555   2.574   0.643   3.250 -0.3635 -0.3387 -0.6135
 3886SOL     OW12556   5.031   4.074   4.951  0.1864  0.3208  0.6239
 3886SOL    HW112557   5.032   4.085   5.050  1.0185 -0.7376  0.7564
 3886SOL    HW212558   4.999   4.158   4.908  0.4810  1.0307  1.7578
 3887SOL     OW12559   1.459   4.844   5.083  0.0363 -0.3168  0.5303
 3887SOL    HW112560   1.527   4.888   5.025  1.2118 -0.2284  1.9300
 3887SOL    HW212561   1.501   4.765   5.130 -1.1796 -1.0444  0.4342
 3888SOL     OW12562   5.301   0.528   3.221  0.1361 -0.4275 -0.2448
 3888SOL    HW112563   5.383   0.582   3.201 -0.2127  0.7728  1.3285
 3888SOL    HW212564   5.326   0.449   3.277  0.5014 -1.3686 -1.6801
 3889SOL     OW12565   0.342   6.162   1.449  0.2424 -0.4740  0.3796
 3889SOL    HW112566   0.367   6.065   1.446 -0.4507 -0.6665  0.5531
 3889SOL    HW212567   0.349   6.201   1.357  1.7659 -0.3475  0.5170
 3890SOL     OW12568   6.339   1.729   2.400  0.1166  0.1178 -0.6550
 3890SOL    HW112569   6.263   1.671   2.371 -1.2554  1.5196 -0.0315
 3890SOL    HW212570   6.409   1.730   2.328  0.5453 -2.7977 -0.3825
 3891SOL     OW12571   4.423   3.662   6.071  0.5697  0.3926 -0.0872
 3891SOL    HW112572   4.481   3.584   6.047 -0.7484 -1.4973  2.2480
 3891SOL    HW212573   4.353   3.674   6.001  2.7033  1.6692 -2.1123
 3892SOL     OW12574   5.154   5.729   4.117  0.6871  0.9313  0.3861
 3892SOL    HW112575   5.171   5.630   4.110 -0.4662  0.6883  0.8442
 3892SOL    HW212576   5.185   5.762   4.206 -0.3862  0.6617  0.8688
 3893SOL     OW12577   2.416   5.069   6.637  0.3005  0.0571  0.0181
 3893SOL    HW112578   2.331   5.059   6.585  0.1133 -0.7172  0.4614
 3893SOL    HW212579   2.488   5.101   6.576 -0.0124 -0.4696 -0.6475
 3894SOL     OW12580   0.538   0.164   5.421 -0.0482  0.2026  0.3965
 3894SOL    HW112581   0.626   0.186   5.462  0.5210 -0.5491 -0.3794
 3894SOL    HW212582   0.550   0.143   5.324 -1.0316 -0.2393  0.3492
 3895SOL     OW12583   0.796   1.980   5.194 -0.5837  0.3910 -0.4643
 3895SOL    HW112584   0.746   1.902   5.232 -0.9051  0.4289 -0.8098
 3895SOL    HW212585   0.892   1.975   5.224 -0.5025 -0.3657 -0.8187
 3896SOL     OW12586   6.418   5.512   3.373  0.3826 -0.1757 -0.7184
 3896SOL    HW112587   6.358   5.432   3.365 -0.7514  0.3737  1.5473
 3896SOL    HW212588   6.366   5.589   3.411  2.5435  0.2579  1.5512
 3897SOL     OW12589   3.083   0.546   2.257  0.1699 -0.3449 -0.2729
 3897SOL    HW112590   3.070   0.645   2.255 -2.5365 -0.6427 -1.3168
 3897SOL    HW212591   3.074   0.513   2.351  0.2759  0.3013 -0.0319
 3898SOL     OW12592   4.011   3.688   2.856  0.1262  0.5941  0.2087
 3898SOL    HW112593   3.947   3.763   2.872  0.1971  1.0083 -1.2970
 3898SOL    HW212594   4.066   3.708   2.775 -0.4389 -1.4441 -0.7432
 3899SOL     OW12595   6.303   0.822   5.521  0.0334  0.0492  0.3499
 3899SOL    HW112596   6.203   0.821   5.515  0.0172 -0.1186  0.6221
 3899SOL    HW212597   6.339   0.731   5.499  0.1464  0.1785 -0.0214
 3900SOL     OW12598   1.258   6.593   3.924  0.5166  0.1054  0.0927
 3900SOL    HW112599   1.220   6.572   3.835  2.4444  0.4952 -0.8778
 3900SOL    HW212600   1.330   6.527   3.946  1.2841  1.0656  0.5352
 3901SOL     OW12601   3.819   1.264   3.020  0.2643  0.8640 -0.1836
 3901SOL    HW112602   3.814   1.212   2.935 -0.6669  0.5751  0.0447
 3901SOL    HW212603   3.862   1.207   3.091  1.5819  1.3042 -0.5886
 3902SOL     OW12604   2.521   6.419   3.349 -0.2460 -0.0200  0.1033
 3902SOL    HW112605   2.574   6.500   3.373  1.5310 -1.3991  1.0584
 3902SOL    HW212606   2.434   6.447   3.309 -0.1270  2.3491  1.3385
 3903SOL     OW12607   3.387   3.224   6.587  0.0374  0.0398 -0.8574
 3903SOL    HW112608   3.476   3.264   6.608  1.5761 -3.1912 -0.6299
 3903SOL    HW212609   3.372   3.223   6.488 -1.0627  2.9203 -0.8420
 3904SOL     OW12610   3.735   5.840   0.004 -0.4426 -0.7322  0.1755
 3904SOL    HW112611   3.746   5.918  -0.057 -1.2129  0.0546  1.0220
 3904SOL    HW212612   3.757   5.867   0.098  0.6054 -1.8961  0.3034
 3905SOL     OW12613   4.599   6.244   4.190  0.4536  0.1037  0.0177
 3905SOL    HW112614   4.585   6.257   4.288  0.2127  0.5316 -0.0718
 3905SOL    HW212615   4.694   6.266   4.167  0.6659 -0.5434  0.2407
 3906SOL     OW12616   1.526   6.810   3.162 -0.3410  0.2490 -0.2203
 3906SOL    HW112617   1.432   6.776   3.160  0.0480 -0.9651  1.1521
 3906SOL    HW212618   1.528   6.902   3.202 -0.8487 -0.0620  0.5192
 3907SOL     OW12619   1.077   6.830   4.645 -0.1727  0.3498 -0.1561
 3907SOL    HW112620   1.041   6.757   4.587 -1.1428  1.1780 -0.6232
 3907SOL    HW212621   1.124   6.897   4.589 -1.5938  1.4407 -0.0845
 3908SOL     OW12622   1.418   0.322   3.960 -0.0415 -0.4075 -0.8400
 3908SOL    HW112623   1.335   0.309   4.013  0.0796 -0.4878 -0.6691
 3908SOL    HW212624   1.404   0.285   3.868 -0.4333  0.2250 -1.0408
 3909SOL     OW12625   6.410   2.983   2.904  0.6877  0.4844 -0.2669
 3909SOL    HW112626   6.429   3.028   2.991  1.3062  1.7757 -1.0398
 3909SOL    HW212627   6.347   2.907   2.918  0.6769  0.7634  1.2782
 3910SOL     OW12628   1.872   2.806   0.638 -0.2295  0.0020 -0.1250
 3910SOL    HW112629   1.836   2.741   0.705  1.9616 -0.1010  1.0384
 3910SOL    HW212630   1.861   2.769   0.546 -2.4665 -0.2595  0.1697
 3911SOL     OW12631   6.785   1.285   1.284 -0.5301  0.1358 -0.3385
 3911SOL    HW112632   6.709   1.225   1.310 -0.4048  0.5967  1.2138
 3911SOL    HW212633   6.793   1.359   1.351  1.6253 -0.2085 -0.1584
 3912SOL     OW12634   5.220   3.108   5.782  0.1455 -0.5675  0.8598
 3912SOL    HW112635   5.158   3.116   5.860 -1.1307  0.4981 -0.2237
 3912SOL    HW212636   5.310   3.077   5.814 -0.5258 -0.7777  2.6493
 3913SOL     OW12637   1.063   3.192   1.178 -0.0555  0.0962  0.4059
 3913SOL    HW112638   1.123   3.120   1.212 -2.0397 -0.4895  2.9828
 3913SOL    HW212639   1.064   3.192   1.078  0.5579 -3.0013  0.3194
 3914SOL     OW12640   6.338   5.989   6.883  0.5825 -0.0658  0.7419
 3914SOL    HW112641   6.433   6.011   6.861 -0.2788  1.5037 -1.9494
 3914SOL    HW212642   6.296   6.068   6.928  0.2512 -0.3628  0.9606
 3915SOL     OW12643   4.539   6.854   3.380  0.0621 -0.3784  0.0922
 3915SOL    HW112644   4.459   6.902   3.346  0.0443  0.2194  0.9461
 3915SOL    HW212645   4.620   6.911   3.369 -0.1372  0.4167  2.2126
 3916SOL     OW12646   2.216   2.440   2.210 -0.6843  0.4500  1.2248
 3916SOL    HW112647   2.235   2.532   2.177 -2.7499  0.4582 -0.0817
 3916SOL    HW212648   2.302   2.398   2.241  0.5216  2.2768  0.5429
 3917SOL     OW12649   2.406   5.283   1.520 -0.5774 -0.3858 -0.3653
 3917SOL    HW112650   2.378   5.371   1.559 -2.8036 -1.6180  0.9962
 3917SOL    HW212651   2.502   5.266   1.544 -0.0277  1.6950 -0.8263
 3918SOL     OW12652   3.094   5.030   5.206 -0.5401 -0.1731 -0.1853
 3918SOL    HW112653   3.164   4.965   5.236 -1.4529 -1.0538  0.1302
 3918SOL    HW212654   3.095   5.036   5.106  0.2983  0.2005 -0.1638
 3919SOL     OW12655   4.378   4.918   3.937  0.0213  0.6739 -0.0379
 3919SOL    HW112656   4.459   4.968   3.966 -0.0318  0.1913  1.0155
 3919SOL    HW212657   4.312   4.915   4.013 -1.0135  1.1039 -0.8856
 3920SOL     OW12658   6.668   6.363   6.266  0.2426  0.0936 -0.5498
 3920SOL    HW112659   6.610   6.444   6.263  2.1382  1.5348 -0.3767
 3920SOL    HW212660   6.724   6.359   6.183 -0.1114 -1.2721 -0.7377
 3921SOL     OW12661   6.894   3.753   5.758  0.6440 -0.4188  0.2595
 3921SOL    HW112662   6.880   3.657   5.734  1.2807 -0.2671 -0.7431
 3921SOL    HW212663   6.988   3.779   5.740  0.9768 -0.0870  2.2669
 3922SOL     OW12664   5.596   1.207   3.737 -0.4863 -0.2871  0.7028
 3922SOL    HW112665   5.578   1.275   3.666 -2.4204 -2.4023 -0.9886
 3922SOL    HW212666   5.621   1.120   3.694 -1.5959 -1.6150  2.6021
 3923SOL     OW12667   4.908   2.427   0.333  0.4100 -0.8219 -0.2706
 3923SOL    HW112668   4.821   2.391   0.368  0.1554 -0.0072 -0.0410
 3923SOL    HW212669   4.969   2.446   0.410  0.4840 -0.6374 -0.3737
 3924SOL     OW12670   5.980   5.859   5.516  0.1785  0.4542 -0.3381
 3924SOL    HW112671   6.015   5.864   5.423 -0.2009  1.1444 -0.4546
 3924SOL    HW212672   6.040   5.801   5.572  0.9661  0.8434 -0.7608
 3925SOL     OW12673   3.849   4.955   2.676 -0.1311 -0.3375 -0.0525
 3925SOL    HW112674   3.767   4.915   2.636  0.6921 -2.1696  0.0115
 3925SOL    HW212675   3.846   4.946   2.776 -0.7505  1.4227  0.1176
 3926SOL     OW12676   2.403   5.943   4.506  0.1167 -0.4392 -0.3780
 3926SOL    HW112677   2.423   5.989   4.592  0.1169  0.3541 -0.7900
 3926SOL    HW212678   2.400   6.011   4.432  0.5274 -1.1572 -1.0671
 3927SOL     OW12679   1.519   6.732   4.782  0.1790  0.0036 -0.6671
 3927SOL    HW112680   1.537   6.823   4.818 -0.3284 -0.3349  0.4813
 3927SOL    HW212681   1.421   6.711   4.789  0.5149 -1.3117  0.8147
 3928SOL     OW12682   4.044   5.356   2.294  0.0506 -0.1843 -0.6191
 3928SOL    HW112683   4.143   5.356   2.278 -0.1998 -1.0608 -2.5646
 3928SOL    HW212684   4.014   5.262   2.313 -0.4706 -0.0142 -0.5925
 3929SOL     OW12685   2.242   0.749   4.816 -0.4401  0.2828 -0.2720
 3929SOL    HW112686   2.175   0.813   4.778  0.7474  0.3858 -2.2862
 3929SOL    HW212687   2.233   0.660   4.771  0.4903  0.1694 -0.2427
 3930SOL     OW12688   0.909   5.016   5.642 -0.0850  0.0528 -0.4725
 3930SOL    HW112689   0.894   5.003   5.740 -1.6369 -1.0628 -0.8151
 3930SOL    HW212690   0.824   5.046   5.599  0.4198 -0.0398 -1.5596
 3931SOL     OW12691   5.109   3.730   6.007 -0.3002 -0.0065  0.2491
 3931SOL    HW112692   5.176   3.669   5.964 -1.0701  0.1293 -1.2100
 3931SOL    HW212693   5.044   3.676   6.061 -0.5826 -0.4280 -0.4972
 3932SOL     OW12694   0.899   5.338   3.371  0.2016  0.0499 -0.0218
 3932SOL    HW112695   0.807   5.334   3.332 -1.1945  0.1648  2.9406
 3932SOL    HW212696   0.926   5.247   3.401 -0.0849  0.4103  1.4053
 3933SOL     OW12697   0.300   1.527   0.944 -0.7787  0.1815  0.0041
 3933SOL    HW112698   0.266   1.491   1.031 -1.8251  0.5491 -0.2373
 3933SOL    HW212699   0.303   1.453   0.877 -0.5308  0.0238  0.1846
 3934SOL     OW12700   6.845   1.015   2.071 -0.4151  0.2141 -0.0363
 3934SOL    HW112701   6.829   1.066   2.156 -2.9841 -0.9168  0.2349
 3934SOL    HW212702   6.758   0.986   2.032  0.7592 -0.3058 -2.4912
 3935SOL     OW12703   5.576   5.923   5.996 -0.2847 -0.5449  0.7779
 3935SOL    HW112704   5.504   5.992   5.997 -0.4085 -0.6562  0.0293
 3935SOL    HW212705   5.543   5.841   5.950  0.9128  0.0879 -1.3565
 3936SOL     OW12706   6.400   3.942   4.291  0.2833  0.0749 -0.0039
 3936SOL    HW112707   6.403   3.857   4.239  0.8657 -0.2451  0.5373
 3936SOL    HW212708   6.324   3.998   4.259 -0.2708 -0.7645 -0.1921
 3937SOL     OW12709   3.356   4.860   6.518 -0.4860 -0.0172 -0.4809
 3937SOL    HW112710   3.318   4.777   6.559  1.3103 -2.7130 -3.8102
 3937SOL    HW212711   3.302   4.886   6.438  0.7353  0.2223 -1.2393
 3938SOL     OW12712   2.031   4.493   5.956  0.3952  0.4355 -0.1627
 3938SOL    HW112713   2.047   4.487   6.055 -0.3081  1.1133  0.0081
 3938SOL    HW212714   2.018   4.589   5.930 -2.0039  0.1022 -0.4464
 3939SOL     OW12715   2.001   5.490   2.594  0.1067 -0.1608  0.3420
 3939SOL    HW112716   2.049   5.461   2.511  0.2918 -0.4314  0.5412
 3939SOL    HW212717   2.063   5.542   2.652 -0.3008  0.8684 -0.1328
 3940SOL     OW12718   1.307   6.466   5.403  0.5839 -0.0731 -0.1492
 3940SOL    HW112719   1.351   6.383   5.435  1.7694  0.9360  0.9857
 3940SOL    HW212720   1.376   6.529   5.368 -0.0245  1.2114  0.8565
 3941SOL     OW12721   5.773   5.500   2.434 -0.2700 -0.1318 -0.0926
 3941SOL    HW112722   5.794   5.598   2.430  0.4916 -0.2936 -0.3292
 3941SOL    HW212723   5.821   5.453   2.359  3.6224 -1.4068  2.8448
 3942SOL     OW12724   5.058   0.879   0.318  0.2114  0.3389 -0.4726
 3942SOL    HW112725   4.974   0.914   0.277  1.1001  1.9796 -0.9663
 3942SOL    HW212726   5.038   0.796   0.370 -1.7123  0.7280 -0.5454
 3943SOL     OW12727   0.792   5.553   1.990  0.0251  0.6985 -0.2688
 3943SOL    HW112728   0.836   5.643   1.992  1.1609  0.1919 -1.4473
 3943SOL    HW212729   0.750   5.539   1.901  0.3261 -0.1656 -0.2793
 3944SOL     OW12730   4.556   2.151   2.157 -0.8296 -0.2124 -0.3553
 3944SOL    HW112731   4.542   2.061   2.114 -0.1528 -1.6907  2.3146
 3944SOL    HW212732   4.646   2.187   2.132 -0.1525 -1.3770  0.3294
 3945SOL     OW12733   2.426   1.312   3.129  0.2366  0.5046  0.7627
 3945SOL    HW112734   2.329   1.293   3.115 -0.1370  2.0741  0.9704
 3945SOL    HW212735   2.467   1.239   3.183 -0.6033 -0.6443 -0.1211
 3946SOL     OW12736   3.794   1.049   1.763 -0.6159 -0.2279 -0.0752
 3946SOL    HW112737   3.716   1.109   1.782 -0.4098 -0.2540  0.8963
 3946SOL    HW212738   3.833   1.017   1.849  0.2239 -0.5365 -0.5613
 3947SOL     OW12739   3.947   1.068   1.228  0.4344 -0.2698 -0.0733
 3947SOL    HW112740   4.036   1.086   1.269 -0.5787  0.6667  1.8417
 3947SOL    HW212741   3.893   1.152   1.224 -0.1207 -0.6559 -1.9353
 3948SOL     OW12742   2.265   2.300   4.997  0.4976  0.2148  0.1882
 3948SOL    HW112743   2.225   2.232   5.058  0.9665 -0.8976 -0.6979
 3948SOL    HW212744   2.298   2.255   4.914  0.0498  1.6501 -0.8189
 3949SOL     OW12745   5.854   6.506   3.702  0.6053  0.2086  0.3916
 3949SOL    HW112746   5.757   6.488   3.713  0.2377  1.5155 -0.3821
 3949SOL    HW212747   5.868   6.604   3.686  1.9903 -0.0292 -0.0350
 3950SOL     OW12748   2.907   4.338   1.473 -0.4418 -0.1365  0.0702
 3950SOL    HW112749   2.840   4.399   1.515 -0.8518 -0.4723 -0.1011
 3950SOL    HW212750   2.903   4.348   1.373 -2.3714 -2.3454 -0.1627
 3951SOL     OW12751   5.376   2.720   2.848  0.2269  0.0817 -0.2875
 3951SOL    HW112752   5.326   2.803   2.822 -0.6801 -0.2046  0.4962
 3951SOL    HW212753   5.317   2.661   2.903  1.3342 -0.4212  0.3938
 3952SOL     OW12754   5.694   5.645   5.597  0.8043  1.2362  0.1480
 3952SOL    HW112755   5.672   5.742   5.587 -0.5700  1.2748  2.6279
 3952SOL    HW212756   5.773   5.634   5.657  0.2253  0.8369  0.8669
 3953SOL     OW12757   3.070   4.001   4.093  0.4957  0.0022 -0.0873
 3953SOL    HW112758   3.030   3.993   4.185 -0.3734  0.5863 -0.4036
 3953SOL    HW212759   3.072   3.912   4.050  0.0060 -0.1185  0.1335
 3954SOL     OW12760   0.369   5.500   2.367 -0.7251 -0.2881  0.3642
 3954SOL    HW112761   0.442   5.469   2.307 -0.6534  0.4680  0.0425
 3954SOL    HW212762   0.282   5.459   2.339 -0.6774 -0.0084 -0.2040
 3955SOL     OW12763   6.032   2.993   2.128  0.9610 -0.1866  0.0566
 3955SOL    HW112764   6.009   3.080   2.085  1.9177  0.1953  0.3107
 3955SOL    HW212765   6.075   2.933   2.060  1.0080 -0.1779  0.0790
 3956SOL     OW12766   5.380   4.285   5.070 -0.5364  0.3767  0.9986
 3956SOL    HW112767   5.312   4.235   5.125 -0.0754  1.2825  2.4596
 3956SOL    HW212768   5.451   4.321   5.131  0.4374  0.7442 -0.3218
 3957SOL     OW12769   1.771   3.910   2.993 -0.4055 -0.6430 -0.3338
 3957SOL    HW112770   1.726   3.842   2.934  0.8238 -1.3326 -0.5097
 3957SOL    HW212771   1.868   3.914   2.970 -0.2691  0.4405  0.3942
 3958SOL     OW12772   3.870   4.579   0.359  0.3222  1.3320 -0.6903
 3958SOL    HW112773   3.796   4.512   0.356 -0.2618  1.8527  0.8782
 3958SOL    HW212774   3.957   4.533   0.342 -0.1933  0.4168 -0.9472
 3959SOL     OW12775   3.940   4.109   6.222  0.1497  0.2855  0.1028
 3959SOL    HW112776   3.909   4.075   6.311  1.0833  2.5385  1.3639
 3959SOL    HW212777   3.865   4.160   6.179 -0.3417 -0.9080 -0.4873
 3960SOL     OW12778   3.425   2.235   1.716  0.0536 -0.2737 -0.1042
 3960SOL    HW112779   3.341   2.230   1.771  1.0798  1.3476  1.7188
 3960SOL    HW212780   3.498   2.275   1.771  2.0257 -1.5288 -1.6939
 3961SOL     OW12781   0.911   1.933   1.989 -0.5359 -0.3520  0.2281
 3961SOL    HW112782   0.817   1.964   1.982 -0.9190 -1.1809  1.4603
 3961SOL    HW212783   0.924   1.852   1.932 -0.0419  0.8420 -1.4400
 3962SOL     OW12784   0.565   0.140   6.772 -0.0200  0.7752  0.1153
 3962SOL    HW112785   0.566   0.068   6.842  0.8108  0.7174  0.0476
 3962SOL    HW212786   0.472   0.150   6.737 -0.5712  1.2002  1.6394
 3963SOL     OW12787   5.004   3.978   6.188 -0.0667 -0.1349  0.9319
 3963SOL    HW112788   5.041   4.034   6.263  1.5580  1.2236 -0.7933
 3963SOL    HW212789   4.953   4.036   6.125  0.4710 -0.8468 -0.1830
 3964SOL     OW12790   5.511   4.664   5.282 -0.2498 -0.5409 -0.1033
 3964SOL    HW112791   5.476   4.574   5.308 -0.5117 -0.1872  0.8099
 3964SOL    HW212792   5.570   4.655   5.203  1.3971 -1.8296  1.2077
 3965SOL     OW12793   2.988   5.046   0.981  0.2467 -0.8072  0.4396
 3965SOL    HW112794   3.040   5.113   0.928 -0.1550 -0.8010  0.0425
 3965SOL    HW212795   2.899   5.031   0.937  1.1579 -3.2736 -0.7554
 3966SOL     OW12796   6.498   4.572   6.164 -0.2905  0.4890  0.1249
 3966SOL    HW112797   6.584   4.613   6.194 -0.2125  0.4219 -0.0060
 3966SOL    HW212798   6.444   4.640   6.114 -0.1061  0.3984 -0.1985
 3967SOL     OW12799   2.621   6.108   0.930 -0.3247 -0.6728  0.0904
 3967SOL    HW112800   2.702   6.085   0.876  0.4113  0.8551  0.4958
 3967SOL    HW212801   2.573   6.184   0.887 -1.1165 -1.0499  0.2844
 3968SOL     OW12802   4.078   1.512   1.532 -0.0908  0.4681 -0.4640
 3968SOL    HW112803   4.150   1.489   1.468  2.2791  2.5125  1.2887
 3968SOL    HW212804   4.115   1.566   1.607 -3.1582  0.1996  1.4468
 3969SOL     OW12805   5.009   1.428   1.223  0.3280  0.5135  0.0522
 3969SOL    HW112806   5.082   1.361   1.236  1.2991  1.4173 -0.4998
 3969SOL    HW212807   4.926   1.396   1.267  1.3340 -0.0793  1.6186
 3970SOL     OW12808   5.656   4.148   2.936  0.2976  0.0725  0.1517
 3970SOL    HW112809   5.714   4.197   2.870  0.1288  2.4158  1.6191
 3970SOL    HW212810   5.694   4.159   3.028 -1.5032  0.1549  0.9223
 3971SOL     OW12811   6.922   5.792   2.018  0.4089 -0.1161 -0.0223
 3971SOL    HW112812   6.914   5.729   1.940 -0.8141  1.0955 -0.9227
 3971SOL    HW212813   6.885   5.749   2.100 -1.4748 -0.1903 -0.8724
 3972SOL     OW12814   1.583   2.114   5.021  0.8659 -0.2662  0.0667
 3972SOL    HW112815   1.502   2.171   5.011  0.4622 -0.4395  1.8862
 3972SOL    HW212816   1.652   2.163   5.074  0.6301 -1.2985  1.3993
 3973SOL     OW12817   4.180   2.976   1.688 -0.1672  0.4539  0.2875
 3973SOL    HW112818   4.278   2.973   1.707 -0.2892  0.6903  1.0120
 3973SOL    HW212819   4.130   2.971   1.775 -0.7848  0.7973 -0.0427
 3974SOL     OW12820   4.945   1.351   5.005  0.5621 -0.0350  0.0039
 3974SOL    HW112821   4.958   1.258   4.972 -0.4711  0.0619 -0.7280
 3974SOL    HW212822   4.935   1.414   4.927  3.3928  1.0689  0.4223
 3975SOL     OW12823   6.914   0.332   2.307 -0.1081 -0.1231  0.0582
 3975SOL    HW112824   6.857   0.340   2.389 -0.2027  0.0887 -0.0295
 3975SOL    HW212825   6.963   0.245   2.310 -1.4518 -0.9311 -0.5181
 3976SOL     OW12826   6.545   3.596   6.460 -0.1553 -0.6763  0.2548
 3976SOL    HW112827   6.449   3.584   6.434 -0.4438 -0.6248  1.2581
 3976SOL    HW212828   6.594   3.509   6.447 -0.2191 -0.5777 -0.7069
 3977SOL     OW12829   3.293   4.926   5.645 -0.5078 -0.2252  0.8074
 3977SOL    HW112830   3.253   4.984   5.574  2.0525 -0.2864 -0.7915
 3977SOL    HW212831   3.327   4.842   5.604  0.9848 -0.2942  2.1080
 3978SOL     OW12832   4.083   3.601   5.654  0.3240  0.0346 -0.1040
 3978SOL    HW112833   4.153   3.657   5.699  0.2777  0.1949 -0.2294
 3978SOL    HW212834   4.004   3.658   5.632 -0.4457 -0.4480  1.3203
 3979SOL     OW12835   0.097   6.846   1.963  0.0546  0.6172  0.7657
 3979SOL    HW112836   0.008   6.868   1.924 -0.4484 -1.2924  0.7308
 3979SOL    HW212837   0.152   6.795   1.897  0.2474 -0.2712  1.5753
 3980SOL     OW12838   6.458   3.344   3.981 -0.5716  0.2240  0.4771
 3980SOL    HW112839   6.513   3.420   3.947 -0.3271 -0.0580  0.2393
 3980SOL    HW212840   6.374   3.337   3.928  1.0147 -1.9226 -1.9876
 3981SOL     OW12841   5.555   0.475   6.420 -0.3631  0.1347  0.6231
 3981SOL    HW112842   5.603   0.396   6.383  0.3384  0.4712  0.7830
 3981SOL    HW212843   5.576   0.484   6.517 -0.5418  0.4407  0.6351
 3982SOL     OW12844   0.605   2.255   2.558  0.0354  0.3894  0.5111
 3982SOL    HW112845   0.579   2.315   2.634 -1.6391 -1.5283  1.5395
 3982SOL    HW212846   0.687   2.203   2.584 -0.4898 -0.2077  1.0065
 3983SOL     OW12847   0.570   0.474   4.029 -0.0278 -0.2143  0.5559
 3983SOL    HW112848   0.515   0.506   4.106  0.8521 -0.7796  1.4410
 3983SOL    HW212849   0.555   0.377   4.015 -0.1484 -0.1224  0.0437
 3984SOL     OW12850   6.831   5.749   2.314  0.2418  0.3223  0.7189
 3984SOL    HW112851   6.800   5.837   2.350 -1.7524  0.5479 -1.3319
 3984SOL    HW212852   6.927   5.735   2.339 -0.0322  1.9995  3.0156
 3985SOL     OW12853   0.513   2.507   1.558  0.7564 -0.2831  0.1329
 3985SOL    HW112854   0.459   2.512   1.474  0.4163  1.0414  0.4075
 3985SOL    HW212855   0.610   2.502   1.534  0.5868 -1.6572 -0.3449
 3986SOL     OW12856   0.882   1.517   4.557 -0.0608 -0.0863  0.2505
 3986SOL    HW112857   0.821   1.590   4.526 -1.2443 -0.4649  1.5805
 3986SOL    HW212858   0.976   1.552   4.563  0.1063  0.2268 -2.7906
 3987SOL     OW12859   1.184   6.327   4.938  0.2390 -0.2259  0.3364
 3987SOL    HW112860   1.223   6.284   4.857 -2.8455  0.1151 -1.4941
 3987SOL    HW212861   1.237   6.300   5.019  1.8417 -2.7859 -1.4084
 3988SOL     OW12862   4.238   5.101   2.433 -0.2196  0.3757 -0.1271
 3988SOL    HW112863   4.284   5.013   2.424 -0.2522  0.4072 -0.6768
 3988SOL    HW212864   4.142   5.092   2.406 -0.3611  0.4588  0.3502
 3989SOL     OW12865   2.996   3.222   6.446  0.9554 -0.2730  0.2816
 3989SOL    HW112866   2.946   3.137   6.428  2.3688 -0.7950 -1.4495
 3989SOL    HW212867   2.937   3.300   6.423 -0.0100 -0.7830  0.9297
 3990SOL     OW12868   5.259   5.786   3.710 -0.3663  0.0281 -0.2019
 3990SOL    HW112869   5.193   5.733   3.657  1.3234 -1.2448 -1.1422
 3990SOL    HW212870   5.301   5.727   3.779  2.4622 -0.3718 -2.0876
 3991SOL     OW12871   6.751   1.297   5.087  0.1426  0.0116 -0.0268
 3991SOL    HW112872   6.747   1.230   5.162  0.7487 -0.2666 -0.2372
 3991SOL    HW212873   6.731   1.250   5.001  1.6234 -0.1404 -0.3143
 3992SOL     OW12874   4.509   4.741   0.178  0.0935  0.0450  0.5154
 3992SOL    HW112875   4.568   4.808   0.223  0.4520  1.2748 -1.6495
 3992SOL    HW212876   4.414   4.772   0.185  0.2691  0.8848 -0.5777
 3993SOL     OW12877   3.295   0.317   4.818  0.3647  0.4839 -0.1482
 3993SOL    HW112878   3.301   0.379   4.739  0.6888 -1.5104 -1.7838
 3993SOL    HW212879   3.199   0.308   4.844 -0.2670 -1.5754 -2.7442
 3994SOL     OW12880   2.687   1.814   4.867 -0.0432  0.2917  0.2148
 3994SOL    HW112881   2.614   1.781   4.806  1.9813 -0.5121 -1.9177
 3994SOL    HW212882   2.742   1.736   4.897  1.7840  1.1625 -0.7570
 3995SOL     OW12883   3.450   3.421   3.877  0.4678  0.3795 -0.3225
 3995SOL    HW112884   3.378   3.381   3.933  0.8514  0.6451  0.3793
 3995SOL    HW212885   3.491   3.350   3.820 -0.4343  0.2581 -0.8295
 3996SOL     OW12886   1.400   4.472   6.683 -0.0995  0.2831 -0.5069
 3996SOL    HW112887   1.418   4.466   6.585 -0.8618  0.3257 -0.6493
 3996SOL    HW212888   1.414   4.567   6.713 -0.9634  0.5034 -0.7921
 3997SOL     OW12889   5.132   3.217   0.312  0.2957 -0.1940 -0.6225
 3997SOL    HW112890   5.195   3.294   0.301  0.3131 -0.0672  0.3260
 3997SOL    HW212891   5.185   3.132   0.316  0.2913 -0.2470 -1.4196
 3998SOL     OW12892   4.324   2.490   1.499 -0.3404  0.1990  0.7184
 3998SOL    HW112893   4.396   2.436   1.542  1.4164  1.4524 -0.5055
 3998SOL    HW212894   4.253   2.429   1.464  0.0817 -1.0725  1.9807
 3999SOL     OW12895   4.655   5.760   1.091  0.9411 -0.2247  0.0004
 3999SOL    HW112896   4.738   5.705   1.079  0.0987 -1.4358 -0.4789
 3999SOL    HW212897   4.599   5.755   1.008 -1.1516 -2.1036  1.3988
 4000SOL     OW12898   4.002   4.804   2.910  0.0971  0.1403 -0.4956
 4000SOL    HW112899   4.028   4.839   3.000 -0.0316 -0.8216 -0.0667
 4000SOL    HW212900   3.916   4.753   2.918 -0.2394  0.5681 -1.2853
 4001SOL     OW12901   1.307   4.783   3.152 -0.1208 -0.8599 -0.6338
 4001SOL    HW112902   1.338   4.688   3.146 -0.6948 -1.2068  1.2024
 4001SOL    HW212903   1.332   4.832   3.068  0.9744 -2.3892 -1.2437
 4002SOL     OW12904   3.454   4.204   3.562 -0.3073  0.2221  0.2787
 4002SOL    HW112905   3.417   4.141   3.494 -1.3651 -0.1132  1.1430
 4002SOL    HW212906   3.425   4.297   3.541  0.3799  0.2907 -0.4028
 4003SOL     OW12907   3.325   0.779   5.710  0.8067  0.4557  0.4812
 4003SOL    HW112908   3.251   0.807   5.649  0.9476 -1.7366 -0.7960
 4003SOL    HW212909   3.317   0.681   5.730  3.4039  0.1281  0.2423
 4004SOL     OW12910   0.473   4.385   4.364 -0.3779  0.0750 -0.4989
 4004SOL    HW112911   0.459   4.465   4.423  1.2693 -0.2022  0.3163
 4004SOL    HW212912   0.454   4.302   4.415 -1.2197 -0.1037 -1.0828
 4005SOL     OW12913   6.057   0.369   3.174  0.1936  0.4026 -0.1262
 4005SOL    HW112914   6.153   0.346   3.156  0.2583  0.4798  0.1108
 4005SOL    HW212915   6.053   0.454   3.227 -0.0204  0.6172 -0.4803
 4006SOL     OW12916   0.077   6.664   2.172  0.0681  0.3570  0.0149
 4006SOL    HW112917   0.006   6.706   2.229  0.2833  1.7399 -0.6982
 4006SOL    HW212918   0.098   6.724   2.094  1.2651 -0.5222 -0.3766
 4007SOL     OW12919   0.955   2.256   0.052 -0.4812 -0.1071  0.5567
 4007SOL    HW112920   0.884   2.225   0.115 -0.1415 -2.8817 -0.3169
 4007SOL    HW212921   1.034   2.288   0.105 -1.5306  1.0519  1.5099
 4008SOL     OW12922   3.821   5.463   3.115 -0.3599  0.0012 -0.2739
 4008SOL    HW112923   3.786   5.370   3.106  1.0883 -0.3891 -3.0299
 4008SOL    HW212924   3.773   5.523   3.050  0.8062  0.4631 -0.7366
 4009SOL     OW12925   4.145   1.194   1.944 -0.3248 -0.4381  0.4412
 4009SOL    HW112926   4.227   1.202   2.001 -1.7427  0.5361  2.4626
 4009SOL    HW212927   4.161   1.239   1.856  1.1169  0.2126  1.0034
 4010SOL     OW12928   1.273   3.094   3.216  0.7332 -0.4028  0.5025
 4010SOL    HW112929   1.313   3.141   3.136  2.7117 -0.5589  1.3421
 4010SOL    HW212930   1.174   3.104   3.214  0.8706  1.1969 -0.9873
 4011SOL     OW12931   6.117   1.448   5.348 -0.2693  0.6124 -0.5618
 4011SOL    HW112932   6.179   1.373   5.325  1.2667  2.1563 -1.7701
 4011SOL    HW212933   6.086   1.438   5.443  1.6764 -0.3731  0.0328
 4012SOL     OW12934   5.813   3.158   1.397 -0.1024  0.1030 -0.0374
 4012SOL    HW112935   5.729   3.124   1.356  0.2348  0.1196 -0.7499
 4012SOL    HW212936   5.802   3.254   1.422 -1.1719 -0.5348  2.2790
 4013SOL     OW12937   5.660   1.289   4.814  0.0730  0.5600  0.2329
 4013SOL    HW112938   5.639   1.195   4.787  0.2240  0.2478  1.1471
 4013SOL    HW212939   5.616   1.353   4.751  0.3351 -0.1224 -0.6680
 4014SOL     OW12940   5.393   6.259   2.947  0.2077 -0.5372  0.6669
 4014SOL    HW112941   5.449   6.262   2.864 -0.3179 -0.3313  0.3147
 4014SOL    HW212942   5.298   6.239   2.923  0.2447 -1.5468  1.3256
 4015SOL     OW12943   1.762   5.543   5.898 -0.0291 -0.2649  0.4692
 4015SOL    HW112944   1.858   5.521   5.917  0.2508 -1.9323 -2.3758
 4015SOL    HW212945   1.705   5.464   5.920 -0.3947 -0.2077 -0.2671
 4016SOL     OW12946   3.426   5.239   3.928 -0.3723  0.0817 -0.3145
 4016SOL    HW112947   3.463   5.147   3.940 -1.7264 -0.2961  1.3573
 4016SOL    HW212948   3.350   5.253   3.992  0.4640  2.7192  0.2203
 4017SOL     OW12949   1.820   6.942   0.328  0.0581  0.8152  0.0779
 4017SOL    HW112950   1.861   6.851   0.332  1.2615  1.3674  1.0373
 4017SOL    HW212951   1.720   6.934   0.336  0.2089 -0.3691  1.1446
 4018SOL     OW12952   5.658   4.966   5.269 -0.0531 -0.4293  0.0475
 4018SOL    HW112953   5.690   5.006   5.355 -1.1676 -1.9101  1.2083
 4018SOL    HW212954   5.720   4.894   5.239  0.7313  0.5802 -0.8173
 4019SOL     OW12955   1.771   2.222   2.644 -0.3873  0.7843 -0.0299
 4019SOL    HW112956   1.809   2.244   2.734  2.7761  2.3084 -1.6061
 4019SOL    HW212957   1.800   2.290   2.577  0.0747 -1.9794 -2.8715
 4020SOL     OW12958   6.871   6.588   5.457 -0.1582 -0.7930  0.0278
 4020SOL    HW112959   6.890   6.674   5.409 -1.1111 -1.2785 -1.2795
 4020SOL    HW212960   6.792   6.599   5.516 -0.3315 -0.7968 -0.2047
 4021SOL     OW12961   4.746   6.976   6.297  0.2729  0.1040  0.0246
 4021SOL    HW112962   4.815   6.936   6.356 -1.8868 -1.1970  1.8284
 4021SOL    HW212963   4.716   7.063   6.335  0.9838  0.7456 -0.8415
 4022SOL     OW12964   4.516   1.492   1.699  0.3326 -0.2104 -0.0753
 4022SOL    HW112965   4.456   1.412   1.702  1.5077 -1.1110  0.0242
 4022SOL    HW212966   4.492   1.549   1.621  0.3073 -1.3417 -0.9114
 4023SOL     OW12967   2.029   2.296   3.954 -0.3761 -0.0960 -0.2389
 4023SOL    HW112968   2.090   2.318   3.878 -1.0720 -2.5974 -1.6183
 4023SOL    HW212969   1.970   2.375   3.974 -0.4405  0.4949 -2.5340
 4024SOL     OW12970   1.592   5.085   5.994  0.2440 -0.0702 -0.0465
 4024SOL    HW112971   1.501   5.048   6.008  0.5106 -0.4331  0.7582
 4024SOL    HW212972   1.648   5.070   6.075  0.9935  0.2383 -0.4882
 4025SOL     OW12973   6.188   3.454   3.845  0.1098  0.4789 -0.1492
 4025SOL    HW112974   6.116   3.511   3.885 -0.7589 -0.9817  0.4630
 4025SOL    HW212975   6.214   3.491   3.755 -3.6700 -0.6352 -1.9075
 4026SOL     OW12976   0.153   1.038   5.709 -0.7196 -0.6508  0.3657
 4026SOL    HW112977   0.150   0.962   5.773  1.3729 -1.4914 -0.4561
 4026SOL    HW212978   0.136   1.124   5.758 -0.9955 -1.4349  1.6841
 4027SOL     OW12979   3.069   5.897   4.822  0.4397  0.4895 -0.0341
 4027SOL    HW112980   2.985   5.846   4.838  1.1077 -0.4614  0.6156
 4027SOL    HW212981   3.109   5.924   4.909  1.6328 -0.5057 -0.2313
 4028SOL     OW12982   4.274   2.340   4.608 -0.2628 -0.4072  0.2941
 4028SOL    HW112983   4.306   2.289   4.687 -1.4993  0.5016  1.4251
 4028SOL    HW212984   4.183   2.377   4.626 -0.7503 -0.4866 -1.7003
 4029SOL     OW12985   2.518   6.988   0.771  0.1113  0.2451 -0.0533
 4029SOL    HW112986   2.457   6.965   0.847 -0.9386  0.4739 -0.7966
 4029SOL    HW212987   2.579   7.062   0.798 -0.5804  0.6540  0.4273
 4030SOL     OW12988   6.845   2.144   1.460  0.1566  0.0083 -0.0671
 4030SOL    HW112989   6.917   2.081   1.432 -0.1860  0.3247 -1.7739
 4030SOL    HW212990   6.864   2.179   1.551  1.6356 -0.6819 -0.0933
 4031SOL     OW12991   4.543   6.088   0.144 -0.3093 -0.3127  0.4476
 4031SOL    HW112992   4.467   6.140   0.104  0.5923  1.2233  0.6334
 4031SOL    HW212993   4.542   6.099   0.244  0.5474  0.3012  0.3962
 4032SOL     OW12994   4.919   3.688   3.723  0.2763  0.0208  0.6487
 4032SOL    HW112995   4.984   3.755   3.758 -0.7725 -0.2742  3.4559
 4032SOL    HW212996   4.877   3.722   3.639  3.0480  0.7558 -0.5516
 4033SOL     OW12997   1.310   3.651   3.019 -0.3284 -0.0873 -0.2971
 4033SOL    HW112998   1.251   3.596   3.079 -0.1833  2.4095  2.3075
 4033SOL    HW212999   1.290   3.627   2.924 -3.6539 -1.2448  0.5258
 4034SOL     OW13000   1.115   3.614   3.356 -0.4592  0.6920 -0.5158
 4034SOL    HW113001   1.075   3.617   3.447  1.9370 -0.6713  0.6733
 4034SOL    HW213002   1.146   3.706   3.330  2.8140  0.5255  2.0702
 4035SOL     OW13003   2.087   2.491   1.842  0.3332 -0.0480  0.5532
 4035SOL    HW113004   2.141   2.407   1.836  0.3816  0.0913 -1.3969
 4035SOL    HW213005   2.136   2.566   1.797 -1.2070  0.2136 -0.7486
 4036SOL     OW13006   3.806   0.476   2.700 -0.0276  0.1751 -0.5272
 4036SOL    HW113007   3.819   0.403   2.768 -0.5965  0.3844 -0.1875
 4036SOL    HW213008   3.716   0.467   2.658  0.0158  0.5099 -0.6985
 4037SOL     OW13009   0.104   6.819   6.887 -0.2441  0.3227 -0.6888
 4037SOL    HW113010   0.068   6.855   6.973  0.0670  2.6399 -1.4679
 4037SOL    HW213011   0.204   6.830   6.885 -0.3071  0.8091 -1.5716
 4038SOL     OW13012   2.990   5.073   6.001 -0.7063 -0.5518 -0.0426
 4038SOL    HW113013   3.089   5.081   5.999 -0.7571  0.1242  0.0001
 4038SOL    HW213014   2.960   5.008   5.931 -0.1852 -1.3884  0.4780
 4039SOL     OW13015   5.802   4.837   3.141 -0.1600 -0.5308 -0.0850
 4039SOL    HW113016   5.885   4.878   3.179  0.3750 -0.8431 -0.8860
 4039SOL    HW213017   5.811   4.737   3.142 -1.8815 -0.7525  2.8224
 4040SOL     OW13018   0.241   0.581   6.176 -0.0949 -0.0007 -0.1153
 4040SOL    HW113019   0.185   0.586   6.259  0.0812 -0.5724  0.0396
 4040SOL    HW213020   0.289   0.493   6.173  3.4207  1.6517  1.4519
 4041SOL     OW13021   0.862   6.322   2.492  0.6082 -0.6536  0.3485
 4041SOL    HW113022   0.943   6.279   2.531  2.1432 -0.1226 -2.0597
 4041SOL    HW213023   0.882   6.417   2.470 -0.6698 -0.5185 -0.3317
 4042SOL     OW13024   0.824   1.286   5.041  0.7160  0.3430  0.3461
 4042SOL    HW113025   0.901   1.288   5.105  1.0975 -2.3745  0.0786
 4042SOL    HW213026   0.855   1.315   4.950  2.0790 -2.6974 -0.2782
 4043SOL     OW13027   2.858   3.437   5.484 -0.3518  0.7354  0.1254
 4043SOL    HW113028   2.927   3.498   5.445 -1.1415  1.2412 -0.4977
 4043SOL    HW213029   2.892   3.343   5.482  0.3603  0.9913 -0.0743
 4044SOL     OW13030   6.809   4.935   3.115  0.2961  0.2482 -0.3040
 4044SOL    HW113031   6.881   4.955   3.182 -0.4760 -1.0707  0.9790
 4044SOL    HW213032   6.821   4.842   3.081  0.0801  0.5562 -1.2385
 4045SOL     OW13033   4.099   1.353   5.157  0.1263 -0.0822 -0.5135
 4045SOL    HW113034   4.017   1.296   5.151 -0.1430  0.3118 -0.6169
 4045SOL    HW213035   4.173   1.300   5.198 -0.7187  0.1390  1.4041
 4046SOL     OW13036   6.097   1.605   4.009  0.0249  0.2868  0.5571
 4046SOL    HW113037   6.092   1.571   3.915 -1.5939 -1.6171  1.2586
 4046SOL    HW213038   6.186   1.582   4.048  0.1994 -0.1605 -0.0772
 4047SOL     OW13039   3.048   2.488   6.555  0.1122  0.1389  0.5188
 4047SOL    HW113040   3.139   2.520   6.532 -0.0120  0.7985  0.9408
 4047SOL    HW213041   3.024   2.516   6.648 -1.3855  1.9552 -0.3549
 4048SOL     OW13042   5.066   2.510   4.840  0.0651  0.2465  0.5873
 4048SOL    HW113043   5.165   2.516   4.828 -0.1085  2.5197 -0.2803
 4048SOL    HW213044   5.032   2.424   4.801  1.3548  0.8293 -2.0001
 4049SOL     OW13045   3.377   3.203   4.197  0.0517 -0.1228 -0.1656
 4049SOL    HW113046   3.323   3.249   4.126  0.0265 -0.0983 -0.1305
 4049SOL    HW213047   3.422   3.272   4.254  2.0014 -0.0953 -1.5991
 4050SOL     OW13048   6.485   2.585   1.446  0.2134  0.3232  0.0122
 4050SOL    HW113049   6.393   2.561   1.479 -0.1176 -0.0100 -1.1141
 4050SOL    HW213050   6.504   2.681   1.468  0.0588  0.0746  1.2606
 4051SOL     OW13051   5.878   0.253   4.580 -0.4059  0.3682 -0.7037
 4051SOL    HW113052   5.839   0.164   4.556  1.1360 -0.3827 -0.5530
 4051SOL    HW213053   5.814   0.302   4.640 -0.9030 -0.9990 -0.0734
 4052SOL     OW13054   3.899   1.361   6.435  0.4439 -0.2068  0.3671
 4052SOL    HW113055   3.812   1.403   6.461  0.0685 -0.7237 -0.0422
 4052SOL    HW213056   3.974   1.424   6.457 -0.2054  1.4465 -1.7775
 4053SOL     OW13057   0.641   4.039   4.411  0.8455 -0.4278 -0.3571
 4053SOL    HW113058   0.553   4.071   4.446  1.1986  0.2448 -0.0562
 4053SOL    HW213059   0.674   3.964   4.467  0.5179 -0.6068 -0.4030
 4054SOL     OW13060   4.553   3.582   1.139 -0.1308 -0.4254 -0.5030
 4054SOL    HW113061   4.618   3.550   1.070  0.3402 -0.7717  0.1005
 4054SOL    HW213062   4.597   3.649   1.198 -0.1592 -1.0420  0.2275
 4055SOL     OW13063   6.574   2.070   6.834 -0.3829  0.4390 -0.8815
 4055SOL    HW113064   6.659   2.116   6.858  0.5855  0.3039 -3.6601
 4055SOL    HW213065   6.501   2.100   6.895  0.6460  4.0196 -1.1899
 4056SOL     OW13066   5.536   3.526   0.439 -0.1699 -0.1001  0.1695
 4056SOL    HW113067   5.622   3.517   0.489  0.6532 -0.9229 -1.3137
 4056SOL    HW213068   5.475   3.452   0.465  0.6483 -1.1291 -0.7434
 4057SOL     OW13069   5.353   6.088   5.986 -0.0671  0.5123 -0.3162
 4057SOL    HW113070   5.300   6.045   6.060 -1.1387  1.1531 -0.6821
 4057SOL    HW213071   5.293   6.147   5.933  0.7971  0.4014 -1.4448
 4058SOL     OW13072   2.989   0.256   3.186  0.2629  0.1060 -0.0714
 4058SOL    HW113073   3.020   0.315   3.111 -0.1668  0.0707 -0.2790
 4058SOL    HW213074   2.901   0.215   3.162 -0.0689  0.3986  0.6091
 4059SOL     OW13075   1.789   6.143   4.079 -0.0818  0.7652 -0.3020
 4059SOL    HW113076   1.743   6.117   4.164 -1.2576  0.2082 -1.0774
 4059SOL    HW213077   1.725   6.195   4.022 -0.3049 -1.3222 -2.0531
 4060SOL     OW13078   0.568   0.878   5.749  0.3101  0.0711 -0.7704
 4060SOL    HW113079   0.531   0.842   5.835  1.2271 -0.7712 -0.7054
 4060SOL    HW213080   0.654   0.926   5.768  1.5493 -1.7799 -1.4046
 4061SOL     OW13081   2.214   4.200   4.006 -0.4694  0.2945  0.5273
 4061SOL    HW113082   2.143   4.185   4.075  0.2710 -1.6224  0.9262
 4061SOL    HW213083   2.267   4.117   3.994  1.1773  1.4232 -0.4039
 4062SOL     OW13084   2.073   4.316   0.842 -0.4658 -0.0618  0.0801
 4062SOL    HW113085   2.033   4.224   0.842  0.1430 -0.3679 -1.5330
 4062SOL    HW213086   2.025   4.373   0.775  1.1535 -0.1703 -1.2380
 4063SOL     OW13087   4.871   2.518   1.319 -0.3785  0.7451 -0.7978
 4063SOL    HW113088   4.819   2.494   1.401 -2.2983 -0.2526 -2.2176
 4063SOL    HW213089   4.843   2.608   1.287  1.0142  1.5201  0.0997
 4064SOL     OW13090   2.344   5.503   4.383 -0.6308 -0.2175 -0.1658
 4064SOL    HW113091   2.258   5.553   4.388 -1.0170 -0.6241 -1.9598
 4064SOL    HW213092   2.367   5.486   4.287  1.6590  0.2284  0.2365
 4065SOL     OW13093   2.592   0.283   1.613  0.6811 -0.5073 -0.5146
 4065SOL    HW113094   2.691   0.297   1.608  0.7118 -0.7500 -0.5775
 4065SOL    HW213095   2.559   0.312   1.702  0.8557 -0.7144 -0.3814
 4066SOL     OW13096   2.167   4.116   4.903 -0.0908  0.2721  0.6526
 4066SOL    HW113097   2.069   4.109   4.922 -0.1153 -2.0807  0.0090
 4066SOL    HW213098   2.217   4.055   4.966  0.9272  1.0266  0.6072
 4067SOL     OW13099   5.695   4.109   0.906  0.0177  0.8299 -0.0042
 4067SOL    HW113100   5.792   4.091   0.922  0.0349  0.1581 -0.7932
 4067SOL    HW213101   5.681   4.206   0.887  0.7330  0.7326 -1.1415
 4068SOL     OW13102   4.327   0.802   0.060  0.3661  0.0562  0.2437
 4068SOL    HW113103   4.348   0.892   0.099  0.8422  0.0367  0.0292
 4068SOL    HW213104   4.332   0.807  -0.040 -3.2563  0.7522 -0.0453
 4069SOL     OW13105   2.601   0.620   6.240  0.0734  0.3899 -0.1733
 4069SOL    HW113106   2.639   0.529   6.222  0.2374  0.3153  0.5014
 4069SOL    HW213107   2.504   0.611   6.264  0.0076  0.4267 -0.4250
 4070SOL     OW13108   0.695   4.698   5.691 -0.0417 -0.4270 -0.4457
 4070SOL    HW113109   0.698   4.753   5.775  2.5743  2.9528 -2.5033
 4070SOL    HW213110   0.620   4.731   5.633 -0.0237 -0.7588 -0.6577
 4071SOL     OW13111   2.061   0.045   4.253  0.3613  0.2593 -0.0759
 4071SOL    HW113112   2.049  -0.052   4.274 -0.1993  0.2052 -0.5939
 4071SOL    HW213113   2.024   0.100   4.327  3.2181  0.1283  1.6137
 4072SOL     OW13114   2.836   5.260   2.330 -0.1953 -0.0741 -0.3808
 4072SOL    HW113115   2.737   5.266   2.335 -0.1830  0.5700 -0.7873
 4072SOL    HW213116   2.865   5.165   2.344 -0.8521 -0.2315 -0.0853
 4073SOL     OW13117   6.373   5.614   6.645 -0.2203  0.7682  0.5034
 4073SOL    HW113118   6.398   5.584   6.553 -0.3978 -0.9464  0.9895
 4073SOL    HW213119   6.303   5.685   6.638 -0.5877  0.3238 -0.6702
 4074SOL     OW13120   1.130   6.603   3.690  0.5254  0.1032  0.0722
 4074SOL    HW113121   1.079   6.689   3.683  0.4636 -0.0763 -2.5658
 4074SOL    HW213122   1.073   6.528   3.658  1.8486 -0.3235 -1.4170
 4075SOL     OW13123   5.706   1.453   6.408  0.4358  0.8928  0.1009
 4075SOL    HW113124   5.762   1.424   6.485  0.3814  3.5164  1.2385
 4075SOL    HW213125   5.764   1.478   6.331  0.5369 -0.8246 -0.4103
 4076SOL     OW13126   1.658   4.228   4.242 -0.1532 -0.3646  0.2136
 4076SOL    HW113127   1.606   4.246   4.159 -0.8733 -1.7405  0.3346
 4076SOL    HW213128   1.683   4.131   4.245  1.7629  0.1058  0.5513
 4077SOL     OW13129   3.276   2.521   1.599 -0.5271 -0.5456 -0.7704
 4077SOL    HW113130   3.224   2.444   1.637 -1.7241 -0.4109 -2.0430
 4077SOL    HW213131   3.373   2.509   1.619 -0.7934 -1.9381 -0.1948
 4078SOL     OW13132   4.811   5.533   3.493 -0.2976  0.3083 -0.5687
 4078SOL    HW113133   4.778   5.626   3.476  0.0559  1.0339  2.2160
 4078SOL    HW213134   4.738   5.478   3.533  0.7036  0.8884  2.3056
 4079SOL     OW13135   0.438   3.143   4.436 -0.2530  0.0464 -0.1688
 4079SOL    HW113136   0.493   3.060   4.423 -0.7006 -0.1939 -0.5864
 4079SOL    HW213137   0.422   3.158   4.533  0.0382 -0.2275 -0.0796
 4080SOL     OW13138   6.614   0.859   3.369 -0.0315 -0.1188  0.4895
 4080SOL    HW113139   6.677   0.784   3.348 -0.0227  0.0546 -0.1526
 4080SOL    HW213140   6.570   0.842   3.457 -1.0950 -1.6248 -0.2710
 4081SOL     OW13141   5.751   5.442   2.719 -0.2016 -0.1999  0.1459
 4081SOL    HW113142   5.775   5.346   2.739 -1.5127 -0.3003  1.3531
 4081SOL    HW213143   5.752   5.456   2.620 -0.7779 -1.6843 -0.0974
 4082SOL     OW13144   4.491   4.580   3.156  0.0045 -0.3701  0.4788
 4082SOL    HW113145   4.407   4.613   3.112 -0.6987  0.4415  2.3042
 4082SOL    HW213146   4.551   4.539   3.087 -1.1659  0.5002 -1.1471
 4083SOL     OW13147   6.562   2.144   6.314  0.5344 -0.1120  0.0455
 4083SOL    HW113148   6.638   2.205   6.292 -0.2585  0.9496  0.1325
 4083SOL    HW213149   6.552   2.137   6.413  0.8833 -0.7229  0.0383
 4084SOL     OW13150   4.669   1.695   6.286  0.0019 -0.1716  0.1420
 4084SOL    HW113151   4.588   1.664   6.335  0.7714  0.7149  2.0708
 4084SOL    HW213152   4.751   1.667   6.336  0.9229 -0.9788 -1.7229
 4085SOL     OW13153   0.206   4.476   6.818 -0.3208  0.1241 -0.0593
 4085SOL    HW113154   0.235   4.564   6.856 -1.0974  0.1811  0.4269
 4085SOL    HW213155   0.108   4.463   6.834 -0.4642 -0.3076 -1.1678
 4086SOL     OW13156   0.387   2.634   2.624  0.2018 -0.2523  0.6534
 4086SOL    HW113157   0.378   2.690   2.706  2.2018 -0.2325  0.8924
 4086SOL    HW213158   0.475   2.652   2.581 -0.6747 -0.4922 -1.3517
 4087SOL     OW13159   1.240   1.243   4.653  0.2436 -0.1487 -0.0996
 4087SOL    HW113160   1.303   1.192   4.595 -0.1356  0.4622 -1.0734
 4087SOL    HW213161   1.261   1.341   4.648 -0.6679  0.0492 -0.3301
 4088SOL     OW13162   6.177   2.272   4.160 -0.4440 -0.7464  0.6011
 4088SOL    HW113163   6.108   2.344   4.155  0.8039  0.4319 -0.1682
 4088SOL    HW213164   6.184   2.227   4.071  2.3779  1.7079 -0.5782
 4089SOL     OW13165   6.909   1.843   5.613  0.4644 -0.2614  0.0894
 4089SOL    HW113166   6.892   1.781   5.689  0.1908 -0.7094 -0.3297
 4089SOL    HW213167   6.849   1.820   5.537 -0.0723  0.9136  0.1379
 4090SOL     OW13168   3.363   5.185   1.122  0.2814 -0.6437  0.0735
 4090SOL    HW113169   3.378   5.170   1.024  0.4864 -1.2258  0.1869
 4090SOL    HW213170   3.409   5.269   1.150 -0.0318 -0.3183 -0.3917
 4091SOL     OW13171   5.509   4.327   2.290 -0.0783  0.3993 -0.0174
 4091SOL    HW113172   5.567   4.345   2.211  0.9246  2.5772  1.1278
 4091SOL    HW213173   5.415   4.358   2.271 -0.4114 -1.1859 -1.1166
 4092SOL     OW13174   2.399   1.496   4.098  0.4682 -0.4268 -0.1804
 4092SOL    HW113175   2.468   1.534   4.159  1.5517  0.4256 -1.8557
 4092SOL    HW213176   2.342   1.570   4.063  0.3488 -0.7910 -0.7670
 4093SOL     OW13177   6.303   5.448   1.522 -0.4988  0.0897  0.5646
 4093SOL    HW113178   6.260   5.537   1.509 -1.2398 -0.4459 -0.7649
 4093SOL    HW213179   6.387   5.442   1.468  0.0956  0.3130  1.4242
 4094SOL     OW13180   4.180   2.902   0.454 -0.2548  0.6745  0.6660
 4094SOL    HW113181   4.150   2.813   0.420  0.8783  0.5919 -0.1805
 4094SOL    HW213182   4.192   2.965   0.377 -0.4793  1.3813  1.2026
 4095SOL     OW13183   2.386   4.768   4.459  0.1937 -0.1776  0.0225
 4095SOL    HW113184   2.413   4.841   4.521  0.3009 -0.8362  0.7728
 4095SOL    HW213185   2.361   4.687   4.512 -0.4881 -0.5028 -0.7703
 4096SOL     OW13186   5.358   5.471   0.924 -0.2093  0.0246  0.0708
 4096SOL    HW113187   5.427   5.404   0.900  0.2463  0.8309 -0.8924
 4096SOL    HW213188   5.274   5.454   0.872  0.3844  1.0534 -1.2591
 4097SOL     OW13189   3.693   3.260   2.666 -0.2245 -0.1566  0.2486
 4097SOL    HW113190   3.633   3.263   2.746 -0.8820 -1.3449 -0.1755
 4097SOL    HW213191   3.650   3.205   2.595  1.0057 -0.3101 -0.3896
 4098SOL     OW13192   0.106   2.615   2.645  0.1178  0.0059 -0.4560
 4098SOL    HW113193   0.114   2.531   2.592 -0.5174 -0.4234  0.1199
 4098SOL    HW213194   0.198   2.650   2.665  0.3665 -0.1262 -1.3574
 4099SOL     OW13195   2.351   6.279   1.347  0.2188  0.0382  0.1760
 4099SOL    HW113196   2.320   6.313   1.259  0.1310 -1.9306 -0.6073
 4099SOL    HW213197   2.333   6.347   1.418 -1.7378  0.7760 -0.9604
 4100SOL     OW13198   4.174   1.493   2.977 -0.2211 -0.7989  0.1268
 4100SOL    HW113199   4.150   1.396   2.984  0.8801 -1.1747 -0.9829
 4100SOL    HW213200   4.265   1.507   3.017 -0.5867 -0.1175  0.7362
 4101SOL     OW13201   3.726   6.540   0.107 -0.1693 -0.3697  0.1231
 4101SOL    HW113202   3.697   6.633   0.130 -1.0097 -0.5640 -0.1212
 4101SOL    HW213203   3.803   6.544   0.045 -0.0950  0.1652  0.2435
 4102SOL     OW13204   6.841   1.664   5.802 -0.1104 -0.1608 -0.2063
 4102SOL    HW113205   6.829   1.572   5.765 -1.0922  0.4004 -1.3360
 4102SOL    HW213206   6.756   1.695   5.845 -0.0327  0.5025 -0.5085
 4103SOL     OW13207   6.504   1.319   1.197 -0.8021 -0.0251  0.7061
 4103SOL    HW113208   6.556   1.405   1.197 -2.2444  0.9172  2.4780
 4103SOL    HW213209   6.442   1.318   1.118 -0.4602  0.3439  0.4271
 4104SOL     OW13210   0.501   2.569   3.654  0.0694  0.0283  0.1590
 4104SOL    HW113211   0.448   2.653   3.671 -1.6152 -0.8378 -0.5574
 4104SOL    HW213212   0.580   2.591   3.596 -0.7922  1.0214 -0.6921
 4105SOL     OW13213   5.899   5.980   0.958 -0.1539  0.3429 -0.6357
 4105SOL    HW113214   5.846   5.977   0.873  0.4347 -0.7603 -0.9894
 4105SOL    HW213215   5.944   5.892   0.971 -1.4041 -0.0518  1.5706
 4106SOL     OW13216   0.130   3.319   3.911  0.5293  0.4105  0.1304
 4106SOL    HW113217   0.068   3.336   3.835 -0.4097 -0.8136  0.5980
 4106SOL    HW213218   0.224   3.339   3.882  0.3625 -1.2320 -1.7979
 4107SOL     OW13219   6.353   1.073   0.165 -0.0733 -0.2600 -0.2894
 4107SOL    HW113220   6.387   1.110   0.251 -0.2289 -0.6473 -0.0572
 4107SOL    HW213221   6.346   0.973   0.172 -3.4665 -0.1000  0.5403
 4108SOL     OW13222   4.760   1.652   3.252 -0.1789 -0.3799  0.1374
 4108SOL    HW113223   4.801   1.646   3.343  2.6059  1.3374 -0.8887
 4108SOL    HW213224   4.828   1.630   3.182 -2.1865 -1.4819 -1.6019
 4109SOL     OW13225   2.233   0.370   2.831 -0.5606  0.2033  0.3556
 4109SOL    HW113226   2.146   0.369   2.881 -0.7738  0.3236 -0.0041
 4109SOL    HW213227   2.306   0.402   2.891 -1.1410  2.2013  0.0890
 4110SOL     OW13228   5.041   3.569   5.100  0.2434  0.2770 -0.3098
 4110SOL    HW113229   5.076   3.534   5.187  1.7397  1.7217 -0.2965
 4110SOL    HW213230   4.941   3.566   5.101  0.2587 -1.8044  0.5591
 4111SOL     OW13231   2.909   4.353   6.067 -0.1120  0.5792  0.3392
 4111SOL    HW113232   2.898   4.297   5.986  1.6096  0.4389  0.1503
 4111SOL    HW213233   2.917   4.449   6.041  2.2451  0.3865  0.0818
 4112SOL     OW13234   4.336   1.240   6.462  0.7359 -0.1808 -0.5520
 4112SOL    HW113235   4.399   1.177   6.507  1.0345  0.3068 -0.2795
 4112SOL    HW213236   4.303   1.308   6.528  1.3151  0.6537 -1.0965
 4113SOL     OW13237   4.704   6.528   5.679  0.0343 -0.3010  0.0799
 4113SOL    HW113238   4.754   6.614   5.668  1.5087 -0.9697  1.1189
 4113SOL    HW213239   4.618   6.545   5.726  1.2850  0.3814  2.2554
 4114SOL     OW13240   3.466   0.958   3.010  0.2033 -0.2436 -0.0795
 4114SOL    HW113241   3.378   0.924   3.043 -0.1216  0.1013 -0.5760
 4114SOL    HW213242   3.451   1.014   2.929  1.0264 -1.5315 -1.1589
 4115SOL     OW13243   4.839   4.082   3.206  0.1940 -0.4041  0.0014
 4115SOL    HW113244   4.763   4.146   3.220  0.9200  0.1477  1.6516
 4115SOL    HW213245   4.804   3.996   3.169 -0.9981  0.4085 -0.8275
 4116SOL     OW13246   3.142   0.224   2.504 -0.2855 -0.4163 -0.3057
 4116SOL    HW113247   3.192   0.212   2.419  0.4293  0.0408  0.0429
 4116SOL    HW213248   3.093   0.311   2.502  0.5138  0.0497  0.1329
 4117SOL     OW13249   1.733   5.803   4.103 -0.5615  0.3835 -0.3351
 4117SOL    HW113250   1.712   5.752   4.019 -0.1957 -0.2169 -0.0677
 4117SOL    HW213251   1.647   5.837   4.143 -0.8994 -0.6886 -0.1076
 4118SOL     OW13252   0.809   0.461   3.679 -0.1241  0.4948 -0.5048
 4118SOL    HW113253   0.837   0.402   3.754 -1.2059 -0.2159 -0.6361
 4118SOL    HW213254   0.826   0.557   3.703  0.8882  0.1979  0.0364
 4119SOL     OW13255   5.764   0.263   2.326 -0.1717 -0.4461 -0.3037
 4119SOL    HW113256   5.676   0.244   2.283 -0.8381  1.1512  0.2658
 4119SOL    HW213257   5.779   0.199   2.402 -1.2211 -0.2187  0.1062
 4120SOL     OW13258   0.243   2.437   2.500  1.1410  0.1455  0.5227
 4120SOL    HW113259   0.298   2.356   2.478  1.4322  0.3041  0.6639
 4120SOL    HW213260   0.303   2.509   2.535  0.8752  0.4051  0.4441
 4121SOL     OW13261   5.592   3.148   3.971 -0.0772 -0.5338  0.1288
 4121SOL    HW113262   5.605   3.056   3.935  0.2253 -0.0660 -0.9913
 4121SOL    HW213263   5.602   3.215   3.897  1.0892  0.4970  1.1665
 4122SOL     OW13264   3.978   5.568   0.088  0.0228  0.5054  0.1874
 4122SOL    HW113265   3.907   5.552   0.019 -0.4076  1.0268  0.4979
 4122SOL    HW213266   4.066   5.537   0.053 -0.5295 -1.2134  0.2240
 4123SOL     OW13267   3.741   4.932   5.158 -0.2338 -0.2853 -0.3579
 4123SOL    HW113268   3.691   4.902   5.239  0.2206  0.9199  0.3945
 4123SOL    HW213269   3.701   5.016   5.123 -0.2114 -0.6090 -1.1893
 4124SOL     OW13270   5.147   4.647   2.571  0.6480  0.1396 -0.2028
 4124SOL    HW113271   5.178   4.595   2.651  0.5931  0.2329 -0.1202
 4124SOL    HW213272   5.125   4.584   2.496 -0.0831 -0.0096  0.1224
 4125SOL     OW13273   4.664   6.762   1.043 -0.3532  0.3479 -0.0701
 4125SOL    HW113274   4.565   6.757   1.051 -0.4020  0.2348 -0.6878
 4125SOL    HW213275   4.690   6.838   0.985 -0.1064 -0.0123 -0.4375
 4126SOL     OW13276   1.479   2.498   3.533 -0.0475 -0.1473 -0.0274
 4126SOL    HW113277   1.480   2.518   3.436 -0.1930 -0.6550 -0.1366
 4126SOL    HW213278   1.431   2.411   3.549  0.4981 -0.3735  0.4334
 4127SOL     OW13279   5.458   5.148   3.829  0.0418  0.2215  0.4811
 4127SOL    HW113280   5.533   5.175   3.769 -2.0342 -0.3524 -2.6187
 4127SOL    HW213281   5.494   5.124   3.919  3.8709 -2.0576 -1.4215
 4128SOL     OW13282   0.460   4.342   3.243 -0.0472 -0.1608 -0.6520
 4128SOL    HW113283   0.438   4.248   3.268  0.6192 -0.2862 -0.5279
 4128SOL    HW213284   0.495   4.344   3.149 -0.6814  0.0546 -0.8924
 4129SOL     OW13285   1.687   2.737   5.510 -0.2119  0.3472 -0.7297
 4129SOL    HW113286   1.629   2.656   5.507  0.2631  0.0173 -1.2603
 4129SOL    HW213287   1.782   2.711   5.492  0.3185  0.7030  1.3618
 4130SOL     OW13288   5.981   1.710   6.217 -0.2480  0.0624  0.4782
 4130SOL    HW113289   6.002   1.665   6.303  0.4636  1.3579  1.0029
 4130SOL    HW213290   6.065   1.727   6.166 -0.5941 -0.0506 -0.1449
 4131SOL     OW13291   1.242   4.103   4.729 -0.0374  0.0561  0.4783
 4131SOL    HW113292   1.321   4.043   4.738  0.6714  0.7735 -0.6459
 4131SOL    HW213293   1.261   4.173   4.660 -0.7444  1.7198  1.8854
 4132SOL     OW13294   6.450   1.164   2.239 -0.4076  0.4500 -0.1711
 4132SOL    HW113295   6.355   1.176   2.208 -1.4492 -1.1214  2.1032
 4132SOL    HW213296   6.451   1.109   2.323  2.3558  2.3723  1.2421
 4133SOL     OW13297   2.038   4.314   0.341 -0.3336 -0.4842  0.2342
 4133SOL    HW113298   1.964   4.327   0.407 -0.2042  2.3881 -0.0527
 4133SOL    HW213299   2.073   4.403   0.312  2.3764 -1.7073 -0.6503
 4134SOL     OW13300   2.006   2.333   5.542  0.9662  0.1573 -0.5419
 4134SOL    HW113301   1.925   2.293   5.587  0.9778 -0.7208 -1.2901
 4134SOL    HW213302   2.087   2.281   5.568  0.8363 -1.0263 -2.3780
 4135SOL     OW13303   1.162   0.516   0.481  0.3334  0.1990  0.0250
 4135SOL    HW113304   1.185   0.431   0.433 -0.2970 -1.0917  1.8893
 4135SOL    HW213305   1.067   0.512   0.513  0.4188  1.4306  0.4950
 4136SOL     OW13306   1.585   1.396   3.389 -0.0279 -0.5956  0.0787
 4136SOL    HW113307   1.535   1.330   3.334  1.3133  1.3445 -3.8068
 4136SOL    HW213308   1.635   1.348   3.461  0.0742 -3.7078 -1.8953
 4137SOL     OW13309   3.595   3.366   5.068 -0.4171  0.0295  0.0669
 4137SOL    HW113310   3.576   3.459   5.097 -0.9224 -0.4773  1.4662
 4137SOL    HW213311   3.582   3.358   4.969 -1.5862  1.1556  0.1071
 4138SOL     OW13312   5.758   5.900   0.737  0.4602  0.1287  0.4661
 4138SOL    HW113313   5.663   5.876   0.756  0.1917  2.2790  2.4008
 4138SOL    HW213314   5.765   5.939   0.645 -0.8873  1.3468  0.8338
 4139SOL     OW13315   3.510   0.844   1.977 -0.4524 -0.1994  0.1759
 4139SOL    HW113316   3.503   0.905   2.056 -0.7009  0.6408 -0.4883
 4139SOL    HW213317   3.551   0.757   2.006 -0.5147  0.1036  1.2203
 4140SOL     OW13318   6.061   3.216   2.653 -0.0661  0.0237  0.1486
 4140SOL    HW113319   6.015   3.136   2.614  1.4631 -1.9198  2.0955
 4140SOL    HW213320   6.001   3.261   2.719 -0.5342 -0.1495 -0.1548
 4141SOL     OW13321   4.723   6.896   0.788 -0.2956  0.4061 -0.1495
 4141SOL    HW113322   4.724   6.800   0.759  0.4799  0.5557 -0.6637
 4141SOL    HW213323   4.705   6.954   0.709  0.1562  0.7273 -0.0242
 4142SOL     OW13324   6.124   1.648   0.790 -0.0643  0.5206  0.1083
 4142SOL    HW113325   6.129   1.570   0.728  0.4862 -0.3708  1.2411
 4142SOL    HW213326   6.217   1.677   0.815 -0.2681  1.4673 -0.2185
 4143SOL     OW13327   1.367   3.273   3.031  0.1851 -0.1184 -0.3553
 4143SOL    HW113328   1.400   3.267   2.936  0.4283  1.3621 -0.3868
 4143SOL    HW213329   1.336   3.366   3.049 -4.5583 -1.4215 -0.4856
 4144SOL     OW13330   5.082   6.524   3.538 -0.2649 -0.5343  0.3867
 4144SOL    HW113331   5.117   6.575   3.617 -1.2601 -0.2808  0.6777
 4144SOL    HW213332   5.016   6.580   3.489  2.7173  0.6804 -2.6577
 4145SOL     OW13333   2.780   0.745   4.509  0.1321 -0.0511  0.5136
 4145SOL    HW113334   2.879   0.758   4.512 -0.1167  2.1005  1.9534
 4145SOL    HW213335   2.736   0.835   4.504 -1.8041 -0.8447  2.2872
 4146SOL     OW13336   4.776   5.093   1.672 -0.4473  0.0308 -0.2337
 4146SOL    HW113337   4.814   5.169   1.724 -1.3527  0.5282 -0.2927
 4146SOL    HW213338   4.793   5.007   1.722  0.5461  0.2600 -0.1562
 4147SOL     OW13339   2.886   6.703   5.567  0.0033 -0.0257  0.7304
 4147SOL    HW113340   2.956   6.774   5.575  0.8665 -0.9553  1.8471
 4147SOL    HW213341   2.817   6.717   5.638 -1.3212  1.2348 -0.7353
 4148SOL     OW13342   1.163   1.084   4.281 -0.2783 -0.0101  0.0328
 4148SOL    HW113343   1.169   1.108   4.185 -0.3252 -0.4675 -0.0855
 4148SOL    HW213344   1.123   0.993   4.291 -1.0707  0.3775  0.5209
 4149SOL     OW13345   4.633   4.285   3.197  0.2206  0.1352  0.5703
 4149SOL    HW113346   4.543   4.324   3.214 -1.0601 -2.0182 -0.8615
 4149SOL    HW213347   4.678   4.334   3.122 -0.1599  0.6263  0.6633
 4150SOL     OW13348   3.740   1.351   3.838 -0.5459 -0.0343  0.0003
 4150SOL    HW113349   3.768   1.423   3.901 -1.9700  0.7488 -0.2146
 4150SOL    HW213350   3.652   1.314   3.867 -0.4324 -0.8032 -0.6115
 4151SOL     OW13351   5.615   5.133   0.647 -0.6931 -0.2207 -0.1171
 4151SOL    HW113352   5.674   5.201   0.604  1.5062 -1.5029  0.7113
 4151SOL    HW213353   5.592   5.062   0.580 -1.1054  0.1621 -0.3823
 4152SOL     OW13354   3.677   5.521   6.464 -0.4633  0.2470  0.1176
 4152SOL    HW113355   3.771   5.552   6.474  0.1234 -1.4706  0.2641
 4152SOL    HW213356   3.628   5.535   6.550 -0.5233  1.6147 -0.1115
 4153SOL     OW13357   0.083   5.262   5.944  0.1121  0.1730  0.1287
 4153SOL    HW113358   0.144   5.340   5.962  0.5159  0.0452 -0.6630
 4153SOL    HW213359   0.011   5.260   6.014  0.9608  0.3737  1.0282
 4154SOL     OW13360   4.379   2.165   4.435 -0.1293  0.5240  0.3177
 4154SOL    HW113361   4.326   2.234   4.484 -0.5132 -0.3297  1.1297
 4154SOL    HW213362   4.476   2.179   4.453 -0.1464  1.2727 -0.0973
 4155SOL     OW13363   1.541   3.511   1.756 -0.3064  0.7900  1.0959
 4155SOL    HW113364   1.501   3.427   1.792 -0.8726  0.8663  0.6676
 4155SOL    HW213365   1.606   3.548   1.822 -0.8362  0.5771  1.7517
 4156SOL     OW13366   6.768   0.541   3.948  0.1053  0.4760 -0.1472
 4156SOL    HW113367   6.783   0.559   3.851  0.4219  1.1144  0.0183
 4156SOL    HW213368   6.822   0.604   4.003 -0.7368  0.6947  0.4491
 4157SOL     OW13369   4.673   0.260   2.853  0.2509 -0.2826 -0.3511
 4157SOL    HW113370   4.675   0.185   2.920 -1.4024 -0.4153 -0.4179
 4157SOL    HW213371   4.629   0.340   2.894  0.8598  0.2335 -0.7009
 4158SOL     OW13372   0.322   1.583   1.785 -0.1663  0.1377 -0.4283
 4158SOL    HW113373   0.291   1.610   1.694 -0.1712  1.1398 -0.1317
 4158SOL    HW213374   0.419   1.604   1.796 -0.3491  0.7356  0.0664
 4159SOL     OW13375   1.943   4.905   4.572  0.5871 -0.3880  0.2445
 4159SOL    HW113376   2.010   4.926   4.500  0.2873  0.0263  0.0810
 4159SOL    HW213377   1.880   4.982   4.581  0.0246 -0.8509  0.2800
 4160SOL     OW13378   0.959   1.597   3.076  0.2105 -0.5278  0.0452
 4160SOL    HW113379   0.948   1.498   3.071  2.5314 -0.8375  0.0767
 4160SOL    HW213380   1.055   1.620   3.085 -0.2782  1.7545  0.1806
 4161SOL     OW13381   0.500   0.665   3.502 -0.1945  0.8271  0.2921
 4161SOL    HW113382   0.400   0.660   3.507 -0.2208  1.4231  0.3999
 4161SOL    HW213383   0.539   0.578   3.535 -0.6684  0.6780  0.4751
 4162SOL     OW13384   1.439   0.986   6.245  0.0536 -0.1011 -0.2403
 4162SOL    HW113385   1.476   0.976   6.153  0.2659  0.8775 -0.2747
 4162SOL    HW213386   1.379   0.909   6.265  0.6087 -0.7234 -0.9023
 4163SOL     OW13387   0.862   2.945   5.227 -0.5401  0.1430 -0.2897
 4163SOL    HW113388   0.787   2.966   5.164 -1.4398  0.8892  0.9939
 4163SOL    HW213389   0.920   3.026   5.238  0.7015 -0.5306 -1.5474
 4164SOL     OW13390   1.506   6.038   6.789 -0.4551  0.8053 -0.3962
 4164SOL    HW113391   1.573   6.088   6.733 -0.6144 -0.8724 -2.1895
 4164SOL    HW213392   1.554   5.971   6.846 -0.3576  2.0189  1.0020
 4165SOL     OW13393   0.126   6.173   1.814 -0.1367 -0.3011 -1.0248
 4165SOL    HW113394   0.175   6.195   1.730 -0.9841 -2.0082 -2.0156
 4165SOL    HW213395   0.033   6.210   1.809 -0.8969 -2.1918 -1.8258
 4166SOL     OW13396   6.498   2.867   1.480 -0.1592  0.2482  0.3285
 4166SOL    HW113397   6.431   2.939   1.467  0.6335  1.0401  0.5580
 4166SOL    HW213398   6.583   2.906   1.515  0.5368 -0.6934 -0.2723
 4167SOL     OW13399   1.667   5.124   1.155 -0.2048  0.0815 -0.0790
 4167SOL    HW113400   1.695   5.134   1.251  0.4188 -0.4921 -0.1927
 4167SOL    HW213401   1.617   5.038   1.145 -1.2573  0.6786 -0.0533
 4168SOL     OW13402   1.466   6.699   6.933 -0.3148 -0.0127  0.2998
 4168SOL    HW113403   1.425   6.613   6.902 -2.7560  0.7682  1.1534
 4168SOL    HW213404   1.406   6.742   7.001  1.3309  1.8936  0.6297
 4169SOL     OW13405   5.777   1.488   6.991  0.3771 -0.2164  0.1542
 4169SOL    HW113406   5.711   1.487   7.066  0.2362 -1.2452  0.0184
 4169SOL    HW213407   5.728   1.489   6.904  0.5481 -0.4455  0.0573
 4170SOL     OW13408   2.426   0.057   4.436  0.0108 -0.0150  0.2738
 4170SOL    HW113409   2.525   0.043   4.436  0.4274  2.3806 -0.0945
 4170SOL    HW213410   2.380  -0.029   4.455  2.1154 -1.4743 -0.7782
 4171SOL     OW13411   6.928   0.789   1.432  0.1529 -0.9842  0.1163
 4171SOL    HW113412   6.947   0.888   1.431 -0.2808 -0.8891 -1.2635
 4171SOL    HW213413   6.928   0.756   1.526 -0.8926  0.5830  0.7170
 4172SOL     OW13414   4.373   6.940   2.313  0.0696 -0.0849  0.2853
 4172SOL    HW113415   4.279   6.911   2.294  0.2017  0.2631 -0.9642
 4172SOL    HW213416   4.391   6.931   2.411 -1.0985 -0.6370  0.4698
 4173SOL     OW13417   3.745   3.665   6.287  0.3773  0.0995 -0.1831
 4173SOL    HW113418   3.767   3.749   6.236  1.1438 -0.5749 -0.9988
 4173SOL    HW213419   3.799   3.661   6.370  0.1671  0.5257 -0.0230
 4174SOL     OW13420   3.585   2.054   3.548  0.1825 -0.4055 -0.0897
 4174SOL    HW113421   3.547   2.079   3.638  0.7130  1.4198 -0.3252
 4174SOL    HW213422   3.619   1.960   3.551  0.2838 -0.3463  1.6575
 4175SOL     OW13423   3.109   0.580   1.805 -0.2426 -0.8547  0.3858
 4175SOL    HW113424   3.173   0.576   1.881  0.8615 -0.0880 -0.4724
 4175SOL    HW213425   3.158   0.602   1.720 -1.6881  0.3625 -0.2010
 4176SOL     OW13426   6.885   0.699   4.108 -0.2585 -0.3494  0.3214
 4176SOL    HW113427   6.855   0.786   4.069  1.2343  0.2723  0.5071
 4176SOL    HW213428   6.938   0.716   4.191  0.9476 -1.3511 -0.2051
 4177SOL     OW13429   6.068   6.220   5.124 -0.1281  0.4590  0.1654
 4177SOL    HW113430   6.156   6.193   5.163  0.1727  1.8707  0.5381
 4177SOL    HW213431   6.070   6.205   5.025  0.7589  1.0299  0.0837
 4178SOL     OW13432   4.826   3.781   6.295  0.1142  0.2414 -0.3475
 4178SOL    HW113433   4.814   3.693   6.248  0.3554  0.7216 -1.3191
 4178SOL    HW213434   4.876   3.844   6.236 -1.0893  1.4322 -0.1353
 4179SOL     OW13435   6.298   7.000   6.040 -0.2159  0.6111  0.0187
 4179SOL    HW113436   6.267   7.091   6.068  1.3272  0.4417  2.5407
 4179SOL    HW213437   6.220   6.938   6.036 -0.8755  1.3055  1.4664
 4180SOL     OW13438   5.398   2.202   0.349  0.3415 -0.1307  0.5058
 4180SOL    HW113439   5.329   2.155   0.404 -1.3544  1.5706 -0.0548
 4180SOL    HW213440   5.488   2.194   0.393 -0.7553  0.2719  2.9602
 4181SOL     OW13441   5.415   1.285   6.045 -0.5660 -0.3043 -0.0060
 4181SOL    HW113442   5.395   1.311   5.951 -0.4420  0.2399  0.1133
 4181SOL    HW213443   5.368   1.347   6.108 -2.0986 -1.7312  0.3260
 4182SOL     OW13444   0.273   0.228   3.285  0.3075 -0.6499 -0.4575
 4182SOL    HW113445   0.258   0.136   3.249 -0.9060 -0.9673  0.8140
 4182SOL    HW213446   0.278   0.225   3.385 -0.0158  0.6998 -0.3804
 4183SOL     OW13447   1.441   0.474   1.086  0.8363  0.2085 -0.6383
 4183SOL    HW113448   1.395   0.432   1.007  0.9117  1.3040 -1.2841
 4183SOL    HW213449   1.523   0.421   1.109  0.8772 -0.0556 -1.3742
 4184SOL     OW13450   4.871   1.500   4.784  1.0116  0.1557  0.0778
 4184SOL    HW113451   4.786   1.500   4.837  0.5074 -0.3426 -0.7120
 4184SOL    HW213452   4.870   1.577   4.720  1.1570  0.1497  0.0685
 4185SOL     OW13453   0.386   6.802   4.662  0.4063 -0.2543  0.0631
 4185SOL    HW113454   0.473   6.758   4.640  0.9348  1.0340 -0.4932
 4185SOL    HW213455   0.389   6.898   4.636 -0.7545  0.1177  1.1794
 4186SOL     OW13456   3.247   4.536   0.711 -0.2658 -0.5169 -0.1098
 4186SOL    HW113457   3.179   4.481   0.663  0.7537 -0.7004 -1.4051
 4186SOL    HW213458   3.201   4.607   0.764 -1.5219 -1.5640  0.2458
 4187SOL     OW13459   5.232   5.926   4.585 -0.3471  0.3586 -0.1394
 4187SOL    HW113460   5.176   5.901   4.663 -0.3478  0.2809 -0.1653
 4187SOL    HW213461   5.271   6.017   4.600  2.3370 -0.9261  1.4511
 4188SOL     OW13462   5.794   6.206   2.547 -0.2129 -0.2237 -0.1263
 4188SOL    HW113463   5.727   6.227   2.617 -0.6247 -0.3095 -0.4941
 4188SOL    HW213464   5.819   6.110   2.551  1.4859  0.2332  1.3956
 4189SOL     OW13465   0.716   1.282   3.003 -0.1970 -0.5647 -0.2515
 4189SOL    HW113466   0.710   1.355   2.935  0.9233  1.4779  1.6887
 4189SOL    HW213467   0.808   1.279   3.041 -0.4010 -2.5965  0.2056
 4190SOL     OW13468   3.388   6.014   2.567 -0.7454  0.4915  0.5472
 4190SOL    HW113469   3.358   5.966   2.649 -1.3267  1.0921  0.6932
 4190SOL    HW213470   3.320   6.000   2.494 -0.6858  0.7118  0.4495
 4191SOL     OW13471   0.517   2.310   3.433  0.5126 -0.0431 -0.1747
 4191SOL    HW113472   0.455   2.308   3.511  0.1794  0.0547 -0.4376
 4191SOL    HW213473   0.467   2.288   3.349  0.8271  0.0473 -0.3894
 4192SOL     OW13474   6.948   6.900   5.686 -0.0757 -0.4491  0.3300
 4192SOL    HW113475   7.025   6.923   5.626  1.6545 -1.9378  1.8873
 4192SOL    HW213476   6.902   6.818   5.650 -1.3461  0.7488 -0.8994
 4193SOL     OW13477   2.561   5.141   2.975 -0.3118 -0.7183 -0.3720
 4193SOL    HW113478   2.505   5.126   2.894 -0.2011 -0.9465 -0.4089
 4193SOL    HW213479   2.657   5.151   2.947 -0.3911  0.1515 -0.3536
 4194SOL     OW13480   5.630   6.424   3.053  0.2522  0.1058 -0.1598
 4194SOL    HW113481   5.547   6.368   3.047 -0.7724  1.3955  1.3171
 4194SOL    HW213482   5.707   6.366   3.082 -0.5004 -0.7772  0.1100
 4195SOL     OW13483   3.824   1.449   2.808  0.2987  0.2426 -0.5681
 4195SOL    HW113484   3.833   1.382   2.882 -0.9874  1.2784  0.5656
 4195SOL    HW213485   3.728   1.456   2.780  0.8825 -1.0045 -3.2379
 4196SOL     OW13486   0.521   1.900   3.655 -0.2537  0.6144  0.1556
 4196SOL    HW113487   0.527   1.835   3.580 -0.5622 -0.8046  1.3254
 4196SOL    HW213488   0.452   1.970   3.634 -2.6114 -1.5220  0.3846
 4197SOL     OW13489   4.457   4.601   4.705  0.3034 -0.5005 -0.3817
 4197SOL    HW113490   4.417   4.569   4.791 -2.6469 -0.7592 -1.7368
 4197SOL    HW213491   4.455   4.527   4.637 -0.5728  0.6470 -1.6533
 4198SOL     OW13492   0.380   6.455   5.719  0.2004  0.1289  0.3556
 4198SOL    HW113493   0.410   6.548   5.699  0.3532  0.0873  0.3924
 4198SOL    HW213494   0.282   6.455   5.738 -0.8767 -0.2786 -4.0079
 4199SOL     OW13495   4.542   4.266   0.106  0.2743  0.1254 -0.1499
 4199SOL    HW113496   4.465   4.310   0.152 -0.4661  1.1086 -2.2300
 4199SOL    HW213497   4.512   4.181   0.064  0.5618  0.0336 -0.1730
 4200SOL     OW13498   1.516   6.995   4.127 -0.0166  0.2031  0.1503
 4200SOL    HW113499   1.425   6.964   4.100  0.3169 -1.4267  0.7897
 4200SOL    HW213500   1.553   7.055   4.056 -1.0825 -0.1268 -0.7088
 4201SOL     OW13501   0.414   6.186   5.614 -0.2682 -0.4626 -0.0733
 4201SOL    HW113502   0.401   6.259   5.681 -0.2464 -0.3173 -0.2277
 4201SOL    HW213503   0.363   6.105   5.644  0.8597 -0.8642  0.8302
 4202SOL     OW13504   6.057   4.507   4.786  0.2043 -0.4244  0.1315
 4202SOL    HW113505   6.009   4.478   4.869  0.2002  0.8104  0.5837
 4202SOL    HW213506   6.148   4.465   4.783  1.0349  1.1176  1.8582
 4203SOL     OW13507   2.483   4.551   4.837  0.6606  0.0030  0.2819
 4203SOL    HW113508   2.525   4.504   4.915 -0.4847  0.3385  1.1325
 4203SOL    HW213509   2.388   4.572   4.859  0.7055  1.3178 -0.6918
 4204SOL     OW13510   2.088   5.326   5.620  0.0509  0.3659  0.2442
 4204SOL    HW113511   2.152   5.309   5.545  1.2679  0.9444  1.1174
 4204SOL    HW213512   1.995   5.309   5.589  0.6605 -1.0746 -0.8996
 4205SOL     OW13513   1.533   0.192   6.540  0.0310 -0.2461 -0.0568
 4205SOL    HW113514   1.491   0.145   6.463 -0.5415 -2.8563  1.7315
 4205SOL    HW213515   1.462   0.217   6.607  0.5899  1.3814 -0.0215
 4206SOL     OW13516   6.487   5.626   0.413 -0.0658  0.6496 -0.0039
 4206SOL    HW113517   6.544   5.694   0.366 -2.3649  1.4129 -1.9088
 4206SOL    HW213518   6.495   5.538   0.366  1.5300  0.0096  1.3754
 4207SOL     OW13519   0.878   6.390   5.932 -0.1275 -0.1432  0.3386
 4207SOL    HW113520   0.882   6.466   5.867  0.9147 -0.3723  0.1170
 4207SOL    HW213521   0.877   6.426   6.025  1.8511  0.1570  0.2939
 4208SOL     OW13522   7.004   3.293   2.849 -0.0301  0.1862 -0.1630
 4208SOL    HW113523   7.075   3.258   2.910 -0.0234 -0.7135 -0.6680
 4208SOL    HW213524   6.975   3.384   2.880  0.6634  0.1596  0.5972
 4209SOL     OW13525   4.009   0.732   5.193  0.2328 -0.2268  0.4743
 4209SOL    HW113526   4.092   0.765   5.238  0.8208  0.9168 -1.3661
 4209SOL    HW213527   4.034   0.662   5.126 -0.7101 -2.4692  2.3280
 4210SOL     OW13528   5.252   2.654   0.341 -0.2706 -0.5394 -0.0095
 4210SOL    HW113529   5.197   2.645   0.424  2.2471  0.5565  1.9267
 4210SOL    HW213530   5.303   2.570   0.324 -0.9722 -0.8513 -0.6337
 4211SOL     OW13531   0.397   3.376   4.270 -0.3860 -0.2629  0.0805
 4211SOL    HW113532   0.467   3.374   4.198  0.3612  1.0152  0.7235
 4211SOL    HW213533   0.413   3.301   4.334 -1.7090 -2.0798 -1.6213
 4212SOL     OW13534   5.894   6.811   2.255 -0.6600 -0.2001 -0.1197
 4212SOL    HW113535   5.866   6.769   2.168  1.5084 -0.0110 -0.9701
 4212SOL    HW213536   5.865   6.753   2.331 -0.8335 -1.4170 -1.0792
 4213SOL     OW13537   0.909   6.943   0.834  0.7842  0.1407 -0.1847
 4213SOL    HW113538   0.833   6.995   0.873  0.0892  0.1175 -1.4442
 4213SOL    HW213539   0.888   6.845   0.840  2.1234 -0.0627  2.2520
 4214SOL     OW13540   3.093   0.880   4.794  0.6545  0.5693 -0.6860
 4214SOL    HW113541   3.069   0.810   4.727  1.2240 -1.1732  0.8572
 4214SOL    HW213542   3.127   0.837   4.877  1.2783  2.7102  0.2436
 4215SOL     OW13543   3.500   5.717   0.154 -0.0762  0.3216 -0.2450
 4215SOL    HW113544   3.469   5.723   0.249 -1.5946  2.4675 -0.7967
 4215SOL    HW213545   3.588   5.765   0.144  0.1136  0.0436  0.0798
 4216SOL     OW13546   0.865   3.257   4.027  0.0958 -0.5910  0.2414
 4216SOL    HW113547   0.866   3.199   3.946 -2.6859 -3.1947  1.8400
 4216SOL    HW213548   0.956   3.261   4.067  1.0357 -1.0997 -1.7482
 4217SOL     OW13549   0.198   4.489   4.749 -0.2131  0.0046  0.0564
 4217SOL    HW113550   0.191   4.568   4.688 -1.9797 -0.6474 -0.6539
 4217SOL    HW213551   0.139   4.416   4.716 -2.7871  0.2843  3.5048
 4218SOL     OW13552   3.809   4.919   4.333 -0.0583 -0.3827 -0.1739
 4218SOL    HW113553   3.710   4.911   4.333 -0.2966  1.5408  1.8394
 4218SOL    HW213554   3.848   4.859   4.403 -0.1724  1.4527  1.5320
 4219SOL     OW13555   6.137   0.913   2.676  0.0001 -0.3134  0.9474
 4219SOL    HW113556   6.073   0.837   2.687 -0.3332 -0.0096  1.1127
 4219SOL    HW213557   6.207   0.908   2.747  1.4991 -1.9442 -0.5419
 4220SOL     OW13558   0.422   4.825   2.979 -0.2521  0.5559 -0.1390
 4220SOL    HW113559   0.453   4.907   3.027  1.8998 -1.3175  1.9756
 4220SOL    HW213560   0.332   4.799   3.013 -0.2325  1.1396  0.3809
 4221SOL     OW13561   6.389   6.381   6.514 -0.1355 -0.9253  0.0907
 4221SOL    HW113562   6.314   6.373   6.448 -0.8893  1.1932  0.5935
 4221SOL    HW213563   6.462   6.437   6.474  0.4991 -1.6573  0.1928
 4222SOL     OW13564   1.646   3.141   6.522 -0.1725  0.2402  0.6876
 4222SOL    HW113565   1.665   3.165   6.427  0.9276 -0.2912  0.7624
 4222SOL    HW213566   1.548   3.152   6.540 -0.6349 -0.9439 -0.8818
 4223SOL     OW13567   3.176   3.707   2.864  0.0547 -0.0008  0.2211
 4223SOL    HW113568   3.167   3.686   2.766 -1.6759 -0.3171  0.4146
 4223SOL    HW213569   3.264   3.751   2.881  0.3441  0.1454 -1.4925
 4224SOL     OW13570   3.334   1.963   5.374 -0.2136  0.4304  0.0016
 4224SOL    HW113571   3.380   1.883   5.413 -0.3967 -0.2803 -1.1895
 4224SOL    HW213572   3.238   1.940   5.356 -0.5515  1.2835  0.6706
 4225SOL     OW13573   5.644   6.606   5.656 -0.0008 -0.0864 -0.0186
 4225SOL    HW113574   5.739   6.577   5.667  0.1026  0.0534 -0.5665
 4225SOL    HW213575   5.626   6.685   5.715  0.2855  0.0352 -0.0953
 4226SOL     OW13576   2.913   2.075   2.318  0.2627 -0.3497  0.1512
 4226SOL    HW113577   2.853   2.128   2.379  0.4783  0.5708 -0.4113
 4226SOL    HW213578   3.008   2.103   2.333  0.3805 -0.5897 -0.1453
 4227SOL     OW13579   4.257   3.398   0.446 -0.0360  0.0315 -0.4912
 4227SOL    HW113580   4.356   3.410   0.453  0.1401 -0.8551 -1.3006
 4227SOL    HW213581   4.212   3.469   0.499  1.0402 -0.2482  0.8562
 4228SOL     OW13582   3.287   5.762   3.129  0.1465  0.1940 -0.4515
 4228SOL    HW113583   3.361   5.710   3.172 -1.0484  0.1874  1.7429
 4228SOL    HW213584   3.293   5.857   3.157 -2.0080 -0.2382  1.8364
 4229SOL     OW13585   5.731   5.267   4.986 -0.7310 -0.0988 -0.3578
 4229SOL    HW113586   5.787   5.323   5.046 -0.4439  0.8419 -1.4636
 4229SOL    HW213587   5.661   5.220   5.040 -0.0962  0.2210  0.7752
 4230SOL     OW13588   0.387   6.625   6.842 -0.0941 -0.9349 -0.9543
 4230SOL    HW113589   0.428   6.534   6.833 -0.6416 -1.5125  1.5134
 4230SOL    HW213590   0.325   6.625   6.921 -0.0073  1.6168 -0.8146
 4231SOL     OW13591   3.917   0.582   0.203 -0.2632 -0.7914 -0.1699
 4231SOL    HW113592   3.932   0.574   0.302  1.3785 -2.6599 -0.4993
 4231SOL    HW213593   3.956   0.668   0.170 -2.3886  0.7112  1.0068
 4232SOL     OW13594   2.010   3.988   2.870 -0.2051  0.0159  0.2594
 4232SOL    HW113595   2.085   4.046   2.836 -0.0950 -0.9127 -1.1791
 4232SOL    HW213596   2.043   3.934   2.948  0.5873 -0.2476 -0.2422
 4233SOL     OW13597   3.454   5.333   0.136  0.6445  0.1835  0.2496
 4233SOL    HW113598   3.422   5.426   0.118  0.6628  0.4731  1.5975
 4233SOL    HW213599   3.376   5.274   0.155  0.7434  0.4085  1.4323
 4234SOL     OW13600   2.566   4.728   6.400 -0.0437 -0.2047 -0.4576
 4234SOL    HW113601   2.596   4.738   6.305  2.0822 -0.0863  0.1663
 4234SOL    HW213602   2.594   4.638   6.435 -1.9749 -0.7884 -0.2971
 4235SOL     OW13603   1.262   3.297   3.702 -0.4554 -0.3262  0.1079
 4235SOL    HW113604   1.297   3.256   3.785 -1.6947  0.1797  0.9114
 4235SOL    HW213605   1.200   3.373   3.725  0.5284  0.9725 -1.2980
 4236SOL     OW13606   1.336   1.498   3.666 -0.2370  0.2782  0.4765
 4236SOL    HW113607   1.350   1.596   3.652  0.4860  0.0897 -0.1508
 4236SOL    HW213608   1.295   1.459   3.583 -0.6203  0.0669  0.7650
 4237SOL     OW13609   5.410   4.801   6.072  0.5322 -0.5343  0.3139
 4237SOL    HW113610   5.503   4.829   6.092  0.4470  0.7431 -0.9075
 4237SOL    HW213611   5.348   4.878   6.084 -0.2060 -1.0629  0.0099
 4238SOL     OW13612   6.624   6.097   4.763  0.0234 -0.4535  0.0408
 4238SOL    HW113613   6.686   6.025   4.733 -0.5438 -0.9336  0.0039
 4238SOL    HW213614   6.537   6.057   4.792 -0.7490  0.2950 -1.1260
 4239SOL     OW13615   6.846   6.374   4.979  0.0330 -0.0805 -0.1332
 4239SOL    HW113616   6.932   6.402   5.021  0.2707 -0.8942 -0.0600
 4239SOL    HW213617   6.773   6.438   5.007 -0.0943 -1.2441  2.5542
 4240SOL     OW13618   2.430   4.861   5.108 -0.7716 -0.0445 -0.1295
 4240SOL    HW113619   2.364   4.827   5.041 -1.3023 -0.1102  0.4145
 4240SOL    HW213620   2.518   4.814   5.095 -0.7391  0.2514 -1.0463
 4241SOL     OW13621   3.799   1.973   0.910 -0.7268  0.2426  0.3662
 4241SOL    HW113622   3.751   2.007   0.829  0.2213  1.6682  0.3637
 4241SOL    HW213623   3.892   1.947   0.884 -0.9061 -0.7710  0.7143
 4242SOL     OW13624   1.681   0.791   0.286  0.1932 -0.8729  0.4971
 4242SOL    HW113625   1.660   0.733   0.208  3.1501 -0.6775 -0.5845
 4242SOL    HW213626   1.644   0.882   0.271  1.8977 -0.4235 -1.4691
 4243SOL     OW13627   2.689   0.873   2.143  0.2150 -0.3955 -1.2142
 4243SOL    HW113628   2.729   0.901   2.056 -2.5391  1.0145 -2.1609
 4243SOL    HW213629   2.591   0.896   2.144  0.4295  1.2220  2.8966
 4244SOL     OW13630   4.078   5.780   1.692 -0.0138  0.1369 -0.2619
 4244SOL    HW113631   4.137   5.700   1.683 -0.7507 -0.4915  0.3796
 4244SOL    HW213632   3.983   5.752   1.685 -0.2511  1.2153 -1.8760
 4245SOL     OW13633   6.412   2.075   1.204 -0.3500  0.4365 -0.0542
 4245SOL    HW113634   6.508   2.069   1.178 -0.0253  0.7527  0.9879
 4245SOL    HW213635   6.402   2.144   1.277 -1.2493 -0.1138  0.3627
 4246SOL     OW13636   5.468   1.848   4.703  0.4265  0.5937  0.1344
 4246SOL    HW113637   5.508   1.897   4.625 -1.3596  0.5772 -0.8487
 4246SOL    HW213638   5.541   1.808   4.758  1.8133  1.9739 -0.6150
 4247SOL     OW13639   3.128   3.599   0.473 -0.2375  0.4873  0.2172
 4247SOL    HW113640   3.046   3.549   0.445  0.4287 -0.2664 -0.4399
 4247SOL    HW213641   3.209   3.544   0.452  0.4376  1.2162  0.8689
 4248SOL     OW13642   3.221   5.481   1.038 -0.5353  0.4693 -0.5611
 4248SOL    HW113643   3.307   5.443   1.072 -0.7439 -0.3060 -0.8626
 4248SOL    HW213644   3.201   5.566   1.085 -0.2533 -0.0024  0.4479
 4249SOL     OW13645   4.994   0.723   5.243 -0.0228 -0.6101 -0.5644
 4249SOL    HW113646   5.029   0.665   5.317 -2.8895 -0.9051  0.6993
 4249SOL    HW213647   4.974   0.666   5.163  2.0967 -0.4478 -1.2807
 4250SOL     OW13648   1.702   5.782   5.545  0.3637 -0.4115  0.3328
 4250SOL    HW113649   1.625   5.793   5.481  0.8460 -1.3824 -0.4528
 4250SOL    HW213650   1.729   5.871   5.581 -1.0252 -0.0305  0.5042
 4251SOL     OW13651   5.027   2.066   4.161  0.4433 -0.3142 -0.6903
 4251SOL    HW113652   5.027   2.003   4.084 -0.7790 -0.8268 -0.2948
 4251SOL    HW213653   4.940   2.058   4.211  1.1945  0.0201  0.7219
 4252SOL     OW13654   0.720   0.168   6.351  0.2309 -0.3491 -0.2169
 4252SOL    HW113655   0.626   0.203   6.347 -0.1546 -1.3840 -0.5250
 4252SOL    HW213656   0.780   0.239   6.387 -0.5199  0.6360 -0.8355
 4253SOL     OW13657   3.393   5.610   2.770  0.2410 -0.3250  0.6289
 4253SOL    HW113658   3.312   5.563   2.806 -0.7601 -0.3567 -1.5144
 4253SOL    HW213659   3.447   5.545   2.717  0.5786  0.1794  0.3549
 4254SOL     OW13660   0.402   0.158   4.916  0.9310 -0.0177  0.2158
 4254SOL    HW113661   0.434   0.253   4.922  0.1517  0.4081 -1.5722
 4254SOL    HW213662   0.454   0.110   4.846  0.4256 -0.5158  0.1768
 4255SOL     OW13663   3.307   2.096   4.633 -0.8287 -0.1804 -0.0868
 4255SOL    HW113664   3.335   2.139   4.719  0.5592 -0.7290 -0.2373
 4255SOL    HW213665   3.381   2.039   4.598 -0.4413  1.8024 -2.8356
 4256SOL     OW13666   6.800   6.112   1.109 -0.1746  0.4770 -0.2536
 4256SOL    HW113667   6.718   6.165   1.132  0.6618  1.7319 -0.0997
 4256SOL    HW213668   6.881   6.170   1.115  0.6906 -0.6144 -0.8926
 4257SOL     OW13669   1.149   2.541   2.129 -0.5221  0.0796  0.0981
 4257SOL    HW113670   1.229   2.536   2.188 -0.9037 -1.0696  0.5474
 4257SOL    HW213671   1.067   2.515   2.181 -0.7490 -1.9036 -1.1169
 4258SOL     OW13672   3.171   6.469   6.802 -0.6124 -0.4254  0.5259
 4258SOL    HW113673   3.111   6.455   6.880 -1.2974 -0.5024 -0.0065
 4258SOL    HW213674   3.118   6.502   6.724 -0.0323 -0.8810 -0.0757
 4259SOL     OW13675   1.995   1.715   0.589  0.2254 -0.1124  0.6297
 4259SOL    HW113676   1.897   1.704   0.606 -0.4026  2.9898 -0.3356
 4259SOL    HW213677   2.031   1.787   0.648  1.5459 -0.0628 -0.2018
 4260SOL     OW13678   6.834   0.741   4.875 -0.2087 -0.0475 -0.4832
 4260SOL    HW113679   6.813   0.829   4.918  2.8900  0.1987  0.7930
 4260SOL    HW213680   6.921   0.748   4.824  0.9089 -2.6687  0.8575
 4261SOL     OW13681   1.963   6.056   3.041  0.1359 -0.1465  0.0538
 4261SOL    HW113682   1.879   6.070   3.093 -0.2814  3.1708 -1.2239
 4261SOL    HW213683   2.041   6.089   3.094 -0.0546  1.4185 -0.5757
 4262SOL     OW13684   2.240   3.756   5.719  0.0402  0.3193 -0.0456
 4262SOL    HW113685   2.248   3.855   5.719 -0.9381  0.4538  2.2012
 4262SOL    HW213686   2.162   3.729   5.663  2.3725  0.4526 -3.7321
 4263SOL     OW13687   2.595   0.562   0.873  0.8062 -0.5411 -0.0066
 4263SOL    HW113688   2.559   0.482   0.826 -0.2621 -0.9403  1.4232
 4263SOL    HW213689   2.522   0.607   0.923  1.3400  1.5183 -0.9997
 4264SOL     OW13690   1.706   3.056   6.235 -0.1341 -0.5602 -0.1768
 4264SOL    HW113691   1.720   3.025   6.141 -0.8608 -1.7502  0.0850
 4264SOL    HW213692   1.772   3.128   6.256 -0.6985  0.5321 -1.9454
 4265SOL     OW13693   4.768   5.035   6.631  0.1538 -0.0340 -0.2479
 4265SOL    HW113694   4.723   5.094   6.564  0.8367 -0.8084 -1.4115
 4265SOL    HW213695   4.735   4.942   6.622 -0.2232 -0.0292  0.9478
 4266SOL     OW13696   2.037   3.296   4.264 -0.4541 -0.0303  0.4235
 4266SOL    HW113697   2.064   3.371   4.325 -0.7211  1.0258 -0.7103
 4266SOL    HW213698   2.118   3.248   4.232 -0.2034  0.4721  0.3014
 4267SOL     OW13699   0.696   4.995   3.294  0.2825 -0.2820  0.2320
 4267SOL    HW113700   0.700   4.922   3.226  0.7363  0.8014 -0.9456
 4267SOL    HW213701   0.616   4.982   3.353  0.5723 -1.9188  0.2946
 4268SOL     OW13702   0.644   3.702   4.978  0.2062 -0.0683  0.4797
 4268SOL    HW113703   0.633   3.755   4.893 -0.1079  3.0135  2.2907
 4268SOL    HW213704   0.732   3.654   4.976  0.7157  0.8493 -1.1356
 4269SOL     OW13705   2.653   1.231   4.402 -0.1350 -0.2282 -0.3732
 4269SOL    HW113706   2.560   1.264   4.417  0.0704  0.6841 -0.9932
 4269SOL    HW213707   2.694   1.280   4.325 -0.0436 -2.4696 -1.8489
 4270SOL     OW13708   4.638   4.692   0.494  0.3882  0.5906  0.0102
 4270SOL    HW113709   4.574   4.764   0.522  1.1378  0.4802  2.1829
 4270SOL    HW213710   4.591   4.603   0.499  0.1152  0.7029 -0.4760
 4271SOL     OW13711   6.253   0.538   5.498 -0.0796  0.1701  0.7312
 4271SOL    HW113712   6.346   0.507   5.478  0.3649  1.3716  0.8488
 4271SOL    HW213713   6.202   0.550   5.413  0.4039  1.0604  0.5546
 4272SOL     OW13714   5.738   1.166   5.037  0.5348  0.5922  0.0969
 4272SOL    HW113715   5.830   1.204   5.037  1.3358 -1.0851 -2.3592
 4272SOL    HW213716   5.685   1.206   4.962  0.8942 -1.8115 -1.5391
 4273SOL     OW13717   3.035   7.001   1.677  0.5627 -0.3809  0.2812
 4273SOL    HW113718   2.999   6.907   1.680  1.3282 -0.6535  1.7274
 4273SOL    HW213719   2.959   7.066   1.685  0.1484 -0.8981  0.6238
 4274SOL     OW13720   6.789   1.433   2.133 -0.0998 -0.3961 -0.3041
 4274SOL    HW113721   6.731   1.478   2.066  0.3243  0.8987  0.1598
 4274SOL    HW213722   6.745   1.438   2.223 -0.2887 -1.3879 -0.3385
 4275SOL     OW13723   6.080   2.088   3.270 -0.2692  0.5316  0.8039
 4275SOL    HW113724   6.001   2.145   3.293  0.5213  2.0747 -0.1729
 4275SOL    HW213725   6.132   2.130   3.196  0.6243 -1.2414  0.3537
 4276SOL     OW13726   2.626   0.878   3.359 -0.0450  0.0098  0.0482
 4276SOL    HW113727   2.555   0.812   3.338  0.4552 -0.1685 -1.1833
 4276SOL    HW213728   2.586   0.970   3.363 -0.1368  0.1460 -2.3443
 4277SOL     OW13729   5.551   4.561   3.573 -0.3638 -0.0890  0.4065
 4277SOL    HW113730   5.579   4.657   3.583 -0.6108 -0.0078  0.3388
 4277SOL    HW213731   5.475   4.555   3.508  1.3140 -0.6353 -1.5997
 4278SOL     OW13732   0.433   1.629   2.690  0.8761  0.4424 -0.1045
 4278SOL    HW113733   0.391   1.622   2.780  0.4246  0.3197 -0.3247
 4278SOL    HW213734   0.528   1.660   2.700  0.5908  1.1857  0.3569
 4279SOL     OW13735   1.395   4.453   4.661 -0.2222  0.0875  0.2217
 4279SOL    HW113736   1.404   4.489   4.754 -0.1289  1.2801 -0.2350
 4279SOL    HW213737   1.441   4.514   4.597  0.0345 -0.9197 -0.5805
 4280SOL     OW13738   3.095   0.472   6.835 -0.2775 -0.1717 -0.0998
 4280SOL    HW113739   3.102   0.569   6.811  0.3040  0.2853  1.7367
 4280SOL    HW213740   2.998   0.447   6.844 -0.4254  0.3118 -0.3019
 4281SOL     OW13741   6.693   6.980   2.336  0.3144 -0.3439 -0.1612
 4281SOL    HW113742   6.618   7.044   2.320 -0.4056 -0.9588  0.6518
 4281SOL    HW213743   6.662   6.907   2.397  1.0240 -1.6191 -1.2682
 4282SOL     OW13744   5.765   5.166   2.765 -0.1755  0.3570  0.6498
 4282SOL    HW113745   5.814   5.179   2.851  0.3902 -1.3510  0.6241
 4282SOL    HW213746   5.711   5.082   2.769 -1.4464  1.0861 -0.1095
 4283SOL     OW13747   6.295   2.278   5.175 -0.2976 -0.1918 -0.2253
 4283SOL    HW113748   6.322   2.291   5.270 -0.0600  0.0426 -0.3232
 4283SOL    HW213749   6.196   2.292   5.166 -0.3954 -0.6690  0.0670
 4284SOL     OW13750   1.913   0.192   6.836 -0.2028  0.4793  0.5887
 4284SOL    HW113751   1.932   0.282   6.875 -0.1024  1.3770 -1.3896
 4284SOL    HW213752   1.950   0.188   6.743 -1.0210 -1.2929  0.2947
 4285SOL     OW13753   4.630   0.617   5.327 -0.5476 -0.6833  0.3246
 4285SOL    HW113754   4.539   0.654   5.340 -1.8587 -3.7408  0.7185
 4285SOL    HW213755   4.668   0.649   5.240 -2.2155  0.1624 -0.1232
 4286SOL     OW13756   5.710   6.912   5.985  0.3002  0.0097 -0.3214
 4286SOL    HW113757   5.709   7.006   5.949 -0.6344 -0.3308 -1.2482
 4286SOL    HW213758   5.759   6.910   6.071 -2.2958  1.9931  1.3532
 4287SOL     OW13759   4.395   0.373   5.735 -0.5185  0.2670  0.0498
 4287SOL    HW113760   4.337   0.292   5.740 -1.0997  0.6944  0.3304
 4287SOL    HW213761   4.415   0.406   5.827  2.8644 -1.7223  0.2154
 4288SOL     OW13762   0.552   6.921   2.005  0.1082 -0.1163  0.0718
 4288SOL    HW113763   0.486   6.962   2.068 -0.2524 -0.3052 -0.1723
 4288SOL    HW213764   0.509   6.842   1.960 -0.8826  1.9475 -2.9252
 4289SOL     OW13765   0.058   3.665   6.747  0.9229 -0.2559  0.8332
 4289SOL    HW113766   0.044   3.573   6.783 -0.7956 -0.8474 -1.1520
 4289SOL    HW213767   0.136   3.707   6.792  2.8569 -3.3286  0.6144
 4290SOL     OW13768   5.563   0.961   3.611  0.0770 -0.0070 -0.5118
 4290SOL    HW113769   5.476   0.914   3.596  0.7266 -1.2852 -0.4790
 4290SOL    HW213770   5.590   0.953   3.707  0.8234 -0.7266 -0.7685
 4291SOL     OW13771   5.083   6.830   5.812  0.0203 -0.4036  0.4744
 4291SOL    HW113772   5.078   6.924   5.846 -1.4084  0.3378 -1.6375
 4291SOL    HW213773   5.175   6.813   5.776 -0.5222  1.2635 -1.8956
 4292SOL     OW13774   1.859   0.162   1.043 -0.0047 -0.3844  0.1111
 4292SOL    HW113775   1.888   0.234   0.979  2.4259 -1.9625 -0.6793
 4292SOL    HW213776   1.939   0.115   1.079 -1.4812 -1.8560  1.6613
 4293SOL     OW13777   4.670   2.404   5.787  0.0879  0.3004 -0.1207
 4293SOL    HW113778   4.763   2.377   5.813 -0.3913  1.1244  2.8138
 4293SOL    HW213779   4.633   2.338   5.722  2.7364  0.0286 -1.4669
 4294SOL     OW13780   2.706   2.028   6.256 -0.1705 -0.0386  0.3630
 4294SOL    HW113781   2.796   2.000   6.223 -0.1125  0.9546 -0.3691
 4294SOL    HW213782   2.637   1.967   6.219  0.0993 -0.1747  0.0774
 4295SOL     OW13783   4.421   0.311   1.964 -0.0916 -0.3171  0.0903
 4295SOL    HW113784   4.407   0.406   1.936  0.4663 -0.1534  0.3408
 4295SOL    HW213785   4.334   0.263   1.966 -0.4250  0.2877  0.3065
 4296SOL     OW13786   0.581   5.344   1.406 -0.5940 -0.0310  0.2559
 4296SOL    HW113787   0.604   5.441   1.414 -0.1160  0.0712 -1.7792
 4296SOL    HW213788   0.650   5.289   1.453 -0.1886  0.5634  0.3603
 4297SOL     OW13789   5.460   3.081   0.445 -0.2465  0.1808  0.1979
 4297SOL    HW113790   5.524   3.038   0.382  0.7761  0.2334  1.1646
 4297SOL    HW213791   5.382   3.021   0.460  1.6857 -1.9944  2.4355
 4298SOL     OW13792   2.117   5.214   2.245  0.2017 -0.3488  0.0215
 4298SOL    HW113793   2.172   5.139   2.282 -0.5264 -1.2416 -0.6419
 4298SOL    HW213794   2.174   5.269   2.183  0.6332 -0.6187  0.1710
 4299SOL     OW13795   5.216   1.690   6.405 -0.1477 -0.3801  0.2614
 4299SOL    HW113796   5.182   1.666   6.496 -1.6687 -1.8333 -0.6322
 4299SOL    HW213797   5.259   1.610   6.364 -0.0993  0.0671 -0.5766
 4300SOL     OW13798   3.598   1.458   1.621  1.3129  0.4141 -0.4939
 4300SOL    HW113799   3.539   1.522   1.573  0.4179 -0.0626 -0.0485
 4300SOL    HW213800   3.644   1.398   1.555 -2.3779 -2.4399 -0.8198
 4301SOL     OW13801   1.854   0.346   2.565  0.2122  0.3728 -0.5659
 4301SOL    HW113802   1.850   0.399   2.649  0.8522 -0.7984  0.2413
 4301SOL    HW213803   1.763   0.311   2.543  0.2003 -0.0839  0.1697
 4302SOL     OW13804   3.280   4.223   0.397 -0.3874  0.2432  0.0813
 4302SOL    HW113805   3.198   4.205   0.344 -0.7737  0.3962  0.6160
 4302SOL    HW213806   3.357   4.173   0.358 -0.2316  1.8282 -1.7795
 4303SOL     OW13807   5.148   6.251   4.495 -0.1334  0.2619  0.0012
 4303SOL    HW113808   5.121   6.346   4.481  0.7737  0.8820  2.0718
 4303SOL    HW213809   5.094   6.191   4.435  0.4457  2.1656 -2.6183
 4304SOL     OW13810   2.191   3.969   0.288  0.1229  0.4196  0.7607
 4304SOL    HW113811   2.214   4.041   0.354 -0.3723 -0.1323  1.5528
 4304SOL    HW213812   2.144   4.010   0.209  1.3277  1.1760  0.4068
 4305SOL     OW13813   0.211   0.328   5.849  0.2672  0.4787  1.0861
 4305SOL    HW113814   0.273   0.256   5.816  1.4752  1.3164  1.4612
 4305SOL    HW213815   0.172   0.300   5.937  0.5761  0.1942  1.1333
 4306SOL     OW13816   5.539   6.227   5.773  0.4266 -0.3459  0.0422
 4306SOL    HW113817   5.505   6.138   5.745  1.0257 -0.8931  0.9984
 4306SOL    HW213818   5.526   6.239   5.871  1.0129  0.3215  0.0515
 4307SOL     OW13819   0.948   1.797   4.701  0.0752 -0.2984 -0.1204
 4307SOL    HW113820   0.956   1.882   4.753 -0.5823  0.5585 -1.3540
 4307SOL    HW213821   1.032   1.744   4.709  1.4202  1.5814 -1.1764
 4308SOL     OW13822   4.839   6.266   1.520 -0.3341  0.5856  0.3313
 4308SOL    HW113823   4.892   6.211   1.455  1.3111  0.0136  2.0460
 4308SOL    HW213824   4.751   6.290   1.480  0.6648  0.4194 -2.1480
 4309SOL     OW13825   0.171   3.354   0.926  0.4322  0.7948  0.1733
 4309SOL    HW113826   0.121   3.332   1.010  1.1573 -0.9439  0.2002
 4309SOL    HW213827   0.124   3.312   0.848  1.3134 -0.1006  0.0967
 4310SOL     OW13828   5.910   2.006   4.515 -0.6587 -0.5302  0.2482
 4310SOL    HW113829   5.867   2.064   4.445  0.4994 -0.1831 -0.2103
 4310SOL    HW213830   5.904   1.910   4.488 -0.1909 -0.3956 -0.3641
 4311SOL     OW13831   0.827   4.978   6.570  0.9540  1.2601 -0.1826
 4311SOL    HW113832   0.808   5.072   6.542  1.6941  1.0792 -1.3811
 4311SOL    HW213833   0.926   4.965   6.576  0.8363  0.8739  1.1437
 4312SOL     OW13834   6.657   3.561   1.691  0.1519  0.2344  0.1411
 4312SOL    HW113835   6.699   3.481   1.735 -1.0020  0.0111  0.8963
 4312SOL    HW213836   6.578   3.591   1.746 -0.2525  1.0527 -0.8600
 4313SOL     OW13837   6.949   3.009   1.774  0.9637  0.1599 -0.1983
 4313SOL    HW113838   6.990   3.073   1.708  0.7222 -0.9499 -1.4869
 4313SOL    HW213839   6.858   2.983   1.742  0.3892  0.4304  1.1706
 4314SOL     OW13840   2.076   2.058   6.081 -0.1579 -0.3419 -0.1983
 4314SOL    HW113841   2.043   2.147   6.112  1.6473  0.3500 -0.1771
 4314SOL    HW213842   2.120   2.010   6.157  1.3796 -0.0274 -0.8581
 4315SOL     OW13843   3.986   6.972   5.507  0.3588  0.1781  0.0567
 4315SOL    HW113844   3.887   6.988   5.514  0.1314 -0.5116 -1.3423
 4315SOL    HW213845   4.016   6.915   5.584 -1.0906 -2.9513 -1.5117
 4316SOL     OW13846   6.088   4.827   0.668  0.0762 -0.8592 -0.3230
 4316SOL    HW113847   6.169   4.885   0.668  0.1255 -0.9277  0.1443
 4316SOL    HW213848   6.052   4.819   0.761 -0.0743 -1.3721 -0.4229
 4317SOL     OW13849   4.430   2.520   4.142 -0.0197  0.3078 -0.1784
 4317SOL    HW113850   4.336   2.487   4.139  0.3961 -1.2230  1.3516
 4317SOL    HW213851   4.479   2.490   4.060 -0.2832 -0.9663  0.0947
 4318SOL     OW13852   2.574   0.150   1.946  0.6412 -0.0628 -0.8104
 4318SOL    HW113853   2.577   0.246   1.973  1.7840 -0.8555  2.2859
 4318SOL    HW213854   2.530   0.096   2.018  1.3858 -2.0539 -1.7711
 4319SOL     OW13855   2.343   4.324   0.765 -0.9173 -0.7897 -0.1935
 4319SOL    HW113856   2.400   4.289   0.840 -0.6031  0.8853  0.3893
 4319SOL    HW213857   2.247   4.311   0.788 -0.8302 -0.0805  0.6373
 4320SOL     OW13858   4.310   0.616   2.840 -0.6921 -0.2025  0.3081
 4320SOL    HW113859   4.216   0.596   2.812 -0.3826 -2.0185  0.4152
 4320SOL    HW213860   4.372   0.600   2.763 -0.4478  0.8286  0.2827
 4321SOL     OW13861   1.329   6.237   3.691  0.5122  0.0283 -0.2451
 4321SOL    HW113862   1.343   6.247   3.789  0.6496 -0.2066 -0.2417
 4321SOL    HW213863   1.231   6.234   3.672  0.4947 -0.7117 -0.0382
 4322SOL     OW13864   1.439   1.136   3.614  0.3262  0.0288 -0.0696
 4322SOL    HW113865   1.497   1.057   3.593  1.9030  1.3328 -0.7961
 4322SOL    HW213866   1.439   1.198   3.536  1.0801  1.9221  1.3873
 4323SOL     OW13867   5.709   3.669   3.220  0.4063 -0.1720  0.2716
 4323SOL    HW113868   5.771   3.743   3.194 -0.6415  0.9662  0.8842
 4323SOL    HW213869   5.673   3.625   3.138 -1.2597  1.9986 -0.2578
 4324SOL     OW13870   6.406   4.198   5.904  0.2884  0.1240 -0.5593
 4324SOL    HW113871   6.366   4.109   5.881  0.3903 -0.1565  0.3063
 4324SOL    HW213872   6.364   4.232   5.989  1.6484 -0.0352  0.2058
 4325SOL     OW13873   1.456   6.967   6.875 -0.8613  0.5359  0.1992
 4325SOL    HW113874   1.551   6.998   6.869 -0.3976 -1.0947 -1.6596
 4325SOL    HW213875   1.454   6.872   6.906 -1.7328 -0.0636 -1.6109
 4326SOL     OW13876   4.735   1.161   3.121 -0.1492  0.1029  0.0504
 4326SOL    HW113877   4.700   1.242   3.168 -0.9466 -0.7081  0.9002
 4326SOL    HW213878   4.809   1.187   3.059 -0.4254  1.4775  0.2769
 4327SOL     OW13879   3.016   6.369   4.597  0.4786 -0.1166 -0.0849
 4327SOL    HW113880   3.086   6.378   4.668  1.5083  0.4969 -1.1386
 4327SOL    HW213881   2.990   6.460   4.565  0.6936 -0.4071 -1.1103
 4328SOL     OW13882   6.367   6.887   1.985  0.0752 -0.6036 -0.0786
 4328SOL    HW113883   6.374   6.881   2.085  3.3749  3.2341  0.1685
 4328SOL    HW213884   6.296   6.953   1.961 -0.8089 -1.6242 -0.3354
 4329SOL     OW13885   1.417   5.501   2.546 -0.6139  0.0549 -0.2929
 4329SOL    HW113886   1.336   5.469   2.497  0.4626 -2.1234 -0.7467
 4329SOL    HW213887   1.422   5.601   2.539 -2.1083  0.0704 -2.0707
 4330SOL     OW13888   2.152   6.775   5.717  0.1340 -0.5431 -0.2184
 4330SOL    HW113889   2.108   6.689   5.743 -0.6429  0.0596  0.5247
 4330SOL    HW213890   2.134   6.844   5.787  1.3185  0.0494 -0.4648
 4331SOL     OW13891   1.497   2.188   5.308 -0.2903 -0.1264 -0.1755
 4331SOL    HW113892   1.582   2.209   5.357 -0.2626 -0.1924 -0.1944
 4331SOL    HW213893   1.421   2.239   5.349 -0.6786 -1.8396  1.3949
 4332SOL     OW13894   6.654   6.435   1.713  0.3517 -0.1173 -0.3336
 4332SOL    HW113895   6.586   6.474   1.775  1.0162 -1.6949  1.4759
 4332SOL    HW213896   6.615   6.429   1.621 -1.0336  1.3357  0.1027
 4333SOL     OW13897   3.454   2.793   5.230 -0.0035  0.0512  0.4165
 4333SOL    HW113898   3.366   2.831   5.199 -0.6179 -1.1164  0.6842
 4333SOL    HW213899   3.438   2.708   5.280  1.3998 -0.9703 -0.8073
 4334SOL     OW13900   1.808   3.381   3.557 -0.1429  0.4095  0.5556
 4334SOL    HW113901   1.709   3.386   3.543 -0.1164  0.3792  0.3577
 4334SOL    HW213902   1.831   3.292   3.597 -0.2942  0.7591  1.4470
 4335SOL     OW13903   2.655   2.109   1.267  0.1254 -0.4766  0.4246
 4335SOL    HW113904   2.686   2.183   1.208  1.1621 -0.8076  0.5301
 4335SOL    HW213905   2.593   2.145   1.336 -0.2401  0.0963 -0.1926
 4336SOL     OW13906   0.538   5.796   5.325 -0.3334  0.4682 -0.7423
 4336SOL    HW113907   0.564   5.808   5.229  0.9820 -0.4319 -0.5228
 4336SOL    HW213908   0.617   5.816   5.383 -0.5318 -0.8949  0.0361
 4337SOL     OW13909   6.616   5.169   3.482  0.6253 -0.6859  0.2331
 4337SOL    HW113910   6.668   5.159   3.397 -3.0278 -1.6775 -2.0852
 4337SOL    HW213911   6.609   5.266   3.505  1.3855 -0.3656 -0.7825
 4338SOL     OW13912   3.059   3.127   4.267  0.1564  0.0451 -0.3078
 4338SOL    HW113913   3.003   3.130   4.349 -1.6020 -0.9478 -1.4016
 4338SOL    HW213914   3.130   3.057   4.277  2.0070  2.0372  1.5091
 4339SOL     OW13915   2.933   3.480   6.126 -0.0874  0.2889  0.2525
 4339SOL    HW113916   3.000   3.413   6.155 -1.6096 -1.8301 -0.8700
 4339SOL    HW213917   2.864   3.437   6.067 -0.4175  3.1120 -1.6729
 4340SOL     OW13918   6.523   4.778   1.718 -0.8103 -0.0985 -0.1276
 4340SOL    HW113919   6.441   4.822   1.683 -0.6076 -0.4498 -1.0688
 4340SOL    HW213920   6.498   4.697   1.770 -1.0449 -0.3117 -0.5747
 4341SOL     OW13921   4.852   6.671   2.479  0.1373  0.3053  0.2345
 4341SOL    HW113922   4.870   6.758   2.524 -1.6290  1.2104 -0.6682
 4341SOL    HW213923   4.778   6.683   2.412 -1.3929 -2.2509  1.3023
 4342SOL     OW13924   5.805   4.586   1.231  0.6396 -0.3453  0.3576
 4342SOL    HW113925   5.718   4.625   1.200  0.0331 -2.1788 -0.3874
 4342SOL    HW213926   5.871   4.660   1.243 -0.5452  0.9499 -0.5813
 4343SOL     OW13927   3.709   6.769   6.492  0.0581 -0.4635  0.1962
 4343SOL    HW113928   3.694   6.799   6.398  0.0767 -0.0036  0.3416
 4343SOL    HW213929   3.621   6.758   6.539  0.0428 -0.8126  0.0909
 4344SOL     OW13930   2.113   4.807   2.229 -0.0078 -0.0791 -0.0588
 4344SOL    HW113931   2.057   4.890   2.225  0.1841  0.1165  0.9676
 4344SOL    HW213932   2.111   4.771   2.322 -0.1971 -1.3138 -0.5235
 4345SOL     OW13933   4.153   3.475   3.919  0.0236  0.3470 -0.0380
 4345SOL    HW113934   4.090   3.399   3.902 -1.0193  1.2313 -0.2998
 4345SOL    HW213935   4.158   3.532   3.837  2.4001 -0.5190 -0.5755
 4346SOL     OW13936   1.401   4.384   2.628 -0.1949 -0.0950  0.1014
 4346SOL    HW113937   1.499   4.368   2.626 -0.0768  0.4306  1.0516
 4346SOL    HW213938   1.362   4.364   2.538  0.4438 -2.3238  0.2646
 4347SOL     OW13939   5.940   6.114   0.183  0.3582  0.2875 -0.5561
 4347SOL    HW113940   6.028   6.158   0.199  0.6510 -0.3417 -0.4154
 4347SOL    HW213941   5.955   6.023   0.142 -0.1982 -0.0895  0.0620
 4348SOL     OW13942   0.845   4.024   0.488  0.6622 -0.0962 -0.2136
 4348SOL    HW113943   0.800   4.100   0.533  0.1705 -1.1712  1.1962
 4348SOL    HW213944   0.791   3.995   0.409 -0.1873 -0.2015  0.3855
 4349SOL     OW13945   0.274   3.966   4.702 -0.4201  0.1491  0.2377
 4349SOL    HW113946   0.321   4.054   4.703 -0.4144  0.1750  2.2216
 4349SOL    HW213947   0.340   3.892   4.717 -0.5110 -0.1591 -0.8004
 4350SOL     OW13948   4.554   0.137   4.563  0.0067  0.1672 -0.8189
 4350SOL    HW113949   4.482   0.087   4.515 -1.2652  0.8495  0.3210
 4350SOL    HW213950   4.543   0.235   4.547 -0.7049  0.4454  1.1519
 4351SOL     OW13951   5.708   6.835   2.534 -0.0196  0.6033 -0.3743
 4351SOL    HW113952   5.739   6.749   2.572  3.2993  1.1088 -1.6387
 4351SOL    HW213953   5.625   6.820   2.480 -0.4858 -1.4303  0.8261
 4352SOL     OW13954   5.481   3.891   1.447 -0.6356 -0.0815  0.3411
 4352SOL    HW113955   5.479   3.991   1.443  0.5520  0.0220  1.4989
 4352SOL    HW213956   5.573   3.861   1.472 -0.8222 -1.5085 -0.5936
 4353SOL     OW13957   2.977   2.805   0.283  0.4764  0.5982  0.1356
 4353SOL    HW113958   3.062   2.858   0.285  0.0435  1.3263 -0.3065
 4353SOL    HW213959   2.917   2.841   0.212  0.0682 -0.3510 -0.0196
 4354SOL     OW13960   6.103   5.354   3.895 -0.5671  0.1593  0.0118
 4354SOL    HW113961   6.126   5.391   3.985  0.0919  0.5240 -0.2964
 4354SOL    HW213962   6.176   5.292   3.865 -0.7653  0.0686 -0.2840
 4355SOL     OW13963   2.334   5.370   5.358  0.2659 -0.1080  0.1374
 4355SOL    HW113964   2.365   5.296   5.298  0.3966 -0.6287  0.8282
 4355SOL    HW213965   2.242   5.398   5.330  0.1749 -0.5982 -0.0806
 4356SOL     OW13966   6.120   1.655   3.482 -0.0908 -0.1580 -0.5193
 4356SOL    HW113967   6.093   1.580   3.422 -0.4468 -0.6468  0.2391
 4356SOL    HW213968   6.196   1.626   3.540  1.5054  0.9066 -1.9957
 4357SOL     OW13969   5.966   6.338   2.385  0.0209 -0.7804  0.6978
 4357SOL    HW113970   5.902   6.290   2.445  0.9450 -0.9840  1.5618
 4357SOL    HW213971   5.953   6.436   2.395 -0.8298 -0.8259  0.0994
 4358SOL     OW13972   2.862   6.614   3.074 -0.0084  0.0123  0.3162
 4358SOL    HW113973   2.852   6.703   3.119 -1.6599 -0.4591  0.9554
 4358SOL    HW213974   2.812   6.615   2.987  0.5750 -0.0691 -0.0249
 4359SOL     OW13975   3.105   4.588   1.683  0.6254  0.1684  0.0067
 4359SOL    HW113976   3.048   4.508   1.668 -0.2238  1.1349 -2.3484
 4359SOL    HW213977   3.048   4.664   1.716  1.0142  0.4580  0.0209
 4360SOL     OW13978   1.866   0.418   4.015  0.5064 -0.0034  0.2334
 4360SOL    HW113979   1.875   0.480   4.093  1.6178  0.7753 -0.4869
 4360SOL    HW213980   1.947   0.360   4.009 -0.2117 -1.0670  0.4812
 4361SOL     OW13981   1.421   6.889   6.060  0.3411 -0.3361 -0.4848
 4361SOL    HW113982   1.473   6.821   6.009  1.7957  0.8981 -0.7232
 4361SOL    HW213983   1.393   6.963   5.999 -0.6140 -0.3615 -0.0932
 4362SOL     OW13984   1.125   5.453   1.468 -0.1630 -0.2863 -0.2165
 4362SOL    HW113985   1.184   5.378   1.438 -0.4385 -0.4985 -0.2261
 4362SOL    HW213986   1.181   5.525   1.510 -0.0103 -0.9441  0.7282
 4363SOL     OW13987   4.943   0.716   2.609  0.0457  0.3870 -0.4625
 4363SOL    HW113988   5.043   0.718   2.616  0.1211 -0.1279 -1.3181
 4363SOL    HW213989   4.913   0.625   2.580 -0.7454  0.2387  0.7472
 4364SOL     OW13990   3.867   3.519   2.331  0.4268  0.2695  0.1116
 4364SOL    HW113991   3.899   3.455   2.401  0.4952  0.2143  0.0312
 4364SOL    HW213992   3.803   3.584   2.371  1.0523  0.7185  0.4023
 4365SOL     OW13993   0.846   1.892   0.616  0.6216  0.3330  0.1976
 4365SOL    HW113994   0.890   1.817   0.666 -2.3970 -2.0253 -0.3754
 4365SOL    HW213995   0.901   1.915   0.536  2.0983 -0.5750  0.8935
 4366SOL     OW13996   4.772   5.702   5.306 -0.1089  0.2596  0.1274
 4366SOL    HW113997   4.690   5.752   5.281 -1.0566 -1.9600 -1.5453
 4366SOL    HW213998   4.752   5.604   5.311  2.4517 -0.3926 -0.5264
 4367SOL     OW13999   6.806   0.413   0.580 -0.4619  0.1100 -0.5236
 4367SOL    HW114000   6.784   0.418   0.482 -1.4007 -2.3072 -0.5007
 4367SOL    HW214001   6.813   0.505   0.617 -0.5168  1.0805 -2.7694
 4368SOL     OW14002   6.218   4.963   3.860  0.1586  0.0787  1.2854
 4368SOL    HW114003   6.268   5.006   3.785 -1.5585  0.1831  0.1410
 4368SOL    HW214004   6.277   4.895   3.904  1.8390  1.3426  1.0993
 4369SOL     OW14005   0.145   3.480   4.334  1.1414 -0.1262  0.3652
 4369SOL    HW114006   0.215   3.417   4.301  1.2756 -0.4623  1.2431
 4369SOL    HW214007   0.059   3.466   4.284  1.1698 -1.0098  0.5596
 4370SOL     OW14008   4.725   5.193   0.770  0.6256  0.2934  0.3957
 4370SOL    HW114009   4.759   5.286   0.753 -0.0047  0.2411 -1.3236
 4370SOL    HW214010   4.626   5.195   0.780  0.4828 -0.3331 -0.7969
 4371SOL     OW14011   3.631   0.309   5.097 -0.1656 -0.0932 -0.2322
 4371SOL    HW114012   3.689   0.389   5.106 -0.9164  0.6588 -1.6868
 4371SOL    HW214013   3.570   0.321   5.019 -2.8252 -0.5019  1.6574
 4372SOL     OW14014   0.372   4.264   1.113  0.3161 -0.3677  0.2458
 4372SOL    HW114015   0.360   4.174   1.069 -0.2378  0.3655 -1.1568
 4372SOL    HW214016   0.400   4.250   1.208 -1.5815 -2.0572  0.6402
 4373SOL     OW14017   3.776   0.406   0.599 -0.4532 -0.2626  0.1680
 4373SOL    HW114018   3.785   0.327   0.659 -2.5526 -1.9587 -1.5270
 4373SOL    HW214019   3.703   0.465   0.632 -0.2366 -0.1171  0.3810
 4374SOL     OW14020   0.838   6.231   1.287 -0.5039  0.9897 -0.0262
 4374SOL    HW114021   0.764   6.249   1.352 -2.6452 -0.3793 -1.9155
 4374SOL    HW214022   0.841   6.304   1.220 -2.4853 -0.4864 -1.8681
 4375SOL     OW14023   5.650   6.407   6.646 -0.6772  0.4016  0.0223
 4375SOL    HW114024   5.630   6.402   6.744  0.4067  0.6837  0.2711
 4375SOL    HW214025   5.663   6.314   6.610  2.3792  0.3789  0.9310
 4376SOL     OW14026   0.822   4.974   5.912  0.1440 -0.5050 -0.0391
 4376SOL    HW114027   0.723   4.966   5.922  0.0268  1.6138  0.9556
 4376SOL    HW214028   0.867   4.912   5.976 -0.5762 -0.1166  0.8700
 4377SOL     OW14029   4.703   5.141   0.462  0.3000 -0.1293 -0.5028
 4377SOL    HW114030   4.733   5.157   0.556 -0.2342  0.9928 -0.5104
 4377SOL    HW214031   4.675   5.227   0.420 -0.9891 -0.8329 -1.1591
 4378SOL     OW14032   3.571   3.855   0.225 -0.1785  0.5154  0.1331
 4378SOL    HW114033   3.494   3.808   0.269  0.4450  1.3288  2.2252
 4378SOL    HW214034   3.656   3.826   0.268  0.3529  2.3189  0.3772
 4379SOL     OW14035   6.131   0.102   2.025 -0.1524 -0.1051 -0.5643
 4379SOL    HW114036   6.114   0.063   2.116 -0.7249  0.0882 -0.5864
 4379SOL    HW214037   6.093   0.041   1.955 -0.1221 -0.0216 -0.6538
 4380SOL     OW14038   1.956   6.142   4.835 -0.3332 -0.2350 -0.4319
 4380SOL    HW114039   1.907   6.131   4.748 -1.3585 -2.5764  0.3771
 4380SOL    HW214040   2.001   6.056   4.860  1.2156  0.8227  0.6647
 4381SOL     OW14041   4.240   6.250   3.176 -0.0789  0.1634  0.2881
 4381SOL    HW114042   4.296   6.307   3.236 -0.2556  0.9307 -0.2576
 4381SOL    HW214043   4.157   6.221   3.225 -1.5833  3.0326 -0.3747
 4382SOL     OW14044   6.191   3.657   2.038  0.5192  0.3695 -0.4202
 4382SOL    HW114045   6.217   3.714   1.960  1.2903 -0.1602 -0.5560
 4382SOL    HW214046   6.245   3.682   2.118 -0.5213  1.1577  0.0615
 4383SOL     OW14047   0.194   6.011   5.692 -0.1031  0.2107 -0.0782
 4383SOL    HW114048   0.139   5.972   5.619  1.3661 -0.8612 -0.6614
 4383SOL    HW214049   0.220   5.940   5.757  0.8886  0.6060 -0.0180
 4384SOL     OW14050   1.719   0.418   1.116 -0.0279  0.0488 -0.1911
 4384SOL    HW114051   1.720   0.318   1.121  0.8559  0.0174 -0.7533
 4384SOL    HW214052   1.798   0.454   1.167  0.3838  0.3924 -1.0540
 4385SOL     OW14053   6.213   2.693   4.221  0.1327 -0.3566 -0.1453
 4385SOL    HW114054   6.277   2.704   4.298  0.5055  0.5513 -0.5735
 4385SOL    HW214055   6.154   2.615   4.239  0.5416 -0.4629  0.8396
 4386SOL     OW14056   2.309   4.871   0.206  0.0822  0.8104  0.1726
 4386SOL    HW114057   2.404   4.872   0.175  0.8522  2.6633  2.3230
 4386SOL    HW214058   2.263   4.956   0.179 -1.0715 -0.1418 -1.0070
 4387SOL     OW14059   0.758   0.310   6.985 -0.1588 -0.2366  0.5160
 4387SOL    HW114060   0.801   0.366   7.057  4.0082 -0.3597 -1.5902
 4387SOL    HW214061   0.701   0.369   6.927  0.8784  1.0225  0.7269
 4388SOL     OW14062   5.107   6.625   5.121  0.0759  0.8194 -0.3101
 4388SOL    HW114063   5.198   6.645   5.085 -0.4045 -0.0380 -2.1069
 4388SOL    HW214064   5.115   6.601   5.218  1.7962  0.4820 -0.4945
 4389SOL     OW14065   1.097   4.204   3.021 -0.6453 -0.6213 -0.3634
 4389SOL    HW114066   1.050   4.242   2.941 -0.9967 -0.3994 -0.0549
 4389SOL    HW214067   1.155   4.128   2.993  0.3120  0.3370 -1.0514
 4390SOL     OW14068   4.998   4.295   2.773 -0.5034  0.2794  0.9754
 4390SOL    HW114069   4.963   4.273   2.864 -1.0398 -0.3431  0.6277
 4390SOL    HW214070   5.077   4.237   2.753  0.6535  1.5713  1.6952
 4391SOL     OW14071   1.052   6.107   2.878  0.0725  0.3819 -0.1321
 4391SOL    HW114072   1.109   6.032   2.845  0.4938  0.3461  0.6404
 4391SOL    HW214073   1.051   6.105   2.978 -0.8859  0.6828 -0.1321
 4392SOL     OW14074   4.243   6.283   3.629  0.0814  0.3620  0.3241
 4392SOL    HW114075   4.303   6.296   3.549 -0.8702  1.1504 -0.2854
 4392SOL    HW214076   4.197   6.369   3.650  0.1971  0.1162  1.6439
 4393SOL     OW14077   5.732   5.664   1.868 -0.0055  0.0952  0.1086
 4393SOL    HW114078   5.676   5.631   1.793 -2.0281  1.7087  0.8220
 4393SOL    HW214079   5.713   5.609   1.950 -1.0784  1.0418  0.5146
 4394SOL     OW14080   2.538   0.693   0.626  0.1540 -0.3325  0.5213
 4394SOL    HW114081   2.544   0.614   0.565  0.3925  0.5862 -0.6676
 4394SOL    HW214082   2.562   0.664   0.719  1.1922 -1.4528 -0.0615
 4395SOL     OW14083   4.674   1.965   1.474  0.1822  0.3988  0.1418
 4395SOL    HW114084   4.673   2.055   1.516  1.8300  1.4166 -1.8434
 4395SOL    HW214085   4.608   1.963   1.398 -0.1472 -0.2231  0.4343
 4396SOL     OW14086   1.516   3.081   1.716  0.4756 -0.0679 -0.0742
 4396SOL    HW114087   1.579   3.059   1.642  0.0750 -0.0736 -0.4180
 4396SOL    HW214088   1.563   3.072   1.803  0.5487 -1.5190 -0.2394
 4397SOL     OW14089   3.450   1.536   6.655  0.0979  0.2654 -0.7198
 4397SOL    HW114090   3.367   1.498   6.614  0.7408 -0.6630 -1.2105
 4397SOL    HW214091   3.428   1.622   6.702 -1.5960 -1.0945  1.1657
 4398SOL     OW14092   2.494   4.991   5.973  0.2010 -0.6215 -0.1485
 4398SOL    HW114093   2.415   4.970   5.915 -0.6616  3.0409 -0.5034
 4398SOL    HW214094   2.555   5.055   5.926  0.3113  1.2086  2.2850
 4399SOL     OW14095   3.135   5.243   2.142  0.9732  0.0151 -0.0274
 4399SOL    HW114096   3.132   5.311   2.215 -0.9902 -0.9548  0.8893
 4399SOL    HW214097   3.065   5.174   2.159 -1.3405  1.0591 -4.1015
 4400SOL     OW14098   4.689   5.025   3.155  0.2950  0.5098 -0.4749
 4400SOL    HW114099   4.783   5.028   3.121  0.1454  1.7710 -0.8377
 4400SOL    HW214100   4.686   5.060   3.248  0.0301  1.5851 -0.8776
 4401SOL     OW14101   0.137   5.948   4.980  0.3041 -0.6281  1.3806
 4401SOL    HW114102   0.204   5.965   5.053  1.6460 -0.7366  0.2143
 4401SOL    HW214103   0.084   6.031   4.964  2.7751  0.7956 -0.2263
 4402SOL     OW14104   5.993   6.672   0.661 -0.2994  0.3677  0.5898
 4402SOL    HW114105   5.981   6.628   0.572  0.0404 -0.3350  0.8819
 4402SOL    HW214106   5.932   6.750   0.668  0.8066  1.4277 -0.8917
 4403SOL     OW14107   0.480   0.390   2.640  0.7940 -0.1337  0.1621
 4403SOL    HW114108   0.469   0.367   2.737  3.2231  1.8127  1.0100
 4403SOL    HW214109   0.439   0.479   2.622 -1.8194 -1.5045 -1.2893
 4404SOL     OW14110   1.142   3.446   3.127  0.0988 -0.6084  0.6022
 4404SOL    HW114111   1.115   3.351   3.114 -1.3735 -0.2199  0.6137
 4404SOL    HW214112   1.095   3.483   3.207 -0.8651  0.6574 -0.4991
 4405SOL     OW14113   2.503   4.605   0.646 -0.1729 -0.3318  0.2590
 4405SOL    HW114114   2.427   4.554   0.606  1.5340 -1.4957 -1.7383
 4405SOL    HW214115   2.568   4.542   0.687  1.1210  0.3187 -0.6982
 4406SOL     OW14116   2.147   1.150   2.014  0.0841  0.2814 -0.4405
 4406SOL    HW114117   2.212   1.223   2.035 -0.1354  0.5678 -0.7486
 4406SOL    HW214118   2.055   1.180   2.037 -0.2587  0.8974 -2.4953
 4407SOL     OW14119   1.633   0.332   0.826 -0.1030 -0.2987 -0.8416
 4407SOL    HW114120   1.711   0.318   0.765 -0.3237  0.4618 -1.3022
 4407SOL    HW214121   1.661   0.387   0.904 -0.0762 -0.4005 -0.7784
 4408SOL     OW14122   5.396   6.108   3.346 -0.6449  0.1755 -0.4508
 4408SOL    HW114123   5.380   6.095   3.443  0.0675  2.6240  0.0763
 4408SOL    HW214124   5.313   6.143   3.303 -0.3094  1.2908 -0.2205
 4409SOL     OW14125   4.644   0.876   3.939 -0.1241  0.1327 -0.4709
 4409SOL    HW114126   4.654   0.935   4.020 -1.3595 -1.0594  0.6062
 4409SOL    HW214127   4.722   0.814   3.934 -0.6371 -0.6279  0.5648
 4410SOL     OW14128   3.617   5.287   1.318 -0.3740  0.2113  0.1522
 4410SOL    HW114129   3.686   5.226   1.279  0.1636 -0.0270  1.4229
 4410SOL    HW214130   3.597   5.360   1.254  1.6418  0.7342  0.0563
 4411SOL     OW14131   3.191   3.556   1.741 -0.8763 -0.9448 -0.5146
 4411SOL    HW114132   3.101   3.560   1.784 -0.5386 -2.8162  0.4878
 4411SOL    HW214133   3.205   3.465   1.701  1.8417 -2.0306  2.4607
 4412SOL     OW14134   2.293   1.320   6.782 -0.3153 -0.1611  0.5109
 4412SOL    HW114135   2.331   1.337   6.691  1.1120 -0.9469  0.9457
 4412SOL    HW214136   2.218   1.384   6.799 -0.6096 -0.0152 -1.2163
 4413SOL     OW14137   4.637   5.555   5.642  0.1036 -0.3603  0.3747
 4413SOL    HW114138   4.623   5.573   5.740 -0.0275  0.9313  0.1334
 4413SOL    HW214139   4.712   5.611   5.608 -1.4384  1.0774 -0.7950
 4414SOL     OW14140   3.895   4.904   2.012  0.4002 -0.2878 -0.5004
 4414SOL    HW114141   3.855   4.986   2.051 -0.1729  0.1988 -2.0326
 4414SOL    HW214142   3.823   4.837   1.994  0.7811 -0.8853  0.1557
 4415SOL     OW14143   5.984   1.276   1.906  0.0753  0.3829  0.2214
 4415SOL    HW114144   5.892   1.254   1.876 -0.2602  0.4775  1.1456
 4415SOL    HW214145   6.015   1.361   1.863 -0.4291  0.5638  0.2160
 4416SOL     OW14146   3.052   1.882   4.351 -0.6634 -0.4077  0.2446
 4416SOL    HW114147   3.041   1.809   4.283 -1.9557 -0.2434  0.2502
 4416SOL    HW214148   3.016   1.852   4.439 -1.9917  0.4923  0.0498
 4417SOL     OW14149   4.641   0.849   0.335  0.5376  0.6833  0.0369
 4417SOL    HW114150   4.558   0.876   0.287  0.7150 -0.4493 -0.9486
 4417SOL    HW214151   4.654   0.907   0.415 -0.1880  2.0854 -0.8377
 4418SOL     OW14152   3.260   0.473   4.142 -0.0821 -0.4319 -0.3732
 4418SOL    HW114153   3.175   0.524   4.126 -0.9480 -1.3027  1.2755
 4418SOL    HW214154   3.296   0.441   4.054 -1.3563  0.0915 -1.1205
 4419SOL     OW14155   5.539   4.850   6.685 -0.3813 -0.1293 -0.6924
 4419SOL    HW114156   5.532   4.871   6.588  0.3536 -0.5883 -0.8559
 4419SOL    HW214157   5.570   4.930   6.735 -1.8896  0.4669 -0.6470
 4420SOL     OW14158   4.788   1.378   1.361  0.0580 -0.0012 -0.1097
 4420SOL    HW114159   4.803   1.286   1.398  0.2944  0.4528  0.9555
 4420SOL    HW214160   4.787   1.444   1.436 -0.5612  0.8170 -0.8175
 4421SOL     OW14161   1.098   2.633   3.733  0.0134 -0.2596  0.3632
 4421SOL    HW114162   1.174   2.681   3.689 -0.3153 -1.4208 -1.6001
 4421SOL    HW214163   1.129   2.543   3.765 -0.2983 -0.3433  0.4318
 4422SOL     OW14164   2.403   4.626   5.892 -0.4678  0.1164 -0.1664
 4422SOL    HW114165   2.371   4.559   5.825  1.7874 -0.5019 -0.7248
 4422SOL    HW214166   2.373   4.717   5.865 -2.4575 -0.4670 -0.1146
 4423SOL     OW14167   6.890   0.404   5.661 -0.3464 -0.1107  0.5130
 4423SOL    HW114168   6.974   0.350   5.667 -2.3319 -4.5253 -4.1021
 4423SOL    HW214169   6.909   0.488   5.609  1.5453  0.1714  1.5623
 4424SOL     OW14170   1.739   5.733   2.525 -0.1707 -0.1703  0.0431
 4424SOL    HW114171   1.648   5.758   2.493  0.3531  1.7280 -0.0849
 4424SOL    HW214172   1.745   5.749   2.623  0.7723  2.2927 -0.3559
 4425SOL     OW14173   1.279   4.142   3.486  0.3227 -0.5319  0.3577
 4425SOL    HW114174   1.246   4.197   3.409  2.5017 -0.2328 -0.4463
 4425SOL    HW214175   1.346   4.075   3.453  1.3739 -0.3438  1.9757
 4426SOL     OW14176   2.044   5.922   5.395  0.5743  0.5541  0.0484
 4426SOL    HW114177   2.021   5.857   5.322  0.9889  0.1890  0.2371
 4426SOL    HW214178   1.996   5.896   5.479 -0.2841  1.2568 -0.2150
 4427SOL     OW14179   6.676   4.975   4.684 -0.5405  0.0290 -0.1470
 4427SOL    HW114180   6.682   5.010   4.778 -0.7927  1.0409 -0.4945
 4427SOL    HW214181   6.756   4.917   4.666 -0.1719  0.3133  0.5006
 4428SOL     OW14182   1.770   1.238   2.930 -0.3118  0.3294  0.4747
 4428SOL    HW114183   1.868   1.225   2.913 -0.1023  0.8483  1.2217
 4428SOL    HW214184   1.758   1.306   3.002 -1.2037 -0.4013  1.0356
 4429SOL     OW14185   3.521   0.999   2.198 -0.6050 -0.5669 -0.0301
 4429SOL    HW114186   3.574   1.082   2.184 -2.0216  0.2194 -0.9744
 4429SOL    HW214187   3.551   0.953   2.282 -2.5369  3.1425  3.0312
 4430SOL     OW14188   1.573   0.818   1.377 -0.3790  0.2274  0.5973
 4430SOL    HW114189   1.627   0.896   1.345  0.5259 -0.6282 -0.0174
 4430SOL    HW214190   1.483   0.821   1.334  0.4117 -0.2487 -1.1715
 4431SOL     OW14191   2.276   1.860   2.371  0.1547 -0.1495  0.2386
 4431SOL    HW114192   2.224   1.932   2.416  0.0579 -0.8117  1.1996
 4431SOL    HW214193   2.346   1.825   2.433  0.1845 -0.8980 -0.2033
 4432SOL     OW14194   3.331   3.769   3.608  0.6742 -0.2057  0.6323
 4432SOL    HW114195   3.268   3.738   3.679 -0.0563 -0.1638  0.0107
 4432SOL    HW214196   3.286   3.836   3.551  1.4595  0.2075  0.4856
 4433SOL     OW14197   5.727   0.127   0.730 -0.4544  0.2678  0.6179
 4433SOL    HW114198   5.640   0.079   0.718 -1.0058  1.3618  0.1150
 4433SOL    HW214199   5.746   0.183   0.649  1.6863 -1.4189 -0.1367
 4434SOL     OW14200   4.465   3.590   5.330  0.6742  0.0694 -0.1155
 4434SOL    HW114201   4.451   3.506   5.382 -1.2983 -0.7326 -1.7923
 4434SOL    HW214202   4.529   3.574   5.255  0.1524  0.0078 -0.5496
 4435SOL     OW14203   3.631   3.002   2.498 -1.0977 -0.6048  0.1570
 4435SOL    HW114204   3.599   3.063   2.426 -0.7588 -0.1242  0.4103
 4435SOL    HW214205   3.728   2.983   2.486 -1.0721 -0.6399  0.4009
 4436SOL     OW14206   5.828   0.611   0.687  0.1769  0.1465 -0.4602
 4436SOL    HW114207   5.821   0.568   0.597  0.1408 -0.7932 -0.0164
 4436SOL    HW214208   5.829   0.541   0.758 -0.6427  0.9062  0.3352
 4437SOL     OW14209   3.191   5.898   6.977 -0.4021 -0.0794  0.3220
 4437SOL    HW114210   3.177   5.944   6.889  0.5431  0.5607  0.4909
 4437SOL    HW214211   3.131   5.818   6.983 -0.2633 -0.3018 -1.0240
 4438SOL     OW14212   5.288   3.052   6.576 -0.2257  0.5760 -0.1005
 4438SOL    HW114213   5.189   3.052   6.590 -0.0416  0.1045  1.4606
 4438SOL    HW214214   5.334   3.056   6.665  1.1616 -3.8579 -0.3406
 4439SOL     OW14215   0.196   5.562   1.958  0.3114  0.0109  0.4005
 4439SOL    HW114216   0.227   5.563   1.863  1.6608 -1.3425  0.7836
 4439SOL    HW214217   0.259   5.617   2.014 -0.7048  1.1393  0.4813
 4440SOL     OW14218   5.556   0.593   0.859 -0.0217 -0.1467 -0.2702
 4440SOL    HW114219   5.610   0.601   0.943  0.3197  0.6577 -0.5566
 4440SOL    HW214220   5.596   0.651   0.788 -0.2026 -0.9612 -1.0486
 4441SOL     OW14221   0.118   1.799   2.522 -0.0461  0.2863  0.5639
 4441SOL    HW114222   0.043   1.815   2.458  0.9765  0.1691 -0.6946
 4441SOL    HW214223   0.204   1.790   2.472  0.9500  1.1719  2.0326
 4442SOL     OW14224   0.921   0.246   0.918  0.1343  0.1842 -0.4058
 4442SOL    HW114225   1.011   0.212   0.893  0.1106  0.5339 -0.9744
 4442SOL    HW214226   0.856   0.170   0.918  0.5664 -0.2074  0.7392
 4443SOL     OW14227   2.197   6.236   0.695  0.0498 -0.9944  0.1600
 4443SOL    HW114228   2.141   6.162   0.731 -0.8474  0.2653  1.4543
 4443SOL    HW214229   2.146   6.285   0.624 -0.0946 -0.5036  0.5928
 4444SOL     OW14230   4.970   1.655   2.555  0.0060 -0.1571 -0.1106
 4444SOL    HW114231   4.981   1.565   2.512  0.0423 -0.0885 -0.2433
 4444SOL    HW214232   4.882   1.694   2.530  1.0135  0.9671 -2.1294
 4445SOL     OW14233   2.137   1.962   5.078 -0.1385 -0.6350  0.3426
 4445SOL    HW114234   2.083   2.019   5.016 -1.1377 -0.8640  0.9800
 4445SOL    HW214235   2.116   1.986   5.173 -0.3683 -1.8542  0.6203
 4446SOL     OW14236   5.577   4.471   4.332 -0.0260 -0.1662 -0.3726
 4446SOL    HW114237   5.581   4.554   4.276  1.8910  0.2131  0.2798
 4446SOL    HW214238   5.482   4.440   4.338 -0.7505  1.8356 -0.8348
 4447SOL     OW14239   5.877   3.860   5.302  0.1546 -0.1999 -0.3282
 4447SOL    HW114240   5.858   3.958   5.307  3.1637  0.4444  0.3117
 4447SOL    HW214241   5.826   3.820   5.226  0.5012  2.3303 -2.0248
 4448SOL     OW14242   1.518   1.821   0.351  0.2660  0.1868 -0.0692
 4448SOL    HW114243   1.457   1.808   0.272 -0.0301 -0.0654  0.1979
 4448SOL    HW214244   1.493   1.756   0.422  0.1940  0.7635  0.4378
 4449SOL     OW14245   0.384   1.675   6.816 -0.3396 -0.2376 -0.0638
 4449SOL    HW114246   0.421   1.756   6.770 -0.7234  2.9372  4.4849
 4449SOL    HW214247   0.459   1.611   6.835  0.5896  0.4755 -1.1657
 4450SOL     OW14248   3.480   4.117   2.357 -0.1596  0.0136  0.6496
 4450SOL    HW114249   3.479   4.018   2.371  0.7389 -0.1367 -0.2481
 4450SOL    HW214250   3.455   4.137   2.262 -2.0614  0.7673  1.2509
 4451SOL     OW14251   6.630   5.424   0.895  0.7145  0.4082 -0.3607
 4451SOL    HW114252   6.720   5.401   0.859  1.0505  0.0035  0.6861
 4451SOL    HW214253   6.621   5.524   0.900  0.5802  0.4731 -1.7073
 4452SOL     OW14254   0.276   2.704   5.011 -0.1626 -0.0625  0.4751
 4452SOL    HW114255   0.179   2.681   5.020 -0.4332  0.9962  0.4998
 4452SOL    HW214256   0.326   2.673   5.091 -0.5476 -0.2955  0.6287
 4453SOL     OW14257   6.328   6.382   1.754 -0.3194  0.1082 -0.0550
 4453SOL    HW114258   6.369   6.291   1.741 -2.0548 -0.9463  1.3584
 4453SOL    HW214259   6.374   6.428   1.830 -1.2385 -0.7837  1.0742
 4454SOL     OW14260   5.941   3.104   1.672 -0.3403  0.0534  0.3083
 4454SOL    HW114261   5.951   3.006   1.655 -2.3083 -0.1155 -0.0570
 4454SOL    HW214262   5.912   3.150   1.588  1.3741  1.1324  0.2394
 4455SOL     OW14263   4.831   1.991   0.835  0.5396  0.0108  0.3336
 4455SOL    HW114264   4.764   1.920   0.860 -0.3568  0.9228  0.5834
 4455SOL    HW214265   4.783   2.077   0.816  1.6668  0.7653  0.7966
 4456SOL     OW14266   5.683   6.502   3.326  0.0525  0.6202 -0.0707
 4456SOL    HW114267   5.665   6.422   3.383 -1.6855  1.1451  0.1676
 4456SOL    HW214268   5.650   6.485   3.233 -0.8232  1.2382  0.1151
 4457SOL     OW14269   4.578   2.228   4.686 -0.2093  0.2096  0.0970
 4457SOL    HW114270   4.520   2.270   4.757 -1.7646 -1.3844 -0.1797
 4457SOL    HW214271   4.608   2.138   4.717 -0.8371 -0.4693 -1.2423
 4458SOL     OW14272   3.856   0.090   1.696  0.5618  0.5663 -0.0918
 4458SOL    HW114273   3.929   0.049   1.750  0.0920  0.4350  0.4513
 4458SOL    HW214274   3.785   0.127   1.757 -0.6668 -0.8411 -0.6088
 4459SOL     OW14275   0.282   5.886   6.462 -0.0037 -0.0439 -0.7628
 4459SOL    HW114276   0.332   5.973   6.474  1.4456 -0.9121 -0.1669
 4459SOL    HW214277   0.186   5.900   6.485  0.4303  1.1419  0.5466
 4460SOL     OW14278   0.994   5.549   0.097  0.4293  0.0968 -0.0144
 4460SOL    HW114279   1.011   5.564   0.195  1.0848  0.1196 -0.1310
 4460SOL    HW214280   0.897   5.567   0.078  0.4327  0.7321  0.5095
 4461SOL     OW14281   3.359   0.044   1.687  0.3178 -0.2113  0.3259
 4461SOL    HW114282   3.293   0.074   1.619  0.0981 -2.1211 -0.3740
 4461SOL    HW214283   3.433  -0.006   1.641  1.8902  1.2404  1.1703
 4462SOL     OW14284   6.143   3.864   0.750 -0.2001  0.1293 -0.1703
 4462SOL    HW114285   6.196   3.832   0.829  0.4876 -0.9641 -1.0418
 4462SOL    HW214286   6.067   3.801   0.733 -0.2804  0.2995 -0.4513
 4463SOL     OW14287   6.919   3.348   5.547  0.2261  0.1402  0.2842
 4463SOL    HW114288   6.858   3.415   5.589  0.0863  2.1128 -2.7393
 4463SOL    HW214289   6.868   3.265   5.527 -0.4225  0.2760  1.2839
 4464SOL     OW14290   5.199   4.671   2.221  0.2399  0.4129  0.3345
 4464SOL    HW114291   5.116   4.722   2.246  0.2632  0.6111  0.0166
 4464SOL    HW214292   5.231   4.702   2.131 -0.6684 -1.2812 -0.6310
 4465SOL     OW14293   4.860   4.216   1.269  0.4927  0.3202  0.1510
 4465SOL    HW114294   4.825   4.160   1.194 -0.3405  1.9691 -0.7552
 4465SOL    HW214295   4.959   4.202   1.278  0.3565 -1.0187 -0.2522
 4466SOL     OW14296   6.857   2.519   3.001  0.2082  0.1780 -0.1630
 4466SOL    HW114297   6.955   2.508   2.987  0.7227  2.7711  0.8939
 4466SOL    HW214298   6.820   2.580   2.931 -0.6798 -0.7868 -0.5591
 4467SOL     OW14299   2.849   1.504   5.766  0.0451 -0.2260 -0.1244
 4467SOL    HW114300   2.885   1.522   5.674  0.2100 -0.2443 -0.0637
 4467SOL    HW214301   2.924   1.474   5.825  0.2970  1.4683  0.4867
 4468SOL     OW14302   1.416   0.386   0.622  0.3599  0.1425  0.7670
 4468SOL    HW114303   1.359   0.308   0.648 -0.5498  0.4337 -0.2976
 4468SOL    HW214304   1.503   0.381   0.672  0.8809 -2.3013 -0.2042
 4469SOL     OW14305   5.257   6.656   6.849  0.1492 -0.1048  0.2799
 4469SOL    HW114306   5.247   6.740   6.796  0.2731  0.4149  1.0768
 4469SOL    HW214307   5.225   6.671   6.942  1.4117 -0.5497  0.8109
 4470SOL     OW14308   5.701   4.349   1.343 -0.1466  0.2251 -0.3506
 4470SOL    HW114309   5.601   4.361   1.342 -0.4078 -1.6045  0.2044
 4470SOL    HW214310   5.743   4.420   1.287 -1.6175  2.0790  0.7745
 4471SOL     OW14311   6.928   2.449   1.223 -0.3545 -0.3085 -0.8647
 4471SOL    HW114312   6.853   2.457   1.289  0.2128  0.9711 -0.3534
 4471SOL    HW214313   6.906   2.499   1.140 -0.9221 -1.6381 -1.5402
 4472SOL     OW14314   2.346   5.529   1.241 -0.0470 -0.4370  0.2341
 4472SOL    HW114315   2.275   5.461   1.226 -1.3260  0.7818  0.4810
 4472SOL    HW214316   2.362   5.579   1.155 -0.4039  0.1171  0.4835
 4473SOL     OW14317   5.305   0.133   5.607  0.0524  0.0948 -0.3880
 4473SOL    HW114318   5.210   0.123   5.639 -0.0260 -1.0621 -0.9407
 4473SOL    HW214319   5.367   0.129   5.685 -0.2069 -1.6511 -0.2432
 4474SOL     OW14320   5.542   1.476   4.017  0.3136 -0.0325  0.2029
 4474SOL    HW114321   5.610   1.490   3.945 -2.0455 -1.2659 -2.4988
 4474SOL    HW214322   5.586   1.444   4.100  3.2793  2.0585 -0.4132
 4475SOL     OW14323   2.342   3.298   0.131 -0.2525  0.0125  0.2766
 4475SOL    HW114324   2.392   3.375   0.171 -0.9382  1.8078 -2.0884
 4475SOL    HW214325   2.244   3.313   0.142 -0.4548  0.5322 -1.8956
 4476SOL     OW14326   4.049   5.742   2.365  0.2536  0.4683  0.0424
 4476SOL    HW114327   4.106   5.661   2.354  1.1679  0.9524  0.9656
 4476SOL    HW214328   4.068   5.806   2.289 -0.9745 -0.4433 -1.0625
 4477SOL     OW14329   0.518   3.291   1.707  0.3702  0.2433  0.0694
 4477SOL    HW114330   0.596   3.331   1.755 -1.6124  1.5511  2.3964
 4477SOL    HW214331   0.528   3.192   1.703  1.5866  0.2807  1.4144
 4478SOL     OW14332   1.037   4.003   6.836 -0.2949  0.4513  0.0097
 4478SOL    HW114333   0.939   4.022   6.845 -0.4752 -0.9224  1.5901
 4478SOL    HW214334   1.057   3.972   6.743 -1.5936 -0.3198 -0.0413
 4479SOL     OW14335   1.258   6.799   1.042  0.2238  0.4277  0.7401
 4479SOL    HW114336   1.161   6.789   1.063  0.4315  0.2445  1.6162
 4479SOL    HW214337   1.268   6.831   0.947 -0.6641 -0.2857  0.3866
 4480SOL     OW14338   6.712   1.952   2.587 -0.1670  0.7667 -0.0738
 4480SOL    HW114339   6.640   2.012   2.553  1.9873  3.2681 -0.5202
 4480SOL    HW214340   6.729   1.972   2.684  1.3797  1.8098 -0.5308
 4481SOL     OW14341   6.318   6.450   2.924  0.5888 -0.2763  0.1180
 4481SOL    HW114342   6.220   6.430   2.926  0.8271 -1.6333 -0.4710
 4481SOL    HW214343   6.333   6.541   2.887 -0.3676 -1.0242 -2.3265
 4482SOL     OW14344   0.808   3.121   3.366  0.3312 -0.2354  0.2830
 4482SOL    HW114345   0.779   3.212   3.336  2.1012  0.0684 -0.6337
 4482SOL    HW214346   0.886   3.130   3.428 -0.3172 -1.1024  1.2698
 4483SOL     OW14347   6.889   3.945   0.641  0.4445  0.6171  0.0489
 4483SOL    HW114348   6.955   4.020   0.652  0.2079  1.0130 -1.0397
 4483SOL    HW214349   6.933   3.869   0.594  0.2556  0.7075 -0.2785
 4484SOL     OW14350   4.795   3.251   6.698  0.4952 -0.2450 -0.0949
 4484SOL    HW114351   4.723   3.280   6.762 -0.3865  2.3899 -2.1177
 4484SOL    HW214352   4.760   3.176   6.642 -0.2976  0.2816 -0.3243
 4485SOL     OW14353   3.586   0.256   0.094 -0.3022 -0.4796  0.3318
 4485SOL    HW114354   3.625   0.193   0.160 -0.9006  0.1129  1.2708
 4485SOL    HW214355   3.486   0.258   0.104 -0.4941 -1.0681 -1.2055
 4486SOL     OW14356   6.548   5.693   5.379 -0.6556 -0.0560 -0.4872
 4486SOL    HW114357   6.633   5.746   5.372 -0.6397 -0.0831 -0.4992
 4486SOL    HW214358   6.552   5.615   5.318  0.1485 -1.1991  0.9686
 4487SOL     OW14359   5.138   1.665   1.094 -0.2395  0.1553  0.0372
 4487SOL    HW114360   5.128   1.570   1.121  1.9864 -0.1798 -0.1148
 4487SOL    HW214361   5.130   1.724   1.174 -0.1883 -0.2869  0.3689
 4488SOL     OW14362   6.234   2.853   6.296  0.8625 -0.0466 -0.2660
 4488SOL    HW114363   6.179   2.782   6.252  0.6673 -0.6085  0.8252
 4488SOL    HW214364   6.331   2.829   6.290  0.8593  0.0245 -0.6225
 4489SOL     OW14365   0.202   2.024   5.148 -0.0203  0.2844  1.0747
 4489SOL    HW114366   0.122   1.971   5.117  1.1095 -0.7869 -0.1507
 4489SOL    HW214367   0.283   1.995   5.097  1.5680  0.0256  3.5678
 4490SOL     OW14368   1.540   2.552   1.647  0.1500 -0.0674 -0.4409
 4490SOL    HW114369   1.543   2.565   1.746 -2.4507  2.2604 -0.5548
 4490SOL    HW214370   1.610   2.611   1.604  1.3714 -1.1794 -0.0425
 4491SOL     OW14371   2.130   6.067   4.534  0.3015 -0.0060 -0.0323
 4491SOL    HW114372   2.200   6.057   4.463  0.6363 -2.1461  0.5236
 4491SOL    HW214373   2.145   6.152   4.584  1.8941  0.0558 -0.5626
 4492SOL     OW14374   5.324   3.984   4.866 -0.2024 -0.0663  0.3324
 4492SOL    HW114375   5.240   4.011   4.913 -0.3507 -0.3779  0.2507
 4492SOL    HW214376   5.340   3.886   4.880 -0.3118 -0.1886 -0.3562
 4493SOL     OW14377   6.695   5.178   4.142 -0.4515 -0.2963  0.3734
 4493SOL    HW114378   6.712   5.260   4.198 -0.7449  0.6123 -0.8304
 4493SOL    HW214379   6.717   5.198   4.047 -1.7926 -1.1978 -0.1527
 4494SOL     OW14380   4.698   2.315   2.800 -0.0303  0.5267 -0.4029
 4494SOL    HW114381   4.794   2.286   2.805 -0.5289 -1.0690  0.8497
 4494SOL    HW214382   4.646   2.270   2.873 -2.1744 -0.3570 -2.3624
 4495SOL     OW14383   5.187   4.782   1.893 -0.0379  0.2392  0.6615
 4495SOL    HW114384   5.169   4.867   1.942  0.4449  0.5922  0.2394
 4495SOL    HW214385   5.162   4.792   1.797  1.0142  0.2749  0.3715
 4496SOL     OW14386   6.270   3.464   0.412 -0.0288 -0.2783  0.5135
 4496SOL    HW114387   6.233   3.544   0.364  0.0578 -0.5407  0.0022
 4496SOL    HW214388   6.229   3.381   0.375  1.6741 -0.6471 -0.6961
 4497SOL     OW14389   6.097   6.598   0.914 -0.6612 -0.0656  0.0167
 4497SOL    HW114390   6.112   6.501   0.897  0.2576 -0.2163  1.5360
 4497SOL    HW214391   6.061   6.641   0.831 -1.4263 -1.7554 -0.5690
 4498SOL     OW14392   0.670   5.496   0.048 -0.3083 -0.2713  0.0925
 4498SOL    HW114393   0.618   5.459  -0.030 -0.1486 -1.2865  0.4604
 4498SOL    HW214394   0.656   5.438   0.128 -0.5870  0.8391  0.8845
 4499SOL     OW14395   4.835   2.969   0.091  0.6074 -0.4330  0.9011
 4499SOL    HW114396   4.845   2.915   0.008 -2.5662  2.4916 -1.6434
 4499SOL    HW214397   4.900   3.045   0.090  1.4776 -1.1219  1.8806
 4500SOL     OW14398   3.454   3.890   1.706  0.2403  0.1398 -0.4353
 4500SOL    HW114399   3.408   3.836   1.635  1.0478  0.8042 -1.4962
 4500SOL    HW214400   3.496   3.970   1.664 -1.4386  1.9623  1.1533
 4501SOL     OW14401   1.394   5.102   5.646 -0.7000 -0.3474  0.6334
 4501SOL    HW114402   1.343   5.156   5.713 -1.6782  0.2044 -0.5138
 4501SOL    HW214403   1.372   5.005   5.656 -0.7023 -0.2858  1.2177
 4502SOL     OW14404   5.792   3.867   0.150  0.1533  0.7079  0.5438
 4502SOL    HW114405   5.805   3.825   0.060  1.0989  1.0151  0.5228
 4502SOL    HW214406   5.719   3.820   0.199  0.4213 -0.2299  0.0725
 4503SOL     OW14407   0.092   3.845   2.827  0.2953 -0.3831  0.1875
 4503SOL    HW114408   0.052   3.883   2.910 -0.8970  0.0985 -0.5836
 4503SOL    HW214409   0.192   3.846   2.834  0.2632  1.5638  0.7703
 4504SOL     OW14410   6.761   1.646   2.598  0.1445  0.4163  0.0026
 4504SOL    HW114411   6.807   1.621   2.683  0.7723 -0.7536 -0.6591
 4504SOL    HW214412   6.759   1.746   2.589 -1.3876  0.6509  2.1529
 4505SOL     OW14413   3.781   5.843   0.278 -0.3954 -0.0417 -0.1404
 4505SOL    HW114414   3.756   5.927   0.325  0.3155  0.7918 -1.1834
 4505SOL    HW214415   3.834   5.784   0.339 -1.3340  0.0210  0.7559
 4506SOL     OW14416   3.432   6.395   5.741  0.0883 -0.2100  0.2773
 4506SOL    HW114417   3.341   6.408   5.781  0.3536 -1.5400  1.4114
 4506SOL    HW214418   3.501   6.433   5.803  0.4137 -0.9641  0.3848
 4507SOL     OW14419   4.853   4.947   3.843 -0.1015  1.0506 -0.9238
 4507SOL    HW114420   4.807   4.917   3.760  0.5673 -0.1362 -0.8984
 4507SOL    HW214421   4.841   5.045   3.855 -0.2446  1.2371 -2.4038
 4508SOL     OW14422   0.567   4.883   1.392 -0.4065  0.2898  0.1749
 4508SOL    HW114423   0.540   4.962   1.337  1.1765 -0.6640 -2.1820
 4508SOL    HW214424   0.644   4.907   1.450 -1.1540  0.9379  0.9216
 4509SOL     OW14425   6.991   3.016   4.777 -1.0026 -0.0147  0.1335
 4509SOL    HW114426   7.056   2.951   4.816  0.2563  0.7320 -0.6453
 4509SOL    HW214427   6.950   2.976   4.694 -2.3821 -0.9070  1.1951
 4510SOL     OW14428   0.953   0.886   0.602 -0.1004 -0.0071  0.2154
 4510SOL    HW114429   0.924   0.830   0.524 -1.1835  1.6697 -0.6282
 4510SOL    HW214430   1.043   0.926   0.582  0.0984 -0.3998  0.2948
 4511SOL     OW14431   0.475   2.864   5.810  0.4125 -0.2300  0.5384
 4511SOL    HW114432   0.427   2.902   5.730 -2.5743 -2.3607  1.1399
 4511SOL    HW214433   0.570   2.844   5.785  0.4024  1.8094 -1.5477
 4512SOL     OW14434   1.775   4.132   6.153  0.8832  0.2711 -0.0387
 4512SOL    HW114435   1.764   4.042   6.111 -2.3762  0.4309  0.1917
 4512SOL    HW214436   1.806   4.121   6.248  3.6538 -0.3407 -0.9375
 4513SOL     OW14437   5.498   2.251   1.289 -0.3920 -0.4069  0.1648
 4513SOL    HW114438   5.575   2.215   1.238  1.4326  3.2286  0.0406
 4513SOL    HW214439   5.413   2.211   1.253  1.1076 -1.4298 -2.5584
 4514SOL     OW14440   0.929   0.005   6.063  0.2118 -0.2665  0.2786
 4514SOL    HW114441   0.980  -0.079   6.048  1.3131  0.4801 -0.3147
 4514SOL    HW214442   0.855  -0.012   6.128 -0.2225 -1.9131 -0.5976
 4515SOL     OW14443   5.880   2.941   6.830 -0.3124  0.4499 -0.8602
 4515SOL    HW114444   5.952   2.962   6.897 -2.5685  1.8834  1.2684
 4515SOL    HW214445   5.867   2.842   6.825  1.3533  0.1972 -0.8385
 4516SOL     OW14446   6.132   1.328   3.546 -0.1114 -0.3426  0.0556
 4516SOL    HW114447   6.194   1.330   3.468 -0.8019 -1.2408 -0.5484
 4516SOL    HW214448   6.143   1.241   3.594  0.0153  0.0375  0.7161
 4517SOL     OW14449   1.129   6.771   0.015 -0.1673 -0.3671 -0.0543
 4517SOL    HW114450   1.134   6.744  -0.081  0.3277  0.8484 -0.3946
 4517SOL    HW214451   1.039   6.746   0.052 -1.4062  1.4638 -1.5928
 4518SOL     OW14452   1.669   0.956   6.076  0.3112 -0.0721 -0.1393
 4518SOL    HW114453   1.703   1.018   6.147 -2.4742 -0.7543  1.9529
 4518SOL    HW214454   1.695   0.862   6.099 -1.6266 -0.4381  0.7360
 4519SOL     OW14455   0.746   3.534   0.269 -0.4498 -0.1055  0.1383
 4519SOL    HW114456   0.782   3.454   0.316 -0.8488 -0.1756  0.3302
 4519SOL    HW214457   0.754   3.522   0.170  0.3044  0.0005  0.1820
 4520SOL     OW14458   0.092   4.152   3.644  0.0492  0.4867  0.0402
 4520SOL    HW114459   0.083   4.250   3.658 -4.2557  0.0468  2.2136
 4520SOL    HW214460   0.167   4.117   3.701  0.5576  2.2702  0.5365
 4521SOL     OW14461   4.647   0.531   6.034 -0.5728  0.6368 -0.2446
 4521SOL    HW114462   4.600   0.615   6.059 -0.6057  0.0913  1.6698
 4521SOL    HW214463   4.579   0.457   6.024 -0.3787  0.4621 -0.2771
 4522SOL     OW14464   5.459   6.273   3.760  0.6727 -0.0101  0.3964
 4522SOL    HW114465   5.434   6.216   3.682 -1.1722 -0.0247  0.9506
 4522SOL    HW214466   5.376   6.301   3.808  1.7625  0.0575  2.3213
 4523SOL     OW14467   4.492   1.350   4.718  0.2078 -0.4450 -0.1785
 4523SOL    HW114468   4.438   1.430   4.693  0.5602  0.4009  1.6704
 4523SOL    HW214469   4.477   1.278   4.649 -1.3979  0.5869 -0.9839
 4524SOL     OW14470   5.131   3.024   4.030 -0.4254  0.1908 -0.1069
 4524SOL    HW114471   5.103   2.932   4.057 -1.3311 -0.0255 -1.6403
 4524SOL    HW214472   5.055   3.088   4.042 -0.4277  0.3426 -0.8319
 4525SOL     OW14473   1.515   2.952   2.945 -0.0348 -0.0331  0.0919
 4525SOL    HW114474   1.564   2.937   2.859 -0.7177  0.0182 -0.3119
 4525SOL    HW214475   1.550   3.034   2.990 -0.2779  0.4543 -0.5833
 4526SOL     OW14476   1.229   1.665   1.087  0.3055 -0.3387 -0.7524
 4526SOL    HW114477   1.156   1.718   1.132 -0.6333 -1.9259 -0.3118
 4526SOL    HW214478   1.240   1.696   0.993 -0.8938  0.0083 -0.7988
 4527SOL     OW14479   3.419   6.211   1.585 -0.1441  0.1912  0.1760
 4527SOL    HW114480   3.406   6.234   1.489  0.7168  2.9204  0.6261
 4527SOL    HW214481   3.446   6.115   1.593  2.9302  0.6173 -2.6521
 4528SOL     OW14482   4.135   0.173   6.843 -0.3347  0.3268 -0.3761
 4528SOL    HW114483   4.087   0.110   6.904  2.8896  0.1873  2.2812
 4528SOL    HW214484   4.177   0.121   6.768 -0.6287 -0.1389 -0.2222
 4529SOL     OW14485   3.389   6.817   3.274  0.3869 -0.3904 -0.7582
 4529SOL    HW114486   3.440   6.733   3.295 -0.1808 -0.3839  0.7700
 4529SOL    HW214487   3.296   6.793   3.246 -0.4093 -0.2790  1.5513
 4530SOL     OW14488   6.483   2.915   4.169  0.1661 -0.2873  0.3516
 4530SOL    HW114489   6.554   2.850   4.140  0.2209 -0.2863  0.4822
 4530SOL    HW214490   6.445   2.886   4.257 -1.2664 -1.2833 -0.5670
 4531SOL     OW14491   5.879   5.361   2.230  0.3002  0.0038  0.0228
 4531SOL    HW114492   5.954   5.299   2.250 -0.7742 -1.3542 -0.0105
 4531SOL    HW214493   5.796   5.309   2.212 -0.7664  1.4647  0.4666
 4532SOL     OW14494   1.708   3.232   0.525 -0.3999  0.7320  0.0525
 4532SOL    HW114495   1.757   3.312   0.561 -0.6732  1.1577 -0.4893
 4532SOL    HW214496   1.654   3.260   0.446  1.0252 -0.3655 -1.3816
 4533SOL     OW14497   1.791   4.482   2.804 -0.3164 -0.2789  0.4553
 4533SOL    HW114498   1.842   4.532   2.874  0.8762 -1.5922  0.5682
 4533SOL    HW214499   1.804   4.384   2.816  1.5494 -0.5757 -2.6888
 4534SOL     OW14500   6.620   3.325   0.121 -0.7870  0.4949  0.3430
 4534SOL    HW114501   6.598   3.419   0.147 -2.8075  0.2328 -0.2343
 4534SOL    HW214502   6.608   3.314   0.022  3.2311  0.5463 -0.3202
 4535SOL     OW14503   3.327   2.036   2.009 -0.1387 -0.3357 -0.3259
 4535SOL    HW114504   3.264   1.961   2.031 -0.1649 -0.0201  0.7082
 4535SOL    HW214505   3.403   2.000   1.954 -1.4167 -0.6458 -1.9936
 4536SOL     OW14506   5.577   6.298   2.299 -0.2596 -0.0551 -0.3818
 4536SOL    HW114507   5.543   6.212   2.261  1.0108 -0.6504 -0.2490
 4536SOL    HW214508   5.652   6.332   2.243  0.1295  0.2522  0.3047
 4537SOL     OW14509   4.567   2.048   5.848  0.3050 -0.2301 -0.0751
 4537SOL    HW114510   4.628   1.979   5.887 -0.2564 -1.0050 -0.5302
 4537SOL    HW214511   4.522   2.098   5.922 -0.0926 -1.0938  0.2806
 4538SOL     OW14512   3.129   1.238   2.606  0.3352 -0.7226  0.3076
 4538SOL    HW114513   3.059   1.309   2.614  0.3085 -0.7814  0.6374
 4538SOL    HW214514   3.143   1.215   2.510  1.1576  0.5265  0.1061
 4539SOL     OW14515   2.626   3.333   1.762 -0.5428 -0.1532 -0.3554
 4539SOL    HW114516   2.546   3.387   1.785  0.7102  2.1900 -1.1434
 4539SOL    HW214517   2.599   3.238   1.746 -3.1236  0.5449 -0.5661
 4540SOL     OW14518   4.047   3.191   4.211  0.2658  0.1251 -0.1302
 4540SOL    HW114519   4.070   3.102   4.250  0.4916  0.1453 -0.2179
 4540SOL    HW214520   3.996   3.178   4.126 -1.8992  0.0630  1.1104
 4541SOL     OW14521   2.020   1.136   2.365 -0.5009 -0.0311  0.4995
 4541SOL    HW114522   2.114   1.106   2.351 -0.2151  1.2484 -0.4857
 4541SOL    HW214523   1.980   1.085   2.442  0.8368 -0.8917  0.6613
 4542SOL     OW14524   6.911   5.515   3.365  0.7626 -0.8719  0.1213
 4542SOL    HW114525   6.851   5.523   3.445  1.5269 -0.5406  0.6741
 4542SOL    HW214526   6.876   5.444   3.304 -0.0545 -0.8505  0.5473
 4543SOL     OW14527   5.279   3.419   2.537 -0.5744 -0.1987 -0.0272
 4543SOL    HW114528   5.274   3.438   2.635  1.0522 -0.4591  0.1347
 4543SOL    HW214529   5.305   3.324   2.523  0.0404  0.0572 -0.6944
 4544SOL     OW14530   6.613   3.412   0.938  0.2025  0.6026 -0.3763
 4544SOL    HW114531   6.657   3.447   0.856  0.4218  3.5580  0.8574
 4544SOL    HW214532   6.681   3.401   1.011 -0.2322 -0.4372 -0.1006
 4545SOL     OW14533   5.266   4.559   6.055  0.1893  0.2170 -0.7357
 4545SOL    HW114534   5.304   4.469   6.074  0.8434  0.5078 -0.6388
 4545SOL    HW214535   5.316   4.628   6.108 -2.5266  0.3078  2.0173
 4546SOL     OW14536   1.619   0.030   1.105 -0.0633  0.2376  0.3015
 4546SOL    HW114537   1.703   0.080   1.082  2.6146 -2.2185  3.6825
 4546SOL    HW214538   1.613  -0.052   1.048 -0.8106  0.9506 -0.6715
 4547SOL     OW14539   3.553   1.760   3.909 -0.3785 -0.0273  0.5769
 4547SOL    HW114540   3.508   1.707   3.837 -0.1068  0.0180  0.3732
 4547SOL    HW214541   3.484   1.816   3.957 -0.2682  1.6036 -1.0673
 4548SOL     OW14542   1.385   2.731   5.619 -0.3893  0.2068  0.3956
 4548SOL    HW114543   1.397   2.752   5.522  0.1248  0.5725  0.5293
 4548SOL    HW214544   1.423   2.640   5.638  0.0507  0.3800  0.3627
 4549SOL     OW14545   0.465   1.785   1.439  0.0087 -0.0203 -0.9051
 4549SOL    HW114546   0.536   1.718   1.419  0.7693  0.4340  0.2004
 4549SOL    HW214547   0.501   1.855   1.500 -1.6619 -0.3158  0.5026
 4550SOL     OW14548   0.922   5.774   4.223  0.0268  0.4067 -0.3999
 4550SOL    HW114549   0.826   5.781   4.249 -0.6897 -0.8395 -2.5157
 4550SOL    HW214550   0.936   5.695   4.164  2.7696 -0.6630  1.4696
 4551SOL     OW14551   0.027   3.201   1.566  0.1732 -0.1422 -0.2436
 4551SOL    HW114552  -0.046   3.270   1.564  0.2536 -0.0382  0.3231
 4551SOL    HW214553   0.112   3.242   1.534  0.3401  0.1721  0.5732
 4552SOL     OW14554   6.544   5.497   5.190 -0.1464 -0.2445  0.3607
 4552SOL    HW114555   6.457   5.449   5.177 -0.4483  0.5195 -0.5376
 4552SOL    HW214556   6.595   5.497   5.105  0.4746 -0.1595  0.7273
 4553SOL     OW14557   4.767   5.306   6.214 -0.4354 -0.2433  0.2833
 4553SOL    HW114558   4.831   5.242   6.256 -0.0390 -0.2296 -0.2887
 4553SOL    HW214559   4.751   5.383   6.276 -1.7410 -1.3982  1.4370
 4554SOL     OW14560   0.709   5.298   3.737  0.2086 -0.2513  0.1026
 4554SOL    HW114561   0.764   5.370   3.696  0.3250  0.2862  1.1617
 4554SOL    HW214562   0.618   5.333   3.758  0.0454 -0.6123  0.0019
 4555SOL     OW14563   4.446   2.473   5.939 -0.1908 -0.1423  0.1470
 4555SOL    HW114564   4.509   2.536   5.983  1.5744 -2.2707  0.7913
 4555SOL    HW214565   4.493   2.424   5.866 -1.0230 -1.8626  0.7130
 4556SOL     OW14566   3.933   6.800   4.330  0.1440  0.5680 -0.0505
 4556SOL    HW114567   3.856   6.863   4.336 -0.9445 -0.5734 -1.2440
 4556SOL    HW214568   3.919   6.737   4.254  2.5741  0.6950 -0.7024
 4557SOL     OW14569   0.540   2.901   3.051  0.1173 -0.0720  0.9174
 4557SOL    HW114570   0.527   2.906   3.150  0.5143  1.1713  0.9226
 4557SOL    HW214571   0.562   2.992   3.016 -3.1752  0.2157 -0.7818
 4558SOL     OW14572   0.416   3.979   1.670  0.0177  0.4585  0.0819
 4558SOL    HW114573   0.481   3.903   1.662 -0.0819  0.5312 -1.7838
 4558SOL    HW214574   0.378   4.000   1.580 -2.3261  0.6800  1.0573
 4559SOL     OW14575   2.017   6.655   1.224  0.1438 -0.2179 -0.1558
 4559SOL    HW114576   1.931   6.608   1.249  1.0677 -2.1402 -0.3874
 4559SOL    HW214577   2.075   6.662   1.305 -0.2012  1.0488 -0.0076
 4560SOL     OW14578   6.510   0.630   3.957 -0.4542 -0.4689  0.2215
 4560SOL    HW114579   6.602   0.608   3.926 -0.2776 -0.0695  0.4637
 4560SOL    HW214580   6.514   0.689   4.038 -0.9164 -0.2708  0.1070
 4561SOL     OW14581   3.851   6.350   6.229  0.0025 -0.5253  0.3892
 4561SOL    HW114582   3.898   6.315   6.311  0.2970 -1.2099 -0.0617
 4561SOL    HW214583   3.812   6.274   6.178 -0.2372 -0.0936 -0.0769
 4562SOL     OW14584   3.143   4.113   5.179  0.4685 -0.0063  0.4901
 4562SOL    HW114585   3.128   4.027   5.129  2.1019  0.2239 -0.4576
 4562SOL    HW214586   3.097   4.188   5.132 -0.4178 -0.2331  0.9649
 4563SOL     OW14587   1.466   2.546   1.123  0.3184 -0.6967  0.1253
 4563SOL    HW114588   1.523   2.529   1.042  1.9264  0.1570  1.0440
 4563SOL    HW214589   1.516   2.602   1.189 -0.7175 -1.8987  2.0267
 4564SOL     OW14590   5.419   5.195   6.257 -0.2222  0.1914  0.3924
 4564SOL    HW114591   5.356   5.225   6.186  1.7388  0.0782 -1.4812
 4564SOL    HW214592   5.497   5.149   6.216 -0.3097 -2.3819  2.8097
 4565SOL     OW14593   3.880   0.448   4.524 -0.2771 -0.0308 -0.2242
 4565SOL    HW114594   3.780   0.446   4.518 -0.3976 -0.6463  1.4153
 4565SOL    HW214595   3.918   0.369   4.476 -0.7773 -1.3172  1.3733
 4566SOL     OW14596   2.219   1.280   1.638 -0.4363 -0.6993  0.1237
 4566SOL    HW114597   2.260   1.193   1.609 -1.5459 -1.1862 -0.0263
 4566SOL    HW214598   2.192   1.332   1.557  0.1092 -0.2704  0.2166
 4567SOL     OW14599   5.772   2.649   1.371  0.0362  0.2249 -0.1861
 4567SOL    HW114600   5.773   2.734   1.318  0.3511 -0.5270 -1.4366
 4567SOL    HW214601   5.695   2.650   1.434  1.2467  2.3506  1.4158
 4568SOL     OW14602   2.575   6.714   3.931  0.2115 -0.3541  0.1352
 4568SOL    HW114603   2.522   6.778   3.986  1.4570 -0.1486  1.1332
 4568SOL    HW214604   2.570   6.741   3.835  0.2343  0.8803  0.4730
 4569SOL     OW14605   2.112   2.709   2.859  0.1754 -0.3649  0.3209
 4569SOL    HW114606   2.074   2.794   2.896 -0.1227  0.1240 -1.0418
 4569SOL    HW214607   2.143   2.725   2.765 -1.9509 -2.2966 -0.8148
 4570SOL     OW14608   4.397   6.077   4.719  0.1265  0.1982  0.3287
 4570SOL    HW114609   4.349   6.150   4.769  0.4935  2.2645 -2.1271
 4570SOL    HW214610   4.438   6.014   4.784 -1.6808  1.1742  2.5593
 4571SOL     OW14611   3.783   3.055   3.245  0.4899 -0.0948  0.5027
 4571SOL    HW114612   3.870   3.090   3.213  0.2336 -0.2811 -0.4199
 4571SOL    HW214613   3.791   3.027   3.341  1.1917  0.7189  0.6852
 4572SOL     OW14614   4.261   5.413   6.338  0.0572  0.0060  0.2594
 4572SOL    HW114615   4.350   5.403   6.294  0.7107  1.2220  1.2418
 4572SOL    HW214616   4.189   5.391   6.273  0.9970  1.3318 -1.3095
 4573SOL     OW14617   6.779   6.542   2.051 -0.1313  0.6983  0.3707
 4573SOL    HW114618   6.769   6.506   2.144 -2.1684 -1.6640 -0.6515
 4573SOL    HW214619   6.732   6.630   2.045 -0.6737  0.4957  1.3624
 4574SOL     OW14620   6.493   5.045   2.008  0.1051  0.0267 -0.0463
 4574SOL    HW114621   6.570   5.108   1.995  0.9507 -0.6658  1.3159
 4574SOL    HW214622   6.430   5.053   1.931  1.1875  1.1124 -0.8638
 4575SOL     OW14623   6.104   4.642   2.975 -0.4802 -0.0735  0.2648
 4575SOL    HW114624   6.080   4.710   2.905  0.4698  2.4215  2.1899
 4575SOL    HW214625   6.043   4.564   2.968 -2.2715  1.3797 -1.4985
 4576SOL     OW14626   3.980   6.322   4.653  0.1642 -0.1474  0.0466
 4576SOL    HW114627   4.015   6.388   4.720 -0.1584  1.0717 -0.9528
 4576SOL    HW214628   3.953   6.370   4.570 -0.8900 -1.4456 -0.3931
 4577SOL     OW14629   2.483   4.592   1.376  0.4616  0.2909 -0.1654
 4577SOL    HW114630   2.551   4.664   1.371 -0.0064  0.9245  1.7101
 4577SOL    HW214631   2.499   4.536   1.457 -1.6840  0.9845  0.8288
 4578SOL     OW14632   5.809   6.786   4.753 -0.3111 -0.4327 -0.3528
 4578SOL    HW114633   5.789   6.788   4.851 -1.0327  1.2607 -0.5033
 4578SOL    HW214634   5.760   6.710   4.711 -0.4528 -0.8241  0.4936
 4579SOL     OW14635   5.936   1.842   3.265 -0.2099  0.0365 -0.4551
 4579SOL    HW114636   5.894   1.846   3.356  0.8356 -1.7713  0.1497
 4579SOL    HW214637   6.010   1.908   3.261  1.5898 -1.7698  1.0622
 4580SOL     OW14638   1.061   4.077   1.148 -0.3881 -0.5980  0.0667
 4580SOL    HW114639   1.017   4.043   1.231  1.3109  1.1513  1.7919
 4580SOL    HW214640   1.118   4.004   1.109  1.5935 -0.5021  2.5244
 4581SOL     OW14641   3.025   4.883   3.910 -0.3687  0.1238 -0.0510
 4581SOL    HW114642   3.004   4.849   3.819 -1.0064  0.1288  0.0916
 4581SOL    HW214643   2.949   4.863   3.972 -0.0258  0.2935  0.4327
 4582SOL     OW14644   4.820   5.457   2.504 -0.8706 -0.1055  0.4076
 4582SOL    HW114645   4.744   5.403   2.540 -1.5506  1.5658  1.5884
 4582SOL    HW214646   4.821   5.547   2.548  0.2512  0.8526 -1.4679
 4583SOL     OW14647   2.440   6.675   5.898  0.5605 -0.0574  0.2077
 4583SOL    HW114648   2.341   6.666   5.885  0.2981  0.8670  1.4091
 4583SOL    HW214649   2.484   6.588   5.874 -0.7567 -1.1909  1.6477
 4584SOL     OW14650   0.918   4.862   4.700 -0.3483  0.0604  0.3510
 4584SOL    HW114651   0.857   4.901   4.632  1.9139 -0.5895 -2.2385
 4584SOL    HW214652   0.947   4.933   4.765 -3.3156  0.4664  1.3775
 4585SOL     OW14653   4.240   6.032   2.452  1.0185  0.3657 -0.1143
 4585SOL    HW114654   4.288   5.955   2.493 -0.7408  0.0180  1.3962
 4585SOL    HW214655   4.184   6.078   2.521  0.3545  1.6956 -1.4632
 4586SOL     OW14656   0.079   5.724   2.354  0.0997  0.0712  0.4330
 4586SOL    HW114657   0.108   5.629   2.345 -2.3159 -0.6861 -0.1789
 4586SOL    HW214658   0.138   5.771   2.419  0.7506 -2.1148  1.5186
 4587SOL     OW14659   3.395   5.710   0.821  0.5225 -0.4700 -0.1280
 4587SOL    HW114660   3.480   5.673   0.785  1.7418  0.8046  1.2927
 4587SOL    HW214661   3.388   5.807   0.797 -0.8982 -0.7301 -0.8421
 4588SOL     OW14662   3.492   2.968   5.730 -0.0548  0.1829 -0.4445
 4588SOL    HW114663   3.397   2.991   5.753 -0.0456  0.0793 -0.2990
 4588SOL    HW214664   3.552   3.042   5.758  0.2697 -0.9874  2.2901
 4589SOL     OW14665   1.804   1.876   3.828  0.0340  0.0693 -0.4773
 4589SOL    HW114666   1.846   1.962   3.800 -1.3191  0.8961 -0.0843
 4589SOL    HW214667   1.840   1.801   3.773 -0.4925  1.2200 -2.4842
 4590SOL     OW14668   3.414   0.013   2.965  0.5876  0.1504  0.2527
 4590SOL    HW114669   3.460  -0.061   3.014  0.9642  0.1829 -0.0457
 4590SOL    HW214670   3.426   0.098   3.016  0.2862  0.0340  0.5173
 4591SOL     OW14671   4.465   0.492   4.777  0.7204  0.9552  0.0727
 4591SOL    HW114672   4.416   0.525   4.697 -2.9526 -0.8963  1.3207
 4591SOL    HW214673   4.561   0.479   4.754  0.2912  2.5413 -3.3090
 4592SOL     OW14674   3.570   2.042   6.192  0.0479  0.2274 -0.5932
 4592SOL    HW114675   3.483   2.053   6.241 -0.5368 -0.5001 -1.4478
 4592SOL    HW214676   3.564   2.089   6.104  0.6947  0.5588 -0.4651
 4593SOL     OW14677   5.820   4.143   3.178  0.6445 -0.5609  0.1226
 4593SOL    HW114678   5.816   4.170   3.274  0.9311 -0.0976  0.0065
 4593SOL    HW214679   5.913   4.157   3.143  0.0191  1.5562 -0.8660
 4594SOL     OW14680   5.573   2.378   3.807  0.0744  0.4346  0.1727
 4594SOL    HW114681   5.484   2.380   3.852  0.5509 -0.2831  1.2040
 4594SOL    HW214682   5.568   2.319   3.726 -0.0081 -0.9728  1.1569
 4595SOL     OW14683   3.306   3.345   5.280  0.6729  0.0309 -1.0445
 4595SOL    HW114684   3.400   3.324   5.255  1.3516  2.2036 -0.5820
 4595SOL    HW214685   3.305   3.398   5.365 -1.2621 -3.3181  1.2344
 4596SOL     OW14686   5.280   1.314   0.976  0.0155 -0.4074  0.0205
 4596SOL    HW114687   5.354   1.247   0.975  0.2197 -0.1755 -0.5480
 4596SOL    HW214688   5.294   1.378   1.051  0.0790 -0.7069  0.2674
 4597SOL     OW14689   0.194   3.787   0.382  0.1119  0.3152 -0.3661
 4597SOL    HW114690   0.166   3.856   0.315 -0.6183 -1.5003 -2.0187
 4597SOL    HW214691   0.281   3.747   0.354  0.6853  0.7383  0.7467
 4598SOL     OW14692   2.851   3.926   6.802  0.4789  0.1500  0.0301
 4598SOL    HW114693   2.880   4.006   6.749 -1.4024  0.4460 -0.5964
 4598SOL    HW214694   2.772   3.950   6.858  1.1658 -0.7292  1.4307
 4599SOL     OW14695   3.206   5.216   1.630 -0.3895  0.1134  0.4191
 4599SOL    HW114696   3.175   5.272   1.707  0.2889 -1.9076  2.2706
 4599SOL    HW214697   3.199   5.269   1.545 -0.9002  2.5344  1.8702
 4600SOL     OW14698   2.903   3.697   1.004  0.0921  0.3251 -0.2471
 4600SOL    HW114699   2.882   3.780   0.952 -0.5405  0.8631  0.8524
 4600SOL    HW214700   2.996   3.667   0.983  0.7549  1.9871  0.2291
 4601SOL     OW14701   2.179   4.930   4.375 -0.4489  0.4551 -0.3347
 4601SOL    HW114702   2.226   4.843   4.385  1.4935  1.3259 -1.2756
 4601SOL    HW214703   2.237   5.003   4.412 -0.1914  1.7806 -3.0596
 4602SOL     OW14704   3.050   1.170   0.658 -0.1952  0.1940  0.0423
 4602SOL    HW114705   3.039   1.143   0.562  1.7922 -1.4770  0.2194
 4602SOL    HW214706   3.147   1.166   0.682 -0.5349  1.7147  1.8382
 4603SOL     OW14707   3.732   1.816   6.799 -0.6058 -0.2888  0.1355
 4603SOL    HW114708   3.647   1.797   6.847 -1.2848  0.5840 -0.6711
 4603SOL    HW214709   3.793   1.869   6.858 -0.4076 -1.3155  0.8840
 4604SOL     OW14710   6.335   5.725   3.486  1.6569 -0.0870  0.2041
 4604SOL    HW114711   6.394   5.764   3.556 -0.9105  1.2358  1.8055
 4604SOL    HW214712   6.299   5.799   3.428 -1.6472 -0.1038  1.9702
 4605SOL     OW14713   5.347   6.998   6.077  0.6926 -0.6307  0.0570
 4605SOL    HW114714   5.253   7.029   6.067  0.7785 -0.2693  0.3472
 4605SOL    HW214715   5.348   6.898   6.087  0.1282 -0.4753  2.3860
 4606SOL     OW14716   5.892   5.906   4.776  0.3762 -0.5929  0.7066
 4606SOL    HW114717   5.924   5.813   4.757 -0.1903 -0.6555  0.0005
 4606SOL    HW214718   5.892   5.959   4.691 -0.5366 -0.3344  0.8587
 4607SOL     OW14719   3.400   5.103   0.851 -0.3917 -0.1003  0.5590
 4607SOL    HW114720   3.340   5.038   0.805 -3.4661  0.9924  2.6698
 4607SOL    HW214721   3.422   5.179   0.789 -0.8006 -0.7663 -0.4190
 4608SOL     OW14722   0.548   4.217   4.969 -0.3962  0.2311 -0.2644
 4608SOL    HW114723   0.571   4.310   4.996 -1.1411  0.5365 -0.6829
 4608SOL    HW214724   0.541   4.159   5.050  0.9765  0.3104 -0.0524
 4609SOL     OW14725   4.812   6.999   6.019  0.1118 -0.8328  0.0478
 4609SOL    HW114726   4.738   7.029   5.959 -0.4466  1.5841  1.7916
 4609SOL    HW214727   4.774   6.958   6.102  0.8264 -1.7117 -0.0322
 4610SOL     OW14728   5.527   3.572   1.454 -0.2009  0.1114  0.3752
 4610SOL    HW114729   5.441   3.539   1.494  0.1386 -0.1247  0.9092
 4610SOL    HW214730   5.523   3.671   1.444 -1.9034 -0.1418 -2.7670
 4611SOL     OW14731   0.619   5.153   5.034  0.0921  0.2903  0.8075
 4611SOL    HW114732   0.668   5.221   5.088 -2.4706  2.4952  0.5621
 4611SOL    HW214733   0.580   5.196   4.953 -2.5324 -1.1309  1.1793
 4612SOL     OW14734   2.236   1.047   6.849 -0.6145 -0.1114 -0.3950
 4612SOL    HW114735   2.258   1.006   6.760 -0.2422 -0.7560 -0.0135
 4612SOL    HW214736   2.228   1.146   6.839  0.8043 -0.0245 -0.8874
 4613SOL     OW14737   4.160   4.503   6.568 -0.2009  0.2808 -0.3458
 4613SOL    HW114738   4.178   4.594   6.605 -2.5817  0.6361  0.1192
 4613SOL    HW214739   4.196   4.497   6.475  0.1007  1.6697 -0.3342
 4614SOL     OW14740   2.983   3.923   0.049 -0.5689  0.3419 -0.4137
 4614SOL    HW114741   2.958   3.841   0.100 -4.2271  1.9596  0.8158
 4614SOL    HW214742   2.991   3.902  -0.048  0.2051 -1.7192  0.0656
 4615SOL     OW14743   5.202   2.955   0.013  0.7446  0.8230 -0.3302
 4615SOL    HW114744   5.156   3.033  -0.029  0.4040  1.6980  1.5796
 4615SOL    HW214745   5.153   2.871  -0.011 -0.0347  1.4002 -0.8131
 4616SOL     OW14746   5.172   0.284   1.409  0.7927  0.0650  0.3079
 4616SOL    HW114747   5.216   0.263   1.322 -0.2181 -2.3195  0.3011
 4616SOL    HW214748   5.175   0.382   1.425  3.7774  0.2635 -0.9022
 4617SOL     OW14749   1.603   6.327   1.251 -0.2767  0.2876 -0.2134
 4617SOL    HW114750   1.558   6.279   1.326 -1.3004 -0.2516 -1.1491
 4617SOL    HW214751   1.536   6.352   1.181  0.4967  1.6412 -0.5231
 4618SOL     OW14752   0.463   2.670   6.835  0.5379  0.1429 -0.7293
 4618SOL    HW114753   0.482   2.575   6.808  3.0702  0.4680 -0.3080
 4618SOL    HW214754   0.481   2.731   6.758 -1.2919  0.3242 -1.0662
 4619SOL     OW14755   4.104   0.565   4.050 -0.3436 -0.4107  0.5230
 4619SOL    HW114756   4.046   0.632   4.096  0.1238  0.6397 -0.3739
 4619SOL    HW214757   4.047   0.496   4.005 -0.9292  0.6386 -0.4006
 4620SOL     OW14758   2.479   3.625   1.648 -0.2134  0.1321 -0.2578
 4620SOL    HW114759   2.421   3.569   1.707  0.9940 -1.1994 -0.2883
 4620SOL    HW214760   2.570   3.633   1.689  0.0005  1.0112 -0.8856
 4621SOL     OW14761   6.671   0.115   1.155  0.2605 -0.0346 -0.3101
 4621SOL    HW114762   6.606   0.089   1.227 -0.0905 -0.5216 -0.7990
 4621SOL    HW214763   6.633   0.094   1.066  1.8952 -2.3036 -0.5740
 4622SOL     OW14764   1.049   3.236   6.976 -0.0359  0.4156 -0.1548
 4622SOL    HW114765   1.101   3.151   6.982 -2.1968 -0.9230  0.5702
 4622SOL    HW214766   1.112   3.312   6.956  2.4340 -0.7767  2.4047
 4623SOL     OW14767   6.768   4.980   5.833 -0.0020 -0.5154 -0.2014
 4623SOL    HW114768   6.767   5.018   5.741 -0.9627  1.1866  0.4596
 4623SOL    HW214769   6.860   4.989   5.871  0.2649 -0.7192 -0.7891
 4624SOL     OW14770   5.336   6.936   0.236 -0.0177  0.1095  0.4110
 4624SOL    HW114771   5.258   6.963   0.178 -0.3252 -2.1368 -0.2961
 4624SOL    HW214772   5.303   6.912   0.327  0.1510  1.1571  0.7684
 4625SOL     OW14773   0.169   4.726   0.166 -0.1807 -0.3719  0.5336
 4625SOL    HW114774   0.075   4.708   0.138  0.2106  0.3815 -1.3900
 4625SOL    HW214775   0.175   4.819   0.203 -0.3646 -0.7709  1.5998
 4626SOL     OW14776   6.636   5.698   1.277 -0.3301 -0.0155  0.0499
 4626SOL    HW114777   6.683   5.694   1.365 -0.2773 -1.4622 -0.0191
 4626SOL    HW214778   6.583   5.614   1.264 -1.5614  0.8236 -0.6395
 4627SOL     OW14779   1.578   5.684   2.250  0.1562 -0.2951  0.1883
 4627SOL    HW114780   1.500   5.634   2.212 -0.9573  2.1454 -0.9033
 4627SOL    HW214781   1.660   5.627   2.243 -1.1623 -2.2587 -0.2210
 4628SOL     OW14782   5.485   2.716   1.094  0.0110  0.1701  0.1865
 4628SOL    HW114783   5.580   2.722   1.122  0.2940  0.2189 -0.7569
 4628SOL    HW214784   5.436   2.652   1.154  0.5452  0.4237  0.8969
 4629SOL     OW14785   3.741   5.485   4.078  0.0682  0.1722  0.4976
 4629SOL    HW114786   3.709   5.453   4.167  0.9281  0.5870  0.9724
 4629SOL    HW214787   3.808   5.558   4.092  1.3974 -0.8175 -0.4276
 4630SOL     OW14788   3.251   6.271   3.309 -0.0727  0.2733 -0.1840
 4630SOL    HW114789   3.205   6.288   3.222 -1.3832 -0.0639  0.4178
 4630SOL    HW214790   3.342   6.234   3.292 -0.2890  0.2730 -1.4178
 4631SOL     OW14791   1.878   0.604   2.337  1.1209 -0.4250  0.3103
 4631SOL    HW114792   1.936   0.629   2.414 -1.4807 -0.4687  2.4542
 4631SOL    HW214793   1.838   0.513   2.353  0.4611 -0.4151 -1.0841
 4632SOL     OW14794   0.154   0.015   4.459  0.2656  0.4336 -0.3633
 4632SOL    HW114795   0.070   0.056   4.425  0.0436  0.7360  0.5243
 4632SOL    HW214796   0.135  -0.078   4.492  0.4266  0.2439 -0.7872
 4633SOL     OW14797   5.161   2.733   5.129 -0.3367 -0.6961 -0.1171
 4633SOL    HW114798   5.228   2.768   5.194  0.2383 -3.4637  0.8935
 4633SOL    HW214799   5.185   2.764   5.037  2.3096 -1.4797  0.2278
 4634SOL     OW14800   1.031   3.197   4.941  0.0465  0.0316 -0.1342
 4634SOL    HW114801   1.014   3.190   5.039  2.3167 -2.3615  0.1860
 4634SOL    HW214802   0.948   3.173   4.891 -0.3610 -1.5316  1.2260
 4635SOL     OW14803   4.280   2.065   1.428 -0.2351  0.0454  0.3297
 4635SOL    HW114804   4.218   2.141   1.448 -2.0257 -0.8280 -1.4628
 4635SOL    HW214805   4.228   1.980   1.424  0.7068 -0.5348 -2.7901
 4636SOL     OW14806   2.372   5.657   0.944 -0.4218 -0.7009 -0.1020
 4636SOL    HW114807   2.450   5.705   0.982 -0.0913 -2.2482  1.3117
 4636SOL    HW214808   2.308   5.723   0.905  0.9170  0.6943 -0.0433
 4637SOL     OW14809   6.775   0.788   5.503 -0.4854  0.0928  0.4811
 4637SOL    HW114810   6.848   0.720   5.492  0.1887  0.6361  1.3985
 4637SOL    HW214811   6.754   0.829   5.415 -1.5000 -1.8881 -0.2397
 4638SOL     OW14812   6.055   6.399   6.069 -0.3918  1.1155 -0.6637
 4638SOL    HW114813   6.030   6.318   6.017 -0.7156  0.8449 -0.0957
 4638SOL    HW214814   6.115   6.457   6.014  2.5830 -1.0599  0.0062
 4639SOL     OW14815   6.763   2.317   6.258  0.0601  0.5647 -0.6268
 4639SOL    HW114816   6.789   2.325   6.162  0.2701 -2.0573 -0.8478
 4639SOL    HW214817   6.844   2.329   6.316  0.6578 -1.3079 -1.0049
 4640SOL     OW14818   0.396   0.209   1.948 -0.8395 -0.1010 -0.9903
 4640SOL    HW114819   0.304   0.242   1.926 -0.1809  1.8561 -1.0298
 4640SOL    HW214820   0.463   0.258   1.892  0.2742 -1.2290 -0.6902
 4641SOL     OW14821   2.008   3.743   4.840 -0.5614  0.4122  0.2117
 4641SOL    HW114822   1.930   3.701   4.886  0.3715 -0.1723  1.3116
 4641SOL    HW214823   2.081   3.761   4.907  1.5674 -2.0923 -1.2180
 4642SOL     OW14824   6.188   6.490   5.175 -0.3583  0.1164  0.1910
 4642SOL    HW114825   6.194   6.523   5.081  1.6057  0.6167  0.4568
 4642SOL    HW214826   6.160   6.394   5.175  0.4416 -0.1338 -0.9513
 4643SOL     OW14827   4.769   3.437   0.524 -0.5711 -0.1958 -0.3604
 4643SOL    HW114828   4.829   3.517   0.518 -1.7238  0.5854 -2.0624
 4643SOL    HW214829   4.821   3.360   0.559  0.9924  0.8740 -0.2097
 4644SOL     OW14830   4.191   5.290   5.603 -0.5585  0.2021 -0.3251
 4644SOL    HW114831   4.250   5.249   5.534  0.3676  1.3111 -0.2228
 4644SOL    HW214832   4.247   5.333   5.674 -1.4952  0.4040  0.3124
 4645SOL     OW14833   2.323   4.282   4.480  0.9118  0.2955 -0.2462
 4645SOL    HW114834   2.319   4.278   4.380  0.2880 -1.0800 -0.1924
 4645SOL    HW214835   2.387   4.213   4.514  0.0129 -0.2697  0.3470
 4646SOL     OW14836   2.510   6.974   0.453  0.3049 -0.6861  0.0244
 4646SOL    HW114837   2.518   7.017   0.543  0.6947 -0.2147 -0.2318
 4646SOL    HW214838   2.441   7.023   0.399 -0.2059 -1.2005  0.1898
 4647SOL     OW14839   1.524   0.363   4.805  0.2197 -0.2363 -0.3994
 4647SOL    HW114840   1.457   0.380   4.878 -0.3520 -1.9228 -0.4689
 4647SOL    HW214841   1.615   0.387   4.837 -0.0822 -0.5121  0.7294
 4648SOL     OW14842   2.158   6.087   3.253  0.2340 -0.1484  0.4091
 4648SOL    HW114843   2.068   6.099   3.296 -0.5716 -0.1724 -1.1945
 4648SOL    HW214844   2.226   6.140   3.303 -0.8019  0.4694  1.2119
 4649SOL     OW14845   6.102   5.789   4.980 -0.4678  0.0392 -0.0759
 4649SOL    HW114846   6.062   5.880   4.969 -4.1465 -1.2950  0.7947
 4649SOL    HW214847   6.090   5.738   4.895  4.8864  1.2482 -1.9405
 4650SOL     OW14848   5.345   5.408   2.467  0.2765  0.2506 -0.5999
 4650SOL    HW114849   5.245   5.408   2.466  0.2159 -2.3478 -1.1127
 4650SOL    HW214850   5.378   5.334   2.527  1.9254  1.6226  0.2910
 4651SOL     OW14851   6.149   2.793   1.471  0.1732  0.5590 -0.5051
 4651SOL    HW114852   6.059   2.779   1.430  0.4227 -1.0436 -0.5840
 4651SOL    HW214853   6.194   2.871   1.426 -2.3721  3.5815  1.7299
 4652SOL     OW14854   0.931   0.518   0.052  0.3627  0.3854 -0.1335
 4652SOL    HW114855   0.879   0.585   0.001  1.1978  0.6455 -0.6714
 4652SOL    HW214856   0.997   0.564   0.111  0.1296  0.0611  0.3891
 4653SOL     OW14857   2.908   4.117   5.924 -0.4271  0.3714 -0.5989
 4653SOL    HW114858   2.992   4.072   5.954 -0.9010  0.9408  1.8843
 4653SOL    HW214859   2.844   4.049   5.888 -0.6742 -0.8542  1.9452
 4654SOL     OW14860   1.130   1.807   0.065 -0.1054 -0.3811 -0.4267
 4654SOL    HW114861   1.114   1.710   0.082  1.3170 -0.5085  0.3105
 4654SOL    HW214862   1.044   1.858   0.074 -0.6732 -1.4298  0.1717
 4655SOL     OW14863   1.777   6.378   4.602  0.0534 -0.2012 -0.0381
 4655SOL    HW114864   1.801   6.460   4.550  1.9677 -0.3696  0.5341
 4655SOL    HW214865   1.720   6.404   4.680  0.0938  0.4944 -0.2346
 4656SOL     OW14866   3.264   1.613   3.422  0.1787  0.5586 -0.3737
 4656SOL    HW114867   3.174   1.636   3.386 -0.1395 -1.0777 -0.6791
 4656SOL    HW214868   3.297   1.529   3.380  1.2252  0.3514  0.7833
 4657SOL     OW14869   0.553   3.207   4.689  0.0693  0.3520 -0.3198
 4657SOL    HW114870   0.562   3.247   4.598  3.2658 -0.4338 -0.4727
 4657SOL    HW214871   0.555   3.280   4.758  0.5539  0.7729 -0.7769
 4658SOL     OW14872   5.252   4.500   2.768  0.5337  0.3227 -0.0687
 4658SOL    HW114873   5.183   4.473   2.835  1.3142 -0.5833  0.4145
 4658SOL    HW214874   5.300   4.418   2.735  2.3004  1.0049  0.6566
 4659SOL     OW14875   0.563   0.412   3.536 -0.1275  0.2103  0.0488
 4659SOL    HW114876   0.516   0.356   3.605  1.0359 -0.5725  0.2484
 4659SOL    HW214877   0.661   0.410   3.554  0.1955  0.0635 -1.5827
 4660SOL     OW14878   1.886   0.216   5.568 -0.1397  0.1367  0.9794
 4660SOL    HW114879   1.983   0.206   5.590 -0.0581  0.7338  0.9103
 4660SOL    HW214880   1.860   0.312   5.579 -0.8413 -0.1036  1.4883
 4661SOL     OW14881   3.683   3.628   2.927 -0.3629 -0.1475 -0.2752
 4661SOL    HW114882   3.602   3.572   2.945 -0.7822  0.2019 -0.9856
 4661SOL    HW214883   3.742   3.581   2.861 -1.4424  0.8458 -2.0237
 4662SOL     OW14884   5.711   6.570   4.473 -0.2522 -0.4086 -0.0097
 4662SOL    HW114885   5.727   6.495   4.408  0.4547 -0.3733  0.1253
 4662SOL    HW214886   5.733   6.539   4.565  0.8826  0.2336 -0.0578
 4663SOL     OW14887   6.823   1.139   0.452 -0.5078 -0.2854  0.1719
 4663SOL    HW114888   6.756   1.177   0.388 -0.3523 -0.7909 -0.3006
 4663SOL    HW214889   6.843   1.206   0.523  1.1280  1.2865 -1.6299
 4664SOL     OW14890   3.950   5.594   6.476 -0.0876  0.2498  0.4758
 4664SOL    HW114891   4.002   5.545   6.546 -1.1604 -0.4365  0.8297
 4664SOL    HW214892   4.011   5.620   6.401  0.6649 -0.9992  0.6144
 4665SOL     OW14893   4.818   2.890   6.840  0.2915 -0.2522 -0.3416
 4665SOL    HW114894   4.728   2.857   6.812 -0.2042  0.6396  0.1399
 4665SOL    HW214895   4.881   2.885   6.763 -0.8613  1.5057 -1.4634
 4666SOL     OW14896   1.293   2.368   6.927 -0.8234 -0.0004 -0.8469
 4666SOL    HW114897   1.338   2.296   6.874 -2.4022 -2.0129  0.3754
 4666SOL    HW214898   1.265   2.331   7.016 -3.5471  1.4921 -0.9588
 4667SOL     OW14899   6.473   6.345   3.892  0.2397  0.0995  0.5017
 4667SOL    HW114900   6.472   6.334   3.991 -1.5627  1.1753  0.6586
 4667SOL    HW214901   6.409   6.418   3.867  1.9982  1.1010 -1.3169
 4668SOL     OW14902   6.417   0.761   4.936  0.3074  0.5011 -0.3419
 4668SOL    HW114903   6.366   0.683   4.898  0.2323  0.4460 -0.1259
 4668SOL    HW214904   6.360   0.843   4.930  0.6215  0.6696 -1.1502
 4669SOL     OW14905   0.989   2.546   1.385  0.1230  0.0417  0.0677
 4669SOL    HW114906   0.958   2.515   1.296  0.1875 -2.4995  0.8579
 4669SOL    HW214907   1.088   2.537   1.392  0.1398  0.4049  0.3365
 4670SOL     OW14908   4.055   2.323   5.636  0.4603 -0.2693 -0.2332
 4670SOL    HW114909   4.037   2.399   5.573 -0.3820 -0.2952 -0.0314
 4670SOL    HW214910   4.122   2.261   5.594  1.0882  0.5254 -0.4364
 4671SOL     OW14911   0.243   1.478   2.347  0.5833 -0.0090  0.3954
 4671SOL    HW114912   0.148   1.475   2.377  0.0266 -1.2644 -1.3090
 4671SOL    HW214913   0.279   1.570   2.359 -1.8819  1.3775 -1.8980
 4672SOL     OW14914   2.881   3.506   4.704 -0.2775  0.0202 -0.7744
 4672SOL    HW114915   2.847   3.599   4.719 -2.1022 -0.9331  1.5160
 4672SOL    HW214916   2.840   3.469   4.620  0.0945  1.0634 -1.4453
 4673SOL     OW14917   6.351   1.330   3.888  0.4135 -0.2341 -0.6697
 4673SOL    HW114918   6.432   1.311   3.833  1.3743 -1.4718  1.0687
 4673SOL    HW214919   6.294   1.248   3.893  2.1375 -1.4322  2.9282
 4674SOL     OW14920   2.002   0.397   7.002 -0.2948  0.3623  0.1883
 4674SOL    HW114921   1.971   0.447   7.083 -2.1172  0.5731 -0.5970
 4674SOL    HW214922   2.081   0.341   7.027 -1.2169 -0.1259  2.3033
 4675SOL     OW14923   1.098   5.690   5.367 -0.2404  0.2742  0.4103
 4675SOL    HW114924   1.175   5.673   5.428  1.3574 -1.3257 -1.9045
 4675SOL    HW214925   1.013   5.662   5.413  0.9816 -1.7214  1.5993
 4676SOL     OW14926   1.459   4.045   4.104 -0.0971 -0.2019  0.4112
 4676SOL    HW114927   1.489   4.004   4.191 -0.4837  0.6118  0.9352
 4676SOL    HW214928   1.359   4.044   4.099 -0.0871 -2.9736 -1.3648
 4677SOL     OW14929   6.886   1.857   6.931 -0.0230 -0.2242  0.6569
 4677SOL    HW114930   6.924   1.795   6.999 -0.8723  0.6983  2.0254
 4677SOL    HW214931   6.841   1.934   6.977 -0.8983  0.2763 -0.9492
 4678SOL     OW14932   0.934   1.983   0.040  0.2452  0.0941 -0.5695
 4678SOL    HW114933   0.945   2.075   0.002  0.4484  0.5685  0.5959
 4678SOL    HW214934   0.869   1.986   0.116  1.8994 -0.2751  0.9285
 4679SOL     OW14935   5.213   0.036   1.513 -0.4658 -0.2164 -0.1217
 4679SOL    HW114936   5.183  -0.027   1.442 -1.1947 -0.6128  0.5314
 4679SOL    HW214937   5.206   0.130   1.480 -1.1539 -0.3800 -0.4512
 4680SOL     OW14938   3.161   1.857   2.116 -0.0093 -0.0487  0.3625
 4680SOL    HW114939   3.172   1.758   2.122  1.6800  0.0596 -0.4725
 4680SOL    HW214940   3.104   1.889   2.191  1.3247 -1.3700  2.0093
 4681SOL     OW14941   5.174   5.594   2.295 -0.1068  0.5429 -0.2424
 4681SOL    HW114942   5.220   5.677   2.265 -2.1402  2.3471  1.3225
 4681SOL    HW214943   5.217   5.561   2.380 -0.0521  0.6816 -0.2161
 4682SOL     OW14944   3.262   2.911   0.750 -0.9441  0.3653  0.6064
 4682SOL    HW114945   3.266   2.853   0.831 -0.5105  0.4406  0.6411
 4682SOL    HW214946   3.355   2.929   0.717 -1.1170  0.3679  0.1164
 4683SOL     OW14947   6.692   5.681   4.408 -0.2035 -0.0532  0.2607
 4683SOL    HW114948   6.628   5.607   4.430 -0.7570 -0.1394 -1.4551
 4683SOL    HW214949   6.641   5.762   4.380  0.3149 -0.8132 -3.3342
 4684SOL     OW14950   2.499   5.907   4.951  0.5471 -0.2095  0.2780
 4684SOL    HW114951   2.564   5.921   4.877  0.5551 -1.6422 -0.0234
 4684SOL    HW214952   2.490   5.809   4.970 -0.9945 -0.0089  0.7830
 4685SOL     OW14953   3.767   3.586   5.332 -0.4029 -0.5302 -0.7934
 4685SOL    HW114954   3.794   3.674   5.295 -0.8063  1.3485  2.8843
 4685SOL    HW214955   3.848   3.527   5.340 -0.2178 -0.8127 -3.7448
 4686SOL     OW14956   2.611   0.742   5.958  0.5228 -0.6971  0.0185
 4686SOL    HW114957   2.584   0.687   6.037  0.1054 -0.2836  0.1743
 4686SOL    HW214958   2.557   0.826   5.957  0.7190 -0.5749 -0.5575
 4687SOL     OW14959   0.697   0.223   3.016 -0.4330 -0.3699  0.4510
 4687SOL    HW114960   0.753   0.306   3.015  0.1575 -0.7647  0.2194
 4687SOL    HW214961   0.640   0.222   3.098 -1.4400  0.9139 -0.1850
 4688SOL     OW14962   4.125   1.870   4.602 -0.7371  0.1315  0.3077
 4688SOL    HW114963   4.219   1.893   4.626 -0.9083  0.9698  0.1824
 4688SOL    HW214964   4.123   1.779   4.561  0.1954  0.6268 -0.8866
 4689SOL     OW14965   6.798   1.230   6.399  0.1159  0.7431 -0.7605
 4689SOL    HW114966   6.892   1.264   6.390  0.7063 -0.6632 -0.1423
 4689SOL    HW214967   6.751   1.240   6.312  0.9828  1.0312 -1.2103
 4690SOL     OW14968   1.524   1.875   4.886 -0.3430  0.4301  0.2019
 4690SOL    HW114969   1.596   1.944   4.895  1.0865 -0.5602 -2.4321
 4690SOL    HW214970   1.522   1.817   4.967  1.5219  0.7946  0.5491
 4691SOL     OW14971   5.127   2.572   1.384  0.7094 -0.8979  0.0736
 4691SOL    HW114972   5.057   2.508   1.353  0.7767 -0.6670 -0.5784
 4691SOL    HW214973   5.214   2.553   1.337  0.4906  0.2515 -0.8616
 4692SOL     OW14974   0.866   2.860   4.532  0.1454 -0.3719  0.2383
 4692SOL    HW114975   0.889   2.766   4.505  0.6382  0.3881 -2.1610
 4692SOL    HW214976   0.943   2.921   4.512 -0.8103  0.8288  0.0861
 4693SOL     OW14977   1.501   0.563   4.099  0.8426 -0.3809  0.6674
 4693SOL    HW114978   1.409   0.587   4.132  0.9225 -0.4282  0.9282
 4693SOL    HW214979   1.496   0.479   4.046  0.1344  1.4427 -2.3926
 4694SOL     OW14980   0.211   6.756   0.154 -0.2046  0.0863 -0.3742
 4694SOL    HW114981   0.309   6.769   0.169  0.2010 -2.7858  0.2082
 4694SOL    HW214982   0.193   6.658   0.142 -2.8544  0.6759 -1.7948
 4695SOL     OW14983   6.682   5.705   2.978 -0.3118 -0.1533  0.0183
 4695SOL    HW114984   6.752   5.776   2.984 -0.6700  0.1003  2.4222
 4695SOL    HW214985   6.645   5.702   2.886  1.8014  0.7136 -0.9307
 4696SOL     OW14986   1.660   4.749   6.631 -0.3787  0.2689  0.3531
 4696SOL    HW114987   1.575   4.765   6.681  0.5169 -0.1489  2.0847
 4696SOL    HW214988   1.726   4.820   6.655  0.7625 -1.1061  1.4636
 4697SOL     OW14989   5.474   5.089   1.709 -0.2809  0.1598  0.1526
 4697SOL    HW114990   5.439   5.105   1.616 -1.2852  1.3167  0.7053
 4697SOL    HW214991   5.473   4.991   1.728 -2.5197  0.0794 -0.1525
 4698SOL     OW14992   0.123   6.415   3.950  0.0895 -0.2080 -0.3817
 4698SOL    HW114993   0.126   6.513   3.969 -0.3981  0.0192 -1.3916
 4698SOL    HW214994   0.204   6.371   3.987  0.0083  0.4690  0.6438
 4699SOL     OW14995   0.404   1.320   2.737  0.5896  0.8000  0.5307
 4699SOL    HW114996   0.353   1.404   2.719  0.6286  1.0230  1.4064
 4699SOL    HW214997   0.434   1.279   2.651 -1.2581  0.5517 -0.0386
 4700SOL     OW14998   6.747   2.134   5.366 -0.4604 -0.2586  0.3811
 4700SOL    HW114999   6.764   2.175   5.456  2.7493 -0.3576 -0.0335
 4700SOL    HW215000   6.768   2.037   5.370  0.4830 -0.1109 -0.6156
 4701SOL     OW15001   1.297   3.688   0.901 -0.0031 -0.4880  0.0043
 4701SOL    HW115002   1.390   3.652   0.911 -0.1126 -0.4521  1.4162
 4701SOL    HW215003   1.238   3.647   0.971 -0.8222  0.2116 -0.2560
 4702SOL     OW15004   5.298   3.828   1.726  0.5384  0.1970  0.7622
 4702SOL    HW115005   5.377   3.886   1.748  0.4199  0.6267  0.0825
 4702SOL    HW215006   5.306   3.796   1.631 -1.6839  2.9275 -0.5132
 4703SOL     OW15007   6.996   0.076   3.947  0.0618 -0.0432 -0.0613
 4703SOL    HW115008   6.968  -0.001   4.005  0.7766  1.0769  1.8905
 4703SOL    HW215009   6.957   0.160   3.983  1.3307  0.8162 -0.6379
 4704SOL     OW15010   1.740   4.566   5.022 -0.4833  0.3241 -0.1410
 4704SOL    HW115011   1.665   4.504   4.996 -1.2899 -0.3611  3.3147
 4704SOL    HW215012   1.827   4.520   5.009 -0.8530 -0.1973 -0.8818
 4705SOL     OW15013   4.091   4.548   1.062 -0.2368  0.3336  0.1843
 4705SOL    HW115014   4.182   4.536   1.023 -0.4111 -0.2172 -0.0580
 4705SOL    HW215015   4.091   4.517   1.157 -0.4615 -0.7917 -0.1723
 4706SOL     OW15016   3.553   1.953   5.895 -0.4109 -0.5749 -0.0252
 4706SOL    HW115017   3.532   2.050   5.910  2.2732 -0.0516  0.8786
 4706SOL    HW215018   3.651   1.938   5.909 -1.0347 -3.7594  1.6514
 4707SOL     OW15019   1.241   5.493   1.122 -0.2912  0.5661  0.1226
 4707SOL    HW115020   1.300   5.414   1.103 -2.5008 -1.4963  1.3283
 4707SOL    HW215021   1.156   5.485   1.070 -0.6926  2.0025  0.5124
 4708SOL     OW15022   1.413   5.249   0.400  0.1185 -0.2886  0.2103
 4708SOL    HW115023   1.325   5.246   0.352 -0.9836 -1.9921  2.1752
 4708SOL    HW215024   1.439   5.344   0.414 -0.1796  0.2720 -2.4459
 4709SOL     OW15025   5.367   4.931   5.262 -0.1662  0.6891 -0.0320
 4709SOL    HW115026   5.308   4.914   5.184 -0.2855  0.1407  0.1686
 4709SOL    HW215027   5.432   4.855   5.272 -0.9276  0.1473  1.0909
 4710SOL     OW15028   6.288   5.386   5.194 -0.4220  0.4487  0.5668
 4710SOL    HW115029   6.230   5.375   5.112  0.4042  0.2621 -0.0039
 4710SOL    HW215030   6.247   5.336   5.270 -0.1508 -1.1273 -0.2829
 4711SOL     OW15031   6.179   4.923   4.246 -0.4452 -0.2320  0.8557
 4711SOL    HW115032   6.109   4.990   4.218 -2.0142 -0.9003  2.9245
 4711SOL    HW215033   6.142   4.864   4.318  1.9830 -1.2455  1.3734
 4712SOL     OW15034   5.278   5.080   0.468 -0.0103 -0.9726 -0.0822
 4712SOL    HW115035   5.225   5.047   0.390  0.2318  1.1663 -1.2209
 4712SOL    HW215036   5.366   5.031   0.471 -0.3809 -1.6895 -0.6215
 4713SOL     OW15037   5.687   2.927   1.813  0.0068 -0.2374 -0.6114
 4713SOL    HW115038   5.652   2.841   1.850 -0.5510 -0.6762 -2.0850
 4713SOL    HW215039   5.780   2.914   1.780 -0.6681 -0.7714 -2.3974
 4714SOL     OW15040   5.526   3.271   5.055  0.3433 -0.0738  0.2946
 4714SOL    HW115041   5.460   3.286   5.128  0.2749  2.1858 -0.1807
 4714SOL    HW215042   5.479   3.268   4.967  0.7422  0.4342  0.0567
 4715SOL     OW15043   0.097   0.356   2.818 -0.1575  0.5456 -0.0253
 4715SOL    HW115044   0.060   0.285   2.878 -1.4863  1.3916  0.2030
 4715SOL    HW215045   0.108   0.319   2.725  1.3288 -0.5913  0.5724
 4716SOL     OW15046   4.327   3.860   5.297  0.9278  0.2020 -0.7759
 4716SOL    HW115047   4.370   3.772   5.281  2.4353  0.8941 -0.6880
 4716SOL    HW215048   4.227   3.850   5.291  1.0930 -1.3688 -1.3424
 4717SOL     OW15049   1.958   4.534   6.809 -0.0895 -0.7005  0.1349
 4717SOL    HW115050   1.993   4.527   6.903 -0.1108  1.1267  0.3081
 4717SOL    HW215051   1.995   4.459   6.754  1.6153 -0.6065  1.0846
 4718SOL     OW15052   5.008   4.184   3.034  0.4077  0.0306 -0.2318
 4718SOL    HW115053   4.963   4.163   3.121  1.4381  0.6176  0.4578
 4718SOL    HW215054   5.080   4.116   3.017  1.1066  0.6815  0.0555
 4719SOL     OW15055   6.596   3.945   3.165  0.0375 -0.5311  0.4729
 4719SOL    HW115056   6.624   3.987   3.079 -0.9010 -2.1211 -0.6649
 4719SOL    HW215057   6.635   3.853   3.172  2.0879  0.4006  2.9196
 4720SOL     OW15058   1.675   2.099   5.981 -0.3702 -0.2568 -1.2386
 4720SOL    HW115059   1.730   2.133   6.057  1.1052  0.0709 -2.4143
 4720SOL    HW215060   1.587   2.146   5.981 -0.9763 -1.2265  1.0310
 4721SOL     OW15061   6.558   2.668   4.036  0.0377 -0.0738  0.0404
 4721SOL    HW115062   6.652   2.661   4.003  0.4369  3.9701 -0.1874
 4721SOL    HW215063   6.495   2.637   3.965  1.1224 -0.8722 -0.5966
 4722SOL     OW15064   1.060   5.348   5.464  0.3078 -0.2444  0.5054
 4722SOL    HW115065   1.036   5.311   5.374 -1.1853  1.9778 -0.0786
 4722SOL    HW215066   1.158   5.370   5.465  0.9008 -2.5859  0.3546
 4723SOL     OW15067   3.287   3.865   0.043 -0.3066 -0.4656 -0.2125
 4723SOL    HW115068   3.311   3.846   0.138 -0.4596  0.1599 -0.0441
 4723SOL    HW215069   3.192   3.839   0.026 -0.4602 -0.0287 -0.0322
 4724SOL     OW15070   0.392   0.656   2.660  0.4310 -0.5068 -0.2301
 4724SOL    HW115071   0.471   0.698   2.617  0.4902 -0.1233  0.2359
 4724SOL    HW215072   0.338   0.727   2.706 -1.3516 -0.4275 -2.3162
 4725SOL     OW15073   4.940   6.025   2.010  0.1868  0.2269  0.2101
 4725SOL    HW115074   4.967   5.943   1.959  0.8886  0.1585  0.6654
 4725SOL    HW215075   4.879   6.081   1.955  0.6801 -0.0033 -0.5775
 4726SOL     OW15076   0.932   3.211   5.606 -0.0485  0.2120 -0.1476
 4726SOL    HW115077   0.872   3.153   5.551  0.3405 -0.9667  0.6289
 4726SOL    HW215078   0.968   3.158   5.683 -0.9967  1.9239  1.5776
 4727SOL     OW15079   6.374   4.438   2.133  0.4098  0.1711 -0.0888
 4727SOL    HW115080   6.354   4.507   2.203  0.3661 -0.7519  0.8275
 4727SOL    HW215081   6.472   4.417   2.133  0.4507  0.3505 -0.4828
 4728SOL     OW15082   3.574   1.199   5.122 -0.1964 -0.4057  0.2960
 4728SOL    HW115083   3.577   1.116   5.067 -1.3053 -0.1105 -0.2172
 4728SOL    HW215084   3.492   1.199   5.179 -1.0130  1.0029 -0.8032
 4729SOL     OW15085   1.034   1.442   4.239 -0.7694  0.3117  0.9418
 4729SOL    HW115086   1.129   1.473   4.239 -0.6577  0.0556 -0.9633
 4729SOL    HW215087   0.974   1.517   4.211 -1.0536  0.2055  1.2473
 4730SOL     OW15088   2.453   2.065   2.337 -0.2750 -0.0983 -0.1999
 4730SOL    HW115089   2.541   2.017   2.346  0.3267  0.5868 -1.9831
 4730SOL    HW215090   2.379   1.999   2.331  0.2495 -0.7263  0.1005
 4731SOL     OW15091   2.905   0.172   4.535  0.0420 -0.3112  0.0530
 4731SOL    HW115092   2.834   0.161   4.465  0.1319  0.7010 -0.2067
 4731SOL    HW215093   2.862   0.193   4.623  0.0538  1.5580 -0.3634
 4732SOL     OW15094   6.974   5.303   5.679  0.5462  0.3505 -0.4358
 4732SOL    HW115095   6.916   5.222   5.677  0.9380  0.0648 -2.4321
 4732SOL    HW215096   7.052   5.286   5.740  0.7738 -0.9143 -1.0266
 4733SOL     OW15097   4.047   6.109   4.380 -0.1401  0.0477 -0.2276
 4733SOL    HW115098   4.119   6.156   4.431  0.9049 -1.9083  0.2075
 4733SOL    HW215099   3.973   6.173   4.360  0.3516  1.3994  1.9348
 4734SOL     OW15100   5.297   4.595   5.747  0.1870  0.3557  0.4575
 4734SOL    HW115101   5.270   4.590   5.843 -0.4155 -0.0542  0.2714
 4734SOL    HW215102   5.251   4.671   5.703  0.9809  0.9618  0.6457
 4735SOL     OW15103   1.276   0.624   4.258 -0.2437  0.0776 -0.1257
 4735SOL    HW115104   1.207   0.678   4.305 -0.7710  0.1983 -1.0041
 4735SOL    HW215105   1.289   0.537   4.306 -1.5568 -0.2692 -0.3353
 4736SOL     OW15106   5.636   0.460   6.055  0.4586  0.1679  0.1107
 4736SOL    HW115107   5.542   0.493   6.043  0.4445  0.2353  0.4117
 4736SOL    HW215108   5.695   0.500   5.984  0.0146 -0.8518 -0.8627
 4737SOL     OW15109   1.335   5.006   6.345  0.1911  0.2095 -0.2838
 4737SOL    HW115110   1.267   4.961   6.288  1.1412 -0.7954 -0.6499
 4737SOL    HW215111   1.360   5.094   6.305 -2.1362  1.4388  0.7614
 4738SOL     OW15112   1.095   5.955   4.426 -0.1803 -0.4757  0.0983
 4738SOL    HW115113   1.087   5.984   4.522  0.8887  0.9654 -0.2010
 4738SOL    HW215114   1.004   5.943   4.387 -0.7663  2.1764  0.4144
 4739SOL     OW15115   0.276   4.456   3.438 -0.0624  0.3091  0.2167
 4739SOL    HW115116   0.325   4.403   3.368 -1.6456 -1.1313  0.1374
 4739SOL    HW215117   0.222   4.527   3.394 -0.4088 -0.0634  0.0318
 4740SOL     OW15118   3.521   0.718   1.716 -0.7485  0.5015  0.5967
 4740SOL    HW115119   3.585   0.771   1.659 -0.2993 -1.1833 -0.5386
 4740SOL    HW215120   3.513   0.762   1.806 -1.1492  3.0029 -0.5699
 4741SOL     OW15121   6.412   5.938   3.910 -0.2068  0.1372 -0.4198
 4741SOL    HW115122   6.439   6.002   3.838 -0.1855  1.4651  0.7292
 4741SOL    HW215123   6.331   5.972   3.957  1.6887  1.1131  2.3827
 4742SOL     OW15124   3.838   6.397   1.883  0.5612  0.1148  0.2269
 4742SOL    HW115125   3.869   6.312   1.926 -0.9583 -0.6033 -0.0147
 4742SOL    HW215126   3.848   6.390   1.784 -0.4776 -0.2073  0.1294
 4743SOL     OW15127   2.143   3.667   0.096 -0.1195 -0.1949 -0.3883
 4743SOL    HW115128   2.092   3.582   0.110 -0.6851  0.3314  0.8646
 4743SOL    HW215129   2.079   3.744   0.094  0.4670  0.2898 -0.6314
 4744SOL     OW15130   2.511   1.698   4.685 -0.8405 -0.1227 -0.4199
 4744SOL    HW115131   2.482   1.603   4.698 -0.1843 -0.4730 -1.3794
 4744SOL    HW215132   2.581   1.702   4.613 -0.2836  0.9867  0.1535
 4745SOL     OW15133   4.233   6.559   3.274 -0.2522  0.0682  0.4848
 4745SOL    HW115134   4.221   6.648   3.232 -0.5035 -0.9698 -1.7904
 4745SOL    HW215135   4.324   6.554   3.315  0.7292  0.6058 -1.4816
 4746SOL     OW15136   5.021   2.916   1.035  0.6645  0.4164  0.3342
 4746SOL    HW115137   4.977   2.915   0.945  0.6447 -0.3292  0.3511
 4746SOL    HW215138   4.959   2.960   1.101  0.3954  0.3493  0.1314
 4747SOL     OW15139   1.817   2.736   2.296 -0.4858 -0.4521 -0.0760
 4747SOL    HW115140   1.881   2.765   2.367 -1.5824 -0.0433  0.7768
 4747SOL    HW215141   1.851   2.767   2.207  0.9552 -1.0491  0.2294
 4748SOL     OW15142   1.346   5.953   0.836 -0.7729  0.0479 -0.0030
 4748SOL    HW115143   1.445   5.955   0.822 -0.7624  1.3384  0.1678
 4748SOL    HW215144   1.300   5.969   0.748 -0.7565  3.1829  0.4598
 4749SOL     OW15145   5.615   0.446   4.960  0.2545 -0.0831  0.7569
 4749SOL    HW115146   5.686   0.507   4.998  1.2824  0.7174 -2.1802
 4749SOL    HW215147   5.551   0.500   4.905 -0.5920 -1.2881  0.5340
 4750SOL     OW15148   1.301   1.556   6.111 -0.2188 -0.7515  0.0875
 4750SOL    HW115149   1.222   1.508   6.150  0.7377 -3.1158 -0.6699
 4750SOL    HW215150   1.375   1.491   6.097  1.5869  1.2419 -0.0366
 4751SOL     OW15151   2.563   4.480   6.115  0.0194 -0.3804  0.3696
 4751SOL    HW115152   2.532   4.417   6.043  1.5611 -0.0077 -0.6766
 4751SOL    HW215153   2.534   4.573   6.093  0.2333 -0.3117  0.3731
 4752SOL     OW15154   2.670   6.988   2.371  0.4844  0.3517  1.0182
 4752SOL    HW115155   2.709   6.949   2.287 -0.9473 -1.0426  0.9651
 4752SOL    HW215156   2.685   6.926   2.447 -0.4556  0.4286  1.2708
 4753SOL     OW15157   0.717   1.886   6.814 -0.6247  1.1500 -0.0037
 4753SOL    HW115158   0.783   1.816   6.788 -0.9139  0.9097 -0.0985
 4753SOL    HW215159   0.760   1.952   6.875 -0.6195  0.3119  0.9273
 4754SOL     OW15160   0.934   1.121   0.096 -0.3147 -0.1963 -0.5827
 4754SOL    HW115161   0.925   1.119  -0.004  0.9933 -1.4481 -0.7068
 4754SOL    HW215162   0.849   1.090   0.138 -0.9442  0.5226 -1.2938
 4755SOL     OW15163   3.480   0.924   4.604 -0.7500  0.1821  0.0841
 4755SOL    HW115164   3.484   0.835   4.649  0.0972 -0.3412 -0.9871
 4755SOL    HW215165   3.530   0.991   4.657  0.9722 -0.6215 -0.4621
 4756SOL     OW15166   5.302   3.548   1.203  0.2597  0.2727  0.1548
 4756SOL    HW115167   5.290   3.450   1.217  0.1124  0.3093  0.2829
 4756SOL    HW215168   5.366   3.584   1.272  1.5804 -0.0257 -0.8556
 4757SOL     OW15169   2.737   3.515   0.124 -0.2785  0.3488  0.6005
 4757SOL    HW115170   2.726   3.559   0.035  0.9861  1.2689  0.8645
 4757SOL    HW215171   2.649   3.512   0.171 -1.1925 -1.1248 -1.0924
 4758SOL     OW15172   6.861   4.137   0.389 -0.0903  0.1266  0.4230
 4758SOL    HW115173   6.890   4.167   0.480 -0.7042 -0.9960  1.0260
 4758SOL    HW215174   6.764   4.112   0.392  0.2897 -1.5481 -0.0804
 4759SOL     OW15175   5.431   3.103   1.021  0.2924 -0.6072  0.2178
 4759SOL    HW115176   5.342   3.147   1.012  1.0256  1.4913  2.0398
 4759SOL    HW215177   5.426   3.009   0.990 -2.4713 -0.4681  0.0195
 4760SOL     OW15178   0.483   2.319   5.729  0.4343  0.1085 -0.1734
 4760SOL    HW115179   0.498   2.238   5.671 -1.0225 -0.6938  0.5316
 4760SOL    HW215180   0.386   2.328   5.750  0.3297  2.8635 -1.3697
 4761SOL     OW15181   3.479   0.984   5.551  0.4655 -0.1182  0.6547
 4761SOL    HW115182   3.418   0.916   5.591  1.0150 -0.8547  0.2600
 4761SOL    HW215183   3.522   0.947   5.468  0.3064  0.9287  0.0876
 4762SOL     OW15184   4.464   0.841   2.647  0.3331  1.0390  0.3412
 4762SOL    HW115185   4.383   0.889   2.612  0.5569  1.2862  0.1570
 4762SOL    HW215186   4.531   0.832   2.573 -0.4500 -1.1958 -0.1556
 4763SOL     OW15187   6.265   4.858   6.406 -0.4378 -0.2084 -0.1365
 4763SOL    HW115188   6.360   4.876   6.379 -1.0396  1.9300 -1.0658
 4763SOL    HW215189   6.251   4.892   6.499  0.0228 -1.8147  0.5550
 4764SOL     OW15190   3.001   3.162   3.395  0.6055  0.1408  0.1445
 4764SOL    HW115191   3.025   3.155   3.492 -2.7737 -0.8563  1.0658
 4764SOL    HW215192   2.930   3.231   3.383 -1.2441 -1.8455 -1.0405
 4765SOL     OW15193   0.529   3.950   0.614  0.2915 -0.0363 -0.0321
 4765SOL    HW115194   0.604   3.908   0.665  1.6448  2.1296 -0.1292
 4765SOL    HW215195   0.463   3.990   0.677 -1.1248 -2.3543  0.0681
 4766SOL     OW15196   3.246   2.152   3.710  0.3411 -0.6827  0.3714
 4766SOL    HW115197   3.328   2.166   3.764  0.6378  2.3133 -0.6490
 4766SOL    HW215198   3.272   2.127   3.616  0.2486  1.6156 -0.3239
 4767SOL     OW15199   4.527   1.264   5.776 -0.3930  0.3140  0.4757
 4767SOL    HW115200   4.609   1.315   5.749  0.2637 -0.4943  0.9198
 4767SOL    HW215201   4.453   1.283   5.711  0.3104  0.6174 -0.2496
 4768SOL     OW15202   1.185   0.551   5.437  0.0335 -0.0468 -0.1610
 4768SOL    HW115203   1.092   0.565   5.469  0.4503 -1.2199  1.7120
 4768SOL    HW215204   1.202   0.454   5.423  0.5048  0.2756 -2.0864
 4769SOL     OW15205   5.468   1.381   3.525  0.1121 -0.0350 -0.5270
 4769SOL    HW115206   5.550   1.435   3.539  1.1554 -1.8797  0.8785
 4769SOL    HW215207   5.388   1.432   3.558  0.7373  1.5713 -1.4493
 4770SOL     OW15208   2.357   0.538   3.513  0.0533 -0.4285  0.2613
 4770SOL    HW115209   2.375   0.605   3.584 -0.5926  0.2483 -0.1867
 4770SOL    HW215210   2.422   0.463   3.519 -0.3579 -0.6835  1.9263
 4771SOL     OW15211   2.330   5.068   6.184 -0.9097 -0.1706  0.3840
 4771SOL    HW115212   2.410   5.047   6.127 -0.1829  1.7166  0.6517
 4771SOL    HW215213   2.284   4.983   6.208  0.9679 -1.3234  0.1531
 4772SOL     OW15214   5.804   2.366   0.876  0.4434 -0.4047  0.2146
 4772SOL    HW115215   5.830   2.277   0.840 -1.2799 -0.4031 -1.1747
 4772SOL    HW215216   5.709   2.364   0.906  0.5301  0.8352  0.6562
 4773SOL     OW15217   5.616   2.689   5.956  0.4637 -0.6887  0.3184
 4773SOL    HW115218   5.559   2.745   6.015  0.7132 -1.5950  1.4616
 4773SOL    HW215219   5.558   2.631   5.898  0.1540  1.7004 -1.9456
 4774SOL     OW15220   0.036   4.043   6.868  1.0420 -0.4210  0.1814
 4774SOL    HW115221  -0.026   3.976   6.827  1.4845 -0.6610 -0.1166
 4774SOL    HW215222   0.111   4.060   6.804  0.1686  1.4842 -0.3903
 4775SOL     OW15223   1.932   3.142   3.006  0.3292 -0.7208 -0.7997
 4775SOL    HW115224   1.840   3.168   3.035  0.3741 -0.4220 -0.9261
 4775SOL    HW215225   1.932   3.046   2.979  0.0970 -0.7742 -0.6180
 4776SOL     OW15226   0.130   6.547   1.638  0.2056  0.4350  0.1647
 4776SOL    HW115227   0.034   6.571   1.653 -0.7446 -1.6857 -1.8780
 4776SOL    HW215228   0.155   6.564   1.543  1.4379 -0.3346  0.3239
 4777SOL     OW15229   0.875   3.151   2.641  1.0677  0.1843 -0.5417
 4777SOL    HW115230   0.880   3.245   2.608  0.2409  0.6675  0.6361
 4777SOL    HW215231   0.841   3.092   2.568  0.4477  1.0168 -0.9486
 4778SOL     OW15232   0.457   3.544   3.400  0.5280  0.3881 -0.4228
 4778SOL    HW115233   0.467   3.498   3.312 -0.8856  0.9360 -0.9078
 4778SOL    HW215234   0.526   3.616   3.408  1.0091 -0.0178 -0.8353
 4779SOL     OW15235   0.882   1.062   3.265 -0.1931 -0.0093  0.2312
 4779SOL    HW115236   0.799   1.042   3.213  0.3471  1.4368 -1.2623
 4779SOL    HW215237   0.860   1.128   3.337 -0.7172 -1.1878  1.1950
 4780SOL     OW15238   2.556   1.387   5.276  0.4471 -0.3220  0.3949
 4780SOL    HW115239   2.571   1.465   5.336 -0.2003 -0.5720  0.8938
 4780SOL    HW215240   2.534   1.420   5.184  0.5732  0.0804  0.5066
 4781SOL     OW15241   1.969   5.745   2.372  0.8106  0.4084  0.1278
 4781SOL    HW115242   2.011   5.655   2.358 -0.3726  0.0594 -1.4753
 4781SOL    HW215243   1.889   5.736   2.432  0.9776  0.4934  0.3679
 4782SOL     OW15244   0.599   1.310   6.061 -0.5558 -0.2658  0.2722
 4782SOL    HW115245   0.500   1.310   6.050 -0.3538 -2.0367 -3.0147
 4782SOL    HW215246   0.638   1.389   6.014 -0.3389 -1.2485 -1.3102
 4783SOL     OW15247   5.101   5.616   2.928  0.3045  0.2435  0.3274
 4783SOL    HW115248   5.154   5.614   3.013 -0.4665 -0.2986  0.8002
 4783SOL    HW215249   5.050   5.702   2.923 -0.5651 -0.2218  0.9860
 4784SOL     OW15250   5.049   4.656   4.095  0.6820  0.3983  0.3252
 4784SOL    HW115251   5.046   4.656   3.995  2.4668  3.5570  0.1290
 4784SOL    HW215252   5.136   4.617   4.125 -0.3016 -1.5637  0.7795
 4785SOL     OW15253   0.057   5.791   1.632  0.2783 -0.6623  0.2054
 4785SOL    HW115254  -0.008   5.769   1.705  0.1565 -1.1399 -0.0438
 4785SOL    HW215255   0.015   5.855   1.568 -0.2394 -1.5744 -0.3878
 4786SOL     OW15256   1.339   4.937   5.963 -0.3262  0.3499  0.7904
 4786SOL    HW115257   1.372   4.880   5.888  0.5278 -0.7599  1.9707
 4786SOL    HW215258   1.275   5.006   5.927  1.4364  1.0523 -1.2144
 4787SOL     OW15259   4.420   2.433   1.876  0.2203  0.0007  0.3080
 4787SOL    HW115260   4.432   2.444   1.975 -2.7641  0.1361  0.7470
 4787SOL    HW215261   4.357   2.357   1.859  0.5093  0.1327 -1.5036
 4788SOL     OW15262   1.950   0.224   4.418 -0.1100  0.1505 -0.1436
 4788SOL    HW115263   1.867   0.226   4.474  0.2893  0.8736  0.4329
 4788SOL    HW215264   2.027   0.190   4.472  0.2356  0.6572 -0.3069
 4789SOL     OW15265   5.760   0.648   5.105 -0.1336 -0.0091  0.0918
 4789SOL    HW115266   5.734   0.739   5.138  0.0608 -0.7043  2.3605
 4789SOL    HW215267   5.856   0.630   5.130 -0.6304 -1.4136  1.0989
 4790SOL     OW15268   6.804   0.645   6.417  0.0587 -0.6458 -0.2316
 4790SOL    HW115269   6.809   0.648   6.517  1.0988 -0.5245 -0.2718
 4790SOL    HW215270   6.752   0.724   6.384  1.6214  0.5938  0.1336
 4791SOL     OW15271   0.902   1.285   1.968  0.4634 -0.0709 -0.1861
 4791SOL    HW115272   1.000   1.267   1.963  0.3307 -0.5890 -1.7222
 4791SOL    HW215273   0.870   1.273   2.061  1.9755  0.7947  0.4818
 4792SOL     OW15274   5.162   3.091   0.749 -0.4424  0.1029 -0.8512
 4792SOL    HW115275   5.084   3.029   0.759  0.9187 -1.2646  2.7026
 4792SOL    HW215276   5.232   3.047   0.692 -0.0357 -1.1986  0.5619
 4793SOL     OW15277   1.452   0.417   0.335  0.4510 -0.5698 -0.1252
 4793SOL    HW115278   1.482   0.323   0.317  1.4909 -0.3700  0.5164
 4793SOL    HW215279   1.413   0.423   0.427  1.1230 -0.2168  0.1456
 4794SOL     OW15280   5.356   1.420   1.233 -0.3576  0.2237  0.3460
 4794SOL    HW115281   5.311   1.333   1.253  0.0236 -0.1143 -0.2361
 4794SOL    HW215282   5.452   1.414   1.258 -0.0140  0.0023 -0.9793
 4795SOL     OW15283   6.798   1.867   4.398  0.0405 -0.2947  0.4235
 4795SOL    HW115284   6.710   1.861   4.351  0.3035 -0.1093 -0.1046
 4795SOL    HW215285   6.839   1.957   4.380  0.4110 -0.4395  0.5372
 4796SOL     OW15286   4.602   3.042   1.250  0.3815 -0.0804 -0.1721
 4796SOL    HW115287   4.649   3.094   1.322  0.0181 -1.1368  0.8692
 4796SOL    HW215288   4.670   3.007   1.185  0.8797 -0.2357  0.4173
 4797SOL     OW15289   1.578   6.438   4.787 -0.0506  0.2066  0.5923
 4797SOL    HW115290   1.554   6.532   4.812 -0.2411  0.0230  1.1093
 4797SOL    HW215291   1.533   6.375   4.850 -0.6476 -0.2698 -0.2931
 4798SOL     OW15292   0.071   4.779   1.145  0.0738  0.0770  0.1018
 4798SOL    HW115293  -0.000   4.723   1.187  1.4626 -0.2835  2.1135
 4798SOL    HW215294   0.082   4.863   1.197 -0.1446  1.0338 -1.3221
 4799SOL     OW15295   6.253   5.620   4.458  0.2069  0.0056 -0.3692
 4799SOL    HW115296   6.351   5.636   4.446  0.4872 -0.3459  1.2042
 4799SOL    HW215297   6.237   5.522   4.473 -0.1763  0.2605  0.9898
 4800SOL     OW15298   2.238   3.138   4.147 -0.0388 -0.1626  0.4370
 4800SOL    HW115299   2.321   3.138   4.203 -1.0686 -0.4048  2.0289
 4800SOL    HW215300   2.233   3.052   4.095  0.3087 -0.5104  0.9701
 4801SOL     OW15301   0.789   1.959   5.883  0.1530 -0.4735 -0.2432
 4801SOL    HW115302   0.833   1.883   5.932  0.2876  0.1806  0.6855
 4801SOL    HW215303   0.690   1.950   5.892  0.1833  0.4423  1.4873
 4802SOL     OW15304   1.781   5.708   0.208  0.5811  0.0257  0.2785
 4802SOL    HW115305   1.734   5.778   0.262  2.7266  0.9390  1.0762
 4802SOL    HW215306   1.765   5.618   0.248  0.0146  0.3861  0.8765
 4803SOL     OW15307   1.883   6.798   0.643 -0.0172  0.7917  0.0342
 4803SOL    HW115308   1.879   6.805   0.743  0.4704  1.0454  0.0381
 4803SOL    HW215309   1.818   6.730   0.612  1.3261 -0.8547  0.6880
 4804SOL     OW15310   5.919   5.343   0.667  0.1715 -0.0178 -0.0054
 4804SOL    HW115311   5.918   5.436   0.633  2.6105  0.1814  0.3037
 4804SOL    HW215312   5.910   5.279   0.591 -0.0981  0.4556 -0.3735
 4805SOL     OW15313   5.419   6.914   1.661  0.0284 -0.4301  0.3888
 4805SOL    HW115314   5.323   6.928   1.637 -0.6098 -2.3894  1.6206
 4805SOL    HW215315   5.439   6.816   1.664  1.8985 -0.0707  0.8677
 4806SOL     OW15316   1.027   1.694   5.014 -0.4804 -0.4067  0.2872
 4806SOL    HW115317   1.097   1.754   4.977 -0.2175 -0.9960 -0.2029
 4806SOL    HW215318   1.049   1.672   5.109 -1.2521  1.2575  0.8852
 4807SOL     OW15319   1.208   6.509   2.312 -0.1033  0.0148 -0.7519
 4807SOL    HW115320   1.129   6.570   2.313 -0.6857 -0.7307 -0.3493
 4807SOL    HW215321   1.189   6.432   2.251  0.6536  0.2526 -1.3093
 4808SOL     OW15322   0.033   0.995   1.829  0.8559 -0.1841 -0.0080
 4808SOL    HW115323   0.065   1.089   1.816  2.3295 -0.2455  2.4610
 4808SOL    HW215324  -0.037   0.994   1.901 -2.9228 -0.4474 -3.3653
 4809SOL     OW15325   3.679   0.696   0.520  0.1094  0.5861  0.8565
 4809SOL    HW115326   3.766   0.730   0.483  0.5639 -0.9539  0.4107
 4809SOL    HW215327   3.671   0.722   0.616  0.6052  1.5721  0.6413
 4810SOL     OW15328   1.388   0.803   6.650  0.3504 -0.5526 -0.0335
 4810SOL    HW115329   1.378   0.715   6.604 -1.2297 -0.6383  0.4057
 4810SOL    HW215330   1.464   0.799   6.714 -0.8413 -2.2568  1.3693
 4811SOL     OW15331   5.973   5.847   4.152 -0.1893  0.1132 -0.1967
 4811SOL    HW115332   5.921   5.776   4.105 -0.1345  0.4039 -0.6943
 4811SOL    HW215333   6.005   5.812   4.240  2.4398 -1.5592 -1.6782
 4812SOL     OW15334   5.984   5.447   5.056  0.1762 -0.4442 -0.0357
 4812SOL    HW115335   5.962   5.508   5.132 -1.1493 -1.7026  0.6287
 4812SOL    HW215336   5.959   5.490   4.969 -2.9966 -0.9067  0.5498
 4813SOL     OW15337   6.099   2.552   1.744  0.1484 -0.5883  0.3546
 4813SOL    HW115338   6.026   2.503   1.791 -0.9407 -0.9215 -1.5705
 4813SOL    HW215339   6.183   2.545   1.796 -0.8773 -1.3146  1.9839
 4814SOL     OW15340   6.386   2.658   2.200  0.1714  0.3290  0.1237
 4814SOL    HW115341   6.354   2.637   2.108 -0.5149 -0.1702  0.4675
 4814SOL    HW215342   6.423   2.751   2.202  0.2840  0.3057 -0.6723
 4815SOL     OW15343   4.185   0.227   4.650 -0.2296  0.1218 -0.1206
 4815SOL    HW115344   4.237   0.311   4.635  0.5719 -0.0575  1.4449
 4815SOL    HW215345   4.178   0.209   4.748 -0.6981 -1.4604 -0.4145
 4816SOL     OW15346   6.694   2.363   5.231 -0.0483  0.3307 -0.2645
 4816SOL    HW115347   6.613   2.353   5.174  1.1789 -1.7137 -1.7817
 4816SOL    HW215348   6.703   2.284   5.291  0.3623  0.9713  0.5449
 4817SOL     OW15349   3.925   1.068   0.953 -0.1422 -0.8385 -0.5430
 4817SOL    HW115350   4.007   1.116   0.922 -0.6353  1.0680  0.8906
 4817SOL    HW215351   3.919   1.073   1.053 -2.5521  0.0752 -0.6550
 4818SOL     OW15352   6.906   6.306   4.076  0.5713  0.3885  0.5246
 4818SOL    HW115353   6.869   6.239   4.012 -3.3837  2.3847  0.3834
 4818SOL    HW215354   6.976   6.362   4.029  1.0471 -1.0502 -0.5430
 4819SOL     OW15355   0.781   3.446   1.102 -0.5374 -0.0648  0.4709
 4819SOL    HW115356   0.776   3.434   1.201  0.8829  2.3312  0.9069
 4819SOL    HW215357   0.787   3.356   1.058  0.7383 -1.1544  2.6829
 4820SOL     OW15358   1.007   2.468   2.761  0.3172 -0.1597  0.5598
 4820SOL    HW115359   1.094   2.426   2.738 -0.9644 -2.2990 -0.6955
 4820SOL    HW215360   0.966   2.419   2.838  0.8325  1.7735  2.1519
 4821SOL     OW15361   6.681   6.603   5.656 -0.5751 -0.1890  0.3918
 4821SOL    HW115362   6.585   6.575   5.649 -0.4753 -1.1702  2.3177
 4821SOL    HW215363   6.692   6.663   5.736  0.1438  1.3438 -0.7931
 4822SOL     OW15364   3.464   5.246   2.914 -0.1122  0.1338 -0.3483
 4822SOL    HW115365   3.502   5.299   2.839  1.8470  0.2984  0.7072
 4822SOL    HW215366   3.478   5.148   2.896 -1.1567  0.0694 -0.9389
 4823SOL     OW15367   5.408   2.728   5.252  0.2056  0.1630 -0.1851
 4823SOL    HW115368   5.426   2.634   5.224  0.0882  0.7359 -2.3457
 4823SOL    HW215369   5.370   2.729   5.345  0.0237 -1.9175 -0.2051
 4824SOL     OW15370   6.698   3.013   5.834  0.4218 -0.2406  0.1719
 4824SOL    HW115371   6.756   3.075   5.782  1.8568 -1.4182  0.3204
 4824SOL    HW215372   6.638   2.962   5.772  3.1670 -2.7521 -0.6560
 4825SOL     OW15373   1.250   4.580   5.519 -0.2532  0.0066  0.3789
 4825SOL    HW115374   1.315   4.638   5.471  1.9086 -2.6561 -0.1439
 4825SOL    HW215375   1.180   4.547   5.455  0.0228  0.0001  0.0789
 4826SOL     OW15376   3.727   5.931   1.362 -0.3504  0.2225  0.4222
 4826SOL    HW115377   3.668   5.984   1.301  1.2177  0.9402 -0.5106
 4826SOL    HW215378   3.756   5.988   1.439 -0.0024  0.1968  0.3093
 4827SOL     OW15379   6.162   2.851   2.358 -0.6521 -0.7693 -0.4738
 4827SOL    HW115380   6.258   2.851   2.386 -0.8483 -2.5479  0.3371
 4827SOL    HW215381   6.156   2.856   2.258  0.3563 -2.3907 -0.6418
 4828SOL     OW15382   4.824   1.275   4.663  0.1376  0.2647  0.2269
 4828SOL    HW115383   4.858   1.366   4.686 -0.2077  0.8626 -1.4697
 4828SOL    HW215384   4.896   1.222   4.618 -0.0261  0.1355  0.1164
 4829SOL     OW15385   4.193   6.825   4.080 -0.1635  0.4356 -0.3294
 4829SOL    HW115386   4.163   6.733   4.058  1.1810  0.0651 -0.7108
 4829SOL    HW215387   4.201   6.835   4.180 -0.9914  0.3842 -0.2492
 4830SOL     OW15388   1.829   5.506   1.704 -0.5739 -0.4918 -0.5452
 4830SOL    HW115389   1.915   5.508   1.654 -1.0018 -0.8790 -1.3188
 4830SOL    HW215390   1.842   5.545   1.795  0.1385  0.5409 -1.0739
 4831SOL     OW15391   2.707   5.048   0.537 -0.3520  0.4952 -0.2037
 4831SOL    HW115392   2.621   5.025   0.582  0.3086 -0.7943  0.4774
 4831SOL    HW215393   2.699   5.032   0.439 -0.4380 -1.1892  0.0457
 4832SOL     OW15394   3.595   3.720   2.027  0.1971 -0.3008 -0.5189
 4832SOL    HW115395   3.664   3.652   2.051  1.1027  0.8989  0.3814
 4832SOL    HW215396   3.582   3.721   1.928 -1.8144 -3.6293 -0.4536
 4833SOL     OW15397   5.409   3.809   4.513 -0.9317  0.1501  0.3903
 4833SOL    HW115398   5.375   3.867   4.439 -1.8437 -2.3854 -1.3562
 4833SOL    HW215399   5.502   3.837   4.537  0.4116 -0.2352 -3.4695
 4834SOL     OW15400   0.243   2.541   1.373 -0.4974 -0.0339  0.3086
 4834SOL    HW115401   0.229   2.625   1.426  1.5271  0.7105 -0.2442
 4834SOL    HW215402   0.220   2.558   1.277 -1.0584 -0.4314  0.3675
 4835SOL     OW15403   0.901   3.314   0.181 -0.2750 -0.0991 -0.5667
 4835SOL    HW115404   0.971   3.266   0.128  0.8449 -0.4949  1.1918
 4835SOL    HW215405   0.912   3.292   0.278 -1.3230  1.7422  0.0095
 4836SOL     OW15406   2.282   1.942   6.235 -0.2172 -0.0840  0.1442
 4836SOL    HW115407   2.358   1.922   6.297 -1.3429  1.1275  2.0127
 4836SOL    HW215408   2.308   2.015   6.173  0.9843 -1.4207 -1.0040
 4837SOL     OW15409   1.773   3.069   4.443  0.4253  0.3010 -0.3224
 4837SOL    HW115410   1.863   3.025   4.433  0.3576  0.0950 -0.0204
 4837SOL    HW215411   1.725   3.031   4.522 -0.8156 -1.1462 -1.6950
 4838SOL     OW15412   1.475   3.073   5.509 -0.0048  0.6269 -0.3769
 4838SOL    HW115413   1.495   3.169   5.529  0.2586  0.6397 -0.6961
 4838SOL    HW215414   1.380   3.065   5.479  0.4442  1.0431 -1.9767
 4839SOL     OW15415   1.970   3.113   1.181 -0.2790 -0.3289 -0.1066
 4839SOL    HW115416   2.046   3.057   1.215  0.0346 -0.7640 -1.4885
 4839SOL    HW215417   1.999   3.208   1.171 -0.1196 -0.3655  0.0122
 4840SOL     OW15418   0.954   1.020   2.147  0.1005 -0.6596  0.1157
 4840SOL    HW115419   1.052   1.019   2.128  0.0407 -0.8272 -0.1931
 4840SOL    HW215420   0.905   0.986   2.067 -0.1263 -2.0583  0.8149
 4841SOL     OW15421   3.214   5.096   2.409 -0.4623 -0.0061 -0.4752
 4841SOL    HW115422   3.274   5.017   2.399 -0.2547  0.2775 -1.5298
 4841SOL    HW215423   3.120   5.069   2.390 -0.7349 -0.4913  1.3472
 4842SOL     OW15424   3.387   4.867   2.348  0.1335  0.2386 -0.6364
 4842SOL    HW115425   3.427   4.807   2.418 -0.2322  0.1914 -0.4627
 4842SOL    HW215426   3.440   4.860   2.264 -0.4839 -1.1082 -0.9436
 4843SOL     OW15427   4.757   2.030   0.496  0.0390 -0.5323 -0.3275
 4843SOL    HW115428   4.855   2.034   0.516 -0.2531  0.2335  1.0856
 4843SOL    HW215429   4.727   2.117   0.458  0.2087 -1.3462 -2.4620
 4844SOL     OW15430   3.473   5.742   6.047 -0.0623  0.1355 -0.3399
 4844SOL    HW115431   3.484   5.766   6.144 -0.5197 -0.4860 -0.1257
 4844SOL    HW215432   3.476   5.825   5.991 -0.2848  0.5503  0.2534
 4845SOL     OW15433   5.294   5.184   4.657  0.5812 -0.0152 -0.1264
 4845SOL    HW115434   5.346   5.169   4.740 -0.9337  3.0379  1.5280
 4845SOL    HW215435   5.206   5.135   4.663  0.9258 -0.6901 -0.4633
 4846SOL     OW15436   7.000   2.736   3.748  0.1254 -0.0565 -0.2677
 4846SOL    HW115437   7.092   2.710   3.777  1.2613  0.8182 -2.7746
 4846SOL    HW215438   6.997   2.835   3.734 -1.1781 -0.0900 -0.3314
 4847SOL     OW15439   1.085   4.954   6.497 -0.3333 -0.1510 -0.8693
 4847SOL    HW115440   1.123   4.906   6.576 -0.0282 -0.5631 -1.2594
 4847SOL    HW215441   1.105   4.902   6.414  2.1601  1.8046 -1.6168
 4848SOL     OW15442   3.871   2.177   3.537  0.0349  0.1580  0.3218
 4848SOL    HW115443   3.916   2.203   3.451  0.3955  1.7103  0.9423
 4848SOL    HW215444   3.772   2.189   3.527  0.0824  0.4288  0.1399
 4849SOL     OW15445   2.193   4.547   2.137  0.1044 -0.0846  0.5721
 4849SOL    HW115446   2.161   4.542   2.042  0.0656 -0.8005  0.6169
 4849SOL    HW215447   2.174   4.638   2.173  1.1567  0.5802 -0.4707
 4850SOL     OW15448   3.819   0.435   2.293 -0.6131  0.0621 -0.4806
 4850SOL    HW115449   3.801   0.527   2.258 -0.0824 -0.0588 -1.0879
 4850SOL    HW215450   3.735   0.380   2.288 -1.0423  0.6224  0.2721
 4851SOL     OW15451   5.897   4.951   1.170 -0.1325  0.4177 -0.2392
 4851SOL    HW115452   5.976   4.906   1.211  1.0345  1.4562 -1.2595
 4851SOL    HW215453   5.925   5.000   1.087 -1.4008  2.5948  0.5117
 4852SOL     OW15454   4.781   6.728   5.432 -0.1405  0.2942  0.3280
 4852SOL    HW115455   4.818   6.772   5.514 -0.4596  1.6883 -0.2341
 4852SOL    HW215456   4.832   6.759   5.351 -1.0955  0.5124 -0.2106
 4853SOL     OW15457   3.133   6.637   0.452 -0.5455  0.2320 -0.8561
 4853SOL    HW115458   3.123   6.600   0.544 -0.2426  2.3323  0.0612
 4853SOL    HW215459   3.047   6.625   0.402 -1.9015  2.1045  0.8835
 4854SOL     OW15460   5.255   6.703   2.475  0.2111  0.4777 -0.8448
 4854SOL    HW115461   5.196   6.768   2.427  0.0623  0.9273 -0.0713
 4854SOL    HW215462   5.217   6.611   2.469 -2.5978  1.2078  2.6548
 4855SOL     OW15463   5.149   4.735   4.631  0.2802 -0.1413  0.5766
 4855SOL    HW115464   5.193   4.803   4.690  1.8964  2.0522 -2.8577
 4855SOL    HW215465   5.146   4.768   4.537  0.0616 -4.3603 -1.1602
 4856SOL     OW15466   0.100   4.054   1.836 -0.7393  0.6292 -0.0714
 4856SOL    HW115467   0.070   4.136   1.787 -0.7490  0.5645 -0.1743
 4856SOL    HW215468   0.106   4.074   1.934 -1.8276  0.4426  0.0434
 4857SOL     OW15469   4.515   3.116   6.424 -0.0077 -0.0926 -0.2842
 4857SOL    HW115470   4.426   3.075   6.407 -0.1536  0.0671  0.0900
 4857SOL    HW215471   4.506   3.190   6.492  0.3407  0.1877 -0.5371
 4858SOL     OW15472   5.242   5.844   6.111 -0.0636 -0.2866 -0.3496
 4858SOL    HW115473   5.260   5.759   6.160 -0.1696 -0.1810 -0.1228
 4858SOL    HW215474   5.158   5.886   6.148  0.1296  0.0464 -0.2810
 4859SOL     OW15475   2.221   6.346   4.551 -0.0208  0.0205 -0.1669
 4859SOL    HW115476   2.189   6.329   4.458 -0.0963  2.2606 -0.6142
 4859SOL    HW215477   2.321   6.350   4.553 -0.0422  0.7160 -0.3133
 4860SOL     OW15478   4.095   5.929   0.660 -0.2533  0.2900 -0.0889
 4860SOL    HW115479   4.054   5.854   0.608 -0.5833  1.4794 -1.6337
 4860SOL    HW215480   4.123   6.001   0.597  1.2531  0.9268  1.2391
 4861SOL     OW15481   4.866   5.277   4.863  0.3928 -0.0005  0.1894
 4861SOL    HW115482   4.770   5.250   4.850  0.3477 -0.1886  0.9012
 4861SOL    HW215483   4.917   5.258   4.779  0.2354 -1.7713  0.4569
 4862SOL     OW15484   2.430   4.874   3.387  0.1898  0.1866 -0.0060
 4862SOL    HW115485   2.492   4.798   3.407 -2.9964 -3.3876 -2.3836
 4862SOL    HW215486   2.377   4.896   3.469  2.0017  0.9113  1.0594
 4863SOL     OW15487   6.697   0.826   2.274  0.2074  0.7437 -0.3049
 4863SOL    HW115488   6.628   0.858   2.209 -2.0586 -0.9818  1.0972
 4863SOL    HW215489   6.704   0.726   2.269 -0.1565  0.5443  2.1428
 4864SOL     OW15490   2.816   2.867   0.041 -0.2626  0.3436  0.3985
 4864SOL    HW115491   2.823   2.876  -0.058 -0.2044  0.7503  0.4385
 4864SOL    HW215492   2.746   2.799   0.063 -1.5077  1.4727  0.0855
 4865SOL     OW15493   2.811   5.113   4.185  0.7205  0.5183 -0.5189
 4865SOL    HW115494   2.720   5.139   4.218  1.5094  0.4797  1.8034
 4865SOL    HW215495   2.811   5.015   4.162  0.1260  0.5815 -0.8292
 4866SOL     OW15496   1.295   6.287   2.986  0.7444  0.8641  0.1486
 4866SOL    HW115497   1.378   6.281   2.930  0.3443 -1.0274 -0.2987
 4866SOL    HW215498   1.264   6.195   3.010 -0.7327  1.5672  1.0763
 4867SOL     OW15499   6.830   2.497   6.642 -0.1339 -0.2866  0.3703
 4867SOL    HW115500   6.868   2.491   6.735  0.5388 -3.4400  0.0219
 4867SOL    HW215501   6.883   2.438   6.581 -2.4032 -0.7067 -1.3303
 4868SOL     OW15502   1.777   5.099   3.547  0.1458  0.3094 -0.0435
 4868SOL    HW115503   1.845   5.052   3.491  1.0036  1.2988  0.1376
 4868SOL    HW215504   1.737   5.035   3.612  1.4655 -0.1320  0.3644
 4869SOL     OW15505   1.558   0.872   1.843 -0.0372  0.3890 -0.0182
 4869SOL    HW115506   1.626   0.807   1.809  0.7990  0.1859  1.9381
 4869SOL    HW215507   1.552   0.950   1.780 -0.4283 -1.1233 -1.9439
 4870SOL     OW15508   5.338   1.033   2.328  0.3581 -0.5506 -0.2267
 4870SOL    HW115509   5.368   0.942   2.299 -0.4176  0.0088 -3.1250
 4870SOL    HW215510   5.418   1.091   2.344  0.8479 -1.1927 -0.3285
 4871SOL     OW15511   1.674   5.486   5.070 -0.0950  0.2486 -0.4354
 4871SOL    HW115512   1.645   5.401   5.025  1.0475 -0.1188 -0.5153
 4871SOL    HW215513   1.712   5.464   5.160 -0.2757  0.7361 -0.2408
 4872SOL     OW15514   1.031   3.856   5.024 -1.0384  0.8118 -0.3237
 4872SOL    HW115515   0.957   3.920   5.005 -0.3707  1.1562 -1.9345
 4872SOL    HW215516   0.993   3.766   5.046 -1.9602  1.5417  1.1942
 4873SOL     OW15517   1.308   0.995   4.993  0.3540 -0.2288  0.0648
 4873SOL    HW115518   1.320   1.090   5.022 -1.2323  0.5318 -1.5434
 4873SOL    HW215519   1.251   0.946   5.059  0.2073  0.2676  0.3052
 4874SOL     OW15520   0.789   2.300   3.210  0.3888  0.7628  0.4782
 4874SOL    HW115521   0.714   2.367   3.216 -0.3621 -0.1892  2.6114
 4874SOL    HW215522   0.762   2.216   3.256  1.8248 -0.5613 -1.0066
 4875SOL     OW15523   6.343   2.901   0.510 -0.1008  0.3688 -0.3421
 4875SOL    HW115524   6.427   2.888   0.457 -0.2128 -0.8626 -0.2655
 4875SOL    HW215525   6.338   2.830   0.581 -1.0457  0.6334 -0.1347
 4876SOL     OW15526   5.663   0.781   6.448  0.0517  0.8679  0.3634
 4876SOL    HW115527   5.761   0.771   6.464 -0.2027 -0.0239  1.5154
 4876SOL    HW215528   5.634   0.714   6.379  0.1214  0.6070  0.5868
 4877SOL     OW15529   6.352   1.983   2.909 -0.1155 -0.2312 -0.1666
 4877SOL    HW115530   6.401   2.027   2.833 -0.4239  0.6491  0.1407
 4877SOL    HW215531   6.386   2.019   2.995 -1.2024  0.2694  0.0566
 4878SOL     OW15532   2.736   3.226   0.082  0.3276 -0.3331  0.1981
 4878SOL    HW115533   2.802   3.177   0.138  0.6026 -0.4496 -0.2198
 4878SOL    HW215534   2.734   3.322   0.109 -1.1699 -0.8098  1.9080
 4879SOL     OW15535   2.895   6.834   1.497 -0.4287 -0.3828  0.6309
 4879SOL    HW115536   2.799   6.813   1.479 -0.6940  0.9491  0.3951
 4879SOL    HW215537   2.944   6.843   1.410 -0.6562  1.3310  0.6340
 4880SOL     OW15538   6.189   1.423   6.061 -0.0517  0.4666  0.0557
 4880SOL    HW115539   6.247   1.503   6.073 -2.1143  1.9694  0.6924
 4880SOL    HW215540   6.172   1.381   6.150  1.4478 -1.0499 -0.3364
 4881SOL     OW15541   3.444   6.741   6.607 -0.5947  0.5713 -0.6510
 4881SOL    HW115542   3.349   6.749   6.577 -0.9265  0.9485  0.4273
 4881SOL    HW215543   3.452   6.662   6.668 -0.2357  0.5794 -0.6900
 4882SOL     OW15544   5.109   0.467   6.861 -0.0120  0.9199  0.5229
 4882SOL    HW115545   5.056   0.432   6.784  0.3038 -0.8217  1.0665
 4882SOL    HW215546   5.046   0.503   6.931 -0.3741  0.9136  0.2031
 4883SOL     OW15547   0.366   6.663   0.961 -0.8305 -0.0494  0.1446
 4883SOL    HW115548   0.439   6.730   0.949 -0.1099 -0.9538 -0.6825
 4883SOL    HW215549   0.283   6.709   0.991 -0.6260  1.3391 -1.3241
 4884SOL     OW15550   3.175   6.333   1.996 -0.5122  0.2746  0.1393
 4884SOL    HW115551   3.267   6.314   2.031 -0.6765  0.8122  0.8931
 4884SOL    HW215552   3.181   6.405   1.926 -0.0029 -1.8041 -2.0741
 4885SOL     OW15553   6.851   1.806   1.670 -0.0496 -0.2378 -0.3113
 4885SOL    HW115554   6.857   1.853   1.758 -0.3482 -0.1449 -0.3383
 4885SOL    HW215555   6.770   1.746   1.669 -0.8271  0.7855 -1.0055
 4886SOL     OW15556   6.288   5.927   5.634 -0.2285 -0.6773  0.1517
 4886SOL    HW115557   6.218   5.859   5.654 -0.6048  0.3550  2.8250
 4886SOL    HW215558   6.300   5.934   5.535 -2.4855 -2.2703 -0.3318
 4887SOL     OW15559   5.862   1.580   4.202  0.2688 -0.2972 -0.1524
 4887SOL    HW115560   5.938   1.597   4.140 -0.3161 -0.5314 -0.9480
 4887SOL    HW215561   5.830   1.486   4.191  0.3248 -0.4190  0.6921
 4888SOL     OW15562   7.008   5.352   0.317 -0.0048  0.3552  0.0062
 4888SOL    HW115563   7.042   5.432   0.268  0.3301 -0.0777 -0.4835
 4888SOL    HW215564   6.920   5.373   0.359 -0.2918  0.7457 -0.7670
 4889SOL     OW15565   0.028   3.019   3.959  0.7592  0.3892 -0.1783
 4889SOL    HW115566   0.100   2.955   3.986  0.9546  1.8810  3.3719
 4889SOL    HW215567   0.065   3.111   3.954 -0.6396  1.0474  0.8003
 4890SOL     OW15568   6.067   0.903   3.809  0.2100  0.2169  0.1984
 4890SOL    HW115569   6.016   0.817   3.806  2.1577 -1.0218  0.8281
 4890SOL    HW215570   6.070   0.943   3.717  0.2294 -0.9850 -0.3506
 4891SOL     OW15571   1.132   5.116   1.962 -0.6734  0.1802  0.1798
 4891SOL    HW115572   1.212   5.060   1.981 -0.7798 -0.2852 -0.7016
 4891SOL    HW215573   1.161   5.209   1.939 -0.5452  0.7884  2.5822
 4892SOL     OW15574   1.302   4.943   2.929 -0.1721 -0.5053 -0.5725
 4892SOL    HW115575   1.340   5.028   2.966  0.0046  0.2429 -2.3707
 4892SOL    HW215576   1.229   4.965   2.865 -1.8333 -1.8376  0.7845
 4893SOL     OW15577   0.789   5.674   1.125 -0.1805  0.1331 -0.0081
 4893SOL    HW115578   0.859   5.742   1.102  1.7819 -1.6135  0.5273
 4893SOL    HW215579   0.830   5.598   1.174 -1.6674 -2.8411 -2.9163
 4894SOL     OW15580   6.455   1.047   4.373 -0.3748  0.7115  0.4618
 4894SOL    HW115581   6.411   1.089   4.293 -2.7431 -0.4687  1.0876
 4894SOL    HW215582   6.401   1.065   4.455 -0.1026 -1.3637  1.1610
 4895SOL     OW15583   6.270   2.520   5.958  0.1454 -0.3993  0.0052
 4895SOL    HW115584   6.343   2.468   6.001 -0.5763 -0.3518  1.3323
 4895SOL    HW215585   6.299   2.548   5.866  1.1467 -1.7861 -0.1456
 4896SOL     OW15586   4.861   0.057   6.552  0.0395  0.3435 -0.4659
 4896SOL    HW115587   4.777   0.014   6.585  1.2325 -1.5557  0.2444
 4896SOL    HW215588   4.855   0.156   6.565 -1.6614  0.1577  0.5142
 4897SOL     OW15589   1.058   6.375   6.755  0.0081  0.3671 -0.0276
 4897SOL    HW115590   1.067   6.283   6.717 -1.5398  0.9926 -2.1013
 4897SOL    HW215591   1.098   6.441   6.692  0.4034  1.2089  1.0685
 4898SOL     OW15592   4.888   3.797   4.317  0.0292  0.3024 -0.1555
 4898SOL    HW115593   4.856   3.803   4.412  0.6900  1.2152  0.0272
 4898SOL    HW215594   4.922   3.705   4.299 -1.2609 -0.2417  0.1040
 4899SOL     OW15595   1.707   2.999   5.428  0.0437 -0.1051 -0.9042
 4899SOL    HW115596   1.620   3.032   5.464 -0.0547  2.3228 -3.0942
 4899SOL    HW215597   1.701   2.901   5.412 -2.0847 -0.0975 -0.4948
 4900SOL     OW15598   0.175   5.611   6.332  0.0222 -0.0147  0.0696
 4900SOL    HW115599   0.204   5.612   6.427 -0.0360  2.2731  0.1028
 4900SOL    HW215600   0.080   5.639   6.325  0.2014  0.4408 -0.6921
 4901SOL     OW15601   6.767   5.414   4.291 -0.1698 -0.3235 -0.0655
 4901SOL    HW115602   6.838   5.375   4.350 -0.5409  1.1781  1.4714
 4901SOL    HW215603   6.752   5.510   4.316 -1.2523  0.0025 -1.8006
 4902SOL     OW15604   0.646   4.232   6.641 -0.8160 -0.4841 -0.1668
 4902SOL    HW115605   0.596   4.299   6.695 -1.5145 -0.9739 -0.1796
 4902SOL    HW215606   0.617   4.239   6.545  0.7949  0.7310 -0.5882
 4903SOL     OW15607   5.340   3.972   6.471  0.5014 -0.5118  0.7905
 4903SOL    HW115608   5.393   3.887   6.471 -0.4242 -1.1846  3.3275
 4903SOL    HW215609   5.365   4.026   6.552 -0.4015  0.6781  0.3010
 4904SOL     OW15610   3.640   1.137   6.200  0.2489 -0.3626  0.4753
 4904SOL    HW115611   3.634   1.109   6.104  1.5737 -1.3294  0.6480
 4904SOL    HW215612   3.725   1.186   6.215  1.4757 -2.6709  1.6892
 4905SOL     OW15613   6.964   4.668   4.083  0.1134  0.2240 -0.1771
 4905SOL    HW115614   6.883   4.722   4.105 -0.1461  0.8107 -2.3080
 4905SOL    HW215615   6.948   4.573   4.107 -1.2940  0.3056 -0.6820
 4906SOL     OW15616   5.897   2.725   2.804 -0.0655  0.0790 -0.4404
 4906SOL    HW115617   5.913   2.708   2.901  0.6371  0.6825 -0.4419
 4906SOL    HW215618   5.798   2.721   2.785 -0.2036 -0.0645  0.2882
 4907SOL     OW15619   3.110   3.776   0.674 -0.3098 -0.3028 -0.0890
 4907SOL    HW115620   3.114   3.683   0.639  0.0913 -0.1837 -0.3637
 4907SOL    HW215621   3.139   3.840   0.603  0.8194 -0.0800  0.5464
 4908SOL     OW15622   6.946   6.157   6.706  0.0737 -0.1535  0.6123
 4908SOL    HW115623   6.938   6.198   6.797 -0.8627 -2.6625  1.7282
 4908SOL    HW215624   6.967   6.229   6.640 -1.4366  2.1159  2.4222
 4909SOL     OW15625   6.304   0.738   6.034 -0.6624 -0.2116 -0.0845
 4909SOL    HW115626   6.398   0.707   6.021 -0.5557  0.5237 -1.2094
 4909SOL    HW215627   6.241   0.673   5.992 -0.5956 -0.1695 -0.2482
 4910SOL     OW15628   6.957   6.125   5.509  0.1093  0.4148 -0.8094
 4910SOL    HW115629   6.911   6.202   5.467  1.3473  0.8035 -1.5081
 4910SOL    HW215630   6.915   6.039   5.479 -0.5373  0.7691 -0.9283
 4911SOL     OW15631   0.122   4.938   5.668 -0.4536 -0.2455  0.8376
 4911SOL    HW115632   0.089   4.967   5.758 -0.7162  1.0474  0.3457
 4911SOL    HW215633   0.203   4.991   5.644 -0.3453 -0.6326  0.3322
 4912SOL     OW15634   1.796   2.505   1.493  0.5079 -0.7691 -0.0924
 4912SOL    HW115635   1.794   2.450   1.577  0.4074 -0.8244 -0.1306
 4912SOL    HW215636   1.780   2.601   1.517 -0.7058 -0.9292 -0.1619
 4913SOL     OW15637   3.230   4.940   0.704 -0.0537 -0.2116  0.3879
 4913SOL    HW115638   3.197   4.963   0.612  0.0843  0.6582  0.5430
 4913SOL    HW215639   3.164   4.880   0.749 -0.3251 -0.3065 -0.1333
 4914SOL     OW15640   0.955   0.722   1.495 -0.3685 -0.2699 -0.3656
 4914SOL    HW115641   0.865   0.763   1.479 -0.5966 -1.0269 -1.0828
 4914SOL    HW215642   0.951   0.661   1.574 -0.4056 -0.0766 -0.2176
 4915SOL     OW15643   3.205   5.962   3.427 -0.3224 -0.5306  0.3117
 4915SOL    HW115644   3.184   6.028   3.354  0.7236  1.3037  1.5921
 4915SOL    HW215645   3.304   5.960   3.443 -0.5673 -0.5516  1.9803
 4916SOL     OW15646   1.678   2.082   1.320 -0.3297 -0.1709  0.1894
 4916SOL    HW115647   1.672   2.180   1.302  3.4570  0.0730 -0.7124
 4916SOL    HW215648   1.631   2.032   1.248  0.5963  1.0158 -1.3153
 4917SOL     OW15649   1.163   5.771   0.099 -0.4477 -0.3059 -0.0611
 4917SOL    HW115650   1.117   5.691   0.062 -0.6308  0.2228 -1.0074
 4917SOL    HW215651   1.141   5.851   0.044  1.0107  0.1106 -0.0954
 4918SOL     OW15652   3.456   0.610   2.544  0.0093  0.2738  0.8504
 4918SOL    HW115653   3.359   0.631   2.538 -0.6085 -2.2797  0.4141
 4918SOL    HW215654   3.469   0.528   2.600  1.5380 -1.2215 -1.4860
 4919SOL     OW15655   1.670   4.424   1.613 -0.3071  0.5010  0.6546
 4919SOL    HW115656   1.734   4.463   1.547 -1.3353  1.5590  0.2675
 4919SOL    HW215657   1.689   4.461   1.704 -0.1721  0.5648  0.6008
 4920SOL     OW15658   4.752   1.591   4.382  0.0312  0.5587  0.1061
 4920SOL    HW115659   4.761   1.655   4.306 -0.8792  0.4269 -0.1273
 4920SOL    HW215660   4.823   1.609   4.450  0.1833  1.3933 -0.2657
 4921SOL     OW15661   6.302   6.530   2.313  0.4465 -0.8746  0.2497
 4921SOL    HW115662   6.262   6.523   2.404  1.8159 -0.1615  0.9315
 4921SOL    HW215663   6.335   6.441   2.284 -0.6339 -1.2528  0.1268
 4922SOL     OW15664   1.461   5.179   6.632  0.0829  0.0142 -0.0547
 4922SOL    HW115665   1.378   5.205   6.583  1.1364  2.4239 -0.7175
 4922SOL    HW215666   1.532   5.153   6.567  0.4149 -0.2114  0.3903
 4923SOL     OW15667   2.244   2.709   0.765  0.0115  0.0786  0.0731
 4923SOL    HW115668   2.174   2.638   0.757  0.1303 -0.0737  0.3668
 4923SOL    HW215669   2.219   2.772   0.838  1.2540 -1.2338  1.7167
 4924SOL     OW15670   2.159   3.420   4.954  0.2620 -0.2234  0.3870
 4924SOL    HW115671   2.221   3.472   5.013  1.6328 -1.3890  0.0470
 4924SOL    HW215672   2.164   3.323   4.979 -1.4339 -0.3521  0.3243
 4925SOL     OW15673   6.357   5.149   5.545  0.0598  0.1222  0.1247
 4925SOL    HW115674   6.442   5.200   5.528  0.1502 -0.1064 -0.1109
 4925SOL    HW215675   6.348   5.131   5.643  0.0249  0.5957  0.2133
 4926SOL     OW15676   3.974   4.069   1.504  0.0957  0.5595 -0.3658
 4926SOL    HW115677   4.054   4.027   1.461  0.4281  1.6390 -0.8366
 4926SOL    HW215678   3.939   4.008   1.575 -0.7679 -1.5161 -2.4327
 4927SOL     OW15679   3.856   3.494   2.757  0.0599 -0.0853 -0.0435
 4927SOL    HW115680   3.924   3.556   2.798  1.5098 -2.6594  1.7252
 4927SOL    HW215681   3.903   3.426   2.701 -1.3260 -0.4964 -0.7495
 4928SOL     OW15682   1.466   1.784   4.105  0.8470 -0.8658  0.0291
 4928SOL    HW115683   1.460   1.766   4.007 -1.9534 -0.1665 -0.0139
 4928SOL    HW215684   1.504   1.875   4.119 -3.2121  1.2277 -0.8316
 4929SOL     OW15685   0.005   4.566   5.307 -0.0529  0.8080  0.1276
 4929SOL    HW115686   0.067   4.490   5.285 -0.0114  1.0687 -0.7054
 4929SOL    HW215687   0.004   4.580   5.406  0.8893  0.5195  0.1926
 4930SOL     OW15688   6.342   4.088   1.395  0.5053 -0.1238  0.2711
 4930SOL    HW115689   6.403   4.010   1.410 -2.3175 -2.4115  0.7346
 4930SOL    HW215690   6.339   4.109   1.297  0.1287 -1.7278 -0.1035
 4931SOL     OW15691   5.837   6.555   1.293 -0.2119 -0.3247 -0.4072
 4931SOL    HW115692   5.814   6.565   1.390 -0.2579 -0.0061 -0.4512
 4931SOL    HW215693   5.836   6.458   1.269 -1.2771 -0.3347 -0.3529
 4932SOL     OW15694   1.362   1.197   6.866  0.9102  0.0461  0.2509
 4932SOL    HW115695   1.443   1.139   6.874  0.8709  0.1845  1.9817
 4932SOL    HW215696   1.288   1.160   6.922  0.2785  0.7733 -0.0764
 4933SOL     OW15697   3.982   1.596   5.229 -0.1190  0.0848  0.0453
 4933SOL    HW115698   4.061   1.657   5.236 -0.3899  0.4713 -0.1920
 4933SOL    HW215699   4.013   1.502   5.218  0.3017  0.1162  0.9099
 4934SOL     OW15700   1.296   5.693   5.588 -0.3466 -0.0287 -0.0244
 4934SOL    HW115701   1.318   5.667   5.681 -0.8010 -0.5651 -0.0661
 4934SOL    HW215702   1.352   5.772   5.561  0.7864 -0.7310  0.2192
 4935SOL     OW15703   0.636   1.928   1.164 -0.2612  0.2382  0.0211
 4935SOL    HW115704   0.669   2.023   1.158 -0.4111  0.3244  0.5100
 4935SOL    HW215705   0.581   1.917   1.247 -0.8671 -0.0902 -0.4172
 4936SOL     OW15706   6.551   2.888   1.179  0.3154 -0.2601  0.4815
 4936SOL    HW115707   6.562   2.983   1.208  1.5166 -0.3073  0.2226
 4936SOL    HW215708   6.486   2.843   1.240 -1.8099  1.2263 -0.5711
 4937SOL     OW15709   7.000   3.647   6.235  0.2781 -0.1786  0.4232
 4937SOL    HW115710   6.977   3.550   6.235  0.4050 -0.2079 -0.3402
 4937SOL    HW215711   7.099   3.658   6.245  0.1241 -0.0773  2.2733
 4938SOL     OW15712   2.081   3.269   2.083 -0.5246 -0.6104 -0.1747
 4938SOL    HW115713   2.126   3.353   2.051 -1.1174 -0.2635 -0.1276
 4938SOL    HW215714   2.116   3.191   2.032 -0.4778 -0.2370 -0.7299
 4939SOL     OW15715   0.650   1.158   0.167  0.3838 -0.2835  0.5963
 4939SOL    HW115716   0.702   1.211   0.233 -0.0099 -0.2839  0.9138
 4939SOL    HW215717   0.578   1.107   0.214  1.1078 -1.5600  0.3780
 4940SOL     OW15718   1.076   2.236   4.917 -0.4335 -1.1468  0.6519
 4940SOL    HW115719   1.144   2.271   4.853 -1.7648 -0.3051 -0.3479
 4940SOL    HW215720   1.116   2.228   5.008  0.8938 -0.3670  0.1547
 4941SOL     OW15721   3.824   2.142   4.557 -0.2244 -0.3087 -0.0266
 4941SOL    HW115722   3.891   2.152   4.631  1.4189  2.7781 -1.7274
 4941SOL    HW215723   3.870   2.110   4.475 -0.7068  1.9931 -1.2709
 4942SOL     OW15724   2.745   1.532   1.232  0.1913 -0.0077 -1.0519
 4942SOL    HW115725   2.729   1.631   1.237  0.3845 -0.0199  0.0866
 4942SOL    HW215726   2.818   1.507   1.295 -0.4982 -1.0081 -0.6304
 4943SOL     OW15727   5.145   3.085   4.964 -0.2318  0.2355  0.1778
 4943SOL    HW115728   5.082   3.163   4.963 -1.5038 -0.7641  0.1039
 4943SOL    HW215729   5.166   3.060   5.058  0.5072  0.9099  0.2012
 4944SOL     OW15730   2.349   4.747   6.734  0.0074  0.6676  0.2028
 4944SOL    HW115731   2.307   4.784   6.652  0.0699  0.7618  0.2131
 4944SOL    HW215732   2.307   4.788   6.815 -2.4094 -1.8110  0.3575
 4945SOL     OW15733   2.104   0.466   6.614  0.6544  0.0178  0.2243
 4945SOL    HW115734   2.202   0.486   6.619  0.7055 -0.5849  2.4287
 4945SOL    HW215735   2.054   0.535   6.665 -0.4239  1.9354 -3.1013
 4946SOL     OW15736   0.899   5.923   6.763 -0.2032 -0.2014 -0.3809
 4946SOL    HW115737   0.946   5.842   6.727  0.2900  0.2706 -0.8366
 4946SOL    HW215738   0.801   5.912   6.753 -0.1158 -0.5191 -0.9552
 4947SOL     OW15739   1.707   1.877   0.896  0.2093 -0.1892 -0.2013
 4947SOL    HW115740   1.717   1.972   0.869 -0.5416  0.4117  1.4786
 4947SOL    HW215741   1.781   1.852   0.958  0.5003 -0.7696 -0.7670
 4948SOL     OW15742   1.302   3.405   2.068  0.6030  0.2095 -0.6996
 4948SOL    HW115743   1.236   3.333   2.047  0.1645  0.2105  0.6090
 4948SOL    HW215744   1.266   3.493   2.039 -0.2182  0.2759  0.4551
 4949SOL     OW15745   0.239   4.919   6.531  0.2323 -0.0496  0.2140
 4949SOL    HW115746   0.297   4.877   6.601 -1.1923 -2.0291  0.2825
 4949SOL    HW215747   0.238   5.018   6.545 -1.0567 -0.4191  3.8900
 4950SOL     OW15748   4.369   3.390   5.936  0.3164  0.2185 -0.0336
 4950SOL    HW115749   4.276   3.381   5.902  0.5458 -0.9041 -0.3966
 4950SOL    HW215750   4.370   3.374   6.035  0.1374  0.1724 -0.0385
 4951SOL     OW15751   3.178   6.320   4.825 -0.0888  0.0508  0.0464
 4951SOL    HW115752   3.123   6.238   4.808  0.4102 -0.2055 -0.3799
 4951SOL    HW215753   3.235   6.306   4.905 -0.5001  0.2452  0.3774
 4952SOL     OW15754   6.754   6.438   6.810 -0.0452  0.1253  0.2066
 4952SOL    HW115755   6.788   6.405   6.722 -0.5090  3.4985 -1.3769
 4952SOL    HW215756   6.664   6.397   6.827  1.1493 -2.5832  0.4966
 4953SOL     OW15757   0.274   0.520   6.665 -0.2685  0.0331  0.3516
 4953SOL    HW115758   0.218   0.437   6.661 -0.3204  0.0965 -0.4612
 4953SOL    HW215759   0.355   0.509   6.608  0.7918 -0.2132  1.8420
 4954SOL     OW15760   4.193   4.801   5.541 -0.7411  0.0379 -0.3224
 4954SOL    HW115761   4.159   4.731   5.478 -1.2218 -0.8214  0.8562
 4954SOL    HW215762   4.268   4.851   5.497 -0.7606 -0.8333 -1.4015
 4955SOL     OW15763   4.363   6.539   1.987 -0.6116  0.0690 -0.8169
 4955SOL    HW115764   4.331   6.620   2.035 -0.8206 -0.0763 -0.7110
 4955SOL    HW215765   4.404   6.566   1.900  0.4919  0.4052 -0.2055
 4956SOL     OW15766   1.111   6.225   4.047  0.6032 -0.1022 -0.5276
 4956SOL    HW115767   1.027   6.198   3.999  1.0222 -0.5456 -1.0285
 4956SOL    HW215768   1.189   6.177   4.006  0.9015 -0.9724  0.9889
 4957SOL     OW15769   0.219   5.488   1.674 -0.0257  0.4116 -0.0123
 4957SOL    HW115770   0.281   5.421   1.715 -2.5817 -1.9709  0.2389
 4957SOL    HW215771   0.213   5.471   1.576  0.1927  1.0939 -0.1521
 4958SOL     OW15772   5.521   5.672   0.830 -0.3134  0.6523  0.1723
 4958SOL    HW115773   5.522   5.677   0.730  0.6244 -0.6965  0.0823
 4958SOL    HW215774   5.450   5.608   0.860  1.8115 -1.9552  0.1008
 4959SOL     OW15775   4.264   6.504   4.373  0.0308  0.6022 -0.2880
 4959SOL    HW115776   4.279   6.416   4.417 -0.0962 -0.0766 -1.5696
 4959SOL    HW215777   4.206   6.492   4.292 -0.0301  1.8675 -0.4574
 4960SOL     OW15778   6.367   4.918   5.984  0.4977  0.1957 -0.0439
 4960SOL    HW115779   6.299   4.866   6.036  0.6377  0.5604  0.5032
 4960SOL    HW215780   6.442   4.857   5.957  0.8345  0.1799  0.8985
 4961SOL     OW15781   3.921   3.878   2.550  0.1328  0.4133  0.3415
 4961SOL    HW115782   3.967   3.789   2.556  2.3916  1.4747 -0.1992
 4961SOL    HW215783   3.974   3.946   2.601 -0.8589  1.7375 -0.3403
 4962SOL     OW15784   1.402   3.189   0.158  0.4490  0.2008  0.1195
 4962SOL    HW115785   1.356   3.116   0.107  0.1603  0.9044 -0.6537
 4962SOL    HW215786   1.337   3.233   0.220  0.1392  0.9791 -0.7347
 4963SOL     OW15787   6.709   2.857   6.552 -0.2144  0.1762 -0.3345
 4963SOL    HW115788   6.800   2.896   6.566  0.1321 -0.7400  0.0403
 4963SOL    HW215789   6.639   2.926   6.573  0.3678  0.3817  0.9727
 4964SOL     OW15790   1.040   4.768   2.377 -0.2059 -0.0261  0.1314
 4964SOL    HW115791   1.112   4.705   2.349 -0.4852 -0.2777 -0.0346
 4964SOL    HW215792   1.075   4.833   2.444  0.8733  1.4521 -1.7390
 4965SOL     OW15793   2.768   6.571   2.197  0.4300  0.4988  0.4642
 4965SOL    HW115794   2.676   6.548   2.229  1.1398 -0.1267  2.1797
 4965SOL    HW215795   2.784   6.669   2.211 -0.7684  1.1539 -2.0855
 4966SOL     OW15796   4.015   6.241   0.091  0.4547  0.2196  0.1242
 4966SOL    HW115797   4.038   6.216   0.185  1.2351  0.8069  0.1025
 4966SOL    HW215798   3.980   6.161   0.043  1.3508 -0.4262  0.5211
 4967SOL     OW15799   5.095   2.705   1.933  0.1149  0.0484 -0.9607
 4967SOL    HW115800   5.064   2.691   2.027 -2.4317  2.0944 -1.3864
 4967SOL    HW215801   5.027   2.669   1.870  1.8234 -1.3711 -2.1046
 4968SOL     OW15802   0.985   3.642   2.017 -0.1652 -0.2723  0.3274
 4968SOL    HW115803   1.081   3.630   2.041 -0.3127  1.3275  1.9365
 4968SOL    HW215804   0.973   3.628   1.919  1.9904  0.9484 -0.1688
 4969SOL     OW15805   2.672   5.908   4.176  0.5921  0.2188  0.1286
 4969SOL    HW115806   2.765   5.880   4.153  0.6132  0.2099  0.2252
 4969SOL    HW215807   2.606   5.843   4.137  0.7371 -2.2323  3.5211
 4970SOL     OW15808   1.559   2.889   6.652 -0.5470 -0.8280 -0.0012
 4970SOL    HW115809   1.510   2.952   6.591 -1.2059 -1.8073 -0.5095
 4970SOL    HW215810   1.656   2.888   6.627 -0.5723 -0.2179 -0.1570
 4971SOL     OW15811   6.201   5.754   3.915 -0.4906  0.2388  0.4978
 4971SOL    HW115812   6.286   5.785   3.874  0.1784 -2.2856 -0.1604
 4971SOL    HW215813   6.220   5.709   4.003 -1.4857  2.0027  1.6884
 4972SOL     OW15814   0.357   4.059   0.802 -0.0600  0.1042  0.4563
 4972SOL    HW115815   0.279   4.006   0.834  0.2499  0.0806  1.1833
 4972SOL    HW215816   0.327   4.124   0.732 -0.5783 -0.4856  0.1186
 4973SOL     OW15817   4.034   2.391   0.884 -0.2982  0.9006  0.2386
 4973SOL    HW115818   4.113   2.450   0.899 -0.0478  0.6281 -0.0059
 4973SOL    HW215819   3.951   2.440   0.910  0.0723  0.5988  2.1264
 4974SOL     OW15820   4.593   6.253   5.524  0.5166 -0.3878 -0.3544
 4974SOL    HW115821   4.623   6.221   5.613  0.5675 -1.0739 -0.6153
 4974SOL    HW215822   4.613   6.184   5.455  0.5295  0.1579 -0.9091
 4975SOL     OW15823   5.115   5.264   2.110 -0.2009  0.1427 -0.4927
 4975SOL    HW115824   5.212   5.287   2.119  0.4100 -2.2694 -0.3940
 4975SOL    HW215825   5.060   5.344   2.135  1.7290  1.6946 -0.9266
 4976SOL     OW15826   2.381   0.364   5.525  0.3898 -0.5502  0.2670
 4976SOL    HW115827   2.406   0.315   5.609 -0.4948 -0.8814  0.3533
 4976SOL    HW215828   2.305   0.426   5.545 -1.7587 -2.6835 -0.8503
 4977SOL     OW15829   0.857   1.771   3.966 -0.3299  0.5568 -0.4020
 4977SOL    HW115830   0.944   1.817   3.984  0.7334 -1.2826 -0.6700
 4977SOL    HW215831   0.864   1.717   3.882 -2.7089  2.7081 -2.1508
 4978SOL     OW15832   5.520   5.179   5.136  0.0696 -0.0831  0.3771
 4978SOL    HW115833   5.531   5.274   5.164 -2.9713  0.2147  0.8700
 4978SOL    HW215834   5.548   5.119   5.211 -1.2510  0.5478  1.4134
 4979SOL     OW15835   3.474   5.947   6.786  0.0791 -0.2852 -0.1491
 4979SOL    HW115836   3.550   5.912   6.840 -2.2349 -3.5663  1.3376
 4979SOL    HW215837   3.464   6.046   6.802  1.3941 -0.5617  3.0258
 4980SOL     OW15838   4.865   3.099   4.244  0.3262  0.1940 -0.3982
 4980SOL    HW115839   4.854   3.184   4.295 -1.9877  1.6389 -3.0574
 4980SOL    HW215840   4.838   3.022   4.303  0.9456  1.3844  1.5569
 4981SOL     OW15841   3.574   0.245   2.281  0.2799 -0.2508  0.4333
 4981SOL    HW115842   3.562   0.177   2.353 -0.3926 -0.9471 -0.3076
 4981SOL    HW215843   3.484   0.273   2.246  0.5349  1.1397  0.8199
 4982SOL     OW15844   3.048   0.718   4.551 -0.1411  0.4326 -0.3064
 4982SOL    HW115845   3.130   0.722   4.493  0.7625 -1.4426  0.7662
 4982SOL    HW215846   3.032   0.624   4.579 -1.8642  0.9849  0.6797
 4983SOL     OW15847   4.751   2.406   3.965 -0.1722 -0.3929 -0.5566
 4983SOL    HW115848   4.756   2.427   4.063 -1.3780 -2.1307 -0.0686
 4983SOL    HW215849   4.675   2.458   3.925 -0.4763 -0.6151 -0.2814
 4984SOL     OW15850   6.718   4.916   3.570  0.0938  0.0068 -0.0764
 4984SOL    HW115851   6.678   4.905   3.660 -0.8120 -0.5924 -0.5378
 4984SOL    HW215852   6.685   5.000   3.528 -0.2654 -0.2101 -0.2356
 4985SOL     OW15853   3.248   6.825   1.860 -0.1699 -0.3464  0.4522
 4985SOL    HW115854   3.308   6.886   1.807 -0.3048 -0.5626  0.0489
 4985SOL    HW215855   3.254   6.732   1.823 -0.5155 -0.4306  0.6069
 4986SOL     OW15856   2.991   5.794   1.489 -0.7374  0.4072  0.6472
 4986SOL    HW115857   2.901   5.815   1.451 -0.8334 -1.3780 -0.2134
 4986SOL    HW215858   2.990   5.700   1.526  0.4106  0.8185  1.7977
 4987SOL     OW15859   6.536   4.955   3.137  0.3936  0.4688 -0.1701
 4987SOL    HW115860   6.636   4.955   3.134  0.4797 -0.9211  1.3176
 4987SOL    HW215861   6.500   4.905   3.059  0.9370 -0.5362  0.2061
 4988SOL     OW15862   4.671   4.310   4.651 -0.0235 -0.3040 -0.0999
 4988SOL    HW115863   4.605   4.362   4.597 -0.7857 -0.9458  0.1928
 4988SOL    HW215864   4.655   4.326   4.748  1.2642  0.7462 -0.0429
 4989SOL     OW15865   0.033   0.494   3.647  0.1849 -0.5161  0.4756
 4989SOL    HW115866   0.038   0.400   3.612 -1.7817 -0.6009  0.3067
 4989SOL    HW215867   0.078   0.499   3.736 -0.0855 -1.7391  0.6964
 4990SOL     OW15868   4.577   2.504   4.598 -0.7383 -0.2306 -0.5849
 4990SOL    HW115869   4.572   2.407   4.622 -3.2976  0.1905  0.9346
 4990SOL    HW215870   4.560   2.560   4.680 -2.2454  1.4396 -1.9553
 4991SOL     OW15871   2.105   6.452   5.554  0.0383 -0.4360 -0.3771
 4991SOL    HW115872   2.126   6.457   5.457  1.8161  1.3072  0.0238
 4991SOL    HW215873   2.056   6.367   5.574  0.3756 -1.2162 -2.6438
 4992SOL     OW15874   2.264   3.021   6.648 -0.0063 -0.1955 -0.4831
 4992SOL    HW115875   2.165   3.032   6.640 -0.2948 -0.7532  1.6549
 4992SOL    HW215876   2.309   3.058   6.567 -2.0222 -1.0035 -2.0505
 4993SOL     OW15877   1.676   4.495   5.552  0.5936 -0.5525 -0.1477
 4993SOL    HW115878   1.621   4.422   5.593 -0.9392  1.7961  2.2823
 4993SOL    HW215879   1.771   4.486   5.581  0.0257 -0.4578  1.8769
 4994SOL     OW15880   2.403   3.655   5.491  0.5775  0.1251 -0.4575
 4994SOL    HW115881   2.470   3.611   5.431 -0.4261  0.5798 -1.9882
 4994SOL    HW215882   2.421   3.754   5.493 -0.5290  0.3708 -1.5812
 4995SOL     OW15883   0.837   0.973   5.775 -0.3121  0.4202 -1.2478
 4995SOL    HW115884   0.853   1.050   5.713  3.6774 -0.7121 -1.8852
 4995SOL    HW215885   0.810   1.007   5.865 -0.9427  2.3847 -2.1357
 4996SOL     OW15886   0.106   2.014   4.381 -0.1050  0.8926  0.3893
 4996SOL    HW115887   0.064   1.987   4.468 -0.0658  0.6411  0.3300
 4996SOL    HW215888   0.167   1.941   4.349  1.3011  1.7301  1.0614
 4997SOL     OW15889   3.530   1.412   0.244  0.7642 -0.0623 -0.1506
 4997SOL    HW115890   3.517   1.454   0.334  2.8478  0.6650 -0.1304
 4997SOL    HW215891   3.456   1.348   0.226  0.9011 -1.1416  2.6164
 4998SOL     OW15892   1.768   5.574   4.353  0.7882  0.0899  0.0803
 4998SOL    HW115893   1.707   5.595   4.428 -0.8758 -0.9867 -0.9056
 4998SOL    HW215894   1.831   5.650   4.338 -0.7512  1.5411  0.7107
 4999SOL     OW15895   1.362   2.726   3.675 -0.1647 -0.1229 -0.3750
 4999SOL    HW115896   1.377   2.646   3.616 -1.6070  0.0345 -0.9917
 4999SOL    HW215897   1.377   2.810   3.622 -0.2534  0.0191 -0.1761
 5000SOL     OW15898   1.813   0.052   1.997 -0.3778 -0.3616  0.0881
 5000SOL    HW115899   1.761   0.046   1.912 -1.7167 -0.6802  0.9052
 5000SOL    HW215900   1.754   0.028   2.074  1.7398 -3.7262  0.8374
 5001SOL     OW15901   5.821   6.075   3.531  0.4135 -0.1060 -0.4969
 5001SOL    HW115902   5.855   6.132   3.606  1.7247 -0.8876 -0.4780
 5001SOL    HW215903   5.779   5.993   3.569 -0.9797  0.5552 -0.5483
 5002SOL     OW15904   1.114   3.510   5.071  0.2426 -0.0184 -0.0848
 5002SOL    HW115905   1.192   3.555   5.115  0.4183  0.5392 -0.9358
 5002SOL    HW215906   1.142   3.419   5.039  0.1672 -0.3464  0.7660
 5003SOL     OW15907   4.301   1.000   2.503  0.3855 -0.2502 -0.0785
 5003SOL    HW115908   4.337   1.045   2.422  2.3512  0.7617  1.2720
 5003SOL    HW215909   4.281   1.068   2.573 -1.6896 -1.0568  0.1896
 5004SOL     OW15910   6.553   5.905   2.511 -0.1424 -0.1186  0.2251
 5004SOL    HW115911   6.480   5.902   2.443  0.7664 -1.2514 -0.7235
 5004SOL    HW215912   6.532   5.976   2.579 -1.8398 -0.0519 -0.3301
 5005SOL     OW15913   3.472   3.506   2.357 -0.5517 -0.4059  0.0688
 5005SOL    HW115914   3.526   3.535   2.436 -1.6674  1.4362  0.2004
 5005SOL    HW215915   3.529   3.511   2.275 -0.6524  2.4639  0.0517
 5006SOL     OW15916   3.634   2.122   2.538  0.7291 -0.1474  0.3013
 5006SOL    HW115917   3.586   2.125   2.450  0.0256 -0.3958  0.6655
 5006SOL    HW215918   3.703   2.050   2.536 -1.0097 -1.8993  0.7877
 5007SOL     OW15919   6.402   0.621   1.004 -0.8251 -0.1384  0.0195
 5007SOL    HW115920   6.314   0.658   0.975 -0.3289  1.1971  0.1720
 5007SOL    HW215921   6.470   0.634   0.931 -0.3049  0.5411  0.6103
 5008SOL     OW15922   2.401   6.890   4.115  0.0330  0.2492 -0.3294
 5008SOL    HW115923   2.365   6.912   4.025  0.0222  1.0420 -0.1348
 5008SOL    HW215924   2.325   6.871   4.178  0.0218  0.2044 -0.3565
 5009SOL     OW15925   1.982   0.825   5.761  0.4627 -0.4128  0.1623
 5009SOL    HW115926   2.035   0.784   5.835  0.4940 -1.4309 -0.4064
 5009SOL    HW215927   1.911   0.884   5.800 -0.3925 -1.9629  1.0847
 5010SOL     OW15928   6.257   4.422   1.245 -0.2896 -0.2674  0.2873
 5010SOL    HW115929   6.296   4.333   1.224  0.5959  0.1329  0.2018
 5010SOL    HW215930   6.161   4.424   1.217 -0.9635 -1.9132  2.2523
 5011SOL     OW15931   3.068   1.392   4.286 -0.1323  0.7161 -0.2890
 5011SOL    HW115932   3.086   1.295   4.270 -1.5270  0.2670  0.6632
 5011SOL    HW215933   2.971   1.410   4.271 -0.7723  1.0728  3.3722
 5012SOL     OW15934   6.875   2.979   4.508 -0.2524 -0.4289 -0.1448
 5012SOL    HW115935   6.934   3.023   4.439 -1.3579  0.1523 -0.7482
 5012SOL    HW215936   6.843   2.892   4.473  0.2767 -0.7682  0.2044
 5013SOL     OW15937   1.588   0.815   5.421 -0.6499  0.5793 -0.3451
 5013SOL    HW115938   1.593   0.782   5.327 -0.9287 -1.2933  0.2457
 5013SOL    HW215939   1.493   0.809   5.453 -0.2406 -0.9249  0.7219
 5014SOL     OW15940   1.007   3.386   1.336  0.4479  0.1369 -0.1691
 5014SOL    HW115941   1.072   3.375   1.411 -0.7156 -0.7448  0.7311
 5014SOL    HW215942   1.009   3.305   1.278 -0.1160 -0.0623  0.0832
 5015SOL     OW15943   5.580   4.975   3.141  1.0436  0.4246 -0.5698
 5015SOL    HW115944   5.674   4.941   3.146  0.5187 -1.1373 -0.5483
 5015SOL    HW215945   5.530   4.945   3.222  0.5497  1.3350 -0.5294
 5016SOL     OW15946   6.960   0.961   6.832  0.2959  0.2953 -0.2517
 5016SOL    HW115947   6.881   0.971   6.771 -0.3029 -0.3267  0.3894
 5016SOL    HW215948   6.956   1.031   6.904  0.1428  0.0583 -0.0278
 5017SOL     OW15949   1.588   4.033   2.544 -0.6438 -0.7425  0.8620
 5017SOL    HW115950   1.620   4.119   2.586 -1.3585  0.6202 -1.2229
 5017SOL    HW215951   1.661   3.965   2.550  2.2891  1.7586 -2.3249
 5018SOL     OW15952   6.151   0.723   0.931 -0.3373 -0.3631 -0.1641
 5018SOL    HW115953   6.095   0.726   1.013 -0.2493 -0.2395 -0.1098
 5018SOL    HW215954   6.113   0.784   0.862 -2.7473 -3.3091 -1.6880
 5019SOL     OW15955   1.908   2.502   4.594 -0.2520 -0.3768 -0.1293
 5019SOL    HW115956   1.909   2.519   4.692 -1.6339  0.9443 -0.3203
 5019SOL    HW215957   1.814   2.496   4.561  0.1144  1.4133 -1.7044
 5020SOL     OW15958   2.732   0.574   2.578  0.5652 -0.2320  0.0544
 5020SOL    HW115959   2.657   0.516   2.545  0.4028 -0.7515  1.2958
 5020SOL    HW215960   2.696   0.665   2.599  0.4315 -0.2587 -0.0530
 5021SOL     OW15961   2.389   6.703   2.768 -0.1655  0.1064  0.4575
 5021SOL    HW115962   2.404   6.761   2.688  2.0299  0.8508  1.3388
 5021SOL    HW215963   2.349   6.616   2.740  0.1524  0.5273 -1.3857
 5022SOL     OW15964   5.237   3.408   1.804  0.2321  0.2312  0.4957
 5022SOL    HW115965   5.263   3.485   1.863  0.8580 -0.8821  1.7138
 5022SOL    HW215966   5.317   3.350   1.789  0.2766  0.8497 -2.0763
 5023SOL     OW15967   0.681   2.762   2.787 -0.2600 -1.1644  0.5993
 5023SOL    HW115968   0.629   2.783   2.869 -0.8734  1.3137 -0.3429
 5023SOL    HW215969   0.779   2.762   2.808 -0.3822  0.0513  1.2161
 5024SOL     OW15970   4.282   3.105   0.640  0.4129  0.2273 -0.1950
 5024SOL    HW115971   4.366   3.106   0.587 -1.1990  0.6136 -2.9128
 5024SOL    HW215972   4.219   3.038   0.601 -0.6653  0.1123  1.6382
 5025SOL     OW15973   4.485   0.400   4.472  0.3102  0.6640 -0.2418
 5025SOL    HW115974   4.533   0.486   4.454 -0.8317  1.3142 -0.3181
 5025SOL    HW215975   4.490   0.341   4.391 -1.6230  2.0272 -1.4618
 5026SOL     OW15976   5.869   6.661   5.952 -0.5470 -0.4945 -0.1187
 5026SOL    HW115977   5.830   6.575   5.983 -0.5725 -0.5644 -0.3402
 5026SOL    HW215978   5.805   6.736   5.969 -0.7174 -0.5882 -0.3516
 5027SOL     OW15979   4.690   0.083   2.414 -0.7857 -0.3891  0.0855
 5027SOL    HW115980   4.646   0.168   2.385  0.7012  1.0056  1.6853
 5027SOL    HW215981   4.620   0.019   2.447 -2.1389 -0.6418 -2.9326
 5028SOL     OW15982   6.879   3.032   1.393  0.4897 -0.0062  0.6153
 5028SOL    HW115983   6.812   3.005   1.461  0.3596 -0.5347  0.2812
 5028SOL    HW215984   6.946   3.094   1.435  0.8938 -0.9762  1.4446
 5029SOL     OW15985   6.835   3.165   2.704  0.1139 -0.5253  0.0458
 5029SOL    HW115986   6.901   3.206   2.767 -1.3300  1.1768  0.5119
 5029SOL    HW215987   6.794   3.085   2.748  1.0320 -0.9268  0.1976
 5030SOL     OW15988   2.300   4.173   2.156 -0.0568 -0.5908 -0.3699
 5030SOL    HW115989   2.279   4.175   2.058  2.4502 -0.5522 -0.9683
 5030SOL    HW215990   2.257   4.093   2.198 -1.6526 -0.2964 -1.3335
 5031SOL     OW15991   4.501   0.222   0.730 -0.0968 -0.0772 -0.0942
 5031SOL    HW115992   4.492   0.292   0.660  0.6349 -0.9440 -1.0795
 5031SOL    HW215993   4.585   0.169   0.714 -0.9754 -1.6172  0.2200
 5032SOL     OW15994   1.880   5.152   5.883 -0.2527 -0.1052 -0.2617
 5032SOL    HW115995   1.923   5.170   5.972 -0.0069 -1.3138 -0.1110
 5032SOL    HW215996   1.783   5.132   5.897 -0.7642  1.9713 -0.5329
 5033SOL     OW15997   2.715   6.437   5.734  0.0578 -0.0107  0.0540
 5033SOL    HW115998   2.771   6.418   5.815 -0.6210 -0.8508  0.3417
 5033SOL    HW215999   2.773   6.436   5.653  0.4244 -1.2370  0.3088
 5034SOL     OW16000   5.642   4.936   2.738 -0.6250 -0.2656 -0.1129
 5034SOL    HW116001   5.700   4.857   2.756 -3.1738 -2.0075  0.8756
 5034SOL    HW216002   5.547   4.907   2.727 -1.3171  2.4010 -2.2789
 5035SOL     OW16003   2.491   4.571   3.759  0.2739 -0.5795  0.0281
 5035SOL    HW116004   2.570   4.618   3.719 -0.6442  0.3526 -0.7447
 5035SOL    HW216005   2.462   4.498   3.698  1.7004 -2.2293  1.2298
 5036SOL     OW16006   1.701   3.555   4.653  0.6224  0.8201 -0.2461
 5036SOL    HW116007   1.738   3.609   4.577  0.4451 -0.8536 -1.5705
 5036SOL    HW216008   1.738   3.462   4.649 -0.9605  0.1337  0.5260
 5037SOL     OW16009   5.079   4.808   1.628 -0.8787  0.0208 -0.1788
 5037SOL    HW116010   5.102   4.896   1.585 -1.4514  1.5036  2.3423
 5037SOL    HW216011   5.079   4.736   1.558  0.4222  1.8395 -2.2024
 5038SOL     OW16012   3.290   2.872   4.627  0.0459 -0.4505 -0.1541
 5038SOL    HW116013   3.313   2.896   4.721 -0.4708 -0.0443 -0.1257
 5038SOL    HW216014   3.259   2.776   4.624 -1.2964 -0.0663  0.3462
 5039SOL     OW16015   0.679   3.363   4.470  0.3696 -0.1360  0.1953
 5039SOL    HW116016   0.772   3.339   4.497  0.3518  0.1594  0.5115
 5039SOL    HW216017   0.681   3.407   4.380  0.5828  0.3042  0.4149
 5040SOL     OW16018   0.588   1.787   3.903 -0.4447 -0.8145 -0.0613
 5040SOL    HW116019   0.677   1.774   3.949 -0.0804  1.0419 -0.1542
 5040SOL    HW216020   0.603   1.827   3.813 -1.3722 -0.5754 -0.1157
 5041SOL     OW16021   3.835   2.881   0.602  0.2669  0.3331 -0.3771
 5041SOL    HW116022   3.873   2.842   0.518  2.1116  2.3266 -0.5395
 5041SOL    HW216023   3.857   2.978   0.607 -0.5453  0.4573  2.0157
 5042SOL     OW16024   1.085   3.585   5.963 -0.7152  0.4202 -0.6184
 5042SOL    HW116025   1.086   3.684   5.970  0.2381  0.5740 -2.3655
 5042SOL    HW216026   1.177   3.552   5.942 -1.1200 -0.7784 -0.5947
 5043SOL     OW16027   2.890   1.093   0.133 -0.0374 -0.3756 -0.3597
 5043SOL    HW116028   2.937   1.012   0.099  0.2782 -0.8811  1.2057
 5043SOL    HW216029   2.797   1.095   0.097 -1.2336 -3.2867  2.1574
 5044SOL     OW16030   5.876   4.202   3.759 -0.0011 -0.5702 -0.4377
 5044SOL    HW116031   5.824   4.152   3.828 -0.8552  0.4181 -0.3373
 5044SOL    HW216032   5.820   4.278   3.723  0.6630 -0.6609 -1.7362
 5045SOL     OW16033   4.636   2.723   2.979 -0.1660  0.5306 -0.0923
 5045SOL    HW116034   4.697   2.738   3.057 -0.4816  0.0842  0.2443
 5045SOL    HW216035   4.542   2.743   3.006 -0.2347  0.7297 -0.4679
 5046SOL     OW16036   3.683   3.584   2.531 -0.4146  0.1967 -0.0177
 5046SOL    HW116037   3.756   3.545   2.586 -0.0495  3.2242  1.8416
 5046SOL    HW216038   3.610   3.618   2.590 -0.7700  2.1158 -1.4456
 5047SOL     OW16039   2.249   4.423   2.800 -0.3347  0.2343  0.1977
 5047SOL    HW116040   2.290   4.411   2.890 -0.2115  1.2086  0.2766
 5047SOL    HW216041   2.209   4.336   2.771  1.8225 -0.7821  0.0734
 5048SOL     OW16042   1.459   4.789   0.040 -0.7572 -0.3671 -0.0128
 5048SOL    HW116043   1.541   4.847   0.036  0.9119 -2.5332  0.7719
 5048SOL    HW216044   1.400   4.820   0.114 -0.6093  1.1234 -0.4687
 5049SOL     OW16045   4.055   2.264   5.913 -0.3630  0.0035 -0.1544
 5049SOL    HW116046   4.046   2.270   5.814  1.6732 -1.8273 -0.5461
 5049SOL    HW216047   4.108   2.342   5.946  1.3677 -0.7446 -0.9782
 5050SOL     OW16048   1.546   6.900   0.313 -0.4163 -0.3668 -0.5107
 5050SOL    HW116049   1.467   6.851   0.349 -0.8144 -0.4274 -1.4476
 5050SOL    HW216050   1.580   6.854   0.231 -0.2214  0.3974 -0.8693
 5051SOL     OW16051   5.226   4.771   0.974  0.0023 -0.0315  0.0041
 5051SOL    HW116052   5.211   4.767   0.875  0.4265  0.8939 -0.1050
 5051SOL    HW216053   5.266   4.859   0.998 -1.5496  0.4006  1.1951
 5052SOL     OW16054   3.067   4.085   5.608 -0.4928  0.0889 -0.7971
 5052SOL    HW116055   3.044   3.987   5.601  0.0120  0.0146 -1.5981
 5052SOL    HW216056   3.035   4.131   5.525 -0.4044  0.5406 -0.5792
 5053SOL     OW16057   6.238   1.700   6.946 -0.5893 -0.0887 -0.0703
 5053SOL    HW116058   6.219   1.784   6.998 -1.2063 -0.0521 -0.3492
 5053SOL    HW216059   6.159   1.639   6.951 -0.3159 -0.4594 -0.2469
 5054SOL     OW16060   4.106   5.421   2.652  0.0324  0.1602  0.4732
 5054SOL    HW116061   4.147   5.331   2.639  1.2042  0.4891  1.6724
 5054SOL    HW216062   4.177   5.491   2.650 -0.8852  1.1082 -0.6583
 5055SOL     OW16063   6.469   4.795   4.919  0.2079  0.3064 -0.5479
 5055SOL    HW116064   6.564   4.812   4.947  0.0567 -0.3395  0.4203
 5055SOL    HW216065   6.407   4.852   4.973 -0.0362 -0.3554 -0.1051
 5056SOL     OW16066   5.728   6.303   4.315 -0.2798 -0.1043 -0.4231
 5056SOL    HW116067   5.736   6.223   4.255 -0.5822 -1.3026  1.0751
 5056SOL    HW216068   5.632   6.331   4.321  0.0291  1.6819 -2.5132
 5057SOL     OW16069   6.314   0.749   2.435 -0.2435  0.0625 -0.0591
 5057SOL    HW116070   6.389   0.762   2.500  0.0303  2.4838 -0.7230
 5057SOL    HW216071   6.227   0.747   2.484  0.1282 -0.8176  0.5748
 5058SOL     OW16072   1.823   5.821   3.349  0.3464 -0.1653 -0.4031
 5058SOL    HW116073   1.903   5.857   3.398 -0.1837  0.7438 -0.1793
 5058SOL    HW216074   1.800   5.884   3.274 -0.7333  0.0929  0.1259
 5059SOL     OW16075   0.348   5.660   0.888  0.0858 -0.1232  0.0029
 5059SOL    HW116076   0.374   5.747   0.845 -0.3037  0.1241  0.2659
 5059SOL    HW216077   0.262   5.671   0.937  1.9347  0.4409  3.4275
 5060SOL     OW16078   5.794   2.824   6.504 -0.2871  0.6675  0.1259
 5060SOL    HW116079   5.704   2.853   6.537  0.4190  3.3593 -0.1430
 5060SOL    HW216080   5.819   2.877   6.423 -0.0778 -2.7632 -2.3182
 5061SOL     OW16081   6.596   3.167   0.444  0.1303 -0.3867 -0.2871
 5061SOL    HW116082   6.562   3.157   0.350  0.7334  0.1600 -0.5696
 5061SOL    HW216083   6.547   3.241   0.489 -0.3799 -0.8557 -0.0612
 5062SOL     OW16084   6.155   0.822   0.630 -0.3694 -0.3124 -0.0479
 5062SOL    HW116085   6.195   0.833   0.539  1.2906  2.2446  0.8701
 5062SOL    HW216086   6.058   0.845   0.627 -0.2140  0.2562 -1.0840
 5063SOL     OW16087   0.604   5.890   3.867 -0.5890  0.1074  0.4272
 5063SOL    HW116088   0.700   5.871   3.847 -0.7412 -1.9755  1.4172
 5063SOL    HW216089   0.546   5.843   3.801 -0.9475  0.4063  0.5252
 5064SOL     OW16090   5.931   5.467   6.645 -0.1154 -0.1511  0.4942
 5064SOL    HW116091   6.024   5.432   6.660  0.5703 -0.5390 -3.5013
 5064SOL    HW216092   5.868   5.391   6.635 -0.4536  0.0589  0.9980
 5065SOL     OW16093   1.133   6.729   5.679 -0.6076 -0.1116  0.3210
 5065SOL    HW116094   1.200   6.783   5.628 -0.3812 -1.1892 -0.5575
 5065SOL    HW216095   1.174   6.697   5.764  0.4017 -1.6198 -0.6686
 5066SOL     OW16096   5.978   3.505   6.949 -0.6983  0.6997 -0.1641
 5066SOL    HW116097   6.003   3.486   6.854 -1.6564 -0.0440 -0.2809
 5066SOL    HW216098   5.968   3.419   6.998  0.3160  1.0894  0.7659
 5067SOL     OW16099   0.441   1.922   0.959  0.1601  0.1952 -0.0594
 5067SOL    HW116100   0.490   1.859   0.899 -0.5069 -2.2697  1.8121
 5067SOL    HW216101   0.502   1.949   1.034 -0.4364 -0.6464  0.7497
 5068SOL     OW16102   4.183   6.368   2.150  0.0789 -0.8820 -0.0441
 5068SOL    HW116103   4.207   6.434   2.078 -1.2683  2.4310  2.2842
 5068SOL    HW216104   4.085   6.349   2.145 -0.1578 -0.1177  1.1953
 5069SOL     OW16105   2.339   4.712   1.588  0.0699 -0.4787 -0.0939
 5069SOL    HW116106   2.342   4.684   1.492 -0.8123  4.6405 -1.9390
 5069SOL    HW216107   2.244   4.727   1.616  0.3820 -0.8546  1.2276
 5070SOL     OW16108   4.753   2.037   4.189  0.4819  0.1518 -0.4276
 5070SOL    HW116109   4.730   2.103   4.260  0.5261  0.8194 -1.0243
 5070SOL    HW216110   4.719   2.069   4.100  0.7791 -0.4725 -0.7777
 5071SOL     OW16111   6.957   0.118   1.121  0.0177 -0.1736 -0.6585
 5071SOL    HW116112   6.863   0.125   1.155  0.0495 -0.0048 -0.6051
 5071SOL    HW216113   7.020   0.111   1.198 -0.1096 -2.5864 -0.6921
 5072SOL     OW16114   1.678   5.431   2.455  0.6580 -0.0394 -0.0282
 5072SOL    HW116115   1.737   5.453   2.532  0.7583 -0.4225  0.0044
 5072SOL    HW216116   1.582   5.437   2.483  0.6255  1.8711 -0.4168
 5073SOL     OW16117   4.257   1.636   4.134 -0.3324 -0.1516 -0.2453
 5073SOL    HW116118   4.168   1.635   4.180 -0.7109  2.1100 -0.8077
 5073SOL    HW216119   4.250   1.589   4.046 -0.9435 -0.0647 -0.2446
 5074SOL     OW16120   4.161   3.629   5.047 -0.0734  0.1126  0.1507
 5074SOL    HW116121   4.200   3.554   5.100  1.5711  0.7103 -0.1653
 5074SOL    HW216122   4.137   3.597   4.955  1.1763  0.0901 -0.1818
 5075SOL     OW16123   5.459   6.997   5.431 -0.8654  0.0441  1.1688
 5075SOL    HW116124   5.428   7.081   5.475  1.0100 -0.0519  2.8238
 5075SOL    HW216125   5.381   6.939   5.411 -2.0917  1.6674  1.0630
 5076SOL     OW16126   4.476   1.188   0.689  0.1254 -0.0087  0.2471
 5076SOL    HW116127   4.575   1.174   0.690  0.1845  0.0976  2.8002
 5076SOL    HW216128   4.431   1.111   0.734 -0.6370  1.3446  1.9489
 5077SOL     OW16129   0.820   0.895   2.355  0.4014  0.3364  0.2939
 5077SOL    HW116130   0.883   0.942   2.293 -0.2432 -0.3401 -0.9193
 5077SOL    HW216131   0.858   0.806   2.381  0.1830  0.1468 -0.0280
 5078SOL     OW16132   0.503   0.630   5.677  0.2420  0.1920  0.0876
 5078SOL    HW116133   0.562   0.602   5.601  1.7668  0.6274  1.0660
 5078SOL    HW216134   0.499   0.730   5.680 -1.3564  0.1719 -0.5421
 5079SOL     OW16135   3.954   5.136   4.088 -0.1917 -0.2497  0.0365
 5079SOL    HW116136   3.967   5.038   4.102 -0.3719 -0.1656  0.8828
 5079SOL    HW216137   3.885   5.169   4.152 -1.4923  0.0943 -1.5095
 5080SOL     OW16138   4.388   0.676   5.873  0.3910 -0.1459 -0.1997
 5080SOL    HW116139   4.459   0.688   5.804  1.3172 -1.2435  0.5297
 5080SOL    HW216140   4.416   0.721   5.958  0.0446 -0.2673 -0.0198
 5081SOL     OW16141   3.562   4.909   1.730 -0.0200 -0.1395 -0.5304
 5081SOL    HW116142   3.564   4.815   1.764 -1.4446 -0.7442 -1.9765
 5081SOL    HW216143   3.548   4.972   1.807 -0.7136 -1.2533  0.2936
 5082SOL     OW16144   5.933   1.364   5.157  0.4458 -0.4762  0.4498
 5082SOL    HW116145   6.017   1.384   5.208 -0.5330  1.0887  1.5502
 5082SOL    HW216146   5.947   1.384   5.060  1.4683 -0.6608  0.5496
 5083SOL     OW16147   1.101   4.150   2.593  0.2289 -0.3511  0.3378
 5083SOL    HW116148   1.084   4.204   2.676 -2.2399 -2.3961  1.3169
 5083SOL    HW216149   1.195   4.117   2.594  0.8136  1.2066  1.3343
 5084SOL     OW16150   1.914   4.753   2.016 -0.3163  0.4437  0.0833
 5084SOL    HW116151   1.944   4.734   2.109 -0.4536  0.1427  0.0669
 5084SOL    HW216152   1.871   4.843   2.013  0.2214  0.7063  0.1877
 5085SOL     OW16153   6.909   1.314   0.640 -1.1513  0.7265 -0.1322
 5085SOL    HW116154   6.995   1.362   0.623 -0.5052 -0.3356  0.0743
 5085SOL    HW216155   6.874   1.341   0.730  0.7188 -1.3003  1.3049
 5086SOL     OW16156   6.532   4.955   4.188  0.3045 -0.7943  0.2380
 5086SOL    HW116157   6.484   4.962   4.276 -0.8759  1.2333 -0.4960
 5086SOL    HW216158   6.567   5.045   4.162  1.8980 -1.6584 -0.7142
 5087SOL     OW16159   3.909   5.779   5.722  0.0264 -0.7348  0.1705
 5087SOL    HW116160   3.875   5.690   5.690 -0.2742 -0.4407 -0.3375
 5087SOL    HW216161   3.875   5.851   5.662  0.8446 -0.3451  0.1585
 5088SOL     OW16162   5.228   2.281   5.140  0.2029 -0.2013 -0.8442
 5088SOL    HW116163   5.169   2.359   5.159 -0.3220 -0.4761 -1.3086
 5088SOL    HW216164   5.195   2.233   5.059  1.2504 -0.1903 -1.2904
 5089SOL     OW16165   5.534   4.430   5.609 -0.1985  0.5636  0.6116
 5089SOL    HW116166   5.625   4.409   5.646 -0.0773 -1.6930 -0.7743
 5089SOL    HW216167   5.468   4.436   5.685  0.9173  1.3505  1.5566
 5090SOL     OW16168   2.949   4.759   1.011  0.0148 -0.1258  0.8003
 5090SOL    HW116169   2.967   4.857   1.014 -0.0898 -0.0002 -1.2431
 5090SOL    HW216170   2.852   4.742   0.997  0.2948 -0.4394 -0.9085
 5091SOL     OW16171   0.524   5.819   4.165 -0.2134  0.3771 -0.1867
 5091SOL    HW116172   0.526   5.871   4.079 -0.8325 -2.0176 -1.7491
 5091SOL    HW216173   0.574   5.869   4.235 -1.0704  3.1947 -1.4594
 5092SOL     OW16174   4.586   1.404   1.179 -0.1724  0.3147 -0.5873
 5092SOL    HW116175   4.658   1.388   1.247  0.3148 -0.9894 -1.3636
 5092SOL    HW216176   4.502   1.432   1.225 -0.1117 -1.4275  0.6683
 5093SOL     OW16177   0.057   1.816   0.848 -0.1218 -0.0063  0.7961
 5093SOL    HW116178   0.009   1.901   0.871  0.6108  0.7890 -0.4577
 5093SOL    HW216179   0.154   1.825   0.870  0.0276 -0.3801  0.3192
 5094SOL     OW16180   1.043   0.932   0.294 -0.7889 -0.4440 -0.7593
 5094SOL    HW116181   1.044   0.834   0.275  0.5395 -0.4840 -0.5716
 5094SOL    HW216182   0.998   0.980   0.219 -1.0686 -1.1525 -1.0536
 5095SOL     OW16183   1.757   6.652   4.947  0.1498 -0.1679  0.4062
 5095SOL    HW116184   1.694   6.596   5.000  0.7712 -1.4091 -0.1385
 5095SOL    HW216185   1.716   6.676   4.859  0.4795 -1.1029 -0.0105
 5096SOL     OW16186   2.767   5.792   1.715 -0.7508 -0.5532  0.5887
 5096SOL    HW116187   2.722   5.874   1.680 -0.2906  0.3117  1.9300
 5096SOL    HW216188   2.706   5.714   1.706 -2.4806  0.5437  2.1651
 5097SOL     OW16189   0.990   2.847   0.691  0.1099 -0.3359  0.1430
 5097SOL    HW116190   0.979   2.898   0.605 -2.2552  1.1029  1.1848
 5097SOL    HW216191   1.014   2.911   0.764  1.2503 -1.4240  0.7588
 5098SOL     OW16192   1.497   3.999   4.388  0.5393 -0.1228  0.2799
 5098SOL    HW116193   1.483   3.923   4.453 -1.0674  0.3717  0.5633
 5098SOL    HW216194   1.455   4.082   4.425 -0.5367  0.1427 -1.4232
 5099SOL     OW16195   1.281   0.755   4.570  0.1324  0.1583 -0.0291
 5099SOL    HW116196   1.262   0.835   4.628 -1.4856  1.0170 -1.6573
 5099SOL    HW216197   1.197   0.703   4.556  1.2743 -2.3229  1.5595
 5100SOL     OW16198   0.075   5.300   4.698  0.4087 -0.0373 -0.4008
 5100SOL    HW116199   0.165   5.304   4.655  0.8959  1.0290  0.6484
 5100SOL    HW216200   0.068   5.371   4.768 -1.0530 -0.4652 -0.0623
 5101SOL     OW16201   5.812   6.033   0.474 -0.0948  0.6026  0.3046
 5101SOL    HW116202   5.803   6.129   0.445 -1.2499  0.9162  1.6159
 5101SOL    HW216203   5.902   6.019   0.515 -0.7192  1.7540  2.2055
 5102SOL     OW16204   2.939   4.859   4.438 -0.2516  0.6902  0.2097
 5102SOL    HW116205   2.856   4.815   4.407 -0.7949  1.4091  0.6065
 5102SOL    HW216206   2.934   4.875   4.537  0.4980  0.4330  0.2982
 5103SOL     OW16207   2.196   1.637   4.808  0.0342 -0.0401 -0.0657
 5103SOL    HW116208   2.281   1.593   4.778  0.5224  0.8181  0.0098
 5103SOL    HW216209   2.199   1.651   4.907 -1.4066 -2.5090  0.3935
 5104SOL     OW16210   0.487   0.827   0.780 -0.9421  0.3333  0.6630
 5104SOL    HW116211   0.475   0.738   0.824  0.2392  0.2987  0.9387
 5104SOL    HW216212   0.569   0.871   0.816 -1.2287  1.3157  0.1487
 5105SOL     OW16213   3.360   2.042   6.586  0.0884  0.8635  0.0402
 5105SOL    HW116214   3.293   2.076   6.650 -3.1533 -1.9352 -1.5280
 5105SOL    HW216215   3.334   2.068   6.493 -1.0592 -3.0396 -0.9536
 5106SOL     OW16216   6.565   5.867   1.905 -0.5210  0.2435 -0.4267
 5106SOL    HW116217   6.590   5.870   2.001  0.1221  1.3408 -0.6213
 5106SOL    HW216218   6.559   5.771   1.875  1.8840 -0.1023  0.0361
 5107SOL     OW16219   1.196   2.527   5.717 -0.0810 -0.2581  0.1245
 5107SOL    HW116220   1.192   2.556   5.622  2.6191 -1.0580 -0.3006
 5107SOL    HW216221   1.215   2.606   5.775 -1.4345  0.1770  0.0319
 5108SOL     OW16222   3.110   3.849   4.592 -0.6967  0.3224  0.2390
 5108SOL    HW116223   3.186   3.912   4.611  0.1269 -0.6994  0.4144
 5108SOL    HW216224   3.041   3.858   4.663  0.9304 -1.2554  2.1404
 5109SOL     OW16225   6.941   3.314   0.697  0.0768  0.2603  0.1625
 5109SOL    HW116226   6.885   3.379   0.644  0.3256  0.8598  0.6270
 5109SOL    HW216227   6.953   3.230   0.644 -1.9653 -0.2182  0.3770
 5110SOL     OW16228   0.760   6.239   5.337 -0.7253 -0.0421  0.4803
 5110SOL    HW116229   0.813   6.194   5.265 -1.9101 -0.6097 -0.0654
 5110SOL    HW216230   0.755   6.337   5.319  0.0239  0.0021  0.4762
 5111SOL     OW16231   6.458   2.481   5.749 -0.0871 -0.1354 -0.2487
 5111SOL    HW116232   6.453   2.497   5.651  0.2116 -1.5290 -0.5035
 5111SOL    HW216233   6.553   2.488   5.779 -0.1909  0.4104 -0.0184
 5112SOL     OW16234   5.272   6.715   1.389  0.5246  0.0385  0.4779
 5112SOL    HW116235   5.371   6.714   1.374  0.7490 -0.8754  1.8328
 5112SOL    HW216236   5.248   6.645   1.456 -1.3515 -1.3838 -1.5383
 5113SOL     OW16237   0.142   1.800   1.926  0.1221  0.0155  0.5799
 5113SOL    HW116238   0.225   1.746   1.909  1.2812  1.7285  0.5523
 5113SOL    HW216239   0.093   1.814   1.840  0.7788  0.5011  0.2735
 5114SOL     OW16240   5.298   5.932   6.520  0.0459 -0.3009  0.0883
 5114SOL    HW116241   5.295   5.950   6.421  1.4627  0.7514  0.2128
 5114SOL    HW216242   5.345   5.845   6.536  1.1895  0.2670 -0.1068
 5115SOL     OW16243   3.547   4.153   3.825  0.2337  0.6317 -0.8391
 5115SOL    HW116244   3.530   4.147   3.727 -0.0006  2.5455 -0.9556
 5115SOL    HW216245   3.477   4.211   3.867  1.4988  1.5025  0.1244
 5116SOL     OW16246   5.823   4.252   2.731 -0.2613 -0.7956  0.3979
 5116SOL    HW116247   5.785   4.265   2.640 -0.4564 -2.2106  0.2433
 5116SOL    HW216248   5.877   4.168   2.732  1.0883  0.0558  1.1747
 5117SOL     OW16249   3.172   6.870   3.029  0.2433 -0.4844 -0.4138
 5117SOL    HW116250   3.177   6.963   2.993 -1.4987 -0.6840 -1.2856
 5117SOL    HW216251   3.203   6.805   2.960 -0.9302 -0.7056 -0.7542
 5118SOL     OW16252   4.875   0.877   1.869  0.3683  0.4636  0.2015
 5118SOL    HW116253   4.846   0.800   1.924  1.9543  0.3035  0.8805
 5118SOL    HW216254   4.851   0.962   1.915  0.6425  0.3408  0.5772
 5119SOL     OW16255   0.067   0.869   0.843 -0.0558  0.0555  0.1014
 5119SOL    HW116256   0.093   0.801   0.775 -1.7296 -0.2509 -0.2780
 5119SOL    HW216257   0.141   0.881   0.908  0.5210 -1.6490 -0.1899
 5120SOL     OW16258   3.165   1.817   0.809 -0.2114 -0.4348 -0.6917
 5120SOL    HW116259   3.083   1.869   0.834 -0.4584 -0.3356 -1.6521
 5120SOL    HW216260   3.223   1.804   0.890 -0.3345  0.9910 -0.3401
 5121SOL     OW16261   1.275   4.905   4.692  0.0248  0.1288  0.5023
 5121SOL    HW116262   1.366   4.913   4.651 -0.8961  2.2979 -1.3771
 5121SOL    HW216263   1.231   4.821   4.660  0.5976  0.1042 -0.2504
 5122SOL     OW16264   2.196   5.769   2.788  0.0791 -0.1293  0.0468
 5122SOL    HW116265   2.101   5.793   2.802 -0.4277 -2.0689  0.2816
 5122SOL    HW216266   2.209   5.671   2.807  1.3636 -0.7720 -3.3964
 5123SOL     OW16267   6.146   3.320   1.293  0.4146  0.6572  1.0199
 5123SOL    HW116268   6.234   3.362   1.274  1.2413 -1.2459  0.3330
 5123SOL    HW216269   6.144   3.288   1.388  1.4764 -1.4218  0.4053
 5124SOL     OW16270   3.078   0.989   2.805 -0.0951  0.0250 -0.7546
 5124SOL    HW116271   3.079   1.042   2.890 -0.6744  0.1791 -0.8401
 5124SOL    HW216272   3.049   1.047   2.730  0.9350  0.0332 -1.1681
 5125SOL     OW16273   1.715   1.556   0.990 -0.3861  0.3207  0.5493
 5125SOL    HW116274   1.703   1.614   1.071  0.4297  1.6137 -0.2263
 5125SOL    HW216275   1.636   1.567   0.930 -0.0268  1.0113  0.1888
 5126SOL     OW16276   1.158   1.523   0.649  0.5874 -0.0392  0.2103
 5126SOL    HW116277   1.204   1.437   0.626 -1.9826 -1.5170  0.2795
 5126SOL    HW216278   1.129   1.569   0.565 -0.4801 -0.6855  0.2037
 5127SOL     OW16279   3.557   3.236   0.551  0.3181 -0.1451 -0.3909
 5127SOL    HW116280   3.554   3.189   0.463  1.5066 -0.0454 -0.5023
 5127SOL    HW216281   3.592   3.329   0.538 -0.4773  0.2313  0.0540
 5128SOL     OW16282   6.588   2.093   5.696  0.0323 -0.3086  0.2243
 5128SOL    HW116283   6.502   2.144   5.700 -0.1930 -0.3872 -1.9858
 5128SOL    HW216284   6.571   2.000   5.664  0.8386 -0.6618  0.7854
 5129SOL     OW16285   4.735   2.743   3.675 -0.0098  0.0562  0.3501
 5129SOL    HW116286   4.815   2.684   3.690 -1.4298 -1.8786  0.7438
 5129SOL    HW216287   4.751   2.833   3.715  1.5969 -0.6030  1.2556
 5130SOL     OW16288   1.533   0.143   4.572 -0.6522 -0.1991 -0.1169
 5130SOL    HW116289   1.493   0.072   4.630 -2.5125  0.3149 -0.7013
 5130SOL    HW216290   1.561   0.221   4.628  0.6425 -1.0430  0.4324
 5131SOL     OW16291   3.568   4.938   2.592 -0.2658 -0.0484 -0.0495
 5131SOL    HW116292   3.477   4.929   2.632 -0.1195  0.9239  0.5567
 5131SOL    HW216293   3.561   4.986   2.504 -0.2407  1.2236  0.6098
 5132SOL     OW16294   3.854   2.195   5.072 -0.4495 -0.0169 -0.0373
 5132SOL    HW116295   3.808   2.217   5.158 -1.7346 -0.1588 -0.6648
 5132SOL    HW216296   3.788   2.156   5.008  0.7850 -1.2345 -0.6140
 5133SOL     OW16297   3.881   3.828   6.111  0.1734  0.2064 -0.4610
 5133SOL    HW116298   3.960   3.776   6.079  0.5705 -1.2657  2.5732
 5133SOL    HW216299   3.906   3.924   6.123  1.0227  0.0565 -0.9638
 5134SOL     OW16300   6.165   4.136   0.950 -0.7498  0.2076 -0.0453
 5134SOL    HW116301   6.194   4.126   0.855 -3.1830 -2.3059 -0.6725
 5134SOL    HW216302   6.089   4.073   0.968 -1.3616  1.6662  3.1793
 5135SOL     OW16303   0.211   3.582   2.768  0.5766 -0.5380 -0.0310
 5135SOL    HW116304   0.133   3.553   2.713 -0.4683  3.1055 -0.6949
 5135SOL    HW216305   0.285   3.613   2.707  0.7144  0.3791  0.5787
 5136SOL     OW16306   0.855   0.641   6.531 -0.0735 -0.2244 -0.1846
 5136SOL    HW116307   0.913   0.664   6.609 -1.5733 -1.3128  1.3327
 5136SOL    HW216308   0.913   0.611   6.455  1.5531  2.7481 -0.2680
 5137SOL     OW16309   6.127   6.148   2.798  0.1014  0.0683  0.4967
 5137SOL    HW116310   6.199   6.080   2.816 -1.4424 -1.8271 -0.1055
 5137SOL    HW216311   6.128   6.173   2.702 -0.3992 -0.4180  0.3601
 5138SOL     OW16312   3.696   2.882   4.093  0.2681 -0.4891 -0.2126
 5138SOL    HW116313   3.739   2.971   4.109  0.4741 -0.3966 -1.2177
 5138SOL    HW216314   3.640   2.857   4.172  0.4059  0.4143  0.1812
 5139SOL     OW16315   5.017   1.329   2.012  0.1298 -0.3034 -0.1225
 5139SOL    HW116316   5.076   1.348   2.091 -0.3288 -0.7367  0.3345
 5139SOL    HW216317   4.947   1.400   2.006  0.1709 -0.2649 -0.1465
 5140SOL     OW16318   4.051   3.797   5.241  0.0116  0.5828  0.3180
 5140SOL    HW116319   3.955   3.817   5.220 -0.9364 -2.4338  1.2866
 5140SOL    HW216320   4.095   3.756   5.162  0.1279  0.7579  0.2910
 5141SOL     OW16321   1.661   2.976   0.603 -0.4870  0.2069 -0.3254
 5141SOL    HW116322   1.694   3.062   0.563  1.7135  0.4270  1.7154
 5141SOL    HW216323   1.739   2.919   0.629 -1.8181 -0.8961  1.5303
 5142SOL     OW16324   0.148   5.629   3.315  0.0626 -0.3639  0.6075
 5142SOL    HW116325   0.119   5.721   3.286 -1.5526 -1.2053 -0.6034
 5142SOL    HW216326   0.068   5.573   3.336  0.8772 -2.1269 -0.7011
 5143SOL     OW16327   0.429   0.313   2.342 -0.5429  0.0433 -0.6954
 5143SOL    HW116328   0.443   0.327   2.440  1.6631  1.2789 -1.1230
 5143SOL    HW216329   0.407   0.401   2.300  1.5534  0.1437 -1.7049
 5144SOL     OW16330   1.790   1.016   5.852  0.1189  0.2148 -0.5154
 5144SOL    HW116331   1.733   0.979   5.926  2.2235 -4.0186 -0.7138
 5144SOL    HW216332   1.745   1.001   5.764  0.0235  0.0555 -0.4404
 5145SOL     OW16333   1.284   3.680   6.181 -0.2903  0.0707  0.5815
 5145SOL    HW116334   1.222   3.661   6.257  0.3974  0.6164  1.3057
 5145SOL    HW216335   1.326   3.770   6.195 -0.2464  0.2362 -0.5205
 5146SOL     OW16336   5.782   5.593   0.221 -0.1855 -0.1208  0.2408
 5146SOL    HW116337   5.759   5.659   0.292  0.7070  2.3144 -1.6111
 5146SOL    HW216338   5.874   5.557   0.237  1.3923  2.8851 -1.2681
 5147SOL     OW16339   6.676   1.550   4.781 -0.0346  0.3778  0.2532
 5147SOL    HW116340   6.760   1.544   4.727 -0.2002 -3.2409  0.1459
 5147SOL    HW216341   6.699   1.545   4.879 -0.0717 -1.4007  0.2072
 5148SOL     OW16342   5.238   1.619   1.416  0.2660 -0.5351 -0.5140
 5148SOL    HW116343   5.146   1.581   1.426 -0.1037  0.2905 -0.7027
 5148SOL    HW216344   5.291   1.560   1.355  0.1017 -1.4057  0.1569
 5149SOL     OW16345   2.936   6.704   2.806  0.6780  0.0342 -0.4811
 5149SOL    HW116346   2.936   6.660   2.716  0.3686  0.9413 -0.9317
 5149SOL    HW216347   2.967   6.638   2.875 -3.4935 -2.2300 -0.4408
 5150SOL     OW16348   0.199   0.461   4.753 -0.1349  0.2696 -0.2740
 5150SOL    HW116349   0.211   0.541   4.695 -0.7799 -0.8509 -2.0305
 5150SOL    HW216350   0.214   0.378   4.700  2.0742 -0.8197  1.8645
 5151SOL     OW16351   4.467   4.878   3.227 -0.2530  0.1623 -0.0885
 5151SOL    HW116352   4.560   4.909   3.207 -0.2232 -0.4006 -0.8496
 5151SOL    HW216353   4.453   4.787   3.189 -1.1416  0.2666 -0.0344
 5152SOL     OW16354   1.207   1.133   0.068  0.1705 -0.0377  0.6104
 5152SOL    HW116355   1.109   1.131   0.046  0.1592  0.7409  0.5706
 5152SOL    HW216356   1.230   1.053   0.124 -0.0347 -1.4700 -1.2409
 5153SOL     OW16357   1.943   4.342   5.659 -0.3528  0.5364  0.2272
 5153SOL    HW116358   1.921   4.250   5.629  0.3559  0.3944  0.1124
 5153SOL    HW216359   1.914   4.355   5.754  0.0460  0.0039  0.4292
 5154SOL     OW16360   6.954   2.308   6.454 -0.0386  0.6250  0.1843
 5154SOL    HW116361   7.048   2.296   6.421 -0.6554  0.4977 -1.6516
 5154SOL    HW216362   6.905   2.220   6.447 -0.9859  1.2256 -1.3013
 5155SOL     OW16363   0.693   1.679   1.363 -0.0517  0.0895 -0.0293
 5155SOL    HW116364   0.732   1.738   1.293 -0.9291 -1.1815 -1.6809
 5155SOL    HW216365   0.674   1.588   1.323 -0.6579 -0.6542  1.8385
 5156SOL     OW16366   5.311   3.301   4.199 -0.2006 -0.0271 -1.0932
 5156SOL    HW116367   5.389   3.358   4.176  0.2904 -0.8952 -1.6036
 5156SOL    HW216368   5.247   3.299   4.122 -0.6284  0.4996 -0.7610
 5157SOL     OW16369   3.735   1.851   2.187  0.3343  0.3759 -0.3506
 5157SOL    HW116370   3.682   1.857   2.102 -1.3954  1.5755  0.7627
 5157SOL    HW216371   3.832   1.866   2.167 -0.1467  1.4872 -2.0028
 5158SOL     OW16372   2.388   2.366   0.915 -0.2443 -0.3060  0.3203
 5158SOL    HW116373   2.349   2.455   0.937  0.2694 -0.0089  0.0342
 5158SOL    HW216374   2.484   2.376   0.891 -0.7275 -0.5987 -2.0092
 5159SOL     OW16375   2.996   0.608   1.345 -0.1485  0.0980 -0.1860
 5159SOL    HW116376   3.067   0.544   1.317 -1.8904 -1.5681 -1.0383
 5159SOL    HW216377   2.910   0.558   1.358 -1.3675  2.1535  0.0038
 5160SOL     OW16378   5.388   1.179   3.327 -0.3946 -0.4056  0.0927
 5160SOL    HW116379   5.456   1.222   3.386 -0.7646  1.7120 -0.9197
 5160SOL    HW216380   5.300   1.177   3.375  0.0381 -1.8249  0.8594
 5161SOL     OW16381   0.130   0.063   6.711  0.3626  0.3849  0.3939
 5161SOL    HW116382   0.200   0.113   6.659 -0.2980  1.5662  0.6191
 5161SOL    HW216383   0.056   0.036   6.649  1.2678 -1.4154  0.0271
 5162SOL     OW16384   0.054   1.683   0.416 -0.0301  0.2784 -0.3833
 5162SOL    HW116385   0.121   1.620   0.377  0.3175  0.5885 -0.2997
 5162SOL    HW216386   0.102   1.761   0.457 -0.4252  0.3164  0.0175
 5163SOL     OW16387   2.633   2.370   3.528 -0.0352  0.0044  0.4265
 5163SOL    HW116388   2.709   2.362   3.592  2.1113  2.1305 -1.5988
 5163SOL    HW216389   2.599   2.464   3.529  0.6568  0.3532 -2.0343
 5164SOL     OW16390   2.089   4.145   0.075  0.4067 -0.0271  0.0119
 5164SOL    HW116391   2.119   4.231   0.115  1.1927  0.7838 -2.1877
 5164SOL    HW216392   1.993   4.153   0.046  0.2929 -0.1150  0.3572
 5165SOL     OW16393   0.659   5.090   4.617  0.3095  0.1872  0.2430
 5165SOL    HW116394   0.714   5.171   4.597 -1.1599  1.0305 -0.5675
 5165SOL    HW216395   0.613   5.059   4.534 -0.6772 -0.2989  0.9388
 5166SOL     OW16396   0.271   5.705   5.617  0.0814  0.2293  0.1906
 5166SOL    HW116397   0.364   5.740   5.628  0.3492  0.0104 -1.1583
 5166SOL    HW216398   0.257   5.629   5.680  1.7982 -1.5352 -1.3945
 5167SOL     OW16399   5.043   2.527   5.555  0.2471 -0.6014  0.1014
 5167SOL    HW116400   4.981   2.605   5.557  0.6352 -0.1343 -2.3458
 5167SOL    HW216401   4.994   2.444   5.584 -0.4476  0.3290  1.7329
 5168SOL     OW16402   5.256   7.008   4.748  0.8143  0.5802 -0.1941
 5168SOL    HW116403   5.242   6.972   4.841  1.8194 -1.7418 -0.8579
 5168SOL    HW216404   5.173   7.053   4.717 -0.9259 -1.9426  0.4761
 5169SOL     OW16405   6.055   6.316   4.704  0.0061 -0.2097 -0.1715
 5169SOL    HW116406   6.013   6.323   4.613 -1.8479  0.2098  0.6621
 5169SOL    HW216407   5.983   6.310   4.773  1.3668 -2.0693  1.1919
 5170SOL     OW16408   0.979   2.821   6.841  0.0389  0.2531  0.5725
 5170SOL    HW116409   0.978   2.853   6.746  0.2144  0.6562  0.7040
 5170SOL    HW216410   1.051   2.751   6.852 -1.3237 -1.3194 -0.0700
 5171SOL     OW16411   0.832   1.415   6.489  0.0554  0.1866  0.4284
 5171SOL    HW116412   0.815   1.317   6.492 -0.7114  0.2848 -0.3935
 5171SOL    HW216413   0.921   1.434   6.531  0.5171 -0.9306  0.0035
 5172SOL     OW16414   5.793   3.191   0.786  0.4709 -0.1572  0.5690
 5172SOL    HW116415   5.793   3.188   0.686  0.4909 -0.6354  0.5789
 5172SOL    HW216416   5.820   3.101   0.822  0.7079  0.0837  1.0012
 5173SOL     OW16417   4.746   0.042   3.843  0.0812  0.1211 -0.0354
 5173SOL    HW116418   4.820  -0.024   3.835  0.6040  0.7952 -0.8989
 5173SOL    HW216419   4.714   0.045   3.938 -0.0069 -1.4104 -0.0001
 5174SOL     OW16420   1.363   6.102   3.983  0.3512 -0.2435  0.3604
 5174SOL    HW116421   1.444   6.085   3.927  0.1153 -1.5024  0.3703
 5174SOL    HW216422   1.390   6.128   4.075  0.7416  1.3642 -0.1821
 5175SOL     OW16423   3.262   0.679   0.272 -0.0927  0.2643  0.3931
 5175SOL    HW116424   3.218   0.626   0.200 -0.5442 -1.2776  1.7673
 5175SOL    HW216425   3.330   0.623   0.319  2.1294  2.0310 -0.4795
 5176SOL     OW16426   6.034   6.103   6.054 -0.0723 -0.0223 -0.4545
 5176SOL    HW116427   6.121   6.071   6.015  0.5798 -0.7599  1.4861
 5176SOL    HW216428   5.963   6.098   5.984  1.1101 -0.8553 -1.6607
 5177SOL     OW16429   5.026   3.536   0.781 -0.3664 -0.2898 -0.3613
 5177SOL    HW116430   5.028   3.586   0.694 -0.3010  0.8257  0.2612
 5177SOL    HW216431   5.066   3.594   0.853 -0.8639 -1.0133  0.5057
 5178SOL     OW16432   0.158   3.803   1.704  0.7823 -0.8138 -0.2666
 5178SOL    HW116433   0.258   3.800   1.692  0.8982 -1.5330  0.7297
 5178SOL    HW216434   0.134   3.887   1.753  0.8082 -0.2839 -1.1343
 5179SOL     OW16435   2.385   6.044   3.719 -0.7185 -0.5175 -0.0704
 5179SOL    HW116436   2.484   6.053   3.719 -0.7285 -0.2482 -1.3221
 5179SOL    HW216437   2.359   5.953   3.750  0.0051 -1.2468 -1.5513
 5180SOL     OW16438   2.534   5.817   3.127 -0.3497 -0.4037 -0.4464
 5180SOL    HW116439   2.445   5.826   3.082  0.3858 -0.6179 -2.0378
 5180SOL    HW216440   2.523   5.773   3.216 -1.9409  0.5122 -0.1651
 5181SOL     OW16441   0.201   2.794   4.322  0.4672  0.6228 -0.0447
 5181SOL    HW116442   0.179   2.718   4.382  1.9032  1.0546  1.0724
 5181SOL    HW216443   0.179   2.880   4.368  0.9888  0.9393 -0.3767
 5182SOL     OW16444   1.833   0.634   3.358  0.3941 -0.0938 -0.9098
 5182SOL    HW116445   1.779   0.579   3.422 -1.3243  2.3924 -0.0818
 5182SOL    HW216446   1.930   0.626   3.381 -0.1158  0.1925  1.6565
 5183SOL     OW16447   6.494   2.787   2.514  0.1261  0.0880  0.7614
 5183SOL    HW116448   6.507   2.884   2.533  0.3373 -0.0757  1.4770
 5183SOL    HW216449   6.577   2.749   2.474  1.0027 -0.3542  2.8521
 5184SOL     OW16450   2.092   1.219   5.954  0.5864 -0.6885 -0.3603
 5184SOL    HW116451   2.014   1.254   6.006  0.8470  1.9216 -1.5277
 5184SOL    HW216452   2.059   1.173   5.872  0.2501 -2.2582  0.6224
 5185SOL     OW16453   6.650   1.556   1.083  0.4815  0.0697 -0.1798
 5185SOL    HW116454   6.602   1.517   1.004  0.3421 -0.3975  0.1293
 5185SOL    HW216455   6.716   1.624   1.052 -0.3399  0.6823 -0.6259
 5186SOL     OW16456   1.203   1.027   5.704 -0.3172 -0.6002  0.4561
 5186SOL    HW116457   1.213   1.047   5.607  5.1764 -1.5034  0.5442
 5186SOL    HW216458   1.180   0.930   5.716  0.5842 -0.8881 -0.0183
 5187SOL     OW16459   0.137   4.028   6.430 -1.0425 -0.1250  0.1301
 5187SOL    HW116460   0.059   3.965   6.436 -1.4592  0.3587 -0.1479
 5187SOL    HW216461   0.107   4.121   6.452 -1.2199  0.5927 -2.7139
 5188SOL     OW16462   6.117   0.469   0.749  0.3732 -0.5221 -0.1676
 5188SOL    HW116463   6.024   0.441   0.774  0.1005 -0.2334 -0.8559
 5188SOL    HW216464   6.138   0.557   0.792 -0.8689  1.0315 -2.5502
 5189SOL     OW16465   5.405   5.555   6.198  0.3507  0.4473 -0.6577
 5189SOL    HW116466   5.337   5.493   6.160  0.9371 -0.1921 -0.6935
 5189SOL    HW216467   5.494   5.538   6.155  1.6093 -1.9073  2.4845
 5190SOL     OW16468   1.663   5.631   1.969 -0.1363 -0.0249 -0.0593
 5190SOL    HW116469   1.663   5.731   1.963  0.1171  0.0116  0.4599
 5190SOL    HW216470   1.693   5.604   2.060 -2.9382 -0.5051  0.8248
 5191SOL     OW16471   2.996   4.416   0.619  0.3096 -0.8864 -0.5622
 5191SOL    HW116472   2.983   4.319   0.640  0.9045 -0.8374  0.0470
 5191SOL    HW216473   2.942   4.472   0.682 -0.1042 -0.8168 -0.9705
 5192SOL     OW16474   6.737   4.659   4.772 -0.1413 -0.6550  0.0292
 5192SOL    HW116475   6.717   4.562   4.755  2.0497 -1.2534  0.5336
 5192SOL    HW216476   6.762   4.703   4.686  1.9753 -1.3875  0.2116
 5193SOL     OW16477   5.413   5.650   5.459  0.6240  0.3524 -0.0029
 5193SOL    HW116478   5.490   5.605   5.413  1.6796  1.5280  0.5208
 5193SOL    HW216479   5.401   5.742   5.420  0.6883  0.8727  1.1432
 5194SOL     OW16480   4.086   3.560   5.370 -0.5233  0.5385  0.1605
 5194SOL    HW116481   4.126   3.568   5.461  2.0991 -0.0315 -0.8755
 5194SOL    HW216482   4.095   3.646   5.321  2.2377 -0.3655 -1.0956
 5195SOL     OW16483   1.728   1.312   5.561 -0.6614 -0.0780  0.2636
 5195SOL    HW116484   1.700   1.385   5.624  2.0151 -0.0718  1.5860
 5195SOL    HW216485   1.772   1.353   5.481  2.5960 -0.0740  1.8740
 5196SOL     OW16486   5.570   6.999   2.254  0.4669 -0.1545  0.2815
 5196SOL    HW116487   5.552   6.911   2.297 -1.1193  0.4566  0.9511
 5196SOL    HW216488   5.632   6.987   2.177  2.8752 -1.4074  2.2748
 5197SOL     OW16489   4.134   3.373   5.817  0.4315  0.1766 -0.4128
 5197SOL    HW116490   4.134   3.411   5.725 -0.9902 -0.7973 -0.8505
 5197SOL    HW216491   4.106   3.277   5.814 -1.4257  0.5955  1.1808
 5198SOL     OW16492   1.060   6.258   3.636 -0.3111 -0.1862 -0.3643
 5198SOL    HW116493   0.981   6.318   3.632 -0.6014 -0.5107  0.3188
 5198SOL    HW216494   1.042   6.182   3.698  0.7227  0.0247  0.2285
 5199SOL     OW16495   2.348   5.080   0.915 -0.9008  1.0692  0.0051
 5199SOL    HW116496   2.260   5.124   0.898 -0.5893  1.1448 -1.5744
 5199SOL    HW216497   2.416   5.150   0.936 -0.7010  1.2667 -1.1978
 5200SOL     OW16498   0.875   5.371   4.854  0.7831 -0.2555 -0.8272
 5200SOL    HW116499   0.924   5.291   4.887 -1.4234 -0.5912  2.0774
 5200SOL    HW216500   0.934   5.452   4.861  1.3649 -0.7982  1.4675
 5201SOL     OW16501   1.539   5.963   4.183 -0.5456  1.0324  0.2437
 5201SOL    HW116502   1.461   5.936   4.241 -0.0528  0.2498  0.5742
 5201SOL    HW216503   1.609   6.006   4.240  0.6650 -1.2398  0.6026
 5202SOL     OW16504   1.696   4.814   2.265 -0.4325  0.1031 -0.2291
 5202SOL    HW116505   1.689   4.765   2.352 -0.2074 -0.7227 -0.6676
 5202SOL    HW216506   1.616   4.794   2.209 -0.6269  0.7164 -0.1818
 5203SOL     OW16507   0.490   3.454   0.923 -0.0969 -0.0333  0.5201
 5203SOL    HW116508   0.485   3.372   0.864  0.2455 -1.1083  1.9341
 5203SOL    HW216509   0.573   3.505   0.901 -1.0893  0.8333 -1.4584
 5204SOL     OW16510   4.187   6.208   5.314 -0.1549  0.5163  0.2325
 5204SOL    HW116511   4.104   6.239   5.268 -0.8123 -1.5699 -0.0633
 5204SOL    HW216512   4.166   6.186   5.409 -1.2671 -4.5417 -0.9015
 5205SOL     OW16513   2.247   5.336   6.072 -0.4394 -0.1352 -0.2199
 5205SOL    HW116514   2.264   5.258   6.132  0.6815 -0.3927 -0.8437
 5205SOL    HW216515   2.298   5.416   6.105  0.4406 -0.3611 -0.9641
 5206SOL     OW16516   6.135   5.768   5.946  0.4887  0.8938  0.4778
 5206SOL    HW116517   6.145   5.692   6.009 -0.7616  0.8731  0.6774
 5206SOL    HW216518   6.051   5.819   5.968  1.7311  2.8473  0.9050
 5207SOL     OW16519   1.786   6.286   2.080  0.7380  0.1670 -0.1619
 5207SOL    HW116520   1.772   6.308   1.984  0.6889  0.5535 -0.0681
 5207SOL    HW216521   1.840   6.357   2.124 -0.3855  0.6938  0.4115
 5208SOL     OW16522   3.795   2.245   5.730  0.4340  0.3610 -0.3964
 5208SOL    HW116523   3.775   2.260   5.827  2.3434 -3.4340  0.8220
 5208SOL    HW216524   3.886   2.279   5.709 -0.8767  3.4155 -1.6731
 5209SOL     OW16525   0.321   6.277   4.800 -0.0478  0.1560 -0.2585
 5209SOL    HW116526   0.222   6.283   4.794 -0.3327 -3.3303 -1.6206
 5209SOL    HW216527   0.348   6.269   4.896 -1.6071 -2.9794  0.0549
 5210SOL     OW16528   4.948   3.234   2.672  0.2051  0.0084  0.2713
 5210SOL    HW116529   4.909   3.145   2.698 -0.2617  0.1651  0.1070
 5210SOL    HW216530   4.963   3.288   2.755  0.0183 -0.0307  0.3329
 5211SOL     OW16531   3.627   4.535   1.238  0.3089  0.0435  0.3838
 5211SOL    HW116532   3.529   4.547   1.223  0.4163  0.0579 -0.3845
 5211SOL    HW216533   3.677   4.573   1.160  0.9909  1.0750  1.3059
 5212SOL     OW16534   0.981   6.201   5.551 -0.4052 -0.7354 -0.5623
 5212SOL    HW116535   1.028   6.284   5.523 -0.0837 -1.2102 -1.4967
 5212SOL    HW216536   0.882   6.214   5.545 -0.4081 -1.2889 -3.6361
 5213SOL     OW16537   4.520   3.156   5.851  0.1903 -0.0414 -0.1200
 5213SOL    HW116538   4.476   3.245   5.863  2.1519  0.7912  1.3593
 5213SOL    HW216539   4.495   3.119   5.761 -4.1287 -0.0801  0.8827
 5214SOL     OW16540   3.511   6.368   0.492  0.1180 -0.1999  0.2495
 5214SOL    HW116541   3.544   6.346   0.584 -1.3753 -1.3038  0.5499
 5214SOL    HW216542   3.519   6.287   0.434  0.2086  0.2382 -0.3566
 5215SOL     OW16543   5.393   5.439   4.663  0.4964  0.3750 -0.7098
 5215SOL    HW116544   5.339   5.489   4.595 -0.0259  2.1063  0.9167
 5215SOL    HW216545   5.348   5.352   4.684 -1.3454  1.4635  0.0892
 5216SOL     OW16546   2.679   0.819   2.678 -0.0904 -0.0206  0.1926
 5216SOL    HW116547   2.729   0.899   2.644 -2.1239  1.4104  0.4217
 5216SOL    HW216548   2.685   0.817   2.778  0.5646 -0.5873  0.1465
 5217SOL     OW16549   4.073   6.237   2.538 -0.1593  0.3065 -0.7765
 5217SOL    HW116550   4.115   6.315   2.585 -0.6793 -0.1368  0.4619
 5217SOL    HW216551   4.061   6.259   2.441 -0.4486  1.8378 -0.4149
 5218SOL     OW16552   2.092   0.553   3.799  0.0264  0.0910 -0.2852
 5218SOL    HW116553   2.121   0.547   3.894  0.5944  1.3384 -0.3536
 5218SOL    HW216554   2.021   0.485   3.781  0.3502 -0.5782  0.8565
 5219SOL     OW16555   2.399   6.557   1.510 -0.3564  0.3861 -0.0113
 5219SOL    HW116556   2.472   6.492   1.490  0.2361  1.8201 -2.9431
 5219SOL    HW216557   2.403   6.582   1.607  3.5027  0.9206 -0.1732
 5220SOL     OW16558   0.274   0.401   1.409 -0.3989 -0.1484  0.1617
 5220SOL    HW116559   0.177   0.384   1.392 -0.2517 -0.5152 -0.3178
 5220SOL    HW216560   0.299   0.491   1.372 -0.6863  0.2067  0.8103
 5221SOL     OW16561   5.764   1.277   0.731 -0.0302 -0.6373 -0.3986
 5221SOL    HW116562   5.802   1.333   0.657  0.7372 -1.1271 -0.3848
 5221SOL    HW216563   5.744   1.335   0.810 -1.3465 -0.0193 -1.1518
 5222SOL     OW16564   6.559   5.720   4.771  0.5823 -0.3697 -0.1735
 5222SOL    HW116565   6.641   5.776   4.759  0.5299 -0.0720  0.7635
 5222SOL    HW216566   6.483   5.778   4.800  0.4581 -0.8716  0.5409
 5223SOL     OW16567   4.476   6.785   1.851  0.2209 -0.1877 -0.2758
 5223SOL    HW116568   4.536   6.862   1.830  0.2547 -0.1549 -0.0607
 5223SOL    HW216569   4.499   6.708   1.791 -0.4611  0.2858 -1.1765
 5224SOL     OW16570   5.630   0.878   3.886 -0.4106 -0.1380  0.5426
 5224SOL    HW116571   5.723   0.853   3.914  0.5780 -0.6346 -2.6668
 5224SOL    HW216572   5.570   0.798   3.895  0.3380 -0.8479 -0.4658
 5225SOL     OW16573   0.055   0.220   6.041 -0.1694  0.5743  0.2470
 5225SOL    HW116574   0.057   0.157   5.963 -0.3416  2.5087 -1.3833
 5225SOL    HW216575   0.107   0.180   6.116 -1.0594 -1.9226 -0.3585
 5226SOL     OW16576   3.038   0.492   3.553 -0.0754  0.1296  0.4358
 5226SOL    HW116577   2.964   0.536   3.603 -0.8392 -0.5521 -0.0661
 5226SOL    HW216578   3.032   0.517   3.456 -0.7784 -1.3779  0.0645
 5227SOL     OW16579   6.377   4.255   6.375 -0.4184 -0.3145  0.7168
 5227SOL    HW116580   6.468   4.297   6.378 -0.5733  0.0312  0.5759
 5227SOL    HW216581   6.386   4.158   6.352 -0.1182 -0.1733  0.2147
 5228SOL     OW16582   5.514   5.949   2.706 -0.2227  0.3282 -0.7619
 5228SOL    HW116583   5.481   6.014   2.637  2.8542  2.0217 -0.7980
 5228SOL    HW216584   5.442   5.935   2.775 -2.6735  0.0613 -3.1974
 5229SOL     OW16585   1.025   3.116   5.837 -0.1056 -0.3519  0.8973
 5229SOL    HW116586   1.008   3.022   5.869 -1.0765 -0.6615 -0.4037
 5229SOL    HW216587   1.043   3.176   5.915 -1.5225 -1.2161  1.9246
 5230SOL     OW16588   6.657   2.536   0.097  0.2357  0.4846  0.7495
 5230SOL    HW116589   6.745   2.489   0.097  0.8334  1.1714 -3.4637
 5230SOL    HW216590   6.584   2.469   0.082  0.3171  0.2303  1.4405
 5231SOL     OW16591   2.916   3.621   3.172  0.2375 -0.5599 -0.0169
 5231SOL    HW116592   2.973   3.700   3.195  0.7681 -0.7996 -0.4824
 5231SOL    HW216593   2.878   3.633   3.080 -1.7645  0.3324  0.8684
 5232SOL     OW16594   6.448   3.075   3.154  0.7434  0.2185 -0.3459
 5232SOL    HW116595   6.533   3.038   3.192 -1.3095 -1.7091  2.8561
 5232SOL    HW216596   6.448   3.175   3.164  2.4061  0.2263 -0.0427
 5233SOL     OW16597   1.002   6.818   1.134  0.3414 -0.0205  0.1142
 5233SOL    HW116598   0.972   6.904   1.176  0.7797  0.5564 -0.7308
 5233SOL    HW216599   0.932   6.785   1.071  0.9295  0.6628 -0.9071
 5234SOL     OW16600   4.199   4.776   6.769 -0.1023  0.0608  0.4086
 5234SOL    HW116601   4.279   4.772   6.829  0.0773 -2.5580  0.1224
 5234SOL    HW216602   4.121   4.733   6.815 -0.4785 -0.2418 -0.5022
 5235SOL     OW16603   1.348   0.965   0.398  0.4990  0.9557 -0.1251
 5235SOL    HW116604   1.282   1.031   0.434  1.5394  1.0366  1.8068
 5235SOL    HW216605   1.299   0.891   0.351 -0.9414  1.2126  0.8976
 5236SOL     OW16606   5.632   2.665   2.939 -0.3204  0.1832  0.2986
 5236SOL    HW116607   5.678   2.749   2.970  1.4536 -0.8507  0.5904
 5236SOL    HW216608   5.544   2.689   2.900  0.2016  2.2092  0.2217
 5237SOL     OW16609   1.808   2.620   0.827 -0.1799  0.2969  0.4523
 5237SOL    HW116610   1.888   2.578   0.784 -0.8647 -1.2759  0.6792
 5237SOL    HW216611   1.801   2.590   0.922 -1.8039 -0.6935  0.0419
 5238SOL     OW16612   1.628   2.736   1.271  0.8702 -0.1123  0.0465
 5238SOL    HW116613   1.585   2.817   1.231 -0.8922 -0.1668  1.7215
 5238SOL    HW216614   1.654   2.755   1.365 -0.3356 -1.7158  0.7478
 5239SOL     OW16615   4.574   3.938   5.723  0.2708 -1.0327 -0.0724
 5239SOL    HW116616   4.536   4.018   5.768 -1.7492 -2.5178  1.0028
 5239SOL    HW216617   4.618   3.879   5.790  1.3141 -1.1084 -0.7835
 5240SOL     OW16618   5.357   1.451   3.030 -0.4868 -0.8792 -0.3924
 5240SOL    HW116619   5.411   1.530   3.059 -1.7387 -0.1502  0.0276
 5240SOL    HW216620   5.263   1.460   3.065 -1.4466 -1.1163 -2.7244
 5241SOL     OW16621   6.375   6.022   4.544 -0.1344 -0.4736  0.3510
 5241SOL    HW116622   6.391   5.977   4.632  1.1755 -0.7794 -0.0167
 5241SOL    HW216623   6.424   5.973   4.472 -1.2562 -0.2760 -0.5730
 5242SOL     OW16624   4.247   6.489   6.994  0.3355 -0.0677 -0.2447
 5242SOL    HW116625   4.270   6.565   7.055  2.0134  0.4941 -1.4737
 5242SOL    HW216626   4.148   6.481   6.986  0.0863  2.5421 -0.6956
 5243SOL     OW16627   3.181   4.915   7.004  0.2685 -0.3276  0.0116
 5243SOL    HW116628   3.103   4.861   7.035  0.5847 -0.8601 -0.1040
 5243SOL    HW216629   3.202   4.985   7.072  0.0110 -0.5103  0.2830
 5244SOL     OW16630   5.273   3.115   1.273 -0.6750 -0.2400 -0.1878
 5244SOL    HW116631   5.297   3.163   1.188  1.4294  0.6943  0.8668
 5244SOL    HW216632   5.275   3.016   1.257  1.2473 -0.1353 -0.9091
 5245SOL     OW16633   2.970   3.637   5.361 -1.0101 -0.3058  0.2400
 5245SOL    HW116634   2.998   3.562   5.300  0.4942 -0.2481  0.8098
 5245SOL    HW216635   3.051   3.678   5.402 -1.9474  0.1898  1.6655
 5246SOL     OW16636   5.925   3.828   6.085  0.0206  0.6258 -0.1676
 5246SOL    HW116637   5.845   3.800   6.138  0.7978 -0.3544  0.5160
 5246SOL    HW216638   5.956   3.752   6.028 -0.2922  1.4049 -1.4118
 5247SOL     OW16639   6.913   4.267   1.266 -0.3353  1.0908 -0.6853
 5247SOL    HW116640   6.988   4.330   1.287 -1.1925  1.5801  1.1936
 5247SOL    HW216641   6.845   4.272   1.340 -1.1395 -0.9727 -1.2350
 5248SOL     OW16642   5.055   1.590   2.192  0.0475  0.4415 -0.1170
 5248SOL    HW116643   5.134   1.649   2.206  0.7183 -0.3362 -0.5099
 5248SOL    HW216644   5.015   1.567   2.280 -0.6287  2.0006  0.0030
 5249SOL     OW16645   1.477   4.766   6.384  0.0149  0.3434  0.1720
 5249SOL    HW116646   1.444   4.858   6.401 -0.2011  0.3231 -0.1452
 5249SOL    HW216647   1.549   4.744   6.451 -0.9129  0.2225  1.1502
 5250SOL     OW16648   0.672   2.062   4.919 -0.0154 -0.8113  0.4250
 5250SOL    HW116649   0.768   2.046   4.894  0.2708 -1.5112  1.8156
 5250SOL    HW216650   0.662   2.051   5.018 -0.5358  4.2704  1.1921
 5251SOL     OW16651   1.241   2.740   1.265  0.1782 -0.0331 -0.4924
 5251SOL    HW116652   1.318   2.722   1.204 -0.5429 -0.5440 -1.2644
 5251SOL    HW216653   1.162   2.687   1.236 -0.3891  0.2652  0.4662
 5252SOL     OW16654   5.467   6.463   1.096  0.3249 -0.5570  0.3538
 5252SOL    HW116655   5.477   6.449   1.195 -2.6957  0.1394  0.8437
 5252SOL    HW216656   5.395   6.402   1.061  0.6069 -0.0248 -1.2361
 5253SOL     OW16657   5.594   4.128   4.802 -0.2273 -0.4058  0.1700
 5253SOL    HW116658   5.497   4.127   4.826 -0.1634  1.2753  0.6846
 5253SOL    HW216659   5.640   4.049   4.844 -1.1361 -0.4828  1.0612
 5254SOL     OW16660   0.105   6.542   4.881  0.2919  0.1165  0.0085
 5254SOL    HW116661   0.083   6.508   4.972  1.2692 -0.8780 -0.1080
 5254SOL    HW216662   0.193   6.591   4.884 -0.1207  0.8948 -0.2308
 5255SOL     OW16663   3.411   5.310   2.216  0.4005 -0.9277  0.0559
 5255SOL    HW116664   3.406   5.290   2.314 -1.3393  1.3079  0.5072
 5255SOL    HW216665   3.331   5.270   2.170  1.5642 -2.5752 -0.6480
 5256SOL     OW16666   4.415   5.386   2.664  0.2505  0.0656  0.5135
 5256SOL    HW116667   4.365   5.468   2.637  0.6556  0.3892  0.7421
 5256SOL    HW216668   4.377   5.351   2.750 -1.7511 -1.5719 -0.9179
 5257SOL     OW16669   1.448   3.533   1.193  0.2059  0.3896  0.5310
 5257SOL    HW116670   1.531   3.481   1.171 -0.2493 -0.0813 -0.1488
 5257SOL    HW216671   1.459   3.579   1.281  0.7206 -0.6645  1.0317
 5258SOL     OW16672   3.607   2.824   0.881 -0.0220  0.9122  0.5228
 5258SOL    HW116673   3.582   2.869   0.795 -2.2041  0.1329  0.6916
 5258SOL    HW216674   3.635   2.893   0.947 -2.4257  2.0343  0.5036
 5259SOL     OW16675   5.973   4.407   2.440  0.7735  0.0695 -0.1011
 5259SOL    HW116676   5.881   4.376   2.464  0.6589  0.0675 -0.5411
 5259SOL    HW216677   6.022   4.434   2.523  1.3314 -2.4634  0.4676
 5260SOL     OW16678   5.560   4.713   2.155  0.7891 -0.3100 -0.0122
 5260SOL    HW116679   5.518   4.800   2.182 -0.9010 -0.9694 -0.3609
 5260SOL    HW216680   5.494   4.659   2.102  0.6516 -3.0264  2.5890
 5261SOL     OW16681   1.080   2.412   4.076  0.3667  0.1100  0.1914
 5261SOL    HW116682   1.090   2.412   4.175 -2.4075  2.3614  0.6123
 5261SOL    HW216683   1.166   2.384   4.033  1.8583 -0.2530  3.1843
 5262SOL     OW16684   6.480   6.287   0.464  0.1356 -0.9709  0.6266
 5262SOL    HW116685   6.509   6.310   0.371  1.6737 -0.8709  1.1040
 5262SOL    HW216686   6.511   6.359   0.527 -1.5358 -0.6613  1.1385
 5263SOL     OW16687   2.749   5.630   6.438  0.5550 -0.4673 -0.3726
 5263SOL    HW116688   2.848   5.622   6.431  0.5978 -0.1977 -0.0965
 5263SOL    HW216689   2.725   5.722   6.470  0.1690 -0.1386 -1.5384
 5264SOL     OW16690   0.349   0.606   0.402  0.3580 -0.2677 -0.2767
 5264SOL    HW116691   0.377   0.575   0.312 -0.1706 -0.8000 -0.2637
 5264SOL    HW216692   0.252   0.629   0.401  0.5472  0.6002 -0.0688
 5265SOL     OW16693   6.538   5.937   4.355  0.4670  0.5667 -0.2123
 5265SOL    HW116694   6.509   5.889   4.273  0.6955  0.3364 -0.1609
 5265SOL    HW216695   6.593   6.016   4.329  2.2957 -0.6621 -0.2493
 5266SOL     OW16696   0.920   1.350   2.501 -0.1772 -0.0365 -0.0418
 5266SOL    HW116697   0.986   1.338   2.428  0.2012  0.4060  0.2217
 5266SOL    HW216698   0.945   1.294   2.580 -1.4424 -1.7294 -0.7952
 5267SOL     OW16699   3.876   3.811   5.644 -0.2695  0.3320 -0.6251
 5267SOL    HW116700   3.914   3.859   5.723 -1.1659 -0.5851  0.4195
 5267SOL    HW216701   3.790   3.854   5.617 -0.6616 -0.1623 -0.2018
 5268SOL     OW16702   6.220   5.778   0.087  0.6035  0.3477 -0.5548
 5268SOL    HW116703   6.217   5.728   0.174  0.4569 -0.0580 -0.7924
 5268SOL    HW216704   6.289   5.851   0.093  0.7821  0.1522 -0.1930
 5269SOL     OW16705   1.932   6.419   6.132  0.1752 -0.1687 -0.0733
 5269SOL    HW116706   1.954   6.452   6.224  0.4384 -2.2573  0.6642
 5269SOL    HW216707   1.846   6.369   6.134 -0.4347  0.7755 -1.2423
 5270SOL     OW16708   1.016   0.668   4.495 -0.1052 -0.2742  0.0577
 5270SOL    HW116709   0.984   0.755   4.458  1.2566 -0.7072 -2.3185
 5270SOL    HW216710   0.947   0.598   4.482  0.0384 -0.2355 -0.9762
 5271SOL     OW16711   5.861   2.759   4.680 -0.5375 -0.4832  0.1731
 5271SOL    HW116712   5.864   2.806   4.592 -1.6364 -0.5182  0.1152
 5271SOL    HW216713   5.900   2.819   4.750  3.0019 -1.4770 -0.7390
 5272SOL     OW16714   3.067   1.241   3.715  0.9663 -0.2708 -0.2267
 5272SOL    HW116715   3.002   1.172   3.682  1.2510 -0.8645  0.4294
 5272SOL    HW216716   3.107   1.210   3.802  0.2331  1.2421  0.6947
 5273SOL     OW16717   6.268   1.439   4.136 -0.0714  0.1233  0.6461
 5273SOL    HW116718   6.295   1.428   4.040  0.0214 -0.5901  0.7516
 5273SOL    HW216719   6.348   1.465   4.190 -0.3609  1.7431  0.3386
 5274SOL     OW16720   2.741   6.278   4.744  0.4378 -0.1788  0.1393
 5274SOL    HW116721   2.711   6.271   4.839  0.6029  0.5257  0.2494
 5274SOL    HW216722   2.841   6.282   4.740  0.4300 -0.1441 -0.0575
 5275SOL     OW16723   1.989   0.569   0.915  0.9536 -0.5988 -0.4571
 5275SOL    HW116724   1.938   0.577   0.829 -1.1197  0.3079  0.7800
 5275SOL    HW216725   1.942   0.621   0.986  3.8929  0.6580  0.7146
 5276SOL     OW16726   0.236   3.276   1.891  1.0765 -0.4347 -0.5433
 5276SOL    HW116727   0.228   3.178   1.875 -0.5832 -0.3259 -0.4936
 5276SOL    HW216728   0.146   3.315   1.908  1.9437  0.6596  2.1332
 5277SOL     OW16729   6.233   0.448   0.501 -0.2705 -0.0531  0.6339
 5277SOL    HW116730   6.171   0.447   0.579 -0.5977  2.0373  0.4497
 5277SOL    HW216731   6.284   0.534   0.500  3.0040 -1.7876  1.0107
 5278SOL     OW16732   0.363   4.114   6.959  0.2040  0.5924 -0.4433
 5278SOL    HW116733   0.309   4.066   6.890 -0.7377  2.0173 -0.7428
 5278SOL    HW216734   0.407   4.193   6.917  1.3927  0.2557  0.1263
 5279SOL     OW16735   4.120   5.044   0.381  0.4429  0.4553 -0.1449
 5279SOL    HW116736   4.076   5.123   0.338  0.7094  0.4878 -0.3606
 5279SOL    HW216737   4.202   5.073   0.428  0.6359  0.2791 -0.3706
 5280SOL     OW16738   1.899   5.271   6.416 -0.8381  0.3659 -0.0879
 5280SOL    HW116739   1.915   5.346   6.352  0.3939  0.4491  0.2807
 5280SOL    HW216740   1.801   5.256   6.426 -1.1042 -0.7975 -3.3016
 5281SOL     OW16741   2.320   4.709   0.405  1.1535 -0.0413  0.2899
 5281SOL    HW116742   2.318   4.769   0.325 -1.0488  0.5208  0.6840
 5281SOL    HW216743   2.392   4.737   0.467  1.2063  1.1673 -0.2956
 5282SOL     OW16744   6.419   0.801   0.174  0.4223 -0.3122  0.1677
 5282SOL    HW116745   6.327   0.762   0.183  0.3897  0.0616  1.7500
 5282SOL    HW216746   6.477   0.768   0.248  1.8628 -1.2572 -1.3237
 5283SOL     OW16747   0.669   6.764   3.653  0.1337  0.0763 -0.3553
 5283SOL    HW116748   0.698   6.850   3.612  1.6331  0.1618  0.7939
 5283SOL    HW216749   0.570   6.756   3.647  0.0288  1.5857 -1.0401
 5284SOL     OW16750   6.741   3.802   2.459  0.6580  0.0762 -0.5979
 5284SOL    HW116751   6.668   3.870   2.466  0.3460 -0.2538 -0.6239
 5284SOL    HW216752   6.701   3.711   2.451  1.0828 -0.3502  1.5815
 5285SOL     OW16753   2.370   1.912   4.579  0.0322  0.1791  0.5483
 5285SOL    HW116754   2.427   1.983   4.538  1.4332 -1.6685 -0.9051
 5285SOL    HW216755   2.428   1.845   4.625 -1.2013 -0.2830  1.4911
 5286SOL     OW16756   5.623   3.448   0.774  0.2704 -0.2529 -0.6863
 5286SOL    HW116757   5.624   3.544   0.748 -1.5869 -0.0798 -0.2194
 5286SOL    HW216758   5.717   3.412   0.771  1.1783  1.8650  0.2763
 5287SOL     OW16759   6.630   6.233   1.961 -0.3714  0.4467 -0.0777
 5287SOL    HW116760   6.696   6.308   1.954  1.4157 -1.0502 -0.2456
 5287SOL    HW216761   6.634   6.177   1.878 -0.8574 -0.4578  0.4917
 5288SOL     OW16762   4.366   2.266   3.039  0.2638 -0.0736  0.1160
 5288SOL    HW116763   4.332   2.268   2.945  0.7235  0.1385 -0.0513
 5288SOL    HW216764   4.455   2.221   3.041 -0.5483 -1.7442  0.7314
 5289SOL     OW16765   1.902   5.875   6.102 -0.0070 -0.4741  0.1883
 5289SOL    HW116766   1.898   5.868   6.002 -1.2440  1.8664  0.0095
 5289SOL    HW216767   1.996   5.856   6.133  0.3463 -1.4378 -1.3585
 5290SOL     OW16768   2.482   0.888   5.238 -0.5486 -0.3320  0.6598
 5290SOL    HW116769   2.566   0.837   5.220 -0.1982  0.9055 -1.5358
 5290SOL    HW216770   2.505   0.979   5.275 -0.8909  0.0978 -0.1572
 5291SOL     OW16771   3.062   0.057   5.208 -0.3062  0.0002  0.1463
 5291SOL    HW116772   2.976   0.078   5.162  0.2202  1.6941 -0.1653
 5291SOL    HW216773   3.090   0.136   5.264  1.0545 -0.4924  0.2077
 5292SOL     OW16774   0.132   2.560   4.450  0.1326 -0.5003 -0.4757
 5292SOL    HW116775   0.201   2.567   4.522 -0.3992 -2.2550  0.2727
 5292SOL    HW216776   0.143   2.473   4.402 -2.7816 -1.8691  1.0735
 5293SOL     OW16777   2.754   0.480   5.255 -0.6322 -0.2176  0.0274
 5293SOL    HW116778   2.802   0.474   5.168 -0.6022 -1.0751  0.0914
 5293SOL    HW216779   2.674   0.539   5.245  0.2993  1.0412 -0.1338
 5294SOL     OW16780   4.401   0.453   3.227 -0.4795  0.1122  0.0819
 5294SOL    HW116781   4.462   0.464   3.149 -1.8296  0.3729 -0.9852
 5294SOL    HW216782   4.425   0.520   3.297  0.2960  0.3781 -0.4226
 5295SOL     OW16783   3.200   1.113   1.486  0.3672  0.1565 -0.3286
 5295SOL    HW116784   3.139   1.059   1.544  1.3348 -0.9290 -0.2893
 5295SOL    HW216785   3.192   1.210   1.510 -2.2203  0.2308 -1.1357
 5296SOL     OW16786   4.165   5.996   2.798 -0.8880  0.2124  0.2902
 5296SOL    HW116787   4.118   5.940   2.730 -0.7432  1.1006 -0.5789
 5296SOL    HW216788   4.229   5.940   2.850 -0.6141 -0.4009 -0.6760
 5297SOL     OW16789   5.779   1.970   0.184  0.5500 -0.1303 -0.4117
 5297SOL    HW116790   5.846   1.932   0.248 -1.1287  0.2644  1.6994
 5297SOL    HW216791   5.779   2.070   0.192 -1.8134 -0.1963  1.3695
 5298SOL     OW16792   5.395   1.550   5.554 -0.0106 -0.4128  0.2071
 5298SOL    HW116793   5.388   1.635   5.607  1.1428 -0.5558  0.6129
 5298SOL    HW216794   5.309   1.534   5.506 -0.1393  1.1598 -0.1387
 5299SOL     OW16795   1.450   0.339   1.358 -0.3295  0.4381  0.7701
 5299SOL    HW116796   1.454   0.417   1.295  1.6435 -0.2110  0.0040
 5299SOL    HW216797   1.440   0.372   1.452  1.9237  1.7358  0.6185
 5300SOL     OW16798   2.858   6.304   6.316  0.2498 -0.2042  0.3701
 5300SOL    HW116799   2.871   6.401   6.338  0.5099 -0.2701  0.5122
 5300SOL    HW216800   2.947   6.260   6.308  0.1353 -0.3866  0.0957
 5301SOL     OW16801   6.074   1.633   6.498  0.2117 -0.0011 -0.0321
 5301SOL    HW116802   5.990   1.678   6.528 -1.1356 -2.7308  0.6563
 5301SOL    HW216803   6.142   1.639   6.571  1.0433  2.9126 -0.8891
 5302SOL     OW16804   5.988   4.411   4.008 -0.4416  0.0043  0.2357
 5302SOL    HW116805   6.001   4.360   3.923 -0.9584 -0.2538  0.3052
 5302SOL    HW216806   5.891   4.415   4.029 -0.2710 -0.6762  1.2590
 5303SOL     OW16807   1.122   5.535   4.887 -0.2834  0.3046 -0.3465
 5303SOL    HW116808   1.160   5.617   4.844  0.3523 -0.7396 -1.8508
 5303SOL    HW216809   1.196   5.480   4.927 -0.5072 -0.3294 -0.7817
 5304SOL     OW16810   1.295   1.538   4.203 -0.0989  0.3965  0.3091
 5304SOL    HW116811   1.388   1.521   4.233  0.0183 -2.0255 -1.1854
 5304SOL    HW216812   1.290   1.535   4.103 -1.3910  2.9979  0.1914
 5305SOL     OW16813   5.836   6.492   3.978  0.3391  0.8116  0.6242
 5305SOL    HW116814   5.853   6.491   3.879  0.0349 -0.1973  0.5688
 5305SOL    HW216815   5.908   6.440   4.024 -0.0637  0.4235  0.8269
 5306SOL     OW16816   1.179   0.062   4.673  0.0236  0.4441  0.5253
 5306SOL    HW116817   1.255   0.049   4.609  0.7184 -0.4527  1.5038
 5306SOL    HW216818   1.115   0.128   4.635  0.6555  0.2856 -0.8849
 5307SOL     OW16819   2.929   2.733   6.452 -0.0014 -0.0955 -0.4033
 5307SOL    HW116820   2.937   2.653   6.512 -0.6357  0.0747 -0.0745
 5307SOL    HW216821   2.865   2.713   6.378 -1.3262  0.5659  0.5091
 5308SOL     OW16822   3.081   5.092   4.720  0.2534 -0.0822  0.3118
 5308SOL    HW116823   3.095   5.149   4.639  0.8044  0.2366  0.6257
 5308SOL    HW216824   3.036   5.007   4.693  2.4458 -1.0036 -0.7189
 5309SOL     OW16825   5.835   5.853   3.325  0.1078  0.0781  0.3720
 5309SOL    HW116826   5.843   5.924   3.395 -0.2382 -0.4799  0.9840
 5309SOL    HW216827   5.909   5.787   3.336  1.2583  1.0569 -1.0544
 5310SOL     OW16828   0.346   1.452   3.538 -0.1842 -0.8034  0.3217
 5310SOL    HW116829   0.317   1.451   3.634 -3.8903 -0.5041 -0.6291
 5310SOL    HW216830   0.290   1.386   3.487 -1.8499  2.4710 -2.4282
 5311SOL     OW16831   6.297   1.663   6.677 -0.0390 -0.2378 -0.3810
 5311SOL    HW116832   6.286   1.671   6.776 -1.4112 -2.8745 -0.2365
 5311SOL    HW216833   6.378   1.714   6.649 -1.3108  3.2598  1.5670
 5312SOL     OW16834   6.532   5.847   0.618  0.4665  0.1766  0.1222
 5312SOL    HW116835   6.599   5.850   0.544 -1.5317  0.5905 -1.7999
 5312SOL    HW216836   6.567   5.896   0.697  1.3400  2.8829 -1.7940
 5313SOL     OW16837   1.326   1.254   0.697 -0.1581  0.2434  0.3231
 5313SOL    HW116838   1.301   1.280   0.790  0.4173 -0.6240  0.7372
 5313SOL    HW216839   1.356   1.158   0.696 -0.5473  0.1144 -0.8250
 5314SOL     OW16840   0.793   1.993   3.677 -0.4853  0.1064 -0.0389
 5314SOL    HW116841   0.816   2.087   3.652 -2.1984  1.3692  2.5946
 5314SOL    HW216842   0.694   1.983   3.681 -0.3293 -1.4198  0.9865
 5315SOL     OW16843   4.024   0.924   3.655 -0.3748 -0.1094  0.3920
 5315SOL    HW116844   4.010   1.018   3.683  0.5453 -0.2376  1.3318
 5315SOL    HW216845   3.945   0.892   3.604 -0.2623  1.5006 -0.8612
 5316SOL     OW16846   4.899   2.828   5.227 -0.3319 -0.4886  0.5566
 5316SOL    HW116847   4.839   2.771   5.170 -0.2480 -0.9458  0.9141
 5316SOL    HW216848   4.994   2.812   5.200 -0.3195 -0.3600  0.5218
 5317SOL     OW16849   6.432   2.315   1.348  0.2176 -0.1772 -0.1248
 5317SOL    HW116850   6.348   2.295   1.399 -1.5711  1.8982 -2.0271
 5317SOL    HW216851   6.465   2.406   1.371 -0.3619  0.6164 -2.1861
 5318SOL     OW16852   0.309   5.338   0.166 -0.2257  1.0349  0.2127
 5318SOL    HW116853   0.242   5.409   0.143  0.0854  1.5638  0.8960
 5318SOL    HW216854   0.317   5.274   0.089 -2.4710  0.1839  0.6100
 5319SOL     OW16855   5.251   3.454   1.535  0.1208 -0.2342 -0.5801
 5319SOL    HW116856   5.287   3.363   1.514  0.6315 -1.2101  3.5678
 5319SOL    HW216857   5.228   3.459   1.632 -0.2299  4.0238 -0.6860
 5320SOL     OW16858   4.618   0.655   5.628 -0.1678 -0.0893 -0.5208
 5320SOL    HW116859   4.700   0.635   5.681 -0.3612 -1.2928 -0.6332
 5320SOL    HW216860   4.625   0.613   5.538 -1.1241 -0.6959 -0.3360
 5321SOL     OW16861   4.999   4.110   6.643 -0.0647  0.4913 -0.2767
 5321SOL    HW116862   5.032   4.054   6.719 -2.0464 -0.7767 -0.2809
 5321SOL    HW216863   4.964   4.197   6.678 -1.5385 -0.3408  0.3593
 5322SOL     OW16864   6.961   5.593   1.438 -0.6698 -0.2073 -0.3888
 5322SOL    HW116865   6.974   5.519   1.372 -1.3590 -0.7880  0.1134
 5322SOL    HW216866   7.007   5.676   1.405 -1.8792 -0.1684 -2.1147
 5323SOL     OW16867   3.905   6.851   6.076 -0.1066  0.1656  0.0044
 5323SOL    HW116868   3.808   6.852   6.098 -0.1596 -0.0560 -0.2085
 5323SOL    HW216869   3.953   6.790   6.140 -0.3475 -0.9279 -0.8134
 5324SOL     OW16870   2.079   1.761   1.683  0.2196  0.0261 -0.6847
 5324SOL    HW116871   2.035   1.747   1.771 -1.2999  0.5956 -1.3134
 5324SOL    HW216872   2.101   1.858   1.671  3.6166 -0.4732  0.4552
 5325SOL     OW16873   2.577   2.460   4.300  0.1879  0.5521  0.0106
 5325SOL    HW116874   2.661   2.488   4.254  1.9365 -2.4344  1.1019
 5325SOL    HW216875   2.558   2.522   4.376  1.8171  0.8866  0.1706
 5326SOL     OW16876   6.310   0.699   2.157 -0.5396 -0.4242  0.0946
 5326SOL    HW116877   6.347   0.607   2.149 -2.1347 -1.0456 -0.5661
 5326SOL    HW216878   6.322   0.732   2.250  0.9748 -0.8704  0.0763
 5327SOL     OW16879   6.098   1.899   6.754 -0.0676 -0.2018 -0.4266
 5327SOL    HW116880   6.030   1.851   6.810  0.0473 -0.0342 -0.1391
 5327SOL    HW216881   6.166   1.834   6.721 -1.3205 -0.6941 -2.1795
 5328SOL     OW16882   3.853   4.784   1.744  0.1740 -0.2535  0.3602
 5328SOL    HW116883   3.924   4.844   1.781 -1.4852  2.4238 -0.4876
 5328SOL    HW216884   3.773   4.785   1.805 -0.2573 -0.8461 -0.1784
 5329SOL     OW16885   1.122   5.625   6.790 -0.0981  0.6183  0.4394
 5329SOL    HW116886   1.100   5.532   6.761 -0.1104  0.9618 -0.6921
 5329SOL    HW216887   1.220   5.631   6.809  0.1919  0.7524 -1.0083
 5330SOL     OW16888   2.382   6.027   0.232  0.3936  0.2710 -0.1085
 5330SOL    HW116889   2.323   6.070   0.300  0.7635  0.6327 -0.0146
 5330SOL    HW216890   2.350   6.050   0.140  0.3384  0.3971 -0.0580
 5331SOL     OW16891   6.327   1.878   0.935  0.2288  0.2212 -0.3913
 5331SOL    HW116892   6.393   1.953   0.931 -0.8024  1.1723 -0.0272
 5331SOL    HW216893   6.266   1.892   1.013 -0.7970 -0.3241 -1.0864
 5332SOL     OW16894   1.126   5.695   2.597 -0.0362 -0.1574  0.3025
 5332SOL    HW116895   1.027   5.688   2.587  0.1620 -1.1747 -1.3655
 5332SOL    HW216896   1.169   5.698   2.506  1.4967 -0.3251  0.9823
 5333SOL     OW16897   6.876   6.241   3.329  0.0234  0.5765 -0.0102
 5333SOL    HW116898   6.825   6.234   3.415 -0.2755 -1.5446 -0.3040
 5333SOL    HW216899   6.812   6.254   3.254  0.3011  2.6834  0.0533
 5334SOL     OW16900   3.700   6.823   5.727 -0.3330  0.0740 -0.7041
 5334SOL    HW116901   3.796   6.852   5.730 -0.3677  0.1486  0.0754
 5334SOL    HW216902   3.665   6.831   5.634  0.3204  0.3797 -0.9272
 5335SOL     OW16903   5.693   6.869   6.429  0.6060  0.3143  0.4576
 5335SOL    HW116904   5.638   6.939   6.384 -1.7395 -1.2702  0.6732
 5335SOL    HW216905   5.686   6.879   6.528  0.1262 -0.2676  0.4924
 5336SOL     OW16906   1.488   4.802   2.814 -0.2287  0.4033  0.1191
 5336SOL    HW116907   1.434   4.724   2.782 -0.3891 -0.0705  1.4923
 5336SOL    HW216908   1.427   4.874   2.848 -0.0515 -0.2941  2.0457
 5337SOL     OW16909   6.088   4.609   1.716  0.4067 -0.1849  0.4616
 5337SOL    HW116910   5.994   4.575   1.725  0.1802  0.5876  1.0954
 5337SOL    HW216911   6.142   4.581   1.795  1.4738 -2.9120 -1.1213
 5338SOL     OW16912   5.246   2.920   0.288 -0.5791  0.6390  0.1880
 5338SOL    HW116913   5.260   2.933   0.190 -0.4297 -0.0902  0.1080
 5338SOL    HW216914   5.236   2.823   0.308 -0.2936  0.7558  0.9395
 5339SOL     OW16915   6.781   0.759   1.932 -0.1436 -0.2382  0.1275
 5339SOL    HW116916   6.830   0.731   2.014 -0.2050  1.5552  0.8092
 5339SOL    HW216917   6.724   0.839   1.952 -0.0696  0.3215 -1.6801
 5340SOL     OW16918   5.403   2.078   7.012  0.1573 -0.3663 -0.1106
 5340SOL    HW116919   5.432   1.998   7.064  2.2976 -0.2968 -1.1129
 5340SOL    HW216920   5.331   2.126   7.063  0.3631 -1.7025  1.5389
 5341SOL     OW16921   2.204   0.626   0.092  0.1667 -0.1578 -0.5536
 5341SOL    HW116922   2.141   0.582   0.156  0.4126  0.4323  0.0974
 5341SOL    HW216923   2.205   0.725   0.108  2.6193 -0.3132  0.6669
 5342SOL     OW16924   2.016   0.524   5.395 -0.4775  0.0424  0.3278
 5342SOL    HW116925   2.102   0.516   5.446 -0.4723  0.7314  0.4434
 5342SOL    HW216926   1.958   0.592   5.439  0.2195  1.9452 -1.5073
 5343SOL     OW16927   3.453   3.965   2.111 -0.2044 -0.6315 -0.0573
 5343SOL    HW116928   3.389   3.897   2.147 -1.1614  0.2854  0.0319
 5343SOL    HW216929   3.531   3.919   2.070 -0.2353 -1.7498  1.0875
 5344SOL     OW16930   6.706   2.982   1.668  0.3656 -0.7969  0.4156
 5344SOL    HW116931   6.655   3.041   1.731  0.8431 -1.8599  1.8684
 5344SOL    HW216932   6.701   2.887   1.700  3.2681 -0.9532  0.6766
 5345SOL     OW16933   5.240   6.934   3.436 -0.2723  0.2429 -0.0383
 5345SOL    HW116934   5.202   6.944   3.345  1.8602  2.0882 -0.8074
 5345SOL    HW216935   5.304   7.009   3.455  1.3138 -1.4629  1.9642
 5346SOL     OW16936   4.632   0.659   2.717 -0.1279 -0.5426 -0.3852
 5346SOL    HW116937   4.726   0.693   2.710 -0.8417  1.8048  0.2765
 5346SOL    HW216938   4.569   0.736   2.706 -1.9896 -2.0284 -0.5993
 5347SOL     OW16939   1.928   3.583   3.388 -0.1327 -0.2562  0.2902
 5347SOL    HW116940   1.858   3.550   3.451 -0.2847 -1.7802 -0.6141
 5347SOL    HW216941   1.884   3.630   3.311 -0.0674  0.0740  0.4554
 5348SOL     OW16942   5.365   2.109   6.754 -0.0926  0.0141 -0.2302
 5348SOL    HW116943   5.394   2.079   6.845  0.1166 -0.3458 -0.4119
 5348SOL    HW216944   5.269   2.082   6.740 -0.4560  0.9998  0.2793
 5349SOL     OW16945   6.299   0.594   1.241  0.4619  0.1725  0.2843
 5349SOL    HW116946   6.290   0.683   1.285  1.0121 -0.1078  0.9720
 5349SOL    HW216947   6.357   0.603   1.160  0.6874  0.4024  0.4700
 5350SOL     OW16948   2.226   1.734   6.856  0.2462  0.4561  0.1387
 5350SOL    HW116949   2.164   1.802   6.896  0.7595  1.0082  0.0028
 5350SOL    HW216950   2.320   1.753   6.885  0.4683  0.1544 -0.3757
 5351SOL     OW16951   3.855   2.154   2.765  0.6617 -0.3270 -0.1761
 5351SOL    HW116952   3.782   2.196   2.712 -0.4653 -2.4611 -0.4365
 5351SOL    HW216953   3.938   2.148   2.710 -0.5016 -2.5719 -1.8537
 5352SOL     OW16954   4.417   1.660   4.906  0.8544 -0.4570 -0.2333
 5352SOL    HW116955   4.410   1.685   4.809  3.0575  0.0140 -0.3383
 5352SOL    HW216956   4.487   1.590   4.917 -0.7693 -1.9793  0.8255
 5353SOL     OW16957   6.116   6.337   6.831  0.0605 -0.0773 -0.7478
 5353SOL    HW116958   6.027   6.345   6.876  0.8694 -0.8946  1.1411
 5353SOL    HW216959   6.125   6.407   6.760 -1.9225  0.2466 -0.7173
 5354SOL     OW16960   1.772   3.666   0.358 -0.2983 -0.0079 -0.1910
 5354SOL    HW116961   1.845   3.698   0.297 -0.3567 -1.5165 -1.0934
 5354SOL    HW216962   1.684   3.678   0.312 -0.5334  0.7202  0.4309
 5355SOL     OW16963   2.933   6.557   4.143 -0.0920 -0.4950 -0.1166
 5355SOL    HW116964   2.940   6.459   4.164 -0.9071 -0.3705  0.8080
 5355SOL    HW216965   2.872   6.601   4.209 -0.0176  0.5783 -0.7409
 5356SOL     OW16966   6.483   4.279   0.557 -0.0463  0.4510 -0.3578
 5356SOL    HW116967   6.516   4.278   0.651  0.9974  0.0708 -0.7169
 5356SOL    HW216968   6.489   4.372   0.521 -0.0576  0.5203 -0.1809
 5357SOL     OW16969   3.864   0.103   6.959  0.0694 -0.1301 -0.4264
 5357SOL    HW116970   3.804   0.170   7.002  0.0368 -0.0579 -0.5823
 5357SOL    HW216971   3.817   0.015   6.955  0.3864 -0.3474  0.4357
 5358SOL     OW16972   4.810   6.316   3.097  0.1018 -0.1356  0.1391
 5358SOL    HW116973   4.716   6.330   3.068 -0.1205 -0.4267  0.7092
 5358SOL    HW216974   4.817   6.231   3.150  0.7556 -0.3243 -0.2289
 5359SOL     OW16975   2.707   0.364   6.410 -0.6561 -0.2632 -0.5947
 5359SOL    HW116976   2.761   0.289   6.371 -0.6903 -0.7959  0.3559
 5359SOL    HW216977   2.766   0.424   6.463 -0.3967  1.1185 -2.3395
 5360SOL     OW16978   3.093   1.989   0.506  0.7367  0.4311 -0.2108
 5360SOL    HW116979   3.076   2.086   0.488  1.4405  1.1627  2.6705
 5360SOL    HW216980   3.015   1.950   0.554  0.6877 -0.3266 -0.8828
 5361SOL     OW16981   1.029   2.103   5.834 -1.0533 -0.0204 -0.2178
 5361SOL    HW116982   1.103   2.036   5.826 -0.0622  1.0110  0.0734
 5361SOL    HW216983   0.947   2.057   5.869 -0.6300 -1.2288 -0.7530
 5362SOL     OW16984   2.264   5.493   3.488 -0.3270 -0.0259  0.0483
 5362SOL    HW116985   2.342   5.451   3.441 -1.2886  0.8205 -2.4846
 5362SOL    HW216986   2.180   5.443   3.464 -1.1267  1.7011 -0.9031
 5363SOL     OW16987   0.259   5.233   5.651 -0.1208 -0.3101  0.5514
 5363SOL    HW116988   0.227   5.233   5.557  0.5376  0.1083  0.3242
 5363SOL    HW216989   0.339   5.293   5.660  0.5551 -1.2609  1.1156
 5364SOL     OW16990   2.285   5.102   0.464  0.1184  0.1761 -0.7564
 5364SOL    HW116991   2.260   5.079   0.370  1.3330  2.1612 -1.6416
 5364SOL    HW216992   2.357   5.171   0.463 -0.4905  0.9483  1.6418
 5365SOL     OW16993   3.414   1.240   5.697 -0.4013 -0.3546  0.5769
 5365SOL    HW116994   3.420   1.158   5.755 -0.7910 -0.9583 -0.2127
 5365SOL    HW216995   3.426   1.322   5.753  1.0943 -0.9778  1.2128
 5366SOL     OW16996   4.081   3.611   6.692 -0.0827  0.0787 -0.1678
 5366SOL    HW116997   4.163   3.667   6.680 -0.8622  1.2384 -0.2924
 5366SOL    HW216998   4.053   3.610   6.788 -0.0063 -0.1971 -0.1469
 5367SOL     OW16999   0.509   4.197   1.329 -0.2861  0.0951 -0.0115
 5367SOL    HW117000   0.529   4.275   1.388 -1.0419 -0.7885  1.4907
 5367SOL    HW217001   0.594   4.162   1.290  0.3461  0.2810  1.1412
 5368SOL     OW17002   0.749   0.528   4.417  0.1987 -0.1257  0.4663
 5368SOL    HW117003   0.691   0.602   4.380  1.2126  0.2964 -0.3265
 5368SOL    HW217004   0.752   0.535   4.516  1.0537  1.5108  0.3527
 5369SOL     OW17005   1.780   4.197   2.807 -0.5528  0.2888  0.4066
 5369SOL    HW117006   1.857   4.133   2.803  0.0232  1.0012 -0.3277
 5369SOL    HW217007   1.739   4.196   2.898  3.0547  3.0510  2.3163
 5370SOL     OW17008   3.178   3.134   1.920  0.4215  0.2405  0.3007
 5370SOL    HW117009   3.190   3.056   1.859 -0.6345 -1.6438  2.3328
 5370SOL    HW217010   3.101   3.189   1.890  1.4267  0.7811 -1.3902
 5371SOL     OW17011   3.042   4.809   5.413 -0.2989 -0.0403 -0.0485
 5371SOL    HW117012   2.945   4.785   5.415 -0.0759 -0.9479  0.7063
 5371SOL    HW217013   3.052   4.908   5.424 -1.0852 -0.1712  2.4125
 5372SOL     OW17014   4.047   5.866   1.226 -0.0099  0.3324 -0.6658
 5372SOL    HW117015   3.948   5.882   1.221 -0.0971  0.2165  0.4904
 5372SOL    HW217016   4.065   5.768   1.215 -0.1830  0.1060  0.8909
 5373SOL     OW17017   3.342   6.339   3.973 -0.0459  0.3982  0.4122
 5373SOL    HW117018   3.401   6.399   3.919 -0.8932  0.8415 -0.0384
 5373SOL    HW217019   3.365   6.244   3.953 -1.5282  0.4918 -2.1656
 5374SOL     OW17020   2.935   2.754   0.970 -0.0734 -0.1996  0.2844
 5374SOL    HW117021   2.974   2.703   0.894 -1.0538  0.0724 -0.4254
 5374SOL    HW217022   2.976   2.845   0.975  0.3165 -0.3795  0.3653
 5375SOL     OW17023   1.516   4.001   4.783 -0.0987  0.7307  0.4458
 5375SOL    HW117024   1.495   4.007   4.881 -3.5506  3.2955 -0.2506
 5375SOL    HW217025   1.557   4.087   4.753 -1.9139  1.1943 -0.8376
 5376SOL     OW17026   3.658   4.128   0.454  0.5748 -0.0603  0.3743
 5376SOL    HW117027   3.667   4.228   0.456  1.9163 -0.1749  1.1333
 5376SOL    HW217028   3.586   4.103   0.389 -0.8236  1.4522  1.2285
 5377SOL     OW17029   0.612   0.974   1.395 -0.2659 -0.1954 -0.2599
 5377SOL    HW117030   0.556   1.056   1.406  0.4754  0.2075  0.7388
 5377SOL    HW217031   0.650   0.948   1.484  0.0963 -1.2004 -0.6954
 5378SOL     OW17032   4.393   0.369   6.652 -0.3927  0.1866 -0.0016
 5378SOL    HW117033   4.359   0.424   6.729  0.0224  0.5161 -0.0478
 5378SOL    HW217034   4.434   0.430   6.584 -0.4316 -0.1370 -0.3169
 5379SOL     OW17035   0.289   0.370   0.223 -0.4561  0.5364  0.2837
 5379SOL    HW117036   0.315   0.274   0.235 -1.0818  0.2276 -0.7252
 5379SOL    HW217037   0.353   0.415   0.161 -2.0150 -0.1487 -1.9662
 5380SOL     OW17038   1.946   0.562   4.685 -0.1160 -0.5887 -0.5063
 5380SOL    HW117039   2.041   0.569   4.656 -0.1823  0.5678 -0.4815
 5380SOL    HW217040   1.927   0.469   4.717  1.3372 -0.5094  0.6679
 5381SOL     OW17041   5.649   1.381   1.242 -0.5952 -0.5061  0.9810
 5381SOL    HW117042   5.646   1.296   1.189 -0.7189  0.6637 -0.9833
 5381SOL    HW217043   5.736   1.386   1.292  0.2774 -0.8828 -0.4593
 5382SOL     OW17044   2.155   5.919   1.416 -0.3691 -0.0149  0.5392
 5382SOL    HW117045   2.089   5.984   1.453  1.1748  0.5215  2.5137
 5382SOL    HW217046   2.154   5.834   1.469  2.2114  0.9397  2.3018
 5383SOL     OW17047   0.828   2.988   5.518 -0.4668  0.7547  0.6822
 5383SOL    HW117048   0.847   2.978   5.421 -0.2698  1.0445  0.6919
 5383SOL    HW217049   0.810   2.897   5.558  2.0198  0.2944  0.9078
 5384SOL     OW17050   5.866   0.368   0.813 -0.2234  0.4453 -0.7349
 5384SOL    HW117051   5.884   0.359   0.911  3.1107  0.5698 -1.2126
 5384SOL    HW217052   5.830   0.282   0.777  1.9261 -0.8408  0.0319
 5385SOL     OW17053   3.935   3.341   2.085 -0.0995 -0.1969 -0.2784
 5385SOL    HW117054   3.913   3.416   2.022  1.4903  1.0767  0.6380
 5385SOL    HW217055   4.025   3.356   2.125 -0.0414 -2.2646  0.4586
 5386SOL     OW17056   6.951   1.133   3.272  0.4467  0.4088 -0.1315
 5386SOL    HW117057   7.039   1.165   3.236  0.0400  0.8120 -0.7940
 5386SOL    HW217058   6.886   1.124   3.197  0.1228 -0.5840  0.2595
 5387SOL     OW17059   4.908   4.938   0.044  0.6353  0.1721 -0.1179
 5387SOL    HW117060   4.891   4.842   0.018 -0.8447  0.3237  0.1905
 5387SOL    HW217061   4.930   4.943   0.141 -1.0186  0.2844  0.2775
 5388SOL     OW17062   4.968   4.859   2.245 -0.2009 -0.1788 -0.0056
 5388SOL    HW117063   4.934   4.891   2.333 -1.6577 -2.3181  0.2915
 5388SOL    HW217064   4.939   4.765   2.230 -0.7413  0.3633 -3.1689
 5389SOL     OW17065   4.783   2.293   2.096  0.5175  0.2783  0.1852
 5389SOL    HW117066   4.860   2.234   2.071  0.5531  0.6710 -0.6699
 5389SOL    HW217067   4.806   2.342   2.180  1.6509  1.1473 -0.5878
 5390SOL     OW17068   0.031   4.178   0.609  0.1983 -0.0181  0.0261
 5390SOL    HW117069   0.082   4.246   0.556  0.2488 -0.4830 -0.5378
 5390SOL    HW217070   0.065   4.175   0.703  0.3170  0.6049  0.0017
 5391SOL     OW17071   4.806   6.599   6.722 -0.1237 -0.2394  0.2225
 5391SOL    HW117072   4.899   6.566   6.706 -0.0060  0.2493 -0.0969
 5391SOL    HW217073   4.810   6.693   6.755 -0.5542  0.2319 -1.0170
 5392SOL     OW17074   1.489   3.537   3.900  0.0793 -0.0681 -0.0483
 5392SOL    HW117075   1.441   3.450   3.891  1.1725 -0.6177 -0.7515
 5392SOL    HW217076   1.553   3.532   3.977 -1.2081  0.7842  1.1174
 5393SOL     OW17077   6.576   1.084   0.697 -0.3761  0.0213  0.3615
 5393SOL    HW117078   6.534   0.996   0.719  0.6832 -1.4650 -2.9213
 5393SOL    HW217079   6.675   1.078   0.710 -0.0098 -0.1450 -2.0702
 5394SOL     OW17080   3.985   1.942   5.236  0.2981  0.0704 -0.1416
 5394SOL    HW117081   3.992   1.891   5.150 -1.2329  0.1097 -0.3281
 5394SOL    HW217082   3.892   1.978   5.245 -0.3051 -1.9072  2.6553
 5395SOL     OW17083   5.126   1.248   2.693 -0.5372  0.2798 -0.4540
 5395SOL    HW117084   5.046   1.207   2.649 -2.2516  1.7762  1.0907
 5395SOL    HW217085   5.114   1.246   2.792  0.8753  1.4687 -0.2224
 5396SOL     OW17086   6.249   2.766   0.875 -0.1666 -0.1516  0.1018
 5396SOL    HW117087   6.222   2.696   0.809  1.2425 -3.9216  3.1274
 5396SOL    HW217088   6.348   2.762   0.889 -0.1789  1.7994  1.1167
 5397SOL     OW17089   2.678   2.848   0.660 -0.0334 -0.4725  0.1735
 5397SOL    HW117090   2.682   2.930   0.603 -2.1323 -0.6250 -0.2996
 5397SOL    HW217091   2.740   2.779   0.623 -0.4897 -0.1558 -1.2658
 5398SOL     OW17092   2.853   2.583   1.668  0.4377 -0.7600  0.0122
 5398SOL    HW117093   2.898   2.671   1.648 -0.5997 -0.0864  0.5402
 5398SOL    HW217094   2.893   2.545   1.751  0.2529 -0.3082  0.3160
 5399SOL     OW17095   2.094   4.923   0.554  0.2531  0.1799 -0.4520
 5399SOL    HW117096   2.003   4.963   0.549  0.1346 -0.0174  0.0919
 5399SOL    HW217097   2.162   4.992   0.527 -0.0373  0.3899 -0.6510
 5400SOL     OW17098   2.940   3.415   0.414  0.0354  0.1344  0.3411
 5400SOL    HW117099   2.843   3.428   0.435  0.1086  1.6757 -0.0955
 5400SOL    HW217100   2.951   3.340   0.348 -1.0623  1.0905 -0.9974
 5401SOL     OW17101   4.712   2.236   0.761  0.5274  0.2277  0.5575
 5401SOL    HW117102   4.693   2.280   0.673 -0.0773  1.9729  1.5140
 5401SOL    HW217103   4.787   2.284   0.807  0.3154 -0.1690  1.3388
 5402SOL     OW17104   1.193   5.861   2.824  0.0930 -0.7368 -0.1896
 5402SOL    HW117105   1.175   5.814   2.737 -1.5051 -2.1278  0.8292
 5402SOL    HW217106   1.130   5.827   2.894 -0.4955  2.2336  0.8842
 5403SOL     OW17107   1.680   1.038   5.583 -0.7192 -0.3468  0.0345
 5403SOL    HW117108   1.623   0.988   5.517  0.9246 -1.6318 -0.4807
 5403SOL    HW217109   1.707   1.126   5.544 -1.5605 -0.1433 -0.1013
 5404SOL     OW17110   0.802   3.076   2.053  0.4208 -0.2296  0.1270
 5404SOL    HW117111   0.848   3.032   1.975  0.7461 -1.0765  0.7733
 5404SOL    HW217112   0.832   3.171   2.061  1.4108 -0.5258  0.0240
 5405SOL     OW17113   0.630   3.494   6.203  1.1508  0.3241  0.5291
 5405SOL    HW117114   0.699   3.430   6.238 -0.5838 -0.7256  2.2141
 5405SOL    HW217115   0.608   3.562   6.273  0.3582  0.5304  0.0906
 5406SOL     OW17116   1.896   5.948   0.566  0.4450  0.3864 -0.1367
 5406SOL    HW117117   1.914   5.860   0.608  0.3106  0.7205  0.6321
 5406SOL    HW217118   1.930   6.021   0.625 -0.8874  0.9133  0.0187
 5407SOL     OW17119   4.318   1.422   0.053 -0.1178 -0.0998  0.0102
 5407SOL    HW117120   4.304   1.471   0.138 -0.6042 -2.7978  1.5989
 5407SOL    HW217121   4.232   1.417   0.002 -0.3194 -0.2465  0.3662
 5408SOL     OW17122   3.053   2.266   6.951  0.1570  0.4072 -0.0569
 5408SOL    HW117123   2.965   2.308   6.928 -1.2280 -2.0149  0.5449
 5408SOL    HW217124   3.065   2.266   7.050 -0.3209 -1.3821  0.0272
 5409SOL     OW17125   5.809   0.674   2.017 -0.1266 -0.2066  0.9776
 5409SOL    HW117126   5.754   0.590   2.014 -0.3250 -0.0893  1.2169
 5409SOL    HW217127   5.906   0.651   2.016 -0.0755 -0.3359 -2.6142
 5410SOL     OW17128   2.995   1.613   2.010 -0.1282  0.5666 -0.2602
 5410SOL    HW117129   2.976   1.701   1.968  0.2606 -0.3764 -2.5759
 5410SOL    HW217130   2.909   1.569   2.035 -0.4706  0.5968 -1.3388
 5411SOL     OW17131   2.648   5.562   4.772 -0.2747 -0.0169  0.1339
 5411SOL    HW117132   2.643   5.585   4.675  2.1752  0.7000  0.0967
 5411SOL    HW217133   2.561   5.583   4.817 -0.1935  3.6563 -1.1091
 5412SOL     OW17134   1.444   0.349   3.171 -0.3380  0.8598 -0.0476
 5412SOL    HW117135   1.499   0.370   3.090  1.6095 -2.2583  0.2804
 5412SOL    HW217136   1.359   0.304   3.142  2.1892 -4.3349 -0.6794
 5413SOL     OW17137   1.351   0.165   2.453  0.1061  0.1793  0.1684
 5413SOL    HW117138   1.282   0.189   2.522 -0.7221 -1.6218  0.0282
 5413SOL    HW217139   1.317   0.191   2.363 -0.7573 -1.3379  0.0232
 5414SOL     OW17140   4.551   0.098   0.000  0.3620  0.4935 -0.1501
 5414SOL    HW117141   4.507   0.089  -0.089  1.1181  0.1003 -0.4959
 5414SOL    HW217142   4.553   0.194   0.028 -2.6328  0.3633  0.8830
 5415SOL     OW17143   6.740   5.210   3.853 -0.0641  0.2305  0.2102
 5415SOL    HW117144   6.808   5.283   3.848  0.4822 -0.0848  2.2062
 5415SOL    HW217145   6.651   5.245   3.825  0.8034  0.7492 -2.0897
 5416SOL     OW17146   3.927   5.275   4.678 -0.4361 -0.3871  0.4267
 5416SOL    HW117147   3.964   5.250   4.589  1.0372  2.2185  0.2104
 5416SOL    HW217148   3.827   5.268   4.675 -0.3416 -1.7464 -0.9210
 5417SOL     OW17149   0.897   6.782   6.489 -0.5026 -0.3255 -0.6625
 5417SOL    HW117150   0.849   6.708   6.536  0.1194 -0.9366 -0.9701
 5417SOL    HW217151   0.917   6.855   6.554  0.8939 -1.4274  0.2020
 5418SOL     OW17152   5.501   2.182   3.383 -0.4516  0.1215 -0.0654
 5418SOL    HW117153   5.512   2.280   3.398  1.6400 -0.0429 -0.2816
 5418SOL    HW217154   5.498   2.164   3.285 -1.0584 -0.0242 -0.0237
 5419SOL     OW17155   4.108   4.417   0.348 -0.8103 -0.2454 -0.6390
 5419SOL    HW117156   4.156   4.386   0.266  1.1007 -0.8289  0.6318
 5419SOL    HW217157   4.098   4.341   0.412 -0.1577  0.6849  0.6211
 5420SOL     OW17158   1.593   4.771   1.300  0.2684  0.0678  0.4545
 5420SOL    HW117159   1.688   4.739   1.302  0.2303 -0.2927 -1.5446
 5420SOL    HW217160   1.586   4.858   1.348  1.1705 -0.8917  2.4598
 5421SOL     OW17161   3.027   2.568   5.609  0.0484 -0.5233  0.3846
 5421SOL    HW117162   2.929   2.573   5.591  0.0469  0.0239  0.5037
 5421SOL    HW217163   3.077   2.573   5.523 -0.0494 -2.0599  0.2168
 5422SOL     OW17164   5.865   1.495   0.583 -0.7717  0.1532  0.2956
 5422SOL    HW117165   5.801   1.487   0.507 -1.9216 -3.6642  1.4673
 5422SOL    HW217166   5.957   1.513   0.547 -1.3668 -1.0289 -2.0000
 5423SOL     OW17167   6.081   4.443   6.076 -0.0151  0.8930  0.4019
 5423SOL    HW117168   6.029   4.461   6.159  1.0726  1.3759  1.0096
 5423SOL    HW217169   6.163   4.390   6.098 -1.4694 -2.0892 -0.8950
 5424SOL     OW17170   5.232   3.577   6.359  0.0334  0.6753 -0.4887
 5424SOL    HW117171   5.305   3.640   6.330  1.1900 -0.2380  0.3089
 5424SOL    HW217172   5.244   3.489   6.312  0.0163  0.2183  0.3398
 5425SOL     OW17173   4.530   1.094   5.361 -0.1337 -0.9931 -0.1467
 5425SOL    HW117174   4.580   1.043   5.291 -0.8260 -2.3241  0.3073
 5425SOL    HW217175   4.507   1.033   5.437  1.2760  0.5759  1.6486
 5426SOL     OW17176   3.298   0.555   4.647  0.1173  0.2532 -0.0763
 5426SOL    HW117177   3.325   0.518   4.558  1.7200  0.6320  0.2206
 5426SOL    HW217178   3.220   0.617   4.635 -0.6362 -0.8385 -0.9883
 5427SOL     OW17179   5.801   6.588   2.030 -0.1617 -0.1704  0.4008
 5427SOL    HW117180   5.881   6.534   2.004 -0.9761 -1.9723  1.4137
 5427SOL    HW217181   5.722   6.527   2.039 -1.5159  1.4667  0.0351
 5428SOL     OW17182   1.131   1.064   0.943  0.1530 -0.0364  0.0328
 5428SOL    HW117183   1.109   1.031   1.035 -4.7170  1.4349 -0.2956
 5428SOL    HW217184   1.172   1.155   0.949  1.6263 -0.7274  0.7294
 5429SOL     OW17185   1.899   3.150   3.657  0.4849  0.2011 -0.3179
 5429SOL    HW117186   1.886   3.093   3.576 -0.1166  0.1006 -0.1578
 5429SOL    HW217187   1.869   3.099   3.738 -1.9180  1.4108 -0.3653
 5430SOL     OW17188   2.049   2.533   4.190 -0.5051  0.1474  0.0901
 5430SOL    HW117189   2.076   2.582   4.273 -1.1413  2.5135 -1.0314
 5430SOL    HW217190   1.952   2.510   4.196 -0.1669 -1.2522  0.6968
 5431SOL     OW17191   4.408   6.557   3.914 -0.3659 -0.5184 -0.2272
 5431SOL    HW117192   4.419   6.628   3.984  0.4287 -1.9171  1.1121
 5431SOL    HW217193   4.474   6.573   3.840  2.4798 -1.8789  1.8475
 5432SOL     OW17194   6.513   5.451   1.321 -0.1941 -0.1483 -0.3575
 5432SOL    HW117195   6.566   5.400   1.389 -0.7764  0.7349  0.7929
 5432SOL    HW217196   6.506   5.397   1.238 -0.5986 -1.8597  0.7370
 5433SOL     OW17197   1.812   3.458   2.601 -0.1154  0.2250 -0.4704
 5433SOL    HW117198   1.760   3.390   2.653  0.1788  1.1166  1.0621
 5433SOL    HW217199   1.892   3.415   2.560 -0.7317 -0.6427 -0.7942
 5434SOL     OW17200   0.999   5.776   2.983  0.0052  0.0022  0.4257
 5434SOL    HW117201   0.967   5.710   3.052  1.7083 -0.0783  1.1784
 5434SOL    HW217202   0.958   5.865   3.001 -0.5678 -0.3231  0.7658
 5435SOL     OW17203   4.505   2.507   2.397 -0.4536 -0.1950 -0.2247
 5435SOL    HW117204   4.433   2.503   2.328 -1.6931  1.3215  0.9324
 5435SOL    HW217205   4.467   2.487   2.487  0.6537  0.2560  0.3630
 5436SOL     OW17206   5.732   4.679   2.833  0.3357 -0.0482 -0.7790
 5436SOL    HW117207   5.644   4.633   2.823 -0.2270  0.5516  1.1082
 5436SOL    HW217208   5.757   4.685   2.929  1.5905  1.4044 -1.1424
 5437SOL     OW17209   6.865   5.907   5.875  0.5396 -0.2852  0.2236
 5437SOL    HW117210   6.780   5.941   5.913  1.1844  0.7488  0.7696
 5437SOL    HW217211   6.940   5.970   5.896  1.0054  0.2157 -2.4644
 5438SOL     OW17212   4.128   1.825   6.522 -0.3799 -0.2824  0.5882
 5438SOL    HW117213   4.059   1.759   6.552 -0.9270  0.7668  1.7257
 5438SOL    HW217214   4.117   1.843   6.424 -1.5498 -0.3546  0.6927
 5439SOL     OW17215   1.517   3.560   0.848  0.2054 -0.0527  0.1356
 5439SOL    HW117216   1.450   3.485   0.851  0.1739 -0.0504 -0.3979
 5439SOL    HW217217   1.559   3.563   0.757  1.1719 -0.2572  0.5646
 5440SOL     OW17218   1.286   4.013   6.938 -0.7349  0.4460  0.0715
 5440SOL    HW117219   1.197   4.012   6.894 -0.0366  1.0145 -1.4319
 5440SOL    HW217220   1.344   4.082   6.894  1.0802 -1.2280 -0.3103
 5441SOL     OW17221   2.219   0.991   6.334  0.4202  0.2107 -0.0486
 5441SOL    HW117222   2.272   0.946   6.405 -0.3859 -0.1330  0.3435
 5441SOL    HW217223   2.202   1.086   6.361  0.6943  0.2748 -0.0995
 5442SOL     OW17224   3.491   1.836   1.256 -0.2846  0.3390 -0.4341
 5442SOL    HW117225   3.490   1.926   1.298  0.4597  0.5650 -0.8869
 5442SOL    HW217226   3.397   1.807   1.236 -0.5211  1.0296 -0.3298
 5443SOL     OW17227   0.411   4.605   6.464 -0.6857 -0.0599  0.6210
 5443SOL    HW117228   0.379   4.649   6.381 -0.9956 -0.2141  0.6545
 5443SOL    HW217229   0.380   4.658   6.544  0.6779  0.7809  0.6132
 5444SOL     OW17230   1.238   1.024   2.656 -0.6547  0.5037  0.0523
 5444SOL    HW117231   1.196   1.012   2.566  1.0664  1.8432 -1.0004
 5444SOL    HW217232   1.168   1.049   2.722 -1.8686  0.1363 -1.0303
 5445SOL     OW17233   5.721   4.343   2.506  0.2123  0.3488  0.3919
 5445SOL    HW117234   5.649   4.393   2.552 -0.9212  0.6861 -1.6144
 5445SOL    HW217235   5.681   4.283   2.436  1.6795 -1.8385  1.3132
 5446SOL     OW17236   0.394   6.616   6.500 -0.2100  0.2572 -0.3957
 5446SOL    HW117237   0.319   6.674   6.532 -0.2200  0.9531 -1.6096
 5446SOL    HW217238   0.478   6.639   6.549 -0.7872 -0.6260  1.0810
 5447SOL     OW17239   2.080   1.935   7.001 -0.0224 -0.3716  0.0682
 5447SOL    HW117240   2.136   2.009   7.038 -1.3777  0.2192  1.0388
 5447SOL    HW217241   2.050   1.958   6.909  0.1700 -0.0650  0.0813
 5448SOL     OW17242   5.150   0.481   4.193 -0.2481  0.0749  0.1846
 5448SOL    HW117243   5.191   0.394   4.166 -2.8402 -0.8189 -1.2349
 5448SOL    HW217244   5.109   0.471   4.284  0.6765  0.2664  0.6272
 5449SOL     OW17245   0.092   2.734   0.291 -0.2531  0.2971  0.0736
 5449SOL    HW117246   0.056   2.816   0.246  0.9346  0.4497 -0.6263
 5449SOL    HW217247   0.038   2.715   0.374 -1.3317  1.0457 -0.4303
 5450SOL     OW17248   2.722   4.727   1.422 -0.0852  0.4647  0.2552
 5450SOL    HW117249   2.744   4.671   1.502  1.3563  1.1679  0.3953
 5450SOL    HW217250   2.793   4.717   1.353 -1.3893 -0.2413 -1.0334
 5451SOL     OW17251   4.837   6.286   2.590  0.6396 -0.4786 -0.6227
 5451SOL    HW117252   4.848   6.331   2.501  0.4412 -0.2529 -0.5368
 5451SOL    HW217253   4.883   6.341   2.660 -1.7498  1.0125 -0.1010
 5452SOL     OW17254   1.684   5.008   5.029 -0.3759 -0.2573 -0.3055
 5452SOL    HW117255   1.689   5.044   5.122  1.3278  0.1568 -0.5341
 5452SOL    HW217256   1.776   4.982   4.997 -1.2168 -2.8667 -0.9238
 5453SOL     OW17257   5.672   6.164   6.090  0.4077 -0.6384  0.2445
 5453SOL    HW117258   5.623   6.081   6.064 -2.7655  1.1873 -0.2153
 5453SOL    HW217259   5.738   6.143   6.162 -1.0464 -3.3701  0.9366
 5454SOL     OW17260   1.442   3.435   6.452 -0.8033  0.2918  0.2084
 5454SOL    HW117261   1.496   3.401   6.375 -0.5772  0.6228  0.2210
 5454SOL    HW217262   1.463   3.382   6.534  0.4340  1.2258  0.5114
 5455SOL     OW17263   5.013   2.135   2.104 -0.2329 -0.0628  0.3715
 5455SOL    HW117264   4.972   2.074   2.172  0.0555  0.6713  1.2172
 5455SOL    HW217265   5.085   2.189   2.147  0.0936  0.2654 -0.5741
 5456SOL     OW17266   3.304   0.106   2.010  0.2524 -0.7238  0.3938
 5456SOL    HW117267   3.369   0.033   1.987 -1.4803 -1.5830 -2.3466
 5456SOL    HW217268   3.269   0.146   1.926 -1.1211  1.2352  1.8245
 5457SOL     OW17269   0.431   3.695   2.635  0.0484 -0.3944  0.6329
 5457SOL    HW117270   0.420   3.691   2.536  0.2138  0.2332  0.5875
 5457SOL    HW217271   0.502   3.762   2.659  0.1035 -0.6313  1.1700
 5458SOL     OW17272   1.592   3.332   5.564  0.2279  0.1656 -0.1908
 5458SOL    HW117273   1.557   3.421   5.536 -0.2816  0.2496  0.6942
 5458SOL    HW217274   1.680   3.315   5.519 -0.5070  0.3348 -1.7396
 5459SOL     OW17275   0.564   5.097   0.414 -0.2069  0.6279 -0.6031
 5459SOL    HW117276   0.618   5.032   0.360  0.7926  1.2270 -0.3584
 5459SOL    HW217277   0.485   5.051   0.453  0.4572 -0.4291 -0.4823
 5460SOL     OW17278   4.721   0.362   4.763  0.5546 -0.1733 -0.2906
 5460SOL    HW117279   4.659   0.301   4.813  1.4879 -0.0922  0.9973
 5460SOL    HW217280   4.805   0.313   4.742 -0.0512 -0.4246 -2.4291
 5461SOL     OW17281   2.592   5.010   4.860 -0.2566 -0.0381 -0.3655
 5461SOL    HW117282   2.643   5.049   4.936 -0.7390  1.2001 -0.6438
 5461SOL    HW217283   2.626   4.919   4.839  0.0261 -0.3054  1.1813
 5462SOL     OW17284   6.089   1.904   2.197  0.2591  0.0208  0.1268
 5462SOL    HW117285   6.122   1.820   2.151  0.6445  0.6488 -0.7801
 5462SOL    HW217286   6.168   1.959   2.225  0.0498  1.3777 -1.7515
 5463SOL     OW17287   0.093   2.577   2.198 -0.0766 -0.3955  0.2748
 5463SOL    HW117288   0.174   2.622   2.161  0.1066  0.2282  1.3951
 5463SOL    HW217289   0.119   2.523   2.278 -1.0017  1.1534  1.6791
 5464SOL     OW17290   1.677   0.117   5.710  0.1040 -0.0416 -0.1521
 5464SOL    HW117291   1.586   0.150   5.684  0.3402  1.7085  1.0946
 5464SOL    HW217292   1.744   0.146   5.642  0.1601  1.2887  0.4474
 5465SOL     OW17293   2.049   6.943   5.906 -0.1098  0.3757 -0.2570
 5465SOL    HW117294   1.955   6.973   5.887 -0.5347 -0.6760  0.1219
 5465SOL    HW217295   2.065   6.944   6.004  0.5698  1.3605 -0.3598
 5466SOL     OW17296   0.131   4.459   0.494 -0.2512  0.5896  0.4753
 5466SOL    HW117297   0.217   4.510   0.489 -0.7130  1.3609  0.2885
 5466SOL    HW217298   0.099   4.438   0.402  0.7190 -1.4250  0.5352
 5467SOL     OW17299   0.083   0.609   6.403  0.0935 -0.1234 -0.3592
 5467SOL    HW117300  -0.016   0.617   6.413 -0.2775 -2.9222 -1.0439
 5467SOL    HW217301   0.127   0.638   6.488 -1.4268 -0.5954  0.6337
 5468SOL     OW17302   4.885   1.660   5.396 -0.2742 -0.3785 -0.3145
 5468SOL    HW117303   4.868   1.725   5.470  0.8755 -0.3146 -0.0888
 5468SOL    HW217304   4.840   1.693   5.313  1.2707  1.3700 -0.5176
 5469SOL     OW17305   6.510   4.545   0.489  0.0983  0.3956  0.1541
 5469SOL    HW117306   6.603   4.545   0.450 -0.2082 -2.9176 -0.9367
 5469SOL    HW217307   6.516   4.550   0.588  1.4097  0.9458  0.0723
 5470SOL     OW17308   5.522   3.946   1.043  0.3926  0.5047 -0.1696
 5470SOL    HW117309   5.592   4.013   1.018  1.4331 -0.0362  1.1775
 5470SOL    HW217310   5.553   3.855   1.018 -0.1045  0.3155 -0.1110
 5471SOL     OW17311   1.164   2.800   2.067 -0.2489  0.0841 -0.4024
 5471SOL    HW117312   1.123   2.811   2.157  0.1972 -1.1141 -0.0219
 5471SOL    HW217313   1.164   2.703   2.042  1.1526  0.1921 -0.9429
 5472SOL     OW17314   2.520   4.508   4.277 -0.4078 -0.1919 -0.2419
 5472SOL    HW117315   2.489   4.525   4.371  0.3481 -0.1164 -0.0050
 5472SOL    HW217316   2.451   4.452   4.230 -1.8305  1.5269 -0.3318
 5473SOL     OW17317   2.897   5.971   3.995 -0.0795  0.4587 -0.4350
 5473SOL    HW117318   2.887   6.060   3.950 -0.0061  0.6921  0.0026
 5473SOL    HW217319   2.994   5.944   3.993  0.0510  0.8368  0.2552
 5474SOL     OW17320   2.674   6.303   3.113 -0.6413 -0.2042  0.5618
 5474SOL    HW117321   2.628   6.340   3.194 -1.5067 -0.6030  0.2631
 5474SOL    HW217322   2.623   6.329   3.031  0.0016 -0.1549  0.1756
 5475SOL     OW17323   3.629   0.851   2.406 -0.5794 -0.4368  0.4102
 5475SOL    HW117324   3.579   0.801   2.476 -0.0530 -2.2949 -0.4881
 5475SOL    HW217325   3.702   0.904   2.448 -0.1168 -1.7133  1.2735
 5476SOL     OW17326   1.577   5.365   5.989 -0.3494 -0.0702  0.4248
 5476SOL    HW117327   1.481   5.391   5.995  0.1894  2.0831  0.5423
 5476SOL    HW217328   1.584   5.267   5.973 -2.5546 -0.2466  0.2423
 5477SOL     OW17329   1.830   3.023   2.619  0.6295 -0.1333  0.5169
 5477SOL    HW117330   1.885   3.097   2.657  0.8514  0.2989 -0.5932
 5477SOL    HW217331   1.890   2.951   2.583  0.4911  0.2870 -0.5968
 5478SOL     OW17332   0.727   5.927   0.332 -0.0637 -0.7290 -0.2683
 5478SOL    HW117333   0.723   6.020   0.368 -0.6049 -0.8180 -0.0930
 5478SOL    HW217334   0.822   5.903   0.313 -0.0186  0.2573 -1.3806
 5479SOL     OW17335   4.587   0.109   4.838  0.2311 -0.6109 -0.1002
 5479SOL    HW117336   4.581   0.133   4.741 -0.8589  0.6815  0.2679
 5479SOL    HW217337   4.535   0.025   4.854  0.3659 -0.8011 -0.6068
 5480SOL     OW17338   0.791   2.064   1.696  0.0836  0.2297 -0.5844
 5480SOL    HW117339   0.884   2.068   1.733 -0.4996 -0.4349  1.0685
 5480SOL    HW217340   0.731   2.120   1.752 -0.4458  1.0272 -1.9246
 5481SOL     OW17341   3.935   1.186   1.583  0.4366  0.1403  0.4190
 5481SOL    HW117342   3.890   1.250   1.521  0.9444  0.0328 -0.0696
 5481SOL    HW217343   3.868   1.152   1.650  0.1106  0.9949  0.5427
 5482SOL     OW17344   0.460   6.579   2.948 -0.0281 -0.3080  0.1217
 5482SOL    HW117345   0.396   6.503   2.958 -0.7618  0.2574 -0.1774
 5482SOL    HW217346   0.441   6.628   2.863  1.4904 -0.7470 -0.5155
 5483SOL     OW17347   6.109   4.136   6.879 -0.0651  0.1234 -0.2025
 5483SOL    HW117348   6.081   4.185   6.961  0.3312  1.0414 -0.6073
 5483SOL    HW217349   6.058   4.050   6.872 -1.0419  0.6547  0.3120
 5484SOL     OW17350   4.797   0.956   5.567  0.0539 -0.2660 -0.2129
 5484SOL    HW117351   4.858   0.897   5.620  0.2581 -1.6018 -1.8615
 5484SOL    HW217352   4.703   0.925   5.578 -0.0736  0.3299  0.4513
 5485SOL     OW17353   3.980   0.626   6.178  0.5596  0.0709  0.0910
 5485SOL    HW117354   4.047   0.617   6.104  0.6833 -0.7637  0.3018
 5485SOL    HW217355   3.944   0.720   6.178  0.9905  0.2482 -0.6504
 5486SOL     OW17356   2.741   5.334   3.769 -0.1475 -0.1731 -0.0032
 5486SOL    HW117357   2.742   5.234   3.766  0.1099 -0.2201  1.0231
 5486SOL    HW217358   2.710   5.364   3.860  2.8436  0.6211  0.8739
 5487SOL     OW17359   3.084   6.430   5.635 -0.0809 -0.0042  0.1356
 5487SOL    HW117360   3.092   6.493   5.713  0.9563  0.7710 -0.5703
 5487SOL    HW217361   3.160   6.445   5.572 -1.6619  0.4169 -1.7666
 5488SOL     OW17362   4.747   3.188   6.134  0.1484 -0.3908 -0.8250
 5488SOL    HW117363   4.716   3.093   6.142  1.2325 -0.6419  0.7082
 5488SOL    HW217364   4.699   3.244   6.201  0.9018 -0.2357 -0.4078
 5489SOL     OW17365   6.915   2.851   5.553  0.0988  0.2320  0.0505
 5489SOL    HW117366   6.986   2.855   5.623  0.6974 -0.4545 -0.5095
 5489SOL    HW217367   6.957   2.849   5.462 -0.5430 -1.8567 -0.2570
 5490SOL     OW17368   6.967   5.003   2.780  0.1725 -0.1597  0.0948
 5490SOL    HW117369   6.868   5.007   2.762  0.1458  1.5048  0.4129
 5490SOL    HW217370   7.015   4.984   2.695 -0.4258 -1.1442 -0.0364
 5491SOL     OW17371   6.329   4.182   1.155  0.3532  0.7270  0.0730
 5491SOL    HW117372   6.412   4.133   1.126 -0.0757  0.3047 -0.4754
 5491SOL    HW217373   6.256   4.164   1.089 -0.3581  0.5848  0.8866
 5492SOL     OW17374   0.694   3.566   1.715 -0.1389  0.2309  0.2249
 5492SOL    HW117375   0.624   3.557   1.785  1.8385  1.2057  2.4653
 5492SOL    HW217376   0.681   3.652   1.665 -1.0328 -0.0165  0.0282
 5493SOL     OW17377   3.638   4.204   6.355  0.4013  0.4668  0.2844
 5493SOL    HW117378   3.669   4.240   6.267 -1.3384  1.4007 -0.0057
 5493SOL    HW217379   3.551   4.249   6.380 -1.2409 -2.6077  0.5468
 5494SOL     OW17380   5.762   2.224   4.389 -0.4216 -0.1551  0.2334
 5494SOL    HW117381   5.726   2.245   4.298 -0.7868  0.1467  0.4510
 5494SOL    HW217382   5.708   2.269   4.459  0.6328  0.6666  0.5468
 5495SOL     OW17383   6.134   1.368   5.672  0.5617  0.7081  0.5311
 5495SOL    HW117384   6.099   1.413   5.754  1.3904  1.1956  0.6234
 5495SOL    HW217385   6.097   1.275   5.668 -0.6908  1.1715  0.6450
 5496SOL     OW17386   1.977   6.621   6.910  0.3802 -0.4756  0.2798
 5496SOL    HW117387   1.924   6.680   6.849 -0.8720 -0.8970  0.9271
 5496SOL    HW217388   2.012   6.543   6.859  1.6564  0.5565 -0.4818
 5497SOL     OW17389   0.467   6.855   5.839 -0.1033  0.8186  0.2212
 5497SOL    HW117390   0.488   6.908   5.921  2.9882 -0.4437  0.4069
 5497SOL    HW217391   0.379   6.809   5.850  0.0484  0.9631  2.7230
 5498SOL     OW17392   5.845   5.247   1.148 -1.1669 -0.0672  0.5834
 5498SOL    HW117393   5.796   5.188   1.212  1.5338 -2.3866  0.6619
 5498SOL    HW217394   5.818   5.226   1.055  0.2946 -2.0675  0.5605
 5499SOL     OW17395   2.428   6.994   3.535 -0.2337  0.2455 -0.0724
 5499SOL    HW117396   2.396   7.070   3.479 -1.4961  0.3897  0.8149
 5499SOL    HW217397   2.403   6.908   3.491 -0.1657  0.3489 -0.3155
 5500SOL     OW17398   1.272   0.584   1.504  0.0516  0.2289  0.3904
 5500SOL    HW117399   1.244   0.489   1.517  0.7946 -0.2269 -1.0437
 5500SOL    HW217400   1.191   0.642   1.490 -0.3579 -0.3616  0.3010
 5501SOL     OW17401   5.552   3.701   0.695  0.5503 -0.7105  0.1323
 5501SOL    HW117402   5.601   3.734   0.614 -0.9072 -0.5502 -0.7061
 5501SOL    HW217403   5.456   3.686   0.672 -0.0031 -0.1766  1.9769
 5502SOL     OW17404   2.239   1.998   6.550 -0.3993  0.4832 -0.0742
 5502SOL    HW117405   2.251   1.921   6.613  1.4110  0.4835 -0.3610
 5502SOL    HW217406   2.255   1.967   6.456 -0.2159  1.0787 -0.2451
 5503SOL     OW17407   4.537   3.734   0.813 -0.6659 -0.1971  0.6729
 5503SOL    HW117408   4.441   3.707   0.808 -0.8910  0.7396 -2.4133
 5503SOL    HW217409   4.546   3.817   0.868 -1.1550 -1.6853  3.1557
 5504SOL     OW17410   1.029   6.733   6.270 -0.4251  0.1600  0.0705
 5504SOL    HW117411   0.982   6.746   6.183 -0.2632  3.1734  0.3069
 5504SOL    HW217412   0.966   6.751   6.345  0.1048  0.2875  0.4941
 5505SOL     OW17413   4.396   6.558   2.622  0.2955 -0.4857  0.2173
 5505SOL    HW117414   4.411   6.622   2.697 -3.0815 -1.1283  1.6103
 5505SOL    HW217415   4.481   6.548   2.570  2.3231  1.2461  2.8994
 5506SOL     OW17416   6.327   1.400   6.586  0.4150 -0.2445  0.6252
 5506SOL    HW117417   6.423   1.393   6.561 -0.3030  0.8684 -3.1058
 5506SOL    HW217418   6.309   1.489   6.627  1.1348 -1.0038  2.7277
 5507SOL     OW17419   4.027   6.499   6.569  0.0669 -0.4147  0.1220
 5507SOL    HW117420   3.997   6.427   6.507 -0.2903 -0.0732 -0.1042
 5507SOL    HW217421   4.116   6.534   6.541  0.2245 -0.7400  0.2119
 5508SOL     OW17422   4.978   2.814   4.133  0.4781 -0.2429  0.1786
 5508SOL    HW117423   5.009   2.738   4.189 -0.1119 -0.6962 -0.1011
 5508SOL    HW217424   4.945   2.780   4.045 -2.0385  0.0379  0.9232
 5509SOL     OW17425   4.850   5.948   0.895 -0.2462 -0.1940 -0.0368
 5509SOL    HW117426   4.793   5.986   0.967  0.5614 -2.2254  1.7866
 5509SOL    HW217427   4.855   5.848   0.905  2.2500 -0.2556 -1.0952
 5510SOL     OW17428   3.641   6.433   6.851  0.7076  0.0792  0.1331
 5510SOL    HW117429   3.714   6.499   6.835  1.3591 -0.6022  0.2089
 5510SOL    HW217430   3.616   6.433   6.948  1.7126 -0.7799  0.4113
 5511SOL     OW17431   0.366   3.539   5.923 -0.0148 -0.0321 -0.3881
 5511SOL    HW117432   0.293   3.483   5.962  0.2833  0.3184  0.7237
 5511SOL    HW217433   0.437   3.479   5.885 -0.3945 -0.3834 -0.5539
 5512SOL     OW17434   3.238   5.679   2.191  0.1334  0.2251 -0.2856
 5512SOL    HW117435   3.162   5.637   2.141  0.6813 -0.1261 -0.8276
 5512SOL    HW217436   3.324   5.639   2.161  0.4956  0.1438  0.7970
 5513SOL     OW17437   4.390   5.818   0.418 -0.4917  0.6440  0.4733
 5513SOL    HW117438   4.318   5.789   0.356 -1.0738  1.2564  0.8430
 5513SOL    HW217439   4.477   5.821   0.369 -0.8569  0.6526 -0.1849
 5514SOL     OW17440   3.772   0.671   6.409 -0.2951  0.1009  0.4537
 5514SOL    HW117441   3.772   0.737   6.334 -0.1280 -2.7147 -2.1963
 5514SOL    HW217442   3.866   0.654   6.438 -0.2127 -0.2099 -0.0023
 5515SOL     OW17443   4.024   5.347   1.932 -0.1082 -0.1632  0.2712
 5515SOL    HW117444   4.056   5.438   1.958 -1.0248 -0.1501  1.3894
 5515SOL    HW217445   4.060   5.279   1.997 -0.7487 -0.3851  0.4043
 5516SOL     OW17446   2.169   2.510   5.350  0.3790  0.5452  0.1459
 5516SOL    HW117447   2.265   2.528   5.332  1.1585 -2.8894  0.0915
 5516SOL    HW217448   2.161   2.459   5.437 -1.4386  1.1300  0.3617
 5517SOL     OW17449   0.162   0.964   2.462 -0.2061 -0.1580 -0.3481
 5517SOL    HW117450   0.234   0.909   2.420 -0.4200  0.1852 -1.1966
 5517SOL    HW217451   0.077   0.911   2.467  0.0957 -0.5704  0.6737
 5518SOL     OW17452   3.910   3.289   5.019 -0.3895 -0.1475  0.1512
 5518SOL    HW117453   3.913   3.191   5.038  4.7774 -0.5961 -1.2997
 5518SOL    HW217454   3.816   3.317   5.000 -2.4115 -4.2625  2.7074
 5519SOL     OW17455   4.607   1.861   6.043 -0.1398 -0.1866 -0.0630
 5519SOL    HW117456   4.610   1.955   6.078  0.4825  0.5934 -2.0117
 5519SOL    HW217457   4.606   1.796   6.119 -0.1094  1.3806  1.3336
 5520SOL     OW17458   6.009   5.589   1.772 -0.3562 -0.2239 -0.0808
 5520SOL    HW117459   5.993   5.545   1.684 -0.4848 -1.9033  0.7458
 5520SOL    HW217460   5.923   5.623   1.809 -0.7635 -1.7847  0.5158
 5521SOL     OW17461   5.230   0.917   1.010 -0.4272  0.1690  0.3361
 5521SOL    HW117462   5.175   0.975   1.071  0.0327  2.9626 -1.6721
 5521SOL    HW217463   5.319   0.900   1.051 -0.6673  0.7044  1.0943
 5522SOL     OW17464   4.187   6.055   0.430  0.9910  0.0234  0.2467
 5522SOL    HW117465   4.152   5.998   0.356 -0.7529 -0.7577  1.5836
 5522SOL    HW217466   4.279   6.086   0.408  0.9187 -1.0264 -1.7607
 5523SOL     OW17467   5.474   1.801   0.446 -0.1978 -0.7222 -1.2388
 5523SOL    HW117468   5.415   1.876   0.475 -1.3078 -1.8175 -0.5352
 5523SOL    HW217469   5.537   1.778   0.521  1.3951  0.6466 -2.0975
 5524SOL     OW17470   1.831   2.380   1.715 -0.1661 -0.0592 -0.0671
 5524SOL    HW117471   1.781   2.310   1.767 -1.7196  0.9004 -0.2197
 5524SOL    HW217472   1.903   2.419   1.773 -0.0323 -0.9781  0.4019
 5525SOL     OW17473   1.216   6.802   1.671 -0.0358 -0.3555  0.2396
 5525SOL    HW117474   1.179   6.738   1.739  0.4335 -1.6138 -0.6483
 5525SOL    HW217475   1.297   6.846   1.709 -0.4498 -0.1511  0.9204
 5526SOL     OW17476   5.318   4.976   3.641  0.4198  0.3426  0.0515
 5526SOL    HW117477   5.354   5.025   3.720 -0.4356 -0.5062  1.0012
 5526SOL    HW217478   5.310   4.879   3.663 -1.6345  0.3666 -0.3725
 5527SOL     OW17479   0.649   2.250   1.819 -0.2346 -0.2836 -0.7512
 5527SOL    HW117480   0.702   2.291   1.745  0.6283  0.2662  0.1505
 5527SOL    HW217481   0.585   2.317   1.855 -1.3434 -0.8462 -1.6182
 5528SOL     OW17482   1.912   2.587   6.005 -0.0812  0.0704  0.0976
 5528SOL    HW117483   1.976   2.664   6.007 -0.8168  0.6731  0.8101
 5528SOL    HW217484   1.835   2.610   5.946 -0.3033 -0.1208  0.3140
 5529SOL     OW17485   1.922   3.662   1.554 -0.4625  0.1705 -0.6055
 5529SOL    HW117486   1.909   3.756   1.585 -1.0139 -0.5821  1.6640
 5529SOL    HW217487   1.956   3.606   1.630  0.0902 -1.4274 -1.9656
 5530SOL     OW17488   2.270   0.760   0.942 -1.1610 -0.0584  0.2633
 5530SOL    HW117489   2.220   0.674   0.931 -1.6652  0.2943 -0.2538
 5530SOL    HW217490   2.214   0.836   0.909 -0.0526  0.2733 -0.9538
 5531SOL     OW17491   1.326   3.678   0.598  0.0914 -0.2085 -0.6966
 5531SOL    HW117492   1.326   3.740   0.520  0.4003  0.5650 -0.1002
 5531SOL    HW217493   1.314   3.731   0.682 -0.2715 -1.0281 -0.2179
 5532SOL     OW17494   4.982   6.121   5.840  0.2873  0.0420  0.2705
 5532SOL    HW117495   5.065   6.176   5.831  0.0850  0.3507  0.2846
 5532SOL    HW217496   4.926   6.130   5.758 -0.6506  1.3650  1.0174
 5533SOL     OW17497   4.042   0.189   4.112 -0.2836  0.3471 -0.0833
 5533SOL    HW117498   4.041   0.250   4.033  0.3988 -1.1480 -1.3123
 5533SOL    HW217499   4.022   0.096   4.081  0.6609 -0.3794  1.4169
 5534SOL     OW17500   3.538   6.529   5.228  0.4061 -0.3895 -0.5599
 5534SOL    HW117501   3.616   6.494   5.280  0.2206 -0.9680 -0.6689
 5534SOL    HW217502   3.560   6.531   5.131  0.3195 -0.4488 -0.5803
 5535SOL     OW17503   2.238   1.448   3.309  0.3675  0.3825  0.0788
 5535SOL    HW117504   2.296   1.466   3.389 -0.7008 -0.0186  0.9681
 5535SOL    HW217505   2.296   1.434   3.229  1.6594 -1.8972  1.2884
 5536SOL     OW17506   4.533   6.851   4.810 -0.3150  0.2757 -0.2314
 5536SOL    HW117507   4.532   6.812   4.718  1.3463  0.4122 -0.3416
 5536SOL    HW217508   4.447   6.830   4.856  0.1576 -2.9040 -0.5567
 5537SOL     OW17509   2.839   2.321   4.199  0.4329  0.2358 -0.4323
 5537SOL    HW117510   2.920   2.271   4.227  1.3516  1.1251 -1.4166
 5537SOL    HW217511   2.773   2.323   4.275  0.6331 -1.8502 -0.1566
 5538SOL     OW17512   3.855   6.826   2.574  0.5216 -0.4395 -0.3372
 5538SOL    HW117513   3.907   6.741   2.580  1.5697  0.0641 -1.7563
 5538SOL    HW217514   3.918   6.903   2.560 -0.0412  1.0829  3.7952
 5539SOL     OW17515   3.122   4.079   0.249 -0.1773  0.1580  0.4445
 5539SOL    HW117516   3.075   4.027   0.177 -0.4373 -0.6734  1.2000
 5539SOL    HW217517   3.121   4.027   0.334  0.2359  1.0787  1.0299
 5540SOL     OW17518   3.406   5.666   6.898  0.2180 -0.6716  0.3392
 5540SOL    HW117519   3.417   5.765   6.892  0.9543 -0.6834  1.3219
 5540SOL    HW217520   3.414   5.637   6.993 -2.2881 -1.4307  0.3853
 5541SOL     OW17521   4.304   6.667   0.159  0.1372 -0.0964  0.3142
 5541SOL    HW117522   4.284   6.632   0.251  1.3069  0.0949  0.6540
 5541SOL    HW217523   4.381   6.729   0.163  0.3612 -0.2720 -0.8512
 5542SOL     OW17524   6.221   3.215   0.314  0.5467  0.2310  0.4675
 5542SOL    HW117525   6.181   3.160   0.387  1.7095  0.0118  0.9619
 5542SOL    HW217526   6.301   3.167   0.276  1.2724  1.3228  0.5552
 5543SOL     OW17527   6.589   2.616   6.672  0.4470  0.5514 -0.2349
 5543SOL    HW117528   6.670   2.559   6.657 -0.3482 -0.0313 -2.7271
 5543SOL    HW217529   6.613   2.712   6.662  0.9472  0.4221 -0.3021
 5544SOL     OW17530   4.899   6.398   1.134 -0.3738  0.5120 -0.2328
 5544SOL    HW117531   4.821   6.386   1.194 -0.5352 -2.3233 -0.8693
 5544SOL    HW217532   4.959   6.469   1.170 -2.3643  1.5608  1.1613
 5545SOL     OW17533   2.445   5.113   5.597 -0.2273 -0.1597  0.1572
 5545SOL    HW117534   2.513   5.148   5.662  0.0053 -0.5214  0.1144
 5545SOL    HW217535   2.484   5.114   5.505 -0.7511  0.8750 -0.0646
 5546SOL     OW17536   0.192   6.494   0.021 -0.5627 -0.5253  0.5477
 5546SOL    HW117537   0.102   6.535   0.009 -0.4126 -0.3512  0.0046
 5546SOL    HW217538   0.192   6.403  -0.021  0.2182  0.4220 -1.6178
 5547SOL     OW17539   1.833   5.148   5.616 -0.5180  0.5057  0.1120
 5547SOL    HW117540   1.853   5.147   5.714 -0.6864  1.4250  0.1631
 5547SOL    HW217541   1.911   5.110   5.565  0.0552  1.1174  0.5222
 5548SOL     OW17542   5.472   0.459   4.048 -0.1177  0.6145  0.0081
 5548SOL    HW117543   5.461   0.548   4.093  1.4176  1.5263 -1.2973
 5548SOL    HW217544   5.447   0.467   3.952 -2.9835 -1.2116  0.4959
 5549SOL     OW17545   4.627   4.350   4.914 -0.5261  0.0127 -0.2010
 5549SOL    HW117546   4.539   4.393   4.934 -0.5157 -0.2919  0.5210
 5549SOL    HW217547   4.661   4.303   4.995  0.8995  1.1439 -0.1063
 5550SOL     OW17548   1.510   6.964   0.595 -0.0699  0.5241  0.2889
 5550SOL    HW117549   1.581   7.004   0.652  0.3839  0.0160  0.0854
 5550SOL    HW217550   1.543   6.958   0.501 -0.8330  1.4146 -0.0543
 5551SOL     OW17551   1.311   0.840   2.900  0.2386 -0.0694  0.2327
 5551SOL    HW117552   1.222   0.882   2.920  0.6907  1.1860 -0.2832
 5551SOL    HW217553   1.319   0.826   2.801  1.2413  1.3578  0.0802
 5552SOL     OW17554   0.989   1.333   1.221 -0.5078 -0.1901 -0.1272
 5552SOL    HW117555   1.088   1.352   1.217 -0.7073  0.7354 -2.1757
 5552SOL    HW217556   0.949   1.382   1.298  0.2331  1.6558 -0.8586
 5553SOL     OW17557   5.125   5.072   6.862 -0.8295 -0.8822  0.4764
 5553SOL    HW117558   5.055   5.108   6.924 -0.5506  0.9343 -0.2135
 5553SOL    HW217559   5.096   5.085   6.768  0.8611  0.9384  0.1446
 5554SOL     OW17560   2.751   6.773   0.446 -0.3291  0.0454 -0.1328
 5554SOL    HW117561   2.786   6.682   0.420 -0.0219  0.5865 -1.6954
 5554SOL    HW217562   2.711   6.767   0.537 -0.6461 -1.7470 -0.3399
 5555SOL     OW17563   1.514   5.284   1.384 -0.5036  0.1296 -0.3311
 5555SOL    HW117564   1.474   5.306   1.473  0.0950 -1.9495  0.4979
 5555SOL    HW217565   1.611   5.308   1.383 -0.6651  0.7995 -0.6910
 5556SOL     OW17566   6.397   5.394   4.041  0.3921 -0.1496  0.2411
 5556SOL    HW117567   6.356   5.312   4.080  0.1119  0.3567  1.0464
 5556SOL    HW217568   6.346   5.475   4.072 -0.2431  0.2491 -1.7102
 5557SOL     OW17569   4.407   1.657   2.215  0.2104  0.0663  0.0332
 5557SOL    HW117570   4.472   1.670   2.289  2.1958  2.9344 -2.0063
 5557SOL    HW217571   4.452   1.610   2.139 -1.1723 -0.9474 -0.2095
 5558SOL     OW17572   3.879   2.759   6.415  0.1071 -0.7849  0.3102
 5558SOL    HW117573   3.892   2.735   6.319 -1.1418  0.1668 -0.1294
 5558SOL    HW217574   3.911   2.852   6.431 -1.3498 -0.2738  0.3734
 5559SOL     OW17575   3.701   6.711   1.169 -0.5657 -0.3357 -0.1205
 5559SOL    HW117576   3.631   6.740   1.234 -0.4072 -0.1475 -0.0303
 5559SOL    HW217577   3.746   6.792   1.130 -0.1813 -0.4568  0.0626
 5560SOL     OW17578   0.036   1.992   4.878 -0.3984  0.4648 -0.5162
 5560SOL    HW117579  -0.019   2.056   4.931  1.2329  1.3314  0.2064
 5560SOL    HW217580   0.053   1.909   4.933  1.5558  1.4913  0.5463
 5561SOL     OW17581   3.688   5.426   1.753 -0.0591 -0.1491  0.1184
 5561SOL    HW117582   3.712   5.344   1.702  1.2727  0.6638 -0.6509
 5561SOL    HW217583   3.594   5.453   1.732 -1.2779 -2.5873  2.0070
 5562SOL     OW17584   4.106   2.203   3.994 -0.5044  0.0590 -0.1925
 5562SOL    HW117585   4.120   2.210   4.093  0.5008 -0.5616 -0.2764
 5562SOL    HW217586   4.188   2.237   3.946 -1.4345  1.4858 -0.8537
 5563SOL     OW17587   4.549   4.884   0.822  0.2228 -0.3150 -0.5436
 5563SOL    HW117588   4.509   4.858   0.910  0.2901  0.6093 -0.2342
 5563SOL    HW217589   4.526   4.979   0.802  1.8222  0.0789 -0.6064
 5564SOL     OW17590   0.877   0.646   2.396  0.2961 -0.1716  0.2679
 5564SOL    HW117591   0.807   0.584   2.433 -0.0892  0.1235  0.0317
 5564SOL    HW217592   0.889   0.629   2.299 -0.8379  1.0694 -0.1294
 5565SOL     OW17593   2.152   2.673   4.768  0.1499  0.0291 -0.3743
 5565SOL    HW117594   2.077   2.608   4.782  0.9086 -0.6993  0.4430
 5565SOL    HW217595   2.158   2.735   4.847 -0.4900  1.0475 -1.0899
 5566SOL     OW17596   2.140   3.555   1.084  0.0933 -0.2989 -0.1385
 5566SOL    HW117597   2.194   3.551   1.168  0.9851  0.1311 -0.6659
 5566SOL    HW217598   2.043   3.560   1.107  0.3805  1.3608  0.9335
 5567SOL     OW17599   1.952   6.095   1.460  0.2990  0.1433 -0.1647
 5567SOL    HW117600   1.911   6.186   1.473 -0.0198 -0.0865  0.4708
 5567SOL    HW217601   1.897   6.042   1.396  0.8456  0.6193 -1.0592
 5568SOL     OW17602   3.735   2.639   6.828  0.4088  0.1349  0.2240
 5568SOL    HW117603   3.819   2.591   6.802  1.1922  1.0695  0.9628
 5568SOL    HW217604   3.657   2.577   6.819  1.2380 -0.8980  0.0030
 5569SOL     OW17605   3.869   1.328   4.168 -0.7907 -0.0673 -0.1764
 5569SOL    HW117606   3.774   1.357   4.173 -0.3557  1.6302 -1.2414
 5569SOL    HW217607   3.879   1.240   4.216 -3.1242 -0.9523 -1.1553
 5570SOL     OW17608   0.787   2.325   5.495  0.6931 -0.2183  0.1708
 5570SOL    HW117609   0.725   2.270   5.551 -0.2174 -0.0392 -0.6339
 5570SOL    HW217610   0.766   2.311   5.398  1.8848 -0.1124 -0.1196
 5571SOL     OW17611   0.450   3.907   0.110  0.3152 -0.4390 -0.0953
 5571SOL    HW117612   0.537   3.879   0.068 -0.2688  1.0502 -2.5106
 5571SOL    HW217613   0.404   3.972   0.050 -1.5011  0.4589  2.1363
 5572SOL     OW17614   0.990   4.281   0.960  0.2939  0.0141  0.1828
 5572SOL    HW117615   1.011   4.216   1.034  0.2176 -1.0804 -0.7286
 5572SOL    HW217616   1.051   4.264   0.883  0.4484  1.2246  0.0177
 5573SOL     OW17617   6.002   4.435   6.389 -0.4566 -0.1375  0.0588
 5573SOL    HW117618   5.934   4.400   6.325  0.1902 -0.6451 -0.3742
 5573SOL    HW217619   6.010   4.374   6.467 -1.3146  0.5329  0.6907
 5574SOL     OW17620   1.228   5.426   3.673  0.1356 -0.3104  0.7404
 5574SOL    HW117621   1.290   5.461   3.603 -1.3662  0.9292 -0.0090
 5574SOL    HW217622   1.251   5.330   3.693  1.3268 -0.3259 -0.5771
 5575SOL     OW17623   0.675   1.395   1.875  0.3139 -0.1256  0.6095
 5575SOL    HW117624   0.751   1.343   1.914 -0.7759 -1.2552  1.2828
 5575SOL    HW217625   0.604   1.408   1.945  0.8293  2.9340  0.7034
 5576SOL     OW17626   5.318   6.448   4.882  0.1418 -0.1173  0.4189
 5576SOL    HW117627   5.376   6.369   4.860  1.0874  1.3643 -3.0098
 5576SOL    HW217628   5.346   6.486   4.970  0.7597 -2.5263  1.3637
 5577SOL     OW17629   1.325   5.447   6.044 -0.2360 -0.0234  0.2814
 5577SOL    HW117630   1.244   5.446   6.103 -0.2389  1.0163  0.3120
 5577SOL    HW217631   1.337   5.538   6.005  0.7995 -0.2188  0.1058
 5578SOL     OW17632   4.777   1.435   5.764 -0.1548 -0.3204  0.3515
 5578SOL    HW117633   4.868   1.456   5.798 -0.0343  2.7383 -1.4980
 5578SOL    HW217634   4.782   1.358   5.700  1.3539  0.4690 -0.5404
 5579SOL     OW17635   4.660   5.240   2.621  0.3833  0.0078 -0.0727
 5579SOL    HW117636   4.690   5.181   2.696  0.1989 -0.8918 -0.6787
 5579SOL    HW217637   4.579   5.291   2.649  0.1097 -0.5807  0.2207
 5580SOL     OW17638   0.453   1.719   3.439  0.3687  0.0741 -0.4366
 5580SOL    HW117639   0.414   1.638   3.482  2.0773  0.1528  1.4034
 5580SOL    HW217640   0.380   1.774   3.400 -0.9819 -1.4929 -0.2243
 5581SOL     OW17641   4.778   1.441   1.898  0.1733  0.0024  0.0760
 5581SOL    HW117642   4.848   1.509   1.876 -1.6114  1.7243 -0.6367
 5581SOL    HW217643   4.762   1.383   1.818 -2.1014  2.3818 -1.3500
 5582SOL     OW17644   2.613   4.818   6.719 -0.8352 -0.4030 -0.0452
 5582SOL    HW117645   2.623   4.902   6.667 -0.4493  0.3898  1.2602
 5582SOL    HW217646   2.518   4.787   6.715 -1.1565  0.5284  0.1005
 5583SOL     OW17647   3.073   0.294   0.434 -0.4487  0.4001  0.6120
 5583SOL    HW117648   3.168   0.301   0.404 -0.7223  1.8377 -0.0194
 5583SOL    HW217649   3.013   0.305   0.355 -1.1595 -0.4222  1.0170
 5584SOL     OW17650   6.483   5.024   5.326  0.3266 -0.9205  0.7726
 5584SOL    HW117651   6.429   5.080   5.389  0.5046 -1.0314  1.0234
 5584SOL    HW217652   6.571   5.068   5.309 -0.1679 -0.3039 -0.3097
 5585SOL     OW17653   0.520   2.689   4.794 -0.0894 -0.6250 -0.2073
 5585SOL    HW117654   0.449   2.700   4.725  0.8072 -1.5382 -1.3144
 5585SOL    HW217655   0.491   2.732   4.879 -1.2002  0.5856 -1.1607
 5586SOL     OW17656   0.682   0.430   6.563  0.3283 -0.1222 -0.2055
 5586SOL    HW117657   0.745   0.507   6.554  1.4954 -1.1088 -0.6682
 5586SOL    HW217658   0.729   0.353   6.607  0.0042 -1.4798 -2.1200
 5587SOL     OW17659   3.893   0.669   3.305  0.1593  0.0672  0.2767
 5587SOL    HW117660   3.952   0.747   3.284  0.8727 -0.6086 -0.2690
 5587SOL    HW217661   3.948   0.586   3.312 -0.7908 -0.7031 -0.9509
 5588SOL     OW17662   4.481   5.652   6.211 -0.6842  0.1816  0.0828
 5588SOL    HW117663   4.501   5.636   6.308 -0.4360  0.7051  0.1218
 5588SOL    HW217664   4.494   5.749   6.190 -0.8944  0.0985 -0.4393
 5589SOL     OW17665   1.479   2.563   6.009 -0.6868 -0.8416  0.4385
 5589SOL    HW117666   1.513   2.633   5.946 -3.5957 -0.4586 -0.8445
 5589SOL    HW217667   1.553   2.536   6.071  0.8649  2.5698  0.3100
 5590SOL     OW17668   5.457   6.684   4.451  0.5339  0.2207  0.8705
 5590SOL    HW117669   5.551   6.653   4.461  1.4146  2.0839 -0.9615
 5590SOL    HW217670   5.401   6.643   4.523  1.9757 -3.6298  0.0629
 5591SOL     OW17671   5.429   6.467   5.712 -0.4018 -0.0401  0.1983
 5591SOL    HW117672   5.463   6.374   5.727 -0.7600 -0.8362 -3.0503
 5591SOL    HW217673   5.507   6.529   5.700 -0.1303 -0.4237 -0.0585
 5592SOL     OW17674   0.951   4.379   3.761 -0.2671  0.4012 -0.3295
 5592SOL    HW117675   0.938   4.352   3.666 -0.4010 -3.0008  0.5226
 5592SOL    HW217676   1.004   4.464   3.765  1.7583 -0.5449 -3.4334
 5593SOL     OW17677   2.915   3.236   5.144  0.4425 -0.2496  0.1698
 5593SOL    HW117678   2.833   3.189   5.177 -1.0586  2.0368 -0.0432
 5593SOL    HW217679   2.899   3.268   5.051  1.0350  1.4322  0.6216
 5594SOL     OW17680   3.708   1.816   0.542 -0.5171  0.0590 -0.4595
 5594SOL    HW117681   3.763   1.753   0.597  0.5276 -0.5997 -2.1795
 5594SOL    HW217682   3.712   1.907   0.583  4.0952  0.7343 -1.7543
 5595SOL     OW17683   5.642   3.998   2.227 -0.1295  0.4443  0.3832
 5595SOL    HW117684   5.734   4.018   2.193 -0.9439 -0.8669 -2.8849
 5595SOL    HW217685   5.575   4.014   2.155 -2.1820 -1.3890  1.7599
 5596SOL     OW17686   6.141   4.004   3.959  0.3792  0.6611  0.3515
 5596SOL    HW117687   6.142   3.928   3.894  0.4653  0.4512  0.5959
 5596SOL    HW217688   6.147   4.091   3.909  1.7454  0.4632  0.1301
 5597SOL     OW17689   1.737   3.259   6.757  0.7158 -0.7005  0.0991
 5597SOL    HW117690   1.732   3.217   6.667 -1.1828  0.8782 -0.5929
 5597SOL    HW217691   1.682   3.206   6.822  2.3257 -2.0092  0.4637
 5598SOL     OW17692   5.562   0.391   3.139 -0.3923  0.0224  0.1097
 5598SOL    HW117693   5.505   0.356   3.065 -0.1898  0.0182 -0.0449
 5598SOL    HW217694   5.576   0.489   3.127  0.3067 -0.1265 -0.3020
 5599SOL     OW17695   5.371   3.817   2.702 -0.2391  0.0594 -0.0466
 5599SOL    HW117696   5.342   3.789   2.610 -0.3325 -0.5518  0.1590
 5599SOL    HW217697   5.439   3.890   2.695  0.4927 -0.6514 -0.6402
 5600SOL     OW17698   1.368   4.524   3.085 -0.1150  0.1630  0.0205
 5600SOL    HW117699   1.397   4.481   3.000  1.3973  1.0039  0.0625
 5600SOL    HW217700   1.438   4.507   3.156 -0.9554  0.1560  0.8667
 5601SOL     OW17701   3.941   1.196   0.267  0.0045  0.2804  0.1128
 5601SOL    HW117702   3.997   1.131   0.216  0.1222  1.6713 -1.6102
 5601SOL    HW217703   3.991   1.282   0.277 -1.0340  0.8645  0.3710
 5602SOL     OW17704   4.378   0.671   0.291 -0.0303  0.1557 -0.7051
 5602SOL    HW117705   4.366   0.726   0.208 -0.7529  1.5203  0.2683
 5602SOL    HW217706   4.367   0.729   0.372 -0.1808 -1.3015  0.3654
 5603SOL     OW17707   3.390   1.296   6.034  0.4828  0.1364  0.7660
 5603SOL    HW117708   3.321   1.230   6.066  0.7791 -1.6037 -1.8709
 5603SOL    HW217709   3.461   1.306   6.103 -0.4663 -0.9781  1.9540
 5604SOL     OW17710   2.486   5.364   3.357 -0.7644 -0.0312 -0.0416
 5604SOL    HW117711   2.529   5.387   3.269 -1.3935 -0.1155 -0.3803
 5604SOL    HW217712   2.423   5.288   3.344 -0.8029 -0.0944  0.5057
 5605SOL     OW17713   2.886   6.582   1.633 -0.1513  0.1069 -0.0333
 5605SOL    HW117714   2.887   6.672   1.591 -0.7370 -0.6114 -1.6680
 5605SOL    HW217715   2.890   6.591   1.733  1.1647  1.8602 -0.2221
 5606SOL     OW17716   3.536   2.204   0.077 -0.3206 -0.1132 -0.2785
 5606SOL    HW117717   3.580   2.248  -0.001  0.0458 -0.9714 -0.5694
 5606SOL    HW217718   3.501   2.274   0.140  1.9955  0.6361  0.2826
 5607SOL     OW17719   3.105   1.316   1.271 -0.1018  0.3358  0.6547
 5607SOL    HW117720   3.095   1.408   1.308 -3.6583  0.9223 -1.2840
 5607SOL    HW217721   3.026   1.260   1.297  0.4115 -1.1564 -0.7962
 5608SOL     OW17722   5.278   6.448   3.354  0.2884  0.3669 -0.9685
 5608SOL    HW117723   5.204   6.464   3.420  0.5189 -0.4322 -0.4981
 5608SOL    HW217724   5.340   6.527   3.354  0.2745  0.3863 -0.2343
 5609SOL     OW17725   0.536   0.874   1.161  0.4315  0.5486  0.2310
 5609SOL    HW117726   0.560   0.778   1.146  0.0582  0.4636  0.1870
 5609SOL    HW217727   0.542   0.895   1.258  0.6198  0.5102  0.2283
 5610SOL     OW17728   0.528   0.295   4.419 -0.7086  0.4252 -0.4742
 5610SOL    HW117729   0.608   0.331   4.371  0.9663 -1.9680  0.3654
 5610SOL    HW217730   0.516   0.345   4.505  0.1366  0.5167 -0.4024
 5611SOL     OW17731   6.905   3.926   2.165 -0.5043  0.2845 -0.5333
 5611SOL    HW117732   6.849   3.882   2.235 -0.4552 -1.0457 -1.3118
 5611SOL    HW217733   6.854   4.002   2.124 -1.8595 -1.0460 -1.3844
 5612SOL     OW17734   3.962   2.712   0.791  0.4342  0.4375  0.2600
 5612SOL    HW117735   3.924   2.776   0.724 -0.5323 -0.0141  0.3491
 5612SOL    HW217736   4.002   2.763   0.867 -2.4356  1.0292  1.5260
 5613SOL     OW17737   6.679   0.355   3.581 -0.5350 -0.1354  0.2721
 5613SOL    HW117738   6.751   0.420   3.608  0.9505 -1.9700  0.9425
 5613SOL    HW217739   6.594   0.378   3.628 -0.6851  2.5495 -1.0966
 5614SOL     OW17740   6.931   2.061   3.215 -0.0376 -0.3111 -0.3120
 5614SOL    HW117741   6.932   1.990   3.285 -0.1234 -0.4190 -0.4191
 5614SOL    HW217742   6.847   2.114   3.222 -0.0587 -0.3386 -0.3490
 5615SOL     OW17743   1.059   3.767   2.422 -0.3937  0.2091 -0.3972
 5615SOL    HW117744   1.153   3.798   2.436  0.3298 -2.0342  0.0294
 5615SOL    HW217745   1.024   3.728   2.507 -0.6665 -1.5951 -1.3002
 5616SOL     OW17746   1.374   3.308   0.955  0.1922 -0.4492  0.0891
 5616SOL    HW117747   1.446   3.337   1.018  0.1483 -0.7285  0.2663
 5616SOL    HW217748   1.414   3.258   0.879  0.2316 -0.2156 -0.0474
 5617SOL     OW17749   0.328   0.143   0.606 -0.5843 -0.1005  0.1628
 5617SOL    HW117750   0.330   0.044   0.616 -1.0763 -0.0067  1.2705
 5617SOL    HW217751   0.369   0.186   0.686  1.3565  0.5847 -1.1163
 5618SOL     OW17752   4.849   0.091   4.755  0.0180 -0.0017  0.3667
 5618SOL    HW117753   4.768   0.067   4.810 -0.3685  1.7641  0.6219
 5618SOL    HW217754   4.830   0.072   4.659 -0.6315  0.2075  0.4477
 5619SOL     OW17755   3.807   4.502   6.292 -0.3035  0.0807 -0.2023
 5619SOL    HW117756   3.717   4.477   6.257 -0.6309  0.4442  0.3551
 5619SOL    HW217757   3.799   4.529   6.388  0.3984  0.1360 -0.1525
 5620SOL     OW17758   4.478   4.730   5.090  0.4527 -0.0355 -0.0485
 5620SOL    HW117759   4.423   4.799   5.043 -0.9622 -1.5983 -0.8264
 5620SOL    HW217760   4.462   4.641   5.048  1.7909 -0.9431  1.2588
 5621SOL     OW17761   0.460   3.740   0.856 -0.0705 -0.7839 -0.3564
 5621SOL    HW117762   0.383   3.754   0.794 -1.1779 -0.2406  1.0629
 5621SOL    HW217763   0.448   3.654   0.906 -2.3880  1.3689  3.2611
 5622SOL     OW17764   6.140   4.809   2.481  0.1223 -0.4836 -0.9328
 5622SOL    HW117765   6.213   4.874   2.503  2.1429 -2.4489 -1.4163
 5622SOL    HW217766   6.059   4.858   2.449  1.7574  1.7329 -1.8780
 5623SOL     OW17767   3.978   4.887   3.660 -0.6024 -0.2152  0.0026
 5623SOL    HW117768   4.001   4.964   3.719 -0.3323 -0.0986 -0.2572
 5623SOL    HW217769   4.030   4.806   3.688 -1.5754 -0.5670  0.8820
 5624SOL     OW17770   5.820   5.268   4.071 -0.3356 -0.1680  0.4027
 5624SOL    HW117771   5.801   5.307   3.980 -0.5180  0.5319  0.7311
 5624SOL    HW217772   5.742   5.284   4.131  0.4454  0.9244  1.1797
 5625SOL     OW17773   3.417   0.312   6.100  0.2133  0.4707  0.4427
 5625SOL    HW117774   3.435   0.242   6.031  0.9842  0.0135  1.0773
 5625SOL    HW217775   3.498   0.370   6.110  0.1412  0.4842  0.9967
 5626SOL     OW17776   2.619   4.615   0.361  0.3159 -0.7199  0.0290
 5626SOL    HW117777   2.577   4.643   0.448  0.8196 -0.7598  0.2891
 5626SOL    HW217778   2.666   4.527   0.374 -1.4077 -1.8392 -0.8141
 5627SOL     OW17779   3.363   4.513   1.242  0.0174 -0.1729  0.5795
 5627SOL    HW117780   3.331   4.576   1.172 -1.4921 -0.1145  1.2852
 5627SOL    HW217781   3.285   4.480   1.296  1.1275 -0.1877  2.2557
 5628SOL     OW17782   0.950   3.876   5.592 -0.1976  0.2328 -0.3085
 5628SOL    HW117783   0.953   3.809   5.518  1.2327  1.2335 -1.2105
 5628SOL    HW217784   1.031   3.864   5.650 -0.2016  0.8384 -0.1732
 5629SOL     OW17785   1.517   5.650   3.964 -0.1245 -0.2031  0.1584
 5629SOL    HW117786   1.547   5.661   3.870 -0.8708  0.2170 -0.0368
 5629SOL    HW217787   1.470   5.733   3.994 -1.1788 -0.8748  0.4117
 5630SOL     OW17788   1.043   1.918   0.382 -0.4008 -0.3682 -0.3756
 5630SOL    HW117789   0.965   1.956   0.333  1.2543  0.5975 -2.4954
 5630SOL    HW217790   1.118   1.985   0.381  0.5196 -1.2983  1.4613
 5631SOL     OW17791   3.831   0.364   3.126  0.5705  0.2802  0.1398
 5631SOL    HW117792   3.773   0.416   3.189  0.2420  0.3338 -0.2021
 5631SOL    HW217793   3.917   0.413   3.112  1.0120 -0.1638  1.2238
 5632SOL     OW17794   3.797   5.124   1.211 -0.0595 -0.3251  0.4296
 5632SOL    HW117795   3.880   5.108   1.159 -0.2310 -1.4550  0.4762
 5632SOL    HW217796   3.734   5.048   1.198 -1.6131  1.0648 -0.5651
 5633SOL     OW17797   2.423   4.936   4.666  0.3204  0.2666 -0.0015
 5633SOL    HW117798   2.495   4.962   4.730  1.3919  0.1631 -1.1302
 5633SOL    HW217799   2.342   4.907   4.717  1.5779 -1.0635  1.3282
 5634SOL     OW17800   1.322   5.422   0.159  0.6872  0.0733  0.2376
 5634SOL    HW117801   1.322   5.417   0.059 -1.1549  1.4819  0.1245
 5634SOL    HW217802   1.371   5.504   0.187  2.8701 -1.2882  0.6314
 5635SOL     OW17803   3.732   6.946   4.460 -0.0194  0.2838 -0.2139
 5635SOL    HW117804   3.669   7.020   4.484 -1.2525 -1.2984  1.6743
 5635SOL    HW217805   3.804   6.940   4.529 -0.9051 -1.3354  0.6097
 5636SOL     OW17806   4.286   6.651   6.733 -0.2303  0.2245  0.2339
 5636SOL    HW117807   4.269   6.576   6.797  0.8742 -0.3855 -0.1818
 5636SOL    HW217808   4.367   6.702   6.762 -0.2611  0.5127 -0.1729
 5637SOL     OW17809   5.864   6.014   6.881 -0.0922 -0.2417  0.5177
 5637SOL    HW117810   5.803   5.946   6.839 -0.1686 -0.2087  0.5758
 5637SOL    HW217811   5.901   5.977   6.966  1.2482 -0.9200 -0.3152
 5638SOL     OW17812   3.031   4.661   6.036  0.2993  1.0178 -0.9218
 5638SOL    HW117813   3.106   4.727   6.027 -0.1127  1.7080  0.4819
 5638SOL    HW217814   3.013   4.644   6.132 -1.5500  1.0865 -1.2353
 5639SOL     OW17815   4.186   1.775   2.953  0.0104 -0.2886 -0.0615
 5639SOL    HW117816   4.132   1.835   3.012  0.2103 -1.7788  1.7308
 5639SOL    HW217817   4.141   1.686   2.945 -0.0985 -0.0761 -2.3618
 5640SOL     OW17818   5.439   0.036   2.910 -0.2517  0.2701 -0.0365
 5640SOL    HW117819   5.520   0.006   2.860 -0.8581 -0.4690 -0.5948
 5640SOL    HW217820   5.383  -0.043   2.934 -2.0298  0.9025 -1.7832
 5641SOL     OW17821   6.645   6.134   4.209  0.3487 -1.0380  0.3088
 5641SOL    HW117822   6.693   6.173   4.288 -0.9088 -1.0003  1.0793
 5641SOL    HW217823   6.577   6.199   4.176  0.4233 -1.3179 -0.4069
 5642SOL     OW17824   0.537   1.923   5.919 -0.0275  0.0083 -0.0763
 5642SOL    HW117825   0.529   2.013   5.961  1.4305  1.3290 -2.3836
 5642SOL    HW217826   0.451   1.898   5.875 -0.7000 -0.1519  1.2903
 5643SOL     OW17827   4.462   0.770   3.311 -0.0553 -1.0245  0.2032
 5643SOL    HW117828   4.395   0.845   3.310  0.1929 -0.7993  0.3140
 5643SOL    HW217829   4.553   0.807   3.329  0.0035 -1.4035  0.7299
 5644SOL     OW17830   1.849   1.881   6.089 -0.6308 -0.2000  0.4963
 5644SOL    HW117831   1.763   1.871   6.038  0.4180 -2.1147 -1.0513
 5644SOL    HW217832   1.885   1.974   6.075 -1.6012  0.0873 -0.2423
 5645SOL     OW17833   0.323   0.345   5.396  0.4590 -0.4795 -0.0340
 5645SOL    HW117834   0.392   0.273   5.399 -0.0861 -0.9898  0.5912
 5645SOL    HW217835   0.258   0.326   5.322 -0.3564 -1.2833  0.8557
 5646SOL     OW17836   0.355   0.623   1.813 -0.4769  0.8422 -0.0273
 5646SOL    HW117837   0.311   0.662   1.894 -0.2410  1.5686 -0.2399
 5646SOL    HW217838   0.385   0.697   1.753  0.2596  0.3385 -0.2918
 5647SOL     OW17839   0.145   2.232   0.936  0.2781 -0.3805  0.1532
 5647SOL    HW117840   0.112   2.250   1.029 -1.2504  1.4315 -0.6549
 5647SOL    HW217841   0.243   2.250   0.931  0.2301  0.2743  1.2338
 5648SOL     OW17842   1.534   2.931   5.760 -0.6077  0.0581  0.0145
 5648SOL    HW117843   1.490   2.844   5.736  0.7623 -0.5580 -0.3223
 5648SOL    HW217844   1.566   2.977   5.677  2.1408 -1.0050  0.3956
 5649SOL     OW17845   6.749   0.093   5.128  0.1277  0.0836  0.4851
 5649SOL    HW117846   6.819   0.165   5.130  0.6096 -0.3510 -0.3488
 5649SOL    HW217847   6.773   0.024   5.060 -2.3731  1.2145 -1.7452
 5650SOL     OW17848   0.005   3.137   5.991 -0.4867 -0.6921  0.2225
 5650SOL    HW117849   0.066   3.136   6.070  0.1004 -1.0660 -0.2276
 5650SOL    HW217850   0.044   3.194   5.919 -0.8693 -0.6051  0.0790
 5651SOL     OW17851   5.127   6.929   2.361  0.5369 -0.9207  0.4464
 5651SOL    HW117852   5.204   6.993   2.363  0.0577 -0.3428  1.0988
 5651SOL    HW217853   5.057   6.959   2.427 -0.5228 -1.0788 -0.5615
 5652SOL     OW17854   5.263   6.104   1.153  0.1417 -0.1854  0.3109
 5652SOL    HW117855   5.200   6.138   1.222 -2.3380 -2.6079 -0.6022
 5652SOL    HW217856   5.321   6.032   1.192  0.2703 -0.0364  0.3970
 5653SOL     OW17857   0.854   6.648   5.771 -0.0689 -0.4439  0.3437
 5653SOL    HW117858   0.917   6.711   5.726  0.3706 -0.8668  0.3654
 5653SOL    HW217859   0.772   6.637   5.714 -0.8062  1.2798  1.0240
 5654SOL     OW17860   4.044   0.466   1.327  0.2089 -0.2228 -0.5065
 5654SOL    HW117861   3.975   0.538   1.331  0.1178 -0.3566  1.0492
 5654SOL    HW217862   4.072   0.452   1.232 -0.5205  1.1344 -0.9537
 5655SOL     OW17863   4.585   4.911   2.278 -0.0170 -0.2622 -0.2545
 5655SOL    HW117864   4.669   4.934   2.328 -0.9685 -0.4828  1.5061
 5655SOL    HW217865   4.609   4.889   2.183  1.9826 -0.7756  0.2994
 5656SOL     OW17866   4.696   4.768   6.610 -0.3944  0.6493  0.9175
 5656SOL    HW117867   4.761   4.719   6.553 -2.0264 -2.1899  1.3115
 5656SOL    HW217868   4.603   4.737   6.590 -1.4595  2.9371  1.9202
 5657SOL     OW17869   6.520   4.513   1.245  0.3617 -0.0891  0.5479
 5657SOL    HW117870   6.564   4.503   1.155  0.5082  0.1126  0.5974
 5657SOL    HW217871   6.434   4.462   1.245  0.4821 -0.2950  0.3740
 5658SOL     OW17872   6.394   1.045   5.131  0.1666 -0.4233  0.1164
 5658SOL    HW117873   6.307   0.997   5.115  1.3489 -2.2856 -1.1409
 5658SOL    HW217874   6.388   1.138   5.093 -0.6078 -1.2497 -1.9288
 5659SOL     OW17875   3.012   2.834   1.633 -0.0242 -0.4489 -0.1673
 5659SOL    HW117876   3.030   2.933   1.629  3.2674 -0.9256 -0.2646
 5659SOL    HW217877   3.046   2.798   1.719  0.5746 -1.7472 -0.9187
 5660SOL     OW17878   6.745   4.097   3.530 -0.6979 -0.6067  0.0268
 5660SOL    HW117879   6.803   4.141   3.598 -0.4070 -0.8499 -0.0593
 5660SOL    HW217880   6.723   4.163   3.458 -1.4181 -0.2105  0.6069
 5661SOL     OW17881   4.818   5.977   4.681  0.1695 -0.1328  0.4984
 5661SOL    HW117882   4.884   5.906   4.656  1.5242  1.2055  0.1149
 5661SOL    HW217883   4.856   6.035   4.753 -0.0855  1.3570 -0.5067
 5662SOL     OW17884   6.864   4.070   5.930 -0.3861 -0.4555  0.1612
 5662SOL    HW117885   6.884   3.981   5.971  0.3927  0.0052  0.8091
 5662SOL    HW217886   6.932   4.090   5.859  0.7025  0.5069  1.4254
 5663SOL     OW17887   2.520   3.612   0.545 -0.3538  0.7480 -0.1266
 5663SOL    HW117888   2.451   3.600   0.474 -0.5698  1.0093  0.0373
 5663SOL    HW217889   2.475   3.619   0.634 -0.0753  0.2666  0.0544
 5664SOL     OW17890   4.971   0.211   1.619  0.4574 -0.0159 -0.0176
 5664SOL    HW117891   5.065   0.246   1.622  0.1709  0.8053 -0.2156
 5664SOL    HW217892   4.917   0.255   1.691  0.4337 -1.1571  0.6810
 5665SOL     OW17893   1.807   0.780   4.250  0.3963  1.3156  0.0099
 5665SOL    HW117894   1.810   0.693   4.298 -0.2471  1.0256 -0.4554
 5665SOL    HW217895   1.829   0.854   4.314  1.3304  0.7903  0.3160
 5666SOL     OW17896   3.942   6.373   5.249 -0.2736  0.2610 -0.4891
 5666SOL    HW117897   3.851   6.378   5.289 -0.7999  0.8035 -1.6814
 5666SOL    HW217898   3.990   6.459   5.264 -1.1724  1.1849 -2.5294
 5667SOL     OW17899   0.309   4.979   3.266 -0.5787  0.4588 -0.0099
 5667SOL    HW117900   0.362   4.897   3.286 -1.5444 -0.3253 -0.6177
 5667SOL    HW217901   0.337   5.052   3.328  2.3541  0.5950 -1.2944
 5668SOL     OW17902   5.396   2.182   6.200  0.1475  1.0001  0.3093
 5668SOL    HW117903   5.492   2.209   6.197  0.5119 -0.3065 -1.5242
 5668SOL    HW217904   5.380   2.123   6.279  0.6446  1.9002  1.0953
 5669SOL     OW17905   2.215   0.915   0.093 -0.1173 -0.3855 -0.5898
 5669SOL    HW117906   2.209   0.982   0.018  1.5346  1.6044  0.9354
 5669SOL    HW217907   2.152   0.941   0.166  2.2380  1.0952  1.0708
 5670SOL     OW17908   0.820   3.520   3.794 -0.1617 -0.4015 -0.1664
 5670SOL    HW117909   0.844   3.567   3.710  0.1700 -0.0537  0.1175
 5670SOL    HW217910   0.767   3.581   3.853 -3.0528 -1.6000 -1.3687
 5671SOL     OW17911   5.508   2.430   5.467 -0.2451  0.0080 -0.0880
 5671SOL    HW117912   5.413   2.416   5.497  0.3562 -1.5918  1.1542
 5671SOL    HW217913   5.509   2.444   5.368 -1.6821 -1.1019 -0.2939
 5672SOL     OW17914   3.385   3.916   5.604  0.3715  0.4634 -0.1568
 5672SOL    HW117915   3.369   3.969   5.520 -2.8469 -1.1635 -0.7255
 5672SOL    HW217916   3.351   3.967   5.682 -1.3641 -0.0742 -0.5238
 5673SOL     OW17917   3.351   6.129   0.961 -0.1837  0.0300 -0.3652
 5673SOL    HW117918   3.305   6.052   1.006 -0.3149 -0.5188 -1.4030
 5673SOL    HW217919   3.315   6.140   0.869  0.8786  0.4031 -0.7525
 5674SOL     OW17920   0.580   2.495   1.138 -0.3833 -0.1412  0.4353
 5674SOL    HW117921   0.500   2.451   1.179  0.1675 -1.6091 -0.0421
 5674SOL    HW217922   0.593   2.462   1.045  0.7235  0.1707  0.4681
 5675SOL     OW17923   4.416   1.919   4.586 -0.0091  0.1812  0.5399
 5675SOL    HW117924   4.395   2.017   4.581 -2.7826 -0.3721 -0.0945
 5675SOL    HW217925   4.457   1.889   4.500  1.5050  0.8587  0.9819
 5676SOL     OW17926   1.351   4.573   4.915 -0.0624 -0.4109 -0.0510
 5676SOL    HW117927   1.355   4.650   4.978 -0.2659 -0.5410  0.1224
 5676SOL    HW217928   1.424   4.508   4.937  1.5473  0.7739 -1.5881
 5677SOL     OW17929   0.869   1.964   2.355 -0.0020 -0.5374  0.2430
 5677SOL    HW117930   0.775   1.997   2.354 -0.1908 -1.0609  0.3612
 5677SOL    HW217931   0.932   2.040   2.339 -0.5853 -0.6719 -4.0078
 5678SOL     OW17932   6.210   0.587   4.048  0.0086 -0.0739 -0.1327
 5678SOL    HW117933   6.303   0.622   4.033  0.0018  0.1470  0.3237
 5678SOL    HW217934   6.179   0.540   3.965 -0.1583  1.3930 -0.9517
 5679SOL     OW17935   4.278   4.761   6.040 -0.6636  0.2758  0.3353
 5679SOL    HW117936   4.308   4.777   5.946 -1.3133  0.2970  0.1324
 5679SOL    HW217937   4.287   4.663   6.061 -1.7569  0.0448 -0.1905
 5680SOL     OW17938   0.787   6.643   6.668  0.4946  0.2182 -0.1275
 5680SOL    HW117939   0.805   6.697   6.751 -3.3038  1.0578  0.3504
 5680SOL    HW217940   0.749   6.554   6.694  0.3504  0.0358 -0.9490
 5681SOL     OW17941   1.571   3.123   6.924  0.5662  0.4814 -0.6031
 5681SOL    HW117942   1.547   3.030   6.896  0.8998 -0.1634  1.1664
 5681SOL    HW217943   1.555   3.134   7.022  1.3047  2.0525 -0.6287
 5682SOL     OW17944   6.907   5.687   3.909  0.4047  0.1386  0.0435
 5682SOL    HW117945   6.841   5.762   3.911  0.9874  0.6442  0.4815
 5682SOL    HW217946   6.981   5.710   3.845  0.1424 -0.4452 -0.4792
 5683SOL     OW17947   3.162   3.578   4.504  0.3097 -0.0787  0.0015
 5683SOL    HW117948   3.181   3.673   4.532  1.6036 -0.1789 -0.4701
 5683SOL    HW217949   3.229   3.550   4.435  0.8777 -1.8327  1.2156
 5684SOL     OW17950   2.911   3.864   1.267  0.2565  0.4304 -0.0006
 5684SOL    HW117951   2.914   3.783   1.209 -0.0601 -0.4537  1.1904
 5684SOL    HW217952   2.995   3.872   1.320  0.7239  1.4714 -0.8682
 5685SOL     OW17953   5.336   0.923   3.227  0.0832 -0.2434  0.2322
 5685SOL    HW117954   5.354   1.012   3.266  1.0163 -0.3215 -0.0081
 5685SOL    HW217955   5.335   0.929   3.127  2.4006 -0.8821  0.1195
 5686SOL     OW17956   3.480   3.573   4.794 -0.3136  0.2686  0.1512
 5686SOL    HW117957   3.422   3.516   4.734  2.0086 -0.4048 -1.6156
 5686SOL    HW217958   3.474   3.668   4.764 -1.3922  0.4103  0.7615
 5687SOL     OW17959   6.836   5.247   5.375 -0.1335  0.3070  0.0927
 5687SOL    HW117960   6.821   5.203   5.286 -0.7883  1.1091 -0.2079
 5687SOL    HW217961   6.912   5.311   5.368 -0.8892  1.1943 -0.2083
 5688SOL     OW17962   5.073   6.757   2.175 -0.2375 -0.0708  0.0170
 5688SOL    HW117963   4.975   6.744   2.158 -0.6245  1.9736  0.3489
 5688SOL    HW217964   5.085   6.824   2.249  1.3938  0.9266 -1.0858
 5689SOL     OW17965   4.663   3.840   5.979 -0.5497  0.1502 -0.0151
 5689SOL    HW117966   4.586   3.789   6.017 -0.1542 -0.2034  0.3204
 5689SOL    HW217967   4.726   3.777   5.934  1.0053  0.0118  2.1988
 5690SOL     OW17968   2.224   6.482   2.740 -0.2516 -0.9460 -0.1825
 5690SOL    HW117969   2.217   6.495   2.839  2.3421  0.0544 -0.0426
 5690SOL    HW217970   2.133   6.464   2.702 -1.7364  1.2427  2.0179
 5691SOL     OW17971   3.792   6.658   3.100 -0.4748 -0.0456 -0.2299
 5691SOL    HW117972   3.834   6.569   3.114 -2.7924 -1.1135  0.4042
 5691SOL    HW217973   3.821   6.721   3.172  0.8603 -0.3826 -0.4473
 5692SOL     OW17974   6.609   2.329   0.826 -0.3069  0.6943  0.1536
 5692SOL    HW117975   6.609   2.305   0.923  2.1970  0.5406  0.1819
 5692SOL    HW217976   6.665   2.411   0.812  0.6441 -0.1636 -1.3310
 5693SOL     OW17977   3.764   4.880   3.270 -0.2444  0.2811 -0.3817
 5693SOL    HW117978   3.715   4.920   3.347 -0.1327 -2.8117  1.4582
 5693SOL    HW217979   3.862   4.885   3.287 -0.0129  2.4416 -1.9445
 5694SOL     OW17980   0.597   4.395   5.525 -0.3695 -0.2798  0.8343
 5694SOL    HW117981   0.566   4.484   5.491  1.1372  0.1610  0.5535
 5694SOL    HW217982   0.622   4.337   5.447 -2.6922 -1.5325  0.9137
 5695SOL     OW17983   1.293   3.959   3.086  0.1278  0.3199 -0.3171
 5695SOL    HW117984   1.375   4.009   3.057 -0.9502 -0.2267 -5.1092
 5695SOL    HW217985   1.303   3.862   3.065 -1.1554 -0.0402  0.5901
 5696SOL     OW17986   2.401   2.309   6.911 -0.4072 -0.3342  0.3694
 5696SOL    HW117987   2.466   2.383   6.895  0.6576 -0.9010  1.8415
 5696SOL    HW217988   2.430   2.227   6.863  0.5302 -0.8631  1.7978
 5697SOL     OW17989   1.264   2.993   1.112 -0.2553  0.5687 -0.4717
 5697SOL    HW117990   1.264   2.899   1.147 -1.6867  0.4635 -0.6942
 5697SOL    HW217991   1.333   3.046   1.160 -0.1005 -0.3491  0.3576
 5698SOL     OW17992   1.605   5.198   3.909  0.7906  0.6287  0.0182
 5698SOL    HW117993   1.572   5.190   4.003  1.0163 -0.1206  0.0319
 5698SOL    HW217994   1.700   5.230   3.909  0.8291  0.5116  0.0423
 5699SOL     OW17995   0.699   2.237   5.242  0.0616 -0.1184 -0.1979
 5699SOL    HW117996   0.744   2.150   5.223  1.0381  0.0630  1.1232
 5699SOL    HW217997   0.603   2.221   5.266 -0.2119 -0.6518 -1.5702
 5700SOL     OW17998   1.074   4.667   4.596 -0.4611 -0.2057 -0.3770
 5700SOL    HW117999   1.077   4.590   4.660 -0.6357  0.9845  1.1181
 5700SOL    HW218000   1.017   4.740   4.634  0.6302  1.1374 -1.2233
 5701SOL     OW18001   4.842   2.239   3.229  0.2755 -0.4061  0.4475
 5701SOL    HW118002   4.880   2.228   3.321  1.4359 -0.0014  0.0293
 5701SOL    HW218003   4.772   2.310   3.231  1.8305  1.1898  0.6283
 5702SOL     OW18004   4.567   0.728   0.915 -0.0168  0.3159 -0.1548
 5702SOL    HW118005   4.636   0.668   0.875  0.6071 -0.2406  1.6679
 5702SOL    HW218006   4.521   0.681   0.989 -2.0170  0.8850 -0.9724
 5703SOL     OW18007   3.770   6.436   2.529 -0.1568 -0.0522 -0.3900
 5703SOL    HW118008   3.858   6.484   2.530 -0.2195  0.0699 -0.5548
 5703SOL    HW218009   3.777   6.352   2.584  0.3626 -0.5627 -1.1975
 5704SOL     OW18010   5.011   5.156   2.695  0.5531  0.1237 -0.0459
 5704SOL    HW118011   5.055   5.161   2.606  0.5129  0.1713 -0.0631
 5704SOL    HW218012   5.028   5.240   2.746 -1.6047  1.2398 -1.0342
 5705SOL     OW18013   6.118   0.919   4.446 -0.4516  0.1279  0.4451
 5705SOL    HW118014   6.076   1.000   4.488  1.1895  0.7792  0.9086
 5705SOL    HW218015   6.212   0.940   4.419 -0.1335 -1.4989  0.1768
 5706SOL     OW18016   2.833   1.112   5.600 -0.0758 -0.2902  0.4426
 5706SOL    HW118017   2.783   1.099   5.686 -1.1473  1.8035  0.1951
 5706SOL    HW218018   2.927   1.081   5.612 -0.8251 -2.3583  1.5684
 5707SOL     OW18019   4.946   6.733   1.458  0.0121 -0.0115 -0.2704
 5707SOL    HW118020   4.949   6.650   1.515  1.6735  0.9569  1.1533
 5707SOL    HW218021   4.905   6.808   1.510 -1.9848  0.0135 -1.7344
 5708SOL     OW18022   1.717   6.587   0.480  0.3499  0.3497 -0.3104
 5708SOL    HW118023   1.754   6.497   0.504 -0.7621 -0.3607 -1.1934
 5708SOL    HW218024   1.700   6.591   0.382 -0.1744  1.3152 -0.1886
 5709SOL     OW18025   0.903   2.219   1.473  0.3418 -0.4013 -0.5881
 5709SOL    HW118026   0.877   2.307   1.515  2.0401 -0.5190  0.8401
 5709SOL    HW218027   0.846   2.202   1.393 -3.4810 -0.3807  1.8696
 5710SOL     OW18028   3.798   4.899   4.806  0.2284  0.3034  0.0948
 5710SOL    HW118029   3.888   4.883   4.766  1.0867  2.3632  1.0730
 5710SOL    HW218030   3.808   4.945   4.894 -1.7505 -0.7832  0.9679
 5711SOL     OW18031   6.530   2.130   2.467  0.1016 -0.5143 -0.5330
 5711SOL    HW118032   6.446   2.102   2.420 -1.1137  0.5124  0.9534
 5711SOL    HW218033   6.582   2.192   2.408  0.3256 -1.8447 -1.8251
 5712SOL     OW18034   3.624   6.786   0.143  0.5437  0.2914  0.3056
 5712SOL    HW118035   3.663   6.877   0.157 -0.1700  0.6793 -0.1411
 5712SOL    HW218036   3.550   6.792   0.076 -0.7830 -0.2855  1.6625
 5713SOL     OW18037   0.594   3.817   2.060 -0.1865  0.0245 -0.5691
 5713SOL    HW118038   0.654   3.873   2.004 -0.8086 -0.8411 -2.1680
 5713SOL    HW218039   0.500   3.849   2.052 -0.2280  0.1988  0.4117
 5714SOL     OW18040   0.426   1.573   6.429 -0.2837 -0.0020 -0.1513
 5714SOL    HW118041   0.453   1.669   6.431 -2.4860  0.6621  0.8902
 5714SOL    HW218042   0.453   1.532   6.342  2.0467  1.1005 -0.0216
 5715SOL     OW18043   0.566   6.121   5.006 -0.1479 -0.2762 -0.2250
 5715SOL    HW118044   0.479   6.169   5.020 -0.4017 -0.9462  0.6079
 5715SOL    HW218045   0.631   6.182   4.961 -0.4916  0.8130  0.7076
 5716SOL     OW18046   1.571   3.380   4.421 -0.0228  0.2949 -0.1115
 5716SOL    HW118047   1.560   3.281   4.419  1.7682  0.0585 -0.7129
 5716SOL    HW218048   1.601   3.408   4.513  4.0203 -0.4087 -1.0180
 5717SOL     OW18049   6.315   4.955   5.074  0.7419  0.2006  0.7300
 5717SOL    HW118050   6.252   5.013   5.022  1.4650 -0.3178 -0.7828
 5717SOL    HW218051   6.335   4.998   5.162 -1.9131  0.2478  1.3900
 5718SOL     OW18052   1.340   6.931   5.549  0.9672  0.0655  0.2346
 5718SOL    HW118053   1.275   6.977   5.487 -1.5089 -3.8181 -0.3699
 5718SOL    HW218054   1.418   6.897   5.496 -0.3806 -1.8851 -0.6033
 5719SOL     OW18055   2.510   1.958   6.429  0.7298 -0.3286  0.9009
 5719SOL    HW118056   2.580   1.970   6.358 -0.9057  0.9020 -0.5747
 5719SOL    HW218057   2.465   2.046   6.447 -1.4844 -1.3614  0.6714
 5720SOL     OW18058   1.656   5.886   1.682  0.2361  0.3499 -0.1035
 5720SOL    HW118059   1.709   5.968   1.704  0.9486 -0.3126  0.6936
 5720SOL    HW218060   1.717   5.808   1.671 -0.3179  0.1286 -2.0662
 5721SOL     OW18061   4.946   5.468   0.259 -0.0803  0.0701  0.1980
 5721SOL    HW118062   4.909   5.498   0.347 -1.1162  0.2335 -0.2773
 5721SOL    HW218063   4.980   5.374   0.268  0.9403  0.4884  1.0640
 5722SOL     OW18064   4.587   0.172   3.138  0.2650 -0.2112  1.2405
 5722SOL    HW118065   4.487   0.178   3.136  0.2757 -0.2044 -0.3017
 5722SOL    HW218066   4.615   0.091   3.190 -0.5924 -1.1397  0.2921
 5723SOL     OW18067   6.501   4.800   0.415  0.2184  0.1663  0.0638
 5723SOL    HW118068   6.415   4.845   0.392  0.4537  1.5825  1.7443
 5723SOL    HW218069   6.482   4.708   0.451 -0.3994 -0.3659 -1.5187
 5724SOL     OW18070   4.825   2.947   4.919  0.4567  0.7851 -0.2201
 5724SOL    HW118071   4.843   2.989   5.008  0.5722  2.5309 -1.0295
 5724SOL    HW218072   4.823   3.018   4.848  2.5553 -0.7673 -1.9626
 5725SOL     OW18073   0.684   0.860   6.500 -0.5366 -0.0535 -0.2076
 5725SOL    HW118074   0.659   0.863   6.403 -1.4367  0.3043  0.0160
 5725SOL    HW218075   0.732   0.775   6.520 -0.9390 -0.4387 -0.8408
 5726SOL     OW18076   3.720   6.311   4.766  0.8218 -0.7522  0.0842
 5726SOL    HW118077   3.680   6.322   4.675  1.5594 -0.5881 -0.2247
 5726SOL    HW218078   3.814   6.345   4.766  1.1456 -1.6020  0.6712
 5727SOL     OW18079   6.647   4.137   5.795 -0.0155  0.4439 -0.0440
 5727SOL    HW118080   6.733   4.142   5.847  0.1067 -0.4816 -0.1567
 5727SOL    HW218081   6.573   4.173   5.852  0.5974  2.3486 -0.3457
 5728SOL     OW18082   4.657   6.270   4.855  0.3889 -0.5033  0.0386
 5728SOL    HW118083   4.603   6.219   4.788  4.2245 -2.0607 -2.1923
 5728SOL    HW218084   4.628   6.365   4.856 -2.1744 -1.1808 -1.0771
 5729SOL     OW18085   4.793   1.086   3.488 -0.2395  0.3969 -0.1312
 5729SOL    HW118086   4.697   1.059   3.492  0.3158 -1.6960  0.8648
 5729SOL    HW218087   4.830   1.062   3.398 -0.5641  0.9523 -0.4188
 5730SOL     OW18088   2.936   6.145   1.218 -0.5572  0.1230 -0.8784
 5730SOL    HW118089   3.002   6.109   1.285 -0.3816 -0.1108 -1.1751
 5730SOL    HW218090   2.883   6.070   1.180 -1.0811  0.3223 -0.5601
 5731SOL     OW18091   5.140   2.067   4.932 -0.1005 -0.4263  0.2380
 5731SOL    HW118092   5.058   2.027   4.972 -0.5660 -0.4731 -0.7529
 5731SOL    HW218093   5.219   2.009   4.953 -0.2507 -0.2321  1.4331
 5732SOL     OW18094   5.804   2.929   6.264  0.1771 -0.2696  0.2091
 5732SOL    HW118095   5.746   3.008   6.284  0.3178 -0.5437  1.8137
 5732SOL    HW218096   5.856   2.946   6.180  1.0169  1.8004  1.0808
 5733SOL     OW18097   1.899   4.697   0.824 -0.4068 -0.0138 -0.4677
 5733SOL    HW118098   1.930   4.636   0.751 -0.7228  0.0160 -0.6308
 5733SOL    HW218099   1.911   4.652   0.912 -1.8159 -0.8492 -0.6639
 5734SOL     OW18100   2.358   0.841   6.518 -0.3285  0.0911  0.2079
 5734SOL    HW118101   2.376   0.744   6.534 -1.0698  0.1413  1.4750
 5734SOL    HW218102   2.439   0.884   6.478 -0.3798 -1.2653 -1.4725
 5735SOL     OW18103   5.749   5.691   6.980 -0.2783 -0.0595 -0.0543
 5735SOL    HW118104   5.739   5.631   7.059  0.3560  1.0287  0.8929
 5735SOL    HW218105   5.834   5.670   6.931 -0.4641 -0.4573 -0.2088
 5736SOL     OW18106   4.242   2.952   5.672 -0.3320 -0.1246  0.2464
 5736SOL    HW118107   4.308   3.019   5.639 -1.0917 -0.3900 -2.0041
 5736SOL    HW218108   4.165   2.999   5.714 -0.0786  0.3308  0.2117
 5737SOL     OW18109   3.926   5.212   2.774 -0.2137  0.1016 -0.5720
 5737SOL    HW118110   3.901   5.120   2.744  1.9929 -0.1303 -1.9406
 5737SOL    HW218111   3.908   5.277   2.700 -1.9507  0.8481  0.4591
 5738SOL     OW18112   2.663   1.797   1.244  0.1831 -0.1946 -0.0571
 5738SOL    HW118113   2.565   1.777   1.242  0.5636 -2.3762 -2.2223
 5738SOL    HW218114   2.695   1.816   1.151  1.8531  0.3792  0.5895
 5739SOL     OW18115   0.954   0.032   6.562 -0.1130 -0.4464  0.2035
 5739SOL    HW118116   0.953   0.072   6.470  2.7184 -0.1224  0.2314
 5739SOL    HW218117   0.908   0.095   6.625 -2.4374 -0.8380 -0.9533
 5740SOL     OW18118   6.613   1.528   1.851  0.7647  0.1373 -0.0017
 5740SOL    HW118119   6.682   1.586   1.895 -0.9701  1.9797  0.4154
 5740SOL    HW218120   6.615   1.543   1.752  0.0483  1.3079  0.1361
 5741SOL     OW18121   1.423   4.133   5.074 -0.1993  0.1453 -0.1808
 5741SOL    HW118122   1.515   4.120   5.111  0.4415 -0.2016 -1.8146
 5741SOL    HW218123   1.356   4.116   5.146  0.9724 -0.8432  0.7225
 5742SOL     OW18124   5.074   4.518   1.862 -0.4280 -0.4997  0.2032
 5742SOL    HW118125   4.979   4.530   1.834 -0.1235 -0.0599 -0.6599
 5742SOL    HW218126   5.120   4.607   1.865  0.0107 -0.7279  0.4172
 5743SOL     OW18127   2.741   6.667   4.310 -0.5219 -0.3444 -0.5678
 5743SOL    HW118128   2.690   6.752   4.322  1.5923  1.0247 -0.6229
 5743SOL    HW218129   2.679   6.589   4.315 -2.2984  1.0976  1.1987
 5744SOL     OW18130   5.818   6.089   4.150  0.4333 -0.8767  0.0002
 5744SOL    HW118131   5.785   6.124   4.062 -1.0204  1.1040  1.2525
 5744SOL    HW218132   5.853   5.997   4.137 -0.8662 -1.1303 -2.4417
 5745SOL     OW18133   1.723   2.822   3.709 -0.3833  0.1734 -0.4491
 5745SOL    HW118134   1.814   2.858   3.692 -0.6987  0.3277 -1.9391
 5745SOL    HW218135   1.676   2.881   3.775  0.3827  0.4183 -0.1087
 5746SOL     OW18136   5.204   3.979   2.974  0.3533  0.4619  0.0345
 5746SOL    HW118137   5.139   3.982   2.898  0.0069  0.7368  0.3350
 5746SOL    HW218138   5.284   4.034   2.952  0.5975 -0.0785 -0.4409
 5747SOL     OW18139   0.693   0.448   0.693 -0.0321  0.4158 -0.3752
 5747SOL    HW118140   0.791   0.462   0.703  0.0629 -0.7677  0.6502
 5747SOL    HW218141   0.660   0.497   0.613  1.6435 -0.2821 -1.5467
 5748SOL     OW18142   5.874   0.134   6.238 -0.1265  0.0512 -0.3877
 5748SOL    HW118143   5.821   0.134   6.323 -0.2439  0.6107 -0.4531
 5748SOL    HW218144   5.893   0.040   6.210 -0.5950 -0.1477 -0.0564
 5749SOL     OW18145   1.243   5.742   6.538  0.2053 -0.1202  0.0995
 5749SOL    HW118146   1.195   5.706   6.618 -1.5793  1.4689 -0.1642
 5749SOL    HW218147   1.187   5.728   6.457  3.1502 -4.1628 -1.4962
 5750SOL     OW18148   0.576   3.004   3.593  0.2446  0.4811  0.6510
 5750SOL    HW118149   0.659   2.957   3.621  0.9645  0.5208 -1.2789
 5750SOL    HW218150   0.594   3.102   3.583 -0.0030  0.4796  0.1374
 5751SOL     OW18151   6.607   2.301   4.721 -0.3458 -0.0674 -0.5705
 5751SOL    HW118152   6.698   2.272   4.691 -0.8344 -0.4081 -1.7404
 5751SOL    HW218153   6.540   2.285   4.648 -1.3842  0.0119  0.3362
 5752SOL     OW18154   3.990   3.013   6.075  0.2011 -0.4572  0.3832
 5752SOL    HW118155   3.899   2.971   6.068 -0.0649 -0.2041  1.9780
 5752SOL    HW218156   4.059   2.942   6.084  0.0560 -0.6203  0.2232
 5753SOL     OW18157   3.526   3.548   3.324  0.5922 -0.3933 -0.3250
 5753SOL    HW118158   3.443   3.536   3.380 -0.3929 -1.7882 -1.9557
 5753SOL    HW218159   3.586   3.469   3.337  1.2332  0.1673  0.1455
 5754SOL     OW18160   6.534   0.428   1.424  0.4301 -0.5175  0.5054
 5754SOL    HW118161   6.514   0.476   1.339  0.2343 -0.5797  0.5169
 5754SOL    HW218162   6.453   0.428   1.482  0.8220  0.3506  1.0902
 5755SOL     OW18163   1.066   3.917   0.839 -0.0290 -0.2771  0.2330
 5755SOL    HW118164   1.158   3.931   0.876 -0.4946  1.8588  0.7062
 5755SOL    HW218165   1.015   3.858   0.901  1.1177 -1.8437 -0.2519
 5756SOL     OW18166   5.970   1.548   3.305  0.5699  0.1047 -0.0321
 5756SOL    HW118167   6.023   1.502   3.233  0.7170 -0.6054  0.5205
 5756SOL    HW218168   5.956   1.644   3.280 -0.1398 -0.3314 -1.4499
 5757SOL     OW18169   2.952   1.227   4.602 -0.0809  0.2781 -0.3095
 5757SOL    HW118170   2.978   1.314   4.644 -1.2494  1.4494 -1.8951
 5757SOL    HW218171   2.971   1.229   4.504  2.4979 -2.3569  0.0018
 5758SOL     OW18172   6.208   5.698   0.350  0.0627  0.6274 -0.1327
 5758SOL    HW118173   6.153   5.725   0.429 -0.2327 -1.0846  0.2898
 5758SOL    HW218174   6.305   5.695   0.375  0.1715  1.8013 -0.3528
 5759SOL     OW18175   4.317   0.224   1.645 -0.7963  0.3337 -0.0688
 5759SOL    HW118176   4.302   0.250   1.741 -0.4959  1.2084 -0.2444
 5759SOL    HW218177   4.231   0.228   1.595 -1.1323 -1.0510  0.3635
 5760SOL     OW18178   6.223   2.934   5.867 -0.4388  0.6834 -0.0625
 5760SOL    HW118179   6.144   2.952   5.925 -1.0335  0.6648 -0.8564
 5760SOL    HW218180   6.304   2.979   5.906 -0.9085  1.0010  0.5591
 5761SOL     OW18181   6.744   1.821   5.394 -0.3796 -0.4619  0.0660
 5761SOL    HW118182   6.755   1.842   5.296 -1.0083 -0.3657  0.0143
 5761SOL    HW218183   6.649   1.796   5.413 -0.2382 -0.5842  0.6372
 5762SOL     OW18184   1.084   0.746   6.937  0.4365  0.0512 -0.1164
 5762SOL    HW118185   1.069   0.683   6.860  0.1944 -1.3405  1.0132
 5762SOL    HW218186   1.003   0.804   6.948  0.6577  0.5749 -1.1780
 5763SOL     OW18187   4.749   0.409   6.482 -0.2848  0.5584 -0.4052
 5763SOL    HW118188   4.656   0.441   6.466 -1.3393 -0.9850  2.0304
 5763SOL    HW218189   4.807   0.435   6.405 -2.0106  4.1033 -0.6987
 5764SOL     OW18190   2.480   6.389   5.839  0.0135 -0.7144  0.7476
 5764SOL    HW118191   2.550   6.412   5.771 -0.8100 -0.1882  0.0560
 5764SOL    HW218192   2.505   6.304   5.886  1.6672  0.0175  1.2932
 5765SOL     OW18193   5.202   1.901   2.765  0.0252 -0.0789 -0.3755
 5765SOL    HW118194   5.237   1.880   2.674  1.2082 -2.7883  0.6042
 5765SOL    HW218195   5.129   1.836   2.789  0.9517 -0.5752  1.2484
 5766SOL     OW18196   0.486   6.141   4.595 -0.2129  0.2437  0.2073
 5766SOL    HW118197   0.431   6.193   4.661 -0.4245  1.0246 -0.5612
 5766SOL    HW218198   0.427   6.110   4.520  0.2078  0.2553 -0.1320
 5767SOL     OW18199   0.507   0.881   2.080  0.1242 -0.4038  0.1010
 5767SOL    HW118200   0.534   0.785   2.081 -0.1545 -0.4942 -0.3734
 5767SOL    HW218201   0.505   0.914   1.985 -0.0213 -0.0017  0.2404
 5768SOL     OW18202   1.807   0.254   3.353  0.4846 -0.2211 -0.2209
 5768SOL    HW118203   1.756   0.169   3.341  1.4739 -1.0636  1.2380
 5768SOL    HW218204   1.782   0.295   3.442  2.0575 -0.4769  0.3675
 5769SOL     OW18205   0.307   1.495   5.049 -0.3669 -0.3295 -0.0363
 5769SOL    HW118206   0.255   1.495   4.964  0.1613  1.2057 -0.3866
 5769SOL    HW218207   0.382   1.560   5.042  0.4363 -1.0846  1.1672
 5770SOL     OW18208   1.135   2.007   2.137  0.6771 -0.4389  0.1554
 5770SOL    HW118209   1.150   1.925   2.191  0.4710 -1.3766 -1.1595
 5770SOL    HW218210   1.070   1.988   2.063 -0.0846  1.1566  0.3685
 5771SOL     OW18211   4.349   0.024   3.151 -0.0927 -0.2243 -0.6359
 5771SOL    HW118212   4.317   0.085   3.223  0.0359  0.0177 -0.7800
 5771SOL    HW218213   4.297   0.040   3.067 -0.3708 -0.6398 -0.5439
 5772SOL     OW18214   3.545   1.197   2.514  0.5388 -0.2015 -0.1116
 5772SOL    HW118215   3.509   1.104   2.502 -0.8109  0.4002 -1.0434
 5772SOL    HW218216   3.468   1.262   2.516  1.4280  0.8586  0.9921
 5773SOL     OW18217   6.577   1.272   3.411  0.8595  0.7361 -0.5696
 5773SOL    HW118218   6.575   1.199   3.343 -0.8687 -0.5754  0.7843
 5773SOL    HW218219   6.495   1.329   3.401  1.0977  1.1445 -0.2360
 5774SOL     OW18220   1.215   0.293   4.130 -0.7253 -0.2967 -0.1373
 5774SOL    HW118221   1.127   0.330   4.101 -0.2844  0.4680 -0.5315
 5774SOL    HW218222   1.230   0.314   4.226  0.2812  2.1684 -0.7484
 5775SOL     OW18223   0.331   4.693   1.685 -0.7036  0.3625 -0.0335
 5775SOL    HW118224   0.366   4.664   1.773 -0.6527 -2.1411 -0.7946
 5775SOL    HW218225   0.258   4.630   1.656 -0.7480  1.1452 -1.7503
 5776SOL     OW18226   4.874   1.383   3.926 -0.1600  0.0182 -0.2521
 5776SOL    HW118227   4.804   1.312   3.934 -0.7573  0.7781  2.0920
 5776SOL    HW218228   4.937   1.376   4.004  0.4631  1.3347 -0.6083
 5777SOL     OW18229   0.388   1.446   0.599  0.6274 -0.3652  0.1843
 5777SOL    HW118230   0.465   1.391   0.631  1.6401 -0.0312 -1.5625
 5777SOL    HW218231   0.397   1.462   0.501 -0.9325  0.8779  0.2082
 5778SOL     OW18232   6.846   0.675   0.627 -0.0564 -0.6526 -0.1703
 5778SOL    HW118233   6.940   0.656   0.654 -0.3103 -1.2269  0.3192
 5778SOL    HW218234   6.846   0.741   0.551  0.7256 -0.4556 -0.0082
 5779SOL     OW18235   5.201   1.307   2.268 -0.0716  0.4580  0.3993
 5779SOL    HW118236   5.197   1.209   2.247 -0.1721  0.4500  0.4532
 5779SOL    HW218237   5.288   1.328   2.312  0.2815  0.5370 -0.3310
 5780SOL     OW18238   6.137   4.178   5.183 -0.2537 -0.4069 -0.1738
 5780SOL    HW118239   6.225   4.194   5.227 -0.0853 -0.8647 -0.3398
 5780SOL    HW218240   6.110   4.082   5.195 -0.8427 -0.2198  0.0785
 5781SOL     OW18241   6.369   4.180   6.922  0.5538 -0.0110  0.0769
 5781SOL    HW118242   6.394   4.220   6.834  0.7345 -0.5846 -0.1330
 5781SOL    HW218243   6.271   4.160   6.923  0.0740  2.0392  0.8204
 5782SOL     OW18244   3.088   2.245   1.423 -0.0014 -0.0977 -0.0862
 5782SOL    HW118245   3.183   2.267   1.445  0.5716 -0.7899 -1.7353
 5782SOL    HW218246   3.036   2.329   1.407  0.2916  0.2845  0.9058
 5783SOL     OW18247   1.758   1.581   6.733 -0.3130 -0.1269 -0.6333
 5783SOL    HW118248   1.668   1.559   6.695 -0.5662  0.1814 -0.2200
 5783SOL    HW218249   1.825   1.515   6.700 -0.7172 -0.4390 -0.8370
 5784SOL     OW18250   6.823   3.620   2.003 -0.1279 -0.1415  0.0238
 5784SOL    HW118251   6.861   3.530   1.981  1.3052  0.1333  1.2014
 5784SOL    HW218252   6.744   3.609   2.064  1.4015 -0.5834  2.0294
 5785SOL     OW18253   1.384   0.009   1.868 -0.5492 -0.1191  0.0725
 5785SOL    HW118254   1.351   0.089   1.917  0.4124  0.8533 -0.8367
 5785SOL    HW218255   1.423   0.036   1.780  0.6124 -1.4562  0.1232
 5786SOL     OW18256   4.510   4.765   1.731  0.1881 -0.4905  0.3869
 5786SOL    HW118257   4.598   4.734   1.693 -0.4220 -2.0208  0.1607
 5786SOL    HW218258   4.489   4.712   1.813 -0.5293 -0.1454  0.4294
 5787SOL     OW18259   2.539   3.144   5.974  0.2667  0.2618 -0.1273
 5787SOL    HW118260   2.630   3.186   5.973  1.1854 -1.6041 -1.5638
 5787SOL    HW218261   2.509   3.127   5.880  0.6306 -3.5226  0.2798
 5788SOL     OW18262   2.788   1.177   3.512  0.1906  0.2493  0.4262
 5788SOL    HW118263   2.770   1.161   3.609  0.7528 -0.7455  0.3718
 5788SOL    HW218264   2.828   1.268   3.500  1.8768 -0.3427  1.3529
 5789SOL     OW18265   1.734   7.004   6.851 -0.5603  0.0223 -0.9465
 5789SOL    HW118266   1.748   6.963   6.761 -1.6275  0.9279 -1.5388
 5789SOL    HW218267   1.812   7.062   6.874  2.1693 -3.8876  0.8971
 5790SOL     OW18268   1.185   4.021   4.114 -0.1265  0.6192  0.1230
 5790SOL    HW118269   1.150   4.066   4.196 -1.9794 -0.8178  0.1744
 5790SOL    HW218270   1.120   3.952   4.083  1.2133  0.1064 -1.7277
 5791SOL     OW18271   0.858   6.999   4.043  0.0433  0.9632  0.2750
 5791SOL    HW118272   0.836   7.067   3.973  0.4421 -0.4443 -1.2702
 5791SOL    HW218273   0.865   6.908   4.001  0.6530  0.1185  2.0890
 5792SOL     OW18274   2.324   2.252   3.987 -0.0388 -0.2457  0.0029
 5792SOL    HW118275   2.387   2.202   4.048 -0.1651 -1.5416 -0.9029
 5792SOL    HW218276   2.298   2.338   4.031  1.8876  0.0560  0.6737
 5793SOL     OW18277   1.024   1.956   6.708 -0.3365 -0.4376 -0.9972
 5793SOL    HW118278   0.981   2.038   6.746 -2.7524 -2.3237  0.6553
 5793SOL    HW218279   1.098   1.927   6.768  0.4065  0.3588 -1.4916
 5794SOL     OW18280   6.226   2.609   0.647  0.3415 -0.3967  0.1756
 5794SOL    HW118281   6.268   2.532   0.599  2.1796  0.8091 -0.2439
 5794SOL    HW218282   6.143   2.637   0.599  0.9152 -0.6555 -0.9851
 5795SOL     OW18283   1.868   3.432   0.602 -0.0389 -0.2647  0.2210
 5795SOL    HW118284   1.877   3.507   0.536  0.3941 -0.1856  0.3630
 5795SOL    HW218285   1.876   3.469   0.695 -2.1577 -0.1409  0.4108
 5796SOL     OW18286   0.304   0.177   6.548  0.2507 -0.1999  0.1211
 5796SOL    HW118287   0.335   0.092   6.503  1.7172  0.9963 -1.2452
 5796SOL    HW218288   0.344   0.255   6.501 -3.4738  1.4770 -0.6619
 5797SOL     OW18289   3.388   2.384   6.606 -0.1724  0.0700 -0.1079
 5797SOL    HW118290   3.428   2.387   6.697 -2.1920  2.1049  0.8126
 5797SOL    HW218291   3.306   2.327   6.607 -2.5253  3.1897  0.5247
 5798SOL     OW18292   0.060   3.889   3.556 -0.0845  0.0977 -0.0069
 5798SOL    HW118293   0.067   3.988   3.573 -0.0062  0.3503 -1.4074
 5798SOL    HW218294  -0.009   3.872   3.486  3.3663 -0.3053 -3.6837
 5799SOL     OW18295   6.014   1.276   4.662 -0.7147 -0.0378  0.1292
 5799SOL    HW118296   5.951   1.216   4.611 -0.5981  0.0498 -0.1205
 5799SOL    HW218297   6.041   1.353   4.604  0.0032 -0.3320  0.0645
 5800SOL     OW18298   0.026   4.983   5.350  0.0272 -0.2793  0.5071
 5800SOL    HW118299  -0.011   4.939   5.432  1.4280 -0.3372  1.1291
 5800SOL    HW218300   0.035   4.915   5.277  0.0683 -0.5272  0.7420
 5801SOL     OW18301   1.360   6.471   0.120 -0.3424 -0.3854 -0.3652
 5801SOL    HW118302   1.453   6.481   0.154 -0.3512 -1.8011  0.1127
 5801SOL    HW218303   1.358   6.408   0.043 -0.8665 -0.1060 -0.5929
 5802SOL     OW18304   0.770   2.852   4.773  0.5032 -0.4850  0.3698
 5802SOL    HW118305   0.671   2.853   4.779  0.5639  0.9253  1.7135
 5802SOL    HW218306   0.798   2.868   4.678 -0.5881  2.9341  0.4855
 5803SOL     OW18307   1.486   5.265   2.274 -0.2457  0.4430  0.1572
 5803SOL    HW118308   1.571   5.306   2.306 -0.2418 -0.9448  2.0842
 5803SOL    HW218309   1.442   5.215   2.349 -1.7547 -0.5477 -1.3094
 5804SOL     OW18310   6.963   2.081   5.816 -0.2318  0.1174 -0.0980
 5804SOL    HW118311   7.048   2.066   5.866  0.7856  1.9996 -1.1463
 5804SOL    HW218312   6.965   2.027   5.732 -0.5854 -0.7046  0.4155
 5805SOL     OW18313   4.961   3.024   5.396 -0.0354 -0.2002 -0.0612
 5805SOL    HW118314   4.910   3.009   5.480 -0.7203 -0.5726 -0.5325
 5805SOL    HW218315   4.936   2.954   5.329 -0.4544  0.8325 -1.0113
 5806SOL     OW18316   6.724   6.247   5.399  0.6094 -0.7931 -0.3817
 5806SOL    HW118317   6.705   6.178   5.329  0.2338 -0.1910 -0.8750
 5806SOL    HW218318   6.681   6.333   5.374 -0.2161 -0.7829  0.9979
 5807SOL     OW18319   1.950   3.934   1.828 -0.3892  0.7213 -0.6468
 5807SOL    HW118320   1.864   3.904   1.869 -0.0479 -2.6133 -2.0104
 5807SOL    HW218321   1.953   3.903   1.733  2.6473 -0.0776 -0.3941
 5808SOL     OW18322   1.646   2.750   3.094 -0.1959  0.3895 -0.3252
 5808SOL    HW118323   1.654   2.663   3.045 -1.7924 -2.0080  3.1837
 5808SOL    HW218324   1.591   2.814   3.040 -0.7639 -1.5232 -2.1637
 5809SOL     OW18325   0.862   4.181   4.239 -0.0599 -0.2060 -0.3776
 5809SOL    HW118326   0.815   4.151   4.322  1.1072 -1.1144 -0.0226
 5809SOL    HW218327   0.889   4.277   4.249 -1.2532  0.1368 -0.3364
 5810SOL     OW18328   3.704   1.496   3.132  0.1675 -0.5671  0.4251
 5810SOL    HW118329   3.775   1.434   3.098  0.1843 -0.3196  0.0066
 5810SOL    HW218330   3.614   1.460   3.109  0.1818  0.9798 -2.4411
 5811SOL     OW18331   1.878   0.071   1.465 -0.1589 -1.1399 -0.3240
 5811SOL    HW118332   1.791   0.064   1.416  0.6932 -0.1246 -2.0602
 5811SOL    HW218333   1.954   0.052   1.403  0.9529 -0.2301  0.6954
 5812SOL     OW18334   4.203   6.751   3.568 -0.0693  0.3127  0.2079
 5812SOL    HW118335   4.211   6.850   3.577  0.3918  0.3665 -0.6960
 5812SOL    HW218336   4.294   6.710   3.574 -0.2656 -0.0704  0.6606
 5813SOL     OW18337   5.783   2.032   3.096 -0.5492 -0.1785  0.2654
 5813SOL    HW118338   5.817   1.978   3.173 -0.1000  0.0313  0.2175
 5813SOL    HW218339   5.815   1.993   3.011 -1.9702 -1.0747  0.1081
 5814SOL     OW18340   0.301   3.944   2.048 -0.9386  0.4186  0.0599
 5814SOL    HW118341   0.304   3.994   1.961  0.9073 -1.4891 -1.0788
 5814SOL    HW218342   0.219   3.886   2.051 -0.5614 -0.1903 -0.8636
 5815SOL     OW18343   3.870   6.056   5.938 -0.4131 -0.2298 -0.2052
 5815SOL    HW118344   3.806   6.107   5.880 -1.1077  1.2312  1.7221
 5815SOL    HW218345   3.818   5.994   5.997 -0.1669  1.1727  1.5785
 5816SOL     OW18346   5.802   6.347   0.663 -0.1376 -0.2858  0.5632
 5816SOL    HW118347   5.800   6.418   0.734  1.4111  0.2303  0.1402
 5816SOL    HW218348   5.884   6.291   0.676  0.3233 -0.0026 -0.9710
 5817SOL     OW18349   0.552   2.248   0.095 -0.6441 -0.3377  0.0142
 5817SOL    HW118350   0.610   2.298   0.031  2.2503 -0.4652  2.3325
 5817SOL    HW218351   0.483   2.195   0.044 -1.0703  2.5578 -2.6779
 5818SOL     OW18352   0.604   5.964   6.770  0.3557  0.2162  0.0247
 5818SOL    HW118353   0.621   6.009   6.683 -0.3725  0.4488 -0.0073
 5818SOL    HW218354   0.623   6.027   6.845 -0.8372  0.6694 -0.0237
 5819SOL     OW18355   5.940   1.995   0.960  0.4517 -0.6332 -0.4969
 5819SOL    HW118356   6.032   2.020   0.988  0.1920 -0.1209 -0.0942
 5819SOL    HW218357   5.914   2.046   0.878  0.9918 -1.7045 -1.3627
 5820SOL     OW18358   5.365   4.598   1.979 -1.3101  1.2271 -0.3861
 5820SOL    HW118359   5.313   4.657   1.918 -2.2368 -0.2226 -1.0404
 5820SOL    HW218360   5.329   4.505   1.976  0.2037  0.5574  0.5001
 5821SOL     OW18361   2.738   1.180   2.913  0.2991  0.5484  0.1492
 5821SOL    HW118362   2.748   1.176   2.814 -0.6869  1.3331  0.0006
 5821SOL    HW218363   2.776   1.097   2.954  0.3310  0.0212 -0.9175
 5822SOL     OW18364   1.255   1.052   2.180  0.0406 -0.1679 -0.2746
 5822SOL    HW118365   1.309   1.119   2.231 -1.5817  0.7774  0.2729
 5822SOL    HW218366   1.316   0.981   2.144  1.9892  2.1723 -1.8592
 5823SOL     OW18367   0.303   2.387   3.694  0.4096 -0.1108 -0.0123
 5823SOL    HW118368   0.299   2.308   3.755 -0.6969  0.2869  0.4696
 5823SOL    HW218369   0.367   2.454   3.731  0.3207 -0.2025  0.3130
 5824SOL     OW18370   6.071   6.355   4.040  0.1758 -0.0899 -0.0950
 5824SOL    HW118371   6.095   6.374   4.135  4.0411  2.1643 -1.3125
 5824SOL    HW218372   6.079   6.257   4.022 -2.0130 -0.7594  2.1302
 5825SOL     OW18373   1.486   2.970   0.294 -0.0480  0.0890  0.1109
 5825SOL    HW118374   1.435   3.053   0.272 -0.5988 -0.3631 -0.3343
 5825SOL    HW218375   1.577   2.976   0.251 -0.0666  0.4795  0.1181
 5826SOL     OW18376   2.311   6.053   4.030 -0.3029 -0.3190 -0.1240
 5826SOL    HW118377   2.360   6.128   3.986  1.3172 -0.1502  1.8890
 5826SOL    HW218378   2.330   5.968   3.980 -0.7347  0.2712 -1.3567
 5827SOL     OW18379   2.726   4.147   6.157 -0.4587 -0.5461  0.0702
 5827SOL    HW118380   2.804   4.207   6.142 -0.5989  0.6421  3.4164
 5827SOL    HW218381   2.710   4.093   6.074  0.9972  2.4237 -2.3349
 5828SOL     OW18382   0.162   2.778   1.454 -0.0303  0.2213 -0.3489
 5828SOL    HW118383   0.194   2.839   1.527  0.8434  0.0405 -0.5758
 5828SOL    HW218384   0.062   2.774   1.456 -0.0287  0.2881  0.7872
 5829SOL     OW18385   1.464   1.633   0.566 -0.2997 -0.6753 -0.0448
 5829SOL    HW118386   1.444   1.634   0.664  1.4589 -1.6197  0.3634
 5829SOL    HW218387   1.439   1.544   0.528 -0.8828 -0.3459 -0.4393
 5830SOL     OW18388   6.475   6.262   5.931 -0.5106 -0.2200 -0.3426
 5830SOL    HW118389   6.510   6.182   5.978 -0.9960 -0.7035 -0.7880
 5830SOL    HW218390   6.494   6.344   5.985 -1.7743 -0.8253  1.0983
 5831SOL     OW18391   5.942   4.380   2.950 -0.4844 -0.6130  0.4042
 5831SOL    HW118392   5.874   4.360   2.879  0.0693 -4.1360  0.6809
 5831SOL    HW218393   6.019   4.317   2.941  1.8441  1.9168  1.3784
 5832SOL     OW18394   3.381   3.203   3.102  0.5378  0.1364  0.2854
 5832SOL    HW118395   3.340   3.112   3.095 -0.2593  0.3373  1.9343
 5832SOL    HW218396   3.347   3.261   3.028 -1.4215 -0.0059  1.0096
 5833SOL     OW18397   3.996   3.172   3.124 -0.4253 -0.1942 -0.2706
 5833SOL    HW118398   4.051   3.208   3.199 -2.3939 -1.3773  1.8515
 5833SOL    HW218399   3.935   3.243   3.090 -0.3861  0.0164  0.0968
 5834SOL     OW18400   4.014   1.794   0.066 -0.8105 -0.0215  0.1105
 5834SOL    HW118401   3.961   1.843  -0.004  0.8384 -1.2129 -2.1238
 5834SOL    HW218402   4.006   1.841   0.153 -3.4754  1.2207 -0.7016
 5835SOL     OW18403   0.031   1.550   3.687  0.2484  0.4330 -0.1156
 5835SOL    HW118404   0.102   1.497   3.734  0.7923  1.5275  0.3509
 5835SOL    HW218405  -0.059   1.519   3.716  0.5487 -0.2884  0.0724
 5836SOL     OW18406   3.909   1.095   3.218 -0.5058  0.5364  0.7783
 5836SOL    HW118407   3.940   1.134   3.304  1.0945  1.4564 -0.1760
 5836SOL    HW218408   3.969   1.020   3.191 -0.1419  1.1655 -0.2109
 5837SOL     OW18409   2.837   5.362   0.932  0.5027  0.0431 -0.2192
 5837SOL    HW118410   2.900   5.303   0.983 -0.8661 -2.3169 -1.0952
 5837SOL    HW218411   2.809   5.316   0.848  1.5707  3.2107 -2.5020
 5838SOL     OW18412   0.089   0.330   6.797  0.2447  0.0824  0.0032
 5838SOL    HW118413   0.182   0.325   6.834  0.3627 -0.2634 -0.3348
 5838SOL    HW218414   0.074   0.254   6.734  0.5876  1.5337 -1.9213
 5839SOL     OW18415   1.183   3.397   1.534 -0.2797 -0.1721  0.0997
 5839SOL    HW118416   1.135   3.392   1.622  1.5991 -0.3092  1.1786
 5839SOL    HW218417   1.236   3.313   1.521 -2.5207 -1.3460 -2.4554
 5840SOL     OW18418   4.022   0.636   6.491  0.2111  0.0878 -0.1020
 5840SOL    HW118419   4.100   0.640   6.429  0.2383 -0.4078 -0.1059
 5840SOL    HW218420   4.048   0.587   6.574 -0.1527 -0.2566 -0.1896
 5841SOL     OW18421   5.871   1.777   3.836  0.4017 -0.1032  0.0955
 5841SOL    HW118422   5.818   1.847   3.885  0.6103 -1.0692  1.7835
 5841SOL    HW218423   5.840   1.686   3.866  1.5830 -0.7016 -0.4625
 5842SOL     OW18424   3.319   2.116   6.313 -0.2792  0.2068 -0.3148
 5842SOL    HW118425   3.331   2.211   6.281 -0.8285  0.1069 -0.8349
 5842SOL    HW218426   3.227   2.085   6.290 -0.9855  0.3639  2.0199
 5843SOL     OW18427   6.486   3.658   1.891  0.1019  0.2078  0.2252
 5843SOL    HW118428   6.526   3.620   1.975 -0.8312  0.6467  0.8731
 5843SOL    HW218429   6.523   3.750   1.875 -0.5033  0.5380  0.7208
 5844SOL     OW18430   1.209   6.458   0.913 -0.1771 -0.1440  0.0061
 5844SOL    HW118431   1.202   6.360   0.932  1.3276 -0.2655  0.0324
 5844SOL    HW218432   1.132   6.506   0.955 -2.9461 -1.6582 -2.8580
 5845SOL     OW18433   2.361   1.014   4.199  0.2846  0.2348 -0.0619
 5845SOL    HW118434   2.447   0.981   4.161  0.3828  0.0600  0.3127
 5845SOL    HW218435   2.348   1.110   4.175  1.2483  0.6597  1.0501
 5846SOL     OW18436   0.651   3.260   0.085  0.3425  0.3880  0.2902
 5846SOL    HW118437   0.613   3.216   0.167  0.4362  2.3197  1.4300
 5846SOL    HW218438   0.749   3.275   0.097  0.0722  2.1666  0.5782
 5847SOL     OW18439   1.105   0.954   2.424 -0.5403 -0.1441 -0.2161
 5847SOL    HW118440   1.091   0.862   2.388 -0.4951  0.3028 -1.4147
 5847SOL    HW218441   1.147   1.011   2.353  0.2738  0.5627  0.8048
 5848SOL     OW18442   0.472   3.745   5.794  0.0804  0.2686  0.3155
 5848SOL    HW118443   0.557   3.755   5.847  0.4218  1.9561 -0.5132
 5848SOL    HW218444   0.408   3.688   5.846  1.7187 -1.1030  0.9404
 5849SOL     OW18445   0.686   0.664   6.206  0.5767 -0.1070  0.5945
 5849SOL    HW118446   0.777   0.647   6.245  0.3739 -0.4355  0.9370
 5849SOL    HW218447   0.674   0.762   6.191  0.9811 -0.0601  0.5630
 5850SOL     OW18448   5.685   4.082   3.925 -0.0966 -0.1245 -0.0755
 5850SOL    HW118449   5.638   4.067   4.011  1.4294 -0.9819  0.6489
 5850SOL    HW218450   5.627   4.052   3.849 -1.0613 -0.2907  0.7192
 5851SOL     OW18451   6.648   4.687   2.848 -0.5642  0.1662 -0.2466
 5851SOL    HW118452   6.726   4.666   2.908  0.0552  2.2107 -0.2361
 5851SOL    HW218453   6.632   4.610   2.786 -0.7749 -1.7298  2.0038
 5852SOL     OW18454   3.356   6.725   1.041 -0.1607 -0.0642  0.0084
 5852SOL    HW118455   3.427   6.672   0.995  1.0095  1.8335 -0.5222
 5852SOL    HW218456   3.394   6.763   1.126 -1.0005 -0.1379  0.4293
 5853SOL     OW18457   5.963   3.365   5.760  0.0900 -0.3059  0.3212
 5853SOL    HW118458   6.033   3.380   5.690 -0.0331  0.2447  0.3134
 5853SOL    HW218459   5.898   3.296   5.729 -0.5310  0.6410 -0.5180
 5854SOL     OW18460   1.402   1.382   0.477 -0.0389 -0.0266  0.1219
 5854SOL    HW118461   1.375   1.315   0.547  2.3403 -2.5863 -1.2046
 5854SOL    HW218462   1.376   1.347   0.387 -3.9469  3.6429 -0.4875
 5855SOL     OW18463   3.080   1.777   4.824 -0.3243  0.5267  0.4651
 5855SOL    HW118464   3.134   1.730   4.755 -1.0306  0.9203 -0.3817
 5855SOL    HW218465   3.139   1.810   4.897  0.2866 -0.9125  0.6457
 5856SOL     OW18466   0.328   0.277   1.645 -0.4684 -0.3434  0.2537
 5856SOL    HW118467   0.315   0.334   1.564  1.1500  1.5081  1.2062
 5856SOL    HW218468   0.292   0.324   1.725 -0.6856 -1.4724  0.8360
 5857SOL     OW18469   1.402   1.363   2.925 -0.3555 -0.1355 -0.0184
 5857SOL    HW118470   1.423   1.265   2.937 -1.3305 -0.1291  2.1467
 5857SOL    HW218471   1.474   1.405   2.869  1.5914 -1.5509  1.2559
 5858SOL     OW18472   3.181   6.175   5.354 -0.0300  0.2660  1.0024
 5858SOL    HW118473   3.122   6.095   5.342 -0.0037  0.0008  2.4190
 5858SOL    HW218474   3.146   6.251   5.300 -1.4387 -0.0018  1.4975
 5859SOL     OW18475   4.811   4.983   2.719 -0.1691  0.3152  0.1438
 5859SOL    HW118476   4.744   4.991   2.793  1.2234 -1.4722  1.6961
 5859SOL    HW218477   4.878   5.056   2.725 -0.6012  0.7255  0.0405
 5860SOL     OW18478   6.029   5.366   0.958  0.5487 -0.6263 -0.2855
 5860SOL    HW118479   6.023   5.368   0.859  1.2223 -0.7965 -0.3307
 5860SOL    HW218480   5.937   5.378   0.997  0.3116 -0.3314 -0.9191
 5861SOL     OW18481   6.143   0.265   4.118  0.4897  0.7369 -0.2356
 5861SOL    HW118482   6.062   0.255   4.176 -0.7398  1.1460 -1.8154
 5861SOL    HW218483   6.166   0.361   4.107  2.2416  0.5888  1.5177
 5862SOL     OW18484   0.071   6.423   5.128 -0.2333 -0.6044  1.0198
 5862SOL    HW118485   0.068   6.411   5.227  2.0590 -0.7074  1.1285
 5862SOL    HW218486   0.145   6.368   5.090 -1.2536 -0.7850 -0.8063
 5863SOL     OW18487   2.505   3.062   0.223  0.1374 -0.5799 -0.3155
 5863SOL    HW118488   2.436   3.129   0.197 -0.7495 -1.2347  0.2956
 5863SOL    HW218489   2.580   3.064   0.157 -0.1627  0.5771 -0.6378
 5864SOL     OW18490   4.442   2.970   0.049  0.4520 -0.5409 -0.1015
 5864SOL    HW118491   4.507   2.914  -0.001  0.9253 -0.3569  0.2952
 5864SOL    HW218492   4.362   2.915   0.072  0.6883 -0.9147 -0.1572
 5865SOL     OW18493   4.916   0.008   2.530 -0.3628 -0.0784  0.0205
 5865SOL    HW118494   4.915   0.092   2.586  0.6585  0.9073 -1.3915
 5865SOL    HW218495   4.833   0.006   2.474  0.6908  1.2893 -1.7138
 5866SOL     OW18496   2.468   1.708   6.497  0.0703  0.1329 -0.8177
 5866SOL    HW118497   2.545   1.649   6.521 -0.0440  0.4210  0.2995
 5866SOL    HW218498   2.503   1.796   6.464  0.2313 -0.3589 -2.0288
 5867SOL     OW18499   4.737   3.614   1.775  0.3450  0.1127  0.3601
 5867SOL    HW118500   4.827   3.589   1.811  1.0893  0.4606 -1.1825
 5867SOL    HW218501   4.701   3.539   1.720 -0.6527 -0.3002  1.5386
 5868SOL     OW18502   2.459   6.854   6.090 -0.3117  0.0593  0.4737
 5868SOL    HW118503   2.460   6.801   6.005 -1.4220  1.7166 -0.6321
 5868SOL    HW218504   2.393   6.813   6.154 -0.8942 -0.0960 -0.2148
 5869SOL     OW18505   3.739   4.892   3.957 -0.1052  0.0388  0.7108
 5869SOL    HW118506   3.727   4.960   3.885  0.6804  0.0152  0.5465
 5869SOL    HW218507   3.670   4.905   4.028 -1.1098 -0.1566 -0.2053
 5870SOL     OW18508   5.379   4.378   4.035 -0.2965 -0.1627 -0.2854
 5870SOL    HW118509   5.310   4.403   4.104  2.7814 -1.3276  3.6145
 5870SOL    HW218510   5.370   4.280   4.014  0.7020 -0.5861  1.0888
 5871SOL     OW18511   2.503   5.653   6.937 -0.2761  0.0215 -0.3334
 5871SOL    HW118512   2.490   5.560   6.971  0.1175  0.0057 -0.2203
 5871SOL    HW218513   2.598   5.681   6.952 -0.6087  0.7703  0.4392
 5872SOL     OW18514   5.157   1.134   3.451  0.4649  0.0777  0.2071
 5872SOL    HW118515   5.102   1.126   3.535 -0.4700  0.8002 -0.3196
 5872SOL    HW218516   5.107   1.189   3.384  0.8681 -1.0972 -1.0971
 5873SOL     OW18517   1.032   3.469   6.592  0.3839  0.2636  0.4024
 5873SOL    HW118518   1.109   3.515   6.548  1.3985  0.5459  2.3456
 5873SOL    HW218519   0.946   3.497   6.550  1.2305  1.2213 -0.7265
 5874SOL     OW18520   1.595   5.436   5.495  0.3617 -0.1700 -0.0912
 5874SOL    HW118521   1.609   5.337   5.487  0.9976 -0.1784  1.0162
 5874SOL    HW218522   1.669   5.476   5.549  0.1007  0.9186 -0.5168
 5875SOL     OW18523   3.127   3.355   2.539 -0.6666 -0.1839  0.0379
 5875SOL    HW118524   3.048   3.305   2.575 -0.9208 -0.8607 -1.3947
 5875SOL    HW218525   3.206   3.293   2.533 -1.0389 -0.5409 -1.9424
 5876SOL     OW18526   5.413   5.377   5.604 -0.2516  0.2601  0.0459
 5876SOL    HW118527   5.401   5.322   5.522  0.1301  1.3514 -0.7594
 5876SOL    HW218528   5.362   5.463   5.595 -1.3179 -0.1737  1.5213
 5877SOL     OW18529   4.214   4.842   1.233  0.3029 -0.4625 -0.7432
 5877SOL    HW118530   4.211   4.747   1.266  3.3484 -0.3111  0.3390
 5877SOL    HW218531   4.191   4.903   1.309 -0.8450 -0.2679 -1.2256
 5878SOL     OW18532   6.592   3.656   3.009 -0.2989 -0.4551  0.1660
 5878SOL    HW118533   6.631   3.650   3.101 -1.2689 -0.1317  0.6111
 5878SOL    HW218534   6.643   3.724   2.957  1.2978 -1.7881 -0.0931
 5879SOL     OW18535   3.577   6.507   4.958 -0.1233 -0.3282 -0.3011
 5879SOL    HW118536   3.593   6.603   4.935  0.0699 -0.5520 -1.1342
 5879SOL    HW218537   3.596   6.450   4.878 -0.8615 -1.0009 -0.0156
 5880SOL     OW18538   0.746   1.469   2.824  0.2316 -0.4675  0.1473
 5880SOL    HW118539   0.698   1.503   2.742 -0.2291 -0.0916  0.5660
 5880SOL    HW218540   0.838   1.438   2.798  0.0956 -0.3403 -0.5110
 5881SOL     OW18541   1.579   6.326   4.443 -0.8191  0.0301 -0.4072
 5881SOL    HW118542   1.651   6.343   4.511 -0.3329 -0.3123 -0.8291
 5881SOL    HW218543   1.490   6.350   4.482 -0.6056 -0.6655  0.5475
 5882SOL     OW18544   6.944   5.312   3.581 -0.4373  0.0737 -0.3316
 5882SOL    HW118545   6.846   5.313   3.601 -0.6489 -0.7520 -1.2591
 5882SOL    HW218546   6.993   5.275   3.660 -0.7416  1.3971  0.5334
 5883SOL     OW18547   2.524   4.000   0.668  0.3797  0.1964 -0.3978
 5883SOL    HW118548   2.533   4.011   0.767 -0.3962  0.9999 -0.4079
 5883SOL    HW218549   2.430   3.977   0.645  0.7705 -1.0085 -0.8776
 5884SOL     OW18550   1.530   2.460   0.128  0.2938 -0.1709  0.0257
 5884SOL    HW118551   1.456   2.422   0.071  0.5415  0.3573 -0.6517
 5884SOL    HW218552   1.594   2.386   0.151 -0.2153 -0.5467  0.2657
 5885SOL     OW18553   6.056   5.831   3.714 -0.4413  0.2292  0.0227
 5885SOL    HW118554   6.138   5.799   3.761 -1.0582 -0.9248  0.3492
 5885SOL    HW218555   5.979   5.831   3.778 -1.0078 -0.1253 -0.6464
 5886SOL     OW18556   0.880   4.303   3.216  0.2421  0.4667 -0.2020
 5886SOL    HW118557   0.967   4.279   3.172 -0.2749 -1.0094 -0.4812
 5886SOL    HW218558   0.806   4.248   3.176 -0.6655  0.9927  0.7044
 5887SOL     OW18559   3.666   2.626   0.685 -0.2411  0.2991 -0.6246
 5887SOL    HW118560   3.720   2.671   0.614 -0.0698 -0.3080 -0.8939
 5887SOL    HW218561   3.647   2.690   0.759  0.7771  0.5580 -0.5700
 5888SOL     OW18562   3.444   5.596   3.255  0.3168  0.3421 -0.8446
 5888SOL    HW118563   3.541   5.611   3.276  1.2256 -1.8636 -3.0052
 5888SOL    HW218564   3.419   5.503   3.281 -1.1805  0.7962 -0.5791
 5889SOL     OW18565   4.311   2.373   3.286 -0.5730  0.6230  0.0753
 5889SOL    HW118566   4.321   2.323   3.200 -1.9666 -0.2533  0.4029
 5889SOL    HW218567   4.245   2.446   3.275 -2.3306 -0.7675  0.8917
 5890SOL     OW18568   1.863   6.925   3.533  0.2351 -0.0685  0.1446
 5890SOL    HW118569   1.917   6.999   3.573 -1.0709 -0.1340  2.1708
 5890SOL    HW218570   1.789   6.963   3.478  1.5764  0.0328 -1.6669
 5891SOL     OW18571   1.712   3.710   6.930 -0.0438 -0.3598  0.1254
 5891SOL    HW118572   1.731   3.612   6.929 -0.7703 -0.4980 -0.2312
 5891SOL    HW218573   1.631   3.730   6.875 -0.1259  0.3958  0.4990
 5892SOL     OW18574   0.852   1.419   1.426  0.1577  0.3519 -0.3311
 5892SOL    HW118575   0.816   1.365   1.501  1.1150 -1.5382 -1.1514
 5892SOL    HW218576   0.885   1.507   1.460  0.2522 -0.3190  1.3792
 5893SOL     OW18577   6.211   6.543   2.597  0.3709  0.7470 -0.3882
 5893SOL    HW118578   6.187   6.465   2.655  1.4832  0.9114  0.3170
 5893SOL    HW218579   6.250   6.616   2.653  0.5164  1.3143 -1.2097
 5894SOL     OW18580   2.999   1.647   5.118  0.4380  0.3292 -0.0543
 5894SOL    HW118581   3.092   1.667   5.086  0.1913  1.7939  0.1167
 5894SOL    HW218582   2.939   1.632   5.040  0.6760 -0.0001 -0.1763
 5895SOL     OW18583   5.026   1.680   5.697 -0.3061  0.1798 -0.2576
 5895SOL    HW118584   5.044   1.618   5.773  0.4766  0.0051 -0.5701
 5895SOL    HW218585   5.108   1.688   5.640 -0.9074  0.2347 -1.1409
 5896SOL     OW18586   4.050   1.396   6.975 -0.3952  0.2451 -0.4246
 5896SOL    HW118587   3.989   1.475   6.971 -0.8842 -0.1558 -1.0387
 5896SOL    HW218588   4.018   1.325   6.912  0.5067 -0.1103 -0.5087
 5897SOL     OW18589   2.903   3.248   1.408  0.0657  0.5898 -0.2650
 5897SOL    HW118590   2.820   3.274   1.360  1.3773  1.4577 -2.1653
 5897SOL    HW218591   2.948   3.329   1.444  0.7679  0.2640 -0.3975
 5898SOL     OW18592   3.697   0.920   6.740 -0.0894  0.5158  0.8515
 5898SOL    HW118593   3.754   0.888   6.664 -0.2363  0.7288  0.6523
 5898SOL    HW218594   3.728   1.011   6.769 -1.8017  1.7004 -0.8222
 5899SOL     OW18595   6.950   6.197   0.001 -0.3590 -0.9515  0.0523
 5899SOL    HW118596   6.971   6.179   0.097  2.4192 -0.4793 -0.3691
 5899SOL    HW218597   6.898   6.282  -0.006  1.8493  0.6070  1.0729
 5900SOL     OW18598   6.121   5.895   1.292 -0.0101 -0.4008 -0.0476
 5900SOL    HW118599   6.191   5.835   1.332  1.0175  1.1582  0.5926
 5900SOL    HW218600   6.162   5.984   1.270 -1.5753  0.2082 -0.6151
 5901SOL     OW18601   0.684   0.894   5.181  0.5838  0.0164  0.0536
 5901SOL    HW118602   0.662   0.811   5.131  1.8497  1.0853 -2.4561
 5901SOL    HW218603   0.741   0.954   5.124  0.5440  2.1932  2.1155
 5902SOL     OW18604   6.641   3.312   6.504  0.2082 -0.6055 -0.0447
 5902SOL    HW118605   6.683   3.250   6.438  0.7315 -2.4963  1.9467
 5902SOL    HW218606   6.705   3.386   6.526  0.9383 -1.2556  0.0397
 5903SOL     OW18607   4.011   0.823   1.337 -0.3955  0.1440 -0.5603
 5903SOL    HW118608   4.070   0.840   1.416 -2.1431  0.1654  0.8149
 5903SOL    HW218609   3.986   0.911   1.295 -0.3257  0.2085 -0.4685
 5904SOL     OW18610   2.013   4.984   2.541 -0.3210  0.0978 -0.0638
 5904SOL    HW118611   1.964   4.996   2.454 -0.6810 -1.0335 -0.0332
 5904SOL    HW218612   2.037   4.888   2.553 -0.0566  0.2798  0.9818
 5905SOL     OW18613   4.713   1.158   3.805  0.3443  0.1879  0.7262
 5905SOL    HW118614   4.708   1.145   3.904 -2.2523 -2.1963  0.4230
 5905SOL    HW218615   4.778   1.092   3.767 -1.6806 -1.8654  0.5823
 5906SOL     OW18616   3.057   6.020   3.685 -0.0407 -0.7921  0.0195
 5906SOL    HW118617   3.032   5.924   3.671 -0.8867 -0.4981 -0.6145
 5906SOL    HW218618   3.137   6.041   3.629  0.7833 -1.3806  0.9523
 5907SOL     OW18619   6.817   1.761   6.255 -0.2330  0.4295 -0.2518
 5907SOL    HW118620   6.740   1.806   6.209 -1.7245 -0.6317  1.1241
 5907SOL    HW218621   6.839   1.676   6.207  0.4618  0.9847 -0.9502
 5908SOL     OW18622   5.302   2.742   5.491  0.5270 -0.0081  0.5340
 5908SOL    HW118623   5.301   2.656   5.541 -0.4092 -0.5004 -0.2908
 5908SOL    HW218624   5.229   2.802   5.526  0.3176 -0.0804  0.2246
 5909SOL     OW18625   6.682   4.002   1.682  0.1692 -0.3876 -0.4477
 5909SOL    HW118626   6.686   3.915   1.730  0.8323 -0.4345 -0.5663
 5909SOL    HW218627   6.759   4.007   1.617  0.2607  0.3656 -0.2928
 5910SOL     OW18628   1.730   6.007   2.076  0.3425  0.4564 -0.4172
 5910SOL    HW118629   1.786   6.088   2.085  0.1941  0.3755  2.0213
 5910SOL    HW218630   1.781   5.927   2.107  0.4553 -0.4239 -2.6884
 5911SOL     OW18631   2.050   6.072   4.157 -0.4336  0.0130 -0.3813
 5911SOL    HW118632   2.132   6.083   4.100  0.6251  1.9433  1.3589
 5911SOL    HW218633   1.971   6.111   4.109  0.5762  2.2921 -0.3173
 5912SOL     OW18634   1.042   1.995   6.110  0.0639  0.4096  0.1367
 5912SOL    HW118635   0.990   1.993   6.195  0.3565  0.1152  0.3112
 5912SOL    HW218636   1.007   2.067   6.050 -2.0684 -1.2502 -0.7344
 5913SOL     OW18637   1.946   1.763   6.566 -0.1932 -0.5399 -0.0843
 5913SOL    HW118638   1.886   1.689   6.594 -0.0040 -1.0079 -0.8877
 5913SOL    HW218639   2.040   1.730   6.561 -0.1253 -0.2853 -0.5893
 5914SOL     OW18640   0.795   6.409   6.844 -0.3287  0.3064 -0.8320
 5914SOL    HW118641   0.769   6.325   6.796  0.2109 -0.5375  0.2864
 5914SOL    HW218642   0.889   6.433   6.822  0.3939 -0.8443  0.7324
 5915SOL     OW18643   6.064   3.382   4.871 -1.0694 -0.3425  0.1032
 5915SOL    HW118644   6.129   3.457   4.883  0.0839 -0.5647 -3.6243
 5915SOL    HW218645   6.112   3.295   4.877 -1.3504 -0.5770 -0.9486
 5916SOL     OW18646   4.367   0.013   6.342  0.2112  0.4781  0.6743
 5916SOL    HW118647   4.361  -0.062   6.408  0.0893 -0.3520 -0.2575
 5916SOL    HW218648   4.306  -0.006   6.264 -0.8039  2.1422  0.9934
 5917SOL     OW18649   4.000   3.514   1.804  0.4122  0.0212 -0.0294
 5917SOL    HW118650   4.081   3.571   1.794 -0.4795  1.1717 -1.0227
 5917SOL    HW218651   4.025   3.427   1.847  2.7582 -0.9315 -2.9341
 5918SOL     OW18652   4.113   0.517   3.299 -0.1410 -0.2065  0.6282
 5918SOL    HW118653   4.180   0.534   3.227 -0.5483  3.3206  0.9024
 5918SOL    HW218654   4.156   0.532   3.388 -1.2551  2.7356  0.7921
 5919SOL     OW18655   1.924   3.057   5.625  0.6121  0.1051  0.1618
 5919SOL    HW118656   1.846   3.030   5.570  0.3302 -0.1957  0.6976
 5919SOL    HW218657   1.943   3.155   5.612 -0.4620  0.4047  0.7606
 5920SOL     OW18658   2.470   5.494   0.749 -0.1468  0.4219 -0.4226
 5920SOL    HW118659   2.452   5.559   0.822  0.2614 -1.0383  1.0517
 5920SOL    HW218660   2.396   5.496   0.682 -0.8987  1.2760  0.4303
 5921SOL     OW18661   3.328   1.131   5.278  0.2238  0.2935  0.3750
 5921SOL    HW118662   3.377   1.195   5.337  0.6479  1.3036 -1.0327
 5921SOL    HW218663   3.305   1.049   5.330  0.9645  0.9677  1.8148
 5922SOL     OW18664   6.397   5.637   2.464  0.2632 -1.0586  0.3357
 5922SOL    HW118665   6.331   5.563   2.447  1.3926 -1.9968 -0.0952
 5922SOL    HW218666   6.356   5.724   2.438  0.3136 -1.9334 -3.1764
 5923SOL     OW18667   2.739   1.445   4.569  0.2772  0.0173 -0.5896
 5923SOL    HW118668   2.753   1.436   4.668  1.8506 -0.5463 -0.8416
 5923SOL    HW218669   2.731   1.354   4.529 -1.3391  0.2577 -0.8821
 5924SOL     OW18670   6.075   1.884   3.673  0.5634  0.1335 -0.7025
 5924SOL    HW118671   5.999   1.866   3.735  0.5923  2.1357 -0.0111
 5924SOL    HW218672   6.099   1.800   3.624 -1.9271 -0.6187 -0.7655
 5925SOL     OW18673   5.410   0.791   0.122  0.0201 -0.4833 -0.3274
 5925SOL    HW118674   5.363   0.826   0.203  0.9795 -1.5265  0.7162
 5925SOL    HW218675   5.486   0.852   0.099 -1.5976  1.0811 -1.8826
 5926SOL     OW18676   3.011   0.480   2.503  0.4044 -0.1708 -0.4598
 5926SOL    HW118677   2.912   0.495   2.508  0.3392 -0.9523  1.2645
 5926SOL    HW218678   3.056   0.531   2.577  1.2471 -0.2675 -0.8914
 5927SOL     OW18679   4.862   5.327   1.815 -0.4285  0.0560  0.7341
 5927SOL    HW118680   4.793   5.379   1.766 -0.9677 -1.0785  0.2502
 5927SOL    HW218681   4.840   5.325   1.913 -1.0042 -0.1488  0.6079
 5928SOL     OW18682   6.518   5.641   1.769 -0.0989 -0.4050 -0.0579
 5928SOL    HW118683   6.425   5.649   1.735  0.4346 -0.8417 -1.7238
 5928SOL    HW218684   6.582   5.676   1.700  0.9358  0.7825  1.4372
 5929SOL     OW18685   6.416   6.733   6.057 -0.0079 -0.3101 -0.1603
 5929SOL    HW118686   6.375   6.824   6.067 -0.8134 -0.8277  1.7762
 5929SOL    HW218687   6.349   6.671   6.016  0.1937 -0.2908 -0.5305
 5930SOL     OW18688   0.333   2.013   5.755 -0.1353  0.4955  0.3982
 5930SOL    HW118689   0.249   1.983   5.711  0.7950 -0.1397 -1.0080
 5930SOL    HW218690   0.313   2.088   5.819 -1.4325  2.0048 -1.6734
 5931SOL     OW18691   0.061   5.143   0.979 -0.5904  0.4629 -0.1492
 5931SOL    HW118692   0.042   5.090   0.897  0.1969 -1.6587  0.9565
 5931SOL    HW218693  -0.022   5.151   1.034 -0.6943  0.2691 -0.2781
 5932SOL     OW18694   1.591   0.106   1.356 -0.1588 -0.0863  0.2461
 5932SOL    HW118695   1.585   0.061   1.268 -1.9282 -0.4705  0.5302
 5932SOL    HW218696   1.556   0.199   1.349 -0.3881 -0.1453  0.5463
 5933SOL     OW18697   5.727   3.292   2.141 -0.3926  0.3561  0.2060
 5933SOL    HW118698   5.709   3.197   2.168 -1.0600 -0.2931 -2.3332
 5933SOL    HW218699   5.819   3.317   2.172  0.8066 -1.9821 -1.1672
 5934SOL     OW18700   3.180   3.953   0.871  0.1251 -0.4465  0.1417
 5934SOL    HW118701   3.169   3.901   0.786  0.2538  0.0605 -0.1873
 5934SOL    HW218702   3.181   4.051   0.851  0.8561 -0.3431  0.6529
 5935SOL     OW18703   3.063   4.014   2.996 -0.5311 -0.2374  0.7173
 5935SOL    HW118704   3.148   4.064   2.980 -0.5851 -0.5466 -0.6467
 5935SOL    HW218705   3.064   3.974   3.087 -0.6140  2.4841  2.0026
 5936SOL     OW18706   1.761   5.454   0.333  0.2104  0.1475  0.4566
 5936SOL    HW118707   1.686   5.445   0.399  0.3484 -1.1331  0.4600
 5936SOL    HW218708   1.773   5.368   0.284  1.5761  0.3913  0.3333
 5937SOL     OW18709   2.317   3.455   0.875 -0.0981  0.4868  0.0330
 5937SOL    HW118710   2.249   3.462   0.948 -1.0101 -1.9023 -0.4915
 5937SOL    HW218711   2.331   3.545   0.834 -2.9290  1.0958  0.1809
 5938SOL     OW18712   2.544   5.182   6.862  0.1989  0.2410 -0.4021
 5938SOL    HW118713   2.641   5.162   6.851 -0.1689 -1.3790 -1.0119
 5938SOL    HW218714   2.496   5.163   6.776 -0.7215  0.5632  0.0272
 5939SOL     OW18715   0.692   1.505   2.498  0.6386 -0.0864  0.1318
 5939SOL    HW118716   0.772   1.445   2.495  1.3512  0.7055  2.0860
 5939SOL    HW218717   0.613   1.453   2.529  0.9615 -0.2961  0.6099
 5940SOL     OW18718   4.800   4.575   1.783  0.6786 -0.5740  0.0865
 5940SOL    HW118719   4.745   4.557   1.701 -0.4578  3.6335 -0.3486
 5940SOL    HW218720   4.766   4.519   1.858 -1.1109 -1.5004 -1.3200
 5941SOL     OW18721   6.241   2.415   2.500 -0.7923 -0.0205 -0.4832
 5941SOL    HW118722   6.150   2.411   2.542 -0.4236  1.6414  0.5807
 5941SOL    HW218723   6.305   2.456   2.565  0.6792 -0.9098 -1.3195
 5942SOL     OW18724   0.746   3.258   5.806 -0.7237 -0.3036 -0.2598
 5942SOL    HW118725   0.804   3.254   5.726  1.3229 -0.5989  1.1667
 5942SOL    HW218726   0.791   3.313   5.877 -2.2780 -0.3944  0.8482
 5943SOL     OW18727   1.877   4.307   1.967  0.4643 -0.7520 -0.1968
 5943SOL    HW118728   1.964   4.267   1.935  0.7813  0.1666 -0.5120
 5943SOL    HW218729   1.805   4.285   1.902  0.4164 -1.6485  0.1399
 5944SOL     OW18730   4.589   2.375   3.304  0.1051  0.0507  0.2313
 5944SOL    HW118731   4.598   2.291   3.358 -0.0536  0.0576  0.2699
 5944SOL    HW218732   4.492   2.393   3.286  0.1199  0.3944  0.4886
 5945SOL     OW18733   5.035   5.557   1.742  0.2050  0.1222  0.6013
 5945SOL    HW118734   5.108   5.541   1.808  0.2439  0.3653  0.6168
 5945SOL    HW218735   4.963   5.489   1.754  0.7354 -0.5346  0.1483
 5946SOL     OW18736   4.584   2.628   4.849  0.3592 -0.2100 -0.1915
 5946SOL    HW118737   4.516   2.693   4.883 -1.3948 -1.8613 -0.3260
 5946SOL    HW218738   4.674   2.652   4.885 -0.8345 -0.0045  3.0785
 5947SOL     OW18739   6.024   3.912   4.343  0.2686  0.0430  0.8422
 5947SOL    HW118740   5.980   3.922   4.254 -1.3835 -0.6700  1.5451
 5947SOL    HW218741   6.097   3.981   4.352  0.0625  0.5211 -0.7923
 5948SOL     OW18742   1.504   6.202   0.962  0.0798  0.4105  0.1373
 5948SOL    HW118743   1.565   6.272   0.924 -1.6765  0.6823 -2.3832
 5948SOL    HW218744   1.435   6.246   1.020  0.4696  0.4380  0.5912
 5949SOL     OW18745   6.263   5.608   4.133  0.0315  1.0353  0.7567
 5949SOL    HW118746   6.166   5.594   4.153 -0.0054  0.7333  0.3723
 5949SOL    HW218747   6.300   5.677   4.195 -0.2429  0.5870  1.4338
 5950SOL     OW18748   6.961   0.016   4.855 -0.0388 -0.0302  0.0685
 5950SOL    HW118749   6.951   0.105   4.811  1.2246  0.2359  0.2866
 5950SOL    HW218750   6.878  -0.038   4.840 -0.4567  0.8357 -0.8398
 5951SOL     OW18751   0.736   0.589   3.294  0.2571 -0.5005 -0.2898
 5951SOL    HW118752   0.672   0.599   3.370 -0.2566  2.1675 -0.9816
 5951SOL    HW218753   0.686   0.557   3.213 -0.0437  0.5799 -0.5505
 5952SOL     OW18754   4.463   5.583   6.466  0.1057  0.8884 -0.3676
 5952SOL    HW118755   4.520   5.545   6.538 -0.4471 -1.9639 -1.2981
 5952SOL    HW218756   4.373   5.540   6.469 -0.1926  1.3059 -2.2052
 5953SOL     OW18757   0.908   3.800   7.013  0.3715  0.1231 -0.1579
 5953SOL    HW118758   0.881   3.825   7.107  1.6318 -0.3079  0.3414
 5953SOL    HW218759   0.957   3.876   6.971 -1.2418  0.7769 -0.9406
 5954SOL     OW18760   1.918   2.907   5.838 -0.1042 -0.3307 -0.7307
 5954SOL    HW118761   1.929   2.945   5.746 -0.3472  0.8268 -0.3038
 5954SOL    HW218762   1.850   2.961   5.888  0.6851 -0.3701  0.4313
 5955SOL     OW18763   3.557   5.103   1.958  0.2411  0.2595 -0.2269
 5955SOL    HW118764   3.516   5.166   1.892 -0.2484  1.3135  1.0343
 5955SOL    HW218765   3.646   5.139   1.987 -0.0476  0.4029  0.5120
 5956SOL     OW18766   1.714   2.347   1.265  0.1460 -0.4775  0.2454
 5956SOL    HW118767   1.737   2.400   1.347 -0.0920 -1.2235  0.8103
 5956SOL    HW218768   1.716   2.407   1.185  3.9033 -0.3848  0.2327
 5957SOL     OW18769   4.404   6.507   1.712 -0.1656  0.3756 -0.1960
 5957SOL    HW118770   4.353   6.445   1.653 -0.1116 -0.8662  1.0046
 5957SOL    HW218771   4.500   6.508   1.685  0.2029 -1.5133  0.8563
 5958SOL     OW18772   3.115   0.880   1.801 -0.4412  0.1093 -0.4440
 5958SOL    HW118773   3.093   0.831   1.717  0.0143 -1.2928  0.2190
 5958SOL    HW218774   3.208   0.916   1.796  0.1499 -1.3005  0.0305
 5959SOL     OW18775   2.848   1.295   5.378  0.1380  0.2877  0.2449
 5959SOL    HW118776   2.826   1.245   5.462  2.8209  1.2099  1.6211
 5959SOL    HW218777   2.832   1.393   5.392 -1.8359  0.2428 -1.2726
 5960SOL     OW18778   2.589   6.448   3.689 -0.0386 -0.3275 -0.0264
 5960SOL    HW118779   2.677   6.495   3.689 -1.1639  1.9788 -2.0567
 5960SOL    HW218780   2.588   6.379   3.762  2.3981  1.4517  1.8471
 5961SOL     OW18781   3.359   6.338   4.441 -0.3021 -0.1141 -0.2065
 5961SOL    HW118782   3.304   6.418   4.418 -0.8910 -0.3026  0.4913
 5961SOL    HW218783   3.311   6.255   4.411  0.7698 -0.1888 -1.8517
 5962SOL     OW18784   5.096   4.168   3.644  0.0468 -0.0834  0.0320
 5962SOL    HW118785   5.070   4.265   3.643  1.3426  0.3432  1.7695
 5962SOL    HW218786   5.051   4.120   3.569 -0.3855  1.9229 -1.0599
 5963SOL     OW18787   2.711   3.577   1.150  0.6607  0.5076 -0.3585
 5963SOL    HW118788   2.638   3.524   1.109  0.2025  0.3487  0.6270
 5963SOL    HW218789   2.777   3.604   1.080 -0.2404  0.4972 -1.2254
 5964SOL     OW18790   0.013   4.175   5.696 -0.3142  0.1585  0.1843
 5964SOL    HW118791   0.112   4.184   5.707 -0.6160  0.8942  3.6628
 5964SOL    HW218792  -0.012   4.189   5.601  2.6290  3.5067 -0.3149
 5965SOL     OW18793   2.459   2.041   4.156  0.1278 -0.6048  0.4891
 5965SOL    HW118794   2.508   2.070   4.238 -0.4054 -0.3422  0.7153
 5965SOL    HW218795   2.525   2.013   4.086  0.7468  1.8945 -0.0430
 5966SOL     OW18796   1.893   3.644   6.103  0.5369 -0.0556  0.4548
 5966SOL    HW118797   1.887   3.610   6.197 -1.8420  1.2513  0.8315
 5966SOL    HW218798   1.989   3.661   6.081  1.3106 -1.9501  2.0361
 5967SOL     OW18799   5.112   5.282   1.012 -0.3201 -0.1841 -0.2385
 5967SOL    HW118800   5.178   5.213   1.043  1.0025  0.7302 -0.8959
 5967SOL    HW218801   5.120   5.293   0.913 -1.2886  0.1370 -0.2855
 5968SOL     OW18802   0.973   2.118   4.554  0.1468  0.5679  0.7705
 5968SOL    HW118803   0.913   2.191   4.522 -0.6068  0.2319  1.3948
 5968SOL    HW218804   1.001   2.062   4.477  0.6968  1.4696  0.2867
 5969SOL     OW18805   0.026   3.373   6.211  0.2044  0.9334 -0.1289
 5969SOL    HW118806  -0.033   3.418   6.144  0.5066 -1.0166 -1.7905
 5969SOL    HW218807   0.122   3.382   6.183  0.2187 -1.5425 -1.1285
 5970SOL     OW18808   0.836   2.874   3.617  0.2398  0.2575  0.1003
 5970SOL    HW118809   0.924   2.907   3.649  0.0286 -0.5925  1.6826
 5970SOL    HW218810   0.832   2.774   3.626 -0.6435  0.2098 -0.5897
 5971SOL     OW18811   1.992   6.508   3.379  0.1982  0.3083 -0.0134
 5971SOL    HW118812   1.919   6.451   3.415 -0.3691  0.2509 -1.1962
 5971SOL    HW218813   1.961   6.604   3.378  0.0524  0.2576 -0.7012
 5972SOL     OW18814   3.835   0.209   0.421  0.7811  0.3273 -0.1372
 5972SOL    HW118815   3.903   0.225   0.349  0.4201  0.7412 -0.3896
 5972SOL    HW218816   3.831   0.288   0.482 -0.6171  1.0192 -1.0712
 5973SOL     OW18817   4.723   5.747   2.936 -0.4158 -0.1380  0.3265
 5973SOL    HW118818   4.722   5.647   2.926  0.6808 -0.0787 -0.5615
 5973SOL    HW218819   4.767   5.770   3.023 -1.5766 -0.4406  1.0088
 5974SOL     OW18820   6.196   3.541   1.490 -0.5402 -0.8045  0.0785
 5974SOL    HW118821   6.269   3.506   1.431 -0.1169  0.7732 -0.3856
 5974SOL    HW218822   6.214   3.514   1.585  2.8060  2.5871  0.6314
 5975SOL     OW18823   2.170   4.025   6.678 -0.2717  0.0785 -0.0532
 5975SOL    HW118824   2.254   4.004   6.729 -0.3687 -0.0567  0.0515
 5975SOL    HW218825   2.092   3.984   6.724 -0.4066  0.2712 -0.1087
 5976SOL     OW18826   3.200   2.851   5.185 -0.0085  0.0162 -0.6330
 5976SOL    HW118827   3.137   2.783   5.224  1.9655 -1.3775  0.2623
 5976SOL    HW218828   3.182   2.940   5.227  0.0752 -0.8286  1.3436
 5977SOL     OW18829   2.698   4.716   4.377  0.0790 -0.9183  0.2879
 5977SOL    HW118830   2.633   4.757   4.442  0.0346 -2.4259  1.2617
 5977SOL    HW218831   2.666   4.624   4.353  0.9840 -1.0203 -0.5690
 5978SOL     OW18832   0.045   3.522   1.667 -0.2338 -0.5050 -0.2534
 5978SOL    HW118833   0.021   3.503   1.572 -2.4582  0.0094  0.1415
 5978SOL    HW218834   0.100   3.605   1.672  1.5272 -1.5697 -1.2113
 5979SOL     OW18835   1.701   2.244   0.200  0.0097  0.1653 -0.3144
 5979SOL    HW118836   1.701   2.164   0.260  0.0117  2.0165  2.3258
 5979SOL    HW218837   1.793   2.257   0.162  0.0838 -0.8850 -0.5286
 5980SOL     OW18838   5.876   3.036   0.207  0.1687 -0.1680  0.0734
 5980SOL    HW118839   5.925   2.998   0.128 -0.9814  1.2670 -1.4032
 5980SOL    HW218840   5.871   2.967   0.279  1.0681 -1.6194 -1.1894
 5981SOL     OW18841   2.964   2.076   1.247 -0.2320  0.2118  0.4948
 5981SOL    HW118842   3.013   2.117   1.324 -1.0174 -0.6480  1.4539
 5981SOL    HW218843   2.980   2.132   1.165 -0.3301  1.7935  1.5153
 5982SOL     OW18844   5.037   2.730   6.972 -0.3972  0.3664 -0.3131
 5982SOL    HW118845   4.965   2.737   6.903 -0.7800 -2.3224 -0.3015
 5982SOL    HW218846   4.995   2.720   7.062 -0.0035 -0.2341 -0.1915
 5983SOL     OW18847   1.276   0.025   5.820  0.2065  0.5281 -0.5672
 5983SOL    HW118848   1.177   0.018   5.808  0.3060  0.1917 -1.2098
 5983SOL    HW218849   1.322  -0.035   5.756  0.8864  1.8250 -1.3405
 5984SOL     OW18850   6.927   4.384   6.358 -0.4487  0.2060 -0.6059
 5984SOL    HW118851   6.866   4.306   6.363 -1.4620  1.0398  1.3409
 5984SOL    HW218852   7.013   4.362   6.405 -0.7895  0.2956  0.0676
 5985SOL     OW18853   5.655   2.616   2.490 -0.5042 -0.1529  0.0629
 5985SOL    HW118854   5.666   2.715   2.475  0.3794 -0.0930  1.0029
 5985SOL    HW218855   5.558   2.593   2.488 -0.6581  0.4924 -1.6094
 5986SOL     OW18856   2.606   3.881   1.569  0.0783  0.3468 -0.0390
 5986SOL    HW118857   2.692   3.836   1.595 -0.1529  0.3513  0.7601
 5986SOL    HW218858   2.530   3.817   1.580 -0.0694  0.4573 -0.3916
 5987SOL     OW18859   6.370   0.722   6.374 -0.2595  0.4153 -0.1089
 5987SOL    HW118860   6.363   0.698   6.278  1.9459  0.2053 -0.2765
 5987SOL    HW218861   6.337   0.816   6.388 -1.9385 -0.0467 -0.7786
 5988SOL     OW18862   3.286   4.421   5.831  0.5960  0.1350  0.2679
 5988SOL    HW118863   3.191   4.420   5.801  1.1083  1.0403 -1.5278
 5988SOL    HW218864   3.290   4.415   5.930 -1.3084 -0.3426  0.3481
 5989SOL     OW18865   2.646   6.998   6.780  0.0482 -0.5723  0.1965
 5989SOL    HW118866   2.678   7.061   6.709 -1.0341 -2.2634 -1.8744
 5989SOL    HW218867   2.724   6.950   6.820  0.7654  1.1129  0.9437
 5990SOL     OW18868   1.580   0.510   2.981 -0.0380  0.2220 -0.0136
 5990SOL    HW118869   1.666   0.514   3.030 -0.2565  1.4192  0.3011
 5990SOL    HW218870   1.528   0.594   2.997 -1.2762 -0.4840 -0.1711
 5991SOL     OW18871   4.129   5.606   4.222  0.2287  0.4536 -0.2064
 5991SOL    HW118872   4.099   5.700   4.235 -0.0271  0.2421  0.8470
 5991SOL    HW218873   4.072   5.561   4.153  0.0693  0.9379 -0.3889
 5992SOL     OW18874   2.280   1.272   2.557 -0.1207  0.0536 -0.0940
 5992SOL    HW118875   2.308   1.187   2.511 -0.1570 -0.9264  1.6107
 5992SOL    HW218876   2.291   1.349   2.494  2.2785 -0.8618 -0.9284
 5993SOL     OW18877   1.751   5.113   4.588 -0.5345 -0.4672 -0.4233
 5993SOL    HW118878   1.704   5.103   4.500 -1.8220 -0.2618  0.2184
 5993SOL    HW218879   1.756   5.210   4.612 -0.5658 -0.5496 -0.0787
 5994SOL     OW18880   6.569   1.387   0.848  0.3863  0.3205  0.4990
 5994SOL    HW118881   6.546   1.291   0.864  1.8685  0.0577  1.2680
 5994SOL    HW218882   6.506   1.425   0.781  0.8372 -1.6727 -1.1742
 5995SOL     OW18883   2.459   5.545   2.538 -0.2628 -0.4071 -0.6020
 5995SOL    HW118884   2.416   5.489   2.609 -0.2644 -1.3543 -1.3291
 5995SOL    HW218885   2.394   5.561   2.464 -0.3778  0.8793 -0.2540
 5996SOL     OW18886   1.817   6.842   4.386  0.4712  0.0200  0.0484
 5996SOL    HW118887   1.745   6.788   4.430  1.3927 -1.6744 -0.4408
 5996SOL    HW218888   1.802   6.843   4.287  3.1718 -3.8440 -0.6229
 5997SOL     OW18889   6.672   6.363   0.843 -0.1957  0.0227  0.4655
 5997SOL    HW118890   6.710   6.276   0.813  1.3286  0.5196  0.8731
 5997SOL    HW218891   6.744   6.419   0.884 -1.5821  0.5406  2.3552
 5998SOL     OW18892   5.290   4.742   4.370 -0.8606 -0.3771 -0.3755
 5998SOL    HW118893   5.256   4.817   4.315  0.8887  0.3864 -0.4822
 5998SOL    HW218894   5.390   4.738   4.364 -0.7649 -1.5157  1.1448
 5999SOL     OW18895   2.128   3.446   2.733  0.3155  0.6276 -0.0436
 5999SOL    HW118896   2.074   3.523   2.768  0.5064  0.7159  0.0592
 5999SOL    HW218897   2.208   3.431   2.792  0.7916  0.9545 -0.5895
 6000SOL     OW18898   4.016   2.061   4.748 -0.9185  0.1018 -0.3485
 6000SOL    HW118899   4.055   1.989   4.691  0.2208  0.8221 -0.5253
 6000SOL    HW218900   4.088   2.101   4.805 -1.9283 -0.2496  1.2496
 6001SOL     OW18901   4.924   3.206   0.149  0.9544 -0.1917  0.9090
 6001SOL    HW118902   4.993   3.197   0.221  1.7716 -1.3321  0.0160
 6001SOL    HW218903   4.947   3.285   0.092  0.3571  0.6591  1.8055
 6002SOL     OW18904   1.659   5.192   1.633 -0.0626 -0.6054  0.1583
 6002SOL    HW118905   1.695   5.241   1.554  1.3436  3.2300  2.8654
 6002SOL    HW218906   1.564   5.218   1.648  0.6655  1.5053  1.5592
 6003SOL     OW18907   6.557   3.666   4.965 -0.1196  0.6682  0.4478
 6003SOL    HW118908   6.630   3.733   4.979  1.0485 -0.4650 -0.0803
 6003SOL    HW218909   6.549   3.645   4.868 -1.2235  0.8410  0.4911
 6004SOL     OW18910   0.917   3.642   2.698 -0.3527  0.2731 -0.1223
 6004SOL    HW118911   0.848   3.689   2.754 -0.6174 -0.0899 -0.1374
 6004SOL    HW218912   0.964   3.574   2.753 -1.3281 -0.8201 -0.5717
 6005SOL     OW18913   1.925   6.811   1.735 -0.2416 -0.0771 -0.4651
 6005SOL    HW118914   1.900   6.757   1.654 -0.2685 -0.0991 -0.4423
 6005SOL    HW218915   2.022   6.836   1.730 -0.8196  2.1254 -1.7794
 6006SOL     OW18916   2.177   5.690   6.940 -0.1464  0.1220  0.4262
 6006SOL    HW118917   2.116   5.698   6.861 -0.9784 -0.7339  0.9614
 6006SOL    HW218918   2.251   5.625   6.919 -0.3043 -0.0221  0.3143
 6007SOL     OW18919   0.132   1.989   5.565  0.2010 -0.6025  0.0440
 6007SOL    HW118920   0.190   1.970   5.486 -1.1262  1.0189 -1.4053
 6007SOL    HW218921   0.053   1.928   5.564  1.0195 -1.7250  1.1170
 6008SOL     OW18922   5.748   2.992   2.101 -0.2787  0.0790 -0.3758
 6008SOL    HW118923   5.822   3.006   2.035 -0.3311 -0.7995 -0.6358
 6008SOL    HW218924   5.786   2.955   2.186 -0.4124 -0.3743 -0.5101
 6009SOL     OW18925   3.055   0.803   5.088  0.2674 -0.1355  0.2243
 6009SOL    HW118926   3.127   0.871   5.102  0.4061 -0.2517  0.0928
 6009SOL    HW218927   2.978   0.844   5.040 -0.4233  0.3991  1.7260
 6010SOL     OW18928   1.967   6.369   2.612 -0.3509  0.3476  0.4319
 6010SOL    HW118929   1.885   6.316   2.592 -0.0426 -0.9142  2.2808
 6010SOL    HW218930   2.043   6.335   2.556 -0.7483  0.5931 -0.2693
 6011SOL     OW18931   5.949   3.067   2.374  0.0239  0.3488  0.0692
 6011SOL    HW118932   5.980   3.037   2.284 -1.0441  1.6164 -0.7845
 6011SOL    HW218933   5.964   2.995   2.441 -0.2086 -1.0830 -1.3541
 6012SOL     OW18934   6.742   2.701   1.693  0.3859  0.0408 -0.3758
 6012SOL    HW118935   6.659   2.675   1.741 -0.1571  0.8021 -0.8774
 6012SOL    HW218936   6.812   2.630   1.704 -0.9128 -1.4505 -1.4221
 6013SOL     OW18937   5.900   1.570   1.781 -0.2418 -0.6658  0.1531
 6013SOL    HW118938   5.994   1.572   1.745  0.6926  1.1216  2.4058
 6013SOL    HW218939   5.845   1.640   1.736 -0.3701 -1.3842 -0.8260
 6014SOL     OW18940   6.046   2.592   5.295 -0.0809  0.1933  0.6199
 6014SOL    HW118941   6.132   2.623   5.255  0.0684 -1.6558 -0.6263
 6014SOL    HW218942   6.065   2.541   5.380  0.3146 -1.8066 -0.5930
 6015SOL     OW18943   6.707   6.964   4.023 -0.7155 -0.2812 -0.2636
 6015SOL    HW118944   6.719   7.021   4.105 -2.3937 -0.9602  0.5164
 6015SOL    HW218945   6.629   6.903   4.037 -0.6422 -0.8613 -2.1524
 6016SOL     OW18946   6.844   0.197   0.759  0.4701  0.3448  0.1052
 6016SOL    HW118947   6.834   0.285   0.712 -0.2932 -0.2244 -0.8135
 6016SOL    HW218948   6.896   0.211   0.844 -0.9247  1.9656  0.7631
 6017SOL     OW18949   6.553   2.842   3.743 -0.3697 -0.4174  0.5399
 6017SOL    HW118950   6.469   2.863   3.792 -0.2302 -0.7575  0.9389
 6017SOL    HW218951   6.624   2.908   3.768 -1.1034  1.2000 -1.4483
 6018SOL     OW18952   3.573   5.752   1.116 -0.1177  0.1304  0.1841
 6018SOL    HW118953   3.645   5.722   1.178 -0.1265 -0.7656 -0.2135
 6018SOL    HW218954   3.532   5.836   1.150  0.0096 -0.2334  1.2856
 6019SOL     OW18955   0.303   0.833   4.932 -0.1636  0.0823  0.2354
 6019SOL    HW118956   0.210   0.866   4.915 -0.8722 -0.1760  3.1571
 6019SOL    HW218957   0.369   0.899   4.895 -1.5145  1.4635  0.1990
 6020SOL     OW18958   3.240   0.791   4.333  0.3100 -0.5501  0.1465
 6020SOL    HW118959   3.314   0.754   4.277  1.2567 -4.1985  3.4285
 6020SOL    HW218960   3.267   0.880   4.369  1.4555 -0.1200 -1.6572
 6021SOL     OW18961   1.413   0.662   2.224  0.3168  0.0521  1.0921
 6021SOL    HW118962   1.426   0.570   2.188  2.5649  0.2059  1.4037
 6021SOL    HW218963   1.481   0.681   2.294  1.7577  2.8793 -0.8669
 6022SOL     OW18964   5.226   1.256   4.232  0.1157 -0.5131  0.7858
 6022SOL    HW118965   5.200   1.162   4.210 -0.0283 -0.1584 -0.6355
 6022SOL    HW218966   5.150   1.317   4.213  0.8873  0.1371 -0.3487
 6023SOL     OW18967   1.640   2.407   2.259 -0.4171  0.3834  0.1218
 6023SOL    HW118968   1.623   2.498   2.222  1.3733  0.9520  0.6133
 6023SOL    HW218969   1.696   2.355   2.195  0.6155  0.5029  0.9085
 6024SOL     OW18970   6.656   5.558   2.476  0.1776  0.2448 -0.2867
 6024SOL    HW118971   6.569   5.606   2.470 -0.5257 -1.1085 -1.4505
 6024SOL    HW218972   6.731   5.623   2.460 -0.5754  1.4551  0.8920
 6025SOL     OW18973   4.142   0.380   2.986  0.3622 -0.3028  0.1976
 6025SOL    HW118974   4.140   0.305   3.053  3.3938  0.5943  1.4697
 6025SOL    HW218975   4.229   0.379   2.937 -0.4343  1.1097 -1.3382
 6026SOL     OW18976   0.949   3.038   6.191 -0.0372 -0.3793  0.0952
 6026SOL    HW118977   0.957   3.127   6.236 -0.1994  1.3316 -2.9666
 6026SOL    HW218978   1.033   3.019   6.140 -1.8952  0.9311 -3.8877
 6027SOL     OW18979   3.196   5.270   6.616 -0.5186  0.5180  0.5655
 6027SOL    HW118980   3.288   5.309   6.621 -1.1745  2.2555 -0.2906
 6027SOL    HW218981   3.180   5.234   6.524 -0.9112  0.7611  0.5406
 6028SOL     OW18982   2.037   4.033   5.926 -0.1285  0.3822  0.0123
 6028SOL    HW118983   2.060   3.974   6.004 -1.7936  1.2697  1.2471
 6028SOL    HW218984   1.948   4.007   5.889 -0.7666  1.8956  0.4061
 6029SOL     OW18985   3.063   5.338   6.996 -0.1160  0.6537  0.1836
 6029SOL    HW118986   2.978   5.390   7.008 -0.2032  0.4560  0.4337
 6029SOL    HW218987   3.047   5.263   6.933 -0.7576 -0.7881  1.9893
 6030SOL     OW18988   1.601   5.592   1.565 -0.3996 -0.3143  0.5588
 6030SOL    HW118989   1.693   5.569   1.596 -0.0578 -0.0510 -0.2406
 6030SOL    HW218990   1.536   5.526   1.602  0.2750 -1.2728  0.0723
 6031SOL     OW18991   6.325   1.157   4.176 -0.1064  0.1311 -0.4411
 6031SOL    HW118992   6.274   1.108   4.106 -0.0458 -1.9185  0.8744
 6031SOL    HW218993   6.263   1.217   4.227 -0.9445 -1.1864  0.1453
 6032SOL     OW18994   0.855   0.440   0.440  0.7289  0.4641 -0.2490
 6032SOL    HW118995   0.886   0.476   0.528 -2.2118  0.6827  0.8141
 6032SOL    HW218996   0.866   0.341   0.439 -0.0767  0.3452  0.7937
 6033SOL     OW18997   0.179   5.802   3.995  0.2099 -0.3276 -0.3712
 6033SOL    HW118998   0.187   5.747   4.078 -0.1082 -0.9778 -0.7659
 6033SOL    HW218999   0.165   5.742   3.916 -0.8860  0.3443 -0.7157
 6034SOL     OW19000   3.895   5.504   6.072 -0.0679 -0.0266 -0.6478
 6034SOL    HW119001   3.816   5.448   6.048  0.4783 -0.2773 -1.9532
 6034SOL    HW219002   3.974   5.445   6.088 -0.0221  0.2512  0.1955
 6035SOL     OW19003   3.376   6.800   2.526  0.0416 -0.6732 -0.1944
 6035SOL    HW119004   3.318   6.813   2.445 -0.1613 -1.3760 -0.1711
 6035SOL    HW219005   3.443   6.728   2.508  0.7328 -0.0573 -0.1205
 6036SOL     OW19006   5.264   1.426   4.862  0.1575  0.4160 -0.0035
 6036SOL    HW119007   5.243   1.331   4.885  0.4878  0.2504 -0.3809
 6036SOL    HW219008   5.335   1.461   4.923  0.6084  0.1655 -0.3824
 6037SOL     OW19009   0.275   5.572   5.179  0.6754  0.5063  0.6077
 6037SOL    HW119010   0.281   5.664   5.216  0.0334 -0.2092  2.5922
 6037SOL    HW219011   0.344   5.514   5.221  1.5110  0.1842 -1.1030
 6038SOL     OW19012   5.576   3.431   6.466  0.3014  0.1246 -0.0041
 6038SOL    HW119013   5.630   3.408   6.547  0.5662 -1.3222 -0.5538
 6038SOL    HW219014   5.498   3.369   6.459 -0.4016  1.0153 -0.2158
 6039SOL     OW19015   3.519   2.902   3.624  0.1464 -0.1371 -0.4672
 6039SOL    HW119016   3.577   2.880   3.703  0.1455  0.3927 -0.3131
 6039SOL    HW219017   3.436   2.947   3.657  0.4199  0.6265 -0.8197
 6040SOL     OW19018   1.569   1.123   0.871 -0.1139  0.0157  0.0542
 6040SOL    HW119019   1.622   1.175   0.938 -1.4110  2.4199 -0.6701
 6040SOL    HW219020   1.526   1.045   0.916 -0.0047  0.8968  1.7681
 6041SOL     OW19021   3.159   3.075   6.283  0.2466 -0.6974  0.2122
 6041SOL    HW119022   3.102   3.130   6.344  0.9783  0.6291 -0.2399
 6041SOL    HW219023   3.147   2.978   6.303 -1.7949 -0.4344  0.4281
 6042SOL     OW19024   4.215   4.826   4.141 -0.5119 -0.0503  0.2663
 6042SOL    HW119025   4.238   4.738   4.099 -1.7404 -0.6706  0.8599
 6042SOL    HW219026   4.118   4.847   4.125 -0.4836  0.7088  1.0003
 6043SOL     OW19027   5.682   2.268   1.923  0.1105  0.3457 -0.0730
 6043SOL    HW119028   5.685   2.222   2.011  1.9678  0.2234 -0.1472
 6043SOL    HW219029   5.767   2.319   1.909 -0.9793  2.0329 -0.9396
 6044SOL     OW19030   1.374   0.670   0.252 -0.0786  0.3074 -1.0163
 6044SOL    HW119031   1.427   0.585   0.255 -0.4387  0.1033  0.1473
 6044SOL    HW219032   1.436   0.747   0.239  0.6001  0.1056  0.7002
 6045SOL     OW19033   5.802   3.335   5.427  0.2682  0.2952 -0.0954
 6045SOL    HW119034   5.709   3.358   5.455  0.7809  1.2398  0.9225
 6045SOL    HW219035   5.839   3.266   5.488 -0.1367 -0.9291 -1.1907
 6046SOL     OW19036   1.400   3.224   6.670 -0.2964 -0.0662 -0.2798
 6046SOL    HW119037   1.427   3.176   6.754  0.6432  0.3207 -0.3589
 6046SOL    HW219038   1.306   3.197   6.646 -0.2690 -0.8329  0.4193
 6047SOL     OW19039   1.776   6.738   6.720  0.3030  1.0389 -0.0151
 6047SOL    HW119040   1.683   6.706   6.735  0.3778  1.3433  1.2051
 6047SOL    HW219041   1.795   6.741   6.622 -0.8347  0.6031 -0.2601
 6048SOL     OW19042   5.326   6.002   3.985 -0.0794 -0.0517 -0.2299
 6048SOL    HW119043   5.324   5.907   3.954  0.8346 -0.0843 -0.2367
 6048SOL    HW219044   5.373   6.058   3.917 -2.5011  0.8397 -1.2625
 6049SOL     OW19045   6.532   5.439   1.963 -0.4065 -0.2186 -0.0860
 6049SOL    HW119046   6.508   5.490   1.880 -1.8229 -1.7506 -0.6704
 6049SOL    HW219047   6.566   5.349   1.938 -1.6012 -1.0101  0.9750
 6050SOL     OW19048   5.444   4.393   6.784 -0.5565 -0.2612  0.2358
 6050SOL    HW119049   5.360   4.446   6.793  0.2802  1.7908 -2.5482
 6050SOL    HW219050   5.421   4.297   6.766 -2.2290 -0.0302  0.9469
 6051SOL     OW19051   2.058   2.007   2.774  0.1825 -0.3918 -0.3766
 6051SOL    HW119052   2.118   1.927   2.777 -1.1602 -1.5792 -2.6745
 6051SOL    HW219053   2.106   2.083   2.730  0.5797 -0.7498 -0.5667
 6052SOL     OW19054   0.188   2.128   6.878 -0.7761  0.1456 -0.1614
 6052SOL    HW119055   0.122   2.092   6.812 -0.6712  0.1239 -0.2536
 6052SOL    HW219056   0.151   2.116   6.971 -1.1179  0.5787 -0.2366
 6053SOL     OW19057   1.010   6.052   0.548 -0.0860  0.1706  0.2042
 6053SOL    HW119058   0.996   6.016   0.456  0.5803  0.2859  0.0499
 6053SOL    HW219059   0.948   6.129   0.563 -0.4377 -0.0652 -0.0227
 6054SOL     OW19060   0.322   2.590   0.455  0.8724 -0.5925 -1.3885
 6054SOL    HW119061   0.272   2.583   0.369 -1.3238  0.4246 -0.2493
 6054SOL    HW219062   0.282   2.528   0.522  0.1978  1.2252 -0.0507
 6055SOL     OW19063   5.957   6.247   2.111 -0.0416  0.1084  0.6051
 6055SOL    HW119064   5.954   6.289   2.201  1.7979  1.2461  0.1895
 6055SOL    HW219065   6.032   6.181   2.107 -1.5160 -1.6557  0.5532
 6056SOL     OW19066   4.307   2.332   0.559  0.6440 -0.4432  0.1070
 6056SOL    HW119067   4.231   2.271   0.579  0.3135  0.2469  1.0391
 6056SOL    HW219068   4.274   2.426   0.553  1.2289 -0.2742 -0.7636
 6057SOL     OW19069   5.013   5.908   6.805 -0.0344  0.5216 -0.5963
 6057SOL    HW119070   5.061   5.832   6.763 -3.8053 -1.8506 -1.0287
 6057SOL    HW219071   5.048   5.994   6.768  1.0305 -1.1868 -3.9445
 6058SOL     OW19072   5.668   1.050   5.607  0.5805  1.5149  0.4924
 6058SOL    HW119073   5.766   1.050   5.588  0.2482  0.9349 -1.4162
 6058SOL    HW219074   5.632   1.143   5.595  1.0081  1.8991  1.9989
 6059SOL     OW19075   0.779   5.277   6.545  0.0824  0.2444  0.3086
 6059SOL    HW119076   0.851   5.283   6.475 -0.1635 -0.5330 -0.0110
 6059SOL    HW219077   0.697   5.323   6.512  0.5805  1.6159  0.8892
 6060SOL     OW19078   2.895   4.857   4.713 -0.1229  0.0513 -0.1425
 6060SOL    HW119079   2.812   4.802   4.725  0.6754 -1.1466  0.0690
 6060SOL    HW219080   2.927   4.890   4.802 -0.0659  0.0397 -0.1583
 6061SOL     OW19081   2.130   1.483   0.724 -0.5824 -0.8862  0.3042
 6061SOL    HW119082   2.061   1.509   0.792 -0.6639  0.6530 -0.3266
 6061SOL    HW219083   2.109   1.527   0.636  0.4652 -1.4618 -0.2575
 6062SOL     OW19084   1.206   5.482   2.818 -0.7289  0.3307  0.5656
 6062SOL    HW119085   1.177   5.509   2.727  1.2905  1.4736  0.2127
 6062SOL    HW219086   1.278   5.543   2.850 -1.1226 -0.2758  2.7903
 6063SOL     OW19087   0.508   5.853   1.710 -0.4204  0.5378 -0.1523
 6063SOL    HW119088   0.471   5.935   1.754  1.5389  0.6308  1.4537
 6063SOL    HW219089   0.598   5.833   1.748 -0.8277 -2.3792 -0.5137
 6064SOL     OW19090   1.279   5.501   0.760 -0.1652 -0.3345  0.1522
 6064SOL    HW119091   1.293   5.502   0.661  1.1647  0.0481  0.3161
 6064SOL    HW219092   1.366   5.481   0.805 -0.6679 -0.0975  1.2540
 6065SOL     OW19093   5.371   0.515   6.773  0.3761  0.2996  0.0902
 6065SOL    HW119094   5.285   0.477   6.808 -1.2853  0.7289 -3.1246
 6065SOL    HW219095   5.356   0.609   6.744  2.5275  1.0618  1.3120
 6066SOL     OW19096   5.339   3.231   3.634  0.2941 -0.7675 -0.9365
 6066SOL    HW119097   5.284   3.168   3.689  0.8297  1.2429  2.1519
 6066SOL    HW219098   5.355   3.191   3.544 -1.7698 -3.7027 -0.1594
 6067SOL     OW19099   2.576   1.792   2.037 -0.0501  0.0574  0.0636
 6067SOL    HW119100   2.619   1.840   2.113  2.4215  1.7408 -2.1999
 6067SOL    HW219101   2.477   1.787   2.052  0.2659  1.0005  2.9615
 6068SOL     OW19102   6.499   0.211   4.642  0.5331 -0.0301  0.3774
 6068SOL    HW119103   6.500   0.180   4.737  3.0846 -0.9520  0.1322
 6068SOL    HW219104   6.405   0.231   4.614 -0.3484 -0.3816  2.8620
 6069SOL     OW19105   5.972   4.724   2.734  0.0760 -0.5226 -0.0738
 6069SOL    HW119106   5.878   4.702   2.758 -0.4779  2.3116  0.7243
 6069SOL    HW219107   5.974   4.809   2.681  2.1226 -1.1341 -1.0828
 6070SOL     OW19108   4.593   3.885   1.697  0.1035  0.4077 -0.1767
 6070SOL    HW119109   4.631   3.792   1.704  0.5491  0.3785 -2.2770
 6070SOL    HW219110   4.513   3.883   1.636 -0.1098  1.3464  0.0630
 6071SOL     OW19111   6.890   6.769   5.027 -0.8081  0.0723  0.1049
 6071SOL    HW119112   6.968   6.814   4.984 -0.5544 -2.3352 -2.1763
 6071SOL    HW219113   6.895   6.782   5.126  2.4343  0.1324  0.0551
 6072SOL     OW19114   5.690   1.629   1.505  0.6746  0.5579  0.4286
 6072SOL    HW119115   5.594   1.605   1.488  0.6826  1.0665 -0.4010
 6072SOL    HW219116   5.717   1.702   1.443  1.5521  0.5445  0.7863
 6073SOL     OW19117   5.705   1.181   0.395  0.3337 -0.0574 -0.6768
 6073SOL    HW119118   5.721   1.097   0.447  0.2516  0.3734  0.0599
 6073SOL    HW219119   5.610   1.182   0.363  0.5328 -0.5732 -1.3071
 6074SOL     OW19120   4.406   0.900   4.847 -0.1632 -0.1696 -0.1999
 6074SOL    HW119121   4.319   0.892   4.896  0.4215 -2.1048  0.5894
 6074SOL    HW219122   4.390   0.898   4.749 -0.8968 -3.0834 -0.1053
 6075SOL     OW19123   3.871   3.376   6.759  0.1897  0.4570  0.4262
 6075SOL    HW119124   3.908   3.283   6.768  1.2338  0.8917  0.7247
 6075SOL    HW219125   3.942   3.437   6.726 -0.8089  0.9452 -0.9097
 6076SOL     OW19126   2.845   0.105   5.043 -0.3008 -0.4033  0.4589
 6076SOL    HW119127   2.831   0.126   4.946  0.2105 -2.2175 -0.0348
 6076SOL    HW219128   2.784   0.162   5.098 -0.2627  1.0069 -0.8748
 6077SOL     OW19129   6.282   0.643   3.096  0.1518  0.3557  0.2956
 6077SOL    HW119130   6.322   0.581   3.029  0.2868 -1.5080  2.0209
 6077SOL    HW219131   6.188   0.663   3.070  0.1703 -0.4175 -0.4160
 6078SOL     OW19132   3.498   4.998   2.887 -0.2369 -0.1307 -0.2750
 6078SOL    HW119133   3.576   4.955   2.934  0.3278  1.0855 -0.0428
 6078SOL    HW219134   3.509   4.988   2.788  0.5140  0.4874 -0.2678
 6079SOL     OW19135   3.712   2.317   6.878 -0.2106 -0.4542  0.0523
 6079SOL    HW119136   3.805   2.311   6.914  0.3574  0.7834 -1.1354
 6079SOL    HW219137   3.703   2.258   6.798  0.1472  0.8683 -0.9895
 6080SOL     OW19138   5.554   2.441   3.388  0.0561  0.1462 -0.1128
 6080SOL    HW119139   5.584   2.475   3.477  1.2523  0.0522 -0.4638
 6080SOL    HW219140   5.602   2.491   3.316  0.1334 -0.7209 -0.6750
 6081SOL     OW19141   1.237   4.563   3.901 -0.7919 -0.6787 -0.2452
 6081SOL    HW119142   1.329   4.594   3.877 -1.6645  1.4512 -1.0499
 6081SOL    HW219143   1.243   4.501   3.980  1.1830  1.0348  1.0712
 6082SOL     OW19144   5.223   3.120   4.627 -0.1764  0.5853 -0.1229
 6082SOL    HW119145   5.269   3.075   4.549 -2.0739 -0.3676 -0.7446
 6082SOL    HW219146   5.125   3.106   4.620 -0.6065  2.6467  1.1377
 6083SOL     OW19147   0.878   5.425   0.723 -0.0824  0.6822 -0.3070
 6083SOL    HW119148   0.932   5.497   0.678  0.1834 -0.8249 -2.5967
 6083SOL    HW219149   0.932   5.341   0.729 -1.2647 -0.1001 -0.1819
 6084SOL     OW19150   0.873   4.780   6.101 -0.0150  0.5780  0.0155
 6084SOL    HW119151   0.910   4.696   6.060 -1.1281  0.6760 -1.2748
 6084SOL    HW219152   0.835   4.759   6.190  2.1820  0.2868  0.9599
 6085SOL     OW19153   6.542   4.051   1.082 -0.9626 -0.1692  0.4429
 6085SOL    HW119154   6.576   3.985   1.148  0.8836  0.9293  0.6651
 6085SOL    HW219155   6.613   4.119   1.062 -1.8982  0.2900 -1.7022
 6086SOL     OW19156   3.757   1.268   1.195 -0.1732 -0.1115 -0.7237
 6086SOL    HW119157   3.684   1.248   1.130  0.5412 -1.5619 -1.1422
 6086SOL    HW219158   3.733   1.348   1.250 -1.7774 -0.1814 -1.2726
 6087SOL     OW19159   4.636   3.194   0.154  0.2970  0.2361  0.1427
 6087SOL    HW119160   4.727   3.152   0.153  0.2162  0.0465  0.4906
 6087SOL    HW219161   4.568   3.125   0.129  0.3161  0.5633 -0.8564
 6088SOL     OW19162   0.651   6.203   4.172  0.1164  0.3828  0.0615
 6088SOL    HW119163   0.676   6.130   4.235 -1.7381  1.4531  2.1541
 6088SOL    HW219164   0.697   6.288   4.198  1.2067  0.3475 -1.5511
 6089SOL     OW19165   0.779   3.391   2.132  0.0708  0.3759 -0.3773
 6089SOL    HW119166   0.683   3.378   2.107  0.4647 -0.2469 -1.6862
 6089SOL    HW219167   0.808   3.483   2.105 -0.1259  0.5182 -0.1001
 6090SOL     OW19168   6.211   0.331   4.915 -0.5002 -0.6466 -0.0569
 6090SOL    HW119169   6.281   0.305   4.982  0.8578  1.3809 -0.5853
 6090SOL    HW219170   6.160   0.250   4.886  1.3792 -2.1505  0.6645
 6091SOL     OW19171   6.703   2.267   1.783  0.1053  0.2716  0.0936
 6091SOL    HW119172   6.728   2.258   1.879 -0.9280  2.3202  0.6219
 6091SOL    HW219173   6.717   2.362   1.755 -2.8056  0.5087 -0.8023
 6092SOL     OW19174   0.580   5.605   0.645  0.5191 -0.4352 -0.0776
 6092SOL    HW119175   0.614   5.514   0.622  2.1626  0.1217  0.0573
 6092SOL    HW219176   0.533   5.602   0.733  0.6848 -1.1256 -0.0089
 6093SOL     OW19177   3.747   4.635   5.565  0.5152 -0.2989 -0.0705
 6093SOL    HW119178   3.703   4.645   5.654 -1.4830 -0.6580 -0.9682
 6093SOL    HW219179   3.687   4.584   5.503  0.6826  2.0915 -2.4112
 6094SOL     OW19180   5.902   1.575   0.262 -0.0266  0.2522  0.1433
 6094SOL    HW119181   5.822   1.551   0.317  0.6544 -1.7156  0.3579
 6094SOL    HW219182   5.875   1.583   0.166 -0.2642 -1.8869 -0.0089
 6095SOL     OW19183   1.992   3.229   2.678  0.8081  0.0147 -0.2105
 6095SOL    HW119184   2.019   3.317   2.716 -1.3265  0.3029  0.8156
 6095SOL    HW219185   2.052   3.157   2.715  2.1767  0.9231 -0.5835
 6096SOL     OW19186   6.657   4.132   4.038 -0.3835 -0.0890  0.4624
 6096SOL    HW119187   6.618   4.221   4.063  1.2493  0.8805 -0.2549
 6096SOL    HW219188   6.592   4.080   3.984 -0.5096  1.7034 -1.1905
 6097SOL     OW19189   4.006   1.781   2.565 -0.4229 -0.5765 -0.1583
 6097SOL    HW119190   3.963   1.845   2.502  0.3174  0.1163  0.0230
 6097SOL    HW219191   3.938   1.744   2.628 -1.3665 -1.9815 -1.9034
 6098SOL     OW19192   6.860   2.346   5.994  0.3227  0.4320  0.5575
 6098SOL    HW119193   6.878   2.262   5.944 -1.1360  0.3660  0.0968
 6098SOL    HW219194   6.944   2.377   6.040  1.9690  0.8911 -2.5019
 6099SOL     OW19195   0.065   5.848   3.191 -0.1432 -0.0347 -0.3645
 6099SOL    HW119196  -0.022   5.837   3.143  0.1376 -1.2837 -0.6101
 6099SOL    HW219197   0.139   5.851   3.124  0.0201  1.0992 -0.1590
 6100SOL     OW19198   1.183   3.527   1.133  0.9986 -0.2012 -0.3324
 6100SOL    HW119199   1.275   3.525   1.172  0.7201 -0.8039  0.3214
 6100SOL    HW219200   1.118   3.491   1.199  0.4645 -0.9578 -1.2399
 6101SOL     OW19201   5.834   5.614   3.515  0.8515 -0.0570  0.2059
 6101SOL    HW119202   5.799   5.590   3.425  2.8817 -0.8159 -0.4328
 6101SOL    HW219203   5.799   5.703   3.542  0.4104  0.2950 -1.4380
 6102SOL     OW19204   4.300   6.580   5.444 -0.2637  0.0969  0.3944
 6102SOL    HW119205   4.393   6.599   5.411 -0.0107 -1.0633  0.4035
 6102SOL    HW219206   4.239   6.568   5.366 -0.2499  0.0993  0.3832
 6103SOL     OW19207   4.846   0.449   5.401  0.3664 -0.0166 -0.0070
 6103SOL    HW119208   4.781   0.520   5.377 -0.5115 -1.6521 -2.8958
 6103SOL    HW219209   4.938   0.477   5.373  0.0858  0.1819 -0.7580
 6104SOL     OW19210   2.588   3.330   6.663 -0.1737  0.2763  0.3548
 6104SOL    HW119211   2.548   3.359   6.577 -0.6758 -1.7946 -0.1776
 6104SOL    HW219212   2.685   3.357   6.666 -0.0667  0.1183 -1.0050
 6105SOL     OW19213   4.458   6.397   6.609  0.0850  0.0184  0.1990
 6105SOL    HW119214   4.474   6.495   6.606  1.7513 -0.1750  1.2856
 6105SOL    HW219215   4.369   6.378   6.650  0.4542  1.0555  1.5301
 6106SOL     OW19216   1.062   0.290   4.549  0.6709 -0.1020  0.8535
 6106SOL    HW119217   1.119   0.370   4.531  0.1647  0.3012  1.0072
 6106SOL    HW219218   1.025   0.256   4.463 -0.6688  1.0136  0.9535
 6107SOL     OW19219   4.391   4.975   5.413  0.0403 -0.3743 -0.0972
 6107SOL    HW119220   4.440   4.937   5.334  0.6182  0.1942 -0.0190
 6107SOL    HW219221   4.402   5.074   5.415  0.5440 -0.4306  1.0305
 6108SOL     OW19222   0.477   1.268   4.056 -0.3651 -0.1729 -0.3466
 6108SOL    HW119223   0.504   1.274   3.960 -1.3649  1.1790 -0.5670
 6108SOL    HW219224   0.531   1.334   4.110 -1.7966  1.1712 -0.4833
 6109SOL     OW19225   0.031   0.100   2.091  0.0090 -0.2486  0.3949
 6109SOL    HW119226   0.053   0.011   2.052  0.5221  0.4512 -1.0121
 6109SOL    HW219227   0.087   0.170   2.046 -1.5423  0.9832  0.3062
 6110SOL     OW19228   2.191   2.345   3.151  0.1146  0.0960  0.2749
 6110SOL    HW119229   2.240   2.411   3.208  1.0922 -0.5082  0.1496
 6110SOL    HW219230   2.255   2.277   3.116 -0.5942  0.0389 -0.9700
 6111SOL     OW19231   0.831   2.561   3.642 -0.0008 -0.6931  0.3835
 6111SOL    HW119232   0.930   2.549   3.648  0.4770  2.2120 -0.1611
 6111SOL    HW219233   0.797   2.604   3.726 -0.7189 -1.1395  0.3312
 6112SOL     OW19234   1.514   1.926   1.099 -0.9573 -0.3486 -0.3738
 6112SOL    HW119235   1.441   1.978   1.053  2.0298  3.4624 -1.4045
 6112SOL    HW219236   1.558   1.866   1.033 -1.6334 -0.8985 -0.3419
 6113SOL     OW19237   1.007   3.841   5.983 -0.1152  0.2575  0.3248
 6113SOL    HW119238   1.046   3.932   5.992 -0.5827  0.6447 -1.3420
 6113SOL    HW219239   0.918   3.847   5.938 -0.7495 -0.9076  1.3513
 6114SOL     OW19240   4.687   4.931   0.243 -0.3031 -0.9265 -0.3672
 6114SOL    HW119241   4.686   4.989   0.325 -0.4832 -1.0323 -0.2946
 6114SOL    HW219242   4.647   4.981   0.167  2.5421  0.3435 -1.1967
 6115SOL     OW19243   0.141   4.836   2.043  0.2489 -0.1952 -0.0947
 6115SOL    HW119244   0.064   4.883   2.085 -0.2690 -0.5438 -0.6548
 6115SOL    HW219245   0.167   4.882   1.958  0.4318 -0.2876 -0.0901
 6116SOL     OW19246   2.414   1.717   1.383 -0.1149  0.2386  0.6915
 6116SOL    HW119247   2.377   1.720   1.476 -0.9425  1.0679  0.3611
 6116SOL    HW219248   2.500   1.666   1.382 -0.0770  0.2578  1.9103
 6117SOL     OW19249   2.864   6.564   3.684 -0.1771 -0.3579 -0.7588
 6117SOL    HW119250   2.938   6.545   3.748  0.5932 -2.6088 -2.2199
 6117SOL    HW219251   2.897   6.557   3.590 -2.2925 -1.8329 -1.4737
 6118SOL     OW19252   5.799   6.983   3.100 -0.1947  0.4481  0.2684
 6118SOL    HW119253   5.790   7.046   3.177  1.6377  0.1698  0.7541
 6118SOL    HW219254   5.712   6.978   3.050 -1.8155 -0.2534  2.9763
 6119SOL     OW19255   6.994   4.606   5.648  0.3674  0.0913 -0.0274
 6119SOL    HW119256   7.086   4.569   5.635  0.0215 -0.6126 -0.5875
 6119SOL    HW219257   6.947   4.553   5.719 -0.6272 -1.5708 -1.8097
 6120SOL     OW19258   2.773   0.821   1.556 -0.1214  0.6330 -0.3923
 6120SOL    HW119259   2.718   0.811   1.473 -0.2894  0.0273 -0.2188
 6120SOL    HW219260   2.749   0.748   1.620  0.5173  0.6702 -0.1031
 6121SOL     OW19261   1.585   1.616   2.553  0.0516 -0.3595  0.0346
 6121SOL    HW119262   1.493   1.654   2.559  0.5934  1.1511 -0.5936
 6121SOL    HW219263   1.598   1.572   2.465 -0.4573 -1.7581  0.6225
 6122SOL     OW19264   2.789   5.165   6.158  0.6022 -0.4571 -0.0148
 6122SOL    HW119265   2.832   5.208   6.237  0.6708  0.3411 -0.4793
 6122SOL    HW219266   2.855   5.103   6.115  0.5887 -0.8398  0.4998
 6123SOL     OW19267   6.140   2.193   6.831 -0.6450 -0.1523  0.3160
 6123SOL    HW119268   6.142   2.095   6.852 -1.5772 -0.7874 -2.1176
 6123SOL    HW219269   6.084   2.208   6.749  0.0419  2.3527  0.2172
 6124SOL     OW19270   3.229   6.600   5.880  0.2287 -0.5929  0.2010
 6124SOL    HW119271   3.150   6.652   5.913  0.3836 -0.8490  1.0056
 6124SOL    HW219272   3.269   6.549   5.956  3.2036  2.0950  0.6553
 6125SOL     OW19273   0.202   4.617   4.234 -0.1281 -0.4905  1.0286
 6125SOL    HW119274   0.125   4.639   4.173  0.4476 -1.3684 -0.0697
 6125SOL    HW219275   0.174   4.630   4.329 -1.6141 -0.6883  0.6535
 6126SOL     OW19276   2.625   1.115   0.076  0.1410 -0.4712 -0.6536
 6126SOL    HW119277   2.603   1.166  -0.007  0.1176 -0.1939 -0.4781
 6126SOL    HW219278   2.565   1.035   0.082  1.7421 -1.8554 -2.1420
 6127SOL     OW19279   1.696   5.527   1.072  0.3628  0.0280  0.3031
 6127SOL    HW119280   1.660   5.581   1.147  0.2019 -0.4597  0.5817
 6127SOL    HW219281   1.654   5.557   0.986  0.2396  0.3084  0.4611
 6128SOL     OW19282   4.927   2.546   1.054  0.5890 -0.7265  0.0317
 6128SOL    HW119283   4.906   2.537   1.151  0.8948 -1.6153  0.0170
 6128SOL    HW219284   4.842   2.566   1.004  0.8498  3.3816  0.8672
 6129SOL     OW19285   6.603   3.809   4.456 -0.1370 -0.2219 -0.1585
 6129SOL    HW119286   6.565   3.898   4.431 -0.6009 -0.1758  0.6784
 6129SOL    HW219287   6.666   3.778   4.385 -1.1721  0.0449 -1.2106
 6130SOL     OW19288   6.360   2.809   3.526  0.3164  0.2163 -0.4119
 6130SOL    HW119289   6.333   2.858   3.443 -2.9665  0.2237  0.4972
 6130SOL    HW219290   6.367   2.873   3.602 -0.5305 -0.2219  0.0590
 6131SOL     OW19291   6.267   2.015   5.447 -0.0758  0.1380 -0.4547
 6131SOL    HW119292   6.176   1.979   5.466  0.0588  0.5284  0.9995
 6131SOL    HW219293   6.267   2.114   5.458  0.7518  0.0382  0.5630
 6132SOL     OW19294   6.461   2.334   0.088 -0.1677  0.5620 -0.4230
 6132SOL    HW119295   6.488   2.243   0.118  0.7973  0.8010 -0.5270
 6132SOL    HW219296   6.436   2.332  -0.009 -1.4962  0.1526 -0.0962
 6133SOL     OW19297   0.804   4.827   1.092  0.3664  0.0204 -0.3111
 6133SOL    HW119298   0.874   4.811   1.022  2.4410  1.8299  1.2177
 6133SOL    HW219299   0.733   4.887   1.054  1.0882  0.4051 -1.1072
 6134SOL     OW19300   5.346   4.820   5.518 -0.0802 -0.1540 -0.0941
 6134SOL    HW119301   5.351   4.900   5.459 -0.9532 -0.3245 -0.4090
 6134SOL    HW219302   5.377   4.739   5.468 -0.8600 -0.3058 -0.3391
 6135SOL     OW19303   0.045   0.461   2.116 -0.7229 -0.2274  0.1525
 6135SOL    HW119304  -0.004   0.548   2.104 -0.8089 -0.4141 -0.9694
 6135SOL    HW219305   0.005   0.411   2.193 -0.4854  0.8413  0.9932
 6136SOL     OW19306   2.004   1.758   1.371  0.3419 -0.0025  1.0025
 6136SOL    HW119307   1.938   1.749   1.446 -0.3414  1.8836  0.6732
 6136SOL    HW219308   2.082   1.813   1.402  1.0338 -0.9111  0.9129
 6137SOL     OW19309   5.115   0.277   6.255 -0.1860  0.3688 -0.1563
 6137SOL    HW119310   5.042   0.337   6.224  0.4065  0.3796 -1.6058
 6137SOL    HW219311   5.094   0.183   6.231 -0.7151  0.0603  1.3675
 6138SOL     OW19312   4.884   0.055   3.574 -0.3770  0.3071 -0.5234
 6138SOL    HW119313   4.816   0.039   3.645  0.1354  1.4539  0.2740
 6138SOL    HW219314   4.969   0.008   3.598 -0.6538 -0.5163 -1.1386
 6139SOL     OW19315   2.972   5.995   5.340 -0.5059 -0.4624  0.0774
 6139SOL    HW119316   2.882   6.035   5.328 -0.7435 -0.2202  2.2852
 6139SOL    HW219317   2.964   5.901   5.373  0.0364 -0.4412  0.2941
 6140SOL     OW19318   1.380   5.270   1.129  0.3710  0.2143  0.0254
 6140SOL    HW119319   1.354   5.180   1.095 -0.1907  1.0253 -1.7867
 6140SOL    HW219320   1.465   5.262   1.182  0.2549 -1.3769  0.0310
 6141SOL     OW19321   0.340   6.493   5.423  0.4894 -0.3992  0.2021
 6141SOL    HW119322   0.349   6.441   5.508 -1.5586 -1.3235 -0.0735
 6141SOL    HW219323   0.377   6.440   5.347  0.5786 -0.3988  0.2454
 6142SOL     OW19324   0.725   1.685   3.467  0.5481  0.7724  0.2123
 6142SOL    HW119325   0.774   1.768   3.442 -0.2103  1.1920  0.0898
 6142SOL    HW219326   0.626   1.699   3.455  0.4436 -0.3398 -0.3861
 6143SOL     OW19327   6.794   4.934   4.934  0.4436 -0.6703 -0.4548
 6143SOL    HW119328   6.829   5.019   4.896  1.0501  0.1985  1.8598
 6143SOL    HW219329   6.854   4.858   4.909  0.9395 -0.1035 -0.9893
 6144SOL     OW19330   6.776   4.931   0.035  0.1747 -0.2560 -0.0579
 6144SOL    HW119331   6.773   4.839   0.072  1.5689 -0.3067 -0.0050
 6144SOL    HW219332   6.685   4.959   0.005 -0.7908 -0.6356  2.3323
 6145SOL     OW19333   5.179   5.515   3.331 -0.1163 -0.2162  0.0889
 6145SOL    HW119334   5.210   5.579   3.261 -0.4156  0.4805  0.5791
 6145SOL    HW219335   5.085   5.487   3.311  0.7756 -2.3810 -1.4356
 6146SOL     OW19336   1.469   0.880   2.514  0.8236 -0.0552 -0.3887
 6146SOL    HW119337   1.544   0.851   2.573  1.0971  2.5607  0.6639
 6146SOL    HW219338   1.398   0.924   2.569 -0.2032 -0.0119 -1.6993
 6147SOL     OW19339   1.219   4.291   3.249  0.0730 -0.2706  0.2887
 6147SOL    HW119340   1.289   4.362   3.244 -2.3944  2.4966  1.4630
 6147SOL    HW219341   1.188   4.268   3.157  1.3801 -0.3328 -0.1483
 6148SOL     OW19342   4.675   5.738   3.805  0.1969  0.4533 -0.2363
 6148SOL    HW119343   4.676   5.822   3.860 -0.9324 -0.0001  0.5204
 6148SOL    HW219344   4.610   5.749   3.729 -0.0973  0.2089 -0.0242
 6149SOL     OW19345   6.764   5.879   3.457  0.5944  0.2672 -0.1132
 6149SOL    HW119346   6.804   5.803   3.405 -2.7926 -1.4158 -0.5938
 6149SOL    HW219347   6.708   5.934   3.395 -0.5431  0.4484  1.0425
 6150SOL     OW19348   5.147   0.369   6.525 -0.0361  0.8546  0.5624
 6150SOL    HW119349   5.138   0.349   6.427  0.1759  1.4311  0.4201
 6150SOL    HW219350   5.234   0.334   6.559 -0.8384 -0.8483  0.9397
 6151SOL     OW19351   3.798   0.332   5.921 -0.6470  0.1415  0.0734
 6151SOL    HW119352   3.809   0.364   6.015 -0.5632 -0.0814  0.1413
 6151SOL    HW219353   3.778   0.234   5.922  1.3319 -0.3049 -0.2252
 6152SOL     OW19354   5.029   2.015   6.450  1.0694  0.1699 -0.2536
 6152SOL    HW119355   5.044   1.978   6.359  0.9548  1.2329 -0.7165
 6152SOL    HW219356   5.058   2.111   6.453 -1.0978  0.8874  0.1384
 6153SOL     OW19357   4.090   5.330   6.151  0.2392  0.1424  0.4659
 6153SOL    HW119358   4.003   5.281   6.163  1.0934 -1.1788  1.6567
 6153SOL    HW219359   4.148   5.279   6.088  0.0954  1.1460 -0.5147
 6154SOL     OW19360   5.904   2.905   4.041 -0.1793 -0.1084  0.0549
 6154SOL    HW119361   5.811   2.915   4.006 -0.2479 -0.3954  0.1532
 6154SOL    HW219362   5.938   2.814   4.018  0.9691  0.8062 -2.1160
 6155SOL     OW19363   2.240   4.716   4.948  0.6559  0.0382 -0.0026
 6155SOL    HW119364   2.180   4.652   4.996 -1.2420  1.1612 -0.7587
 6155SOL    HW219365   2.186   4.769   4.883  2.6414  0.6016 -1.2694
 6156SOL     OW19366   5.854   0.788   3.423  0.0681 -0.1592 -0.1795
 6156SOL    HW119367   5.771   0.765   3.475  0.7912  0.1267  1.1591
 6156SOL    HW219368   5.849   0.883   3.392 -0.2755 -0.2654 -0.4580
 6157SOL     OW19369   3.048   0.352   3.954 -0.2111  0.6973  0.1463
 6157SOL    HW119370   2.955   0.386   3.970 -1.9952 -2.1160 -2.8730
 6157SOL    HW219371   3.056   0.260   3.991  0.6781  0.1633 -1.2866
 6158SOL     OW19372   4.675   6.116   0.452 -0.3939 -0.0948 -0.2727
 6158SOL    HW119373   4.647   6.030   0.495  0.0117 -0.6733 -1.1456
 6158SOL    HW219374   4.770   6.136   0.476 -0.4791  0.1014 -0.0933
 6159SOL     OW19375   4.469   3.934   0.127 -0.3119  0.5259  0.5300
 6159SOL    HW119376   4.493   3.901   0.036 -0.8683  0.9726  0.2127
 6159SOL    HW219377   4.441   3.857   0.185  0.0924  0.2352  0.3463
 6160SOL     OW19378   6.004   4.075   0.581  0.3817 -0.0288 -0.3622
 6160SOL    HW119379   6.048   4.006   0.639  1.3108  0.9754  0.1512
 6160SOL    HW219380   6.047   4.164   0.596 -0.1816  0.4925 -1.7024
 6161SOL     OW19381   4.133   1.068   0.076  0.2115  0.0453  0.1055
 6161SOL    HW119382   4.142   1.063  -0.023 -2.9310  1.7721 -0.4030
 6161SOL    HW219383   4.214   1.113   0.114  1.3929 -0.4811 -1.6771
 6162SOL     OW19384   5.438   0.315   2.911 -0.2117  0.1750 -0.0633
 6162SOL    HW119385   5.424   0.216   2.917 -3.1369  0.5184  0.1733
 6162SOL    HW219386   5.370   0.354   2.848 -0.0794  2.1949  0.9846
 6163SOL     OW19387   6.934   2.938   3.177  0.4921 -0.4415  0.2396
 6163SOL    HW119388   6.937   2.896   3.086  0.1515 -0.9467  0.4592
 6163SOL    HW219389   6.978   2.878   3.243  1.6748  0.3940  0.2366
 6164SOL     OW19390   4.658   4.463   1.293 -0.3706  0.3527 -0.4289
 6164SOL    HW119391   4.690   4.547   1.250  0.5285  0.8276  1.1046
 6164SOL    HW219392   4.721   4.389   1.273  0.3428  0.6993  0.5012
 6165SOL     OW19393   3.644   0.614   1.163  0.0626 -0.2211 -0.0756
 6165SOL    HW119394   3.660   0.613   1.064  1.7691  0.2379  0.1667
 6165SOL    HW219395   3.609   0.704   1.190  1.1320  0.1915 -0.0505
 6166SOL     OW19396   3.513   6.849   0.518 -0.3335  0.5414  0.2089
 6166SOL    HW119397   3.429   6.890   0.483 -0.5460 -0.2866 -0.2838
 6166SOL    HW219398   3.546   6.780   0.454  0.5506  0.6350  0.5528
 6167SOL     OW19399   0.454   3.307   3.805 -0.0970 -0.4150 -0.5974
 6167SOL    HW119400   0.549   3.303   3.774 -0.0035  0.1753 -0.4038
 6167SOL    HW219401   0.445   3.264   3.894  0.2342  0.6132 -0.0529
 6168SOL     OW19402   0.184   2.976   1.204  0.8166 -0.9704 -0.0143
 6168SOL    HW119403   0.222   2.967   1.295 -0.3093 -0.1458  0.5630
 6168SOL    HW219404   0.109   2.910   1.192 -0.5782  0.4588  0.5225
 6169SOL     OW19405   1.938   3.915   6.819  0.2793 -0.0007  0.0362
 6169SOL    HW119406   1.947   3.840   6.753  1.2859  1.6105 -1.7322
 6169SOL    HW219407   1.894   3.880   6.902  0.5216 -2.4892 -0.7878
 6170SOL     OW19408   5.387   3.988   3.271  0.2790 -0.6446  0.4755
 6170SOL    HW119409   5.336   4.007   3.187  1.6258 -0.5907 -0.3566
 6170SOL    HW219410   5.383   3.890   3.291 -1.6523 -0.4125  1.4491
 6171SOL     OW19411   6.311   2.210   0.714 -0.1883  0.2272  0.7223
 6171SOL    HW119412   6.322   2.285   0.648 -0.1428 -0.4566 -0.0600
 6171SOL    HW219413   6.381   2.140   0.696  1.5267  1.1935  3.1426
 6172SOL     OW19414   6.705   3.411   2.704  0.4491  0.2317 -0.1582
 6172SOL    HW119415   6.769   3.458   2.765 -2.0412 -0.2819  3.1043
 6172SOL    HW219416   6.732   3.315   2.696  1.5071  0.5725 -1.0227
 6173SOL     OW19417   0.845   0.028   1.727  0.5664  0.3168 -1.2405
 6173SOL    HW119418   0.852  -0.034   1.806  0.8736  1.5427 -0.2840
 6173SOL    HW219419   0.860   0.122   1.757  0.9397  0.7846 -2.8122
 6174SOL     OW19420   1.532   3.323   3.298 -0.1840  0.6110 -0.2702
 6174SOL    HW119421   1.537   3.373   3.384 -1.7741 -0.6304  0.6082
 6174SOL    HW219422   1.449   3.267   3.297 -0.9587  1.6064 -3.1844
 6175SOL     OW19423   4.228   3.050   6.397  0.4125 -0.4327 -0.1223
 6175SOL    HW119424   4.163   3.082   6.465  0.7312 -0.5941  0.2674
 6175SOL    HW219425   4.185   3.046   6.307  0.4389  1.3772 -0.2534
 6176SOL     OW19426   3.654   3.964   6.760  0.6467 -0.1820 -0.4085
 6176SOL    HW119427   3.625   3.920   6.846  0.6705  1.5999  0.5565
 6176SOL    HW219428   3.753   3.978   6.762  0.6670 -0.2580 -0.8002
 6177SOL     OW19429   5.107   4.119   0.169 -0.3213  0.0266  0.4405
 6177SOL    HW119430   5.134   4.179   0.244  1.2149  0.7379 -0.6107
 6177SOL    HW219431   5.035   4.057   0.199 -2.9740  3.2311  1.2253
 6178SOL     OW19432   4.203   3.932   1.368  0.2844  0.2790  0.6662
 6178SOL    HW119433   4.266   3.953   1.443 -0.6999  2.6747  0.9024
 6178SOL    HW219434   4.254   3.928   1.282  1.2007 -1.0576  1.2420
 6179SOL     OW19435   5.538   4.682   4.903 -0.3356 -0.5343  0.0695
 6179SOL    HW119436   5.474   4.653   4.832 -0.9947  0.0886  0.3955
 6179SOL    HW219437   5.497   4.755   4.957  0.8327  0.2120 -0.0027
 6180SOL     OW19438   2.451   2.922   6.268 -1.2966  0.0263 -0.4424
 6180SOL    HW119439   2.428   3.011   6.309  2.7131  1.9573 -1.8623
 6180SOL    HW219440   2.458   2.853   6.340 -0.7130  1.8091  1.3018
 6181SOL     OW19441   0.078   5.134   0.167  0.3206 -0.3598 -0.5096
 6181SOL    HW119442   0.002   5.098   0.222  1.8992  0.5822  2.5400
 6181SOL    HW219443   0.092   5.231   0.188  1.8297 -0.2962 -1.6249
 6182SOL     OW19444   1.885   1.573   5.955  0.5211 -0.2439 -0.0312
 6182SOL    HW119445   1.817   1.631   6.000 -0.1762 -0.0688 -1.2692
 6182SOL    HW219446   1.892   1.486   6.005 -0.0088  0.0494  0.5815
 6183SOL     OW19447   4.980   0.762   6.432 -0.1150 -0.2784 -0.4947
 6183SOL    HW119448   4.976   0.780   6.334  0.3938 -0.0717 -0.4824
 6183SOL    HW219449   4.890   0.780   6.473  0.4608  3.0033 -0.3853
 6184SOL     OW19450   3.120   5.975   5.086 -0.0882 -0.0977 -0.0821
 6184SOL    HW119451   3.208   6.001   5.126 -0.7440  1.7350  0.2837
 6184SOL    HW219452   3.054   5.960   5.159 -0.9166  1.8453 -0.3754
 6185SOL     OW19453   3.300   4.095   2.660 -0.6102  0.4376 -0.3266
 6185SOL    HW119454   3.294   4.160   2.584  0.7659 -1.4431 -2.1692
 6185SOL    HW219455   3.389   4.049   2.657 -1.1205 -0.7774  1.5462
 6186SOL     OW19456   1.079   2.045   1.433 -0.3277  0.1957  0.1607
 6186SOL    HW119457   1.114   2.082   1.347  1.9680  1.0175  1.3522
 6186SOL    HW219458   1.006   2.103   1.467  0.8921  1.7260  0.2870
 6187SOL     OW19459   1.914   1.060   6.634  0.2650  0.5542  0.9524
 6187SOL    HW119460   1.824   1.015   6.631  0.5677 -0.0432  0.3238
 6187SOL    HW219461   1.985   0.991   6.620  0.8480  0.9617  1.8673
 6188SOL     OW19462   0.854   1.411   4.804  0.0957 -0.2446  0.2386
 6188SOL    HW119463   0.796   1.483   4.844  0.5339  0.3560 -0.1942
 6188SOL    HW219464   0.856   1.421   4.705 -0.3699 -1.2678  0.1177
 6189SOL     OW19465   5.928   4.934   0.459 -0.3171 -0.5646 -0.2752
 6189SOL    HW119466   5.946   4.896   0.550 -1.5329 -1.2603 -0.2959
 6189SOL    HW219467   5.926   4.860   0.392 -0.1601 -0.1440 -0.7487
 6190SOL     OW19468   0.318   3.221   2.920  0.4351 -0.5034 -0.1036
 6190SOL    HW119469   0.251   3.148   2.902 -0.5792  0.6219 -1.1013
 6190SOL    HW219470   0.351   3.258   2.834 -0.2036  1.1972  0.3273
 6191SOL     OW19471   1.170   4.763   0.039  0.0445  0.1450 -0.5971
 6191SOL    HW119472   1.248   4.726  -0.012  0.2188 -0.5927  0.1832
 6191SOL    HW219473   1.114   4.688   0.073 -1.4959  0.6659 -1.8505
 6192SOL     OW19474   1.543   3.422   0.332 -0.0852  0.5409 -1.1541
 6192SOL    HW119475   1.507   3.450   0.243  2.0639  0.3864 -2.1383
 6192SOL    HW219476   1.490   3.466   0.405 -0.8995  1.9396 -2.5246
 6193SOL     OW19477   5.108   4.459   1.596 -0.1285  0.1059  0.1300
 6193SOL    HW119478   5.120   4.483   1.692  1.0390 -0.0453  0.0417
 6193SOL    HW219479   5.021   4.413   1.583  0.1449 -0.7825  1.2923
 6194SOL     OW19480   4.399   0.099   6.791 -0.0583 -0.1303 -0.5063
 6194SOL    HW119481   4.323   0.037   6.773 -3.2105  2.7657  1.5844
 6194SOL    HW219482   4.396   0.175   6.726  0.0430  0.7937  0.5343
 6195SOL     OW19483   4.366   4.524   0.213 -0.2937 -0.1132  0.2554
 6195SOL    HW119484   4.312   4.545   0.294 -1.5866  0.7058 -0.7658
 6195SOL    HW219485   4.431   4.599   0.196 -0.2450 -0.1340  0.3491
 6196SOL     OW19486   0.524   3.339   2.035 -0.3318  0.2199  0.9965
 6196SOL    HW119487   0.535   3.435   2.011 -1.0010  0.2197  0.6699
 6196SOL    HW219488   0.450   3.299   1.980  0.9741 -0.8840 -0.0208
 6197SOL     OW19489   6.712   6.032   1.770 -0.4784  0.1522  0.1816
 6197SOL    HW119490   6.785   6.065   1.830  0.2376  1.8924 -1.5456
 6197SOL    HW219491   6.663   5.957   1.815  1.7951 -0.4843  1.7339
 6198SOL     OW19492   4.892   0.543   1.683 -0.2663 -0.6113  0.5129
 6198SOL    HW119493   4.885   0.453   1.726  2.3307 -1.4868 -0.6801
 6198SOL    HW219494   4.865   0.537   1.587 -1.4772  0.2589  0.7734
 6199SOL     OW19495   2.459   5.745   5.600  0.4598 -0.5109 -0.1620
 6199SOL    HW119496   2.503   5.792   5.524  0.3645 -1.9427 -1.1273
 6199SOL    HW219497   2.472   5.646   5.591 -1.0912 -0.8316  0.7023
 6200SOL     OW19498   1.409   6.006   0.445 -0.3182  0.0252  0.0837
 6200SOL    HW119499   1.436   6.092   0.487  2.5226 -1.9344  2.7416
 6200SOL    HW219500   1.349   5.955   0.507 -2.2007  0.0806 -1.5641
 6201SOL     OW19501   0.841   4.864   3.940 -0.2344  0.3926 -0.3811
 6201SOL    HW119502   0.841   4.920   3.857 -0.0585  0.7616 -0.1348
 6201SOL    HW219503   0.763   4.802   3.938  1.4420 -1.8511 -2.3226
 6202SOL     OW19504   4.953   1.204   2.903 -0.6462 -0.4934  0.7048
 6202SOL    HW119505   4.906   1.292   2.914  0.4804  0.1643  0.5210
 6202SOL    HW219506   4.895   1.141   2.852 -1.3609  0.2450  0.5835
 6203SOL     OW19507   1.906   0.854   0.794  0.8509 -0.3996 -0.0102
 6203SOL    HW119508   1.893   0.832   0.890  0.2591  1.6662  0.4360
 6203SOL    HW219509   1.904   0.770   0.740 -1.2836 -1.4192  1.5062
 6204SOL     OW19510   2.606   5.668   3.925  0.4919  0.0064 -0.5117
 6204SOL    HW119511   2.522   5.720   3.911  0.3820 -0.0520 -0.0752
 6204SOL    HW219512   2.684   5.723   3.895  0.4258  0.6586  0.4727
 6205SOL     OW19513   5.905   5.541   2.911  0.6885 -0.7905  0.4295
 6205SOL    HW119514   5.907   5.484   2.993  2.0747 -1.3043  0.0710
 6205SOL    HW219515   5.836   5.505   2.847 -0.8066 -0.0451  1.5710
 6206SOL     OW19516   6.554   4.341   4.161  0.3356  0.9175 -0.1616
 6206SOL    HW119517   6.594   4.401   4.231 -0.7210  0.9842  0.3937
 6206SOL    HW219518   6.455   4.354   4.158  0.2313  0.0452 -0.8611
 6207SOL     OW19519   0.825   6.771   3.906 -0.1929  0.5226  0.2800
 6207SOL    HW119520   0.853   6.675   3.897  1.5595  1.0991 -0.8366
 6207SOL    HW219521   0.797   6.805   3.816 -1.7705  0.8168  0.8484
 6208SOL     OW19522   3.717   5.216   6.573 -0.1189 -0.4496 -0.3259
 6208SOL    HW119523   3.806   5.221   6.617  0.4572 -1.6473 -1.2885
 6208SOL    HW219524   3.724   5.254   6.480 -0.8795  0.4058 -0.0486
 6209SOL     OW19525   4.148   1.287   1.700 -0.2893 -0.5364  0.0724
 6209SOL    HW119526   4.081   1.214   1.685 -1.2341  0.4590 -0.6409
 6209SOL    HW219527   4.134   1.359   1.632  1.0291  0.0385  0.3901
 6210SOL     OW19528   6.540   0.168   5.270  0.1985  0.4185 -1.1541
 6210SOL    HW119529   6.627   0.146   5.225  0.2001 -0.2251 -0.8482
 6210SOL    HW219530   6.536   0.121   5.359 -0.6889  0.0147 -1.4009
 6211SOL     OW19531   6.074   0.725   4.663  0.1461 -0.0580 -0.0756
 6211SOL    HW119532   6.099   0.784   4.586  1.2485  1.7423  1.5601
 6211SOL    HW219533   5.975   0.728   4.677 -0.3053 -1.7386 -2.3744
 6212SOL     OW19534   4.216   4.693   4.629  0.2735 -0.0707  0.2519
 6212SOL    HW119535   4.162   4.747   4.695  1.1064  0.8724  0.1841
 6212SOL    HW219536   4.308   4.680   4.665  0.9722  1.1024 -1.0463
 6213SOL     OW19537   5.083   6.097   0.342 -0.3681  0.1580 -0.1701
 6213SOL    HW119538   5.081   5.997   0.346  1.9815  0.0617 -0.0578
 6213SOL    HW219539   5.083   6.126   0.247 -0.8654  0.0510 -0.2057
 6214SOL     OW19540   0.400   4.010   5.913 -0.1647  0.3089  0.3851
 6214SOL    HW119541   0.470   3.989   5.982 -0.2400  1.0756  0.7049
 6214SOL    HW219542   0.408   4.106   5.885 -1.5208  0.5990  0.9247
 6215SOL     OW19543   5.779   3.212   6.647 -0.3223 -0.1908  0.3006
 6215SOL    HW119544   5.755   3.126   6.691  0.7125 -0.7614 -0.2289
 6215SOL    HW219545   5.874   3.235   6.666 -0.1334  0.0419 -0.8246
 6216SOL     OW19546   5.446   2.450   5.195 -0.2009 -0.0873  0.2416
 6216SOL    HW119547   5.518   2.433   5.128 -0.1397  0.5474  0.1456
 6216SOL    HW219548   5.380   2.374   5.192  0.5100 -0.7269  0.4103
 6217SOL     OW19549   6.500   4.288   3.248 -0.1705 -0.0040 -0.1962
 6217SOL    HW119550   6.463   4.316   3.160 -1.8874  0.3092  0.5744
 6217SOL    HW219551   6.459   4.344   3.320 -1.2587 -2.3078  1.0974
 6218SOL     OW19552   5.369   6.273   2.010 -0.0119  0.7987 -0.0264
 6218SOL    HW119553   5.392   6.187   2.055 -0.1995  0.8512  0.1714
 6218SOL    HW219554   5.274   6.296   2.028 -0.8907 -0.5108 -2.6205
 6219SOL     OW19555   1.797   2.016   6.921  0.1408 -0.1187  0.1328
 6219SOL    HW119556   1.822   2.007   6.825  1.3880 -1.9190  0.5634
 6219SOL    HW219557   1.851   2.089   6.963  1.9445 -1.3779  0.1294
 6220SOL     OW19558   2.728   0.357   2.294 -0.3635  0.5582 -0.3020
 6220SOL    HW119559   2.676   0.440   2.313  0.3786  1.0670 -0.4672
 6220SOL    HW219560   2.743   0.307   2.379 -0.4112  0.8268 -0.1349
 6221SOL     OW19561   3.846   3.335   0.028 -0.1905 -0.3092  0.1350
 6221SOL    HW119562   3.772   3.268   0.030  1.1595 -1.8899 -0.0927
 6221SOL    HW219563   3.865   3.360  -0.067  0.4728 -1.0176  0.0647
 6222SOL     OW19564   6.131   1.174   1.533 -0.0331  0.2590 -0.2820
 6222SOL    HW119565   6.082   1.117   1.599  1.2289 -0.4392  0.0825
 6222SOL    HW219566   6.120   1.135   1.441  0.6623 -0.5038 -0.0617
 6223SOL     OW19567   5.776   4.880   4.407 -0.1986  0.5986 -0.7298
 6223SOL    HW119568   5.817   4.799   4.366 -0.7556  1.5115 -3.2362
 6223SOL    HW219569   5.677   4.875   4.399 -0.4813  0.0782  2.0695
 6224SOL     OW19570   3.026   5.623   6.454 -0.5315  0.0919 -0.4293
 6224SOL    HW119571   3.081   5.624   6.371 -0.5041 -1.6235 -0.4653
 6224SOL    HW219572   3.086   5.621   6.534 -0.4614 -2.2231 -0.4755
 6225SOL     OW19573   5.828   4.335   6.189  0.4902  0.2791  0.2529
 6225SOL    HW119574   5.801   4.250   6.144 -0.8452  1.1255 -0.6498
 6225SOL    HW219575   5.807   4.412   6.129  0.8799  1.3034  1.3852
 6226SOL     OW19576   2.204   3.006   3.481  0.8109 -0.0121 -0.1062
 6226SOL    HW119577   2.167   3.038   3.394  4.0979  0.4786 -1.4864
 6226SOL    HW219578   2.194   3.077   3.551 -3.7575 -1.1635  0.7217
 6227SOL     OW19579   1.339   4.337   5.980 -0.3543  0.2288 -0.2865
 6227SOL    HW119580   1.433   4.358   6.006 -0.8994  1.1967  1.0294
 6227SOL    HW219581   1.324   4.363   5.885  1.0068 -0.9973 -0.8617
 6228SOL     OW19582   0.592   4.514   2.553 -0.3030 -0.1964  0.0109
 6228SOL    HW119583   0.501   4.482   2.530 -0.5531  0.7543 -0.3816
 6228SOL    HW219584   0.604   4.608   2.520 -0.3236  0.8861  2.7946
 6229SOL     OW19585   6.670   6.476   2.321  0.1692 -0.2732  0.6656
 6229SOL    HW119586   6.624   6.398   2.364  1.4558 -0.6659  1.3837
 6229SOL    HW219587   6.767   6.475   2.345  0.6191  0.4242 -0.9613
 6230SOL     OW19588   1.918   1.405   0.459  0.0766 -0.4686  0.8286
 6230SOL    HW119589   1.988   1.472   0.432 -1.1503  2.2521  3.7269
 6230SOL    HW219590   1.828   1.440   0.433 -0.5667 -1.1821  2.0454
 6231SOL     OW19591   0.673   6.576   6.411 -0.2687  0.3706  0.3658
 6231SOL    HW119592   0.576   6.552   6.422 -0.4654  0.4498 -1.0623
 6231SOL    HW219593   0.727   6.525   6.478 -1.1785 -0.5774  0.4044
 6232SOL     OW19594   2.165   1.195   0.659 -0.3151  0.1998 -0.6124
 6232SOL    HW119595   2.137   1.291   0.665 -0.6810  0.0405  0.3142
 6232SOL    HW219596   2.109   1.148   0.590 -1.3456  0.2379  0.1861
 6233SOL     OW19597   0.339   4.540   0.220 -0.2492 -0.1808 -0.4961
 6233SOL    HW119598   0.380   4.543   0.311 -2.2083 -2.0154  0.5613
 6233SOL    HW219599   0.275   4.616   0.210 -0.3524 -0.2178 -0.1431
 6234SOL     OW19600   6.492   5.930   1.450  0.0408 -0.0318  0.2304
 6234SOL    HW119601   6.591   5.915   1.456  0.4249  2.3294  1.2067
 6234SOL    HW219602   6.464   5.995   1.521 -2.2636 -0.7647  0.0776
 6235SOL     OW19603   1.512   2.191   0.577 -0.5595  0.5078  0.1885
 6235SOL    HW119604   1.556   2.281   0.575 -1.5963  1.0844  1.7109
 6235SOL    HW219605   1.477   2.173   0.669  0.9879 -2.1456  0.3725
 6236SOL     OW19606   5.227   5.452   1.481  1.0701 -0.1403  0.4536
 6236SOL    HW119607   5.222   5.529   1.418  1.8245 -1.2756 -1.0606
 6236SOL    HW219608   5.187   5.370   1.439  2.5242 -1.1836  0.9895
 6237SOL     OW19609   5.117   1.023   4.121 -0.1201  0.6708  0.0998
 6237SOL    HW119610   5.041   1.002   4.183 -1.3236 -1.1776 -1.8460
 6237SOL    HW219611   5.111   0.963   4.041  2.1914  1.9733 -1.1263
 6238SOL     OW19612   2.590   5.057   3.244 -0.3542 -0.0857 -0.1163
 6238SOL    HW119613   2.553   5.089   3.156 -0.6862  1.1090  0.4418
 6238SOL    HW219614   2.538   4.976   3.274 -1.6369  0.7386 -0.0244
 6239SOL     OW19615   3.643   1.826   5.056 -0.0492  0.8732 -0.0347
 6239SOL    HW119616   3.737   1.839   5.025  0.0302 -1.3162 -0.9058
 6239SOL    HW219617   3.637   1.842   5.155  1.4958 -0.1126  0.2425
 6240SOL     OW19618   3.102   3.509   4.185  0.2359 -0.5672 -0.6557
 6240SOL    HW119619   3.054   3.522   4.271  1.9331 -2.3012  0.6437
 6240SOL    HW219620   3.115   3.598   4.140 -0.7931  0.3506  0.7893
 6241SOL     OW19621   3.007   1.891   2.666  0.3763  0.1328  0.0444
 6241SOL    HW119622   3.091   1.895   2.612 -1.1390  0.7319 -2.4269
 6241SOL    HW219623   2.963   1.980   2.667 -0.1088 -0.0993  1.5549
 6242SOL     OW19624   3.737   1.578   4.020  0.3602 -0.0834 -0.5321
 6242SOL    HW119625   3.663   1.630   3.979 -0.2763 -0.4325  0.1498
 6242SOL    HW219626   3.752   1.609   4.114 -1.4206 -2.4154  0.6475
 6243SOL     OW19627   2.274   6.610   0.204 -0.5770 -0.0603  0.4561
 6243SOL    HW119628   2.336   6.535   0.182  0.0539  0.7283 -0.5928
 6243SOL    HW219629   2.304   6.655   0.288  1.6529  1.6725 -1.1522
 6244SOL     OW19630   4.868   2.645   1.773  0.1236 -0.2198  0.2909
 6244SOL    HW119631   4.778   2.677   1.801 -0.0679 -0.9660  0.5530
 6244SOL    HW219632   4.866   2.546   1.759  0.9537 -0.2873  0.5440
 6245SOL     OW19633   0.930   6.619   2.041 -0.6221  0.2215 -0.1332
 6245SOL    HW119634   0.880   6.685   1.985  0.1870  0.4258 -0.6338
 6245SOL    HW219635   0.953   6.539   1.986 -1.4152 -0.3936  0.4156
 6246SOL     OW19636   1.527   0.290   6.184 -0.3790 -0.2938  0.2226
 6246SOL    HW119637   1.489   0.228   6.252  1.7424  1.7169  3.4987
 6246SOL    HW219638   1.618   0.259   6.157  0.1509  0.6277  0.8836
 6247SOL     OW19639   5.310   5.371   3.685  0.3389  0.4662  0.0613
 6247SOL    HW119640   5.219   5.389   3.723  1.2384  2.2604  1.5757
 6247SOL    HW219641   5.354   5.298   3.737 -1.2879 -2.7097 -2.6529
 6248SOL     OW19642   4.881   3.769   5.842 -0.5359  0.0375 -0.5204
 6248SOL    HW119643   4.885   3.711   5.760 -1.3585  0.5003 -0.9045
 6248SOL    HW219644   4.971   3.772   5.885 -0.6907 -2.4741  0.1784
 6249SOL     OW19645   5.663   1.763   4.177 -0.3670 -0.1840 -0.0240
 6249SOL    HW119646   5.573   1.731   4.207 -0.1707  0.2365  1.0476
 6249SOL    HW219647   5.733   1.697   4.205 -0.4024 -0.9225 -1.5686
 6250SOL     OW19648   4.309   0.009   4.526  0.6015 -0.2507 -0.6727
 6250SOL    HW119649   4.257   0.088   4.556  1.6628  0.1060  0.3096
 6250SOL    HW219650   4.251  -0.072   4.525  0.3324 -0.1413  1.7312
 6251SOL     OW19651   1.966   1.412   3.349  0.6522 -0.1253 -0.0607
 6251SOL    HW119652   1.904   1.422   3.271  0.4337 -0.9556 -0.0101
 6251SOL    HW219653   2.061   1.419   3.317  0.5421  0.7027 -0.2100
 6252SOL     OW19654   4.247   4.427   6.990  0.1727 -0.3637 -0.2034
 6252SOL    HW119655   4.317   4.394   6.927  0.1515 -2.9949  1.0070
 6252SOL    HW219656   4.290   4.470   7.069  0.4468 -1.5245  0.2987
 6253SOL     OW19657   5.976   6.597   2.467  0.1313 -0.1213 -0.0355
 6253SOL    HW119658   5.905   6.580   2.536  0.2696 -2.2135 -0.3282
 6253SOL    HW219659   6.066   6.589   2.509  0.2116  0.0097 -0.1813
 6254SOL     OW19660   6.206   6.228   3.793  0.2737 -0.1089 -0.5298
 6254SOL    HW119661   6.210   6.312   3.738  0.8096 -0.4942 -1.0858
 6254SOL    HW219662   6.234   6.249   3.887 -0.4267  0.5059 -0.4439
 6255SOL     OW19663   2.202   5.554   0.547 -0.3801  0.3813  0.3293
 6255SOL    HW119664   2.193   5.465   0.593  1.0612 -1.7219 -3.0810
 6255SOL    HW219665   2.139   5.558   0.470  1.3695  1.1276 -1.1522
 6256SOL     OW19666   6.660   4.499   2.096 -0.1873 -0.1778 -0.5439
 6256SOL    HW119667   6.668   4.598   2.111 -1.6033  0.3096 -2.5360
 6256SOL    HW219668   6.742   4.466   2.050  0.6855 -0.1250  0.9440
 6257SOL     OW19669   4.493   5.483   0.780  0.0751  0.0437  0.8129
 6257SOL    HW119670   4.507   5.417   0.854  2.1507  0.2476  0.6542
 6257SOL    HW219671   4.425   5.447   0.715  1.4627 -2.1733  0.4855
 6258SOL     OW19672   4.349   5.415   5.816  0.0318 -0.1203  0.0046
 6258SOL    HW119673   4.444   5.390   5.836  0.0095 -0.9932 -0.9267
 6258SOL    HW219674   4.347   5.489   5.750  0.0645  0.0588  0.2033
 6259SOL     OW19675   5.846   5.645   4.014  0.1172  0.2784 -0.3576
 6259SOL    HW119676   5.747   5.635   4.001  0.2218 -1.4359 -0.1067
 6259SOL    HW219677   5.894   5.606   3.935  0.6111 -1.2376  0.6643
 6260SOL     OW19678   1.064   2.896   0.163 -0.2755  0.2575  0.2492
 6260SOL    HW119679   1.039   2.892   0.260 -0.8728 -0.5726  0.0707
 6260SOL    HW219680   0.982   2.889   0.107  0.0201  1.2129 -0.3229
 6261SOL     OW19681   3.659   0.699   3.101  0.4146 -0.3045 -0.1823
 6261SOL    HW119682   3.731   0.664   3.161  1.3825  1.4144 -0.2606
 6261SOL    HW219683   3.639   0.794   3.125 -1.0690 -0.4207 -0.8765
 6262SOL     OW19684   0.881   0.783   3.452  0.5781  0.0122 -0.0941
 6262SOL    HW119685   0.970   0.817   3.421 -0.0141  1.8666  0.1008
 6262SOL    HW219686   0.852   0.707   3.393  0.9964  1.2646 -2.0296
 6263SOL     OW19687   0.689   5.233   6.821  0.1552  0.2039  0.3676
 6263SOL    HW119688   0.715   5.286   6.740 -1.1128  0.5955  0.1849
 6263SOL    HW219689   0.592   5.209   6.815  0.5526 -1.6611  0.7400
 6264SOL     OW19690   0.769   6.732   0.987  0.3903  0.2821  0.6568
 6264SOL    HW119691   0.747   6.674   0.909  1.9083 -0.6985  0.9436
 6264SOL    HW219692   0.689   6.789   1.009 -0.8522 -1.0965 -0.1278
 6265SOL     OW19693   3.472   6.617   4.024  0.0630  0.3744 -0.0244
 6265SOL    HW119694   3.406   6.601   4.098 -0.3206  2.0152  0.0172
 6265SOL    HW219695   3.459   6.708   3.987  2.0226  0.5765 -0.3215
 6266SOL     OW19696   2.334   4.603   3.218  0.3957 -0.3295  0.6015
 6266SOL    HW119697   2.287   4.691   3.223 -2.6686 -1.7543 -0.2742
 6266SOL    HW219698   2.415   4.611   3.161  0.0504  1.8551  0.3406
 6267SOL     OW19699   0.293   6.000   3.699 -0.3410 -0.2654  0.1089
 6267SOL    HW119700   0.272   6.048   3.784 -1.8824  1.2733 -1.0584
 6267SOL    HW219701   0.227   6.028   3.629  1.8446 -0.2422 -2.0473
 6268SOL     OW19702   4.063   3.117   5.804 -0.3393  0.2448  0.0710
 6268SOL    HW119703   4.033   3.103   5.899 -2.0785  0.3601 -0.4423
 6268SOL    HW219704   3.984   3.120   5.744  0.5547  2.4679 -1.1168
 6269SOL     OW19705   2.044   4.968   1.768 -0.4522  0.3220  0.0011
 6269SOL    HW119706   1.962   4.968   1.825 -0.0525  0.1572  0.5843
 6269SOL    HW219707   2.121   4.934   1.821 -0.3274 -1.0465 -1.0054
 6270SOL     OW19708   1.699   6.420   1.853  0.2024  0.0068 -0.4587
 6270SOL    HW119709   1.619   6.386   1.903  0.1118 -0.8511 -1.1533
 6270SOL    HW219710   1.684   6.516   1.829 -1.1766 -0.4416 -1.5910
 6271SOL     OW19711   4.976   2.703   6.383 -0.0220 -0.5669  0.0211
 6271SOL    HW119712   5.056   2.747   6.342  0.0516 -0.9563 -0.2609
 6271SOL    HW219713   4.987   2.698   6.482  0.0234 -0.0613  0.0432
 6272SOL     OW19714   1.341   0.694   0.609  0.2978  0.6223  0.4397
 6272SOL    HW119715   1.276   0.648   0.548 -0.3611  0.5210  1.1929
 6272SOL    HW219716   1.309   0.787   0.626 -1.3507 -0.3294  3.1888
 6273SOL     OW19717   6.479   5.671   3.156 -1.0892 -0.1097  0.6078
 6273SOL    HW119718   6.489   5.602   3.227 -1.1671 -0.2620  0.4708
 6273SOL    HW219719   6.559   5.670   3.096 -1.8083 -1.2361 -0.4059
 6274SOL     OW19720   2.109   0.588   3.417  1.1417 -0.2753  0.5946
 6274SOL    HW119721   2.116   0.547   3.326  2.2157  1.2058 -0.0266
 6274SOL    HW219722   2.182   0.554   3.475  0.6447 -0.9792  0.8206
 6275SOL     OW19723   2.824   0.515   6.605 -0.2868 -0.3138  0.0582
 6275SOL    HW119724   2.904   0.545   6.553  0.7008 -0.7571  1.2911
 6275SOL    HW219725   2.775   0.595   6.640 -0.3298 -0.0444 -0.6027
 6276SOL     OW19726   1.680   4.620   3.411 -0.1745  0.2552  0.4268
 6276SOL    HW119727   1.713   4.593   3.321  0.8071 -1.2694  1.2102
 6276SOL    HW219728   1.630   4.707   3.403  0.0748  0.2674 -1.5257
 6277SOL     OW19729   5.643   2.647   1.835  0.4543 -0.2549 -0.8253
 6277SOL    HW119730   5.683   2.570   1.885 -0.6522 -0.3613 -0.0814
 6277SOL    HW219731   5.550   2.663   1.867  1.2374  2.5514  0.3978
 6278SOL     OW19732   3.142   2.414   1.175  0.2682 -1.1796  0.7359
 6278SOL    HW119733   3.066   2.365   1.131 -1.9238 -1.0148  3.9626
 6278SOL    HW219734   3.135   2.512   1.154  1.3497 -1.4727 -1.2233
 6279SOL     OW19735   1.259   6.703   3.179  0.0327 -0.0324 -0.4345
 6279SOL    HW119736   1.240   6.669   3.271  1.8859 -0.3174 -0.1292
 6279SOL    HW219737   1.183   6.679   3.119 -0.7933 -0.6371  0.8097
 6280SOL     OW19738   5.034   2.212   1.420  0.6310 -0.5535  0.3464
 6280SOL    HW119739   4.991   2.273   1.487  1.8397  0.5584  0.1418
 6280SOL    HW219740   5.027   2.117   1.453  0.4899 -0.1117  1.6666
 6281SOL     OW19741   4.767   2.346   6.133  0.1326 -0.0557 -0.0756
 6281SOL    HW119742   4.843   2.376   6.074  0.3119 -1.2226 -0.4626
 6281SOL    HW219743   4.768   2.246   6.141 -0.9082 -0.0331  0.5502
 6282SOL     OW19744   6.923   4.643   0.133  0.2597  0.2326 -0.2920
 6282SOL    HW119745   6.915   4.572   0.204 -0.2530 -0.1019 -0.6771
 6282SOL    HW219746   6.898   4.604   0.044 -1.5878  1.2785 -0.2857
 6283SOL     OW19747   3.120   0.086   4.747 -0.7595  0.0970 -0.6891
 6283SOL    HW119748   3.073   0.154   4.804  0.4108  0.1650  0.2218
 6283SOL    HW219749   3.155   0.013   4.805 -1.3688 -0.9407 -1.5814
 6284SOL     OW19750   2.471   4.921   1.104  0.4836 -0.7459 -0.1733
 6284SOL    HW119751   2.479   4.988   1.178  0.1983 -0.9932  0.0826
 6284SOL    HW219752   2.441   4.967   1.021  0.6482 -0.4930 -0.0941
 6285SOL     OW19753   0.795   5.328   4.605 -0.3039 -0.0523  0.4718
 6285SOL    HW119754   0.849   5.361   4.528 -0.8445  0.1173  0.1594
 6285SOL    HW219755   0.854   5.316   4.685  0.0094  1.0952  0.4293
 6286SOL     OW19756   0.285   2.636   4.649 -0.2609 -0.0903 -0.0928
 6286SOL    HW119757   0.251   2.714   4.701 -1.9987 -0.2453 -0.9477
 6286SOL    HW219758   0.278   2.553   4.706  0.3653  0.1536  0.3520
 6287SOL     OW19759   2.982   5.172   3.970  0.1399 -0.4249  0.1584
 6287SOL    HW119760   2.988   5.082   3.925  1.1387 -0.1591 -0.2845
 6287SOL    HW219761   2.916   5.168   4.044  0.0812 -1.5017  0.0651
 6288SOL     OW19762   2.026   3.654   5.600  0.2495 -0.1912  0.3695
 6288SOL    HW119763   1.962   3.640   5.524 -1.1024  1.3743  1.1294
 6288SOL    HW219764   2.065   3.567   5.628 -1.0861 -1.1281 -0.5627
 6289SOL     OW19765   3.852   6.473   4.435  0.2968 -0.1318 -0.2263
 6289SOL    HW119766   3.834   6.387   4.387 -2.6731 -0.6869  1.5983
 6289SOL    HW219767   3.880   6.543   4.369 -1.0497 -1.4957 -2.3887
 6290SOL     OW19768   5.651   6.740   3.446  0.2714  0.1860  0.2842
 6290SOL    HW119769   5.718   6.760   3.518  1.4563  2.0049 -1.2392
 6290SOL    HW219770   5.669   6.650   3.408  2.3019  0.8482 -0.4692
 6291SOL     OW19771   3.677   4.882   1.257 -0.6068 -0.4084  0.2903
 6291SOL    HW119772   3.593   4.908   1.303 -0.5874 -0.6749  0.4798
 6291SOL    HW219773   3.665   4.887   1.158 -0.7493 -0.1501  0.3218
 6292SOL     OW19774   0.937   3.801   3.811  0.0273 -0.2986 -0.2912
 6292SOL    HW119775   0.868   3.853   3.760 -0.1061 -0.6890 -0.5187
 6292SOL    HW219776   0.952   3.843   3.901 -0.7775 -0.4186 -0.0956
 6293SOL     OW19777   3.610   4.138   2.609  0.1265 -0.2805  0.2042
 6293SOL    HW119778   3.583   4.129   2.513 -2.4457  0.4805  0.7799
 6293SOL    HW219779   3.689   4.079   2.627 -1.3635 -3.0369 -1.5919
 6294SOL     OW19780   1.606   1.685   3.869  0.0115 -0.7048 -0.0165
 6294SOL    HW119781   1.605   1.621   3.946 -0.2547 -1.0046 -0.2682
 6294SOL    HW219782   1.692   1.737   3.871 -0.5488  0.2222  1.2375
 6295SOL     OW19783   4.240   4.629   5.757  0.5494 -0.0761  0.1830
 6295SOL    HW119784   4.238   4.671   5.666  1.0181 -0.8428 -0.1894
 6295SOL    HW219785   4.154   4.579   5.773  0.8781 -0.7962 -0.2594
 6296SOL     OW19786   0.132   1.728   1.165  0.3093 -0.2030  0.2683
 6296SOL    HW119787   0.157   1.823   1.184 -0.4797  0.0209  0.2054
 6296SOL    HW219788   0.181   1.697   1.082 -1.3191  0.9709 -1.2024
 6297SOL     OW19789   2.035   6.188   5.381  0.4835  0.1114  0.3710
 6297SOL    HW119790   2.015   6.093   5.404 -0.7292  0.6447  1.6863
 6297SOL    HW219791   2.087   6.191   5.296  0.5397 -1.7159  0.2911
 6298SOL     OW19792   5.946   2.131   6.662  0.1133  0.7147 -0.0506
 6298SOL    HW119793   5.965   2.150   6.565  0.7846  0.9349  0.1180
 6298SOL    HW219794   5.967   2.036   6.682 -2.3574 -0.0429 -0.6762
 6299SOL     OW19795   4.446   1.694   2.959 -0.0493  0.0853 -0.5027
 6299SOL    HW119796   4.482   1.619   3.014  0.2789 -1.4727 -2.6920
 6299SOL    HW219797   4.347   1.698   2.967 -0.2650 -1.7634 -1.6514
 6300SOL     OW19798   0.497   2.049   0.305  0.5430  0.1731 -0.0297
 6300SOL    HW119799   0.447   2.077   0.387 -2.5650 -0.5435 -1.5509
 6300SOL    HW219800   0.522   2.130   0.252  2.2439  0.6143  1.3287
 6301SOL     OW19801   4.383   6.451   0.410  0.0963 -0.2396  0.1512
 6301SOL    HW119802   4.416   6.523   0.470  0.4838 -0.0995 -0.2265
 6301SOL    HW219803   4.292   6.474   0.375  0.0249 -0.1533  0.3971
 6302SOL     OW19804   1.726   3.101   1.053  0.1647 -0.3452 -0.6585
 6302SOL    HW119805   1.735   3.116   0.955  2.1059 -1.1101 -0.6425
 6302SOL    HW219806   1.816   3.106   1.096 -0.9272  3.8454  1.7298
 6303SOL     OW19807   6.749   5.451   6.662 -0.5029 -0.5357  0.5812
 6303SOL    HW119808   6.824   5.402   6.617  0.0693  1.5487 -0.9380
 6303SOL    HW219809   6.664   5.437   6.611 -0.4503 -0.4145  0.4567
 6304SOL     OW19810   3.589   1.478   4.980  0.7696 -0.3639  0.0125
 6304SOL    HW119811   3.501   1.511   5.016  1.0794  0.1415  0.3267
 6304SOL    HW219812   3.601   1.381   5.004  0.7784 -0.1469  0.9242
 6305SOL     OW19813   2.197   6.414   5.892 -0.2844 -0.3097  0.1199
 6305SOL    HW119814   2.158   6.331   5.932  0.4723 -2.8070 -3.8670
 6305SOL    HW219815   2.289   6.395   5.857 -1.4848  0.9141 -4.3296
 6306SOL     OW19816   1.643   4.933   3.752 -0.0149  0.1995  0.2213
 6306SOL    HW119817   1.613   5.021   3.790  1.9644  1.1224 -0.2396
 6306SOL    HW219818   1.669   4.872   3.827 -2.0068 -0.2904  0.5807
 6307SOL     OW19819   3.574   3.215   2.055  0.6212 -0.1851  0.1130
 6307SOL    HW119820   3.592   3.204   1.957 -0.1203  0.3436 -0.0876
 6307SOL    HW219821   3.631   3.150   2.106  1.9135  0.3572 -0.5786
 6308SOL     OW19822   2.638   6.785   0.176  0.8585 -0.3847  0.4450
 6308SOL    HW119823   2.720   6.840   0.157  1.7406 -1.5477  0.7427
 6308SOL    HW219824   2.620   6.785   0.274  0.2320  0.2210  0.3353
 6309SOL     OW19825   2.665   5.578   0.208  0.1192 -0.1030  0.2574
 6309SOL    HW119826   2.649   5.553   0.304  0.2762 -1.3674 -0.0350
 6309SOL    HW219827   2.652   5.677   0.197 -0.4523 -0.0271  1.4652
 6310SOL     OW19828   1.546   6.201   2.808 -0.2742 -0.4320 -0.4282
 6310SOL    HW119829   1.639   6.233   2.826 -0.8903  0.7202  0.9287
 6310SOL    HW219830   1.537   6.177   2.712  0.6639  2.2360 -1.2791
 6311SOL     OW19831   5.887   1.313   5.440 -0.3674 -0.2128  0.2775
 6311SOL    HW119832   5.922   1.315   5.347 -0.3739 -0.8751  0.2608
 6311SOL    HW219833   5.889   1.406   5.478  1.0180 -0.1720  0.1379
 6312SOL     OW19834   4.255   4.668   2.123 -0.6850 -0.3275 -0.0081
 6312SOL    HW119835   4.293   4.641   2.035 -0.4514  0.2125 -0.0766
 6312SOL    HW219836   4.287   4.604   2.194  0.9927  0.5307  0.0691
 6313SOL     OW19837   4.862   6.303   4.126  0.1530  0.3087 -0.3814
 6313SOL    HW119838   4.945   6.334   4.173 -0.2132 -0.5232  0.8753
 6313SOL    HW219839   4.875   6.210   4.093 -0.1104  0.3503 -0.6068
 6314SOL     OW19840   1.970   6.101   3.473 -0.4619  0.5355 -0.5965
 6314SOL    HW119841   1.908   6.171   3.438 -2.5112 -0.0749  1.5216
 6314SOL    HW219842   1.951   6.085   3.570  1.1958 -1.6403 -0.5459
 6315SOL     OW19843   1.635   2.515   3.751  0.1655  0.1025 -0.1871
 6315SOL    HW119844   1.582   2.513   3.667 -2.4940 -1.0492  1.3822
 6315SOL    HW219845   1.627   2.605   3.794 -1.8285 -0.4279  0.7030
 6316SOL     OW19846   5.280   2.026   4.260  0.3098 -0.3898  0.5188
 6316SOL    HW119847   5.189   2.042   4.223 -0.0901  0.9130  1.9643
 6316SOL    HW219848   5.296   2.087   4.338  1.9650 -1.4347  1.0574
 6317SOL     OW19849   5.246   3.861   3.506  0.1227  0.0872 -0.1390
 6317SOL    HW119850   5.243   3.954   3.470  1.3228 -0.6925 -2.4701
 6317SOL    HW219851   5.154   3.822   3.505 -0.3756  1.1903  0.7716
 6318SOL     OW19852   7.006   6.896   0.599  0.7516 -0.3283 -0.3495
 6318SOL    HW119853   7.016   6.903   0.499  0.1888  1.8459 -0.3122
 6318SOL    HW219854   6.916   6.929   0.625  0.7395 -1.2774  0.8719
 6319SOL     OW19855   6.234   2.867   1.733  0.0672  0.2331 -0.5402
 6319SOL    HW119856   6.194   2.855   1.642  0.3816 -0.7834 -0.5558
 6319SOL    HW219857   6.333   2.854   1.728 -0.0542 -1.1118  0.1535
 6320SOL     OW19858   4.439   2.167   5.274  0.3171 -0.1311  0.4139
 6320SOL    HW119859   4.408   2.109   5.350 -0.8799  1.0108  0.8340
 6320SOL    HW219860   4.539   2.173   5.276  0.4524 -1.9371  0.5164
 6321SOL     OW19861   6.942   3.597   1.022 -0.1320  0.2996  0.3716
 6321SOL    HW119862   7.037   3.627   1.030  0.1071 -0.6020  1.1519
 6321SOL    HW219863   6.901   3.638   0.941  1.0416  0.3757 -0.2099
 6322SOL     OW19864   3.113   1.520   2.243 -0.7773 -0.0435  0.3148
 6322SOL    HW119865   3.076   1.568   2.163 -1.8579  0.7760  1.2547
 6322SOL    HW219866   3.212   1.514   2.236 -0.9002 -0.5860 -1.3886
 6323SOL     OW19867   2.875   4.912   1.669 -0.3675 -0.1261 -0.1253
 6323SOL    HW119868   2.950   4.897   1.734  0.9466 -0.4105 -1.6407
 6323SOL    HW219869   2.788   4.900   1.716  0.5277 -0.6959  1.4903
 6324SOL     OW19870   5.364   4.162   1.155 -0.0744  0.9939  0.1131
 6324SOL    HW119871   5.416   4.081   1.126 -0.6378  1.0204 -1.0202
 6324SOL    HW219872   5.286   4.133   1.209 -2.1262  0.4276 -2.9052
 6325SOL     OW19873   1.652   2.519   2.936  0.4100  0.2803 -0.1241
 6325SOL    HW119874   1.646   2.523   2.837 -1.4800 -0.1081 -0.0590
 6325SOL    HW219875   1.672   2.425   2.965 -0.4978  0.0856 -0.1031
 6326SOL     OW19876   6.512   6.192   5.559 -0.4895 -0.1372 -0.4911
 6326SOL    HW119877   6.598   6.186   5.508 -0.0802  1.1372  0.0142
 6326SOL    HW219878   6.459   6.108   5.545  1.5136 -1.6157  0.4244
 6327SOL     OW19879   2.600   1.052   0.982  0.4827 -0.5243 -0.5385
 6327SOL    HW119880   2.533   1.067   0.909  0.4968 -0.1935 -0.4873
 6327SOL    HW219881   2.598   1.130   1.045  1.0884 -0.3995 -0.6680
 6328SOL     OW19882   3.953   4.351   5.297  0.0747 -0.2427  0.0929
 6328SOL    HW119883   3.947   4.417   5.372 -0.8960  0.2113 -0.3545
 6328SOL    HW219884   4.044   4.312   5.294  0.2327 -0.0097  1.2887
 6329SOL     OW19885   0.594   3.826   3.547 -0.6572 -0.2768 -0.2912
 6329SOL    HW119886   0.656   3.888   3.595 -1.4826 -0.0723  0.5437
 6329SOL    HW219887   0.511   3.875   3.522 -1.6974 -1.2175  1.1575
 6330SOL     OW19888   5.370   6.871   3.851 -0.2773  0.1839 -0.1580
 6330SOL    HW119889   5.360   6.803   3.924 -1.3121  0.2158 -0.2517
 6330SOL    HW219890   5.467   6.889   3.835  0.0059 -0.9308  0.1905
 6331SOL     OW19891   1.766   3.680   2.445  0.2750 -0.3463 -0.1896
 6331SOL    HW119892   1.793   3.768   2.485 -2.1461  0.5516 -0.3536
 6331SOL    HW219893   1.807   3.606   2.498  0.0980  0.8551  1.7527
 6332SOL     OW19894   3.392   1.059   1.007  0.7285 -0.0382  0.3339
 6332SOL    HW119895   3.335   1.024   1.081  0.4204  0.1280  0.1782
 6332SOL    HW219896   3.425   1.151   1.031 -0.8900  0.7941 -0.5155
 6333SOL     OW19897   5.659   2.460   5.765  0.2403 -0.3908 -0.5028
 6333SOL    HW119898   5.691   2.523   5.695 -1.2009 -1.3379 -2.1029
 6333SOL    HW219899   5.716   2.378   5.764 -0.6211 -1.0102 -1.6132
 6334SOL     OW19900   3.923   1.642   1.944  0.3905 -0.1769 -0.6095
 6334SOL    HW119901   3.959   1.715   2.002  1.0739 -0.1722 -1.0377
 6334SOL    HW219902   3.839   1.673   1.899 -3.1160 -1.7059  4.0717
 6335SOL     OW19903   6.295   6.902   5.039  0.3823  0.7970  0.0394
 6335SOL    HW119904   6.251   6.981   5.081  0.1784  0.7086 -0.0078
 6335SOL    HW219905   6.228   6.849   4.988  0.2371 -0.1564  1.1817
 6336SOL     OW19906   0.277   4.973   0.254  0.0519  0.0530 -0.1552
 6336SOL    HW119907   0.368   5.010   0.236  0.5850 -0.5762  1.1216
 6336SOL    HW219908   0.208   5.026   0.204  1.0297  1.0803 -0.4369
 6337SOL     OW19909   6.580   0.550   5.050 -0.1280  0.2404 -0.5024
 6337SOL    HW119910   6.675   0.563   5.078  0.1772  0.3053 -1.5076
 6337SOL    HW219911   6.548   0.633   5.005 -0.9159  0.4937  0.5032
 6338SOL     OW19912   1.710   3.036   1.515  0.2439  0.3563 -0.0381
 6338SOL    HW119913   1.783   3.103   1.531  1.5668 -0.5855 -1.8289
 6338SOL    HW219914   1.659   3.061   1.433  0.0105 -0.1963 -0.0643
 6339SOL     OW19915   6.548   3.864   3.584 -0.2145 -0.3452 -0.4198
 6339SOL    HW119916   6.589   3.938   3.531 -0.6638  0.3989  0.2533
 6339SOL    HW219917   6.449   3.877   3.590  0.0103  0.7018  2.2263
 6340SOL     OW19918   3.203   4.943   6.314 -0.3991  0.3084 -0.6206
 6340SOL    HW119919   3.184   5.041   6.317 -0.0177  0.3922 -0.9127
 6340SOL    HW219920   3.210   4.913   6.219  0.1584  0.1288 -0.5266
 6341SOL     OW19921   0.574   4.899   4.987 -0.4036  0.5685 -0.2809
 6341SOL    HW119922   0.587   4.992   5.021  1.2388 -0.1142  1.1334
 6341SOL    HW219923   0.477   4.880   4.977 -0.7794  2.2526 -0.0959
 6342SOL     OW19924   2.247   6.190   1.746  0.4278 -0.3446 -0.1950
 6342SOL    HW119925   2.226   6.108   1.798  3.0077 -1.0133 -0.0537
 6342SOL    HW219926   2.329   6.175   1.691  0.3551  1.7949 -1.0065
 6343SOL     OW19927   2.415   4.271   5.959 -0.0665  0.2227 -0.2841
 6343SOL    HW119928   2.385   4.231   6.046  0.2406 -0.0311 -0.2957
 6343SOL    HW219929   2.335   4.290   5.902 -0.3663  1.4216  0.4954
 6344SOL     OW19930   1.789   0.737   2.073  0.8754  0.7107  0.2297
 6344SOL    HW119931   1.741   0.819   2.105  0.0648  0.4717 -0.3259
 6344SOL    HW219932   1.814   0.681   2.152 -2.3029 -0.5335  0.5172
 6345SOL     OW19933   6.272   2.668   5.195  0.0362 -0.2911  0.0742
 6345SOL    HW119934   6.247   2.742   5.133  1.1748 -0.8139 -1.0717
 6345SOL    HW219935   6.361   2.631   5.168  0.3875 -0.8014  1.8135
 6346SOL     OW19936   0.137   3.856   5.272 -0.2245  0.0247  0.0218
 6346SOL    HW119937   0.062   3.813   5.322  0.4549  0.6128  1.6359
 6346SOL    HW219938   0.161   3.801   5.193 -1.6999 -0.6817  0.0452
 6347SOL     OW19939   1.610   3.155   2.572 -0.5150  0.1422 -0.1917
 6347SOL    HW119940   1.589   3.181   2.478  1.0895  0.7329 -0.4219
 6347SOL    HW219941   1.675   3.079   2.572 -1.0100 -0.2915  0.4530
 6348SOL     OW19942   6.866   2.754   5.857 -0.0050 -0.0756  1.0188
 6348SOL    HW119943   6.791   2.820   5.854  1.2701  1.3927  0.4727
 6348SOL    HW219944   6.950   2.797   5.825  1.1688 -1.5899  1.9288
 6349SOL     OW19945   5.222   1.783   2.517  0.2060  0.0235  0.4521
 6349SOL    HW119946   5.266   1.812   2.432  0.2019  0.0127  0.4465
 6349SOL    HW219947   5.151   1.715   2.497  1.0956 -0.9617  0.6019
 6350SOL     OW19948   1.259   0.090   1.526 -0.2010  0.2585 -0.2110
 6350SOL    HW119949   1.332   0.031   1.559 -0.9082 -0.5420 -0.0396
 6350SOL    HW219950   1.174   0.038   1.520 -0.0062  0.0762 -4.0886
 6351SOL     OW19951   4.549   2.020   2.408  0.4600  0.0812 -0.2349
 6351SOL    HW119952   4.514   1.931   2.435  2.4266 -0.5344  0.5090
 6351SOL    HW219953   4.492   2.058   2.336 -0.8945 -1.3992  0.0008
 6352SOL     OW19954   3.661   0.945   3.733 -0.0229 -0.4334  0.3435
 6352SOL    HW119955   3.568   0.940   3.696  0.5478 -0.8329 -1.1096
 6352SOL    HW219956   3.723   0.891   3.676  1.0814 -0.3259  1.3930
 6353SOL     OW19957   3.995   6.735   6.305  0.2496 -0.8478  0.1035
 6353SOL    HW119958   4.060   6.663   6.329  0.0604 -0.2700  2.7247
 6353SOL    HW219959   3.945   6.762   6.387 -0.7621  1.2020 -1.1223
 6354SOL     OW19960   4.953   6.048   4.063 -0.6375  0.4876  0.1018
 6354SOL    HW119961   4.957   6.013   4.157  1.0667 -1.1898 -0.5115
 6354SOL    HW219962   5.005   5.986   4.003 -1.7813  1.4484 -1.9744
 6355SOL     OW19963   3.735   1.814   1.111 -0.0254  0.5115 -0.2871
 6355SOL    HW119964   3.765   1.889   1.053 -0.2766  0.1324 -0.9175
 6355SOL    HW219965   3.646   1.836   1.152 -1.8070 -0.7699 -3.1656
 6356SOL     OW19966   1.576   0.725   5.122  0.5780  0.0830  0.7156
 6356SOL    HW119967   1.536   0.761   5.037 -0.5484  1.3566  1.7388
 6356SOL    HW219968   1.531   0.639   5.145  1.0354 -0.3790 -0.0828
 6357SOL     OW19969   5.409   3.735   3.304  0.2523 -0.1455  0.3048
 6357SOL    HW119970   5.366   3.721   3.393 -0.6984  0.9729  0.0510
 6357SOL    HW219971   5.499   3.693   3.303  0.5180  0.3137  1.9926
 6358SOL     OW19972   3.457   0.795   4.153  0.2116 -0.0652  0.1818
 6358SOL    HW119973   3.394   0.867   4.124  1.8425  1.3054 -0.0937
 6358SOL    HW219974   3.532   0.835   4.205  1.0871 -1.5962  0.1664
 6359SOL     OW19975   5.972   5.574   2.044 -0.6493 -0.4507 -0.4836
 6359SOL    HW119976   5.983   5.523   1.958 -2.2555 -0.8872 -0.4556
 6359SOL    HW219977   5.948   5.510   2.117  0.1185  0.0011  0.1701
 6360SOL     OW19978   4.339   1.863   6.058  0.0776 -0.2049 -0.1384
 6360SOL    HW119979   4.425   1.870   6.008  1.0961  0.7851  1.6321
 6360SOL    HW219980   4.351   1.899   6.151 -1.5115 -2.5441  1.0882
 6361SOL     OW19981   0.951   1.331   3.138  0.0501  0.4233 -0.6093
 6361SOL    HW119982   0.921   1.276   3.216 -0.8153 -0.6348 -1.6416
 6361SOL    HW219983   1.040   1.298   3.105  0.2371  0.6268 -0.3134
 6362SOL     OW19984   2.568   4.160   6.997  0.8591 -0.4296  0.2293
 6362SOL    HW119985   2.647   4.138   7.055 -0.3020 -0.1992  1.9844
 6362SOL    HW219986   2.505   4.082   6.996  0.5926 -0.2065 -0.2506
 6363SOL     OW19987   6.622   2.221   0.528  0.2330 -0.4481 -0.0601
 6363SOL    HW119988   6.565   2.289   0.574  1.6407  0.8254 -0.1095
 6363SOL    HW219989   6.679   2.174   0.596 -0.5527 -1.4096 -0.0573
 6364SOL     OW19990   2.348   1.714   1.664  0.2404  0.7003 -0.0821
 6364SOL    HW119991   2.419   1.780   1.687  0.7974  0.1387 -0.1713
 6364SOL    HW219992   2.258   1.759   1.668  0.4497  1.0072  1.6205
 6365SOL     OW19993   6.063   0.010   2.314 -0.2114  0.1170 -0.0487
 6365SOL    HW119994   5.993  -0.061   2.308  1.4108 -1.5365 -0.1413
 6365SOL    HW219995   6.045   0.068   2.394 -1.0808 -0.9159  0.5253
 6366SOL     OW19996   6.797   1.496   3.795  0.2283 -0.7861 -0.3690
 6366SOL    HW119997   6.763   1.589   3.808 -0.2425 -1.1122  0.9010
 6366SOL    HW219998   6.816   1.454   3.884  1.2246 -1.6242 -0.9518
 6367SOL     OW19999   2.058   2.040   3.058  0.2369  0.1371  0.0909
 6367SOL    HW120000   2.151   2.043   3.095  0.3525 -2.0774  0.1273
 6367SOL    HW220001   2.062   2.028   2.959  0.0406 -1.2288  0.2316
 6368SOL     OW20002   6.051   2.813   3.732  0.0138  0.4090  0.4885
 6368SOL    HW120003   6.080   2.904   3.702 -1.3569  0.5623 -0.5040
 6368SOL    HW220004   6.065   2.805   3.830  2.3238  0.8193  0.2565
 6369SOL     OW20005   3.911   4.590   0.838 -0.4356 -0.0776  0.5181
 6369SOL    HW120006   3.971   4.579   0.917 -0.2730  0.9767  0.5568
 6369SOL    HW220007   3.871   4.682   0.839 -1.2358 -0.4111 -0.0700
 6370SOL     OW20008   5.088   3.351   5.955 -0.3807  0.4141  0.4242
 6370SOL    HW120009   5.118   3.262   5.989  2.1772  0.3564 -1.6085
 6370SOL    HW220010   5.044   3.403   6.028 -2.6050 -2.7107  1.5026
 6371SOL     OW20011   6.645   4.018   2.642  0.2770  0.0620  0.4791
 6371SOL    HW120012   6.716   4.066   2.590  0.9084 -1.4336 -0.1032
 6371SOL    HW220013   6.651   4.043   2.738  0.7359  0.9615  0.2245
 6372SOL     OW20014   5.217   2.639   3.080  0.0080 -0.0407  0.2077
 6372SOL    HW120015   5.230   2.545   3.109 -0.7834 -0.6622 -1.2999
 6372SOL    HW220016   5.120   2.655   3.061 -0.1615  1.6360  2.1544
 6373SOL     OW20017   6.178   2.768   1.991 -0.1423  0.0589 -0.0508
 6373SOL    HW120018   6.206   2.802   1.901  0.0219  0.2843  0.0838
 6373SOL    HW220019   6.095   2.714   1.982  1.4212 -2.3805 -0.8003
 6374SOL     OW20020   2.560   2.153   4.880  0.2869 -0.1251 -0.4250
 6374SOL    HW120021   2.595   2.060   4.894  0.8128  0.2970  1.2531
 6374SOL    HW220022   2.464   2.148   4.852  0.1149 -1.1802  0.2874
 6375SOL     OW20023   6.341   0.483   1.750 -0.5241 -0.1988 -0.1392
 6375SOL    HW120024   6.310   0.502   1.657 -1.3841  1.0882  0.3860
 6375SOL    HW220025   6.396   0.559   1.783  0.4611 -1.0083  0.1348
 6376SOL     OW20026   4.502   6.754   6.876  0.8056  0.6990 -0.0881
 6376SOL    HW120027   4.496   6.830   6.941 -1.8295  0.2504  0.3259
 6376SOL    HW220028   4.553   6.679   6.918 -0.5740  0.5345  1.4310
 6377SOL     OW20029   4.986   1.396   6.261 -0.0149  0.1699  0.0636
 6377SOL    HW120030   4.929   1.463   6.308 -0.3508 -0.4983  0.6185
 6377SOL    HW220031   4.928   1.337   6.205  0.0363 -0.9337  1.1406
 6378SOL     OW20032   4.428   4.617   2.690  0.1093 -0.1713 -0.0166
 6378SOL    HW120033   4.333   4.648   2.700  0.3873  0.7436 -0.1496
 6378SOL    HW220034   4.449   4.608   2.593  0.5903  1.0221 -0.0352
 6379SOL     OW20035   2.273   4.907   5.516 -0.0109  0.4022  0.1043
 6379SOL    HW120036   2.259   4.906   5.417  0.1050  0.1082  0.0904
 6379SOL    HW220037   2.327   4.987   5.541  0.1651  0.3483 -0.0978
 6380SOL     OW20038   2.001   1.101   2.916 -0.3875 -0.0977  0.6964
 6380SOL    HW120039   1.930   1.034   2.939  0.1419 -0.9171 -0.0145
 6380SOL    HW220040   2.071   1.058   2.860  0.0584  1.0135  0.3686
 6381SOL     OW20041   4.879   6.637   0.479  0.1202 -0.1119 -0.1683
 6381SOL    HW120042   4.824   6.608   0.401  1.3036  1.3392 -1.6228
 6381SOL    HW220043   4.882   6.737   0.482  0.1298 -0.1307  1.7609
 6382SOL     OW20044   2.532   2.529   0.758  0.0226 -0.8351 -0.2679
 6382SOL    HW120045   2.521   2.625   0.787 -1.2409 -1.5884  2.0192
 6382SOL    HW220046   2.484   2.515   0.672 -1.7846  0.1092  0.5229
 6383SOL     OW20047   3.253   0.438   0.740  0.5596  0.2961 -0.2439
 6383SOL    HW120048   3.170   0.488   0.716 -0.0126  0.3938  1.7551
 6383SOL    HW220049   3.325   0.502   0.766  0.2981  0.1494  0.8864
 6384SOL     OW20050   0.513   6.885   1.158  0.4160 -0.3491 -0.8911
 6384SOL    HW120051   0.604   6.900   1.194  0.2687 -0.6454 -0.3822
 6384SOL    HW220052   0.456   6.841   1.228  0.0763 -0.7750 -1.4218
 6385SOL     OW20053   2.087   4.713   2.486 -0.7593 -0.0419 -0.1685
 6385SOL    HW120054   2.170   4.659   2.502  1.3474  3.0700  0.2885
 6385SOL    HW220055   2.007   4.658   2.508  1.1481 -3.0554 -0.1693
 6386SOL     OW20056   3.074   4.446   0.344 -0.0522  0.0870  0.2936
 6386SOL    HW120057   3.010   4.455   0.421  0.8197  1.6065  0.8953
 6386SOL    HW220058   3.168   4.449   0.379  0.3627 -1.0516 -0.6708
 6387SOL     OW20059   5.939   0.870   4.908  0.1973 -0.7280 -0.1740
 6387SOL    HW120060   5.859   0.896   4.962  0.1242 -1.3336  0.0101
 6387SOL    HW220061   5.921   0.783   4.862  1.2540 -1.5725  0.9658
 6388SOL     OW20062   5.788   4.920   4.012  0.5280 -0.1903  0.2429
 6388SOL    HW120063   5.843   4.991   3.968  1.3011  0.0166  1.4828
 6388SOL    HW220064   5.844   4.871   4.078 -0.1722 -1.5564 -0.1494
 6389SOL     OW20065   6.957   1.484   6.996 -0.4567 -0.1104  0.0789
 6389SOL    HW120066   6.914   1.504   7.084  0.3751 -1.3610  0.7895
 6389SOL    HW220067   7.055   1.502   7.001  0.2316 -3.3096  0.5280
 6390SOL     OW20068   5.607   4.651   5.821  0.1313  0.0712  0.4306
 6390SOL    HW120069   5.537   4.716   5.849 -0.5823 -0.9423  1.0678
 6390SOL    HW220070   5.641   4.675   5.730 -0.5146  0.9886  0.4210
 6391SOL     OW20071   1.243   3.364   5.337  0.2338  0.2046 -0.0576
 6391SOL    HW120072   1.291   3.447   5.366  1.1119 -0.4604  0.4568
 6391SOL    HW220073   1.305   3.306   5.284 -0.3547 -0.1449 -0.3726
 6392SOL     OW20074   3.110   6.479   3.031 -0.5601  0.1861  0.4564
 6392SOL    HW120075   3.189   6.540   3.042  0.1614 -0.9081  1.6530
 6392SOL    HW220076   3.030   6.522   3.072 -0.6337  1.3410 -0.8277
 6393SOL     OW20077   3.948   5.233   6.954  0.1516  0.4005 -0.2772
 6393SOL    HW120078   3.949   5.246   6.855 -0.1704  1.2002 -0.1814
 6393SOL    HW220079   3.854   5.241   6.988  0.0614 -1.1700 -0.0600
 6394SOL     OW20080   0.370   4.477   4.051  0.1891  0.3384  0.4836
 6394SOL    HW120081   0.380   4.553   3.986 -0.3085 -0.5088 -0.6159
 6394SOL    HW220082   0.296   4.498   4.115 -2.5243 -0.7003 -2.0972
 6395SOL     OW20083   3.559   4.464   6.033  0.1181  0.3860  0.2868
 6395SOL    HW120084   3.469   4.440   6.070  0.5834  0.4503  1.5401
 6395SOL    HW220085   3.549   4.530   5.960 -0.7974  1.4766  1.3507
 6396SOL     OW20086   2.195   4.050   5.306  0.3081 -0.2122 -0.1097
 6396SOL    HW120087   2.268   4.021   5.245  0.3762  0.7701 -0.5168
 6396SOL    HW220088   2.182   4.149   5.299  0.0484 -0.1263  1.1788
 6397SOL     OW20089   6.250   3.233   5.044 -0.3851  0.0268 -0.3534
 6397SOL    HW120090   6.287   3.308   4.989 -3.4613  1.1848 -1.0396
 6397SOL    HW220091   6.207   3.271   5.126  4.0507 -1.6414  3.1986
 6398SOL     OW20092   0.827   1.024   2.906 -0.5343 -0.1555  0.2266
 6398SOL    HW120093   0.823   1.016   2.807 -1.4773  0.3233  0.2181
 6398SOL    HW220094   0.763   1.095   2.937  0.2058  0.1374  1.1243
 6399SOL     OW20095   0.030   6.977   6.343 -0.2486 -0.2337  0.3710
 6399SOL    HW120096   0.087   7.019   6.273 -1.7440  0.1041 -0.7010
 6399SOL    HW220097   0.030   7.034   6.425 -1.1726  1.2078 -0.5818
 6400SOL     OW20098   1.081   6.213   2.618  0.3215 -0.5815 -0.4389
 6400SOL    HW120099   1.154   6.279   2.604 -0.3431  0.1988 -0.3225
 6400SOL    HW220100   1.075   6.190   2.715 -0.7467  0.7657 -0.1514
 6401SOL     OW20101   5.670   4.987   5.904 -0.1920  0.3951 -0.1365
 6401SOL    HW120102   5.734   5.012   5.832  0.6351 -0.2622  0.3536
 6401SOL    HW220103   5.585   4.953   5.862  1.1434 -2.2924 -0.9066
 6402SOL     OW20104   3.043   2.221   5.884 -0.0466 -0.1875  0.0640
 6402SOL    HW120105   3.122   2.270   5.921 -1.6382  1.7037  1.1577
 6402SOL    HW220106   3.066   2.184   5.793  1.3420  2.4827 -0.7791
 6403SOL     OW20107   3.549   5.730   4.917 -0.0929 -0.7191 -0.5257
 6403SOL    HW120108   3.482   5.727   4.991 -0.6659  0.6181 -0.9671
 6403SOL    HW220109   3.519   5.794   4.847  1.9923  0.5222 -0.3719
 6404SOL     OW20110   4.731   5.470   0.063  0.3606 -0.1059  0.4241
 6404SOL    HW120111   4.807   5.526   0.094  0.6477 -0.0415 -0.3607
 6404SOL    HW220112   4.765   5.380   0.035 -0.1138 -0.7304  1.8030
 6405SOL     OW20113   3.773   0.545   5.107  0.6083  0.0110  0.5989
 6405SOL    HW120114   3.852   0.533   5.047 -0.2597 -3.0563 -0.0856
 6405SOL    HW220115   3.801   0.594   5.190  3.2871 -1.2223  0.5070
 6406SOL     OW20116   6.164   3.449   3.147  0.2861 -0.6169  0.9610
 6406SOL    HW120117   6.089   3.385   3.131 -0.2570 -0.4593  2.6128
 6406SOL    HW220118   6.238   3.431   3.083 -1.5671 -0.0530 -1.4705
 6407SOL     OW20119   0.457   6.135   2.445  0.2156  0.2818  0.1994
 6407SOL    HW120120   0.502   6.222   2.425 -0.1602  0.5504  0.5220
 6407SOL    HW220121   0.424   6.135   2.539 -0.5108  0.1096 -0.0508
 6408SOL     OW20122   0.158   0.929   3.111  0.5031  0.3124  0.0417
 6408SOL    HW120123   0.108   0.915   3.025  0.2509 -1.0552  0.3882
 6408SOL    HW220124   0.153   1.025   3.137 -2.9143  0.0624  0.6572
 6409SOL     OW20125   0.138   3.223   2.328  0.0928  0.1761 -0.7066
 6409SOL    HW120126   0.108   3.265   2.414 -0.5276 -0.5110 -0.5753
 6409SOL    HW220127   0.126   3.289   2.254  0.7589  0.8230 -0.2526
 6410SOL     OW20128   4.713   1.351   0.395 -0.4117 -0.2410 -0.0590
 6410SOL    HW120129   4.707   1.450   0.389 -0.7851 -0.3141 -1.0678
 6410SOL    HW220130   4.743   1.325   0.487 -0.4173  0.7923  0.2483
 6411SOL     OW20131   1.482   2.596   4.772 -0.4496  0.0593 -0.0095
 6411SOL    HW120132   1.541   2.559   4.701  2.2982  3.2197  0.4040
 6411SOL    HW220133   1.394   2.622   4.733  0.0651 -0.5948 -1.6700
 6412SOL     OW20134   0.313   1.344   6.568 -0.5359  0.1493  0.2343
 6412SOL    HW120135   0.299   1.281   6.491 -1.5720  1.4222 -0.6813
 6412SOL    HW220136   0.353   1.429   6.534 -0.0448  0.3516  1.2907
 6413SOL     OW20137   3.288   5.280   5.051 -0.0448 -0.5554  0.0362
 6413SOL    HW120138   3.203   5.235   5.024  1.4960 -2.7058 -1.5512
 6413SOL    HW220139   3.336   5.313   4.970  0.0512  1.9281  1.0050
 6414SOL     OW20140   2.900   6.916   0.113  0.5421 -0.1587 -0.2407
 6414SOL    HW120141   2.999   6.935   0.113  0.1061  2.4917  0.0800
 6414SOL    HW220142   2.852   6.991   0.158 -1.7452 -0.7284 -1.5994
 6415SOL     OW20143   1.477   0.857   4.332  0.1189  0.0809 -0.5482
 6415SOL    HW120144   1.498   0.760   4.340  0.8396  0.1812 -1.1343
 6415SOL    HW220145   1.394   0.870   4.278 -0.1945 -0.2182 -0.1437
 6416SOL     OW20146   1.493   5.710   3.418 -0.0335 -0.2269 -0.5202
 6416SOL    HW120147   1.440   5.625   3.417 -1.5606  0.6675 -2.4687
 6416SOL    HW220148   1.534   5.725   3.328  0.2942  1.0706 -0.1771
 6417SOL     OW20149   4.848   2.913   5.610  0.0393  0.3925  0.3962
 6417SOL    HW120150   4.823   2.967   5.690  2.4046  0.5143  1.1047
 6417SOL    HW220151   4.817   2.819   5.622  0.8140  0.2860  1.7070
 6418SOL     OW20152   6.058   4.753   5.454  0.3297 -0.4616 -0.0799
 6418SOL    HW120153   6.117   4.756   5.373 -0.2975  1.2867 -0.5154
 6418SOL    HW220154   6.107   4.709   5.529  2.1498  0.7580 -0.4794
 6419SOL     OW20155   3.306   4.489   6.732  0.1740  0.3885 -0.9032
 6419SOL    HW120156   3.385   4.443   6.692 -0.1734 -0.7050 -0.4041
 6419SOL    HW220157   3.285   4.447   6.821 -1.5415 -0.0219 -1.4520
 6420SOL     OW20158   1.800   5.220   1.848 -0.1665  0.3629  0.2117
 6420SOL    HW120159   1.754   5.238   1.761 -0.6206 -1.1382  0.1198
 6420SOL    HW220160   1.892   5.260   1.846  0.4474 -1.0605 -1.6042
 6421SOL     OW20161   4.292   5.494   1.074 -0.2748  0.0673 -0.0179
 6421SOL    HW120162   4.207   5.468   1.119 -0.4426  0.6013 -0.0183
 6421SOL    HW220163   4.329   5.576   1.118 -0.2664  0.4023 -0.6345
 6422SOL     OW20164   0.474   6.472   0.253 -0.2497 -0.0513  0.3757
 6422SOL    HW120165   0.408   6.396   0.250 -1.4576  0.9424  0.7151
 6422SOL    HW220166   0.528   6.471   0.169 -0.7281 -0.8724  0.0531
 6423SOL     OW20167   1.987   4.493   4.974  0.0833  0.1591  0.1800
 6423SOL    HW120168   2.060   4.509   5.041  0.8512  1.7546 -0.9934
 6423SOL    HW220169   2.027   4.463   4.888 -0.9318 -2.2304  0.4750
 6424SOL     OW20170   5.820   3.227   4.900 -0.1362 -0.6142 -0.5041
 6424SOL    HW120171   5.901   3.284   4.884  0.5559 -1.1510  0.8736
 6424SOL    HW220172   5.798   3.229   4.998 -2.0226 -0.1910 -0.8978
 6425SOL     OW20173   1.623   6.990   3.429  0.5202 -0.0995 -0.4707
 6425SOL    HW120174   1.562   7.034   3.363  1.8082  0.5882 -1.2280
 6425SOL    HW220175   1.594   7.014   3.522  1.1536  2.3998 -0.8574
 6426SOL     OW20176   3.346   5.248   4.368 -0.3883  0.1579  0.2354
 6426SOL    HW120177   3.289   5.314   4.416  0.1453  0.5326  0.3674
 6426SOL    HW220178   3.334   5.259   4.270 -0.8035 -0.0032  0.2650
 6427SOL     OW20179   3.513   2.894   2.236  0.2229  0.3727 -0.1268
 6427SOL    HW120180   3.439   2.960   2.223  1.2509  1.3955 -1.0481
 6427SOL    HW220181   3.539   2.891   2.333  0.0737  1.2250 -0.0561
 6428SOL     OW20182   0.511   3.587   0.581 -0.4684 -0.0126 -0.7117
 6428SOL    HW120183   0.440   3.531   0.623 -0.6377 -0.2612 -1.3057
 6428SOL    HW220184   0.525   3.670   0.635 -0.5703 -0.3910 -0.0999
 6429SOL     OW20185   3.374   1.172   2.835 -0.1507  0.1632 -0.1364
 6429SOL    HW120186   3.359   1.133   2.744  0.3588 -0.4319  0.0280
 6429SOL    HW220187   3.286   1.191   2.878 -0.3924  0.7983 -0.8988
 6430SOL     OW20188   6.690   1.445   2.418  0.1271  0.3317  0.4140
 6430SOL    HW120189   6.723   1.529   2.461  0.0477  0.5898 -0.0253
 6430SOL    HW220190   6.591   1.436   2.435  0.3890 -0.4113  1.6788
 6431SOL     OW20191   4.723   4.639   2.557 -0.3370  0.0015  0.2796
 6431SOL    HW120192   4.658   4.651   2.632  1.1078 -0.8674  1.7123
 6431SOL    HW220193   4.779   4.721   2.548  0.6701 -0.5528  1.3398
 6432SOL     OW20194   3.614   2.362   6.472 -0.7515 -0.0222 -0.1287
 6432SOL    HW120195   3.621   2.378   6.374 -0.8343  1.1694  0.0406
 6432SOL    HW220196   3.517   2.365   6.499 -0.7772 -0.9509 -0.0966
 6433SOL     OW20197   4.365   3.355   6.504 -0.6766 -0.0697  0.4402
 6433SOL    HW120198   4.363   3.361   6.603 -0.5354 -0.0832  0.4451
 6433SOL    HW220199   4.294   3.413   6.465 -0.2691  0.5016  0.5326
 6434SOL     OW20200   6.283   4.459   6.588 -0.2129 -0.2944  0.8703
 6434SOL    HW120201   6.257   4.424   6.498 -1.1602  0.6553  0.7562
 6434SOL    HW220202   6.208   4.512   6.626 -0.3394 -1.7548  2.8038
 6435SOL     OW20203   3.705   1.356   6.966 -0.2180 -0.0650 -0.1366
 6435SOL    HW120204   3.618   1.311   6.988 -1.0555  1.4077 -0.2929
 6435SOL    HW220205   3.727   1.423   7.037  0.2647  0.2845 -0.6024
 6436SOL     OW20206   2.396   0.312   3.948  0.5169 -0.5516 -0.1996
 6436SOL    HW120207   2.395   0.410   3.964  0.8037 -0.3796 -1.1789
 6436SOL    HW220208   2.367   0.264   4.031 -1.2422  0.4172 -0.2124
 6437SOL     OW20209   0.575   3.064   6.912  0.3595 -0.7660 -0.2421
 6437SOL    HW120210   0.586   2.974   6.953 -0.2371 -0.3546  0.8744
 6437SOL    HW220211   0.616   3.133   6.971 -2.5059  0.1059  0.9459
 6438SOL     OW20212   1.800   4.344   2.409  0.4358 -0.0014  0.5419
 6438SOL    HW120213   1.740   4.323   2.331  0.4526  1.0063  0.2490
 6438SOL    HW220214   1.895   4.324   2.385  0.1817 -2.5709  1.3425
 6439SOL     OW20215   4.929   5.173   3.466  0.4017  0.0551  0.0003
 6439SOL    HW120216   4.969   5.245   3.522 -1.7813 -1.1023  3.3280
 6439SOL    HW220217   4.993   5.096   3.459  1.0421  0.5743  0.1021
 6440SOL     OW20218   2.996   1.262   3.281  0.0204 -0.1237  0.2281
 6440SOL    HW120219   2.962   1.326   3.351  0.9760  0.1967  0.4240
 6440SOL    HW220220   3.086   1.229   3.309 -0.2638 -1.2186 -0.1008
 6441SOL     OW20221   1.199   3.353   2.545  0.5685  0.5100  0.1587
 6441SOL    HW120222   1.251   3.347   2.459  0.4596  1.5889  0.0027
 6441SOL    HW220223   1.121   3.291   2.541 -1.3753  2.8464 -1.9374
 6442SOL     OW20224   4.593   0.894   2.406  0.2215 -0.1252  0.1514
 6442SOL    HW120225   4.551   0.978   2.370 -1.6276 -1.6799 -1.5748
 6442SOL    HW220226   4.690   0.893   2.381  0.1869  1.2982 -0.1644
 6443SOL     OW20227   3.774   1.424   4.738 -0.1414 -0.7529 -0.4982
 6443SOL    HW120228   3.828   1.482   4.799 -0.4400 -0.6471 -0.3318
 6443SOL    HW220229   3.681   1.415   4.775 -0.7409  0.4414 -1.6261
 6444SOL     OW20230   6.767   2.902   6.255  0.2546 -0.0876 -0.7930
 6444SOL    HW120231   6.720   2.833   6.309  0.7909 -0.0597 -0.2815
 6444SOL    HW220232   6.854   2.864   6.221  0.7653  0.4744 -0.1338
 6445SOL     OW20233   4.158   3.399   2.639 -0.0202 -0.8824 -0.5157
 6445SOL    HW120234   4.142   3.382   2.736 -0.9950 -0.2259 -0.5406
 6445SOL    HW220235   4.089   3.349   2.586  0.1386 -0.7594 -0.8378
 6446SOL     OW20236   6.262   6.036   6.277 -0.1249 -0.1847 -0.2554
 6446SOL    HW120237   6.221   6.116   6.236  0.6984 -1.0839 -3.0504
 6446SOL    HW220238   6.289   6.056   6.372 -0.6960  2.5098 -0.6092
 6447SOL     OW20239   6.956   3.389   1.902  0.5377 -0.3678  0.4692
 6447SOL    HW120240   6.872   3.346   1.870  1.5373 -0.9383 -1.5427
 6447SOL    HW220241   7.006   3.428   1.824  3.1843 -1.9292  1.2608
 6448SOL     OW20242   3.806   4.971   1.513  0.0974 -0.5546  0.0192
 6448SOL    HW120243   3.776   4.901   1.578 -0.7805  0.0329  0.2521
 6448SOL    HW220244   3.779   4.943   1.420 -0.4879 -0.3954  0.1417
 6449SOL     OW20245   3.978   0.115   6.546 -0.3978  0.1781  0.1529
 6449SOL    HW120246   4.062   0.168   6.530  0.0554  0.0066  1.7962
 6449SOL    HW220247   3.905   0.176   6.577 -0.7649  0.2611 -0.8497
 6450SOL     OW20248   5.067   4.103   1.623 -0.5464 -0.0991  0.2312
 6450SOL    HW120249   5.006   4.166   1.575 -0.6209 -0.6981 -0.4808
 6450SOL    HW220250   5.016   4.051   1.691 -1.1610 -1.5379 -1.2496
 6451SOL     OW20251   5.019   4.537   1.027 -0.9693  0.3520 -0.4311
 6451SOL    HW120252   5.098   4.599   1.026 -0.5059  0.1995  4.4566
 6451SOL    HW220253   5.043   4.452   0.980  0.6164  1.4391 -1.6995
 6452SOL     OW20254   4.983   5.971   2.898 -0.1110 -0.0429  0.0231
 6452SOL    HW120255   4.989   5.961   2.997  0.1850  2.2898  0.3005
 6452SOL    HW220256   4.899   6.020   2.875 -0.9570 -1.8827 -1.0529
 6453SOL     OW20257   2.454   0.448   1.822  0.2129  0.3083 -0.2513
 6453SOL    HW120258   2.504   0.450   1.909  0.3011 -2.4234 -0.1344
 6453SOL    HW220259   2.361   0.415   1.838  0.9051 -2.4295 -1.3618
 6454SOL     OW20260   5.276   3.491   3.644  0.0489  0.2210 -0.2132
 6454SOL    HW120261   5.297   3.393   3.633  0.6096  0.1782  1.0026
 6454SOL    HW220262   5.189   3.512   3.600 -0.6072 -1.0648  0.3998
 6455SOL     OW20263   5.296   2.241   4.461 -0.2643 -0.1537 -0.5640
 6455SOL    HW120264   5.352   2.323   4.464  0.5990 -0.6902 -1.5488
 6455SOL    HW220265   5.202   2.263   4.489  0.3652  0.7907  0.9149
 6456SOL     OW20266   5.985   0.114   3.355 -0.6579  0.6297  0.4775
 6456SOL    HW120267   6.065   0.174   3.360 -0.5954  0.4801  1.4766
 6456SOL    HW220268   5.908   0.165   3.316 -0.0609  0.7451 -0.5866
 6457SOL     OW20269   0.719   6.435   4.824 -0.2808  0.0972 -0.4667
 6457SOL    HW120270   0.705   6.402   4.731  0.5055 -1.1076 -0.1775
 6457SOL    HW220271   0.798   6.389   4.865 -0.3531  0.9166  0.6567
 6458SOL     OW20272   1.492   5.969   5.225  0.2055  0.0360 -0.2779
 6458SOL    HW120273   1.491   5.871   5.209 -0.4418 -0.3902  2.0290
 6458SOL    HW220274   1.457   6.017   5.145  1.8541 -1.4844 -1.9835
 6459SOL     OW20275   6.286   3.091   3.630 -0.1764  0.5121 -0.5973
 6459SOL    HW120276   6.239   3.099   3.718 -0.1247  1.5374 -0.6530
 6459SOL    HW220277   6.246   3.156   3.565  0.6055  0.6285 -0.9693
 6460SOL     OW20278   0.294   5.500   5.812  0.4079  0.0203 -0.5115
 6460SOL    HW120279   0.237   5.536   5.885  0.7382  1.1937 -0.8093
 6460SOL    HW220280   0.311   5.403   5.828  0.1467  0.1618  0.7482
 6461SOL     OW20281   5.842   0.359   1.073 -0.3977 -0.3279 -0.1447
 6461SOL    HW120282   5.931   0.368   1.118  0.6215 -0.4772 -2.0014
 6461SOL    HW220283   5.795   0.447   1.075 -0.3573 -0.3215  1.1277
 6462SOL     OW20284   2.979   4.399   6.456 -0.3571 -0.2776 -0.3402
 6462SOL    HW120285   2.935   4.455   6.526  0.0245 -0.8422  0.3639
 6462SOL    HW220286   2.928   4.405   6.371  1.1802  3.4279 -1.1837
 6463SOL     OW20287   4.036   3.225   1.585  0.4394 -0.3336 -0.0749
 6463SOL    HW120288   4.043   3.270   1.675  1.2868 -0.5532 -0.0174
 6463SOL    HW220289   4.117   3.168   1.571  1.9119  2.0617 -2.2658
 6464SOL     OW20290   6.422   4.790   2.935  0.4468  0.1926 -0.1627
 6464SOL    HW120291   6.501   4.755   2.884 -0.3617 -0.9302 -0.6913
 6464SOL    HW220292   6.387   4.719   2.996  0.0556  0.7974  0.3390
 6465SOL     OW20293   3.034   1.046   3.515  0.1619  0.5446  0.1518
 6465SOL    HW120294   3.112   1.083   3.464 -0.0902 -0.7529 -1.2279
 6465SOL    HW220295   2.954   1.105   3.501 -0.1954 -0.3615 -1.8870
 6466SOL     OW20296   6.885   3.745   4.945  0.0333  0.4161  0.2605
 6466SOL    HW120297   6.908   3.658   4.988 -0.4288 -0.1238 -0.5671
 6466SOL    HW220298   6.968   3.787   4.908  0.1342 -0.1090 -0.1250
 6467SOL     OW20299   3.697   4.228   5.596 -0.0217  0.2615  1.0324
 6467SOL    HW120300   3.713   4.162   5.522 -2.0143  0.2685  0.5300
 6467SOL    HW220301   3.648   4.307   5.559 -3.5153 -0.8837  2.7017
 6468SOL     OW20302   0.531   0.680   5.058 -0.3913 -0.0030 -0.3902
 6468SOL    HW120303   0.523   0.645   5.151  0.3609  1.3435  0.1988
 6468SOL    HW220304   0.448   0.730   5.034  0.5109  2.0653  0.6222
 6469SOL     OW20305   2.375   2.234   0.417 -0.2572  0.0629 -0.0515
 6469SOL    HW120306   2.355   2.283   0.332 -2.9537 -1.3299 -0.3214
 6469SOL    HW220307   2.338   2.141   0.412  0.1124 -0.2841  2.3923
 6470SOL     OW20308   6.557   0.717   5.669  0.4910 -0.1201  0.0051
 6470SOL    HW120309   6.468   0.747   5.635  0.6178  0.4051  0.1384
 6470SOL    HW220310   6.629   0.757   5.612  0.6996  0.6584  0.8021
 6471SOL     OW20311   0.883   0.216   5.001 -0.4126  0.1183 -0.0314
 6471SOL    HW120312   0.795   0.258   5.025 -0.6902 -0.5677  0.1826
 6471SOL    HW220313   0.933   0.276   4.938 -0.9488  0.6013 -0.0032
 6472SOL     OW20314   1.315   5.671   1.578 -0.1061  0.1363 -0.2238
 6472SOL    HW120315   1.391   5.673   1.513 -0.3578 -0.3144 -0.5361
 6472SOL    HW220316   1.336   5.732   1.655  0.2842  0.5092 -0.6193
 6473SOL     OW20317   2.557   6.766   3.668 -0.9126 -0.4925 -0.3417
 6473SOL    HW120318   2.595   6.858   3.657 -0.6364 -0.4501  0.8515
 6473SOL    HW220319   2.616   6.700   3.621 -0.4370 -0.2000 -0.1643
 6474SOL     OW20320   5.509   6.345   4.601  0.4910  0.3841  0.0499
 6474SOL    HW120321   5.434   6.294   4.644 -1.0044  1.7760 -0.8071
 6474SOL    HW220322   5.485   6.367   4.507  1.0925  2.6008  0.3650
 6475SOL     OW20323   4.429   5.861   2.551 -0.4695 -0.0254  0.2964
 6475SOL    HW120324   4.497   5.815   2.494  0.5212  0.8735  0.7254
 6475SOL    HW220325   4.474   5.904   2.629 -1.6294 -0.0098  0.9779
 6476SOL     OW20326   0.209   5.371   4.027 -0.8513 -0.3680  0.3235
 6476SOL    HW120327   0.291   5.416   4.062 -0.0970 -1.8174  0.5063
 6476SOL    HW220328   0.225   5.340   3.933 -1.0875 -0.9036  0.4548
 6477SOL     OW20329   7.000   6.187   6.351  0.2494 -0.0408 -0.5382
 6477SOL    HW120330   7.056   6.107   6.372 -1.2989 -0.8559  0.7277
 6477SOL    HW220331   6.973   6.184   6.255  2.9155  0.7892 -1.4003
 6478SOL     OW20332   1.870   6.059   1.011 -0.8835 -0.8405 -0.3293
 6478SOL    HW120333   1.775   6.029   1.006 -1.4756  0.9260 -0.5229
 6478SOL    HW220334   1.873   6.159   1.020  0.9392 -0.9220  0.5692
 6479SOL     OW20335   5.325   5.229   4.400  0.8180  0.0972  0.2046
 6479SOL    HW120336   5.322   5.184   4.490  0.6195 -0.2160  0.0426
 6479SOL    HW220337   5.278   5.317   4.405  0.1431 -0.2590  0.2167
 6480SOL     OW20338   2.452   6.857   5.303 -0.2538  0.8110  0.2407
 6480SOL    HW120339   2.443   6.912   5.386  1.8962 -2.1669  2.6902
 6480SOL    HW220340   2.390   6.779   5.307  0.8913 -0.1611 -0.2140
 6481SOL     OW20341   2.196   3.062   0.505 -0.1497 -0.1168 -0.2534
 6481SOL    HW120342   2.273   3.010   0.542 -1.3690 -2.5197 -0.8942
 6481SOL    HW220343   2.115   3.047   0.561 -0.7263  0.4613 -0.9093
 6482SOL     OW20344   4.914   3.329   3.339 -0.4687 -0.3659 -0.2409
 6482SOL    HW120345   4.856   3.247   3.337 -0.9071 -0.0425 -0.8721
 6482SOL    HW220346   4.886   3.391   3.266 -0.0494  0.2912  0.1573
 6483SOL     OW20347   2.195   0.925   6.076  0.1458  0.4405 -0.1833
 6483SOL    HW120348   2.214   0.944   6.173  2.4218 -2.0720 -0.0119
 6483SOL    HW220349   2.245   0.989   6.019 -0.2445  1.1786  0.2940
 6484SOL     OW20350   5.515   1.876   3.509  0.3720 -0.1858 -0.9040
 6484SOL    HW120351   5.457   1.804   3.473 -0.3122 -0.7729  1.2255
 6484SOL    HW220352   5.468   1.964   3.503 -0.3204 -0.4957 -0.1939
 6485SOL     OW20353   3.678   3.878   5.889  0.2031 -0.3561 -0.2470
 6485SOL    HW120354   3.628   3.802   5.847 -0.6884 -1.0155  1.8579
 6485SOL    HW220355   3.738   3.843   5.960  2.4736  0.6244 -1.5763
 6486SOL     OW20356   6.518   2.073   0.894  0.3679  0.0210  0.1755
 6486SOL    HW120357   6.600   2.041   0.848  0.5600  0.8957 -0.1103
 6486SOL    HW220358   6.538   2.158   0.943 -0.3775  0.2935  0.0289
 6487SOL     OW20359   5.241   6.710   4.293  0.4907  0.0591  0.2118
 6487SOL    HW120360   5.163   6.673   4.344  0.4652  0.0513  0.1671
 6487SOL    HW220361   5.324   6.703   4.349 -0.0401  2.9363  1.5584
 6488SOL     OW20362   2.675   4.764   1.770  0.4928 -0.2744  0.1113
 6488SOL    HW120363   2.607   4.692   1.758 -0.5669  0.6546  0.4517
 6488SOL    HW220364   2.745   4.733   1.834  0.5289 -1.3243 -0.4144
 6489SOL     OW20365   6.771   5.401   0.440 -0.4312 -0.4910  0.3131
 6489SOL    HW120366   6.711   5.432   0.367 -1.8134  3.3856  2.7730
 6489SOL    HW220367   6.721   5.339   0.501 -0.3253 -1.1331 -0.2463
 6490SOL     OW20368   2.590   3.986   5.680  0.4388  0.3738 -0.5689
 6490SOL    HW120369   2.525   3.979   5.605 -0.7463 -0.8798  0.5174
 6490SOL    HW220370   2.683   3.968   5.646 -0.1619 -0.8821 -1.6101
 6491SOL     OW20371   0.194   1.236   3.943  0.3382 -0.3704 -0.1846
 6491SOL    HW120372   0.263   1.263   4.010  2.2585 -1.7202 -1.4918
 6491SOL    HW220373   0.133   1.167   3.984  2.3508 -2.2426 -0.1396
 6492SOL     OW20374   3.304   3.153   2.501  0.0626  0.4764 -0.3967
 6492SOL    HW120375   3.265   3.087   2.437 -0.0205 -0.1914  0.3210
 6492SOL    HW220376   3.313   3.110   2.591  0.2436  1.3711  0.0220
 6493SOL     OW20377   3.122   5.371   4.587 -0.3815 -0.1919 -0.2058
 6493SOL    HW120378   3.082   5.463   4.594 -1.6923 -0.7432 -0.1341
 6493SOL    HW220379   3.050   5.306   4.563  0.7297 -1.0510 -1.2985
 6494SOL     OW20380   6.436   0.995   2.878  0.2362  0.1510 -0.1817
 6494SOL    HW120381   6.451   0.938   2.959 -1.6309 -0.8952 -0.4991
 6494SOL    HW220382   6.372   1.069   2.902 -1.0057 -0.6650 -0.8439
 6495SOL     OW20383   4.957   6.430   2.768 -0.0049 -0.0026 -0.3397
 6495SOL    HW120384   4.938   6.511   2.823 -0.7482  0.1695 -0.8425
 6495SOL    HW220385   5.030   6.377   2.812 -0.7548 -0.0184  0.9516
 6496SOL     OW20386   2.002   3.360   0.892  0.6252 -0.8385 -0.5030
 6496SOL    HW120387   2.049   3.335   0.977 -0.2968  0.2153  0.3431
 6496SOL    HW220388   1.964   3.451   0.901 -0.8066 -1.3083 -1.5033
 6497SOL     OW20389   1.307   4.077   1.986 -0.3740  0.4558  0.5630
 6497SOL    HW120390   1.232   4.067   1.920 -1.6868  2.0121  1.7300
 6497SOL    HW220391   1.271   4.069   2.079  0.6777  2.2856  1.1929
 6498SOL     OW20392   3.063   3.787   5.678  0.4245  0.1949  0.3963
 6498SOL    HW120393   3.124   3.766   5.601  0.1519 -0.7075  0.4175
 6498SOL    HW220394   3.086   3.729   5.755  0.0299  0.3912  0.6642
 6499SOL     OW20395   5.358   0.704   3.876 -0.4788  0.3766 -0.3525
 6499SOL    HW120396   5.266   0.723   3.841  0.2686 -0.3689 -2.9085
 6499SOL    HW220397   5.390   0.617   3.840  1.1962  0.5564  0.6265
 6500SOL     OW20398   2.355   2.733   4.260  0.0570 -0.5827 -0.1088
 6500SOL    HW120399   2.383   2.752   4.354  1.2162  1.4997 -0.8164
 6500SOL    HW220400   2.263   2.770   4.245  1.0281  1.8137 -0.5607
 6501SOL     OW20401   6.297   6.032   2.617  0.4201 -0.1605  0.0368
 6501SOL    HW120402   6.236   6.028   2.538  0.9263  1.5334 -0.4676
 6501SOL    HW220403   6.262   5.970   2.688 -2.0502  0.8944 -0.1373
 6502SOL     OW20404   0.760   4.067   2.447 -0.1776  0.2975  0.7257
 6502SOL    HW120405   0.815   4.045   2.528 -1.0770 -0.6293  1.1120
 6502SOL    HW220406   0.733   4.163   2.450  0.9596  0.6321  0.7975
 6503SOL     OW20407   6.720   2.462   5.811 -0.0775  0.0807 -0.3522
 6503SOL    HW120408   6.794   2.530   5.806  0.4602 -0.4842 -0.2253
 6503SOL    HW220409   6.732   2.407   5.893 -0.0530 -0.6916 -0.8662
 6504SOL     OW20410   2.052   0.183   6.584 -0.2752  0.0393 -0.1754
 6504SOL    HW120411   2.147   0.177   6.615 -0.8748 -0.2531  1.7165
 6504SOL    HW220412   2.031   0.277   6.558 -0.0221  0.5364  1.3371
 6505SOL     OW20413   0.968   1.974   6.416  0.0045 -0.1337  0.5144
 6505SOL    HW120414   0.964   1.944   6.511 -2.3122 -1.3130  0.1141
 6505SOL    HW220415   0.934   2.068   6.410 -1.7738 -0.7344  0.6505
 6506SOL     OW20416   0.018   6.526   2.667  0.4344  0.2709  0.2770
 6506SOL    HW120417  -0.042   6.537   2.588 -1.0194  0.6076  1.3717
 6506SOL    HW220418   0.113   6.536   2.639  0.0523 -0.8840 -1.6433
 6507SOL     OW20419   5.562   4.967   0.441  0.0319  0.0043  0.6386
 6507SOL    HW120420   5.547   4.968   0.342  2.5602  0.0536  0.1906
 6507SOL    HW220421   5.609   4.883   0.467  0.3720  0.4767  1.6166
 6508SOL     OW20422   6.564   1.264   4.637  0.1715  0.7292  0.1899
 6508SOL    HW120423   6.530   1.347   4.594 -0.1029  0.2761 -0.4860
 6508SOL    HW220424   6.489   1.198   4.645  0.7490 -0.0582 -0.7625
 6509SOL     OW20425   3.377   2.115   4.964  0.1140  0.3772 -0.3977
 6509SOL    HW120426   3.298   2.161   5.005  0.0213  1.3430 -1.5982
 6509SOL    HW220427   3.461   2.144   5.011 -0.1018  0.4142 -0.0278
 6510SOL     OW20428   3.245   5.266   4.121 -0.3780  0.0181 -0.3482
 6510SOL    HW120429   3.197   5.181   4.099 -1.7259  1.0553 -1.6576
 6510SOL    HW220430   3.180   5.332   4.159  0.4495  0.7919 -0.2520
 6511SOL     OW20431   3.517   3.483   6.447  0.1667 -0.2144 -0.0168
 6511SOL    HW120432   3.546   3.531   6.529  0.7105  0.5938 -0.6634
 6511SOL    HW220433   3.589   3.422   6.416  0.1647 -0.1325 -0.1838
 6512SOL     OW20434   5.980   1.110   0.737  0.2734  0.2425 -0.0391
 6512SOL    HW120435   5.943   1.017   0.732  0.4570 -0.0797  2.9608
 6512SOL    HW220436   5.905   1.176   0.740  0.1008  0.0480 -0.0620
 6513SOL     OW20437   2.445   4.097   1.469 -0.2339 -0.3077 -0.3817
 6513SOL    HW120438   2.478   4.099   1.375  1.4625 -1.6588  0.1227
 6513SOL    HW220439   2.506   4.040   1.524 -2.2749 -1.1448  1.1365
 6514SOL     OW20440   5.096   5.283   5.251 -0.0909  0.3603  0.0983
 6514SOL    HW120441   5.029   5.342   5.205  1.0236  0.3396 -1.6384
 6514SOL    HW220442   5.059   5.190   5.259 -0.4532  0.4542 -0.4341
 6515SOL     OW20443   0.045   3.759   1.977  0.4852 -0.0211 -0.9436
 6515SOL    HW120444   0.001   3.833   2.029  1.6904 -0.8799  1.4531
 6515SOL    HW220445  -0.021   3.686   1.961 -0.8536  1.6495 -3.7396
 6516SOL     OW20446   6.291   0.833   1.346  0.2000 -0.3777 -0.3473
 6516SOL    HW120447   6.247   0.841   1.435 -1.4629 -0.9764 -1.0930
 6516SOL    HW220448   6.308   0.925   1.309 -0.9312 -0.1295 -0.2776
 6517SOL     OW20449   0.436   3.405   1.188  0.0019  0.1858 -0.3215
 6517SOL    HW120450   0.391   3.316   1.185 -0.4286  0.4068 -0.5676
 6517SOL    HW220451   0.455   3.435   1.095  0.2721  0.2886 -0.2330
 6518SOL     OW20452   1.582   0.761   3.084  0.2241 -0.2078 -0.5467
 6518SOL    HW120453   1.668   0.794   3.123 -0.7901  0.6826  1.0515
 6518SOL    HW220454   1.510   0.768   3.152 -1.0140 -1.5010 -1.6606
 6519SOL     OW20455   1.303   2.203   4.125  0.2875  0.0159 -0.0417
 6519SOL    HW120456   1.237   2.192   4.199  1.4106  0.2137  1.0340
 6519SOL    HW220457   1.305   2.120   4.069  0.5730 -0.8185  1.1474
 6520SOL     OW20458   4.951   0.771   1.302  0.2233 -0.1624 -0.2003
 6520SOL    HW120459   5.003   0.787   1.386 -0.0412  1.3977 -0.3097
 6520SOL    HW220460   4.863   0.731   1.325 -0.2348  1.1103  0.3870
 6521SOL     OW20461   2.720   4.624   2.759  0.5614  0.4919 -0.4012
 6521SOL    HW120462   2.720   4.695   2.689 -1.6943  0.6599 -0.2941
 6521SOL    HW220463   2.754   4.539   2.720  0.3553  0.8522 -1.3856
 6522SOL     OW20464   3.507   3.591   5.349  0.2542 -0.0978  0.0840
 6522SOL    HW120465   3.606   3.585   5.347  0.2887 -0.1899  1.5110
 6522SOL    HW220466   3.475   3.645   5.270  1.4372  0.1073 -0.2656
 6523SOL     OW20467   4.418   6.241   2.653  0.2699 -0.1829  0.4576
 6523SOL    HW120468   4.328   6.270   2.688 -0.5384  0.5158 -1.9875
 6523SOL    HW220469   4.405   6.188   2.569  2.1138 -1.3024  0.8360
 6524SOL     OW20470   5.530   6.731   1.358 -0.1664 -0.4548 -0.4560
 6524SOL    HW120471   5.588   6.655   1.328 -0.2179 -0.3767 -0.7551
 6524SOL    HW220472   5.574   6.818   1.334 -0.0297 -0.3848  0.0298
 6525SOL     OW20473   1.367   5.423   4.977  0.7112 -0.5425 -0.4979
 6525SOL    HW120474   1.382   5.329   5.008  0.7372 -0.7356 -1.0831
 6525SOL    HW220475   1.418   5.439   4.893  0.8760  0.0670 -0.2871
 6526SOL     OW20476   4.593   0.468   1.034 -0.5823 -0.6730 -0.0354
 6526SOL    HW120477   4.612   0.371   1.019 -0.7815 -0.9430  1.2880
 6526SOL    HW220478   4.511   0.477   1.091  0.6267  0.1584  1.6887
 6527SOL     OW20479   5.535   1.342   1.567 -0.0741  0.4948 -0.0466
 6527SOL    HW120480   5.633   1.359   1.575  0.1602 -0.1789 -1.1031
 6527SOL    HW220481   5.484   1.418   1.606  0.8620  0.5793  1.0610
 6528SOL     OW20482   5.429   0.261   0.250  0.1748  0.1800 -0.1726
 6528SOL    HW120483   5.473   0.171   0.244  0.9775  0.5158  0.5579
 6528SOL    HW220484   5.337   0.255   0.210 -0.2783 -1.2870  0.9703
 6529SOL     OW20485   4.704   6.165   1.036  0.3932  0.3084  0.2036
 6529SOL    HW120486   4.693   6.264   1.028  0.1926  0.3576  1.0680
 6529SOL    HW220487   4.623   6.126   1.080  0.8314 -0.1426  0.6116
 6530SOL     OW20488   2.595   1.225   4.001  0.0726  0.1429  0.2913
 6530SOL    HW120489   2.496   1.231   4.015  0.0100  1.1419 -0.4760
 6530SOL    HW220490   2.642   1.259   4.083 -0.1490 -2.4098  1.5845
 6531SOL     OW20491   3.474   3.490   3.034 -0.1056  0.9352 -0.0932
 6531SOL    HW120492   3.499   3.451   3.122  2.1173  0.9585 -0.6591
 6531SOL    HW220493   3.385   3.454   3.005  2.4168 -5.5423 -1.5087
 6532SOL     OW20494   2.079   6.618   0.707  0.4561  0.0744 -0.1645
 6532SOL    HW120495   2.055   6.605   0.803 -1.8409 -1.7254 -0.8916
 6532SOL    HW220496   2.041   6.705   0.675  1.1368  0.6280  0.5063
 6533SOL     OW20497   6.493   4.537   1.861 -0.0922  0.1554  0.5641
 6533SOL    HW120498   6.533   4.494   1.942  0.6936 -0.8555 -0.3279
 6533SOL    HW220499   6.395   4.518   1.858 -0.0364 -0.2169  1.0239
 6534SOL     OW20500   4.974   3.550   4.153  0.6824  0.5581 -0.0597
 6534SOL    HW120501   4.987   3.487   4.230 -2.2606  0.1100  0.1916
 6534SOL    HW220502   4.945   3.498   4.072 -0.9208  1.4228 -0.0928
 6535SOL     OW20503   5.988   3.101   1.194 -0.2101 -0.1415 -0.0265
 6535SOL    HW120504   6.060   3.169   1.209 -1.3249  1.3874 -1.2510
 6535SOL    HW220505   5.919   3.110   1.266 -0.7376  0.5885 -0.6033
 6536SOL     OW20506   4.973   5.075   4.667 -0.5504 -0.1820 -0.6655
 6536SOL    HW120507   4.970   4.998   4.603 -0.0714 -3.6886  3.0544
 6536SOL    HW220508   4.907   5.060   4.740  1.9382  1.0236  2.0569
 6537SOL     OW20509   5.633   5.130   3.628 -0.1481 -0.4625 -0.0278
 6537SOL    HW120510   5.614   5.157   3.534  0.6180 -1.0711 -0.3713
 6537SOL    HW220511   5.645   5.030   3.632 -0.3805 -0.4658  0.7499
 6538SOL     OW20512   1.445   3.060   3.423  0.3559 -0.4287 -0.2124
 6538SOL    HW120513   1.402   3.045   3.334  0.7521 -1.2302 -0.2791
 6538SOL    HW220514   1.381   3.035   3.496 -0.1645  0.7414 -0.2441
 6539SOL     OW20515   4.761   6.206   0.752 -0.2999 -0.5914 -0.0770
 6539SOL    HW120516   4.722   6.139   0.690  0.5979 -2.5421  1.3639
 6539SOL    HW220517   4.759   6.171   0.846  0.6714  1.1969  0.6788
 6540SOL     OW20518   6.470   2.923   4.788  0.3153  0.2655 -0.6053
 6540SOL    HW120519   6.522   2.904   4.872  0.1143  1.1474 -0.2707
 6540SOL    HW220520   6.425   2.840   4.757  1.5549 -0.4180 -0.6450
 6541SOL     OW20521   4.202   2.858   0.069 -0.1622 -0.1259  0.6959
 6541SOL    HW120522   4.164   2.820  -0.015 -0.5283 -0.2707  0.9203
 6541SOL    HW220523   4.133   2.852   0.142  0.0468  0.2673  0.9279
 6542SOL     OW20524   3.195   5.568   2.948  0.0876 -0.4384  0.4642
 6542SOL    HW120525   3.232   5.628   3.020 -2.6319  1.8397  0.1658
 6542SOL    HW220526   3.098   5.587   2.937  0.1170 -1.6602 -2.9466
 6543SOL     OW20527   4.097   1.602   4.517 -0.1621 -0.0851 -0.5106
 6543SOL    HW120528   4.103   1.513   4.563 -1.5974 -0.6054 -1.2783
 6543SOL    HW220529   4.055   1.591   4.428  0.2649  1.2920 -0.9130
 6544SOL     OW20530   2.509   1.006   1.410 -0.3843 -0.0299  0.2568
 6544SOL    HW120531   2.580   1.063   1.452 -0.4080 -2.7842  4.6183
 6544SOL    HW220532   2.551   0.931   1.360 -0.2437 -0.0386  0.3873
 6545SOL     OW20533   5.870   3.431   0.573  0.1366 -0.9103  0.3032
 6545SOL    HW120534   5.919   3.459   0.490  0.1603 -1.4819  0.1219
 6545SOL    HW220535   5.833   3.339   0.561  0.7039 -1.2740  1.1642
 6546SOL     OW20536   3.943   0.176   3.312 -0.4266 -0.0523  0.1070
 6546SOL    HW120537   3.884   0.231   3.253 -0.1728  0.5878  0.4360
 6546SOL    HW220538   4.019   0.233   3.344  0.5842 -0.9518 -0.6047
 6547SOL     OW20539   0.342   5.095   5.210 -0.7785  0.1020 -0.3566
 6547SOL    HW120540   0.287   5.098   5.293 -1.9219 -0.2753 -1.0759
 6547SOL    HW220541   0.283   5.107   5.130  0.2608  0.2038 -1.1367
 6548SOL     OW20542   1.547   0.040   3.683  0.4341 -0.1780 -0.4525
 6548SOL    HW120543   1.617   0.077   3.743 -0.4114  2.2053 -0.8371
 6548SOL    HW220544   1.502  -0.038   3.727 -0.4274  1.6976  2.2502
 6549SOL     OW20545   1.244   2.440   1.477  0.1839  0.4765  0.6212
 6549SOL    HW120546   1.215   2.446   1.573  1.6211  3.5252  0.9665
 6549SOL    HW220547   1.326   2.383   1.470 -0.4984 -0.5881  0.9973
 6550SOL     OW20548   4.340   0.273   2.361 -0.1838  0.2023 -0.1048
 6550SOL    HW120549   4.243   0.296   2.375 -0.3715 -0.2975 -0.5600
 6550SOL    HW220550   4.349   0.175   2.344  0.2432  0.4407 -1.3987
 6551SOL     OW20551   2.420   4.833   2.434  0.4399 -0.2319 -0.4572
 6551SOL    HW120552   2.515   4.802   2.431  0.7365  0.7061 -1.8948
 6551SOL    HW220553   2.377   4.817   2.345 -0.0389  1.4559 -0.5533
 6552SOL     OW20554   1.840   6.771   5.332 -0.1760  0.2393  0.3705
 6552SOL    HW120555   1.936   6.777   5.361  0.8555  0.4179 -2.6916
 6552SOL    HW220556   1.818   6.677   5.309 -0.0705  0.4896 -0.8240
 6553SOL     OW20557   1.543   2.024   3.849 -0.0065  0.1833 -0.0803
 6553SOL    HW120558   1.549   2.100   3.784  3.4516 -0.1418 -0.2911
 6553SOL    HW220559   1.631   1.978   3.856 -1.5230 -2.8064  1.3380
 6554SOL     OW20560   3.014   1.689   3.307 -0.0689  0.0852  0.1380
 6554SOL    HW120561   2.926   1.661   3.269 -0.6884  2.1592 -0.0924
 6554SOL    HW220562   2.999   1.749   3.386  1.1248  1.0817 -0.3639
 6555SOL     OW20563   2.264   2.740   1.729  0.7018  0.1114  0.2147
 6555SOL    HW120564   2.309   2.772   1.646  0.9753 -0.9147 -0.0401
 6555SOL    HW220565   2.321   2.671   1.774 -0.5783 -1.1794 -0.0860
 6556SOL     OW20566   4.928   5.410   5.076 -0.0519  0.0138  0.0845
 6556SOL    HW120567   4.855   5.376   5.135  0.0223 -0.3853 -0.0526
 6556SOL    HW220568   4.908   5.386   4.981  1.9923 -3.3637  0.3382
 6557SOL     OW20569   1.994   1.597   2.547  0.0227  0.7076 -0.6501
 6557SOL    HW120570   1.977   1.499   2.558  1.4778  0.6135  1.1511
 6557SOL    HW220571   1.908   1.643   2.524 -1.8098 -0.3831  3.2391
 6558SOL     OW20572   6.561   6.640   1.167 -0.4424 -0.0580 -0.4051
 6558SOL    HW120573   6.600   6.639   1.075 -0.0478 -1.1082 -0.2405
 6558SOL    HW220574   6.462   6.624   1.161 -0.3728 -0.4264 -0.6341
 6559SOL     OW20575   6.973   1.506   4.683 -0.3616  0.2714  0.6899
 6559SOL    HW120576   6.969   1.562   4.600 -0.5153  0.8925  1.1075
 6559SOL    HW220577   6.956   1.411   4.660 -0.8690  0.5060  0.0725
 6560SOL     OW20578   0.304   5.361   0.660 -0.0633 -0.6252  0.1342
 6560SOL    HW120579   0.341   5.417   0.734 -0.8945 -0.0937  0.1596
 6560SOL    HW220580   0.379   5.315   0.612  0.5465 -0.3191  0.7729
 6561SOL     OW20581   2.716   5.191   5.015  0.0949  0.5300 -0.3446
 6561SOL    HW120582   2.764   5.265   4.968 -0.3750  1.9503  1.3123
 6561SOL    HW220583   2.782   5.134   5.063  0.3801  0.4373 -0.8365
 6562SOL     OW20584   3.178   1.990   1.544 -0.3464  0.1754  0.4197
 6562SOL    HW120585   3.141   2.023   1.631 -1.4455  0.7273 -0.2316
 6562SOL    HW220586   3.218   2.066   1.494  0.8336 -0.2478  0.6813
 6563SOL     OW20587   5.075   4.743   6.076 -0.1264 -0.5492  0.5300
 6563SOL    HW120588   4.993   4.727   6.022 -0.2523 -1.2857  0.9171
 6563SOL    HW220589   5.142   4.671   6.058  1.4454  1.3079 -1.5947
 6564SOL     OW20590   5.734   3.007   4.405 -0.7266  0.3539 -0.3342
 6564SOL    HW120591   5.778   3.017   4.495 -0.2551 -2.2226 -0.2146
 6564SOL    HW220592   5.658   3.071   4.399  1.6972  3.6001  0.2234
 6565SOL     OW20593   5.626   5.021   2.427  0.0444 -0.5454 -0.5778
 6565SOL    HW120594   5.546   4.984   2.379 -0.3391 -0.2159 -0.2000
 6565SOL    HW220595   5.599   5.052   2.518  0.9700 -2.1539  0.2997
 6566SOL     OW20596   4.950   6.128   5.563 -0.0414  0.0515 -0.2531
 6566SOL    HW120597   4.919   6.219   5.591 -0.1141 -0.1343  0.2780
 6566SOL    HW220598   4.943   6.120   5.464 -0.6659  0.3953 -0.2437
 6567SOL     OW20599   2.202   0.957   3.193  0.0181  0.2763  0.3344
 6567SOL    HW120600   2.231   1.009   3.274  0.6078  2.3989 -1.1493
 6567SOL    HW220601   2.277   0.955   3.127 -0.7426 -0.6980 -0.5350
 6568SOL     OW20602   5.570   0.466   0.392 -0.1896  0.2432 -0.6025
 6568SOL    HW120603   5.533   0.484   0.483 -0.3893  0.2358 -0.6799
 6568SOL    HW220604   5.531   0.381   0.357  3.3058 -2.3178  1.1539
 6569SOL     OW20605   0.593   3.941   5.091 -0.3132 -0.0656  0.3344
 6569SOL    HW120606   0.566   3.850   5.058 -1.8662  0.1378  0.9958
 6569SOL    HW220607   0.666   3.931   5.158 -2.1586 -1.0843  2.3158
 6570SOL     OW20608   4.517   5.862   3.566  0.5752  0.3725 -0.8280
 6570SOL    HW120609   4.450   5.853   3.639 -0.9681 -1.2491 -2.3410
 6570SOL    HW220610   4.498   5.946   3.514 -0.8655 -0.4828 -1.7442
 6571SOL     OW20611   2.107   0.727   2.457 -0.2792 -0.5862 -0.2402
 6571SOL    HW120612   2.150   0.806   2.413  1.0522 -1.4692 -0.5808
 6571SOL    HW220613   2.176   0.675   2.506 -0.8033 -2.4033 -1.3304
 6572SOL     OW20614   0.444   1.119   3.368  0.5251  0.7659  0.0624
 6572SOL    HW120615   0.505   1.046   3.400  0.4834  0.7083  0.0122
 6572SOL    HW220616   0.356   1.112   3.415  0.1270  0.0895 -0.7481
 6573SOL     OW20617   6.294   2.031   2.361  0.9796  0.1560  0.1901
 6573SOL    HW120618   6.293   1.935   2.389 -1.9865 -0.9362 -2.9667
 6573SOL    HW220619   6.237   2.085   2.424  2.2956 -0.1716  1.7179
 6574SOL     OW20620   2.437   4.792   2.169  0.1501 -0.3353 -0.5984
 6574SOL    HW120621   2.488   4.867   2.126  1.6449 -0.2205  1.2400
 6574SOL    HW220622   2.475   4.705   2.138  1.8608 -0.2498  1.0874
 6575SOL     OW20623   1.356   2.821   4.316 -0.0215 -0.3346  0.2039
 6575SOL    HW120624   1.316   2.799   4.405  0.2643  2.9209  1.2704
 6575SOL    HW220625   1.290   2.872   4.261  0.6556 -0.0824 -0.3945
 6576SOL     OW20626   6.366   1.748   3.889  0.3515  0.0415  0.7675
 6576SOL    HW120627   6.297   1.721   3.822  0.5605  0.2740  0.4562
 6576SOL    HW220628   6.323   1.806   3.959 -0.0076 -0.7465  1.2054
 6577SOL     OW20629   4.214   1.181   6.226 -0.0873  0.2257  0.3390
 6577SOL    HW120630   4.254   1.219   6.143 -0.1829  1.1669  0.7097
 6577SOL    HW220631   4.263   1.216   6.306 -0.7576  0.2896  0.7327
 6578SOL     OW20632   2.092   4.524   1.858 -0.1015 -0.2530  0.4419
 6578SOL    HW120633   2.078   4.584   1.780 -0.7667  0.2899  0.9653
 6578SOL    HW220634   2.029   4.446   1.852 -0.8267  0.2800  0.9052
 6579SOL     OW20635   1.778   3.540   1.917  0.8331  0.1808 -0.1342
 6579SOL    HW120636   1.772   3.457   1.862  1.2596  0.8392 -1.1974
 6579SOL    HW220637   1.777   3.516   2.014 -1.2423 -0.9052 -0.3854
 6580SOL     OW20638   1.496   2.303   5.923 -0.2410 -0.0477  0.8325
 6580SOL    HW120639   1.532   2.397   5.927  0.2515 -0.1206 -0.9379
 6580SOL    HW220640   1.400   2.303   5.953 -1.8030  1.9556 -3.4104
 6581SOL     OW20641   2.191   3.066   1.548 -0.1916  0.0196  0.1945
 6581SOL    HW120642   2.229   3.123   1.474 -3.3574 -0.7020 -2.1843
 6581SOL    HW220643   2.188   2.971   1.518 -2.2176 -0.1846  0.9064
 6582SOL     OW20644   4.626   5.904   1.783 -0.4737 -0.0016  0.3899
 6582SOL    HW120645   4.724   5.893   1.769 -0.1681 -1.0570  2.8542
 6582SOL    HW220646   4.576   5.842   1.721  0.4045  0.1779 -0.5232
 6583SOL     OW20647   1.290   4.628   0.404  0.0257  0.3627 -0.2090
 6583SOL    HW120648   1.334   4.713   0.433  0.3685  0.6892 -1.5807
 6583SOL    HW220649   1.192   4.645   0.388  0.4286  1.0345 -2.2962
 6584SOL     OW20650   5.784   4.117   6.490 -0.0520  0.4302 -0.0527
 6584SOL    HW120651   5.735   4.138   6.405 -0.3450  2.8086  0.6437
 6584SOL    HW220652   5.749   4.174   6.564 -1.0843 -2.8147  2.2174
 6585SOL     OW20653   4.243   0.012   0.148 -0.0059 -0.4374 -0.1023
 6585SOL    HW120654   4.270   0.094   0.097  0.5113 -1.0395 -0.8381
 6585SOL    HW220655   4.296  -0.066   0.114 -0.6039 -1.1037  0.4749
 6586SOL     OW20656   6.567   1.793   1.145 -0.0319 -0.8635  0.2555
 6586SOL    HW120657   6.492   1.817   1.082 -0.7682  0.4752  1.5587
 6586SOL    HW220658   6.595   1.698   1.130  0.1604 -0.4535 -2.3908
 6587SOL     OW20659   3.622   5.009   4.647 -0.3175  0.3727  0.7741
 6587SOL    HW120660   3.639   5.108   4.648  1.0537  0.2203 -1.2414
 6587SOL    HW220661   3.681   4.965   4.715  0.8081  0.7529  0.0763
 6588SOL     OW20662   0.772   3.155   0.973 -0.0298  0.6396  0.6967
 6588SOL    HW120663   0.839   3.084   0.950 -0.6994  0.2338 -0.0755
 6588SOL    HW220664   0.713   3.123   1.047  1.0810  1.2868  1.8749
 6589SOL     OW20665   5.030   1.568   1.602  0.2611  0.2028  0.4659
 6589SOL    HW120666   4.942   1.557   1.555 -0.1037 -0.2867  1.2372
 6589SOL    HW220667   5.041   1.663   1.630  0.3646  0.4430 -0.3691
 6590SOL     OW20668   0.723   6.293   3.570 -0.3307 -0.1632 -0.1955
 6590SOL    HW120669   0.682   6.203   3.557  0.7701 -0.3017 -3.7976
 6590SOL    HW220670   0.704   6.350   3.490  1.1132  1.9497  0.8770
 6591SOL     OW20671   6.119   2.696   3.282  0.6316  0.4798  0.5114
 6591SOL    HW120672   6.162   2.783   3.307 -0.8389  0.9683  1.4119
 6591SOL    HW220673   6.141   2.627   3.350 -0.6244  0.9402  1.4117
 6592SOL     OW20674   0.564   5.683   3.094 -0.2886 -0.2023 -0.1493
 6592SOL    HW120675   0.604   5.767   3.058 -2.0997  0.8149  0.0940
 6592SOL    HW220676   0.464   5.687   3.086 -0.9492  0.1994  4.9835
 6593SOL     OW20677   6.576   1.319   3.740 -0.0577  0.2175  0.1888
 6593SOL    HW120678   6.621   1.294   3.655 -1.0773  0.2019 -0.3694
 6593SOL    HW220679   6.643   1.353   3.806  0.6369  1.0301 -0.9142
 6594SOL     OW20680   6.161   2.281   5.553  0.1786  0.3712  0.1658
 6594SOL    HW120681   6.088   2.221   5.586 -0.2435  1.1793  0.7442
 6594SOL    HW220682   6.132   2.376   5.563  1.2350  0.6963  0.1883
 6595SOL     OW20683   0.671   6.357   4.576  0.2976  0.5227  0.3163
 6595SOL    HW120684   0.631   6.270   4.604  1.8775 -0.3984 -0.1390
 6595SOL    HW220685   0.622   6.392   4.496  1.8854 -1.8816 -1.8440
 6596SOL     OW20686   5.946   2.715   3.511  0.2431  0.5225  0.2225
 6596SOL    HW120687   5.980   2.691   3.420  0.3592 -1.0134  0.6315
 6596SOL    HW220688   6.023   2.741   3.569  0.3504  0.1343  0.2599
 6597SOL     OW20689   1.800   0.453   3.130  0.2096  0.0466 -0.4824
 6597SOL    HW120690   1.852   0.519   3.184 -1.6301  0.6989  0.5941
 6597SOL    HW220691   1.773   0.377   3.189 -0.1910 -0.1911 -0.9687
 6598SOL     OW20692   1.181   5.371   2.483  0.0398  0.1148  0.3930
 6598SOL    HW120693   1.150   5.407   2.395 -0.9139 -1.0857  0.2182
 6598SOL    HW220694   1.103   5.359   2.544  0.7066  1.1006  1.5082
 6599SOL     OW20695   1.445   5.710   1.252  0.3081 -0.1814  0.2975
 6599SOL    HW120696   1.452   5.713   1.152 -0.4838 -0.0913  0.2382
 6599SOL    HW220697   1.401   5.624   1.280  1.3347 -0.6224  0.6323
 6600SOL     OW20698   5.103   6.527   4.484 -0.2989 -0.5671  0.1527
 6600SOL    HW120699   5.018   6.565   4.519 -1.2247 -2.1822 -0.2340
 6600SOL    HW220700   5.175   6.534   4.553 -0.9283  0.1679  0.7424
 6601SOL     OW20701   1.128   2.819   3.364  0.0087  0.0969  0.0173
 6601SOL    HW120702   1.169   2.866   3.286  0.3954 -1.1448 -0.5562
 6601SOL    HW220703   1.076   2.740   3.331 -1.5586  0.7316  0.8557
 6602SOL     OW20704   6.755   6.018   2.337  0.0863 -0.0727 -0.3150
 6602SOL    HW120705   6.692   5.983   2.406  1.5374 -1.4328  0.3909
 6602SOL    HW220706   6.824   6.075   2.382  1.0081 -0.9185 -0.6403
 6603SOL     OW20707   5.110   5.640   2.612 -0.1722 -0.0860 -0.0029
 6603SOL    HW120708   5.016   5.672   2.611 -0.2231 -0.2399 -0.1458
 6603SOL    HW220709   5.149   5.652   2.703 -0.4249 -0.2987  0.1330
 6604SOL     OW20710   3.170   4.880   2.127  0.6829 -0.3268 -0.3729
 6604SOL    HW120711   3.213   4.844   2.210 -0.6977 -0.9076  0.1113
 6604SOL    HW220712   3.241   4.915   2.066  1.8190 -1.0197  0.5055
 6605SOL     OW20713   6.006   3.729   1.147  0.1006  0.3768  1.1162
 6605SOL    HW120714   5.960   3.642   1.166  0.0890  0.2140  0.3461
 6605SOL    HW220715   5.984   3.794   1.220  1.3960 -0.7388  2.5687
 6606SOL     OW20716   0.960   4.421   4.447 -0.1539 -0.0983  0.0989
 6606SOL    HW120717   0.890   4.427   4.518 -0.7353 -1.4660 -0.3254
 6606SOL    HW220718   0.940   4.487   4.374 -0.5937  0.0057  0.3130
 6607SOL     OW20719   1.050   2.820   5.884 -0.0667  0.3450  0.2191
 6607SOL    HW120720   1.047   2.734   5.936 -0.9515  1.3277  1.8871
 6607SOL    HW220721   1.109   2.885   5.931  1.3776  0.3715 -1.5469
 6608SOL     OW20722   0.962   6.684   3.305 -0.1000 -0.4093  0.5463
 6608SOL    HW120723   0.939   6.590   3.281 -0.5320 -0.4106  0.9257
 6608SOL    HW220724   1.032   6.684   3.377 -0.8288 -0.4782  1.2803
 6609SOL     OW20725   1.602   3.377   6.231  0.1641 -0.1379 -0.5937
 6609SOL    HW120726   1.575   3.429   6.150  1.2619  0.1646 -0.7801
 6609SOL    HW220727   1.702   3.373   6.237  0.1296  0.5349  1.1809
 6610SOL     OW20728   2.691   5.109   5.795 -0.0690  0.0438  0.5694
 6610SOL    HW120729   2.760   5.037   5.796  0.6901  0.7355  2.6440
 6610SOL    HW220730   2.733   5.196   5.769 -1.0500 -0.2145 -2.2711
 6611SOL     OW20731   1.826   1.042   7.003  0.2544 -0.3869  0.1934
 6611SOL    HW120732   1.864   1.101   6.932 -0.1034  1.4769  1.4898
 6611SOL    HW220733   1.878   1.054   7.088 -1.0396 -0.4224  1.0267
 6612SOL     OW20734   5.582   1.343   5.608 -0.3796 -0.0704 -0.1317
 6612SOL    HW120735   5.514   1.414   5.588  0.5088  1.0317  0.6845
 6612SOL    HW220736   5.665   1.385   5.643  0.4617 -1.4690 -0.3780
 6613SOL     OW20737   5.223   6.255   0.555  0.0497  0.5980 -0.1856
 6613SOL    HW120738   5.309   6.209   0.577 -0.6810 -0.4321  0.6069
 6613SOL    HW220739   5.176   6.205   0.482  0.0630  1.1006 -0.5461
 6614SOL     OW20740   3.496   6.293   6.309  0.5784 -0.5115 -0.1377
 6614SOL    HW120741   3.542   6.238   6.239  3.1263 -0.2267  1.2324
 6614SOL    HW220742   3.536   6.384   6.312 -2.4519  1.0302 -1.1883
 6615SOL     OW20743   4.037   6.953   0.759 -0.8526 -0.1432  0.2652
 6615SOL    HW120744   4.085   6.892   0.822 -0.0258 -2.5242 -2.3962
 6615SOL    HW220745   4.101   7.022   0.725  0.1043 -1.6766 -1.2673
 6616SOL     OW20746   3.555   1.766   6.193 -0.2454 -0.0103  0.0770
 6616SOL    HW120747   3.570   1.863   6.209 -0.3285  0.1339 -0.6692
 6616SOL    HW220748   3.457   1.749   6.179 -0.0774  0.0496 -1.2988
 6617SOL     OW20749   3.685   2.079   3.257  0.3655 -0.1304 -0.4046
 6617SOL    HW120750   3.587   2.096   3.272  0.7103  1.4983  0.1577
 6617SOL    HW220751   3.726   2.047   3.343  0.8310  1.8425  0.1656
 6618SOL     OW20752   5.701   3.682   4.270 -0.2814 -0.2101 -0.2804
 6618SOL    HW120753   5.698   3.708   4.367 -1.0185  1.1383 -0.6327
 6618SOL    HW220754   5.785   3.633   4.251  1.1114  1.7157  0.5502
 6619SOL     OW20755   6.586   6.018   3.285 -0.0807 -0.2748  0.2008
 6619SOL    HW120756   6.587   6.109   3.242 -0.0224  0.5425  1.8728
 6619SOL    HW220757   6.497   5.975   3.270  0.2949 -0.5201 -1.6828
 6620SOL     OW20758   0.622   3.350   4.125  0.3668  0.1918 -0.0645
 6620SOL    HW120759   0.703   3.308   4.083  0.6296  1.2659 -0.6597
 6620SOL    HW220760   0.651   3.427   4.182 -0.1977  0.2251  0.1803
 6621SOL     OW20761   4.103   3.548   3.093  0.5798  0.0497 -0.0607
 6621SOL    HW120762   4.069   3.612   3.162 -1.2935 -0.9658  0.0013
 6621SOL    HW220763   4.084   3.584   3.002  2.5120  1.1012 -0.1038
 6622SOL     OW20764   0.693   4.874   0.286 -0.3585 -0.3504  0.3950
 6622SOL    HW120765   0.791   4.893   0.280 -0.2575 -1.2071 -2.4635
 6622SOL    HW220766   0.664   4.824   0.204 -3.6981  2.1560 -0.1702
 6623SOL     OW20767   3.534   3.631   4.071 -0.2859 -0.0784  0.1729
 6623SOL    HW120768   3.502   3.542   4.037  0.8416 -0.5385  0.2635
 6623SOL    HW220769   3.612   3.661   4.016 -1.3921  1.4604 -0.6307
 6624SOL     OW20770   2.666   2.385   3.241  0.3035 -0.5383 -0.1332
 6624SOL    HW120771   2.645   2.370   3.338 -1.8444 -0.0193 -0.4806
 6624SOL    HW220772   2.730   2.314   3.210 -0.0348 -1.5270  1.3100
 6625SOL     OW20773   2.828   4.765   0.220  0.0022  0.3548 -0.9508
 6625SOL    HW120774   2.772   4.846   0.233  2.0528  1.4111  2.2032
 6625SOL    HW220775   2.824   4.708   0.302 -0.2571 -2.0930 -2.5511
 6626SOL     OW20776   3.392   4.979   5.889 -0.1341 -0.9230 -0.0030
 6626SOL    HW120777   3.492   4.972   5.890 -0.1213 -0.8033 -0.3673
 6626SOL    HW220778   3.358   4.954   5.799 -0.3175  0.4321 -0.3348
 6627SOL     OW20779   1.610   0.795   4.013  0.2012 -0.7542 -0.6364
 6627SOL    HW120780   1.669   0.800   4.094  0.5300 -0.2384 -0.9042
 6627SOL    HW220781   1.543   0.722   4.025 -0.7250  0.2795  0.7420
 6628SOL     OW20782   4.547   6.477   2.371 -0.2377  0.0356 -0.9437
 6628SOL    HW120783   4.641   6.443   2.375 -0.3518 -0.2157  1.5197
 6628SOL    HW220784   4.484   6.400   2.366 -0.3864 -0.0558  1.3401
 6629SOL     OW20785   4.168   5.451   4.747  0.5613 -0.2457 -0.1654
 6629SOL    HW120786   4.150   5.444   4.649 -0.7096 -0.6685  0.0893
 6629SOL    HW220787   4.095   5.502   4.792  0.8957 -0.4492  0.6366
 6630SOL     OW20788   6.584   5.807   2.155 -0.1949  0.6280  0.1575
 6630SOL    HW120789   6.662   5.839   2.208 -0.5785 -0.2179  1.2724
 6630SOL    HW220790   6.500   5.844   2.195 -0.3305  3.5787 -2.4621
 6631SOL     OW20791   2.957   0.583   3.311 -0.1032  0.1736 -0.3747
 6631SOL    HW120792   2.944   0.597   3.213 -1.8594 -0.5838 -0.2802
 6631SOL    HW220793   2.919   0.660   3.361 -0.1204  0.0853 -0.2523
 6632SOL     OW20794   2.148   0.405   4.288 -0.4817  0.9437  0.2218
 6632SOL    HW120795   2.229   0.348   4.292 -1.6041 -1.1054 -2.7673
 6632SOL    HW220796   2.084   0.378   4.360 -0.6394 -1.1413 -0.6334
 6633SOL     OW20797   3.502   6.389   0.057 -0.2898  0.1211  0.7603
 6633SOL    HW120798   3.427   6.399   0.122 -0.7553  3.1643 -0.0684
 6633SOL    HW220799   3.578   6.448   0.085  1.2496 -1.8089  0.8026
 6634SOL     OW20800   2.471   2.236   4.428 -0.7860 -0.0730 -0.3550
 6634SOL    HW120801   2.524   2.294   4.367 -0.4394  0.9554  0.8705
 6634SOL    HW220802   2.385   2.211   4.384 -0.4481  0.4448 -1.3382
 6635SOL     OW20803   4.598   4.792   4.596  0.2033  0.1110 -0.8301
 6635SOL    HW120804   4.547   4.726   4.652  0.8299  2.5836  3.0065
 6635SOL    HW220805   4.695   4.767   4.596  0.0745 -0.4769 -1.8680
 6636SOL     OW20806   4.720   3.135   1.483 -0.3514  0.0162 -0.2513
 6636SOL    HW120807   4.801   3.089   1.447  1.1453  3.5518 -1.8667
 6636SOL    HW220808   4.744   3.184   1.567 -1.5175 -0.8521  0.6289
 6637SOL     OW20809   6.765   5.079   5.571 -0.1485 -0.2581  0.2143
 6637SOL    HW120810   6.833   5.007   5.559  0.3429 -0.1563  1.9841
 6637SOL    HW220811   6.787   5.156   5.511  0.0055 -1.0988 -0.8258
 6638SOL     OW20812   3.834   3.928   4.479 -0.4358 -0.2322 -0.1302
 6638SOL    HW120813   3.823   4.001   4.547  1.3950  1.4956 -1.5605
 6638SOL    HW220814   3.932   3.908   4.468 -0.8891 -2.8959  0.1416
 6639SOL     OW20815   4.698   0.397   3.259  0.2935 -0.6446 -0.4708
 6639SOL    HW120816   4.645   0.316   3.232 -1.7638 -0.0795  1.5291
 6639SOL    HW220817   4.759   0.374   3.335  1.1054 -0.7201 -1.1350
 6640SOL     OW20818   6.357   1.756   5.879 -0.0611  0.5996  0.3254
 6640SOL    HW120819   6.440   1.700   5.877 -0.7071 -0.3588 -1.6980
 6640SOL    HW220820   6.365   1.829   5.812 -1.2942 -0.2180 -0.7606
 6641SOL     OW20821   5.492   1.033   1.294  0.3168  0.0802  0.1889
 6641SOL    HW120822   5.573   1.088   1.312 -1.0307  1.4904  2.2964
 6641SOL    HW220823   5.412   1.092   1.284 -0.5553 -1.2749 -1.7244
 6642SOL     OW20824   0.559   4.207   5.700  0.4075 -0.0765  0.1370
 6642SOL    HW120825   0.575   4.284   5.639  1.3993 -0.5036 -0.1636
 6642SOL    HW220826   0.619   4.131   5.674 -0.8821 -1.1248  0.1191
 6643SOL     OW20827   0.932   0.211   3.854 -0.6551  0.0208 -0.0765
 6643SOL    HW120828   0.979   0.262   3.927  1.0595 -0.7737 -0.5645
 6643SOL    HW220829   0.988   0.213   3.771 -2.8428  1.3971 -1.6100
 6644SOL     OW20830   2.623   0.421   2.036 -0.3736 -0.2268 -0.0103
 6644SOL    HW120831   2.713   0.429   1.994 -0.1943  0.6036  0.5145
 6644SOL    HW220832   2.633   0.418   2.136 -1.0057  1.3158  0.1167
 6645SOL     OW20833   5.523   3.738   6.485  0.3053 -0.5600  0.0929
 6645SOL    HW120834   5.520   3.638   6.491  0.5076 -0.5418  0.5827
 6645SOL    HW220835   5.617   3.768   6.473  0.7939 -0.2957  3.4136
 6646SOL     OW20836   2.048   6.265   0.071 -0.0228  0.3581 -0.0068
 6646SOL    HW120837   2.111   6.244  -0.003 -3.0960 -0.1739 -2.6875
 6646SOL    HW220838   2.060   6.360   0.099  1.5331  0.4294 -0.8307
 6647SOL     OW20839   2.692   6.549   0.004 -0.0389  0.6270  0.6888
 6647SOL    HW120840   2.749   6.579  -0.072  0.4023  0.0383  0.7791
 6647SOL    HW220841   2.675   6.626   0.066 -0.3997  1.1060  0.0028
 6648SOL     OW20842   3.108   5.556   2.438  0.4189 -0.2130  1.1899
 6648SOL    HW120843   3.161   5.606   2.370  0.9825 -0.6184  1.3282
 6648SOL    HW220844   3.083   5.618   2.513 -0.2991  0.2602  0.5702
 6649SOL     OW20845   5.032   1.465   6.996 -0.4086  0.4332 -0.2230
 6649SOL    HW120846   5.072   1.496   6.910  0.6870  0.8320  0.3951
 6649SOL    HW220847   5.080   1.383   7.027 -1.9153 -0.7106 -0.8088
 6650SOL     OW20848   4.033   0.503   4.999 -0.4892  0.3977  0.1329
 6650SOL    HW120849   4.117   0.532   4.955 -0.9094  0.6407 -0.5257
 6650SOL    HW220850   4.054   0.437   5.072  0.6072  3.0191  2.3785
 6651SOL     OW20851   0.271   2.390   4.771  0.6189  0.2177 -0.4446
 6651SOL    HW120852   0.257   2.306   4.717  1.7583 -0.1089 -0.2563
 6651SOL    HW220853   0.224   2.381   4.859 -0.6687  0.4725 -1.0738
 6652SOL     OW20854   1.294   5.997   6.623  0.0914  0.0398 -0.2219
 6652SOL    HW120855   1.370   5.992   6.689  1.6049  0.7217 -1.8436
 6652SOL    HW220856   1.278   5.906   6.585  0.3331 -0.0430 -0.1329
 6653SOL     OW20857   5.827   3.840   6.539 -0.0632 -0.5042  0.4181
 6653SOL    HW120858   5.845   3.938   6.525 -0.2242 -0.6198 -0.6744
 6653SOL    HW220859   5.893   3.786   6.487  0.0997 -0.9865  1.1105
 6654SOL     OW20860   1.318   1.788   2.911  0.8347  0.0182 -0.4884
 6654SOL    HW120861   1.406   1.773   2.864  2.6694 -0.8429  2.8868
 6654SOL    HW220862   1.330   1.858   2.982 -1.8238  1.3300 -1.2162
 6655SOL     OW20863   6.860   5.193   6.702  0.1678  0.7386  0.9074
 6655SOL    HW120864   6.828   5.261   6.768  1.4333 -1.2998  3.8181
 6655SOL    HW220865   6.930   5.136   6.744  0.9784 -0.8252 -2.2267
 6656SOL     OW20866   1.328   2.892   1.745 -0.4894  0.2630  0.0176
 6656SOL    HW120867   1.339   2.816   1.681  0.1688  0.2109  0.1782
 6656SOL    HW220868   1.411   2.948   1.744 -1.2859  1.4777 -0.7276
 6657SOL     OW20869   5.947   2.555   4.367  0.4103  0.5419 -0.0411
 6657SOL    HW120870   5.933   2.649   4.401 -3.6152 -0.2720  1.1049
 6657SOL    HW220871   5.945   2.491   4.444 -1.7420 -0.7732 -1.0789
 6658SOL     OW20872   6.792   0.086   4.233 -0.1321  0.7058  0.5242
 6658SOL    HW120873   6.753   0.084   4.325 -0.1105  1.4231  0.5590
 6658SOL    HW220874   6.800   0.181   4.203  0.8573  0.5290  0.1990
 6659SOL     OW20875   1.519   6.280   1.503  0.1278 -0.3947 -0.1087
 6659SOL    HW120876   1.463   6.346   1.553 -0.1553  1.3231 -2.4913
 6659SOL    HW220877   1.612   6.280   1.540 -0.3804 -0.1805  1.2238
 6660SOL     OW20878   0.549   0.267   3.271  0.3086 -0.2055  0.1292
 6660SOL    HW120879   0.463   0.305   3.237  1.4332  2.6084  0.1895
 6660SOL    HW220880   0.572   0.310   3.358  1.6467 -1.1404  0.2654
 6661SOL     OW20881   2.920   0.196   2.806 -0.1147 -0.1062 -0.0201
 6661SOL    HW120882   2.986   0.222   2.734 -1.0015  0.8662 -0.5163
 6661SOL    HW220883   2.929   0.099   2.826  0.1449 -0.4062 -1.4677
 6662SOL     OW20884   0.779   6.015   1.156  0.0343  0.0034  0.0789
 6662SOL    HW120885   0.713   6.058   1.095  0.1276  1.0314  0.6791
 6662SOL    HW220886   0.785   6.066   1.241  1.3255 -0.2822  0.1911
 6663SOL     OW20887   2.949   5.744   5.458 -0.4697  0.0757 -0.5230
 6663SOL    HW120888   2.881   5.691   5.407 -1.8036  0.7644  0.4702
 6663SOL    HW220889   2.937   5.728   5.556  1.2981 -0.3411 -0.3423
 6664SOL     OW20890   2.885   0.367   0.217  0.2941  0.3388  0.2370
 6664SOL    HW120891   2.832   0.415   0.287  1.3204  1.9305 -0.0100
 6664SOL    HW220892   2.824   0.314   0.158 -0.6597 -0.4608  1.8680
 6665SOL     OW20893   2.520   5.458   5.857 -0.3990 -0.6120  0.2666
 6665SOL    HW120894   2.433   5.427   5.820 -1.1646  1.2288  0.4196
 6665SOL    HW220895   2.530   5.425   5.951 -0.5885 -1.4161  0.0132
 6666SOL     OW20896   3.659   5.961   6.104 -0.3154  0.1961  1.0958
 6666SOL    HW120897   3.651   5.893   6.031  0.5709  1.3422 -0.0985
 6666SOL    HW220898   3.664   5.913   6.192 -0.7686 -1.2366  0.3821
 6667SOL     OW20899   2.284   6.102   7.003  0.0890 -0.1523  0.4026
 6667SOL    HW120900   2.203   6.049   6.976 -0.6764  1.2117 -0.0853
 6667SOL    HW220901   2.330   6.137   6.922  0.1501  0.5526  0.7312
 6668SOL     OW20902   0.287   3.327   6.484 -0.8660  0.2849 -0.1084
 6668SOL    HW120903   0.351   3.292   6.553  1.5039  1.2292 -1.6909
 6668SOL    HW220904   0.247   3.413   6.517  1.1606  1.3698 -0.2866
 6669SOL     OW20905   1.125   4.486   3.444  0.0404  0.0851 -0.1479
 6669SOL    HW120906   1.114   4.418   3.372 -0.6558  0.0607 -0.0246
 6669SOL    HW220907   1.062   4.562   3.429  1.2040  0.9937 -0.6063
 6670SOL     OW20908   2.121   3.631   4.220  0.0250  0.5594  0.9002
 6670SOL    HW120909   2.121   3.575   4.303 -5.0580  0.8353  1.3897
 6670SOL    HW220910   2.151   3.576   4.143  2.2731 -0.5087  2.4238
 6671SOL     OW20911   5.919   3.384   0.961 -0.1672  0.6939  0.0570
 6671SOL    HW120912   5.890   3.302   0.910 -0.0138 -2.0012  3.8931
 6671SOL    HW220913   5.993   3.429   0.911 -0.0845 -1.6500 -2.1344
 6672SOL     OW20914   2.488   3.075   1.694 -0.1381  0.0353  0.3873
 6672SOL    HW120915   2.395   3.044   1.672 -0.7800 -0.1932  3.0916
 6672SOL    HW220916   2.547   2.995   1.709 -0.3419  0.1161  1.7453
 6673SOL     OW20917   4.803   2.657   5.637 -0.1631 -0.1171 -0.0321
 6673SOL    HW120918   4.752   2.631   5.555 -0.0255 -1.0622  0.1621
 6673SOL    HW220919   4.784   2.591   5.709  2.0636 -1.0841 -0.2528
 6674SOL     OW20920   4.930   0.354   6.681  0.1890 -0.7493  0.1814
 6674SOL    HW120921   4.850   0.381   6.626  0.3493 -2.6845 -1.0982
 6674SOL    HW220922   5.009   0.345   6.621  1.1657  0.1762  1.2872
 6675SOL     OW20923   4.639   1.816   0.934  0.2879  0.0797  0.0195
 6675SOL    HW120924   4.707   1.743   0.943  1.2897  0.8068 -1.2467
 6675SOL    HW220925   4.621   1.856   1.024  2.7466  0.8848  0.2447
 6676SOL     OW20926   0.867   3.405   5.425 -0.7188 -0.3070  0.5430
 6676SOL    HW120927   0.814   3.473   5.475  0.0393 -0.2011  1.2289
 6676SOL    HW220928   0.915   3.345   5.490  0.6517  0.1144 -0.0373
 6677SOL     OW20929   0.534   2.808   6.600  0.0730 -0.1962  0.0633
 6677SOL    HW120930   0.569   2.746   6.530  2.9181  0.9035  0.3678
 6677SOL    HW220931   0.524   2.900   6.560 -3.6415 -0.5689 -0.2639
 6678SOL     OW20932   3.226   6.624   0.096  0.2459 -0.0066  0.0674
 6678SOL    HW120933   3.292   6.693   0.067 -0.7134  0.4279 -1.1498
 6678SOL    HW220934   3.258   6.582   0.181  2.6783 -0.6465 -1.0810
 6679SOL     OW20935   3.330   6.668   5.165 -0.0159  0.0912 -0.0014
 6679SOL    HW120936   3.417   6.628   5.194 -0.0654 -0.4618 -0.6017
 6679SOL    HW220937   3.326   6.672   5.066 -0.0901  1.4499  0.0306
 6680SOL     OW20938   5.926   6.752   1.121  0.5156  0.1938  0.7034
 6680SOL    HW120939   5.859   6.692   1.165 -1.4016  1.9029  0.2493
 6680SOL    HW220940   5.992   6.696   1.070 -1.7365 -1.5531 -0.5026
 6681SOL     OW20941   1.480   6.425   6.274 -0.3567  0.6480  0.1425
 6681SOL    HW120942   1.401   6.430   6.214  1.3647  0.7149 -2.2681
 6681SOL    HW220943   1.501   6.516   6.310 -0.6977  0.8345 -0.1265
 6682SOL     OW20944   0.341   4.616   1.332  0.6332 -0.3428  0.4128
 6682SOL    HW120945   0.281   4.695   1.320 -0.2812 -1.2892 -1.8039
 6682SOL    HW220946   0.434   4.646   1.353 -0.0955  1.2152  1.5876
 6683SOL     OW20947   4.915   6.221   0.475  0.3722 -0.0878  0.1763
 6683SOL    HW120948   4.962   6.262   0.554  0.0641  2.3194 -0.8070
 6683SOL    HW220949   4.977   6.157   0.430  1.5444  0.5564  0.8013
 6684SOL     OW20950   3.470   6.950   5.544  0.0795  0.0809  0.0945
 6684SOL    HW120951   3.415   7.006   5.482  0.2403  0.5795  0.3961
 6684SOL    HW220952   3.415   6.873   5.577 -0.5894  0.8091  0.7229
 6685SOL     OW20953   3.934   4.113   0.156 -0.8312 -0.4165 -0.6865
 6685SOL    HW120954   3.952   4.070   0.244  2.1384 -0.7366 -1.3467
 6685SOL    HW220955   3.845   4.159   0.159 -1.1612 -1.0434  2.1899
 6686SOL     OW20956   4.914   4.073   5.420 -0.7348  0.4669 -0.2767
 6686SOL    HW120957   4.896   4.168   5.397  2.3816  1.1464 -0.3067
 6686SOL    HW220958   4.965   4.029   5.347  1.2894 -0.0271  1.3425
 6687SOL     OW20959   6.321   0.975   6.316 -0.3012  0.6201  0.0937
 6687SOL    HW120960   6.345   1.046   6.382 -2.2859  1.4900 -0.0524
 6687SOL    HW220961   6.292   1.017   6.230 -2.5781 -0.2689  0.3640
 6688SOL     OW20962   5.943   5.852   0.088  0.0267 -0.8441 -0.9085
 6688SOL    HW120963   5.885   5.770   0.085  0.8950 -1.6043  1.1961
 6688SOL    HW220964   6.039   5.824   0.097  0.3045  0.3895  0.2853
 6689SOL     OW20965   5.519   4.389   6.278 -0.2151 -0.1248 -0.7111
 6689SOL    HW120966   5.565   4.472   6.312 -0.2526  0.6256 -2.3696
 6689SOL    HW220967   5.585   4.314   6.273 -0.2734 -0.3402  1.1884
 6690SOL     OW20968   6.325   0.263   6.461  0.1829 -0.3998 -0.4440
 6690SOL    HW120969   6.394   0.244   6.390  0.2749 -2.0153  0.0434
 6690SOL    HW220970   6.291   0.177   6.498 -0.4175  0.4118  0.9613
 6691SOL     OW20971   2.866   2.179   2.929  0.5197  0.1436 -0.0526
 6691SOL    HW120972   2.942   2.174   2.993  1.9912  1.6188 -1.5701
 6691SOL    HW220973   2.818   2.266   2.939  1.1598  0.6743 -1.3040
 6692SOL     OW20974   5.314   6.006   0.100  0.5253 -0.6055  0.1640
 6692SOL    HW120975   5.240   6.074   0.102  0.8252 -0.2760  0.2507
 6692SOL    HW220976   5.285   5.926   0.048  0.5421  0.0429 -0.8670
 6693SOL     OW20977   1.166   2.527   0.915 -0.0819  0.0798  0.3514
 6693SOL    HW120978   1.145   2.555   0.821  1.6406  2.6636  0.6261
 6693SOL    HW220979   1.263   2.505   0.922 -0.5650 -2.0536  1.1577
 6694SOL     OW20980   5.100   5.004   2.018  0.1485 -0.2622  0.2448
 6694SOL    HW120981   5.081   4.950   2.100  1.3987 -0.5986  0.3402
 6694SOL    HW220982   5.088   5.101   2.039 -2.0454 -0.4686  0.0881
 6695SOL     OW20983   1.858   1.802   0.286  0.5607 -0.1362 -0.5038
 6695SOL    HW120984   1.829   1.715   0.327 -0.6074  0.8421  0.8432
 6695SOL    HW220985   1.812   1.877   0.332  2.0745  1.2666 -1.1852
 6696SOL     OW20986   4.128   3.337   3.613  0.0559  0.0108 -0.4196
 6696SOL    HW120987   4.174   3.338   3.524 -0.4209  1.6248 -0.6823
 6696SOL    HW220988   4.084   3.249   3.628  3.3887 -1.7532 -0.0460
 6697SOL     OW20989   5.469   2.164   2.466 -0.1098 -0.9098  0.1149
 6697SOL    HW120990   5.551   2.131   2.512 -0.0006 -0.4469  0.2570
 6697SOL    HW220991   5.495   2.215   2.384 -0.1507  0.7528  1.0914
 6698SOL     OW20992   3.099   3.918   1.470 -0.3786  0.4556  0.2702
 6698SOL    HW120993   3.038   3.913   1.549 -1.2070  0.3554 -0.3667
 6698SOL    HW220994   3.181   3.864   1.489  0.6838  2.5302  2.0992
 6699SOL     OW20995   0.808   3.123   4.792 -0.4848  0.2140  0.0105
 6699SOL    HW120996   0.808   3.025   4.772  0.3273  0.4394 -1.2003
 6699SOL    HW220997   0.723   3.164   4.759 -0.5591  0.0280 -0.0294
 6700SOL     OW20998   0.076   4.033   2.332  0.1414 -0.4863 -0.2648
 6700SOL    HW120999   0.078   3.964   2.404 -0.3459 -0.6807 -0.4289
 6700SOL    HW221000   0.018   4.001   2.257  0.5779 -0.2493 -0.7049
 6701SOL     OW21001   0.263   6.991   1.002 -0.3710  0.1395  0.0732
 6701SOL    HW121002   0.225   6.942   1.081  1.9236  0.9558  1.7878
 6701SOL    HW221003   0.353   7.027   1.025  1.4671 -1.5146 -3.6656
 6702SOL     OW21004   3.625   1.960   1.920 -0.0790  0.6714 -0.0237
 6702SOL    HW121005   3.645   1.973   1.823 -0.8417  0.1766 -0.2557
 6702SOL    HW221006   3.641   2.046   1.969 -0.2228  1.0756 -0.6761
 6703SOL     OW21007   2.376   3.146   6.425  0.3037 -0.1456 -0.2097
 6703SOL    HW121008   2.324   3.231   6.437  0.9795 -0.1221  3.8828
 6703SOL    HW221009   2.473   3.168   6.417  0.5836 -0.4878  1.8435
 6704SOL     OW21010   1.165   5.227   0.253 -0.0886 -0.2630 -0.3173
 6704SOL    HW121011   1.212   5.154   0.205  0.4697 -0.8710  1.1025
 6704SOL    HW221012   1.206   5.315   0.230  1.6508 -0.7618  0.7423
 6705SOL     OW21013   0.896   5.895   3.256  0.6835 -0.2699  0.1168
 6705SOL    HW121014   0.807   5.932   3.282  1.1539  1.3524 -0.4597
 6705SOL    HW221015   0.889   5.796   3.242 -0.6348 -0.4287  1.6741
 6706SOL     OW21016   6.984   6.411   1.884  0.0991  0.4147  0.3089
 6706SOL    HW121017   6.917   6.434   1.955 -2.1318  0.5029 -1.7064
 6706SOL    HW221018   7.034   6.494   1.858 -0.4664  0.7956  0.4194
 6707SOL     OW21019   5.807   6.795   3.651 -0.2088  0.5076 -0.3287
 6707SOL    HW121020   5.765   6.826   3.736  0.1938  0.9397 -0.2876
 6707SOL    HW221021   5.906   6.789   3.663 -0.3254 -1.8762  0.0271
 6708SOL     OW21022   6.408   1.046   2.463 -0.0800  0.0754  1.0109
 6708SOL    HW121023   6.389   0.948   2.473  0.3470  0.0005  1.1393
 6708SOL    HW221024   6.333   1.099   2.502  0.3313 -0.2142  2.2482
 6709SOL     OW21025   2.006   4.353   2.215 -0.6828 -0.7004  0.1916
 6709SOL    HW121026   1.950   4.326   2.136 -1.2927  1.4273 -0.1408
 6709SOL    HW221027   2.079   4.413   2.184 -0.1549 -0.8597  1.1023
 6710SOL     OW21028   5.218   2.611   1.044 -0.3898  0.0927  0.5300
 6710SOL    HW121029   5.250   2.696   1.086 -0.4728 -0.1698  1.1315
 6710SOL    HW221030   5.118   2.606   1.051 -0.4510  0.2684 -0.1286
 6711SOL     OW21031   4.240   5.196   5.966  0.6155  0.0843 -0.1312
 6711SOL    HW121032   4.280   5.276   5.923  0.5826  0.1497 -0.0418
 6711SOL    HW221033   4.244   5.118   5.903  1.5083 -0.0897  0.1218
 6712SOL     OW21034   6.064   3.290   6.741  0.3221  0.0670 -0.0064
 6712SOL    HW121035   6.138   3.258   6.682  0.3111 -0.5341  0.2932
 6712SOL    HW221036   6.085   3.268   6.836  0.2208  0.8002  0.1907
 6713SOL     OW21037   1.864   4.133   4.921 -0.1869 -0.2317  0.1615
 6713SOL    HW121038   1.849   4.061   4.852  1.1516  0.6783 -1.1451
 6713SOL    HW221039   1.865   4.222   4.875  0.0932  0.4622  1.4835
 6714SOL     OW21040   4.986   1.882   6.921  0.0221  0.3995  0.5337
 6714SOL    HW121041   4.894   1.845   6.930  0.0005  0.1861 -0.4243
 6714SOL    HW221042   5.032   1.882   7.010 -1.1006  1.0461  1.1298
 6715SOL     OW21043   2.026   0.961   5.047  0.9825  0.0666 -0.1800
 6715SOL    HW121044   1.990   0.983   5.138  0.6984  0.0747 -0.2961
 6715SOL    HW221045   2.118   0.921   5.057  1.5953  1.4658  0.0242
 6716SOL     OW21046   2.775   6.050   3.069  0.0156  0.0161 -0.0723
 6716SOL    HW121047   2.715   5.971   3.082 -0.5560  0.6857  1.4814
 6716SOL    HW221048   2.730   6.133   3.100  0.4794  1.0525 -2.0119
 6717SOL     OW21049   6.289   1.190   6.959 -0.2369 -0.4378 -0.3835
 6717SOL    HW121050   6.318   1.161   7.050  1.2302  0.1258 -0.6564
 6717SOL    HW221051   6.304   1.288   6.948 -1.7654 -0.2115 -0.7469
 6718SOL     OW21052   4.451   2.708   1.625  0.3392 -0.1202 -0.1175
 6718SOL    HW121053   4.457   2.783   1.560 -0.7910  0.3416  0.2746
 6718SOL    HW221054   4.404   2.630   1.582 -0.3618  0.1665  0.1115
 6719SOL     OW21055   6.899   1.148   1.084  0.3559 -0.2584 -0.0953
 6719SOL    HW121056   6.879   1.189   0.995 -1.7210  0.8691  0.8302
 6719SOL    HW221057   6.868   1.209   1.157 -2.8324 -3.3264  1.4009
 6720SOL     OW21058   2.474   1.008   5.942 -0.1071  0.4090 -1.0809
 6720SOL    HW121059   2.431   0.996   5.853  0.8642  0.8844 -1.6325
 6720SOL    HW221060   2.518   1.098   5.946 -0.2362  0.4426 -0.0763
 6721SOL     OW21061   0.280   1.303   0.026 -0.1164  0.2080 -0.3179
 6721SOL    HW121062   0.275   1.242   0.105  1.8296 -0.0549 -0.3448
 6721SOL    HW221063   0.283   1.248  -0.058  0.1169  0.3884 -0.4295
 6722SOL     OW21064   6.488   4.004   0.804  0.7733 -0.2310  0.6885
 6722SOL    HW121065   6.470   4.018   0.901 -0.5813  0.0557  0.4088
 6722SOL    HW221066   6.440   4.073   0.750  1.7752 -0.1788 -0.1831
 6723SOL     OW21067   1.565   2.485   5.681 -0.0024 -0.2091  0.2508
 6723SOL    HW121068   1.490   2.440   5.730 -0.7785  0.6954 -0.0655
 6723SOL    HW221069   1.644   2.425   5.678  0.6026  0.2189  3.8673
 6724SOL     OW21070   2.760   4.096   6.438  0.0267  0.0256 -0.1476
 6724SOL    HW121071   2.671   4.094   6.483 -0.5394  0.8399 -1.2007
 6724SOL    HW221072   2.748   4.097   6.339  1.2102  0.1068 -0.3110
 6725SOL     OW21073   5.025   2.177   2.458 -0.0179  0.1886  0.3223
 6725SOL    HW121074   4.979   2.100   2.414 -0.6183  0.8193 -0.1811
 6725SOL    HW221075   4.957   2.240   2.495  0.4104  1.3428 -0.7778
 6726SOL     OW21076   6.797   0.074   0.426 -1.2008 -0.4912  0.0383
 6726SOL    HW121077   6.708   0.121   0.425 -0.6788  0.5416  0.7386
 6726SOL    HW221078   6.819   0.043   0.333 -2.1696 -0.5247 -0.1885
 6727SOL     OW21079   0.992   5.930   0.287  0.6654  0.3399 -0.1623
 6727SOL    HW121080   0.988   5.940   0.188 -2.3934 -2.7676 -0.5491
 6727SOL    HW221081   1.057   5.859   0.311  0.0131 -0.2648 -0.1507
 6728SOL     OW21082   2.849   2.238   5.324 -0.0776 -0.1704  0.5972
 6728SOL    HW121083   2.789   2.159   5.324 -2.2977  1.4090  1.5743
 6728SOL    HW221084   2.829   2.295   5.244  2.9067 -1.4833 -1.2452
 6729SOL     OW21085   5.440   1.669   2.627  0.2185 -0.3299 -0.4389
 6729SOL    HW121086   5.376   1.739   2.597  1.5498  1.5874  0.9236
 6729SOL    HW221087   5.393   1.581   2.634 -1.7712  0.6121 -1.1794
 6730SOL     OW21088   4.551   2.545   2.783  0.3841  0.4066  0.5590
 6730SOL    HW121089   4.612   2.467   2.771 -0.8791 -0.1877 -3.2156
 6730SOL    HW221090   4.576   2.595   2.866  2.3069 -2.9779  2.1976
 6731SOL     OW21091   5.375   0.345   5.104 -0.4266 -0.3978 -0.8037
 6731SOL    HW121092   5.336   0.334   5.195 -2.1260  0.8177 -1.3367
 6731SOL    HW221093   5.458   0.400   5.110 -0.7266 -0.0149 -0.0218
 6732SOL     OW21094   6.007   6.179   6.489  0.0766  0.6141 -0.0289
 6732SOL    HW121095   6.023   6.126   6.572 -1.9170  0.8829  0.5644
 6732SOL    HW221096   6.022   6.276   6.508  0.5776  0.5822 -0.2531
 6733SOL     OW21097   6.199   5.398   6.696  0.1492  0.0794  0.7350
 6733SOL    HW121098   6.265   5.468   6.668  0.5006 -0.3579  0.4811
 6733SOL    HW221099   6.234   5.349   6.776 -0.1015  0.1922  0.9172
 6734SOL     OW21100   0.144   4.404   3.690  0.5217  0.1180 -0.1543
 6734SOL    HW121101   0.192   4.414   3.602 -2.1209  1.0410 -1.6008
 6734SOL    HW221102   0.116   4.494   3.722  1.7801 -0.1706  1.9138
 6735SOL     OW21103   6.571   0.776   3.631 -0.0241 -0.3477 -0.7894
 6735SOL    HW121104   6.538   0.819   3.715  0.6819  0.8773 -1.1212
 6735SOL    HW221105   6.525   0.688   3.619  0.6832 -1.1161  1.4823
 6736SOL     OW21106   3.683   2.957   6.968  0.8436 -0.0987 -0.5165
 6736SOL    HW121107   3.611   3.018   7.000 -0.7525 -1.1699 -1.8702
 6736SOL    HW221108   3.721   2.991   6.882  0.1979 -0.7900 -1.0905
 6737SOL     OW21109   6.339   1.857   1.866 -0.1444 -0.3760 -0.3419
 6737SOL    HW121110   6.380   1.790   1.805 -2.6748 -0.7334 -1.7797
 6737SOL    HW221111   6.288   1.810   1.938  1.6099  0.0615  1.2693
 6738SOL     OW21112   1.250   5.728   4.770  0.6508 -0.0350  0.5460
 6738SOL    HW121113   1.294   5.707   4.683  2.2604  1.2851  1.0089
 6738SOL    HW221114   1.310   5.785   4.826 -1.3904  1.3127  1.4839
 6739SOL     OW21115   1.050   1.200   6.146  0.1238  0.6383  0.3538
 6739SOL    HW121116   1.103   1.262   6.204 -0.5095  1.5947 -0.0682
 6739SOL    HW221117   1.101   1.181   6.063 -0.0070  1.2379  0.1297
 6740SOL     OW21118   0.592   5.640   1.513 -0.1808 -0.3386 -0.1252
 6740SOL    HW121119   0.626   5.723   1.469  0.5458 -0.4180  0.2717
 6740SOL    HW221120   0.616   5.641   1.610 -1.5249 -0.2978  0.2212
 6741SOL     OW21121   1.526   3.676   1.414  0.6370 -0.6370 -0.0268
 6741SOL    HW121122   1.596   3.621   1.459  1.8475  0.9405  0.1387
 6741SOL    HW221123   1.448   3.688   1.475 -0.5261 -3.6319 -0.7494
 6742SOL     OW21124   0.835   3.414   2.536 -0.1394  0.5375  0.1633
 6742SOL    HW121125   0.799   3.442   2.447  1.7927 -1.5807 -1.4511
 6742SOL    HW221126   0.846   3.493   2.595 -1.4779  2.0242 -1.4777
 6743SOL     OW21127   4.585   5.318   1.284 -0.8095 -0.4825 -0.2330
 6743SOL    HW121128   4.624   5.229   1.261 -1.5037 -0.8491 -0.0285
 6743SOL    HW221129   4.519   5.308   1.358  0.1904  0.4429  0.8189
 6744SOL     OW21130   6.946   5.711   0.044 -0.0123  0.6593  0.2828
 6744SOL    HW121131   6.864   5.717   0.101  0.5780  1.0545  1.1081
 6744SOL    HW221132   6.951   5.791  -0.015  0.7672  1.6440  1.6190
 6745SOL     OW21133   6.798   2.493   4.996  0.3548 -0.3220  0.3028
 6745SOL    HW121134   6.734   2.510   4.921  0.6405 -0.7675 -0.0479
 6745SOL    HW221135   6.760   2.424   5.057  0.8853 -1.2818 -0.4154
 6746SOL     OW21136   0.147   3.007   2.860 -0.2263  0.3260 -0.3222
 6746SOL    HW121137   0.095   2.927   2.890 -0.3033  0.4845 -0.0282
 6746SOL    HW221138   0.102   3.047   2.779  0.1913 -0.3213 -0.8854
 6747SOL     OW21139   0.174   4.498   5.031  0.3177 -0.3236 -0.4910
 6747SOL    HW121140   0.078   4.475   5.047  0.5256 -0.3605  0.8275
 6747SOL    HW221141   0.192   4.501   4.933 -0.4755 -2.6685 -0.7849
 6748SOL     OW21142   1.523   3.083   4.714 -0.3261 -0.0061  0.2714
 6748SOL    HW121143   1.457   3.108   4.785 -0.0971  3.8438 -0.6494
 6748SOL    HW221144   1.614   3.114   4.740  0.5895 -2.2564  0.0206
 6749SOL     OW21145   0.527   5.460   2.148 -0.3999  0.1879  0.5384
 6749SOL    HW121146   0.482   5.544   2.118  0.6542  0.5649 -0.0523
 6749SOL    HW221147   0.622   5.461   2.118  0.7939  0.5842  3.8257
 6750SOL     OW21148   2.276   5.383   6.461 -0.1004 -0.0754 -0.4367
 6750SOL    HW121149   2.280   5.284   6.476  1.0152  0.2226  1.4171
 6750SOL    HW221150   2.270   5.430   6.549 -0.7657  1.5291 -1.2987
 6751SOL     OW21151   4.153   1.768   4.877 -0.1546 -0.3451  0.0203
 6751SOL    HW121152   4.138   1.811   4.788 -0.8873 -1.1870 -0.2720
 6751SOL    HW221153   4.245   1.728   4.879 -0.5050 -1.2165 -0.7470
 6752SOL     OW21154   3.291   5.525   1.820  0.1306 -0.5126 -0.5909
 6752SOL    HW121155   3.324   5.536   1.726  0.4631  0.2767 -0.3886
 6752SOL    HW221156   3.365   5.546   1.884 -0.4310  0.1280 -0.1416
 6753SOL     OW21157   4.561   5.605   0.520 -0.1101 -0.1035  0.1484
 6753SOL    HW121158   4.547   5.578   0.615  0.8279  0.8142  0.5725
 6753SOL    HW221159   4.506   5.687   0.500 -0.5504 -0.4800 -0.2004
 6754SOL     OW21160   3.741   0.024   0.228  0.1477  0.2655 -0.0158
 6754SOL    HW121161   3.812  -0.032   0.186 -0.4289 -1.0509  0.7082
 6754SOL    HW221162   3.777   0.065   0.312  0.4525  0.6886 -0.3475
 6755SOL     OW21163   4.635   4.346   5.831 -0.3535  0.2506 -0.5167
 6755SOL    HW121164   4.729   4.376   5.850 -0.3623 -0.3930  0.6314
 6755SOL    HW221165   4.570   4.408   5.875 -0.3786 -1.0861  1.4639
 6756SOL     OW21166   5.085   3.213   5.572  0.3064  0.2714  0.0116
 6756SOL    HW121167   5.124   3.194   5.662 -1.9514  0.2459  1.0674
 6756SOL    HW221168   5.063   3.126   5.526  0.6235  0.2937 -0.1875
 6757SOL     OW21169   2.420   0.482   0.055  0.3160  0.4461 -0.2044
 6757SOL    HW121170   2.335   0.534   0.063  0.5629  0.9176 -0.5838
 6757SOL    HW221171   2.462   0.501  -0.033  0.3025 -0.5733 -0.4359
 6758SOL     OW21172   6.408   2.405   2.766 -0.0443 -0.0990  0.2372
 6758SOL    HW121173   6.356   2.444   2.842  0.1287  1.6388 -0.4759
 6758SOL    HW221174   6.498   2.376   2.798  0.0256  0.6143  0.7013
 6759SOL     OW21175   0.838   2.878   1.747  0.0423 -0.0531  0.1588
 6759SOL    HW121176   0.836   2.836   1.837 -1.7894 -0.3228  0.0190
 6759SOL    HW221177   0.916   2.842   1.695  1.4581  0.5078  1.7712
 6760SOL     OW21178   4.975   2.438   6.000 -0.7819 -0.1787 -0.4471
 6760SOL    HW121179   5.070   2.420   6.026 -0.0678  0.4743 -2.4330
 6760SOL    HW221180   4.966   2.532   5.968 -2.3314  0.0666  0.5993
 6761SOL     OW21181   2.364   6.363   4.002 -0.0981  0.4482 -0.5734
 6761SOL    HW121182   2.297   6.417   4.053 -1.1760 -2.7655  1.7701
 6761SOL    HW221183   2.323   6.329   3.918 -0.2870  1.0529 -0.7347
 6762SOL     OW21184   5.503   2.718   4.905  0.3967  0.5659 -0.0481
 6762SOL    HW121185   5.560   2.800   4.897  0.5102  0.3345 -2.9334
 6762SOL    HW221186   5.407   2.742   4.890  0.5294  0.1360 -1.8872
 6763SOL     OW21187   4.565   6.306   4.498  0.3064  0.4992  0.8171
 6763SOL    HW121188   4.479   6.258   4.482  0.8343 -0.3051  0.3612
 6763SOL    HW221189   4.553   6.371   4.574 -0.3791 -0.4570  1.5491
 6764SOL     OW21190   1.916   6.433   1.002 -0.4012 -0.7933 -0.0344
 6764SOL    HW121191   1.977   6.362   1.037 -0.8014 -3.1751 -3.6737
 6764SOL    HW221192   1.951   6.523   1.029  1.8614 -2.1973  2.1526
 6765SOL     OW21193   6.869   5.325   0.746  0.1729  0.6729 -1.0102
 6765SOL    HW121194   6.940   5.313   0.677  1.8894 -3.3375  1.1501
 6765SOL    HW221195   6.806   5.247   0.744 -0.5859  1.1656  0.9738
 6766SOL     OW21196   5.085   0.912   2.881  0.0255  0.0841 -0.5558
 6766SOL    HW121197   5.181   0.933   2.900  0.2755 -1.0740 -0.4533
 6766SOL    HW221198   5.079   0.853   2.801 -0.3884 -1.8746  0.8616
 6767SOL     OW21199   1.243   6.922   6.590  0.0128 -0.2227  0.2270
 6767SOL    HW121200   1.146   6.936   6.609  0.2172  1.5507  0.1453
 6767SOL    HW221201   1.255   6.891   6.496 -0.4800 -0.5588  0.2743
 6768SOL     OW21202   2.350   1.277   5.828 -0.5435  0.0206 -0.0790
 6768SOL    HW121203   2.252   1.264   5.843 -0.3627  0.9889  2.2309
 6768SOL    HW221204   2.369   1.373   5.812  0.0614 -0.1322 -0.3179
 6769SOL     OW21205   6.545   0.498   2.468 -0.3573  0.0742  0.8999
 6769SOL    HW121206   6.517   0.525   2.376  0.7352  0.3839  0.6431
 6769SOL    HW221207   6.588   0.576   2.513  1.9445 -0.8937  0.5165
 6770SOL     OW21208   0.828   1.418   6.852 -0.4078 -0.1667  0.1465
 6770SOL    HW121209   0.748   1.396   6.795 -0.7994 -0.6749  0.8740
 6770SOL    HW221210   0.885   1.336   6.860  0.6251  0.4036 -1.0269
 6771SOL     OW21211   4.249   0.873   5.677  0.4907 -0.1484  0.0227
 6771SOL    HW121212   4.178   0.939   5.654  0.7536  0.5785  1.1920
 6771SOL    HW221213   4.213   0.780   5.668  0.1757  0.1137 -1.8345
 6772SOL     OW21214   2.747   6.742   6.335  0.1495 -0.0854 -0.4021
 6772SOL    HW121215   2.656   6.756   6.374 -0.1708  0.8233 -1.4196
 6772SOL    HW221216   2.767   6.815   6.269  1.2299 -0.7985 -0.9063
 6773SOL     OW21217   5.829   4.117   3.483  0.3634 -0.0435 -0.0711
 6773SOL    HW121218   5.766   4.042   3.462  1.4848 -1.4151  1.2521
 6773SOL    HW221219   5.789   4.177   3.552 -0.5110  0.5913 -1.0909
 6774SOL     OW21220   1.050   1.412   0.357 -0.2924  0.0968 -0.0580
 6774SOL    HW121221   1.088   1.395   0.266 -0.1918  0.5278 -0.0999
 6774SOL    HW221222   1.075   1.505   0.387  1.3643 -0.7035  1.2369
 6775SOL     OW21223   6.324   3.913   0.537 -0.4741  0.1744  0.0491
 6775SOL    HW121224   6.412   3.876   0.568 -1.2116 -1.1436  0.6539
 6775SOL    HW221225   6.254   3.893   0.605 -1.1118  1.9076 -0.0516
 6776SOL     OW21226   5.959   5.086   6.093 -0.0263 -0.1355  0.1263
 6776SOL    HW121227   5.935   5.038   6.008 -1.7967  2.6480 -1.0992
 6776SOL    HW221228   6.052   5.122   6.086 -0.1364  0.0184 -0.6600
 6777SOL     OW21229   5.047   4.704   0.217 -0.5665  0.1259 -0.4435
 6777SOL    HW121230   4.952   4.684   0.194 -0.0257 -0.1601 -2.6618
 6777SOL    HW221231   5.103   4.622   0.205  0.1480  0.5605 -0.1917
 6778SOL     OW21232   3.522   6.885   3.955  0.3215  0.0951 -0.1918
 6778SOL    HW121233   3.583   6.932   3.892 -0.4498 -0.1384 -1.1398
 6778SOL    HW221234   3.541   6.914   4.049  1.4524  0.4804 -0.5323
 6779SOL     OW21235   3.519   2.244   6.000 -0.3272  0.1389 -0.0603
 6779SOL    HW121236   3.607   2.290   6.011  0.8886 -1.8750 -0.8461
 6779SOL    HW221237   3.456   2.304   5.951  0.3782  1.8425  1.0180
 6780SOL     OW21238   0.201   1.088   1.220  0.3194  0.1844  0.3621
 6780SOL    HW121239   0.154   1.066   1.135  0.8739 -0.1471  0.1390
 6780SOL    HW221240   0.184   1.015   1.287  0.2556  0.2252  0.3912
 6781SOL     OW21241   5.179   4.226   4.631 -0.4472  0.0466 -0.0543
 6781SOL    HW121242   5.107   4.261   4.691  1.8195 -0.6215  3.4238
 6781SOL    HW221243   5.267   4.262   4.662  0.8774  0.0464 -3.4778
 6782SOL     OW21244   0.429   1.945   5.012 -1.0144 -0.5182 -0.1997
 6782SOL    HW121245   0.493   2.011   4.973 -0.7295  0.0144  1.1194
 6782SOL    HW221246   0.474   1.856   5.022 -0.1600  0.0842  1.5620
 6783SOL     OW21247   2.994   5.513   0.780  0.3411 -0.2218 -0.0140
 6783SOL    HW121248   3.024   5.600   0.820  0.0382  0.0641 -0.4109
 6783SOL    HW221249   2.947   5.460   0.850 -0.7580  0.5486 -0.1483
 6784SOL     OW21250   3.929   3.023   6.498  0.8976  0.1636 -0.0917
 6784SOL    HW121251   3.897   2.969   6.577 -0.7197 -0.6766 -1.2613
 6784SOL    HW221252   3.873   3.105   6.489  0.4701 -0.2026 -0.8753
 6785SOL     OW21253   3.879   6.287   0.596  0.2055 -0.2256 -0.0385
 6785SOL    HW121254   3.900   6.255   0.688 -2.2710 -1.6113  0.1492
 6785SOL    HW221255   3.827   6.372   0.601  0.8953  0.2073 -0.2067
 6786SOL     OW21256   2.022   3.089   6.546  0.3105  0.1799  0.4149
 6786SOL    HW121257   1.954   3.018   6.565  1.0473 -0.6174  0.1464
 6786SOL    HW221258   2.037   3.095   6.447  1.2576 -0.2570  0.5245
 6787SOL     OW21259   1.199   4.452   1.386  0.2458 -0.1807 -0.3748
 6787SOL    HW121260   1.274   4.442   1.320  0.3983  1.4386 -0.4822
 6787SOL    HW221261   1.182   4.364   1.431  1.4300 -0.8454 -1.1817
 6788SOL     OW21262   3.250   3.333   1.540 -0.0318  0.0635  0.1901
 6788SOL    HW121263   3.261   3.240   1.506  0.0222  0.0045  0.3687
 6788SOL    HW221264   3.157   3.365   1.520 -0.3066 -0.3157  0.8190
 6789SOL     OW21265   2.145   4.595   5.183  0.1683 -0.4195  0.1192
 6789SOL    HW121266   2.223   4.534   5.193  1.2191  1.1268  2.0893
 6789SOL    HW221267   2.075   4.572   5.251  1.1553  1.2904  1.8221
 6790SOL     OW21268   1.417   2.880   2.062  0.4213 -0.9118  0.0592
 6790SOL    HW121269   1.437   2.885   1.964  1.2395 -3.2798  0.0469
 6790SOL    HW221270   1.330   2.833   2.076  0.9007 -1.7097  0.4661
 6791SOL     OW21271   3.273   2.944   4.372 -0.3024  0.4960 -0.0831
 6791SOL    HW121272   3.354   3.001   4.360 -0.5047  0.5981 -1.0283
 6791SOL    HW221273   3.263   2.921   4.469 -0.5034  2.5119  0.4318
 6792SOL     OW21274   1.667   4.296   3.456 -0.0765 -0.6032 -0.1504
 6792SOL    HW121275   1.636   4.201   3.463 -1.0547 -0.4388 -1.7625
 6792SOL    HW221276   1.591   4.354   3.423  0.0667  1.0182  2.1388
 6793SOL     OW21277   0.168   0.037   1.547  0.0311 -0.1002 -0.4312
 6793SOL    HW121278   0.075   0.050   1.580  0.2854  1.8003 -0.3511
 6793SOL    HW221279   0.232   0.037   1.625  0.1781 -0.6128 -0.5471
 6794SOL     OW21280   2.595   0.947   6.409  0.5330  0.4027  0.2284
 6794SOL    HW121281   2.597   1.006   6.329  0.1967  2.0722  1.4003
 6794SOL    HW221282   2.656   0.869   6.395 -1.0923 -0.5372 -2.4863
 6795SOL     OW21283   4.224   6.018   1.067 -0.1630 -0.4792 -0.6930
 6795SOL    HW121284   4.182   5.950   1.125  0.2300 -0.6704 -0.6309
 6795SOL    HW221285   4.323   6.018   1.080 -0.0475 -0.6542 -1.4923
 6796SOL     OW21286   4.919   1.726   2.816 -0.4061 -0.1108  0.0526
 6796SOL    HW121287   4.965   1.701   2.731  0.3942  2.1016 -0.2206
 6796SOL    HW221288   4.835   1.777   2.794 -0.2152  0.4369  0.5874
 6797SOL     OW21289   6.525   3.099   2.448 -0.2379 -0.1288  0.2823
 6797SOL    HW121290   6.538   3.188   2.405 -0.8554  0.2143  0.7796
 6797SOL    HW221291   6.466   3.109   2.528 -0.8116 -1.0852 -0.0069
 6798SOL     OW21292   5.485   0.851   0.584  0.0276 -0.5216  0.1945
 6798SOL    HW121293   5.411   0.814   0.641  0.0476  1.5581  1.6825
 6798SOL    HW221294   5.448   0.876   0.495 -0.6860 -1.0288  0.3295
 6799SOL     OW21295   4.050   4.819   2.496  0.0080 -0.1427 -0.3803
 6799SOL    HW121296   3.982   4.880   2.537  0.9183  3.6357 -3.7838
 6799SOL    HW221297   4.021   4.795   2.403  1.6370 -1.6306 -0.5550
 6800SOL     OW21298   2.641   6.117   4.341 -0.5434 -0.0743  0.4146
 6800SOL    HW121299   2.554   6.165   4.328  1.0465  2.6844 -0.8979
 6800SOL    HW221300   2.647   6.042   4.275 -0.8928  1.3539 -1.3371
 6801SOL     OW21301   2.225   4.447   3.912 -0.0874 -0.7932  0.0804
 6801SOL    HW121302   2.218   4.354   3.948  0.5881 -1.2848 -1.0102
 6801SOL    HW221303   2.249   4.444   3.815  2.6945  0.5151  0.6204
 6802SOL     OW21304   3.935   6.283   2.319 -0.0629 -0.1674  0.5631
 6802SOL    HW121305   3.880   6.200   2.329 -0.0107 -0.0366  2.2005
 6802SOL    HW221306   3.876   6.359   2.292 -0.4831 -0.2881  1.1329
 6803SOL     OW21307   3.715   2.236   5.287 -0.7782 -0.2468  0.3053
 6803SOL    HW121308   3.620   2.207   5.293 -0.6631 -0.7811 -0.2670
 6803SOL    HW221309   3.740   2.289   5.368 -1.5350 -0.1741  0.4931
 6804SOL     OW21310   1.696   6.366   3.114 -0.0196 -0.3547  0.7467
 6804SOL    HW121311   1.629   6.440   3.119 -1.8292 -1.8791  0.3532
 6804SOL    HW221312   1.737   6.364   3.023  1.6358  1.4180  1.3929
 6805SOL     OW21313   5.634   1.824   6.822  0.1417 -0.0701 -0.1447
 6805SOL    HW121314   5.585   1.830   6.909 -0.3944  0.7961 -0.4939
 6805SOL    HW221315   5.613   1.904   6.766  1.3062 -0.0954 -0.6499
 6806SOL     OW21316   5.553   6.080   4.838 -0.1595 -0.3491 -0.1030
 6806SOL    HW121317   5.463   6.122   4.828  1.3375  4.7054  3.2759
 6806SOL    HW221318   5.612   6.110   4.763 -0.4711 -1.0500 -0.6350
 6807SOL     OW21319   3.072   2.759   7.014  0.5933 -0.4057 -0.2879
 6807SOL    HW121320   2.982   2.795   7.037  0.0370 -0.2743 -2.4450
 6807SOL    HW221321   3.142   2.827   7.036  0.4706 -1.2824  3.3146
 6808SOL     OW21322   3.321   4.977   2.665  0.1611 -0.1850  0.2102
 6808SOL    HW121323   3.261   5.045   2.621  1.0446 -0.6686 -1.8837
 6808SOL    HW221324   3.268   4.921   2.728 -1.1171  0.8118  0.0619
 6809SOL     OW21325   6.221   3.176   6.492 -0.5484 -0.0476  0.2940
 6809SOL    HW121326   6.139   3.216   6.452  0.4578  1.5169 -0.2712
 6809SOL    HW221327   6.270   3.124   6.423  0.3629  1.3375 -0.1329
 6810SOL     OW21328   6.525   6.731   2.361  0.0332  0.2024  0.6392
 6810SOL    HW121329   6.602   6.669   2.346  0.7261  1.4097 -1.2678
 6810SOL    HW221330   6.440   6.684   2.339  0.5147 -0.2033 -0.4432
 6811SOL     OW21331   4.088   0.218   1.484  0.4774 -0.1053  0.0525
 6811SOL    HW121332   4.000   0.216   1.531 -0.5393 -0.5155 -1.7989
 6811SOL    HW221333   4.097   0.303   1.433  1.7892  0.5592  1.3039
 6812SOL     OW21334   4.168   3.277   2.187  0.9029  0.5690  0.0234
 6812SOL    HW121335   4.244   3.234   2.138  0.1690 -1.9121  0.9483
 6812SOL    HW221336   4.129   3.213   2.252 -0.6274  2.5168  1.1432
 6813SOL     OW21337   5.002   3.853   0.815  0.0778 -0.0966 -0.2322
 6813SOL    HW121338   4.917   3.802   0.828 -0.1277  0.1728 -0.5132
 6813SOL    HW221339   5.074   3.814   0.873 -0.4081  0.0797  0.5086
 6814SOL     OW21340   1.901   3.249   6.253 -0.2262  0.0621 -0.2266
 6814SOL    HW121341   1.973   3.180   6.243  0.5799  0.7890  0.4444
 6814SOL    HW221342   1.923   3.309   6.329 -1.4421  0.4420 -0.1535
 6815SOL     OW21343   1.515   0.689   0.810 -0.0697  0.5633  0.3852
 6815SOL    HW121344   1.430   0.679   0.758 -0.1816  0.6014  0.5583
 6815SOL    HW221345   1.592   0.660   0.754 -0.3193 -0.6576  0.6483
 6816SOL     OW21346   5.228   4.245   6.992  0.1286  0.0313  0.1603
 6816SOL    HW121347   5.239   4.189   6.910  0.6589 -0.2902  0.4444
 6816SOL    HW221348   5.176   4.193   7.060 -1.3829  0.7520 -0.4051
 6817SOL     OW21349   1.685   1.272   0.054  0.1936  0.8854  0.5689
 6817SOL    HW121350   1.682   1.174   0.034 -1.1989  1.3062 -1.6557
 6817SOL    HW221351   1.780   1.304   0.051  0.6382 -0.3491  1.0851
 6818SOL     OW21352   4.918   6.110   1.222  0.3829 -0.2183  0.2612
 6818SOL    HW121353   4.993   6.174   1.240 -0.1456  0.1859  1.0849
 6818SOL    HW221354   4.861   6.146   1.148  1.2301 -0.7431 -0.6818
 6819SOL     OW21355   2.329   0.183   3.380  0.2396 -0.3103  0.7505
 6819SOL    HW121356   2.371   0.270   3.405 -0.0707 -0.4192  1.6694
 6819SOL    HW221357   2.233   0.197   3.357  0.1865 -0.4111  0.9101
 6820SOL     OW21358   1.564   3.715   5.757 -0.0508  0.2275 -0.5705
 6820SOL    HW121359   1.504   3.658   5.813 -0.1910  0.2614 -0.6851
 6820SOL    HW221360   1.655   3.718   5.798 -0.1283  0.1788 -0.3940
 6821SOL     OW21361   3.357   1.972   3.969  0.4490  0.1228 -0.0060
 6821SOL    HW121362   3.335   2.024   4.052  0.3152 -0.3192  0.2378
 6821SOL    HW221363   3.277   1.921   3.939  0.8243 -0.6311  0.2592
 6822SOL     OW21364   3.509   0.939   4.999 -0.1814 -0.5756  0.7590
 6822SOL    HW121365   3.411   0.938   5.015 -0.2326  0.1815  0.5427
 6822SOL    HW221366   3.546   0.847   5.007 -0.8856 -0.8363  0.9904
 6823SOL     OW21367   2.917   3.555   3.437  0.0123 -0.2246  0.1329
 6823SOL    HW121368   2.915   3.644   3.482  0.4613 -0.4276  0.5572
 6823SOL    HW221369   2.903   3.567   3.339 -0.4563  0.2643  0.2595
 6824SOL     OW21370   0.669   5.609   5.007  0.2472 -0.4133 -0.0537
 6824SOL    HW121371   0.639   5.574   4.918  0.2857  1.6395 -0.9357
 6824SOL    HW221372   0.638   5.703   5.017  1.0711 -0.3048  1.7283
 6825SOL     OW21373   6.605   1.117   4.088  0.0616 -0.0668  0.5514
 6825SOL    HW121374   6.506   1.107   4.083  0.2310 -1.4357 -0.5202
 6825SOL    HW221375   6.637   1.091   4.179 -0.5958  0.8464  1.0576
 6826SOL     OW21376   1.288   3.640   4.118  0.7772 -0.6978  0.0385
 6826SOL    HW121377   1.376   3.610   4.154 -0.0642 -1.3344  1.6402
 6826SOL    HW221378   1.282   3.616   4.021  2.5943 -0.0833 -0.2629
 6827SOL     OW21379   4.484   5.668   4.619 -0.0997 -0.4989  0.2080
 6827SOL    HW121380   4.515   5.742   4.679 -2.6359  0.3715  0.5504
 6827SOL    HW221381   4.563   5.611   4.594  1.6754  1.3717  1.1900
 6828SOL     OW21382   1.724   3.806   1.940  0.9118  0.5083 -0.6393
 6828SOL    HW121383   1.687   3.802   2.033 -0.3522  1.0852 -1.0894
 6828SOL    HW221384   1.767   3.719   1.917 -0.1913 -0.2084 -0.0711
 6829SOL     OW21385   0.313   3.836   3.109  0.1138  0.5155  0.2806
 6829SOL    HW121386   0.392   3.776   3.123 -0.8666 -0.7922  0.4413
 6829SOL    HW221387   0.343   3.922   3.068  1.5672 -0.0895  0.0064
 6830SOL     OW21388   5.041   0.986   4.785 -0.3723  0.4352 -0.2989
 6830SOL    HW121389   5.072   0.894   4.759  0.3856  0.6292 -0.1201
 6830SOL    HW221390   5.034   1.043   4.704  1.3728  0.8576 -0.1974
 6831SOL     OW21391   0.570   1.870   5.374  0.2030  0.2676  0.3684
 6831SOL    HW121392   0.639   1.805   5.341  0.6119  0.7093  0.3440
 6831SOL    HW221393   0.480   1.841   5.342  0.7277  1.5867 -2.6883
 6832SOL     OW21394   1.926   4.076   3.285 -0.1362  0.3143 -0.1626
 6832SOL    HW121395   1.910   4.007   3.356  0.7053  0.6068  0.3290
 6832SOL    HW221396   1.888   4.045   3.199  1.9160 -1.7117 -0.4409
 6833SOL     OW21397   4.622   5.898   5.706  0.1456  0.3607  0.3198
 6833SOL    HW121398   4.531   5.901   5.665  0.0183  2.2915  0.6301
 6833SOL    HW221399   4.683   5.845   5.647 -0.5224  1.3495 -1.3650
 6834SOL     OW21400   1.200   4.271   4.511 -0.2159  0.2282 -0.1535
 6834SOL    HW121401   1.127   4.313   4.459 -1.6676  0.0962  1.6767
 6834SOL    HW221402   1.250   4.341   4.562 -1.1286  0.0441  1.0497
 6835SOL     OW21403   2.482   6.787   3.225  0.0218  0.3239 -0.0863
 6835SOL    HW121404   2.402   6.793   3.285 -0.4742 -0.1989 -0.6771
 6835SOL    HW221405   2.499   6.875   3.182 -1.4919 -0.0418 -1.5226
 6836SOL     OW21406   1.831   5.213   2.123 -0.0877  0.0513 -0.5471
 6836SOL    HW121407   1.804   5.220   2.026  0.1310  2.7617 -0.4843
 6836SOL    HW221408   1.923   5.249   2.134 -0.6740  1.2186  0.8577
 6837SOL     OW21409   0.803   3.668   3.475 -0.8775 -0.2051 -0.1764
 6837SOL    HW121410   0.818   3.649   3.378 -2.5761 -2.3092 -0.0951
 6837SOL    HW221411   0.728   3.733   3.486  0.3940  1.3589 -0.2463
 6838SOL     OW21412   1.444   3.601   5.985 -0.0519 -0.8023 -0.1265
 6838SOL    HW121413   1.434   3.502   5.982  0.1173 -0.8046 -0.7226
 6838SOL    HW221414   1.379   3.639   6.050 -1.8497 -1.0857 -1.7006
 6839SOL     OW21415   6.524   2.015   3.791  0.0546  0.0834  0.2706
 6839SOL    HW121416   6.454   2.044   3.856 -1.1181 -1.7159 -0.0931
 6839SOL    HW221417   6.501   2.050   3.700  0.7663  1.1783  0.4944
 6840SOL     OW21418   1.535   1.388   6.116  0.3949  0.3468  0.3729
 6840SOL    HW121419   1.584   1.348   6.039 -0.9784 -0.3650 -0.1620
 6840SOL    HW221420   1.500   1.314   6.174  0.7729  0.8631  1.2792
 6841SOL     OW21421   6.274   2.000   4.239 -0.4763 -0.3594 -0.1147
 6841SOL    HW121422   6.222   2.084   4.258 -1.4744 -1.5473  2.8917
 6841SOL    HW221423   6.216   1.936   4.189  0.5782  0.9319 -3.2623
 6842SOL     OW21424   1.878   4.408   4.674  0.2958  0.7331 -0.3569
 6842SOL    HW121425   1.839   4.497   4.699 -1.0075 -0.3327  1.6617
 6842SOL    HW221426   1.976   4.419   4.653  0.2208  2.5916  0.1156
 6843SOL     OW21427   5.175   4.961   0.237  0.2003  0.5508 -0.1194
 6843SOL    HW121428   5.211   4.955   0.143 -0.7866 -0.4708 -0.4540
 6843SOL    HW221429   5.136   4.873   0.263 -0.4887  1.1348  0.8748
 6844SOL     OW21430   5.510   5.543   6.948 -0.4717 -0.1528 -0.0299
 6844SOL    HW121431   5.579   5.616   6.945 -1.0489  0.4311  0.3616
 6844SOL    HW221432   5.458   5.551   7.033 -2.5594  0.8957 -1.3066
 6845SOL     OW21433   5.697   3.287   3.051 -0.0638  0.5148 -0.4467
 6845SOL    HW121434   5.649   3.374   3.036 -1.0764  0.0267 -0.1052
 6845SOL    HW221435   5.635   3.221   3.093  1.7138  0.8012  2.9372
 6846SOL     OW21436   1.155   2.714   6.199  0.1483 -0.4343 -1.0657
 6846SOL    HW121437   1.211   2.631   6.204 -0.5396 -0.9217  3.7617
 6846SOL    HW221438   1.059   2.689   6.206 -0.2883  0.6871 -2.7146
 6847SOL     OW21439   0.552   3.015   1.686  0.0429  0.1715 -0.2434
 6847SOL    HW121440   0.494   2.962   1.748  1.3408  0.3398  1.1853
 6847SOL    HW221441   0.645   2.978   1.687 -0.1418 -0.5483 -3.0542
 6848SOL     OW21442   6.441   3.329   3.247  0.1833 -1.1002 -0.1163
 6848SOL    HW121443   6.365   3.336   3.312  1.9307  0.7719  1.9175
 6848SOL    HW221444   6.419   3.383   3.166 -0.1188  0.8065  1.1392
 6849SOL     OW21445   2.540   3.710   5.770  0.1064 -0.2818 -0.1678
 6849SOL    HW121446   2.447   3.714   5.736 -0.0935  0.1340  0.4117
 6849SOL    HW221447   2.585   3.799   5.757  0.0159 -0.1044  0.6599
 6850SOL     OW21448   4.269   0.129   4.253  0.0048  0.4580 -0.4966
 6850SOL    HW121449   4.256   0.079   4.338 -1.2931  0.1890 -0.8446
 6850SOL    HW221450   4.181   0.144   4.208  0.3789  2.7001 -0.6072
 6851SOL     OW21451   1.162   4.631   4.341  0.1411  0.0135  0.6789
 6851SOL    HW121452   1.175   4.727   4.317 -1.8736  0.0732 -0.3679
 6851SOL    HW221453   1.114   4.625   4.429 -0.9666  0.0044  0.0793
 6852SOL     OW21454   4.343   2.290   2.776  0.2861  0.1423 -0.2508
 6852SOL    HW121455   4.402   2.210   2.758  0.7497  0.8214 -1.8930
 6852SOL    HW221456   4.395   2.374   2.760 -0.0801  0.8299  1.8356
 6853SOL     OW21457   4.812   0.058   4.490 -0.0554  0.0944 -0.4604
 6853SOL    HW121458   4.839  -0.038   4.488 -0.5306 -0.0549  0.0035
 6853SOL    HW221459   4.714   0.065   4.472 -0.7088  0.1911  2.6655
 6854SOL     OW21460   0.120   5.361   4.298 -0.3874 -0.0866  0.1562
 6854SOL    HW121461   0.102   5.451   4.336  0.1283 -0.1412  0.5364
 6854SOL    HW221462   0.157   5.370   4.205 -1.0230  0.0659 -0.0870
 6855SOL     OW21463   5.373   5.107   1.998 -0.0938 -1.0828 -0.3256
 6855SOL    HW121464   5.301   5.104   1.929 -1.6376  1.4544  1.0388
 6855SOL    HW221465   5.445   5.170   1.968 -0.8188  0.1072  0.3550
 6856SOL     OW21466   6.187   3.094   1.888  0.0461 -0.1884 -0.2378
 6856SOL    HW121467   6.197   3.012   1.833  0.0511 -0.2773 -0.1043
 6856SOL    HW221468   6.090   3.118   1.894  0.1572  0.7716 -1.6747
 6857SOL     OW21469   1.205   4.973   4.949  0.1520 -0.4670  0.2425
 6857SOL    HW121470   1.201   4.934   4.857 -2.2662  0.9713 -0.3627
 6857SOL    HW221471   1.248   4.908   5.011  1.3594 -1.7060 -1.7818
 6858SOL     OW21472   0.940   3.124   2.903  0.3161 -0.7014 -0.0474
 6858SOL    HW121473   1.014   3.063   2.875  0.2828 -0.7019 -0.1336
 6858SOL    HW221474   0.892   3.158   2.822  0.5648 -0.2749 -0.0176
 6859SOL     OW21475   3.639   1.961   0.120  0.0220  0.7057 -0.6557
 6859SOL    HW121476   3.629   1.934   0.216  1.5971  2.3900  0.0594
 6859SOL    HW221477   3.586   2.045   0.104 -0.3159  0.3733 -1.3043
 6860SOL     OW21478   6.583   6.384   0.208 -0.3428  0.2039  0.0186
 6860SOL    HW121479   6.528   6.465   0.231 -1.1411 -0.7679  1.6890
 6860SOL    HW221480   6.678   6.412   0.191 -0.5542  1.4738  0.7869
 6861SOL     OW21481   6.510   4.198   1.600 -0.3307 -0.7276  0.1882
 6861SOL    HW121482   6.435   4.159   1.546 -0.3969 -0.5227  0.1304
 6861SOL    HW221483   6.559   4.125   1.647  0.3549 -1.0177 -0.9493
 6862SOL     OW21484   6.648   3.550   2.459 -0.1529  0.2162  0.4046
 6862SOL    HW121485   6.655   3.521   2.555 -2.4733 -0.0155  0.5706
 6862SOL    HW221486   6.632   3.470   2.401  1.8601  0.2820 -0.3091
 6863SOL     OW21487   5.459   0.705   6.149 -0.0362  0.7318  0.0492
 6863SOL    HW121488   5.412   0.624   6.184 -1.0727  0.7238 -1.2676
 6863SOL    HW221489   5.430   0.785   6.201 -0.4171  0.5097  0.1899
 6864SOL     OW21490   0.688   3.328   6.601 -0.2943  0.3953 -0.4811
 6864SOL    HW121491   0.659   3.395   6.668  1.3164  0.9116 -0.2646
 6864SOL    HW221492   0.732   3.251   6.647 -1.3949 -0.4419 -0.7855
 6865SOL     OW21493   2.015   0.911   1.555  0.9405 -0.3419  0.1487
 6865SOL    HW121494   1.973   0.892   1.644  1.1323 -0.3062  0.2461
 6865SOL    HW221495   2.112   0.889   1.558  1.1066  0.3879  0.1770
 6866SOL     OW21496   1.770   4.683   6.993  0.9535 -0.0769  0.7686
 6866SOL    HW121497   1.772   4.630   7.078 -2.0581 -1.6759 -0.0093
 6866SOL    HW221498   1.737   4.625   6.919  2.9342  1.4439 -1.4537
 6867SOL     OW21499   1.104   0.566   6.710  0.1299  0.2548  0.0967
 6867SOL    HW121500   1.168   0.548   6.636 -2.4297 -0.4300 -2.1166
 6867SOL    HW221501   1.104   0.489   6.774 -0.4767 -1.1241 -1.4724
 6868SOL     OW21502   3.724   4.881   2.990  0.8771  0.0924 -0.1686
 6868SOL    HW121503   3.776   4.967   2.998 -0.1104  0.8310 -1.3799
 6868SOL    HW221504   3.709   4.843   3.081 -0.1182  2.1078  0.5613
 6869SOL     OW21505   0.703   1.134   4.586  0.0557 -0.3701 -0.0215
 6869SOL    HW121506   0.788   1.177   4.617  1.0070 -3.0640  1.4143
 6869SOL    HW221507   0.723   1.043   4.551 -1.9201  0.0583 -2.5123
 6870SOL     OW21508   0.394   0.937   5.572  0.2919  0.3310  0.2125
 6870SOL    HW121509   0.470   0.909   5.631  1.0502  1.3053 -0.2696
 6870SOL    HW221510   0.318   0.968   5.629  0.8997  0.9663  0.7125
 6871SOL     OW21511   5.846   3.170   3.665  0.2046 -0.4174 -0.3862
 6871SOL    HW121512   5.770   3.225   3.700  1.0242  1.2174 -1.0622
 6871SOL    HW221513   5.928   3.188   3.718  0.5138 -0.9315 -0.6746
 6872SOL     OW21514   2.781   5.465   7.003  0.1293 -0.3100 -0.1203
 6872SOL    HW121515   2.725   5.500   7.079 -0.0962 -0.4810 -0.2075
 6872SOL    HW221516   2.722   5.448   6.924 -0.0906 -2.5520  0.4647
 6873SOL     OW21517   0.336   3.485   1.595  0.3505  0.9810 -0.2537
 6873SOL    HW121518   0.276   3.452   1.667  0.8771  0.7161  0.0771
 6873SOL    HW221519   0.427   3.445   1.608  0.4805  1.0250 -0.9945
 6874SOL     OW21520   5.791   6.579   2.882  0.1914 -0.9641  0.2479
 6874SOL    HW121521   5.714   6.527   2.919 -0.1007 -0.6865  0.0272
 6874SOL    HW221522   5.831   6.634   2.955 -0.3959 -0.4036  0.1499
 6875SOL     OW21523   2.100   1.246   6.371 -0.3271 -0.3602  0.2049
 6875SOL    HW121524   2.126   1.342   6.375 -2.4984  0.3270 -0.4292
 6875SOL    HW221525   2.038   1.232   6.293  0.0686 -2.3130  0.1891
 6876SOL     OW21526   6.481   4.905   4.499  0.2778  0.0122  0.0747
 6876SOL    HW121527   6.420   4.874   4.571 -0.5207 -0.9948 -0.9886
 6876SOL    HW221528   6.574   4.912   4.534 -0.4127  1.6722  1.7605
 6877SOL     OW21529   2.600   2.771   0.903 -0.7081 -0.3372 -0.4363
 6877SOL    HW121530   2.682   2.737   0.948 -0.2283 -0.0117 -1.0447
 6877SOL    HW221531   2.625   2.813   0.816 -1.3800  0.7906 -0.1055
 6878SOL     OW21532   2.481   1.268   2.250  0.0868 -0.2271  1.0039
 6878SOL    HW121533   2.436   1.322   2.179  3.3030 -0.5910 -1.4940
 6878SOL    HW221534   2.538   1.327   2.306 -1.9592 -0.0465  3.0641
 6879SOL     OW21535   2.683   2.728   6.254 -0.9379  0.1143  0.1647
 6879SOL    HW121536   2.638   2.813   6.227 -2.5052 -1.0657 -1.1153
 6879SOL    HW221537   2.707   2.676   6.172  3.5307  0.9544  0.7079
 6880SOL     OW21538   0.558   0.664   0.563 -1.1572 -0.7634 -0.1743
 6880SOL    HW121539   0.559   0.715   0.649  0.9735 -1.4440  0.2625
 6880SOL    HW221540   0.464   0.637   0.542 -1.5398 -2.6920  3.2417
 6881SOL     OW21541   6.750   3.219   2.138  0.7469 -0.0210 -0.5030
 6881SOL    HW121542   6.744   3.135   2.191  1.0782  0.3711  0.1698
 6881SOL    HW221543   6.846   3.241   2.121  0.9145  2.0905  2.4247
 6882SOL     OW21544   2.811   6.996   5.887  0.2346  0.3386  0.5595
 6882SOL    HW121545   2.768   7.073   5.840  0.3209  0.9642  1.4710
 6882SOL    HW221546   2.909   6.993   5.865 -0.2878 -1.3555 -1.8734
 6883SOL     OW21547   4.075   6.949   2.336  0.1557 -0.3467 -0.0255
 6883SOL    HW121548   4.044   7.043   2.316 -0.3120 -0.3442  0.6721
 6883SOL    HW221549   4.115   6.946   2.428  0.2174 -0.8210 -0.0659
 6884SOL     OW21550   2.180   5.118   3.008  0.3428  0.8644  0.7137
 6884SOL    HW121551   2.216   5.049   3.071  2.0313  2.2058  1.2976
 6884SOL    HW221552   2.082   5.133   3.027 -0.4406 -2.2297 -0.3163
 6885SOL     OW21553   5.897   5.634   5.245 -0.0470  0.0909 -0.5840
 6885SOL    HW121554   5.800   5.656   5.254  0.2271  1.0416  0.2665
 6885SOL    HW221555   5.925   5.578   5.323  0.3738  0.9362 -0.1156
 6886SOL     OW21556   0.316   2.883   6.919  0.4119 -0.0847 -0.3885
 6886SOL    HW121557   0.389   2.951   6.928  0.2539 -0.2361  3.6922
 6886SOL    HW221558   0.355   2.796   6.890  1.3610  0.5648 -1.1094
 6887SOL     OW21559   5.378   1.236   5.784  0.0038  0.3017  0.0033
 6887SOL    HW121560   5.435   1.276   5.712 -0.4560  2.0941  0.5683
 6887SOL    HW221561   5.405   1.141   5.799  2.2412  0.8060 -0.3775
 6888SOL     OW21562   6.608   3.635   1.198  0.2224 -0.1922  0.1789
 6888SOL    HW121563   6.685   3.698   1.215 -0.1797  0.5078 -0.4906
 6888SOL    HW221564   6.582   3.641   1.101 -0.4020 -0.7425  0.3082
 6889SOL     OW21565   1.829   3.923   4.681  0.1426  0.3832 -0.3593
 6889SOL    HW121566   1.916   3.881   4.707 -0.6344  0.6664  3.2902
 6889SOL    HW221567   1.846   4.007   4.630  2.0838  0.7171  0.7178
 6890SOL     OW21568   5.215   4.378   2.222 -0.5285 -0.3164  0.0639
 6890SOL    HW121569   5.175   4.349   2.135  0.2389 -0.2820 -0.3107
 6890SOL    HW221570   5.210   4.478   2.229 -2.7770 -0.4539  1.1598
 6891SOL     OW21571   1.186   0.230   0.353  0.4123  0.3691  0.4854
 6891SOL    HW121572   1.235   0.218   0.440  0.8434  0.4812  0.2570
 6891SOL    HW221573   1.250   0.222   0.277 -0.2078 -1.1930  0.1005
 6892SOL     OW21574   3.228   1.055   3.238  0.0635 -0.3548  0.4687
 6892SOL    HW121575   3.154   0.988   3.238 -0.5382  0.2281  2.4046
 6892SOL    HW221576   3.311   1.014   3.277 -0.1063 -0.1942  1.0129
 6893SOL     OW21577   4.211   2.612   0.572  0.5844  0.2382  0.4956
 6893SOL    HW121578   4.153   2.613   0.654  1.5980  1.8405  1.2529
 6893SOL    HW221579   4.286   2.678   0.584  1.6088 -0.5744 -1.1276
 6894SOL     OW21580   5.527   5.210   0.062 -0.5425 -0.3385 -0.1992
 6894SOL    HW121581   5.520   5.117   0.098 -0.1257 -0.6354 -0.8560
 6894SOL    HW221582   5.482   5.215  -0.027 -0.6095  0.1055 -0.1455
 6895SOL     OW21583   1.294   0.205   2.761  0.3166  0.0314 -0.2176
 6895SOL    HW121584   1.340   0.292   2.745  0.2922  0.1682  0.4414
 6895SOL    HW221585   1.195   0.220   2.769  0.0870 -0.3018 -1.9582
 6896SOL     OW21586   5.724   0.187   5.898  0.1200  0.6424  0.0143
 6896SOL    HW121587   5.731   0.210   5.801  0.9783  0.3607  0.0007
 6896SOL    HW221588   5.717   0.271   5.951  1.5849  0.9065 -0.1608
 6897SOL     OW21589   5.195   2.224   5.813  0.2559 -0.1825 -0.1364
 6897SOL    HW121590   5.153   2.177   5.890 -0.5993  0.7279 -0.0263
 6897SOL    HW221591   5.272   2.279   5.846  0.9972 -1.1412 -0.2081
 6898SOL     OW21592   2.935   5.703   0.192  1.0116 -0.6345  0.4596
 6898SOL    HW121593   2.886   5.617   0.173 -0.4193  0.7760 -3.4260
 6898SOL    HW221594   3.028   5.696   0.158  0.1863 -0.0415 -2.2019
 6899SOL     OW21595   6.968   0.146   3.236 -0.3060  0.2344  0.5691
 6899SOL    HW121596   6.967   0.183   3.329  0.9717 -0.7140  1.0011
 6899SOL    HW221597   7.048   0.182   3.187 -0.0115 -0.5686  0.4307
 6900SOL     OW21598   5.005   5.589   0.035  0.4976  0.5507 -0.5787
 6900SOL    HW121599   4.984   5.560   0.129  0.5892  1.5984 -0.2207
 6900SOL    HW221600   4.940   5.659   0.007 -0.3939 -0.7031 -1.8255
 6901SOL     OW21601   4.740   5.611   5.908  0.8386  0.1644  0.2390
 6901SOL    HW121602   4.836   5.619   5.879  1.0096  0.6984  0.9137
 6901SOL    HW221603   4.711   5.696   5.950 -0.2462  0.3407 -0.8074
 6902SOL     OW21604   1.271   5.990   5.772 -0.0693 -0.4446  0.1223
 6902SOL    HW121605   1.343   5.984   5.702 -0.5358 -0.6431 -0.3453
 6902SOL    HW221606   1.271   6.082   5.812  1.9142 -1.0698  1.7294
 6903SOL     OW21607   1.048   5.703   6.331  0.5783 -0.0991 -0.6969
 6903SOL    HW121608   1.090   5.774   6.274 -0.6883 -0.6010 -2.2867
 6903SOL    HW221609   0.949   5.702   6.317  0.5260 -1.9359 -0.4153
 6904SOL     OW21610   1.940   5.134   0.212  0.2012 -0.0843 -0.2218
 6904SOL    HW121611   1.899   5.151   0.301 -2.5942 -0.4518 -1.3124
 6904SOL    HW221612   1.943   5.219   0.160 -0.6847 -0.3247 -0.6913
 6905SOL     OW21613   2.509   5.891   6.793  0.5202  0.0675 -0.3103
 6905SOL    HW121614   2.605   5.880   6.765  0.3667 -1.7788 -0.2161
 6905SOL    HW221615   2.472   5.803   6.821 -0.7638  1.0211  1.1763
 6906SOL     OW21616   2.773   1.631   3.191 -0.0393  0.6062 -0.0561
 6906SOL    HW121617   2.783   1.537   3.157 -2.5959  0.1447  0.3141
 6906SOL    HW221618   2.695   1.675   3.146  0.2174  2.0560  0.8651
 6907SOL     OW21619   6.577   3.163   1.478 -0.3912 -0.2570  0.1770
 6907SOL    HW121620   6.596   3.160   1.380 -0.4226  2.3503  0.0318
 6907SOL    HW221621   6.603   3.252   1.515 -1.7289 -0.6567  2.2599
 6908SOL     OW21622   3.184   5.199   0.397 -0.2578 -0.3887 -0.3012
 6908SOL    HW121623   3.252   5.179   0.467 -1.1529  1.3104  1.1491
 6908SOL    HW221624   3.103   5.143   0.412  0.0633 -1.0142 -0.8470
 6909SOL     OW21625   4.418   5.455   4.776 -0.1206  0.3736  0.1809
 6909SOL    HW121626   4.458   5.515   4.706  0.6030 -3.9835 -3.5823
 6909SOL    HW221627   4.319   5.469   4.779  0.0315  1.7899 -0.5183
 6910SOL     OW21628   2.528   2.543   2.731  0.4087 -0.2582 -0.2467
 6910SOL    HW121629   2.608   2.498   2.772  1.4507  1.7972  0.1188
 6910SOL    HW221630   2.463   2.567   2.802  0.7424  0.4802 -0.1826
 6911SOL     OW21631   0.860   1.064   6.543  0.8328  0.1294 -0.3399
 6911SOL    HW121632   0.785   0.999   6.534 -0.1087  1.0481  0.5543
 6911SOL    HW221633   0.932   1.042   6.478 -0.7579 -0.0405 -2.1127
 6912SOL     OW21634   4.186   5.047   6.647  0.1716  0.1937 -0.0334
 6912SOL    HW121635   4.255   5.032   6.576 -0.3148 -1.5068 -0.1995
 6912SOL    HW221636   4.163   4.959   6.689 -0.4792  1.0087  1.3572
 6913SOL     OW21637   5.770   2.907   0.507  0.2506 -0.6690 -0.4315
 6913SOL    HW121638   5.828   2.886   0.586  1.1629  0.3365 -0.8073
 6913SOL    HW221639   5.693   2.842   0.504  1.9450 -2.7883 -0.5569
 6914SOL     OW21640   1.078   1.929   1.124  0.2343  0.1399 -0.3933
 6914SOL    HW121641   0.994   1.882   1.099 -0.8241  1.3466  0.7231
 6914SOL    HW221642   1.119   1.884   1.203  0.6327 -0.4514 -0.9395
 6915SOL     OW21643   5.825   4.264   4.263  0.0170  0.3778 -0.2128
 6915SOL    HW121644   5.845   4.172   4.229  0.1809  0.1161  0.5702
 6915SOL    HW221645   5.763   4.310   4.199  0.0308 -0.2265 -0.6772
 6916SOL     OW21646   1.706   5.980   6.374 -0.0502  0.7318  0.2785
 6916SOL    HW121647   1.630   5.922   6.403  1.5152 -1.2060  0.7498
 6916SOL    HW221648   1.762   5.930   6.307  1.4532  1.6345  0.8140
 6917SOL     OW21649   4.195   6.425   2.676 -0.3653 -0.0378  0.6747
 6917SOL    HW121650   4.158   6.449   2.766  0.2091  0.8754  0.6737
 6917SOL    HW221651   4.271   6.485   2.654  0.5976 -1.3460  0.3102
 6918SOL     OW21652   3.456   4.921   0.529 -0.6226 -0.3860  0.0853
 6918SOL    HW121653   3.412   4.906   0.617  0.0359 -0.3147  0.4336
 6918SOL    HW221654   3.520   4.846   0.510 -1.5222 -0.9518 -0.8233
 6919SOL     OW21655   4.995   5.371   2.871 -0.2098 -0.2231 -0.2705
 6919SOL    HW121656   5.001   5.296   2.937  0.2435 -0.1864 -0.2676
 6919SOL    HW221657   5.059   5.443   2.898  1.9494 -1.3034 -2.1669
 6920SOL     OW21658   5.665   2.184   6.301  0.1529  0.6279 -0.1042
 6920SOL    HW121659   5.727   2.111   6.330  0.4296  0.4715 -1.0783
 6920SOL    HW221660   5.718   2.263   6.271 -0.1133  0.5140 -0.8893
 6921SOL     OW21661   4.130   0.669   1.065 -0.2544  0.4455 -0.3977
 6921SOL    HW121662   4.112   0.726   0.985 -1.6558  1.5894  0.6743
 6921SOL    HW221663   4.125   0.725   1.148 -3.3388 -1.4352  0.8482
 6922SOL     OW21664   4.652   4.808   1.278 -0.3356  0.0207 -0.1569
 6922SOL    HW121665   4.742   4.766   1.266 -0.9096 -1.4663  0.4704
 6922SOL    HW221666   4.658   4.881   1.347  0.8306  1.5585 -1.8010
 6923SOL     OW21667   4.743   4.855   3.578  0.0205 -0.0533 -0.4966
 6923SOL    HW121668   4.647   4.849   3.551 -0.5227  2.8573  0.4774
 6923SOL    HW221669   4.801   4.832   3.499 -1.4441 -0.6700 -1.4398
 6924SOL     OW21670   3.198   4.097   1.270  0.5771  0.1026  0.1535
 6924SOL    HW121671   3.126   4.145   1.220  0.6093  1.0788  1.0024
 6924SOL    HW221672   3.159   4.057   1.353  0.5872 -1.2314 -0.4556
 6925SOL     OW21673   6.709   0.059   5.688 -0.2332 -0.6753 -0.3906
 6925SOL    HW121674   6.786  -0.004   5.699 -0.1900 -0.5801 -0.1194
 6925SOL    HW221675   6.649   0.053   5.768 -0.2467 -0.3999 -0.3786
 6926SOL     OW21676   2.253   3.469   6.082  0.1358 -0.0204  0.5669
 6926SOL    HW121677   2.214   3.531   6.014 -1.7205 -1.2208  0.4566
 6926SOL    HW221678   2.195   3.469   6.164 -0.4201 -2.1561  0.2523
 6927SOL     OW21679   4.400   5.955   1.375 -0.1941  0.6974  0.3615
 6927SOL    HW121680   4.317   5.963   1.429  0.7567  0.7386  1.8908
 6927SOL    HW221681   4.475   5.923   1.433  0.1237 -2.9083 -1.7282
 6928SOL     OW21682   6.463   5.799   5.799 -0.4692 -0.3910  1.1478
 6928SOL    HW121683   6.410   5.720   5.830 -0.4884 -0.6500  0.4811
 6928SOL    HW221684   6.406   5.858   5.743 -0.1630 -0.4755  0.7386
 6929SOL     OW21685   3.658   5.842   3.918  0.5861  0.1976  0.0657
 6929SOL    HW121686   3.739   5.829   3.977  0.6447  0.3945  0.0293
 6929SOL    HW221687   3.576   5.813   3.968  0.7262 -0.4062 -0.0514
 6930SOL     OW21688   0.063   5.057   4.136 -0.1515 -0.1814 -0.2260
 6930SOL    HW121689   0.054   5.155   4.151 -0.2429  0.4070 -3.3779
 6930SOL    HW221690   0.155   5.037   4.102  0.0508 -1.3210  0.8977
 6931SOL     OW21691   3.400   2.274   0.987 -0.0146  0.3840 -0.3005
 6931SOL    HW121692   3.420   2.322   1.072  1.8672 -1.4005  0.3473
 6931SOL    HW221693   3.481   2.276   0.928  0.3855 -2.3745  0.0119
 6932SOL     OW21694   4.217   0.221   6.470  0.4395 -0.2276  0.2504
 6932SOL    HW121695   4.242   0.132   6.431 -1.8767 -1.2186  0.8368
 6932SOL    HW221696   4.290   0.252   6.531  2.5089 -0.3724 -1.9720
 6933SOL     OW21697   4.146   5.706   0.269 -0.2747  0.0761 -0.0324
 6933SOL    HW121698   4.081   5.709   0.345 -0.5944 -0.2534 -0.2885
 6933SOL    HW221699   4.102   5.663   0.190  0.8605 -1.9246  0.3643
 6934SOL     OW21700   4.638   5.369   0.335  0.0558 -0.2250 -0.3771
 6934SOL    HW121701   4.671   5.382   0.241  0.1936  1.2943 -0.1526
 6934SOL    HW221702   4.595   5.453   0.366 -3.3168 -1.8295 -0.3113
 6935SOL     OW21703   5.435   5.927   1.240 -0.4759 -0.3461  0.4813
 6935SOL    HW121704   5.444   5.847   1.299  1.3117 -0.7193 -0.2313
 6935SOL    HW221705   5.493   5.916   1.159  0.7437  2.1546  0.9194
 6936SOL     OW21706   6.482   2.089   6.574  0.0798  0.3679  0.2928
 6936SOL    HW121707   6.450   2.180   6.547  0.5067  0.3976 -0.1323
 6936SOL    HW221708   6.513   2.091   6.669  0.4307  0.7597  0.1735
 6937SOL     OW21709   1.079   5.138   1.027 -0.0401 -0.1008  0.0656
 6937SOL    HW121710   1.130   5.135   0.941 -1.1633 -1.3304 -0.5977
 6937SOL    HW221711   1.125   5.081   1.095 -0.1095 -0.5937 -0.2942
 6938SOL     OW21712   2.623   5.159   6.491  0.0445  0.1375 -0.0945
 6938SOL    HW121713   2.608   5.162   6.392 -0.2850 -2.0250 -0.1551
 6938SOL    HW221714   2.687   5.085   6.513  1.2673  1.5145  1.2126
 6939SOL     OW21715   1.074   2.046   4.311  0.4759 -0.2694  0.0381
 6939SOL    HW121716   1.129   1.970   4.275  0.8885  0.5319 -1.1171
 6939SOL    HW221717   0.999   2.065   4.248  0.2419  0.1193  0.4343
 6940SOL     OW21718   0.413   5.904   1.346  0.1410 -0.1458 -0.7996
 6940SOL    HW121719   0.431   5.840   1.271 -0.2071 -1.1149 -0.0761
 6940SOL    HW221720   0.384   5.853   1.427  0.2460  0.9042 -0.0811
 6941SOL     OW21721   3.377   3.227   1.763 -0.3128 -0.1418 -0.6825
 6941SOL    HW121722   3.307   3.213   1.833  0.5296  2.0798  0.7001
 6941SOL    HW221723   3.338   3.281   1.688  0.0469  1.7421  0.4366
 6942SOL     OW21724   0.720   6.090   1.575  0.5581  0.5552 -0.5089
 6942SOL    HW121725   0.626   6.124   1.573 -0.0457 -0.7662  1.7117
 6942SOL    HW221726   0.724   6.001   1.531  0.6239  0.3181 -0.0274
 6943SOL     OW21727   4.033   5.835   5.185  0.5967  0.2484  0.0444
 6943SOL    HW121728   4.063   5.885   5.104 -1.0533 -0.9277 -1.3887
 6943SOL    HW221729   4.024   5.738   5.162 -1.9521  0.1882  0.9680
 6944SOL     OW21730   1.843   5.041   0.509  0.1435  0.6277  0.1253
 6944SOL    HW121731   1.858   5.139   0.526 -0.8787  0.8363 -0.1455
 6944SOL    HW221732   1.748   5.018   0.528  0.7213 -0.6415  1.6677
 6945SOL     OW21733   3.822   0.860   0.351 -0.2292  0.0191 -0.2361
 6945SOL    HW121734   3.890   0.849   0.278 -0.1439  0.1316 -0.1747
 6945SOL    HW221735   3.731   0.867   0.311 -0.0292  1.7734 -0.4527
 6946SOL     OW21736   4.930   5.263   4.479  0.5579  0.3682  0.4639
 6946SOL    HW121737   4.914   5.240   4.383  1.6274  1.9376 -0.1194
 6946SOL    HW221738   4.965   5.182   4.526  0.3496 -0.3323 -0.5315
 6947SOL     OW21739   0.780   5.922   5.997  0.3538 -0.0065 -0.3619
 6947SOL    HW121740   0.709   5.968   6.050  0.2375  0.2275 -0.7176
 6947SOL    HW221741   0.746   5.903   5.905 -0.9152 -3.9791  0.7396
 6948SOL     OW21742   0.539   5.359   6.468 -0.0328  0.5111 -0.3132
 6948SOL    HW121743   0.487   5.421   6.526 -1.3405 -0.6026 -0.2526
 6948SOL    HW221744   0.511   5.370   6.373 -2.0379 -1.5598 -0.0564
 6949SOL     OW21745   2.589   0.356   3.765  0.0644  0.6042 -0.5535
 6949SOL    HW121746   2.521   0.350   3.838  1.1772 -1.6185  0.3950
 6949SOL    HW221747   2.665   0.414   3.795  0.7263 -0.6545  0.2804
 6950SOL     OW21748   2.619   1.080   6.170  0.1845  0.2478  0.1990
 6950SOL    HW121749   2.594   1.007   6.106 -2.9369  1.2479  0.1380
 6950SOL    HW221750   2.606   1.169   6.127 -0.5859  0.9209  1.7296
 6951SOL     OW21751   1.004   4.581   0.170 -0.2755 -0.5750  0.5093
 6951SOL    HW121752   1.012   4.488   0.205 -0.2946 -1.7407 -2.3408
 6951SOL    HW221753   0.916   4.591   0.123  1.0920 -0.2355 -2.1083
 6952SOL     OW21754   4.534   4.564   3.638 -0.3899 -0.3393 -0.0690
 6952SOL    HW121755   4.532   4.662   3.614  0.5800 -0.4551 -0.6909
 6952SOL    HW221756   4.551   4.511   3.555  0.1288 -0.9684  0.4406
 6953SOL     OW21757   0.184   0.398   0.763  0.3538  0.1612  0.6415
 6953SOL    HW121758   0.228   0.311   0.739  0.2750 -0.2310  1.8465
 6953SOL    HW221759   0.100   0.379   0.814  0.5309  0.9521  1.2363
 6954SOL     OW21760   1.229   6.929   4.426 -0.2391  0.8733  0.6669
 6954SOL    HW121761   1.177   6.950   4.343 -1.6595 -1.0808  0.9741
 6954SOL    HW221762   1.323   6.905   4.402 -0.3208  1.4571 -0.2489
 6955SOL     OW21763   3.763   5.176   3.717  0.9391 -0.5437 -0.0892
 6955SOL    HW121764   3.843   5.139   3.765  1.7825 -0.0355 -1.0731
 6955SOL    HW221765   3.736   5.263   3.760  1.9432  0.1152 -0.7579
 6956SOL     OW21766   6.429   4.749   3.303 -0.2673  0.2877 -0.1146
 6956SOL    HW121767   6.363   4.798   3.359 -0.0821 -1.0212  1.3212
 6956SOL    HW221768   6.482   4.814   3.248 -1.3549  1.4969  0.2405
 6957SOL     OW21769   6.654   5.257   4.526  0.2824 -0.2400 -0.9367
 6957SOL    HW121770   6.624   5.188   4.593  1.4219 -1.8865 -2.0426
 6957SOL    HW221771   6.748   5.237   4.498  1.2730  2.7911 -0.0829
 6958SOL     OW21772   3.232   3.992   0.559  0.0660 -0.3731  0.0923
 6958SOL    HW121773   3.236   4.087   0.528  0.8057 -1.2902 -2.9861
 6958SOL    HW221774   3.301   3.977   0.629  0.2771  1.2102  0.2736
 6959SOL     OW21775   6.330   4.185   5.393  0.0386 -0.0916  0.5123
 6959SOL    HW121776   6.238   4.149   5.402 -0.3599  0.8483  0.3579
 6959SOL    HW221777   6.361   4.220   5.481 -0.3591  0.9743  0.2431
 6960SOL     OW21778   4.909   3.782   6.944  0.1258  0.1087  0.1538
 6960SOL    HW121779   4.857   3.863   6.972  0.2218  0.3551 -0.3624
 6960SOL    HW221780   4.992   3.775   6.999  0.8869  1.2326 -0.8058
 6961SOL     OW21781   6.004   3.301   4.515  0.0093  0.0885  0.0431
 6961SOL    HW121782   5.993   3.307   4.416 -1.8956 -1.6178  0.1000
 6961SOL    HW221783   6.098   3.275   4.536 -0.0808 -1.6917 -1.4662
 6962SOL     OW21784   2.312   0.747   1.265  0.1267  0.1643 -0.5655
 6962SOL    HW121785   2.228   0.794   1.240  0.0074  0.2531 -0.0042
 6962SOL    HW221786   2.386   0.777   1.205  0.2305  1.6557  0.2594
 6963SOL     OW21787   1.096   0.645   0.246  0.3583  0.7208 -0.2030
 6963SOL    HW121788   1.072   0.588   0.325  0.9796  0.0171 -0.5110
 6963SOL    HW221789   1.193   0.669   0.250  0.1842  1.4571 -0.2744
 6964SOL     OW21790   4.619   6.769   6.186  0.4011  0.4421  0.3768
 6964SOL    HW121791   4.666   6.843   6.235 -0.5403  0.1838  1.7109
 6964SOL    HW221792   4.628   6.684   6.236 -1.1507  0.3068  0.4952
 6965SOL     OW21793   2.008   1.253   5.005 -0.3974  0.2426 -0.6623
 6965SOL    HW121794   2.011   1.153   4.995 -0.7922  0.3548 -2.2390
 6965SOL    HW221795   1.930   1.289   4.953  0.1072  1.4232 -0.6247
 6966SOL     OW21796   0.677   6.165   6.954  0.4327  0.3680 -0.1253
 6966SOL    HW121797   0.663   6.090   7.018  0.8009 -0.5169 -1.0619
 6966SOL    HW221798   0.662   6.252   7.001  0.2066 -0.2757  1.0243
 6967SOL     OW21799   3.724   0.109   6.241  0.2677  0.3406  0.3896
 6967SOL    HW121800   3.767   0.163   6.313  2.2834 -0.1514 -0.3994
 6967SOL    HW221801   3.697   0.020   6.278  0.2452  0.5119  0.7964
 6968SOL     OW21802   3.899   0.267   2.852  0.0548 -0.0008 -0.6383
 6968SOL    HW121803   3.851   0.246   2.937 -1.2737  3.6693 -0.3208
 6968SOL    HW221804   3.998   0.262   2.867  0.0669 -5.2199 -0.6449
 6969SOL     OW21805   2.546   2.155   1.914  0.0196 -0.5862 -0.1983
 6969SOL    HW121806   2.575   2.155   2.009  0.5940 -2.3539 -0.3493
 6969SOL    HW221807   2.600   2.222   1.863 -1.1088  1.2491  0.9152
 6970SOL     OW21808   1.680   0.186   3.959  0.1253 -0.2390 -0.2620
 6970SOL    HW121809   1.753   0.253   3.968  0.7363 -0.7559 -1.1988
 6970SOL    HW221810   1.597   0.230   3.924 -0.2870  0.5017  1.5417
 6971SOL     OW21811   5.598   6.643   6.865  0.2351  0.5913 -0.2361
 6971SOL    HW121812   5.584   6.691   6.952  0.2132 -0.6107  0.4445
 6971SOL    HW221813   5.525   6.577   6.850  1.0276 -0.2816 -0.4168
 6972SOL     OW21814   5.688   6.976   1.979  0.4271 -0.3234  0.1953
 6972SOL    HW121815   5.762   7.043   1.985 -0.0885  0.1466  2.0792
 6972SOL    HW221816   5.605   7.021   1.944  0.3656 -0.2127  0.4755
 6973SOL     OW21817   1.552   6.994   2.363 -0.1416 -0.3153  0.3752
 6973SOL    HW121818   1.478   7.055   2.391 -0.1381  0.5124 -1.3188
 6973SOL    HW221819   1.514   6.916   2.314 -0.1911 -2.0271  2.9340
 6974SOL     OW21820   4.825   4.179   0.821 -0.1341  0.4315  0.2471
 6974SOL    HW121821   4.856   4.106   0.881  0.1962  0.0543 -0.3733
 6974SOL    HW221822   4.763   4.240   0.871  0.7999  0.6103  1.2040
 6975SOL     OW21823   3.637   5.030   6.314 -0.5821  0.4302  0.1957
 6975SOL    HW121824   3.698   5.109   6.317 -0.8748  0.8517 -2.6273
 6975SOL    HW221825   3.601   5.013   6.406  1.5102  1.9209  1.3931
 6976SOL     OW21826   5.626   3.988   5.678  0.3757 -0.7795 -0.2430
 6976SOL    HW121827   5.569   3.950   5.751  1.0608 -0.8267  0.2745
 6976SOL    HW221828   5.688   3.917   5.645  0.1033 -0.7426 -0.8410
 6977SOL     OW21829   4.527   5.361   3.315  0.1438  0.2869  0.5899
 6977SOL    HW121830   4.462   5.386   3.387  0.3160 -0.3872  0.9876
 6977SOL    HW221831   4.573   5.444   3.283 -0.8642  0.7622  0.3358
 6978SOL     OW21832   1.937   3.378   5.934  0.0960 -0.4498 -0.1699
 6978SOL    HW121833   1.845   3.356   5.902 -0.5705  0.8190  0.7710
 6978SOL    HW221834   1.943   3.363   6.033  0.4196  0.8740  0.0363
 6979SOL     OW21835   0.613   5.926   3.433 -0.0160 -0.2140 -0.5271
 6979SOL    HW121836   0.534   5.864   3.436  0.2386 -0.5714 -1.0266
 6979SOL    HW221837   0.689   5.884   3.483  0.5047 -0.8206 -1.7848
 6980SOL     OW21838   1.981   5.798   4.208 -0.0117 -0.0716  0.7495
 6980SOL    HW121839   1.894   5.797   4.159  1.4785 -1.8892 -2.0839
 6980SOL    HW221840   2.029   5.883   4.187 -0.4866  0.3446  1.2808
 6981SOL     OW21841   3.831   2.640   5.519  0.4385  0.5753 -0.4446
 6981SOL    HW121842   3.760   2.569   5.524  0.0676  1.0467  2.5892
 6981SOL    HW221843   3.790   2.729   5.537  1.8324  0.7615  2.2833
 6982SOL     OW21844   6.303   1.304   0.998  0.0070 -0.1324 -0.1145
 6982SOL    HW121845   6.267   1.338   0.911 -0.2186 -0.0445  0.0131
 6982SOL    HW221846   6.307   1.204   0.995 -0.6548 -0.1675  0.0263
 6983SOL     OW21847   0.106   0.576   5.912  0.1964  0.5140  0.0451
 6983SOL    HW121848   0.081   0.566   6.009  0.0910 -0.6285 -0.0896
 6983SOL    HW221849   0.133   0.487   5.875 -0.3749  0.8177 -1.1465
 6984SOL     OW21850   2.226   4.035   3.609  0.3363 -0.4456 -0.0702
 6984SOL    HW121851   2.240   3.948   3.655  0.2287 -0.1634  0.5003
 6984SOL    HW221852   2.242   4.024   3.511 -0.0066 -1.1781 -0.0454
 6985SOL     OW21853   4.958   4.002   0.580 -0.1749  0.0300  0.6130
 6985SOL    HW121854   4.970   3.956   0.667  2.5685  0.1575  0.3899
 6985SOL    HW221855   4.914   4.091   0.594  0.1069 -0.0180  1.8359
 6986SOL     OW21856   4.513   4.051   5.350  0.1961  0.0006 -0.6571
 6986SOL    HW121857   4.597   4.000   5.369 -0.5392  0.3079  5.5724
 6986SOL    HW221858   4.440   3.989   5.325  0.9535 -1.0548 -0.3004
 6987SOL     OW21859   1.731   2.483   6.924 -0.3827  0.0015  0.4545
 6987SOL    HW121860   1.688   2.546   6.860  0.2748  0.5906  0.5725
 6987SOL    HW221861   1.670   2.467   7.002 -0.9049 -0.1893  0.0129
 6988SOL     OW21862   2.333   0.850   5.694 -0.3144 -0.0767  0.0683
 6988SOL    HW121863   2.278   0.925   5.657  0.4098  0.0491 -0.7810
 6988SOL    HW221864   2.425   0.855   5.657 -0.1385 -1.1602  0.3279
 6989SOL     OW21865   6.289   3.492   1.769  0.1534  0.8292  0.2625
 6989SOL    HW121866   6.363   3.550   1.804 -1.5916  3.1175  0.3850
 6989SOL    HW221867   6.205   3.511   1.820 -1.2922  0.6952 -1.9583
 6990SOL     OW21868   3.663   4.904   5.980 -1.0413  0.1711  0.1269
 6990SOL    HW121869   3.743   4.934   5.929 -1.0369 -0.9078 -0.5465
 6990SOL    HW221870   3.654   4.958   6.064 -0.3839  1.1907 -0.4432
 6991SOL     OW21871   4.728   4.546   3.986 -0.3649 -0.0042 -0.1427
 6991SOL    HW121872   4.633   4.525   3.964 -0.8777 -0.1381  1.9808
 6991SOL    HW221873   4.767   4.473   4.041  0.6063  0.5844 -0.0215
 6992SOL     OW21874   1.356   5.671   0.280 -0.7392  0.2843 -0.1907
 6992SOL    HW121875   1.279   5.692   0.219  0.3034  2.6432 -0.8147
 6992SOL    HW221876   1.400   5.756   0.307  1.0166 -0.9566  1.0230
 6993SOL     OW21877   5.433   1.419   2.352  0.1988  0.0983  0.3640
 6993SOL    HW121878   5.511   1.451   2.405  0.1417  1.7670 -0.4913
 6993SOL    HW221879   5.443   1.449   2.257 -1.4964  0.4219  0.2485
 6994SOL     OW21880   3.865   6.914   3.256 -0.0191  0.4684 -0.3607
 6994SOL    HW121881   3.901   7.002   3.287 -0.6536  0.4215  0.5364
 6994SOL    HW221882   3.887   6.843   3.322 -0.8522  0.2523 -0.3048
 6995SOL     OW21883   0.898   5.193   1.255 -0.7583  0.5173  0.7059
 6995SOL    HW121884   0.905   5.144   1.168 -0.8893  0.0825  0.9383
 6995SOL    HW221885   0.982   5.178   1.308 -1.3456 -0.5959  1.3627
 6996SOL     OW21886   1.598   0.622   6.747 -0.3091  0.4699  0.3469
 6996SOL    HW121887   1.664   0.640   6.820 -0.2455 -0.7418  0.5963
 6996SOL    HW221888   1.548   0.537   6.766 -0.9423  0.6172 -0.5581
 6997SOL     OW21889   6.735   5.463   5.638  0.0278  0.0413 -0.5876
 6997SOL    HW121890   6.754   5.559   5.658  1.6378 -0.3553 -0.0881
 6997SOL    HW221891   6.821   5.412   5.633 -0.8604 -1.7005  0.7643
 6998SOL     OW21892   6.650   6.759   5.899 -0.5891 -0.1344  0.0923
 6998SOL    HW121893   6.618   6.849   5.872 -1.8626 -0.3585  0.7856
 6998SOL    HW221894   6.584   6.717   5.961 -2.0131 -3.1342 -3.1684
 6999SOL     OW21895   0.957   2.815   6.562  0.2493  0.6388  0.2304
 6999SOL    HW121896   0.867   2.829   6.522 -0.4159  0.4049  1.5657
 6999SOL    HW221897   1.020   2.780   6.493 -0.5405  1.2925 -0.8471
 7000SOL     OW21898   0.599   6.318   1.441 -0.2547 -0.2904 -0.4003
 7000SOL    HW121899   0.510   6.295   1.482 -1.0858  2.8378 -0.1959
 7000SOL    HW221900   0.595   6.410   1.403  3.1797  0.3352  0.4379
 7001SOL     OW21901   2.876   1.378   3.064  0.6146 -0.1137  0.0853
 7001SOL    HW121902   2.803   1.339   3.007 -0.1882  0.8903  0.3848
 7001SOL    HW221903   2.903   1.312   3.134  0.5952 -0.8162 -0.5617
 7002SOL     OW21904   0.993   5.161   4.966 -0.3617 -0.6014 -0.2737
 7002SOL    HW121905   0.923   5.089   4.966  0.3301 -1.2892  0.0018
 7002SOL    HW221906   1.084   5.119   4.967  0.0678  0.2791 -0.8339
 7003SOL     OW21907   1.217   6.184   6.158  0.0550  0.0235  0.8979
 7003SOL    HW121908   1.131   6.150   6.120  0.1353  0.7866  0.0061
 7003SOL    HW221909   1.202   6.214   6.252 -0.1569 -1.8604  1.5047
 7004SOL     OW21910   0.239   2.037   6.510 -0.5572  0.3645 -0.5638
 7004SOL    HW121911   0.298   1.969   6.555  0.0402  0.4277 -1.2328
 7004SOL    HW221912   0.292   2.119   6.490 -1.4006  1.2530  0.6912
 7005SOL     OW21913   4.020   4.639   0.593  0.2152 -0.5131 -0.2234
 7005SOL    HW121914   3.958   4.610   0.520  0.3430 -0.6831 -0.2636
 7005SOL    HW221915   3.990   4.599   0.680 -0.0460 -0.1636 -0.1467
 7006SOL     OW21916   0.610   6.653   4.599  0.0784 -0.4329 -0.6561
 7006SOL    HW121917   0.672   6.652   4.677 -0.0797 -0.7688 -0.5340
 7006SOL    HW221918   0.602   6.561   4.561 -0.8026 -0.5053 -0.3122
 7007SOL     OW21919   1.057   0.379   6.128 -0.1741  0.2279 -0.2063
 7007SOL    HW121920   0.994   0.377   6.050  0.3149  0.6138 -0.6121
 7007SOL    HW221921   1.151   0.382   6.095 -0.0061  2.6136  0.3699
 7008SOL     OW21922   6.752   1.331   4.016 -0.5355 -0.6984 -0.5876
 7008SOL    HW121923   6.673   1.275   4.040 -0.4968 -0.7101 -0.4848
 7008SOL    HW221924   6.809   1.343   4.097 -0.7841 -0.1233 -0.4993
 7009SOL     OW21925   3.687   6.693   1.748 -0.5470  0.1992 -0.0339
 7009SOL    HW121926   3.784   6.672   1.738 -0.6356  0.4979 -1.8348
 7009SOL    HW221927   3.633   6.610   1.732 -0.6022 -0.1865  1.8706
 7010SOL     OW21928   5.015   0.641   3.998 -0.2574 -0.2130 -0.0724
 7010SOL    HW121929   5.049   0.711   3.935  0.5820 -0.3059  0.2607
 7010SOL    HW221930   5.092   0.588   4.033 -0.7929 -0.6738  0.4275
 7011SOL     OW21931   1.494   4.835   5.478 -0.0816 -0.2538  0.1921
 7011SOL    HW121932   1.540   4.768   5.421 -1.2814 -0.4992 -0.5397
 7011SOL    HW221933   1.481   4.920   5.427 -0.8422 -0.3497  0.2045
 7012SOL     OW21934   0.827   3.161   6.773 -0.5109 -0.0909 -0.1532
 7012SOL    HW121935   0.775   3.080   6.802  2.2354 -2.4347 -1.2603
 7012SOL    HW221936   0.889   3.189   6.846 -0.4840  0.1405 -0.2640
 7013SOL     OW21937   3.483   2.702   6.221 -0.2604 -0.1652  0.2367
 7013SOL    HW121938   3.494   2.656   6.133 -0.1907 -0.2374  0.2826
 7013SOL    HW221939   3.544   2.660   6.288 -0.4901 -0.2692  0.3805
 7014SOL     OW21940   0.407   5.917   0.772 -0.2357  0.4415  0.0736
 7014SOL    HW121941   0.470   5.891   0.699 -2.8874 -3.0476 -1.2425
 7014SOL    HW221942   0.334   5.973   0.735 -0.6951  0.0543  0.3777
 7015SOL     OW21943   4.597   6.638   6.558 -0.3235 -0.2864 -0.0770
 7015SOL    HW121944   4.623   6.604   6.468 -2.1286  0.1933 -0.8121
 7015SOL    HW221945   4.662   6.604   6.626  0.2713 -1.8136 -1.3411
 7016SOL     OW21946   1.847   3.927   2.566  0.0316  0.2617 -0.3504
 7016SOL    HW121947   1.939   3.946   2.534  1.2408 -2.7375  1.0400
 7016SOL    HW221948   1.848   3.907   2.664 -1.9519 -0.7460 -0.4712
 7017SOL     OW21949   5.809   2.954   5.743  0.0362 -0.5117  0.5336
 7017SOL    HW121950   5.875   2.887   5.778 -0.7866 -1.3181  0.5560
 7017SOL    HW221951   5.723   2.909   5.722  0.1813  0.1119 -1.6280
 7018SOL     OW21952   5.629   3.552   2.973  0.0130  0.4468 -0.1646
 7018SOL    HW121953   5.532   3.531   2.964 -0.5201  1.4486  2.2763
 7018SOL    HW221954   5.656   3.616   2.901 -1.5487  1.3510  0.0009
 7019SOL     OW21955   2.682   0.735   4.056  0.2690 -0.3403 -0.2167
 7019SOL    HW121956   2.668   0.807   4.124 -0.0937 -1.0320  0.4525
 7019SOL    HW221957   2.683   0.775   3.964 -1.1283  0.3763  0.0551
 7020SOL     OW21958   5.878   1.679   5.156  0.5466  0.3926  0.1229
 7020SOL    HW121959   5.902   1.587   5.186 -0.2772 -0.1855 -0.9527
 7020SOL    HW221960   5.950   1.715   5.097  0.0015 -0.3351 -1.0196
 7021SOL     OW21961   1.921   2.566   4.880  0.6763 -0.0919  0.6131
 7021SOL    HW121962   1.988   2.568   4.954 -0.5461 -2.4634  1.8978
 7021SOL    HW221963   1.849   2.633   4.899  1.5226  0.9250  0.3375
 7022SOL     OW21964   1.815   2.460   2.460 -0.0405 -0.1400  0.0021
 7022SOL    HW121965   1.900   2.508   2.439  0.2535 -0.4855  0.3750
 7022SOL    HW221966   1.788   2.404   2.382 -0.4314  0.6832 -0.4684
 7023SOL     OW21967   0.572   0.601   1.196 -0.4535  0.2414  0.2776
 7023SOL    HW121968   0.557   0.562   1.105 -0.2126  0.3571  0.1869
 7023SOL    HW221969   0.659   0.568   1.232 -0.3032  0.5979  0.2484
 7024SOL     OW21970   3.723   5.249   5.412  0.4315  0.1684 -0.3403
 7024SOL    HW121971   3.786   5.253   5.490 -0.4982  0.5357  0.4129
 7024SOL    HW221972   3.694   5.154   5.398  0.3697  0.1408 -0.0403
 7025SOL     OW21973   4.632   1.809   0.578 -0.1912 -0.2045  0.2137
 7025SOL    HW121974   4.615   1.813   0.676  2.3250  1.3816  0.6831
 7025SOL    HW221975   4.667   1.898   0.547 -3.5729  0.2972 -2.7281
 7026SOL     OW21976   3.133   3.827   2.406 -0.0532  0.8590 -0.7361
 7026SOL    HW121977   3.055   3.886   2.423 -0.9910 -0.6589  0.5022
 7026SOL    HW221978   3.119   3.776   2.321 -0.5918  0.3376 -0.3420
 7027SOL     OW21979   2.088   2.669   7.005  0.2370 -0.2859  0.5846
 7027SOL    HW121980   2.171   2.707   7.045  1.4152  1.2375 -2.9501
 7027SOL    HW221981   2.020   2.742   6.994 -0.8615 -1.1121  1.5641
 7028SOL     OW21982   2.123   2.196   1.881  0.5396  0.3872  0.3659
 7028SOL    HW121983   2.193   2.158   1.942 -0.8145  0.7857  2.2474
 7028SOL    HW221984   2.087   2.124   1.822  1.7871 -0.0310  0.0756
 7029SOL     OW21985   3.071   3.849   3.236  0.2941  0.4989 -0.1337
 7029SOL    HW121986   3.165   3.825   3.214  0.1002 -3.0730  2.1230
 7029SOL    HW221987   3.059   3.846   3.335 -2.5447 -0.9363 -0.4281
 7030SOL     OW21988   6.467   6.424   4.900 -0.3050  0.0563 -0.1128
 7030SOL    HW121989   6.465   6.347   4.835 -1.1983  0.2826 -0.3641
 7030SOL    HW221990   6.555   6.471   4.893  0.3362 -1.0663  0.1942
 7031SOL     OW21991   5.138   6.510   0.568 -0.2652  0.6876  0.3169
 7031SOL    HW121992   5.172   6.416   0.563  0.2370  0.8359  0.8023
 7031SOL    HW221993   5.098   6.536   0.480  1.4453  0.7183 -0.4903
 7032SOL     OW21994   2.794   5.033   3.734  0.4429  0.0083 -0.4161
 7032SOL    HW121995   2.700   5.020   3.701  0.3454 -1.3184  0.3410
 7032SOL    HW221996   2.858   5.024   3.658  0.0687 -0.8072 -0.6422
 7033SOL     OW21997   3.389   0.676   5.298 -0.0337 -0.1420  0.1396
 7033SOL    HW121998   3.309   0.721   5.337 -0.6022 -2.0987  1.3690
 7033SOL    HW221999   3.442   0.632   5.370 -0.2491 -2.5250 -1.0316
 7034SOL     OW22000   5.870   2.375   2.295 -0.2260 -0.6116 -0.2205
 7034SOL    HW122001   5.967   2.363   2.317 -0.2413  0.8431  0.7624
 7034SOL    HW222002   5.817   2.373   2.380 -0.7150  1.4467 -0.4273
 7035SOL     OW22003   5.479   2.353   6.740  0.0588  0.0067 -0.3877
 7035SOL    HW122004   5.514   2.370   6.647  1.4927 -0.6021  0.0088
 7035SOL    HW222005   5.422   2.271   6.740 -0.9986  0.7186 -0.9510
 7036SOL     OW22006   0.838   2.457   2.560  0.2621 -0.1817  0.3123
 7036SOL    HW122007   0.841   2.370   2.511  0.1832  0.4852 -0.9282
 7036SOL    HW222008   0.914   2.462   2.624  0.2326 -1.1861  0.4394
 7037SOL     OW22009   5.858   0.394   5.340  0.5780  0.3716  0.0501
 7037SOL    HW122010   5.762   0.367   5.351  1.3625 -2.4765  0.7564
 7037SOL    HW222011   5.878   0.407   5.243  0.3050 -2.9185 -0.5706
 7038SOL     OW22012   0.653   4.369   6.217 -0.1438  0.6229 -0.2827
 7038SOL    HW122013   0.752   4.366   6.231 -0.4396 -0.5951  1.9700
 7038SOL    HW222014   0.608   4.309   6.282 -2.4508  1.8251 -0.6505
 7039SOL     OW22015   6.051   0.190   2.533  0.8396  0.0378  0.3820
 7039SOL    HW122016   6.094   0.279   2.540  0.5349  0.1544  0.8165
 7039SOL    HW222017   5.972   0.186   2.595  0.8680 -0.5376  0.3853
 7040SOL     OW22018   6.426   3.745   3.960  0.1883  0.6053  0.4429
 7040SOL    HW122019   6.404   3.741   4.057  0.2942  1.4417  0.5123
 7040SOL    HW222020   6.342   3.746   3.906 -0.0027  3.1209  0.6742
 7041SOL     OW22021   6.254   0.419   1.477  0.1223  0.4967 -0.4732
 7041SOL    HW122022   6.246   0.457   1.385 -0.6161  0.6751 -0.3406
 7041SOL    HW222023   6.172   0.367   1.499  0.6428 -0.2387 -0.2198
 7042SOL     OW22024   3.590   3.506   0.502 -0.5240 -0.6214 -0.4090
 7042SOL    HW122025   3.545   3.589   0.534 -0.5936 -0.1732 -1.6133
 7042SOL    HW222026   3.682   3.500   0.541 -0.1936  0.4734 -1.0048
 7043SOL     OW22027   2.019   5.961   0.334 -0.5357 -0.5970  0.1400
 7043SOL    HW122028   1.978   6.039   0.286 -0.2117 -1.2535 -1.2575
 7043SOL    HW222029   1.955   5.928   0.404 -0.3669  1.3553  1.2663
 7044SOL     OW22030   4.815   5.830   6.974 -0.0516  0.1333 -0.2334
 7044SOL    HW122031   4.890   5.870   6.920  0.1585  1.1181  0.7448
 7044SOL    HW222032   4.729   5.840   6.924  0.0809  1.3583 -0.2510
 7045SOL     OW22033   4.841   1.661   1.006  0.0286 -0.3332 -0.1730
 7045SOL    HW122034   4.913   1.645   0.940  2.7479  0.2688  2.4317
 7045SOL    HW222035   4.853   1.601   1.085 -0.9708  1.3130  1.3085
 7046SOL     OW22036   2.718   1.783   4.059 -0.0315  0.6579 -0.0590
 7046SOL    HW122037   2.784   1.808   4.130 -1.0833  1.8446  0.5397
 7046SOL    HW222038   2.663   1.864   4.034 -1.0417 -0.2162 -0.7645
 7047SOL     OW22039   2.072   0.258   0.615 -0.2026 -0.3352  0.3986
 7047SOL    HW122040   2.098   0.351   0.590  0.8179 -0.3745  1.2249
 7047SOL    HW222041   2.074   0.248   0.714 -0.3769 -1.2137  0.3228
 7048SOL     OW22042   1.591   5.735   5.011 -0.8691  0.4264  0.8879
 7048SOL    HW122043   1.497   5.717   4.981 -0.5928  1.3532 -0.6205
 7048SOL    HW222044   1.635   5.648   5.037 -1.2721 -0.3932 -1.0149
 7049SOL     OW22045   4.046   6.822   4.757  0.0912  0.3180  0.4966
 7049SOL    HW122046   4.022   6.893   4.691  0.5542  1.3676  1.4360
 7049SOL    HW222047   3.990   6.833   4.839 -0.5173 -1.0073  0.2884
 7050SOL     OW22048   4.840   4.023   1.040 -0.0489 -0.4900  0.3636
 7050SOL    HW122049   4.939   4.025   1.057  0.2895 -0.5654 -1.4500
 7050SOL    HW222050   4.795   3.971   1.113  1.2267 -0.4254  1.2347
 7051SOL     OW22051   1.716   1.281   1.047 -0.1565  0.2007  0.4484
 7051SOL    HW122052   1.735   1.275   1.145  1.2443  0.9157  0.2498
 7051SOL    HW222053   1.689   1.375   1.024  2.1985  0.8018 -0.2182
 7052SOL     OW22054   5.690   0.850   2.223  0.2298  0.3038  0.1323
 7052SOL    HW122055   5.681   0.943   2.187  1.2123  0.9420  1.4672
 7052SOL    HW222056   5.756   0.799   2.168 -0.3775  0.3485 -0.6585
 7053SOL     OW22057   1.714   4.737   4.506 -0.2406  0.8051 -0.1289
 7053SOL    HW122058   1.785   4.753   4.438 -0.7216  1.0471 -0.5795
 7053SOL    HW222059   1.756   4.703   4.590  0.1699 -1.9910 -1.3375
 7054SOL     OW22060   4.937   0.476   0.082 -0.8481  0.1771  0.3243
 7054SOL    HW122061   4.908   0.560   0.126  0.2833  2.2782 -2.6190
 7054SOL    HW222062   4.857   0.427   0.047 -1.4009  1.1415  0.2247
 7055SOL     OW22063   1.106   5.453   6.205  0.7086 -0.2007  0.4849
 7055SOL    HW122064   1.091   5.536   6.259  1.1437  0.3467 -0.2120
 7055SOL    HW222065   1.048   5.379   6.240  0.1589  0.4540  0.9871
 7056SOL     OW22066   0.964   4.892   0.185  0.6866 -0.9095 -0.0483
 7056SOL    HW122067   0.928   4.969   0.132  0.9027 -0.6221  0.2186
 7056SOL    HW222068   1.020   4.834   0.126 -0.8706 -1.8293 -0.6857
 7057SOL     OW22069   3.202   4.877   4.353 -0.9700 -0.1687  0.4340
 7057SOL    HW122070   3.111   4.849   4.383 -1.4799  0.6781 -0.2823
 7057SOL    HW222071   3.265   4.872   4.430 -1.6818 -0.4737  1.0142
 7058SOL     OW22072   6.657   3.052   5.247  0.1086 -0.0639  0.2536
 7058SOL    HW122073   6.605   3.096   5.320  0.9016  0.8552  0.2879
 7058SOL    HW222074   6.664   3.114   5.169  0.6848 -0.3900  0.0414
 7059SOL     OW22075   0.791   6.723   4.353 -0.1100 -0.1005  0.3419
 7059SOL    HW122076   0.732   6.707   4.432  0.0100 -1.9645  0.1073
 7059SOL    HW222077   0.738   6.765   4.279 -0.6220  0.1304  0.8393
 7060SOL     OW22078   3.659   1.614   0.941  0.1950 -0.4056  0.6070
 7060SOL    HW122079   3.670   1.687   1.008  1.7999  0.6158 -0.6934
 7060SOL    HW222080   3.569   1.622   0.897  0.9802  1.9649 -0.7619
 7061SOL     OW22081   0.490   0.501   0.097  0.1336  0.3326  0.4848
 7061SOL    HW122082   0.565   0.445   0.132  0.2573 -0.2341 -0.6232
 7061SOL    HW222083   0.498   0.508  -0.003 -0.4688  1.4763  0.4974
 7062SOL     OW22084   2.875   6.873   6.861  0.4447 -0.0865  0.3632
 7062SOL    HW122085   2.892   6.893   6.958  2.1491 -2.2905  0.6114
 7062SOL    HW222086   2.948   6.911   6.805 -0.2221  0.6669 -0.0163
 7063SOL     OW22087   5.045   3.131   1.443 -0.5048 -0.4634 -0.0715
 7063SOL    HW122088   5.072   3.063   1.510 -1.6498 -0.2535  0.6253
 7063SOL    HW222089   5.121   3.148   1.380  0.9671  0.0664  1.7591
 7064SOL     OW22090   3.401   2.352   5.569  0.1049  0.3138  0.7867
 7064SOL    HW122091   3.331   2.393   5.628  1.1635  0.4570  1.9809
 7064SOL    HW222092   3.366   2.346   5.476 -1.2495  1.0023  1.2205
 7065SOL     OW22093   3.884   0.753   4.442 -0.3902 -0.3468 -0.5197
 7065SOL    HW122094   3.792   0.766   4.478 -0.1437  2.7247 -0.7291
 7065SOL    HW222095   3.940   0.707   4.511 -0.7644  2.4922  1.9261
 7066SOL     OW22096   4.730   6.626   0.790  0.2452 -0.2908 -0.2511
 7066SOL    HW122097   4.717   6.630   0.889  0.5353  0.1806 -0.2310
 7066SOL    HW222098   4.688   6.542   0.755 -2.0693  0.7091 -0.0671
 7067SOL     OW22099   2.798   6.059   5.812 -0.4337 -0.1091  0.3364
 7067SOL    HW122100   2.767   6.129   5.876  0.1180 -1.9097  2.7031
 7067SOL    HW222101   2.858   6.100   5.744 -0.1972  1.7144  1.5941
 7068SOL     OW22102   4.243   4.146   1.679  0.2225  0.0080 -0.0926
 7068SOL    HW122103   4.255   4.203   1.598 -1.3152 -0.0995 -0.4239
 7068SOL    HW222104   4.315   4.166   1.745  0.8007  0.9534 -0.9871
 7069SOL     OW22105   2.224   1.529   5.997 -0.4846 -0.1218  0.4879
 7069SOL    HW122106   2.183   1.596   6.059 -0.4103  0.3583  0.0312
 7069SOL    HW222107   2.160   1.508   5.924  0.1747  0.9045 -0.4303
 7070SOL     OW22108   0.683   0.774   4.814 -0.4120  0.2986 -0.4687
 7070SOL    HW122109   0.628   0.843   4.768 -0.9763 -1.6236 -2.8618
 7070SOL    HW222110   0.645   0.757   4.905 -1.5494  1.5850 -0.6748
 7071SOL     OW22111   3.879   4.777   6.579 -0.6269  0.0270  0.7175
 7071SOL    HW122112   3.891   4.832   6.662  0.8933 -1.1535  1.3589
 7071SOL    HW222113   3.963   4.781   6.524 -1.3441  0.1863 -0.3921
 7072SOL     OW22114   2.319   1.306   6.139 -0.1317 -0.2899 -0.5098
 7072SOL    HW122115   2.269   1.377   6.090  0.4113  1.8482  1.8230
 7072SOL    HW222116   2.255   1.237   6.173 -1.3281  1.2857  0.6312
 7073SOL     OW22117   4.510   0.055   5.783 -0.4921 -0.0869  0.9597
 7073SOL    HW122118   4.455   0.073   5.864 -2.2302  0.4155 -0.2662
 7073SOL    HW222119   4.483  -0.032   5.742 -0.3353  0.1296  0.3812
 7074SOL     OW22120   6.232   3.024   4.372 -0.1910  0.0356  0.9081
 7074SOL    HW122121   6.238   3.103   4.434 -0.7616  0.2103  0.7468
 7074SOL    HW222122   6.299   2.955   4.400  1.3152  1.1634  0.1995
 7075SOL     OW22123   1.101   6.072   3.162 -0.2826 -0.2091  0.3411
 7075SOL    HW122124   1.123   6.145   3.226 -2.6761  2.7538 -1.8916
 7075SOL    HW222125   1.043   6.004   3.208  3.3626 -1.8741  2.9369
 7076SOL     OW22126   6.813   1.249   1.668  0.2813  0.2989  0.2232
 7076SOL    HW122127   6.850   1.242   1.761 -0.5791 -0.5362  0.5157
 7076SOL    HW222128   6.828   1.342   1.633  1.4293  0.3531  0.8397
 7077SOL     OW22129   2.907   6.334   1.898  0.3997 -0.0166 -0.1097
 7077SOL    HW122130   2.901   6.434   1.896  0.4778 -0.0135 -1.3260
 7077SOL    HW222131   2.990   6.306   1.946  0.5987  0.5209 -0.1403
 7078SOL     OW22132   6.848   0.679   1.670  0.3515 -0.1671 -0.0090
 7078SOL    HW122133   6.757   0.716   1.654 -0.1711 -0.5823  1.7899
 7078SOL    HW222134   6.882   0.710   1.759  0.6015 -2.5477  0.8136
 7079SOL     OW22135   2.770   5.519   4.504  0.1687 -0.5075 -0.0384
 7079SOL    HW122136   2.767   5.419   4.492 -0.7900 -0.5549  0.5517
 7079SOL    HW222137   2.714   5.562   4.433 -1.9988 -0.5740  1.5416
 7080SOL     OW22138   2.494   1.618   0.330 -0.7073  0.2649  0.1823
 7080SOL    HW122139   2.488   1.699   0.273 -0.2608  0.0828 -0.1269
 7080SOL    HW222140   2.461   1.639   0.422 -0.0216  0.9595  0.2750
 7081SOL     OW22141   1.814   5.523   5.632  0.4230 -0.3957 -0.1016
 7081SOL    HW122142   1.784   5.618   5.622  2.0929  0.1231 -0.3787
 7081SOL    HW222143   1.791   5.490   5.724 -0.3730  0.1879 -0.0846
 7082SOL     OW22144   1.510   5.964   2.215 -0.1382 -0.3205 -0.1532
 7082SOL    HW122145   1.579   5.996   2.150 -0.1534  1.0498  0.4569
 7082SOL    HW222146   1.551   5.895   2.276  1.5011  2.1055  1.7173
 7083SOL     OW22147   5.432   3.193   2.433 -0.6221  0.0535 -0.5644
 7083SOL    HW122148   5.528   3.178   2.455 -0.4835 -0.4305 -1.4309
 7083SOL    HW222149   5.385   3.105   2.425 -1.1106  0.2830 -0.2740
 7084SOL     OW22150   1.156   6.172   0.957 -0.2734  0.3613  0.6427
 7084SOL    HW122151   1.221   6.104   0.924  0.1620  0.9096  0.3597
 7084SOL    HW222152   1.106   6.135   1.035 -1.0476 -0.8143 -0.3676
 7085SOL     OW22153   5.884   4.360   2.181  0.4946  0.0143 -0.0862
 7085SOL    HW122154   5.900   4.436   2.118 -2.1037  0.2909 -0.5269
 7085SOL    HW222155   5.909   4.388   2.274  2.6144  0.2337 -0.6601
 7086SOL     OW22156   2.829   1.436   6.069 -0.0949 -0.1625 -0.5684
 7086SOL    HW122157   2.742   1.386   6.074  0.6603 -1.6045 -1.0598
 7086SOL    HW222158   2.812   1.528   6.035 -1.6111  0.1379  0.8381
 7087SOL     OW22159   4.996   1.827   3.057  0.1975 -0.0876  0.1087
 7087SOL    HW122160   5.007   1.926   3.069  1.6708 -0.1371 -0.5675
 7087SOL    HW222161   4.957   1.808   2.966 -0.0274 -0.1336  0.2142
 7088SOL     OW22162   5.710   0.189   5.623  0.1041  0.1665  0.8207
 7088SOL    HW122163   5.664   0.275   5.603  2.1858  1.0622 -0.5220
 7088SOL    HW222164   5.734   0.144   5.537  1.0833 -0.5989  1.4748
 7089SOL     OW22165   3.403   6.762   2.091  0.4650 -0.0558 -0.0603
 7089SOL    HW122166   3.341   6.753   2.013 -0.1425 -1.6723  0.5605
 7089SOL    HW222167   3.358   6.817   2.162  0.5503  0.4367 -0.3830
 7090SOL     OW22168   5.100   3.549   2.365 -0.4936 -0.1586  0.5012
 7090SOL    HW122169   5.170   3.508   2.423 -0.7182  0.9816  1.6308
 7090SOL    HW222170   5.031   3.481   2.341  0.6610 -1.1345 -0.1126
 7091SOL     OW22171   4.684   6.150   5.773  0.6834 -0.2951  0.4002
 7091SOL    HW122172   4.679   6.056   5.740  0.1872 -0.0297 -0.3014
 7091SOL    HW222173   4.679   6.151   5.873 -0.2436 -0.9519  0.3711
 7092SOL     OW22174   3.380   1.403   6.951  0.0920 -0.5269 -0.4469
 7092SOL    HW122175   3.386   1.491   6.904 -0.2486 -0.8848 -1.1830
 7092SOL    HW222176   3.421   1.332   6.893 -1.1778 -1.1360 -0.6482
 7093SOL     OW22177   4.463   2.460   0.782  0.4196 -0.3904  0.0436
 7093SOL    HW122178   4.390   2.522   0.809  1.7534  0.9919  0.6615
 7093SOL    HW222179   4.427   2.367   0.772 -2.0267  0.6898 -2.6224
 7094SOL     OW22180   4.025   0.836   4.740  0.0348  0.0085 -0.1843
 7094SOL    HW122181   4.003   0.922   4.786 -0.6653 -0.6867  0.8078
 7094SOL    HW222182   3.947   0.774   4.746  0.2664 -0.4548 -1.5144
 7095SOL     OW22183   2.895   4.883   3.376  0.0614 -0.1930 -0.7423
 7095SOL    HW122184   2.844   4.963   3.408 -0.2523 -0.1315 -1.3774
 7095SOL    HW222185   2.992   4.905   3.371  0.2427 -0.4535  0.9349
 7096SOL     OW22186   6.976   6.595   6.927  0.5351 -0.0649 -0.5947
 7096SOL    HW122187   6.908   6.557   6.865  0.0906  0.1404 -0.2388
 7096SOL    HW222188   7.027   6.668   6.881  0.5343 -0.2430 -0.8735
 7097SOL     OW22189   3.988   1.884   2.082  0.4111 -0.4032  0.3396
 7097SOL    HW122190   4.043   1.859   2.162  1.0365 -0.2537 -0.0335
 7097SOL    HW222191   4.049   1.905   2.006 -0.1964 -1.0365 -0.3305
 7098SOL     OW22192   1.752   0.333   2.267  0.4858 -0.1451  0.2650
 7098SOL    HW122193   1.785   0.326   2.173  0.3255  2.0739 -0.0149
 7098SOL    HW222194   1.787   0.256   2.321  0.0363 -1.8429 -1.7246
 7099SOL     OW22195   3.522   0.646   5.049 -0.1684  0.2200  0.1949
 7099SOL    HW122196   3.455   0.665   5.121 -2.0416 -2.7782 -0.5505
 7099SOL    HW222197   3.598   0.595   5.087 -1.4379 -1.8761  0.0581
 7100SOL     OW22198   0.154   4.380   1.287 -0.0260  0.7869 -0.0417
 7100SOL    HW122199   0.203   4.324   1.220 -0.5788  0.6924 -0.3763
 7100SOL    HW222200   0.212   4.456   1.317  0.1221  0.9926 -0.8381
 7101SOL     OW22201   1.473   0.268   5.557 -0.5264 -0.1671 -0.5347
 7101SOL    HW122202   1.464   0.180   5.510  0.4682 -0.5618 -0.0308
 7101SOL    HW222203   1.532   0.329   5.504 -1.4583  0.3162 -1.0305
 7102SOL     OW22204   5.344   2.842   1.592 -0.0915  0.1770  0.6702
 7102SOL    HW122205   5.288   2.925   1.600 -1.1060 -0.4205 -0.0446
 7102SOL    HW222206   5.325   2.781   1.669 -0.3953 -0.0009  0.4575
 7103SOL     OW22207   5.665   2.823   5.169  0.2072 -0.5029  0.0530
 7103SOL    HW122208   5.679   2.870   5.082 -0.0877  0.6659  0.6161
 7103SOL    HW222209   5.569   2.793   5.176 -0.0898  0.4846  0.4653
 7104SOL     OW22210   5.566   3.993   2.705  0.1898  0.6547  0.2381
 7104SOL    HW122211   5.576   4.060   2.631 -0.4398 -0.4562 -0.8916
 7104SOL    HW222212   5.595   4.035   2.792  1.2303  1.8937 -0.6648
 7105SOL     OW22213   2.835   4.373   1.192 -0.0399  0.0790  0.2309
 7105SOL    HW122214   2.738   4.380   1.168  1.0117  1.3112 -4.5587
 7105SOL    HW222215   2.863   4.277   1.189 -0.4849 -0.0165 -1.5626
 7106SOL     OW22216   0.901   3.668   4.145  0.0358 -0.5024  0.2881
 7106SOL    HW122217   0.992   3.709   4.151 -0.6222  0.9673  0.8710
 7106SOL    HW222218   0.865   3.681   4.052  0.0101 -0.1516  0.3462
 7107SOL     OW22219   4.982   6.846   1.882  0.0510  0.0688 -0.1267
 7107SOL    HW122220   5.072   6.809   1.903  0.1313 -1.2245 -2.4247
 7107SOL    HW222221   4.912   6.801   1.938  0.7003  0.2690  0.8555
 7108SOL     OW22222   2.777   0.201   2.520 -0.1255 -0.4428  0.1052
 7108SOL    HW122223   2.731   0.136   2.459 -0.3901  0.0877 -0.2616
 7108SOL    HW222224   2.751   0.181   2.615 -0.2488 -0.8385 -0.0096
 7109SOL     OW22225   2.883   4.906   5.784 -0.2337 -0.2693  0.3919
 7109SOL    HW122226   2.839   4.821   5.813  0.7158 -1.1291 -0.6099
 7109SOL    HW222227   2.936   4.890   5.701 -0.9089  1.5707 -0.4386
 7110SOL     OW22228   2.369   5.392   4.636 -0.2847 -0.0434  0.6223
 7110SOL    HW122229   2.360   5.439   4.549 -1.6821 -0.1970  0.6669
 7110SOL    HW222230   2.352   5.456   4.711  2.1775  0.4108  0.8833
 7111SOL     OW22231   0.516   1.686   0.784 -0.4057 -0.0390 -0.0553
 7111SOL    HW122232   0.435   1.653   0.833 -0.2337 -0.7472 -0.2276
 7111SOL    HW222233   0.581   1.610   0.774 -0.7558 -0.1264 -2.0405
 7112SOL     OW22234   0.858   6.502   3.656  0.0426 -0.0550 -0.4235
 7112SOL    HW122235   0.801   6.420   3.648 -1.6434  0.8343  1.3816
 7112SOL    HW222236   0.802   6.583   3.636  0.8935  0.8045  0.5500
 7113SOL     OW22237   4.183   0.121   5.718  0.2488 -0.2815  0.2115
 7113SOL    HW122238   4.215   0.122   5.623  1.1189  0.2654  0.4999
 7113SOL    HW222239   4.142   0.032   5.739  0.2823 -0.4955 -0.5931
 7114SOL     OW22240   6.000   2.248   6.404 -0.4554 -0.2213  0.5025
 7114SOL    HW122241   5.960   2.322   6.349  1.1941  0.2225 -0.1365
 7114SOL    HW222242   6.091   2.274   6.434  1.3834 -3.0484 -2.0598
 7115SOL     OW22243   2.723   4.595   6.852 -0.2838  0.2899  0.1203
 7115SOL    HW122244   2.678   4.597   6.941 -0.2174  0.4058  0.1523
 7115SOL    HW222245   2.699   4.678   6.800  0.7435  0.8952  0.5674
 7116SOL     OW22246   1.273   4.968   3.348  0.6674 -0.2355  0.4412
 7116SOL    HW122247   1.329   5.047   3.323  1.8939 -0.5557  2.0563
 7116SOL    HW222248   1.291   4.893   3.285  0.3523  0.3741 -0.3975
 7117SOL     OW22249   3.418   2.079   3.152 -0.0592 -0.0305 -0.2218
 7117SOL    HW122250   3.407   1.983   3.179 -2.2914 -0.2153 -1.5785
 7117SOL    HW222251   3.469   2.084   3.066  1.4285  0.1532  0.6305
 7118SOL     OW22252   4.347   6.049   4.446  0.1279 -0.0533 -0.2697
 7118SOL    HW122253   4.349   5.972   4.382  0.4462 -1.1553  1.0169
 7118SOL    HW222254   4.380   6.019   4.536 -0.9456  1.2721  0.6127
 7119SOL     OW22255   3.324   4.931   3.081 -0.6098 -0.4925 -0.3868
 7119SOL    HW122256   3.365   4.944   2.991 -0.5883  1.4354 -0.1401
 7119SOL    HW222257   3.242   4.988   3.089  0.0803  0.3600  1.2045
 7120SOL     OW22258   4.578   1.839   3.414  0.3242  0.1417 -0.2375
 7120SOL    HW122259   4.581   1.904   3.339 -0.8225  0.1969 -0.2539
 7120SOL    HW222260   4.520   1.761   3.389 -0.0536  0.1473  0.5786
 7121SOL     OW22261   2.535   5.330   2.186 -0.3202  0.1318  0.2620
 7121SOL    HW122262   2.537   5.291   2.093 -2.1124 -0.0945  0.2939
 7121SOL    HW222263   2.571   5.424   2.183  0.1073 -0.0446 -0.5616
 7122SOL     OW22264   2.857   1.861   6.849 -0.2764 -0.4441  0.0226
 7122SOL    HW122265   2.802   1.923   6.793 -1.2178 -1.1383  0.1517
 7122SOL    HW222266   2.868   1.773   6.802  2.2438  0.2277 -0.8015
 7123SOL     OW22267   4.963   2.705   6.660 -0.1053  0.1314  0.1746
 7123SOL    HW122268   5.049   2.658   6.678 -0.1771  0.3376  1.1531
 7123SOL    HW222269   4.890   2.637   6.650  0.1607 -0.0422 -0.6281
 7124SOL     OW22270   4.352   3.192   5.548  0.2361  0.2330  0.6081
 7124SOL    HW122271   4.258   3.217   5.528  0.4245  1.8605  1.5794
 7124SOL    HW222272   4.413   3.234   5.480  0.4867  1.8042  1.7590
 7125SOL     OW22273   1.776   6.532   1.341  0.2921 -0.5487 -0.4156
 7125SOL    HW122274   1.717   6.613   1.343  0.2046 -0.5310 -2.1987
 7125SOL    HW222275   1.723   6.453   1.313  0.7640 -0.8853 -0.3740
 7126SOL     OW22276   4.669   2.745   0.210  0.0834  0.5142  0.6375
 7126SOL    HW122277   4.678   2.832   0.162 -0.4275 -0.0821 -0.6059
 7126SOL    HW222278   4.623   2.679   0.150 -0.8141 -0.2048  2.0590
 7127SOL     OW22279   2.717   6.719   4.774  0.4799 -0.7216 -0.3970
 7127SOL    HW122280   2.620   6.736   4.761  0.4616 -0.8059 -0.3685
 7127SOL    HW222281   2.733   6.686   4.867  0.4551 -1.3452 -0.6118
 7128SOL     OW22282   4.636   2.223   0.161  0.0493  0.1101 -0.2352
 7128SOL    HW122283   4.548   2.203   0.117  0.8420 -0.2199 -1.7072
 7128SOL    HW222284   4.710   2.182   0.109  1.0865  0.2062  1.1077
 7129SOL     OW22285   6.875   1.686   1.307 -0.1835  0.0507  1.0852
 7129SOL    HW122286   6.920   1.639   1.232 -3.1115 -2.4580  0.6945
 7129SOL    HW222287   6.921   1.773   1.325  2.7860 -0.9111 -1.1581
 7130SOL     OW22288   2.606   0.077   2.839  0.5132  0.3617 -0.2277
 7130SOL    HW122289   2.602   0.156   2.901 -0.0782 -1.5218  2.2696
 7130SOL    HW222290   2.689   0.024   2.858  0.4258 -0.1549 -1.2379
 7131SOL     OW22291   2.403   2.535   3.191  0.0183 -0.0406  0.0769
 7131SOL    HW122292   2.494   2.498   3.209  0.5181  0.9744 -0.2907
 7131SOL    HW222293   2.375   2.595   3.265  0.7863  1.7178 -0.9850
 7132SOL     OW22294   5.377   5.345   2.205  0.5224 -0.1328  0.1457
 7132SOL    HW122295   5.446   5.273   2.205 -1.8317 -2.5571  0.0178
 7132SOL    HW222296   5.340   5.356   2.297 -0.4111 -0.4550 -0.1756
 7133SOL     OW22297   3.751   6.980   2.220 -0.7405 -0.0273 -0.3151
 7133SOL    HW122298   3.746   6.892   2.268  2.5832 -0.4591 -0.5097
 7133SOL    HW222299   3.758   7.054   2.287 -2.4251  0.0449 -0.1689
 7134SOL     OW22300   6.784   5.557   6.102  0.8583  0.3800 -0.0989
 7134SOL    HW122301   6.695   5.592   6.076  0.4157 -0.5016  0.1802
 7134SOL    HW222302   6.842   5.549   6.021  0.7116  1.0104 -0.2704
 7135SOL     OW22303   0.521   6.580   0.533  0.3843  0.3108  0.0483
 7135SOL    HW122304   0.565   6.525   0.605 -1.9374  0.0278  1.3264
 7135SOL    HW222305   0.480   6.519   0.465  2.2193  0.5773 -1.3779
 7136SOL     OW22306   0.830   2.347   2.918  0.2425 -0.2307 -0.1551
 7136SOL    HW122307   0.733   2.339   2.893  0.1564 -0.9279  0.3511
 7136SOL    HW222308   0.838   2.345   3.018  0.9119 -2.2918 -0.1956
 7137SOL     OW22309   0.705   0.468   0.959  0.2488 -0.4302  0.2381
 7137SOL    HW122310   0.688   0.450   0.862  2.5737  1.8278 -0.7300
 7137SOL    HW222311   0.790   0.423   0.987  0.6978  0.5904  0.5914
 7138SOL     OW22312   6.269   5.225   0.939 -0.2535  0.3374  0.0340
 7138SOL    HW122313   6.328   5.210   1.018  1.2779  1.3013 -0.8728
 7138SOL    HW222314   6.193   5.286   0.964 -0.4879 -0.3498  1.0414
 7139SOL     OW22315   0.333   6.062   0.135  0.0168 -0.1004 -0.2833
 7139SOL    HW122316   0.415   6.009   0.112  0.4975  0.0077  1.1009
 7139SOL    HW222317   0.305   6.041   0.228 -1.5352 -0.1053 -0.7325
 7140SOL     OW22318   6.318   2.462   0.270  0.4493  0.4886 -0.1710
 7140SOL    HW122319   6.366   2.420   0.193  0.4456  1.4720 -0.7414
 7140SOL    HW222320   6.290   2.555   0.244 -0.4269  0.4777  0.6813
 7141SOL     OW22321   1.774   3.070   2.220  0.1687  0.3158  0.2334
 7141SOL    HW122322   1.818   3.155   2.249 -0.7108  0.9425 -0.2111
 7141SOL    HW222323   1.699   3.049   2.283  0.3270 -0.0880  0.2887
 7142SOL     OW22324   4.841   1.205   5.588 -0.0644  0.3211  0.6146
 7142SOL    HW122325   4.816   1.110   5.569  1.4593  0.0700 -0.3172
 7142SOL    HW222326   4.938   1.210   5.613  0.5083  1.8437 -1.5897
 7143SOL     OW22327   3.989   3.464   4.472  0.7983  1.1860  0.4837
 7143SOL    HW122328   4.027   3.470   4.380 -0.7526  0.8369 -0.1979
 7143SOL    HW222329   4.018   3.379   4.515 -0.6518  0.0213 -0.7332
 7144SOL     OW22330   5.392   0.541   0.034 -0.2958  0.3904 -0.8082
 7144SOL    HW122331   5.444   0.544  -0.052 -0.5548  1.7996 -0.9372
 7144SOL    HW222332   5.391   0.632   0.076  0.2565 -0.3646  0.9653
 7145SOL     OW22333   0.047   4.495   0.741  0.1199 -0.0215  0.0984
 7145SOL    HW122334   0.082   4.472   0.650 -1.5973 -0.7243 -0.4275
 7145SOL    HW222335   0.060   4.416   0.801 -1.0384 -0.4953 -0.2562
 7146SOL     OW22336   2.714   2.466   5.523  0.0445  0.2751  0.4824
 7146SOL    HW122337   2.650   2.474   5.599 -0.0784 -1.8376  0.6473
 7146SOL    HW222338   2.771   2.385   5.535 -0.4772 -0.5668 -2.0015
 7147SOL     OW22339   6.529   0.039   0.010 -0.0797 -0.5656 -0.0334
 7147SOL    HW122340   6.561  -0.056   0.016 -1.7816 -1.3523 -2.2808
 7147SOL    HW222341   6.572   0.084  -0.068 -0.5319 -0.0141  0.0287
 7148SOL     OW22342   4.805   0.126   0.123 -0.0896  0.1768  0.4899
 7148SOL    HW122343   4.727   0.064   0.132  1.2495 -1.5106  1.0723
 7148SOL    HW222344   4.819   0.147   0.026 -0.8976  0.0204  0.3301
 7149SOL     OW22345   6.750   4.296   1.462  0.5904  0.3753  0.1286
 7149SOL    HW122346   6.662   4.252   1.484 -0.5970  1.8686 -1.4049
 7149SOL    HW222347   6.766   4.370   1.528  0.2308  0.6830 -0.1218
 7150SOL     OW22348   2.273   2.090   0.094  0.0987 -0.4447 -0.6698
 7150SOL    HW122349   2.330   2.009   0.107  0.3939 -0.0970  0.3313
 7150SOL    HW222350   2.332   2.171   0.092 -0.3634 -0.0420  0.7692
 7151SOL     OW22351   4.099   1.646   0.848 -0.3953 -0.3051  0.0468
 7151SOL    HW122352   4.057   1.647   0.939  0.7946  1.0621  0.6320
 7151SOL    HW222353   4.186   1.596   0.852 -0.5700 -0.6551 -0.4637
 7152SOL     OW22354   6.737   6.114   6.369  0.3522  0.1082  0.2782
 7152SOL    HW122355   6.836   6.110   6.362  0.3827  0.9421  0.1954
 7152SOL    HW222356   6.704   6.203   6.338 -0.5693 -0.7297 -1.2584
 7153SOL     OW22357   3.962   6.470   6.964  0.7407  0.2192  0.0729
 7153SOL    HW122358   3.977   6.386   7.017  2.0661  0.1709 -0.3511
 7153SOL    HW222359   3.939   6.446   6.870 -0.5365  0.3260  0.3384
 7154SOL     OW22360   4.598   5.960   2.067 -1.0305  0.6138  0.0685
 7154SOL    HW122361   4.607   5.978   1.969  0.5090  1.8578  0.4005
 7154SOL    HW222362   4.632   5.868   2.087 -0.8693  0.5474 -0.4954
 7155SOL     OW22363   2.901   1.114   1.272 -0.0092 -0.0652 -0.0936
 7155SOL    HW122364   2.946   1.024   1.273  0.1777  0.0283  0.8177
 7155SOL    HW222365   2.836   1.119   1.349  1.9438  1.5324  1.5632
 7156SOL     OW22366   6.737   4.698   6.254  0.3410  0.1067  0.0436
 7156SOL    HW122367   6.785   4.687   6.167  1.8674  1.4925  0.6650
 7156SOL    HW222368   6.799   4.677   6.329  0.1463  2.2427  0.8840
 7157SOL     OW22369   6.511   3.066   6.564 -0.4994 -0.0961 -0.2788
 7157SOL    HW122370   6.460   3.054   6.479  1.8877 -2.2354 -1.5542
 7157SOL    HW222371   6.589   3.127   6.547 -0.4979  0.1627  0.6238
 7158SOL     OW22372   3.247   6.744   2.795 -0.3300  0.0822 -0.1321
 7158SOL    HW122373   3.281   6.763   2.703  0.0769  0.3182  0.0665
 7158SOL    HW222374   3.311   6.684   2.842  0.2277  1.1672  0.5245
 7159SOL     OW22375   0.469   1.143   2.159  0.2296 -0.1491  0.4527
 7159SOL    HW122376   0.370   1.145   2.169  0.0030  1.5340 -1.4334
 7159SOL    HW222377   0.497   1.057   2.118 -0.9321  0.7636 -2.4735
 7160SOL     OW22378   5.496   6.984   0.680  0.4055  0.3484 -0.5853
 7160SOL    HW122379   5.425   6.913   0.682  2.5312 -1.9068 -0.1107
 7160SOL    HW222380   5.468   7.057   0.619 -1.0333 -1.9139 -2.8489
 7161SOL     OW22381   3.628   3.210   1.401  0.2530 -0.0935 -0.4324
 7161SOL    HW122382   3.549   3.224   1.342 -1.1438  2.0703  1.7712
 7161SOL    HW222383   3.602   3.156   1.481  1.1007  0.2744  0.1131
 7162SOL     OW22384   0.539   5.782   1.137  0.3706  0.4441 -0.1166
 7162SOL    HW122385   0.635   5.756   1.149  0.7841  1.0038 -1.9807
 7162SOL    HW222386   0.483   5.700   1.138  1.0175 -0.0121 -0.3168
 7163SOL     OW22387   6.697   4.457   6.720 -0.6463  0.2094 -0.0149
 7163SOL    HW122388   6.646   4.541   6.701 -0.9497 -0.3374 -1.7299
 7163SOL    HW222389   6.639   4.378   6.705 -0.1005 -0.3557  0.7501
 7164SOL     OW22390   1.273   5.017   0.128 -0.1302  0.3817 -0.2235
 7164SOL    HW122391   1.325   5.040   0.046  0.3675 -2.2279 -0.7473
 7164SOL    HW222392   1.217   4.936   0.110 -1.6522  1.0154  1.4054
 7165SOL     OW22393   5.448   2.345   5.897  0.5331 -0.4667 -0.4121
 7165SOL    HW122394   5.426   2.389   5.984 -0.4521  1.5629 -1.6219
 7165SOL    HW222395   5.525   2.392   5.854 -0.8477  0.4481 -1.9646
 7166SOL     OW22396   1.066   3.613   5.440 -0.6388  0.2200 -0.5994
 7166SOL    HW122397   1.114   3.532   5.407 -1.9625 -0.5607 -0.6488
 7166SOL    HW222398   0.994   3.587   5.503 -0.1982  1.4791  0.4739
 7167SOL     OW22399   6.842   3.836   6.761 -0.0442  0.1770  0.4756
 7167SOL    HW122400   6.922   3.781   6.784 -0.3612 -0.0603  1.0355
 7167SOL    HW222401   6.763   3.776   6.748 -0.1568  0.4184  0.0167
 7168SOL     OW22402   6.285   6.602   1.118 -0.5154 -0.0623 -0.2697
 7168SOL    HW122403   6.234   6.582   1.202 -0.7849 -0.8499 -0.6175
 7168SOL    HW222404   6.227   6.584   1.039 -0.9537  2.4932 -0.6394
 7169SOL     OW22405   0.192   5.602   4.700  0.2210  0.1777  0.3752
 7169SOL    HW122406   0.223   5.542   4.627  0.7645 -0.9453  1.4983
 7169SOL    HW222407   0.218   5.564   4.789  0.6716  2.1217  1.1361
 7170SOL     OW22408   5.696   3.117   2.484 -0.1475 -0.1505 -0.2974
 7170SOL    HW122409   5.789   3.100   2.452 -0.5907 -0.9606 -1.1869
 7170SOL    HW222410   5.660   3.036   2.531 -1.0038 -0.4651 -1.4538
 7171SOL     OW22411   5.345   5.266   3.170  0.5315  0.0836 -0.3147
 7171SOL    HW122412   5.353   5.237   3.266 -2.6093 -0.1210 -0.0074
 7171SOL    HW222413   5.402   5.347   3.155  0.5807  0.5324  1.9269
 7172SOL     OW22414   0.513   1.876   1.942  0.0338  0.4094  0.0507
 7172SOL    HW122415   0.544   1.807   1.876  0.0076  1.0051 -0.6020
 7172SOL    HW222416   0.499   1.834   2.031 -2.4566 -0.9871 -0.9259
 7173SOL     OW22417   4.331   5.809   3.770  0.9839  0.1760 -0.1231
 7173SOL    HW122418   4.347   5.903   3.803  0.4221  0.6132 -1.0555
 7173SOL    HW222419   4.248   5.773   3.812 -0.7862  1.4217 -2.3544
 7174SOL     OW22420   6.795   3.505   3.188  0.2805  0.1385  0.3930
 7174SOL    HW122421   6.893   3.503   3.167  0.4583  1.0853  1.0420
 7174SOL    HW222422   6.743   3.471   3.110  1.1510 -0.8496  0.2276
 7175SOL     OW22423   5.777   1.107   6.393  0.5008  0.8322  0.2195
 7175SOL    HW122424   5.691   1.156   6.381  0.9797  1.3624 -1.3567
 7175SOL    HW222425   5.778   1.061   6.482 -1.0974  1.4044  0.5583
 7176SOL     OW22426   6.241   2.739   0.259  0.7979 -0.9629  0.2843
 7176SOL    HW122427   6.172   2.732   0.331  1.2628 -2.1070  0.6454
 7176SOL    HW222428   6.259   2.835   0.238 -2.4815 -0.5732 -1.3463
 7177SOL     OW22429   2.091   5.500   2.343 -0.4178  0.2381  0.2630
 7177SOL    HW122430   2.184   5.513   2.309 -0.0645  1.4755  1.5723
 7177SOL    HW222431   2.047   5.425   2.294  0.9917  0.1428 -0.9166
 7178SOL     OW22432   0.610   5.519   4.750 -1.3614  0.1520 -0.3790
 7178SOL    HW122433   0.690   5.462   4.729 -0.8949  0.8835 -0.6204
 7178SOL    HW222434   0.570   5.554   4.666 -2.9863 -1.5671 -0.3943
 7179SOL     OW22435   6.285   5.534   5.471  0.3732  0.2773 -1.4458
 7179SOL    HW122436   6.360   5.511   5.534 -1.3487 -1.6223  0.0343
 7179SOL    HW222437   6.323   5.571   5.387  2.9769 -0.4607 -0.6906
 7180SOL     OW22438   0.627   2.877   2.089  0.0341  0.2070  0.1929
 7180SOL    HW122439   0.678   2.962   2.074 -0.3623  0.1673 -1.5296
 7180SOL    HW222440   0.544   2.877   2.033 -0.1453 -1.1833  0.4273
 7181SOL     OW22441   4.964   6.217   6.286  0.0700  0.4869  0.4655
 7181SOL    HW122442   5.022   6.277   6.231 -1.2278  0.3080 -1.1781
 7181SOL    HW222443   4.966   6.248   6.381  2.3157  0.8587  0.3556
 7182SOL     OW22444   2.946   2.475   1.426  0.2042 -0.5244 -0.3323
 7182SOL    HW122445   3.022   2.539   1.416  0.8151 -1.3127 -0.8329
 7182SOL    HW222446   2.907   2.485   1.518 -0.8818  1.8009 -0.9814
 7183SOL     OW22447   2.224   6.749   6.991 -0.0587 -0.5115 -0.8067
 7183SOL    HW122448   2.266   6.698   7.065  2.2282 -0.9360 -2.3045
 7183SOL    HW222449   2.125   6.736   6.993 -0.5172  1.8956  3.9012
 7184SOL     OW22450   6.775   1.970   2.918  0.0385 -0.0510 -0.3810
 7184SOL    HW122451   6.781   1.978   3.018 -1.6803 -0.6529 -0.1933
 7184SOL    HW222452   6.829   1.892   2.888  1.5153  0.8092 -0.0848
 7185SOL     OW22453   3.811   0.138   2.606  0.2912  0.3397  0.0453
 7185SOL    HW122454   3.730   0.079   2.607  0.0347  0.6211  3.1062
 7185SOL    HW222455   3.809   0.199   2.684  3.0289  1.0266 -0.3227
 7186SOL     OW22456   6.681   1.163   0.055 -0.2476  0.4693 -0.2299
 7186SOL    HW122457   6.638   1.094  -0.003 -1.3864  1.0237 -0.0738
 7186SOL    HW222458   6.780   1.152   0.053 -0.3704 -0.5859 -0.9288
 7187SOL     OW22459   3.548   4.054   4.837  1.0587 -0.0567 -0.4354
 7187SOL    HW122460   3.464   4.024   4.793  1.8605 -2.1940 -0.6393
 7187SOL    HW222461   3.624   4.049   4.771  2.0266 -2.0263  0.7129
 7188SOL     OW22462   4.377   5.415   6.756  0.0560 -0.6063  0.8152
 7188SOL    HW122463   4.403   5.320   6.740  0.1046 -0.4219 -0.3112
 7188SOL    HW222464   4.456   5.467   6.788  0.4169 -0.6268 -0.0206
 7189SOL     OW22465   6.638   3.526   5.198 -0.2395  0.2210 -0.1616
 7189SOL    HW122466   6.735   3.537   5.218  0.1678  0.5052 -2.0397
 7189SOL    HW222467   6.617   3.566   5.108 -2.1636  0.4448  0.3279
 7190SOL     OW22468   5.721   6.451   0.926 -0.3826 -0.4431 -0.0383
 7190SOL    HW122469   5.766   6.454   1.014  0.6018 -2.7365 -0.4067
 7190SOL    HW222470   5.622   6.445   0.939 -0.4434  1.5311  0.8102
 7191SOL     OW22471   0.577   4.389   2.994  0.1188 -0.2275 -0.1048
 7191SOL    HW122472   0.561   4.352   2.902  0.5972  0.8822 -0.6547
 7191SOL    HW222473   0.650   4.457   2.991 -0.1464  0.1395  1.0238
 7192SOL     OW22474   3.419   3.533   6.200  0.3326 -0.2721 -0.3084
 7192SOL    HW122475   3.463   3.502   6.115  0.9613  1.0394 -0.4856
 7192SOL    HW222476   3.476   3.508   6.278  0.8731  0.4707 -0.4554
 7193SOL     OW22477   0.064   2.384   1.548 -0.2990 -0.3407 -0.3715
 7193SOL    HW122478   0.123   2.308   1.519 -1.1124 -0.9442 -0.4716
 7193SOL    HW222479   0.085   2.464   1.493 -0.8440 -1.0755 -1.6905
 7194SOL     OW22480   4.007   2.785   5.273  0.2092  0.1276  1.2262
 7194SOL    HW122481   4.050   2.707   5.227 -0.0505  0.8102 -0.2206
 7194SOL    HW222482   3.948   2.751   5.347  1.6672 -0.9165  1.9709
 7195SOL     OW22483   1.183   3.849   5.331  0.0835  0.0673 -0.0116
 7195SOL    HW122484   1.118   3.774   5.349 -1.1274  1.3040  1.0059
 7195SOL    HW222485   1.276   3.818   5.352 -0.5246 -0.8132  1.5634
 7196SOL     OW22486   4.949   5.058   0.837  0.0603 -0.2413 -0.1802
 7196SOL    HW122487   4.856   5.094   0.828 -0.1140 -0.4680  0.6036
 7196SOL    HW222488   4.947   4.959   0.832  0.0782 -0.3274  1.1168
 7197SOL     OW22489   6.053   4.693   5.914  0.4392 -0.0094 -0.0021
 7197SOL    HW122490   6.049   4.609   5.968 -2.4669 -0.1709 -0.3122
 7197SOL    HW222491   6.064   4.671   5.817 -1.6730 -0.2004 -0.2487
 7198SOL     OW22492   2.245   4.734   3.800  0.0788 -0.4658  0.1708
 7198SOL    HW122493   2.206   4.690   3.881 -0.3932  0.0529  0.2312
 7198SOL    HW222494   2.335   4.694   3.780 -0.3973 -1.5338  0.1422
 7199SOL     OW22495   6.555   1.485   1.492 -0.3708 -0.6607 -0.3403
 7199SOL    HW122496   6.457   1.476   1.474 -0.4264  0.9031 -0.9311
 7199SOL    HW222497   6.591   1.565   1.444  1.0065 -0.6617  0.6322
 7200SOL     OW22498   6.175   4.977   6.645 -0.3717  0.1726  0.0477
 7200SOL    HW122499   6.101   4.939   6.701 -2.3170  3.2627 -0.1454
 7200SOL    HW222500   6.261   4.970   6.695 -1.3732 -0.5731  1.7795
 7201SOL     OW22501   3.393   5.546   4.449 -0.2007  0.5840  0.2637
 7201SOL    HW122502   3.370   5.540   4.546 -1.2996  0.0797 -0.0115
 7201SOL    HW222503   3.321   5.598   4.401  0.9704  1.9505 -0.0872
 7202SOL     OW22504   4.846   0.166   5.139 -0.5779 -0.0347  0.5676
 7202SOL    HW122505   4.774   0.233   5.157 -1.0775 -0.4162  0.0273
 7202SOL    HW222506   4.804   0.076   5.129  0.1057 -0.4716  1.4878
 7203SOL     OW22507   0.965   3.541   1.765 -0.3097  0.0558  0.0741
 7203SOL    HW122508   1.004   3.449   1.760  1.0044  0.6384 -1.3499
 7203SOL    HW222509   0.869   3.539   1.738 -0.1378 -0.8166 -0.4883
 7204SOL     OW22510   5.893   6.030   4.477 -0.2201 -0.1170 -0.2623
 7204SOL    HW122511   5.959   5.963   4.442  0.6743  1.9405 -2.8075
 7204SOL    HW222512   5.920   6.122   4.448 -3.2529  1.0127  0.1467
 7205SOL     OW22513   2.233   1.493   2.405 -0.1787  0.1696  0.0571
 7205SOL    HW122514   2.161   1.545   2.450 -1.2198 -1.7149  0.7001
 7205SOL    HW222515   2.226   1.505   2.306 -1.9453 -0.6038  0.0465
 7206SOL     OW22516   1.485   1.548   6.661  0.0164  0.5044  0.3893
 7206SOL    HW122517   1.462   1.455   6.691  1.5020 -0.7272 -1.9226
 7206SOL    HW222518   1.405   1.589   6.618  0.1386 -1.0900 -1.5511
 7207SOL     OW22519   1.907   0.977   4.050  0.3113 -0.7052  0.1797
 7207SOL    HW122520   1.837   1.026   3.998 -0.7233 -1.3931  0.8763
 7207SOL    HW222521   1.866   0.897   4.093  1.5189 -1.0697  0.6996
 7208SOL     OW22522   3.386   6.938   3.709  0.0748 -0.3085  0.2397
 7208SOL    HW122523   3.425   6.924   3.800  1.2746  2.5502  0.2646
 7208SOL    HW222524   3.288   6.957   3.717 -0.4942 -2.9758  0.5835
 7209SOL     OW22525   5.979   1.793   1.228 -0.1040  0.2567 -0.3169
 7209SOL    HW122526   6.075   1.791   1.258 -0.2211 -1.5148  0.0209
 7209SOL    HW222527   5.975   1.783   1.128  0.0068 -2.0635 -0.1211
 7210SOL     OW22528   2.684   2.327   3.974  0.1637 -0.4153  0.5311
 7210SOL    HW122529   2.651   2.414   3.938 -0.2843 -1.1736 -0.9562
 7210SOL    HW222530   2.741   2.345   4.055  1.1652  1.3713 -0.4797
 7211SOL     OW22531   4.495   5.824   5.232 -0.3487 -0.2330 -0.1185
 7211SOL    HW122532   4.467   5.730   5.211  0.0464 -0.4503  0.2981
 7211SOL    HW222533   4.416   5.878   5.259 -0.6671 -0.2928 -0.9064
 7212SOL     OW22534   0.746   0.041   3.598  0.0938  0.2542 -0.0940
 7212SOL    HW122535   0.684   0.011   3.525  1.2761 -3.1134  0.1089
 7212SOL    HW222536   0.818   0.099   3.560  1.2244 -2.1749 -1.9077
 7213SOL     OW22537   5.434   1.177   0.376  0.4655 -0.4954  0.6234
 7213SOL    HW122538   5.449   1.177   0.475  0.5357  2.0689  0.6778
 7213SOL    HW222539   5.349   1.226   0.356  0.4259 -1.0365 -0.6035
 7214SOL     OW22540   6.393   1.450   5.604  0.1786  0.2173 -0.8833
 7214SOL    HW122541   6.441   1.381   5.550 -0.1208  1.5577 -2.9867
 7214SOL    HW222542   6.299   1.420   5.620  0.5364 -0.6113 -0.2517
 7215SOL     OW22543   0.659   0.807   2.898  0.0990  0.5410  0.0007
 7215SOL    HW122544   0.713   0.886   2.928 -1.6046  1.1891  1.5191
 7215SOL    HW222545   0.606   0.771   2.975 -0.8277 -0.7313 -1.1781
 7216SOL     OW22546   6.395   0.432   2.940 -0.2156 -0.2937 -0.1610
 7216SOL    HW122547   6.398   0.436   2.840  0.5826 -0.9231 -0.1748
 7216SOL    HW222548   6.488   0.423   2.976 -0.3676  1.2472  0.7125
 7217SOL     OW22549   1.071   4.693   3.728  0.1175 -0.3466 -0.6433
 7217SOL    HW122550   1.141   4.644   3.780  1.0268  0.8928 -0.6605
 7217SOL    HW222551   1.086   4.679   3.630  1.2309  1.0381 -0.7018
 7218SOL     OW22552   6.120   3.452   6.166 -0.0779  0.0111 -0.2792
 7218SOL    HW122553   6.064   3.416   6.241  0.6139  2.6599  1.6433
 7218SOL    HW222554   6.111   3.392   6.086 -2.2175 -1.9806  1.3185
 7219SOL     OW22555   2.987   5.029   0.500 -0.2907  0.3514  0.3373
 7219SOL    HW122556   3.002   4.983   0.412 -1.0797 -0.5973  0.6804
 7219SOL    HW222557   2.889   5.040   0.515 -0.1936 -0.1906  1.4458
 7220SOL     OW22558   1.548   3.523   3.107  0.1403  0.3649 -0.2067
 7220SOL    HW122559   1.540   3.451   3.176 -1.0344 -0.6927 -1.3893
 7220SOL    HW222560   1.459   3.566   3.093  0.6755  1.5764 -0.0477
 7221SOL     OW22561   5.807   4.563   3.132  0.1090 -0.2355  0.0799
 7221SOL    HW122562   5.726   4.551   3.189  1.5021  1.5219  2.6074
 7221SOL    HW222563   5.835   4.474   3.096 -2.0259 -1.0989  0.3492
 7222SOL     OW22564   6.854   4.682   3.050  0.2380  0.1332 -0.0898
 7222SOL    HW122565   6.872   4.590   3.083 -0.8683  0.0310  0.2728
 7222SOL    HW222566   6.911   4.701   2.971  1.4261 -0.3797  0.6131
 7223SOL     OW22567   6.931   6.445   0.592 -0.4589 -0.3561  0.3301
 7223SOL    HW122568   6.941   6.526   0.650 -2.7336  0.3258 -0.1545
 7223SOL    HW222569   7.021   6.403   0.578  0.5932  1.3431  1.6255
 7224SOL     OW22570   6.923   1.507   3.076  0.0209 -0.0522 -0.6491
 7224SOL    HW122571   6.872   1.498   3.161  1.4033  0.4414  0.2568
 7224SOL    HW222572   6.884   1.446   3.007 -0.9031 -0.7077  0.4217
 7225SOL     OW22573   6.975   4.979   0.506  0.6325 -0.1651  0.1957
 7225SOL    HW122574   7.037   5.058   0.516  0.3117  0.3254 -1.3891
 7225SOL    HW222575   6.902   5.003   0.443  0.4178 -1.6954 -0.1526
 7226SOL     OW22576   6.935   5.783   0.848 -0.0649 -0.8103 -0.5620
 7226SOL    HW122577   6.992   5.743   0.920  0.6789 -1.0412 -1.2645
 7226SOL    HW222578   6.839   5.778   0.876  0.2525 -0.2023  0.7437
 7227SOL     OW22579   2.421   0.369   6.432 -0.1563  0.1726 -0.4979
 7227SOL    HW122580   2.520   0.358   6.435 -0.1981 -0.9350 -1.8219
 7227SOL    HW222581   2.378   0.298   6.487 -0.2349 -0.1322 -0.9490
 7228SOL     OW22582   0.532   4.924   1.884 -0.1068 -0.0716  0.1466
 7228SOL    HW122583   0.453   4.903   1.825  0.4683 -0.9492 -0.3380
 7228SOL    HW222584   0.505   4.990   1.953 -1.2256 -0.2138 -0.1306
 7229SOL     OW22585   5.712   0.465   4.692  0.2778 -0.2640  0.1287
 7229SOL    HW122586   5.721   0.564   4.689 -0.4651 -0.1322  1.3605
 7229SOL    HW222587   5.623   0.441   4.731 -0.2949 -1.4330 -1.7781
 7230SOL     OW22588   2.547   3.451   6.118 -0.2647  0.3571 -0.6791
 7230SOL    HW122589   2.587   3.377   6.064 -2.5277 -3.4163  2.2809
 7230SOL    HW222590   2.448   3.454   6.103 -1.0149 -0.9421  3.0130
 7231SOL     OW22591   2.707   0.622   4.757  0.0399 -0.6587 -0.2482
 7231SOL    HW122592   2.679   0.533   4.721  0.4793 -0.3889 -1.2982
 7231SOL    HW222593   2.721   0.686   4.681 -0.3347  0.3332  0.4933
 7232SOL     OW22594   4.294   4.649   3.914  0.4200  0.2379 -0.4171
 7232SOL    HW122595   4.354   4.569   3.911  1.3235  0.8054  1.0375
 7232SOL    HW222596   4.349   4.732   3.904 -0.5094  0.7173 -1.9654
 7233SOL     OW22597   1.052   2.488   5.401  0.7139 -0.5697 -0.3542
 7233SOL    HW122598   0.970   2.448   5.441  0.3244 -2.4141 -2.7336
 7233SOL    HW222599   1.027   2.542   5.321  1.7416 -0.6213 -0.7336
 7234SOL     OW22600   5.643   5.847   4.436  0.0375 -0.0880  0.0546
 7234SOL    HW122601   5.627   5.775   4.504 -1.6737 -0.2804 -0.5173
 7234SOL    HW222602   5.725   5.899   4.462  2.1034 -2.9935 -0.2066
 7235SOL     OW22603   5.679   0.891   0.099 -0.3198 -0.6655  0.7920
 7235SOL    HW122604   5.700   0.870   0.194 -0.8324 -0.6947  0.9005
 7235SOL    HW222605   5.760   0.873   0.042  0.2182  0.0225  1.3115
 7236SOL     OW22606   6.899   4.505   3.341  0.4116 -0.1219  0.2750
 7236SOL    HW122607   6.856   4.420   3.308  0.9036 -0.9480  1.6643
 7236SOL    HW222608   6.830   4.560   3.388  0.4774 -0.6420  1.0008
 7237SOL     OW22609   4.735   3.042   6.533 -0.0492  0.7549 -0.0730
 7237SOL    HW122610   4.717   2.952   6.574  0.5259  0.7319  0.1388
 7237SOL    HW222611   4.662   3.064   6.468  0.2338 -0.2410 -0.7523
 7238SOL     OW22612   3.920   3.423   0.279  0.3262 -0.7878 -0.2845
 7238SOL    HW122613   4.019   3.421   0.292  0.3350 -0.2319 -0.2134
 7238SOL    HW222614   3.899   3.418   0.181  0.4045 -1.4026 -0.2693
 7239SOL     OW22615   5.188   4.506   3.087 -0.2746  0.0602 -0.1483
 7239SOL    HW122616   5.268   4.471   3.136 -0.9237  1.4067  1.9629
 7239SOL    HW222617   5.198   4.605   3.074 -1.2752  0.1151 -0.5331
 7240SOL     OW22618   0.849   2.143   2.648  0.6850  0.2600  0.7041
 7240SOL    HW122619   0.838   2.182   2.739 -0.5058 -0.4210  0.8698
 7240SOL    HW222620   0.861   2.044   2.655 -1.2454 -0.0645  0.0725
 7241SOL     OW22621   1.284   5.806   2.322 -0.1563  0.7812 -0.1012
 7241SOL    HW122622   1.229   5.749   2.262  3.0203 -3.2599  0.3869
 7241SOL    HW222623   1.358   5.848   2.270  2.1137 -2.0714  0.5686
 7242SOL     OW22624   0.339   3.377   5.656  0.5142  0.0879  0.5113
 7242SOL    HW122625   0.375   3.390   5.564 -0.0471  0.6629  0.3634
 7242SOL    HW222626   0.255   3.323   5.652 -0.9929  2.3042  0.3601
 7243SOL     OW22627   0.577   5.351   0.262 -0.0688 -0.0774  0.4319
 7243SOL    HW122628   0.481   5.365   0.236  0.5018  1.3220 -1.0711
 7243SOL    HW222629   0.592   5.254   0.282 -1.3940 -0.6552 -1.1400
 7244SOL     OW22630   0.586   5.458   1.800 -0.1521  0.6479 -0.5217
 7244SOL    HW122631   0.496   5.427   1.769 -0.5802  0.5227  0.7781
 7244SOL    HW222632   0.656   5.395   1.766 -0.4383  1.1943 -2.2294
 7245SOL     OW22633   3.486   1.136   1.455  0.0007 -0.2867 -0.0066
 7245SOL    HW122634   3.522   1.166   1.544  0.0435 -0.3630  0.0015
 7245SOL    HW222635   3.388   1.117   1.464 -0.4799  1.7001 -0.4484
 7246SOL     OW22636   6.496   0.214   6.245 -0.7655 -0.1756  0.8375
 7246SOL    HW122637   6.505   0.286   6.175 -3.5572 -0.7932 -0.3067
 7246SOL    HW222638   6.584   0.170   6.259 -0.1871 -0.5369 -2.9370
 7247SOL     OW22639   4.116   3.358   5.178  0.3334  0.3339  0.9342
 7247SOL    HW122640   4.070   3.390   5.261 -0.5253  2.8576 -0.4122
 7247SOL    HW222641   4.047   3.333   5.109  0.9636  1.2183 -0.0474
 7248SOL     OW22642   2.859   1.603   4.877  0.3524  0.0725  0.3463
 7248SOL    HW122643   2.790   1.534   4.856 -1.3141  1.2684  1.6163
 7248SOL    HW222644   2.947   1.576   4.837 -0.3576 -2.4727  0.3496
 7249SOL     OW22645   2.709   4.705   3.646  0.4455  0.0793 -0.1312
 7249SOL    HW122646   2.797   4.750   3.631  0.2946 -0.2496 -2.2872
 7249SOL    HW222647   2.648   4.767   3.696  1.6164  0.6114  0.6810
 7250SOL     OW22648   3.853   5.592   5.381 -0.0513 -0.3050  0.0018
 7250SOL    HW122649   3.830   5.632   5.293  0.2197  1.6338  0.7707
 7250SOL    HW222650   3.924   5.523   5.369  0.1436  0.1057 -1.2686
 7251SOL     OW22651   1.306   5.832   4.008  0.2156  0.5869 -0.1982
 7251SOL    HW122652   1.233   5.823   4.076 -0.5458  0.3761 -1.0189
 7251SOL    HW222653   1.316   5.929   3.982 -2.0182  0.3406 -2.4046
 7252SOL     OW22654   2.504   3.695   1.264  0.0545  0.1584  0.0216
 7252SOL    HW122655   2.517   3.793   1.273 -2.3900  0.8468 -2.5851
 7252SOL    HW222656   2.590   3.652   1.237  0.9655  1.6441  0.4164
 7253SOL     OW22657   1.610   4.245   6.354 -0.2248 -1.1023  0.1751
 7253SOL    HW122658   1.523   4.292   6.340 -0.0582 -0.6724  0.5593
 7253SOL    HW222659   1.645   4.213   6.266  0.2124  0.4751 -0.2649
 7254SOL     OW22660   1.012   3.911   6.585  0.0272  0.2493 -0.1931
 7254SOL    HW122661   0.913   3.919   6.581  0.0720  1.9921  1.1723
 7254SOL    HW222662   1.039   3.818   6.560 -2.0219 -0.5992  0.5685
 7255SOL     OW22663   5.351   3.338   0.510  0.2685 -0.2286  0.0940
 7255SOL    HW122664   5.402   3.261   0.470  2.2465  0.5273  1.0505
 7255SOL    HW222665   5.279   3.302   0.569  0.3238 -1.3455 -0.4884
 7256SOL     OW22666   4.313   0.004   3.487 -0.2383 -0.1998 -0.0911
 7256SOL    HW122667   4.272   0.082   3.438  0.3229  0.0632 -0.1476
 7256SOL    HW222668   4.362   0.037   3.567 -1.0209 -0.6179  0.5828
 7257SOL     OW22669   2.833   0.946   5.018  0.4555  0.3923  0.1110
 7257SOL    HW122670   2.869   1.015   5.081  0.7420  0.7424 -0.4254
 7257SOL    HW222671   2.842   0.979   4.924 -2.2256  0.9312 -0.0245
 7258SOL     OW22672   6.379   3.782   2.239 -0.6574  0.0490  1.3497
 7258SOL    HW122673   6.380   3.858   2.174 -3.3529 -0.8668  0.1306
 7258SOL    HW222674   6.320   3.806   2.317  0.2147 -0.0083  2.0495
 7259SOL     OW22675   0.383   3.126   3.269  0.3513 -0.7867  0.0396
 7259SOL    HW122676   0.406   3.201   3.207 -0.2020  2.5631  3.5001
 7259SOL    HW222677   0.467   3.085   3.304  0.7840  0.2793  0.2973
 7260SOL     OW22678   4.273   2.993   0.899 -0.3350  0.4673  0.3166
 7260SOL    HW122679   4.283   3.041   0.812 -0.7702  0.7941  0.4433
 7260SOL    HW222680   4.325   3.041   0.970  1.8376 -0.9817 -0.1716
 7261SOL     OW22681   6.381   5.633   6.940  0.1476  0.3205 -0.4556
 7261SOL    HW122682   6.361   5.658   6.846 -0.2003  1.5395 -0.0847
 7261SOL    HW222683   6.311   5.673   7.000  1.5747  1.4419  0.5203
 7262SOL     OW22684   3.158   5.687   6.217 -0.0275  0.1479 -0.2685
 7262SOL    HW122685   3.097   5.648   6.149 -0.4447 -0.5917  0.5201
 7262SOL    HW222686   3.231   5.622   6.238  0.9753  0.9666 -1.1019
 7263SOL     OW22687   0.637   5.258   3.302  0.1108 -0.2669 -0.1507
 7263SOL    HW122688   0.650   5.166   3.266 -2.4203 -0.5374 -0.5526
 7263SOL    HW222689   0.560   5.258   3.366  1.2158  1.2387  1.2694
 7264SOL     OW22690   5.271   2.904   2.372  0.2359  0.1715  0.3571
 7264SOL    HW122691   5.218   2.827   2.407  0.3267 -0.3871 -0.6974
 7264SOL    HW222692   5.215   2.958   2.309  1.1111 -0.8409 -1.3297
 7265SOL     OW22693   2.833   5.779   4.857 -0.8597  0.4279  0.0517
 7265SOL    HW122694   2.791   5.699   4.814 -0.8477  0.4491  0.0004
 7265SOL    HW222695   2.774   5.859   4.845 -1.9668 -0.0397  2.0515
 7266SOL     OW22696   0.903   1.773   4.241  0.1068 -0.3499 -0.4434
 7266SOL    HW122697   0.869   1.773   4.147  2.6762 -0.8123 -1.4623
 7266SOL    HW222698   0.983   1.833   4.247  0.9318 -1.5349  1.0452
 7267SOL     OW22699   0.698   3.666   5.992  0.1041 -0.3091  0.2528
 7267SOL    HW122700   0.668   3.596   6.056 -0.4747  0.5816  0.9788
 7267SOL    HW222701   0.699   3.755   6.037  1.9281  0.0094 -0.3197
 7268SOL     OW22702   5.980   0.082   4.299 -0.2885 -0.6934  0.3831
 7268SOL    HW122703   6.062   0.037   4.335  0.2826  0.0570  0.0542
 7268SOL    HW222704   5.955   0.158   4.360  0.6492  0.5513 -0.7042
 7269SOL     OW22705   2.506   5.365   4.984 -0.4645 -0.3150  0.6554
 7269SOL    HW122706   2.573   5.291   4.989  0.3056  0.1080 -1.8493
 7269SOL    HW222707   2.413   5.327   4.983 -0.0682 -1.3177 -0.9605
 7270SOL     OW22708   6.411   2.103   4.033 -0.0912  0.2407 -0.2379
 7270SOL    HW122709   6.381   2.064   4.120  0.2200  1.1340  0.2797
 7270SOL    HW222710   6.501   2.145   4.045  0.9757 -1.5304 -1.5181
 7271SOL     OW22711   6.911   0.409   2.600  0.7953 -0.4083  0.0460
 7271SOL    HW122712   6.991   0.469   2.592  0.8401 -0.5501 -0.6329
 7271SOL    HW222713   6.920   0.352   2.682  1.2965 -0.2859  0.0794
 7272SOL     OW22714   4.916   2.974   0.767 -0.4808  0.1974 -0.1969
 7272SOL    HW122715   4.879   2.906   0.703  0.1714  1.0848 -1.5558
 7272SOL    HW222716   4.841   3.028   0.805 -1.0820 -1.6100  1.3702
 7273SOL     OW22717   0.027   1.798   5.085 -0.2134  0.0655 -0.2013
 7273SOL    HW122718   0.063   1.726   5.144 -1.1531  0.5757  1.0320
 7273SOL    HW222719  -0.068   1.778   5.063  0.3921 -0.6350 -2.4166
 7274SOL     OW22720   0.045   0.854   6.584 -0.4832 -0.5063  0.2215
 7274SOL    HW122721   0.085   0.914   6.514  0.6806 -0.5250  0.8463
 7274SOL    HW222722   0.032   0.906   6.669  2.0456 -1.4242  1.2925
 7275SOL     OW22723   0.422   5.357   3.041  0.1026 -0.6106  0.0601
 7275SOL    HW122724   0.335   5.398   3.068  0.7973  0.6785  0.3919
 7275SOL    HW222725   0.469   5.417   2.977  0.5279 -1.5350 -0.5127
 7276SOL     OW22726   4.991   5.945   3.179 -0.1612 -0.2455 -0.4452
 7276SOL    HW122727   5.082   5.985   3.189 -0.0782 -0.5071 -0.1077
 7276SOL    HW222728   4.931   5.982   3.250 -0.3369 -0.0269 -0.7053
 7277SOL     OW22729   6.090   2.036   4.930 -0.0068  0.7893  0.3650
 7277SOL    HW122730   6.060   2.131   4.931  1.2410  1.2004  1.7754
 7277SOL    HW222731   6.169   2.024   4.991  0.3155 -1.0067 -0.3185
 7278SOL     OW22732   4.437   4.184   1.443  0.2529 -0.0821 -0.5010
 7278SOL    HW122733   4.407   4.143   1.529 -0.6651 -0.7330 -1.1233
 7278SOL    HW222734   4.463   4.280   1.459 -1.3290  0.2511  0.2287
 7279SOL     OW22735   4.662   6.393   6.785  0.1831  0.0436 -0.2269
 7279SOL    HW122736   4.596   6.386   6.710 -0.1878  1.4715 -0.0407
 7279SOL    HW222737   4.713   6.478   6.777  0.7229 -0.1797  0.6907
 7280SOL     OW22738   5.244   4.907   4.816 -0.4509  0.3779 -0.3391
 7280SOL    HW122739   5.306   4.901   4.894 -0.2038 -1.2330 -0.6190
 7280SOL    HW222740   5.151   4.887   4.845 -0.9317  2.9169  0.1047
 7281SOL     OW22741   3.486   6.909   6.381 -0.7235  0.2414 -0.5044
 7281SOL    HW122742   3.423   6.983   6.358 -1.4055 -0.5438 -1.2488
 7281SOL    HW222743   3.434   6.829   6.411  0.0213  0.1774  0.6798
 7282SOL     OW22744   5.124   6.238   2.860  0.2851  0.0221  0.1640
 7282SOL    HW122745   5.075   6.158   2.893 -0.9017  0.7479  0.2264
 7282SOL    HW222746   5.161   6.220   2.769 -0.4958 -0.3967 -0.0790
 7283SOL     OW22747   1.948   2.081   3.713  0.1582  0.4569 -0.0693
 7283SOL    HW122748   1.982   1.998   3.669  0.4356  1.0332 -0.9734
 7283SOL    HW222749   2.019   2.120   3.771  0.2249  0.3774 -0.0972
 7284SOL     OW22750   6.102   2.544   5.543  0.1001  0.0559 -0.1674
 7284SOL    HW122751   6.063   2.595   5.619  0.8349 -1.1656  1.0588
 7284SOL    HW222752   6.195   2.576   5.525 -0.1371  0.4710 -0.6991
 7285SOL     OW22753   4.901   6.489   1.647  0.6319 -0.0508 -0.2368
 7285SOL    HW122754   4.892   6.401   1.602  0.0345 -0.2887  0.3240
 7285SOL    HW222755   4.980   6.489   1.707  0.2018 -0.4737  0.3406
 7286SOL     OW22756   0.667   4.244   0.294  0.0377  0.6844  0.1431
 7286SOL    HW122757   0.633   4.151   0.306  0.8234  0.2932 -0.5738
 7286SOL    HW222758   0.687   4.283   0.384 -0.0064  0.0524  0.4369
 7287SOL     OW22759   4.205   1.903   0.577  0.0270 -0.2906  0.4338
 7287SOL    HW122760   4.227   1.807   0.563  0.8519 -0.0274 -0.1699
 7287SOL    HW222761   4.290   1.956   0.579 -0.4293  0.4444  0.6148
 7288SOL     OW22762   3.324   0.310   6.898 -0.2424 -0.0244 -0.3397
 7288SOL    HW122763   3.325   0.320   6.998  0.2548  2.6290 -0.5472
 7288SOL    HW222764   3.238   0.345   6.862  0.3896  0.9344 -0.9625
 7289SOL     OW22765   4.445   1.185   2.375  0.4142  0.7499 -0.2125
 7289SOL    HW122766   4.525   1.205   2.318  0.7758  2.0258  0.6682
 7289SOL    HW222767   4.471   1.197   2.472 -0.3241 -0.7949  0.1919
 7290SOL     OW22768   2.663   5.584   5.320 -0.1144 -0.8986  0.1889
 7290SOL    HW122769   2.592   5.517   5.341  0.0843 -1.6281 -1.3475
 7290SOL    HW222770   2.628   5.676   5.340 -2.0874 -1.1036 -1.8050
 7291SOL     OW22771   3.063   4.930   2.801  0.3910 -0.1560  0.3567
 7291SOL    HW122772   3.087   5.025   2.780  1.1450 -0.6683 -1.2415
 7291SOL    HW222773   3.032   4.924   2.896  2.1981  1.3506  1.0967
 7292SOL     OW22774   5.176   6.114   6.681  0.3136 -0.3711 -0.9236
 7292SOL    HW122775   5.101   6.167   6.641 -2.0814 -0.6993  2.6406
 7292SOL    HW222776   5.203   6.041   6.619 -1.5679  0.4085 -2.7690
 7293SOL     OW22777   1.824   0.003   5.078  0.1579 -0.4260  0.2522
 7293SOL    HW122778   1.793   0.022   5.171 -2.3568  0.3677 -0.6634
 7293SOL    HW222779   1.869   0.084   5.040 -2.9134  0.9884 -0.6975
 7294SOL     OW22780   5.789   4.824   6.934  0.0678 -0.3226 -0.3976
 7294SOL    HW122781   5.816   4.752   6.869 -0.2549 -0.7610 -0.0555
 7294SOL    HW222782   5.727   4.785   7.002 -0.4469  0.3772 -0.4555
 7295SOL     OW22783   4.517   5.342   1.015 -0.0970 -0.1688 -0.8578
 7295SOL    HW122784   4.546   5.308   1.105  2.2372  0.4085 -1.3268
 7295SOL    HW222785   4.458   5.422   1.026  0.2163 -0.0694  0.1570
 7296SOL     OW22786   5.076   6.865   0.343  0.3370  0.1729  0.0430
 7296SOL    HW122787   5.054   6.959   0.320  0.1961  0.1815  0.2123
 7296SOL    HW222788   5.056   6.805   0.265  1.7841  0.4647 -0.5965
 7297SOL     OW22789   4.952   0.290   1.215 -0.4491 -0.4833 -0.0270
 7297SOL    HW122790   4.986   0.381   1.191 -2.4476 -0.2293 -2.3248
 7297SOL    HW222791   5.021   0.241   1.268  1.9965  1.1820 -1.4870
 7298SOL     OW22792   6.904   2.139   4.025  0.1578 -0.1956 -0.1453
 7298SOL    HW122793   6.874   2.108   3.935 -2.5180  0.7436  0.3256
 7298SOL    HW222794   6.959   2.222   4.015 -1.1593  0.6287 -0.9111
 7299SOL     OW22795   6.865   2.722   0.467  0.1172 -0.0565  0.0827
 7299SOL    HW122796   6.801   2.798   0.478 -1.2559 -1.4133  2.2019
 7299SOL    HW222797   6.934   2.725   0.539 -0.9091 -1.6297  1.2089
 7300SOL     OW22798   4.111   4.907   0.621  0.1397 -0.3664  0.2595
 7300SOL    HW122799   4.099   4.949   0.532  0.2702 -0.3946  0.2280
 7300SOL    HW222800   4.093   4.809   0.615  0.0971 -0.3597  0.2757
 7301SOL     OW22801   5.843   0.740   6.168  0.0249 -0.4400  0.2212
 7301SOL    HW122802   5.885   0.651   6.184  0.5553 -0.4746 -1.2065
 7301SOL    HW222803   5.898   0.811   6.212  1.1448 -0.5734 -0.8849
 7302SOL     OW22804   1.227   2.255   0.141  0.5946  0.2173 -0.1857
 7302SOL    HW122805   1.242   2.158   0.161  1.8898  0.8626  2.4522
 7302SOL    HW222806   1.224   2.307   0.227 -1.1094  2.4153 -1.4666
 7303SOL     OW22807   5.313   0.639   0.348 -0.0169  0.1387  0.4246
 7303SOL    HW122808   5.333   0.736   0.362 -1.0347  0.4812 -0.3215
 7303SOL    HW222809   5.383   0.598   0.291 -0.5096  0.8973 -0.7679
 7304SOL     OW22810   3.220   3.730   4.023  0.2874  0.1299 -0.5315
 7304SOL    HW122811   3.289   3.799   4.045 -0.1865  0.4412  0.0261
 7304SOL    HW222812   3.251   3.675   3.946 -0.0125  2.0109 -2.0511
 7305SOL     OW22813   5.524   1.541   6.234 -0.2906  0.4791  0.2923
 7305SOL    HW122814   5.580   1.493   6.302 -0.4317  2.1203  1.6605
 7305SOL    HW222815   5.430   1.508   6.239 -0.0493 -0.2521  0.0494
 7306SOL     OW22816   4.467   3.846   1.397  0.7994  0.1764 -0.5585
 7306SOL    HW122817   4.439   3.853   1.301 -1.5552  0.0306  0.0462
 7306SOL    HW222818   4.413   3.774   1.441  0.0494  1.8509  1.4284
 7307SOL     OW22819   4.192   0.716   2.364 -0.0502 -0.1933  0.4052
 7307SOL    HW122820   4.260   0.744   2.431 -0.3860  0.8687  0.3268
 7307SOL    HW222821   4.238   0.685   2.281  0.6308  5.2990 -1.7497
 7308SOL     OW22822   5.940   6.925   5.223 -0.0352 -0.0629 -0.2707
 7308SOL    HW122823   5.870   6.957   5.288 -0.3598 -0.1347 -0.5845
 7308SOL    HW222824   6.023   6.979   5.235 -0.1009 -0.0627  0.1941
 7309SOL     OW22825   4.287   4.157   0.588  0.3241  0.5789  0.0517
 7309SOL    HW122826   4.299   4.174   0.686  1.4145  0.8996 -0.1287
 7309SOL    HW222827   4.371   4.180   0.539  0.6609 -1.8889 -0.6746
 7310SOL     OW22828   1.930   5.141   3.133  0.0137 -0.0855 -0.3055
 7310SOL    HW122829   1.899   5.046   3.136 -0.6971  0.1460 -0.0595
 7310SOL    HW222830   1.851   5.201   3.123  0.1866  0.6417  2.1800
 7311SOL     OW22831   3.191   1.649   6.848 -0.1335 -0.3408  0.0873
 7311SOL    HW122832   3.238   1.719   6.794  0.9288 -0.4476  0.8390
 7311SOL    HW222833   3.228   1.649   6.941  0.0485 -2.0521  0.0465
 7312SOL     OW22834   0.262   2.108   4.649 -0.6450  0.1492 -0.3375
 7312SOL    HW122835   0.354   2.103   4.687 -1.6902 -1.4914  2.3198
 7312SOL    HW222836   0.235   2.018   4.615 -2.1388 -0.1620  1.4665
 7313SOL     OW22837   4.352   3.299   6.193 -0.1761  0.1636  0.1607
 7313SOL    HW122838   4.386   3.303   6.287 -0.2062  1.1509  0.1358
 7313SOL    HW222839   4.362   3.206   6.158  0.7334  0.0051  0.8068
 7314SOL     OW22840   1.323   2.760   5.079  0.2327  0.2060 -0.3042
 7314SOL    HW122841   1.419   2.789   5.079  0.1307  0.6029  0.6303
 7314SOL    HW222842   1.277   2.798   5.160 -0.1659 -1.7151  0.4229
 7315SOL     OW22843   6.394   1.490   0.466 -0.2693  0.4697 -0.2754
 7315SOL    HW122844   6.489   1.479   0.493  0.1337  2.4282 -0.7326
 7315SOL    HW222845   6.388   1.486   0.366 -0.6293  0.5424 -0.2567
 7316SOL     OW22846   3.898   3.323   2.532  0.4070 -0.0872  0.2855
 7316SOL    HW122847   3.810   3.304   2.575  0.0315  1.4343  0.2229
 7316SOL    HW222848   3.920   3.249   2.468 -1.7184  0.3998 -1.1117
 7317SOL     OW22849   1.773   1.106   3.444 -0.4048  0.9404 -0.1078
 7317SOL    HW122850   1.844   1.115   3.373  0.8046  2.7736  1.2395
 7317SOL    HW222851   1.817   1.096   3.533 -1.8912 -2.1199  0.4065
 7318SOL     OW22852   1.752   1.282   1.324 -0.2350  0.0041  0.0985
 7318SOL    HW122853   1.840   1.236   1.331 -0.0989  0.1506 -0.5384
 7318SOL    HW222854   1.726   1.320   1.413 -0.1118 -0.8582  0.5100
 7319SOL     OW22855   0.371   4.352   6.559  0.4114 -0.1153 -0.1531
 7319SOL    HW122856   0.393   4.444   6.527 -0.5818 -0.3596 -1.6016
 7319SOL    HW222857   0.396   4.344   6.656 -0.6214  2.0561  0.3579
 7320SOL     OW22858   6.377   0.748   1.896 -0.2528  0.0007 -0.3198
 7320SOL    HW122859   6.317   0.799   1.834  0.7693  0.8855 -0.6309
 7320SOL    HW222860   6.333   0.738   1.985 -0.5193  1.4271 -0.2611
 7321SOL     OW22861   4.704   1.908   2.771  0.5822  0.4323  0.1098
 7321SOL    HW122862   4.740   1.980   2.830  0.1440 -0.0937  1.0470
 7321SOL    HW222863   4.609   1.929   2.746  0.4521  0.1885  0.3878
 7322SOL     OW22864   0.657   4.405   1.579 -0.0671  0.4003 -0.0964
 7322SOL    HW122865   0.703   4.459   1.509 -0.8366 -0.1927 -1.0863
 7322SOL    HW222866   0.558   4.406   1.561 -0.1799 -0.5226  0.4434
 7323SOL     OW22867   1.258   3.683   2.025 -0.0947  0.1712  0.6369
 7323SOL    HW122868   1.319   3.747   2.072 -0.6710  1.8403 -0.7467
 7323SOL    HW222869   1.221   3.728   1.944 -0.6048 -1.9473 -0.3495
 7324SOL     OW22870   3.768   5.213   4.284  0.2826 -0.3409  0.4429
 7324SOL    HW122871   3.698   5.142   4.293 -0.4541  0.2155 -0.6633
 7324SOL    HW222872   3.734   5.297   4.327  0.0032  0.0922 -0.5833
 7325SOL     OW22873   3.340   5.958   0.646 -0.4868  0.2535 -0.1599
 7325SOL    HW122874   3.428   6.006   0.650 -0.2160 -0.3289  1.0772
 7325SOL    HW222875   3.267   6.021   0.672 -0.3418  0.5035 -0.3522
 7326SOL     OW22876   2.598   3.495   5.326 -0.2988  0.3695 -0.1267
 7326SOL    HW122877   2.526   3.431   5.353  0.7443 -0.1288  1.6274
 7326SOL    HW222878   2.679   3.481   5.384  0.3036  2.6423 -0.3327
 7327SOL     OW22879   6.340   2.674   5.485 -0.4307  0.1272 -0.1133
 7327SOL    HW122880   6.314   2.704   5.394  0.6096 -0.7267 -0.7110
 7327SOL    HW222881   6.439   2.663   5.491 -0.6563 -2.5951  0.1981
 7328SOL     OW22882   1.591   0.598   0.094  0.2476  0.1137  0.2712
 7328SOL    HW122883   1.507   0.575   0.044 -0.4513  1.5485  0.7254
 7328SOL    HW222884   1.628   0.515   0.136  0.0982 -0.8770 -1.4547
 7329SOL     OW22885   4.701   5.075   1.177  0.3518  0.3833  0.5606
 7329SOL    HW122886   4.653   5.006   1.124  1.5301  0.1951 -0.2994
 7329SOL    HW222887   4.800   5.060   1.170  0.5942  1.6042  1.1145
 7330SOL     OW22888   3.091   6.109   0.328 -0.2286  0.1743 -0.3199
 7330SOL    HW122889   3.148   6.128   0.408 -0.5598  6.1762 -1.0478
 7330SOL    HW222890   3.145   6.122   0.245 -1.5122  1.4620 -1.0035
 7331SOL     OW22891   5.555   1.107   0.663 -0.3639 -0.0826  0.4658
 7331SOL    HW122892   5.649   1.133   0.685 -0.2351 -0.3531  0.2245
 7331SOL    HW222893   5.551   1.011   0.639 -0.3115  0.4513 -1.8568
 7332SOL     OW22894   3.153   6.079   1.396  0.0510 -0.2868  0.0713
 7332SOL    HW122895   3.238   6.124   1.370 -0.2016  0.6912  0.8911
 7332SOL    HW222896   3.116   6.122   1.479 -1.8391  0.0727 -0.9115
 7333SOL     OW22897   0.104   2.525   2.915  0.1669  0.2297 -0.1580
 7333SOL    HW122898   0.188   2.472   2.913  0.1721  0.1999  0.6024
 7333SOL    HW222899   0.062   2.525   2.824  0.0047 -1.3275 -0.1085
 7334SOL     OW22900   1.707   5.290   3.040 -0.8247 -0.4667 -0.3264
 7334SOL    HW122901   1.741   5.373   3.085  2.1162 -1.6978 -0.0225
 7334SOL    HW222902   1.746   5.284   2.948 -1.9749 -0.9555 -0.8020
 7335SOL     OW22903   2.024   3.277   5.490 -0.3042 -0.2750  0.4022
 7335SOL    HW122904   2.099   3.290   5.425 -0.7566  3.7528  0.4168
 7335SOL    HW222905   2.048   3.322   5.576 -1.9783 -0.6212  1.0724
 7336SOL     OW22906   6.741   3.761   6.166 -0.1138  0.2042 -0.1715
 7336SOL    HW122907   6.724   3.859   6.181  0.5357  0.2350  0.4505
 7336SOL    HW222908   6.839   3.747   6.151 -0.0152 -0.4810  0.9682
 7337SOL     OW22909   5.393   2.742   1.909  0.4223  0.3365 -0.2265
 7337SOL    HW122910   5.296   2.728   1.927  0.6783  0.2565  1.2333
 7337SOL    HW222911   5.436   2.786   1.988  0.8530  4.0043 -2.2812
 7338SOL     OW22912   6.873   2.707   1.439 -0.1511 -0.3586  0.6632
 7338SOL    HW122913   6.864   2.613   1.407 -1.5070 -0.1379  0.3364
 7338SOL    HW222914   6.797   2.729   1.501 -0.5122  0.8749 -0.1724
 7339SOL     OW22915   0.100   5.724   3.733 -0.4233  0.2601 -0.2438
 7339SOL    HW122916   0.094   5.797   3.665 -2.5113 -1.4703 -2.0912
 7339SOL    HW222917   0.141   5.643   3.691  0.9036  0.0017  1.4555
 7340SOL     OW22918   3.012   4.338   5.728 -0.5945 -0.1244  0.2564
 7340SOL    HW122919   2.925   4.388   5.723 -0.0320  0.9414  0.9035
 7340SOL    HW222920   3.002   4.251   5.680 -1.8934  0.1626 -0.0492
 7341SOL     OW22921   4.009   2.764   0.253 -0.0137  0.6672 -0.0920
 7341SOL    HW122922   4.051   2.680   0.287 -0.4192  0.5077  0.0166
 7341SOL    HW222923   3.926   2.742   0.202 -0.6090  1.0568  0.6957
 7342SOL     OW22924   2.078   6.811   2.742  0.0296 -0.2292  0.3843
 7342SOL    HW122925   2.075   6.900   2.697 -1.3993 -0.0422  0.7839
 7342SOL    HW222926   2.129   6.819   2.828  0.1114  0.1487  0.3021
 7343SOL     OW22927   6.524   2.802   0.890 -0.2754  0.0572  0.0704
 7343SOL    HW122928   6.574   2.864   0.830  0.7449 -1.3174 -0.5686
 7343SOL    HW222929   6.516   2.842   0.981 -0.4293  1.4807 -0.5502
 7344SOL     OW22930   3.291   6.949   5.998  0.3485 -0.3696  0.1390
 7344SOL    HW122931   3.229   6.972   5.923 -0.7094 -2.4091  0.3481
 7344SOL    HW222932   3.242   6.954   6.085  1.1126  0.2276  0.5588
 7345SOL     OW22933   6.038   5.510   0.294 -0.0184 -0.1740 -0.1640
 7345SOL    HW122934   6.107   5.582   0.301 -0.3514  0.5659 -3.1848
 7345SOL    HW222935   6.073   5.425   0.334  1.4346  0.9320  1.0057
 7346SOL     OW22936   4.046   4.818   2.215  0.5239  0.3957  0.0902
 7346SOL    HW122937   3.999   4.850   2.132  0.4096 -0.6650 -0.2730
 7346SOL    HW222938   4.129   4.769   2.190  1.4042  1.5220  0.7006
 7347SOL     OW22939   6.000   5.621   6.438 -0.1154 -0.3566  0.0052
 7347SOL    HW122940   5.975   5.576   6.524 -0.3802 -0.1102  0.0610
 7347SOL    HW222941   5.991   5.720   6.449  2.1897 -0.1603  0.4411
 7348SOL     OW22942   6.623   4.521   0.975  0.6928 -0.3969  0.3245
 7348SOL    HW122943   6.668   4.606   1.003  1.0977 -1.2731  2.4560
 7348SOL    HW222944   6.552   4.543   0.908  1.4279  1.4949  0.0788
 7349SOL     OW22945   3.205   1.888   2.463 -0.2305 -0.4859 -0.2062
 7349SOL    HW122946   3.294   1.869   2.420  0.8068 -1.1787  2.1220
 7349SOL    HW222947   3.191   1.987   2.466  0.3734 -0.3715 -0.7569
 7350SOL     OW22948   4.750   0.624   5.039  0.5415 -0.0858 -0.5264
 7350SOL    HW122949   4.689   0.631   4.960  0.0166  0.2821 -0.0997
 7350SOL    HW222950   4.789   0.714   5.059 -1.6155  0.5252  1.3892
 7351SOL     OW22951   3.917   4.623   5.858  0.4224  0.7217  0.0230
 7351SOL    HW122952   3.820   4.641   5.839 -0.1086 -0.7158  1.1645
 7351SOL    HW222953   3.932   4.524   5.859  1.6952  0.9041  0.8349
 7352SOL     OW22954   5.645   2.427   2.777 -0.6216  0.5212  0.2317
 7352SOL    HW122955   5.633   2.478   2.862 -1.0135  1.4524 -0.3624
 7352SOL    HW222956   5.592   2.470   2.705  0.6253  0.4294 -0.7745
 7353SOL     OW22957   4.783   1.844   4.857 -0.1742  0.0026  0.7512
 7353SOL    HW122958   4.692   1.880   4.838 -1.4854 -2.5163  1.7830
 7353SOL    HW222959   4.836   1.841   4.772 -2.4003 -1.8517 -0.7176
 7354SOL     OW22960   2.512   1.409   1.452  0.1735 -0.8138 -0.2970
 7354SOL    HW122961   2.494   1.409   1.354 -0.9418  1.4827 -0.1393
 7354SOL    HW222962   2.514   1.314   1.485  0.2664 -1.6143 -2.4587
 7355SOL     OW22963   3.256   0.971   1.223  0.4457  0.5424 -0.1407
 7355SOL    HW122964   3.170   0.929   1.193  0.6749  1.5381 -2.4012
 7355SOL    HW222965   3.239   1.026   1.305 -0.9454  0.2689 -0.2159
 7356SOL     OW22966   3.095   5.129   6.838 -0.4773 -0.3707 -0.2340
 7356SOL    HW122967   3.167   5.173   6.785 -1.7886 -1.0903 -2.7926
 7356SOL    HW222968   3.124   5.036   6.863  0.7666  0.5042  1.7956
 7357SOL     OW22969   4.390   5.991   3.112 -0.3131  0.1280  0.5063
 7357SOL    HW122970   4.370   5.898   3.081  0.1543  0.3557 -0.5181
 7357SOL    HW222971   4.305   6.036   3.139 -0.6700 -0.2840  0.1010
 7358SOL     OW22972   4.677   5.148   3.380 -0.0968 -0.4310  0.1880
 7358SOL    HW122973   4.606   5.218   3.378  0.3577  0.0388 -1.1083
 7358SOL    HW222974   4.758   5.183   3.428 -0.0996 -0.2881  0.0893
 7359SOL     OW22975   2.827   6.322   2.366 -0.2217 -0.1668 -0.2120
 7359SOL    HW122976   2.781   6.386   2.304  0.2166  1.0117  0.6253
 7359SOL    HW222977   2.768   6.302   2.444 -0.0498 -0.1390 -0.0735
 7360SOL     OW22978   2.963   4.734   7.012  0.1013  0.0131  0.2634
 7360SOL    HW122979   2.908   4.748   7.094 -0.8264  2.1387 -0.6438
 7360SOL    HW222980   2.903   4.705   6.937  0.6671 -0.3049 -0.0699
 7361SOL     OW22981   5.858   0.343   3.874 -0.3159 -0.2710  0.2072
 7361SOL    HW122982   5.803   0.348   3.957 -0.9533  1.6333 -0.2983
 7361SOL    HW222983   5.826   0.267   3.817 -0.9174 -0.5985  0.9685
 7362SOL     OW22984   2.322   0.176   6.611  0.3441  0.7695 -0.3941
 7362SOL    HW122985   2.371   0.099   6.572  1.5494  0.8399  0.8832
 7362SOL    HW222986   2.366   0.203   6.697 -0.7067  2.1814 -0.2634
 7363SOL     OW22987   3.224   1.333   0.985 -0.5344 -0.3353 -0.2134
 7363SOL    HW122988   3.253   1.282   0.905  0.5221 -0.7403  0.4016
 7363SOL    HW222989   3.166   1.275   1.043 -0.1270 -0.5209  0.0111
 7364SOL     OW22990   6.000   5.000   1.651 -0.3653 -0.3016 -0.4437
 7364SOL    HW122991   5.929   4.994   1.580  1.0913 -1.1102 -1.9113
 7364SOL    HW222992   6.041   5.091   1.648  0.0219 -0.4907 -0.9856
 7365SOL     OW22993   5.585   5.188   4.529 -0.0435  0.2419  0.1766
 7365SOL    HW122994   5.645   5.150   4.599  0.7848  0.4811 -0.3920
 7365SOL    HW222995   5.500   5.218   4.571  0.6095  0.7617  1.1514
 7366SOL     OW22996   1.630   6.595   3.309  0.0835  0.3053 -0.0991
 7366SOL    HW122997   1.604   6.666   3.243  0.1259  0.0017 -0.4496
 7366SOL    HW222998   1.673   6.637   3.389 -2.5161  0.9645  1.0600
 7367SOL     OW22999   5.066   0.137   0.245 -0.4979  0.4145  0.0695
 7367SOL    HW123000   4.979   0.122   0.200 -0.4070  0.3938 -0.0985
 7367SOL    HW223001   5.107   0.223   0.213  0.0621 -0.1207 -0.6713
 7368SOL     OW23002   3.893   3.021   2.604 -0.5476 -0.1349 -0.0238
 7368SOL    HW123003   3.897   2.930   2.645  0.3128 -0.2266 -0.2887
 7368SOL    HW223004   3.876   3.089   2.676 -0.1622 -0.4086  0.3297
 7369SOL     OW23005   2.991   2.584   0.769  0.7201  0.4616 -0.1817
 7369SOL    HW123006   3.083   2.556   0.797  0.3935 -0.1919  0.2603
 7369SOL    HW223007   2.948   2.509   0.717 -0.1312  0.1506  0.9317
 7370SOL     OW23008   2.827   6.484   5.436 -0.3820  0.8852  0.9874
 7370SOL    HW123009   2.846   6.570   5.482 -0.3556  1.3212  0.1740
 7370SOL    HW223010   2.905   6.458   5.379 -0.9975  1.1479 -0.0056
 7371SOL     OW23011   3.636   2.083   2.961  0.6073 -1.0805 -0.3140
 7371SOL    HW123012   3.673   2.079   3.054  1.4291 -1.0448 -0.6274
 7371SOL    HW223013   3.712   2.077   2.896  0.1979  0.5244 -0.9725
 7372SOL     OW23014   3.099   2.311   5.421  0.2375  0.2847  0.0418
 7372SOL    HW123015   3.009   2.278   5.391  0.3614 -0.0518  0.0467
 7372SOL    HW223016   3.153   2.337   5.340  0.1946  0.3389  0.0303
 7373SOL     OW23017   0.178   2.024   4.008  0.0383  0.3501  0.3286
 7373SOL    HW123018   0.089   2.023   4.054 -1.1310  2.2668 -1.7030
 7373SOL    HW223019   0.164   2.020   3.909  2.1593  1.6326 -0.0773
 7374SOL     OW23020   5.939   2.928   4.880 -0.5098 -0.0024 -0.2101
 7374SOL    HW123021   5.918   2.920   4.978 -0.3668  1.3210 -0.0524
 7374SOL    HW223022   6.023   2.981   4.868 -0.2790 -0.5455 -1.0435
 7375SOL     OW23023   2.239   2.962   1.207  0.2224  0.4055 -0.2660
 7375SOL    HW123024   2.333   2.991   1.221 -0.0243  0.5816  1.2326
 7375SOL    HW223025   2.218   2.960   1.109  1.8230  0.1902 -0.6268
 7376SOL     OW23026   6.398   4.639   2.331 -0.0600 -0.2241 -0.0928
 7376SOL    HW123027   6.343   4.668   2.410 -0.0713  1.6826 -0.7559
 7376SOL    HW223028   6.489   4.680   2.337 -0.1429  0.1404 -1.1955
 7377SOL     OW23029   2.550   4.946   0.039  0.5733  0.0941 -0.5274
 7377SOL    HW123030   2.471   4.981  -0.012 -1.5297 -3.6197 -0.1765
 7377SOL    HW223031   2.586   4.866  -0.009  2.0929 -0.1822  1.0229
 7378SOL     OW23032   2.570   5.838   5.354 -0.0027  0.3355  0.3418
 7378SOL    HW123033   2.473   5.851   5.333 -0.3731 -0.3635  1.4945
 7378SOL    HW223034   2.620   5.922   5.335 -1.3380  1.6918  2.4103
 7379SOL     OW23035   4.789   2.436   2.321  0.5483  1.1390 -0.3922
 7379SOL    HW123036   4.693   2.462   2.329  0.2827  0.1579 -0.2843
 7379SOL    HW223037   4.823   2.409   2.411  0.4511 -0.0902 -0.7089
 7380SOL     OW23038   5.617   2.464   0.600 -0.0748 -0.7688 -0.2065
 7380SOL    HW123039   5.678   2.444   0.677 -0.7297 -1.3038  0.1760
 7380SOL    HW223040   5.607   2.381   0.544 -1.1596 -0.9498  0.2371
 7381SOL     OW23041   3.613   0.293   1.527  0.0337  0.0322 -0.5109
 7381SOL    HW123042   3.701   0.331   1.555  0.0198 -1.2451  1.4283
 7381SOL    HW223043   3.572   0.244   1.604 -1.6278 -0.7842 -1.8576
 7382SOL     OW23044   0.038   2.910   6.564  0.6482 -0.2391  0.4833
 7382SOL    HW123045   0.050   2.995   6.513  1.7059 -0.8391 -0.3115
 7382SOL    HW223046   0.082   2.919   6.654  0.3464  0.2136  0.5857
 7383SOL     OW23047   1.412   1.251   6.317 -0.3516 -0.0418  0.4479
 7383SOL    HW123048   1.408   1.158   6.281 -0.3798 -0.2514  0.9880
 7383SOL    HW223049   1.429   1.248   6.416 -0.4180  0.5240  0.4787
 7384SOL     OW23050   1.333   0.505   0.001 -0.3916  0.3123  0.4100
 7384SOL    HW123051   1.296   0.571   0.065  3.6493  1.9460  1.3787
 7384SOL    HW223052   1.339   0.415   0.044 -3.6424 -0.2322 -0.0720
 7385SOL     OW23053   5.422   3.129   3.402 -0.0455 -0.1836 -0.4274
 7385SOL    HW123054   5.330   3.113   3.366  0.5241  0.0795 -2.1075
 7385SOL    HW223055   5.486   3.066   3.359  0.9434  1.3057 -1.2139
 7386SOL     OW23056   4.691   2.413   1.836  0.2526 -0.2554  0.0403
 7386SOL    HW123057   4.597   2.443   1.854  0.4493  1.4388 -1.4240
 7386SOL    HW223058   4.742   2.408   1.922 -0.9234 -0.3069  0.7569
 7387SOL     OW23059   0.277   5.878   3.035  0.1278  0.0386 -0.1149
 7387SOL    HW123060   0.372   5.896   3.060  0.1589  1.6443 -1.3008
 7387SOL    HW223061   0.271   5.861   2.937 -0.7143 -0.8945  0.0853
 7388SOL     OW23062   2.623   4.651   3.384 -0.0653 -0.6371  0.0708
 7388SOL    HW123063   2.652   4.653   3.479  0.4017 -2.1084 -0.0156
 7388SOL    HW223064   2.703   4.658   3.324 -0.3579  0.3115 -0.2246
 7389SOL     OW23065   1.220   1.040   6.589  0.0318 -0.0089  0.0855
 7389SOL    HW123066   1.290   0.971   6.609  0.5285  0.4530 -0.0522
 7389SOL    HW223067   1.166   1.011   6.509 -0.5152 -0.7883  0.7225
 7390SOL     OW23068   4.701   1.360   2.856  0.0584 -0.1336  0.2692
 7390SOL    HW123069   4.645   1.406   2.788 -0.2048 -0.7202  0.0778
 7390SOL    HW223070   4.658   1.273   2.881 -0.0080  0.2045  1.4090
 7391SOL     OW23071   2.995   4.822   1.912  0.2828 -0.0613  0.9207
 7391SOL    HW123072   3.071   4.821   1.978  0.7832 -1.7585  0.3812
 7391SOL    HW223073   2.937   4.741   1.927  0.3972 -0.4748 -0.6901
 7392SOL     OW23074   2.752   6.134   1.811  0.1688 -0.0729 -0.3272
 7392SOL    HW123075   2.770   6.229   1.833 -0.8807 -0.2401  1.4413
 7392SOL    HW223076   2.804   6.075   1.872 -0.9186 -0.5983  0.1155
 7393SOL     OW23077   3.517   5.642   4.061 -0.3379  0.8508 -0.3524
 7393SOL    HW123078   3.606   5.595   4.056 -0.7424 -0.1345  0.9704
 7393SOL    HW223079   3.455   5.602   3.994 -0.5215 -0.2311  0.4180
 7394SOL     OW23080   3.508   1.905   4.852 -0.2157  0.2430  0.1590
 7394SOL    HW123081   3.574   1.888   4.925  0.3283  0.4511 -0.2815
 7394SOL    HW223082   3.440   1.972   4.884 -0.2526 -0.0159  0.6313
 7395SOL     OW23083   4.599   6.411   0.693 -0.1963  0.0687  0.2045
 7395SOL    HW123084   4.508   6.372   0.703  0.0626 -0.3026  1.1838
 7395SOL    HW223085   4.668   6.341   0.713  0.3141  0.3677 -0.4420
 7396SOL     OW23086   0.444   4.922   2.337 -0.3287  0.1014 -0.1065
 7396SOL    HW123087   0.362   4.979   2.337  0.4242  1.2338 -1.3031
 7396SOL    HW223088   0.524   4.977   2.311  0.8789 -0.9030  1.2860
 7397SOL     OW23089   5.780   4.474   4.696  0.1600  0.0148  0.2585
 7397SOL    HW123090   5.716   4.517   4.761 -0.0361  0.3063 -0.1202
 7397SOL    HW223091   5.869   4.463   4.740 -0.4624 -1.5666  1.2320
 7398SOL     OW23092   4.015   6.609   2.518 -0.1485  0.1781  0.6143
 7398SOL    HW123093   4.059   6.562   2.594  0.0665  4.3618  3.4669
 7398SOL    HW223094   4.084   6.639   2.453  0.5722  1.6127  1.9721
 7399SOL     OW23095   5.959   2.409   3.683 -0.0385  0.0158 -0.8888
 7399SOL    HW123096   6.050   2.366   3.687  0.0147  0.1029 -1.1556
 7399SOL    HW223097   5.969   2.505   3.659 -0.2017  0.0230 -0.9254
 7400SOL     OW23098   3.347   4.103   6.118 -0.2790 -0.0407  0.2444
 7400SOL    HW123099   3.276   4.036   6.138 -0.3270 -0.1303 -0.2306
 7400SOL    HW223100   3.436   4.057   6.113 -0.2277  0.0239  0.5112
 7401SOL     OW23101   4.350   1.220   3.404 -0.1138  0.2961 -0.0381
 7401SOL    HW123102   4.378   1.266   3.488 -1.0906 -0.8228  0.9379
 7401SOL    HW223103   4.309   1.286   3.341 -0.9451  0.8777  1.0916
 7402SOL     OW23104   5.025   5.355   5.880 -0.5313  0.1140  0.2605
 7402SOL    HW123105   5.032   5.269   5.931 -1.0946 -0.5916 -0.7893
 7402SOL    HW223106   5.061   5.340   5.787  1.2314  1.5732  0.6571
 7403SOL     OW23107   0.536   3.431   4.825  0.3855 -0.1093 -0.1388
 7403SOL    HW123108   0.441   3.454   4.802 -0.0320  1.2689  2.5751
 7403SOL    HW223109   0.594   3.510   4.807  0.8262 -0.5189 -0.5542
 7404SOL     OW23110   2.741   4.021   0.950 -0.2070  0.3860  0.3592
 7404SOL    HW123111   2.653   3.983   0.976 -0.7500  1.4816  0.1908
 7404SOL    HW223112   2.785   3.961   0.884 -1.2343  0.2525 -0.2254
 7405SOL     OW23113   4.041   6.244   5.011  0.7925  0.3170  0.5617
 7405SOL    HW123114   3.943   6.225   5.014  0.8776 -0.0757  1.1675
 7405SOL    HW223115   4.066   6.304   5.087  0.8387  1.3805 -0.2655
 7406SOL     OW23116   6.147   3.921   5.271  0.3534 -0.1504 -0.5702
 7406SOL    HW123117   6.218   3.854   5.249 -0.0374 -0.0042 -2.4814
 7406SOL    HW223118   6.073   3.876   5.321  2.2842 -0.0323  2.6679
 7407SOL     OW23119   1.416   0.449   2.721  0.2592  0.0249 -1.0352
 7407SOL    HW123120   1.394   0.532   2.670  0.8595  0.1200 -1.1445
 7407SOL    HW223121   1.489   0.469   2.786 -0.4867 -0.0989 -0.1373
 7408SOL     OW23122   5.441   5.198   4.865 -0.0546  0.4224  0.1605
 7408SOL    HW123123   5.384   5.265   4.912 -0.0709 -1.2503  2.7058
 7408SOL    HW223124   5.537   5.225   4.873 -0.0194 -0.0395  1.6079
 7409SOL     OW23125   5.666   3.203   1.817  0.3568  0.4715 -0.4044
 7409SOL    HW123126   5.678   3.105   1.833  0.8933  0.6151  0.1123
 7409SOL    HW223127   5.675   3.253   1.903 -0.7978  0.9045 -0.5219
 7410SOL     OW23128   6.175   1.191   0.554 -0.0945  0.2157 -0.2111
 7410SOL    HW123129   6.136   1.263   0.496 -0.4767  0.7440  0.6777
 7410SOL    HW223130   6.113   1.172   0.630 -0.7485 -2.1776 -1.2477
 7411SOL     OW23131   3.703   2.078   4.175 -0.0792  0.3233  0.2404
 7411SOL    HW123132   3.633   2.027   4.226  1.0398  0.3434  1.8596
 7411SOL    HW223133   3.782   2.094   4.234  1.4572 -0.0028 -1.6452
 7412SOL     OW23134   4.470   0.313   6.090 -0.1375 -0.4470 -0.0880
 7412SOL    HW123135   4.425   0.255   6.022 -1.4659 -0.1546  0.5247
 7412SOL    HW223136   4.404   0.342   6.159  0.8978  0.3673  0.5941
 7413SOL     OW23137   3.387   0.784   3.745 -0.7249  0.0730  0.0213
 7413SOL    HW123138   3.415   0.803   3.840  1.0034  1.3521 -0.6749
 7413SOL    HW223139   3.308   0.841   3.722 -1.2570 -0.3662  0.7407
 7414SOL     OW23140   5.135   0.742   4.648  0.0795  0.0660  0.4571
 7414SOL    HW123141   5.079   0.659   4.650  1.1938 -0.7021  1.1615
 7414SOL    HW223142   5.178   0.752   4.559 -1.7223  1.0697 -0.3452
 7415SOL     OW23143   4.286   7.004   5.119  0.3405  0.5940 -0.0343
 7415SOL    HW123144   4.201   7.000   5.172 -0.3465  1.8752 -1.0062
 7415SOL    HW223145   4.362   7.027   5.181  0.2189 -1.5491  1.0317
 7416SOL     OW23146   1.796   1.132   1.754  0.5477  0.2549 -0.8927
 7416SOL    HW123147   1.841   1.214   1.720  0.2364  0.7675 -0.0909
 7416SOL    HW223148   1.858   1.081   1.812  0.4390  0.4108 -0.6391
 7417SOL     OW23149   1.402   1.161   2.386  0.0132 -0.0691  0.3440
 7417SOL    HW123150   1.478   1.191   2.328 -0.2616 -0.8802 -0.4391
 7417SOL    HW223151   1.439   1.122   2.471  0.4053  1.5234  0.9495
 7418SOL     OW23152   0.979   4.346   5.652 -0.6039 -0.3993  0.4705
 7418SOL    HW123153   0.930   4.336   5.738 -1.6361  0.3630 -0.0167
 7418SOL    HW223154   0.955   4.433   5.609  0.8858 -0.1737  0.0222
 7419SOL     OW23155   4.902   3.476   3.882 -0.4811 -0.3729 -0.0346
 7419SOL    HW123156   4.875   3.404   3.819 -0.8709  0.8938 -1.3633
 7419SOL    HW223157   4.914   3.562   3.832  1.5663  0.1472  1.2438
 7420SOL     OW23158   0.022   4.701   1.433  0.3437  0.1241 -0.0653
 7420SOL    HW123159   0.055   4.636   1.501 -0.3522  1.2348  1.3856
 7420SOL    HW223160  -0.045   4.657   1.374  0.4446 -0.6794  0.4082
 7421SOL     OW23161   1.516   3.618   2.334 -0.1628 -0.5694 -0.2708
 7421SOL    HW123162   1.599   3.636   2.387  1.2167 -2.9516 -1.4914
 7421SOL    HW223163   1.509   3.685   2.260 -0.6252  1.0516  1.1626
 7422SOL     OW23164   1.371   4.336   2.116  0.2199  0.4558  0.5783
 7422SOL    HW123165   1.379   4.430   2.082  0.1427  0.6656  1.1307
 7422SOL    HW223166   1.325   4.280   2.048  1.6101  0.4604 -0.4186
 7423SOL     OW23167   4.216   2.165   4.872 -0.4714  0.1251  0.1187
 7423SOL    HW123168   4.203   2.250   4.923  1.7155  0.0121  0.9784
 7423SOL    HW223169   4.258   2.096   4.932  0.9171 -0.4577 -1.4533
 7424SOL     OW23170   0.513   2.600   4.483 -0.3335 -0.2435  0.6923
 7424SOL    HW123171   0.427   2.621   4.529 -0.2351  0.6563  0.4941
 7424SOL    HW223172   0.575   2.553   4.546  0.2586  2.0308  1.9118
 7425SOL     OW23173   4.491   0.074   1.353  0.1549  0.7790  0.4128
 7425SOL    HW123174   4.505   0.153   1.413  0.5538  0.8961  0.1619
 7425SOL    HW223175   4.456  -0.003   1.407 -0.3172  1.1491  0.6435
 7426SOL     OW23176   3.101   3.467   5.137  0.0677 -0.1770  0.7442
 7426SOL    HW123177   3.036   3.393   5.150  0.3982 -0.4121  1.0693
 7426SOL    HW223178   3.189   3.442   5.178  1.5592 -1.4944 -2.8033
 7427SOL     OW23179   0.562   0.465   6.832  0.5799 -0.2433 -0.0683
 7427SOL    HW123180   0.578   0.470   6.734 -1.6710  0.7606 -0.4453
 7427SOL    HW223181   0.481   0.410   6.851  0.0451  0.8570  1.0735
 7428SOL     OW23182   1.011   5.362   4.378 -0.5254 -0.3198 -0.0701
 7428SOL    HW123183   1.070   5.424   4.429 -1.9219  2.1671 -1.2917
 7428SOL    HW223184   1.066   5.292   4.334  1.1299  0.0540  1.3225
 7429SOL     OW23185   2.251   5.398   2.090  0.1389  0.1345 -0.3207
 7429SOL    HW123186   2.209   5.487   2.111 -0.5329 -0.3203  0.3193
 7429SOL    HW223187   2.349   5.403   2.111  0.6196  1.4455 -2.5687
 7430SOL     OW23188   6.562   2.753   0.361  0.2832 -0.0177  0.1329
 7430SOL    HW123189   6.520   2.675   0.315  1.4286 -1.5090  1.5047
 7430SOL    HW223190   6.632   2.792   0.301 -1.2967  0.9390 -1.1582
 7431SOL     OW23191   1.636   1.624   5.345  0.6901 -0.0566 -0.0523
 7431SOL    HW123192   1.710   1.557   5.339  1.3243  0.6067  0.2725
 7431SOL    HW223193   1.600   1.626   5.438  1.4534  0.8680  0.2348
 7432SOL     OW23194   2.329   1.117   2.881  0.2929  0.6136  0.1919
 7432SOL    HW123195   2.364   1.146   2.792 -2.8069  0.1458 -1.3232
 7432SOL    HW223196   2.266   1.185   2.916  0.4050  0.1307  1.3705
 7433SOL     OW23197   3.728   6.420   5.388  0.1960 -0.4372 -0.4104
 7433SOL    HW123198   3.682   6.333   5.406  0.6008 -0.7402 -0.8269
 7433SOL    HW223199   3.757   6.461   5.475 -1.4448  0.0875 -0.0903
 7434SOL     OW23200   4.329   5.318   2.280 -0.0970  0.2123 -0.3831
 7434SOL    HW123201   4.304   5.237   2.333 -0.5339 -0.0611 -1.0044
 7434SOL    HW223202   4.425   5.311   2.253  0.1486  0.3855  0.4214
 7435SOL     OW23203   5.756   3.424   1.429 -0.2094  0.0465 -0.2033
 7435SOL    HW123204   5.805   3.454   1.348 -0.7525 -0.0577 -0.5812
 7435SOL    HW223205   5.667   3.471   1.434  0.2092  0.7659  0.8487
 7436SOL     OW23206   4.601   3.277   6.894  0.4210 -0.2834 -0.4349
 7436SOL    HW123207   4.594   3.376   6.905  0.2680 -0.3347 -0.0723
 7436SOL    HW223208   4.618   3.234   6.982  0.2450 -0.6017 -0.5543
 7437SOL     OW23209   4.585   0.926   1.082 -0.3866 -0.3182  0.7700
 7437SOL    HW123210   4.601   0.840   1.033  1.7902 -0.4035  1.5295
 7437SOL    HW223211   4.604   1.003   1.021 -1.0396 -0.3744  0.4865
 7438SOL     OW23212   3.041   0.814   5.668  0.6203 -0.2489 -0.0120
 7438SOL    HW123213   3.058   0.734   5.726  0.2331 -0.0184  0.4243
 7438SOL    HW223214   2.943   0.821   5.650  0.6904 -0.0520 -0.3162
 7439SOL     OW23215   1.239   4.170   0.446 -0.3423  0.5266  0.1909
 7439SOL    HW123216   1.215   4.099   0.512  0.2307  0.0811 -0.0803
 7439SOL    HW223217   1.220   4.137   0.353  0.3878  0.5360  0.0342
 7440SOL     OW23218   5.311   2.077   0.885 -0.5262 -0.3740  0.3437
 7440SOL    HW123219   5.216   2.080   0.917 -0.9263 -0.7277 -0.7360
 7440SOL    HW223220   5.351   2.168   0.890 -1.8571  0.4152 -1.7723
 7441SOL     OW23221   4.418   6.182   0.426 -0.3220  0.6797  0.3028
 7441SOL    HW123222   4.402   6.280   0.414 -0.3570  0.5313 -1.0420
 7441SOL    HW223223   4.516   6.165   0.436 -0.3022  0.8453  0.3873
 7442SOL     OW23224   6.517   1.289   5.371 -0.5821 -0.5486 -0.1967
 7442SOL    HW123225   6.458   1.316   5.295 -0.6684 -1.6240 -0.5248
 7442SOL    HW223226   6.496   1.196   5.398  0.0436 -0.4745  0.5812
 7443SOL     OW23227   5.427   1.092   1.625 -0.3926  0.0451 -0.5635
 7443SOL    HW123228   5.334   1.080   1.590 -1.0179  1.0438  0.6853
 7443SOL    HW223229   5.461   1.182   1.599 -0.6560  0.5811  0.8458
 7444SOL     OW23230   0.565   6.857   0.777 -0.1079  0.4735 -0.2234
 7444SOL    HW123231   0.606   6.768   0.757  1.4697  0.6947  1.6809
 7444SOL    HW223232   0.471   6.859   0.743  0.4033 -1.2328 -1.9136
 7445SOL     OW23233   4.054   6.183   2.992 -0.5479  0.4517 -0.2579
 7445SOL    HW123234   4.113   6.231   3.057  1.2292 -0.6354 -0.9895
 7445SOL    HW223235   4.110   6.123   2.935 -2.5825 -1.9941  0.1595
 7446SOL     OW23236   6.423   6.345   1.206  0.4693 -0.0429  0.4136
 7446SOL    HW123237   6.472   6.408   1.265  0.6407  1.7224 -1.5032
 7446SOL    HW223238   6.351   6.394   1.157  0.7783 -1.2340 -1.3454
 7447SOL     OW23239   2.567   4.442   1.154 -0.0888  0.1761  0.3973
 7447SOL    HW123240   2.489   4.447   1.092  0.1615  0.1580  0.0763
 7447SOL    HW223241   2.544   4.486   1.240 -0.2865  0.6081  0.1258
 7448SOL     OW23242   5.189   5.643   1.306  0.0662  0.6429  0.1621
 7448SOL    HW123243   5.120   5.597   1.250  0.7926 -1.2265  0.7329
 7448SOL    HW223244   5.259   5.683   1.247  0.6595 -1.0296 -0.3459
 7449SOL     OW23245   6.538   2.974   6.996  0.0295 -0.2101 -0.1330
 7449SOL    HW123246   6.626   2.990   6.951 -0.1003 -0.0848 -0.3430
 7449SOL    HW223247   6.463   2.994   6.932 -0.1608  0.1996  0.2103
 7450SOL     OW23248   3.344   2.688   0.415 -0.6280  0.1146 -0.6768
 7450SOL    HW123249   3.414   2.757   0.431 -1.5128  0.8239  0.2940
 7450SOL    HW223250   3.336   2.629   0.495  0.3274 -1.3388 -1.6119
 7451SOL     OW23251   2.962   5.765   2.854 -0.1260 -0.1181  0.1589
 7451SOL    HW123252   2.981   5.858   2.886 -1.3684  0.4984 -0.8252
 7451SOL    HW223253   3.005   5.752   2.764 -1.3294  0.0923 -0.4640
 7452SOL     OW23254   0.737   6.606   0.302  0.3358  0.2036  0.6933
 7452SOL    HW123255   0.794   6.530   0.331 -1.1840 -1.1777  0.2372
 7452SOL    HW223256   0.644   6.594   0.337 -0.5928  0.4589 -1.4821
 7453SOL     OW23257   5.514   4.961   0.157 -0.5915 -0.1447  0.7743
 7453SOL    HW123258   5.428   4.943   0.109 -1.5914 -0.8083  2.7100
 7453SOL    HW223259   5.572   4.879   0.152 -0.7226 -0.2370  0.7428
 7454SOL     OW23260   3.947   1.323   2.070 -0.0677  0.4179 -0.0011
 7454SOL    HW123261   4.011   1.261   2.024 -0.6149 -1.7765  1.9850
 7454SOL    HW223262   3.907   1.386   2.003  1.5253 -0.4707 -1.8878
 7455SOL     OW23263   4.586   1.074   6.948 -0.1439  0.6506  0.2626
 7455SOL    HW123264   4.613   0.989   6.993  0.3236  0.4832 -0.3262
 7455SOL    HW223265   4.639   1.087   6.865 -0.9191  1.0123 -0.1924
 7456SOL     OW23266   4.084   1.841   5.514 -0.0690 -0.4683  0.3942
 7456SOL    HW123267   4.138   1.779   5.457 -0.4072  0.4006 -0.9345
 7456SOL    HW223268   4.045   1.913   5.456 -0.0965  0.6966  1.8059
 7457SOL     OW23269   0.863   3.336   0.459 -0.0497 -0.2463  0.0399
 7457SOL    HW123270   0.939   3.317   0.521  0.6333 -1.9752 -1.2496
 7457SOL    HW223271   0.777   3.337   0.511  0.6604  0.0398  1.2463
 7458SOL     OW23272   1.220   7.007   4.927  0.0923 -0.6012  0.3789
 7458SOL    HW123273   1.174   7.052   4.851  2.5011  0.1303 -0.7597
 7458SOL    HW223274   1.224   6.909   4.910  2.1846 -0.2732 -1.4671
 7459SOL     OW23275   6.868   0.506   3.073  0.2589  0.4699 -0.9256
 7459SOL    HW123276   6.804   0.429   3.085  0.2122  0.7672  1.2536
 7459SOL    HW223277   6.940   0.500   3.143  1.3837  1.3588 -1.9582
 7460SOL     OW23278   0.490   0.982   1.823  0.3041 -0.3133 -0.5276
 7460SOL    HW123279   0.415   1.039   1.789 -0.2784 -0.2823  0.7358
 7460SOL    HW223280   0.578   1.026   1.801 -0.1221  0.8606  0.0356
 7461SOL     OW23281   1.894   4.728   5.485  0.7769  0.0025 -0.2960
 7461SOL    HW123282   1.880   4.753   5.581 -1.6775 -1.8972 -0.0536
 7461SOL    HW223283   1.947   4.643   5.480 -1.4132 -1.4328 -0.3892
 7462SOL     OW23284   3.331   3.773   0.303  0.4537 -0.3552  0.2737
 7462SOL    HW123285   3.321   3.677   0.331 -0.0061 -0.5542 -0.5590
 7462SOL    HW223286   3.302   3.832   0.379 -1.8424 -0.8929 -0.0975
 7463SOL     OW23287   4.098   4.253   6.652  0.5812 -0.2784 -0.2990
 7463SOL    HW123288   4.125   4.349   6.651  0.2097 -0.0712  2.6822
 7463SOL    HW223289   4.116   4.213   6.562  2.0467  2.1986 -1.2039
 7464SOL     OW23290   4.750   0.123   4.108 -0.5565 -0.0098 -0.2818
 7464SOL    HW123291   4.809   0.183   4.161  0.0869  0.6273 -1.6606
 7464SOL    HW223292   4.751   0.032   4.147 -2.4919  1.0609  2.5995
 7465SOL     OW23293   2.628   4.553   0.099 -0.0429  0.3544 -0.0610
 7465SOL    HW123294   2.711   4.497   0.097 -0.6433 -0.6056 -2.6506
 7465SOL    HW223295   2.618   4.594   0.189  1.8753 -1.5231  1.1193
 7466SOL     OW23296   6.842   6.646   6.500  0.0376 -0.4390 -0.0356
 7466SOL    HW123297   6.909   6.668   6.429  0.1648  1.7453  0.6940
 7466SOL    HW223298   6.852   6.710   6.576 -0.8702 -1.9970  1.4670
 7467SOL     OW23299   1.234   3.583   2.743  0.4770  0.0085 -0.1918
 7467SOL    HW123300   1.317   3.542   2.705  0.4181 -0.7048  0.4281
 7467SOL    HW223301   1.166   3.512   2.759  0.7842  0.1099  1.9736
 7468SOL     OW23302   6.139   0.614   5.726  0.5210  0.1335  0.0287
 7468SOL    HW123303   6.172   0.576   5.640 -0.4111 -0.3171 -0.1359
 7468SOL    HW223304   6.155   0.547   5.800  0.2961  0.0563  0.0082
 7469SOL     OW23305   5.409   1.972   6.380 -0.7160  0.2987 -0.0883
 7469SOL    HW123306   5.494   1.919   6.377 -1.3085 -0.7211  0.7218
 7469SOL    HW223307   5.334   1.913   6.409 -1.2987  1.7073  1.4015
 7470SOL     OW23308   5.287   2.970   2.716 -0.1626 -0.1596  0.2428
 7470SOL    HW123309   5.251   3.025   2.792 -0.6329  0.1036 -0.1674
 7470SOL    HW223310   5.236   2.991   2.633  0.7632  0.0116 -0.2932
 7471SOL     OW23311   3.315   1.138   6.528 -0.1414  0.0497 -0.4799
 7471SOL    HW123312   3.266   1.225   6.530 -3.4447 -1.6565 -0.2712
 7471SOL    HW223313   3.360   1.124   6.616 -0.2103  1.1785 -0.2446
 7472SOL     OW23314   6.356   1.098   4.647  0.3461 -0.1029 -0.1255
 7472SOL    HW123315   6.407   1.014   4.632 -0.4614 -0.7045  0.4558
 7472SOL    HW223316   6.266   1.077   4.686  0.0692  1.0110 -0.1203
 7473SOL     OW23317   4.258   1.274   3.694  0.3541  0.0604  0.4413
 7473SOL    HW123318   4.334   1.209   3.695 -0.2579 -0.6769  1.8061
 7473SOL    HW223319   4.201   1.259   3.775 -0.5695  1.4020  0.0614
 7474SOL     OW23320   5.958   2.927   2.621 -0.6217  0.1712  0.0363
 7474SOL    HW123321   5.913   2.910   2.709  0.0984 -0.9175  0.2168
 7474SOL    HW223322   6.024   2.854   2.603 -0.0527  0.9079 -0.9564
 7475SOL     OW23323   4.447   3.133   1.050 -0.0963  0.1561  0.1547
 7475SOL    HW123324   4.440   3.230   1.030  0.2923  0.1154 -0.2112
 7475SOL    HW223325   4.489   3.120   1.141  0.8607  0.3269 -0.2522
 7476SOL     OW23326   1.037   3.270   2.121 -0.9058  0.5439 -0.2404
 7476SOL    HW123327   1.004   3.185   2.162  0.6656  0.4424  0.9008
 7476SOL    HW223328   0.961   3.335   2.115 -1.8166 -0.4524  0.1855
 7477SOL     OW23329   1.796   3.694   4.453 -0.1304 -0.2646 -0.0165
 7477SOL    HW123330   1.806   3.677   4.355  1.6455 -1.2461  0.2784
 7477SOL    HW223331   1.878   3.740   4.487 -0.3343 -0.7232  1.1538
 7478SOL     OW23332   0.648   2.134   6.360  0.2008 -0.3474 -0.1481
 7478SOL    HW123333   0.651   2.121   6.460 -0.2778  0.6612  0.0077
 7478SOL    HW223334   0.648   2.045   6.315  2.4034 -0.8133  0.6829
 7479SOL     OW23335   6.762   3.145   3.064 -0.0249  0.1866  0.3953
 7479SOL    HW123336   6.844   3.111   3.110 -0.2402  0.9688  1.3972
 7479SOL    HW223337   6.731   3.229   3.109  0.4119  1.6836 -1.8994
 7480SOL     OW23338   4.084   6.066   3.318 -0.3197 -0.2664 -0.2429
 7480SOL    HW123339   3.990   6.034   3.331 -0.3754 -0.1728 -0.4106
 7480SOL    HW223340   4.136   5.997   3.268 -0.8015  0.4603 -1.8070
 7481SOL     OW23341   0.553   5.883   6.361 -0.2808  0.6147  0.1496
 7481SOL    HW123342   0.458   5.858   6.338 -0.1366  1.0573 -0.9752
 7481SOL    HW223343   0.589   5.945   6.292  1.2724 -0.5607 -0.1469
 7482SOL     OW23344   3.558   1.901   4.321 -0.1014  0.5542 -0.4802
 7482SOL    HW123345   3.577   1.899   4.419  0.7787 -0.8113 -0.6457
 7482SOL    HW223346   3.465   1.869   4.304 -0.5909  1.6986 -0.0443
 7483SOL     OW23347   4.782   4.062   4.551  0.5545  0.0673 -0.0154
 7483SOL    HW123348   4.786   3.981   4.609  0.3965  0.6076  0.7612
 7483SOL    HW223349   4.734   4.136   4.598  0.8967  0.6970 -0.6139
 7484SOL     OW23350   2.493   0.061   4.799 -0.0121 -0.5786 -0.1070
 7484SOL    HW123351   2.490   0.057   4.898  0.1246  0.2178 -0.0582
 7484SOL    HW223352   2.403   0.084   4.763  0.1720  0.2070 -0.0912
 7485SOL     OW23353   1.841   6.148   0.245  0.1215 -0.7690  0.4259
 7485SOL    HW123354   1.925   6.185   0.205  1.5791 -1.6610  2.5018
 7485SOL    HW223355   1.789   6.100   0.174  0.4340  1.2853 -1.2987
 7486SOL     OW23356   4.437   0.538   1.544 -0.3425  0.3619  0.2016
 7486SOL    HW123357   4.340   0.560   1.552 -0.8661 -1.6352 -0.0779
 7486SOL    HW223358   4.458   0.458   1.601  1.3074  1.1813  0.8045
 7487SOL     OW23359   5.087   6.557   5.390 -0.3794 -0.3666 -0.1313
 7487SOL    HW123360   5.158   6.494   5.421 -0.0239  0.1111  0.0369
 7487SOL    HW223361   5.004   6.543   5.444 -0.0316 -0.1207  0.4714
 7488SOL     OW23362   1.874   4.959   0.891 -0.2765  0.3590 -0.7307
 7488SOL    HW123363   1.889   4.862   0.873  1.2791  0.2694  0.7883
 7488SOL    HW223364   1.786   4.987   0.851 -0.4990 -1.5105 -1.6776
 7489SOL     OW23365   5.294   3.482   0.027  0.3441 -0.6861  0.2746
 7489SOL    HW123366   5.377   3.535   0.014  1.0582 -1.9912 -0.7424
 7489SOL    HW223367   5.294   3.403  -0.035 -1.2325 -1.2162  0.8825
 7490SOL     OW23368   1.541   2.663   6.822 -0.3675  0.2700  0.6065
 7490SOL    HW123369   1.480   2.709   6.887  0.0046 -0.2210  1.3149
 7490SOL    HW223370   1.585   2.732   6.764 -1.1591  0.6682  0.4678
 7491SOL     OW23371   3.838   3.481   0.546 -0.7601 -0.1824 -0.4985
 7491SOL    HW123372   3.920   3.457   0.598 -0.5367  0.4864 -0.5294
 7491SOL    HW223373   3.853   3.461   0.450  0.2232  1.9905 -0.8430
 7492SOL     OW23374   1.143   1.774   1.367 -0.4874 -0.0479  0.5626
 7492SOL    HW123375   1.103   1.854   1.411 -0.3638 -0.7065  1.9471
 7492SOL    HW223376   1.137   1.696   1.430  0.3841 -0.8507 -0.3258
 7493SOL     OW23377   1.849   3.652   4.181  0.5787  0.2817  0.1796
 7493SOL    HW123378   1.826   3.723   4.114 -0.2702 -0.0891  0.0625
 7493SOL    HW223379   1.948   3.644   4.188  0.7268 -0.6584 -2.1162
 7494SOL     OW23380   6.076   2.115   1.358  0.1851  0.1881  0.0406
 7494SOL    HW123381   6.100   2.082   1.267 -0.3440 -3.0479  0.9458
 7494SOL    HW223382   5.977   2.113   1.369  0.3255 -2.1380  1.4929
 7495SOL     OW23383   1.048   3.371   3.847 -0.1847  0.0040  0.0230
 7495SOL    HW123384   0.968   3.431   3.839  0.3957  0.8795  0.5133
 7495SOL    HW223385   1.021   3.276   3.834 -0.7852  0.4798 -3.2422
 7496SOL     OW23386   6.396   3.416   2.996 -0.1005 -0.1638 -0.4353
 7496SOL    HW123387   6.464   3.487   3.016 -0.1056 -0.2667 -0.0396
 7496SOL    HW223388   6.377   3.415   2.898 -1.3730  1.5207 -0.2481
 7497SOL     OW23389   5.888   0.850   0.787  0.0869 -0.4603  0.5428
 7497SOL    HW123390   5.865   0.759   0.755  1.0157 -0.3398 -0.5187
 7497SOL    HW223391   5.847   0.865   0.877 -0.9742 -1.5114  0.2548
 7498SOL     OW23392   2.743   5.854   6.630 -0.6449 -0.3766  0.0666
 7498SOL    HW123393   2.748   5.950   6.602  1.0676 -0.6564 -0.7600
 7498SOL    HW223394   2.825   5.830   6.682 -1.7526 -1.0358  1.5752
 7499SOL     OW23395   2.211   2.840   3.732  0.1276 -0.0423  0.0518
 7499SOL    HW123396   2.271   2.875   3.660 -0.1556  1.6610  0.6094
 7499SOL    HW223397   2.116   2.842   3.700  0.1228 -0.5009  0.0271
 7500SOL     OW23398   3.420   5.982   5.795 -0.8597  0.2718  0.1894
 7500SOL    HW123399   3.325   5.989   5.765 -1.2744  0.7499  1.5584
 7500SOL    HW223400   3.479   6.030   5.730 -1.4943 -0.3332 -0.8635
 7501SOL     OW23401   6.072   1.356   4.295 -0.0649  0.4692  0.4875
 7501SOL    HW123402   6.042   1.407   4.375  0.0576  0.2807  0.6549
 7501SOL    HW223403   6.125   1.416   4.235  1.0022  0.2751  1.2060
 7502SOL     OW23404   2.117   0.890   3.509  0.1496 -0.0288 -0.8766
 7502SOL    HW123405   2.133   0.830   3.431  0.6757  1.2759 -1.8041
 7502SOL    HW223406   2.045   0.851   3.566  0.7998 -1.7764 -1.1684
 7503SOL     OW23407   1.891   4.649   1.242 -0.3535  0.5806  0.1548
 7503SOL    HW123408   1.934   4.588   1.174 -1.3565  0.2523 -0.2056
 7503SOL    HW223409   1.916   4.744   1.222 -0.1906  0.4382 -0.3381
 7504SOL     OW23410   4.275   5.625   2.604 -0.1618  0.2731 -0.1351
 7504SOL    HW123411   4.306   5.716   2.633  1.3877 -0.3114  0.1542
 7504SOL    HW223412   4.272   5.622   2.505 -0.5913  0.7561 -0.1415
 7505SOL     OW23413   0.510   5.718   6.999  0.3696  0.2916  0.1724
 7505SOL    HW123414   0.516   5.684   6.905 -1.3915  0.5761 -0.0914
 7505SOL    HW223415   0.578   5.673   7.056 -0.1484 -1.7277 -0.7121
 7506SOL     OW23416   3.464   1.673   5.165  0.3355  0.0849 -0.0369
 7506SOL    HW123417   3.488   1.726   5.246  0.0721  1.2487 -0.6883
 7506SOL    HW223418   3.521   1.703   5.088 -2.5384  2.4702 -1.4675
 7507SOL     OW23419   0.442   2.755   0.865  0.3665 -0.1734  0.0161
 7507SOL    HW123420   0.485   2.794   0.783  0.8109 -2.5811 -0.9810
 7507SOL    HW223421   0.502   2.767   0.944  0.8718  0.3450 -0.4381
 7508SOL     OW23422   4.384   0.924   0.782  0.4565  0.2834 -0.1441
 7508SOL    HW123423   4.306   0.934   0.844  0.4147 -0.0193 -0.1474
 7508SOL    HW223424   4.447   0.856   0.818  0.5052  0.2141 -0.3603
 7509SOL     OW23425   1.771   3.861   3.406  0.0431  0.3083  0.0092
 7509SOL    HW123426   1.783   3.777   3.355  0.0431  0.2009  0.1843
 7509SOL    HW223427   1.781   3.842   3.504  0.4568  0.5854  0.0230
 7510SOL     OW23428   1.762   3.686   3.183  0.1492  0.3961 -0.2930
 7510SOL    HW123429   1.772   3.770   3.130 -1.5589  0.9496  0.2044
 7510SOL    HW223430   1.682   3.636   3.151 -0.0854  0.0327  0.8180
 7511SOL     OW23431   5.016   6.059   4.327 -0.5620 -0.2616  0.3900
 7511SOL    HW123432   4.928   6.088   4.365 -1.6085 -1.8390 -0.7057
 7511SOL    HW223433   5.031   5.962   4.347 -0.6777 -0.8959 -2.1963
 7512SOL     OW23434   6.291   5.404   2.117 -0.6596 -0.3354  0.0612
 7512SOL    HW123435   6.377   5.413   2.067 -0.4114 -0.8770  0.3785
 7512SOL    HW223436   6.224   5.357   2.059 -0.3954 -0.8967  0.1992
 7513SOL     OW23437   0.430   6.755   4.338  0.1705 -0.4276 -0.4478
 7513SOL    HW123438   0.503   6.755   4.270  0.9472 -0.9563  0.3642
 7513SOL    HW223439   0.427   6.844   4.383  0.6019 -0.5430 -0.1857
 7514SOL     OW23440   5.536   0.388   5.585  0.2878  0.3549  0.6696
 7514SOL    HW123441   5.516   0.474   5.631  1.6586  0.7823  0.5209
 7514SOL    HW223442   5.474   0.375   5.508 -0.3738  0.8600  1.1078
 7515SOL     OW23443   6.830   5.035   0.274 -0.6709 -0.3580  0.1730
 7515SOL    HW123444   6.796   4.988   0.192  0.0555  0.2125 -0.4692
 7515SOL    HW223445   6.770   5.111   0.296 -0.5053 -0.1087 -0.2258
 7516SOL     OW23446   3.673   0.461   3.355  0.2257 -0.1701  0.4656
 7516SOL    HW123447   3.577   0.464   3.384  0.7261  0.3563  2.1811
 7516SOL    HW223448   3.712   0.553   3.361  0.8550 -0.3885 -0.1894
 7517SOL     OW23449   0.457   2.082   6.909 -0.7632  0.0008 -0.2412
 7517SOL    HW123450   0.464   1.997   6.962  0.6270  1.0757  1.3988
 7517SOL    HW223451   0.361   2.097   6.883 -1.2097 -1.4433  0.4904
 7518SOL     OW23452   4.521   2.503   3.601 -0.1461 -0.5699 -1.2763
 7518SOL    HW123453   4.547   2.599   3.599 -3.8134  0.6813  0.5129
 7518SOL    HW223454   4.556   2.456   3.520  2.1806  2.1010 -1.9486
 7519SOL     OW23455   3.858   6.923   4.912 -0.1423  0.4141  0.2829
 7519SOL    HW123456   3.852   7.007   4.967 -1.5313  1.0276 -0.7245
 7519SOL    HW223457   3.779   6.865   4.932 -1.9342  1.6457 -2.5012
 7520SOL     OW23458   0.545   0.253   0.503  0.0288 -0.3146  0.2469
 7520SOL    HW123459   0.465   0.208   0.545  0.9601 -1.3713  0.9370
 7520SOL    HW223460   0.615   0.268   0.573  0.9905 -0.6570 -0.6205
 7521SOL     OW23461   5.035   1.899   3.955  0.3066  0.2025  0.1726
 7521SOL    HW123462   5.124   1.896   3.910  0.4322  1.6420  0.2758
 7521SOL    HW223463   4.997   1.807   3.961  1.4334 -0.3263 -0.5757
 7522SOL     OW23464   1.412   6.814   3.846  0.0017  0.0267 -0.3422
 7522SOL    HW123465   1.349   6.745   3.881  0.9870  0.9237  3.7218
 7522SOL    HW223466   1.492   6.769   3.805 -0.0456 -1.2708  0.9125
 7523SOL     OW23467   4.949   0.776   5.711 -0.7887  0.2295 -0.7439
 7523SOL    HW123468   5.043   0.743   5.700 -1.3852 -1.8042 -0.1748
 7523SOL    HW223469   4.923   0.772   5.808 -1.0953  1.8928 -0.7357
 7524SOL     OW23470   0.247   3.289   5.019  0.1683  0.7192 -0.0936
 7524SOL    HW123471   0.327   3.332   5.062  2.0521 -0.4409 -2.2308
 7524SOL    HW223472   0.230   3.332   4.930  0.9301 -1.5824 -1.4244
 7525SOL     OW23473   1.192   4.820   5.307  0.4768  0.3807 -0.5635
 7525SOL    HW123474   1.108   4.785   5.349  1.4552 -1.4877 -0.0566
 7525SOL    HW223475   1.204   4.916   5.333 -0.6637  0.2120  0.7225
 7526SOL     OW23476   6.276   4.543   0.264  0.1709  0.0386 -0.6141
 7526SOL    HW123477   6.367   4.578   0.243  0.7882 -0.1102  1.5551
 7526SOL    HW223478   6.276   4.443   0.257  0.4477 -0.0303  0.2558
 7527SOL     OW23479   2.173   6.161   2.521 -0.5268 -0.3650 -1.3351
 7527SOL    HW123480   2.227   6.154   2.605 -0.8379  0.3682 -1.0636
 7527SOL    HW223481   2.156   6.069   2.485  0.1904 -0.6532 -0.9777
 7528SOL     OW23482   0.347   2.924   0.225  0.7374 -0.2223  0.2684
 7528SOL    HW123483   0.269   2.891   0.171  2.2915 -0.8586 -1.7115
 7528SOL    HW223484   0.314   2.989   0.294 -1.8601 -2.3874  1.2613
 7529SOL     OW23485   4.416   1.740   6.644 -0.0962  0.1377 -0.1961
 7529SOL    HW123486   4.366   1.812   6.597 -0.4969  0.5547  0.8474
 7529SOL    HW223487   4.400   1.747   6.743  3.9024  1.8496  0.5224
 7530SOL     OW23488   0.341   1.109   3.743  0.5992  0.5008  0.6431
 7530SOL    HW123489   0.277   1.142   3.813  0.8896  0.2533  1.0300
 7530SOL    HW223490   0.413   1.177   3.729  0.3349  0.7120  0.3187
 7531SOL     OW23491   4.213   1.498   2.673  0.1424  0.1242  0.3095
 7531SOL    HW123492   4.181   1.566   2.606  0.4377 -0.3736 -0.3392
 7531SOL    HW223493   4.162   1.510   2.759 -0.1473  0.8502  0.0441
 7532SOL     OW23494   4.792   4.585   0.241  0.3715 -0.2930  0.7222
 7532SOL    HW123495   4.776   4.574   0.143  0.4672 -1.4892  0.8336
 7532SOL    HW223496   4.739   4.663   0.274 -0.0748 -0.1989 -0.1813
 7533SOL     OW23497   4.003   5.572   1.272  0.3285  0.1849 -0.1231
 7533SOL    HW123498   4.083   5.555   1.330  1.0356  0.3984 -1.0112
 7533SOL    HW223499   4.007   5.513   1.191 -1.1751 -0.8446  0.5026
 7534SOL     OW23500   4.484   6.711   4.591 -0.3028 -0.0914 -0.2237
 7534SOL    HW123501   4.386   6.692   4.578 -0.2068 -0.4022 -0.5252
 7534SOL    HW223502   4.523   6.740   4.503 -0.5757  2.1623  0.3341
 7535SOL     OW23503   0.786   0.526   5.938 -0.4724  0.1276  0.2751
 7535SOL    HW123504   0.691   0.546   5.961 -0.7109 -0.4830 -0.1431
 7535SOL    HW223505   0.803   0.428   5.951  0.7103  0.5416  2.5053
 7536SOL     OW23506   5.632   0.644   1.698 -0.2345  0.2229  0.3027
 7536SOL    HW123507   5.566   0.587   1.747  2.6303 -1.7890  2.1602
 7536SOL    HW223508   5.660   0.720   1.757  1.0476 -0.4942  0.6435
 7537SOL     OW23509   1.289   6.760   2.485 -0.4182 -0.1079 -0.7214
 7537SOL    HW123510   1.378   6.769   2.531 -0.9158  0.9042  0.0640
 7537SOL    HW223511   1.303   6.767   2.386  0.1728  2.1875 -0.5398
 7538SOL     OW23512   1.135   5.469   2.202 -0.0782  0.2952  0.7063
 7538SOL    HW123513   1.108   5.560   2.168  1.2990  1.7992  3.3574
 7538SOL    HW223514   1.103   5.400   2.137 -0.5063  2.6697 -1.8581
 7539SOL     OW23515   6.619   0.396   5.765 -0.0859  0.3439  0.2844
 7539SOL    HW123516   6.621   0.493   5.743  0.5066  0.8542  2.3889
 7539SOL    HW223517   6.704   0.352   5.734  1.4478  1.3728  2.7867
 7540SOL     OW23518   5.106   3.465   5.343 -0.3097  0.4286 -0.1231
 7540SOL    HW123519   5.111   3.544   5.404 -2.0807 -0.4065  1.2030
 7540SOL    HW223520   5.040   3.399   5.379 -0.2349 -0.8490 -2.1399
 7541SOL     OW23521   2.596   4.794   6.133 -0.1971  0.1554  0.0136
 7541SOL    HW123522   2.548   4.865   6.081 -1.0204  0.0889  0.6662
 7541SOL    HW223523   2.666   4.752   6.075  1.3696  2.5202  0.0504
 7542SOL     OW23524   0.406   6.660   6.098 -0.3139  0.0639 -0.5604
 7542SOL    HW123525   0.466   6.587   6.063 -0.0010 -0.0547  0.2090
 7542SOL    HW223526   0.343   6.623   6.166 -0.2820  0.4730 -0.3017
 7543SOL     OW23527   3.704   5.896   0.897  0.0633 -0.1118  0.2520
 7543SOL    HW123528   3.645   5.848   0.962  0.7678  0.8617  1.6532
 7543SOL    HW223529   3.799   5.892   0.927  0.7791 -1.5878 -1.9418
 7544SOL     OW23530   5.980   1.641   2.708 -0.0269  0.3917 -0.3620
 7544SOL    HW123531   5.939   1.592   2.631  0.2135 -2.0236  0.9578
 7544SOL    HW223532   6.078   1.649   2.694  0.2888 -1.6415  0.4537
 7545SOL     OW23533   5.224   5.941   5.263  0.1422  0.4057 -0.0122
 7545SOL    HW123534   5.217   5.884   5.181  0.4960  1.5867 -0.8974
 7545SOL    HW223535   5.301   5.911   5.319  1.3909  1.0483 -1.3291
 7546SOL     OW23536   2.279   3.573   0.434  0.2503 -0.1433 -0.6191
 7546SOL    HW123537   2.207   3.507   0.455 -0.3308  0.8180  0.5552
 7546SOL    HW223538   2.239   3.664   0.424  1.5036  0.8992  2.6341
 7547SOL     OW23539   2.041   0.287   0.869 -0.1722 -0.2400 -0.2003
 7547SOL    HW123540   2.036   0.383   0.897 -0.8444 -0.1759 -0.5148
 7547SOL    HW223541   2.108   0.239   0.926 -0.7780  0.1126  0.8296
 7548SOL     OW23542   2.734   1.235   5.862 -0.4883  0.1145  0.2484
 7548SOL    HW123543   2.781   1.304   5.807  2.9262 -1.0562  1.4539
 7548SOL    HW223544   2.662   1.279   5.915 -0.5030  2.1493 -1.3249
 7549SOL     OW23545   4.020   6.884   5.805  0.3637 -0.0391 -0.3156
 7549SOL    HW123546   4.084   6.811   5.781  0.5939 -0.3848  1.2432
 7549SOL    HW223547   3.993   6.874   5.901 -2.6692 -0.4199 -1.0890
 7550SOL     OW23548   1.840   0.746   5.128  0.1579 -0.3067 -0.2127
 7550SOL    HW123549   1.744   0.754   5.101  0.1715  1.8641  0.1842
 7550SOL    HW223550   1.896   0.809   5.074  1.4030 -1.5750 -0.4723
 7551SOL     OW23551   6.319   3.992   0.261  0.0384  0.2946  0.0052
 7551SOL    HW123552   6.364   3.983   0.349  1.5996 -1.7826 -0.9127
 7551SOL    HW223553   6.220   3.977   0.272 -0.0664  1.8974  1.6057
 7552SOL     OW23554   2.895   1.943   5.377 -0.2988 -0.1058 -0.0815
 7552SOL    HW123555   2.960   1.991   5.317 -0.5008  2.8544  1.8758
 7552SOL    HW223556   2.804   1.945   5.336 -0.1261  0.3456 -0.4504
 7553SOL     OW23557   0.653   0.326   5.094  0.0426  0.2855  0.2360
 7553SOL    HW123558   0.608   0.241   5.120  1.9271 -0.7257  0.3462
 7553SOL    HW223559   0.585   0.390   5.059 -1.3234 -1.5403 -0.6128
 7554SOL     OW23560   5.502   1.850   1.818  0.0956  1.0776  0.2542
 7554SOL    HW123561   5.462   1.850   1.727 -2.4413  1.5151  1.2662
 7554SOL    HW223562   5.524   1.944   1.845 -0.6702  1.1577  0.6496
 7555SOL     OW23563   4.650   6.792   4.344  0.0934 -0.0479  0.6779
 7555SOL    HW123564   4.596   6.716   4.308  0.2745 -0.3157  0.9582
 7555SOL    HW223565   4.735   6.801   4.292 -0.1762  0.3111  0.2984
 7556SOL     OW23566   6.395   6.244   2.195  0.1648  0.3898 -0.4415
 7556SOL    HW123567   6.303   6.210   2.173 -0.1074  0.9793 -0.2533
 7556SOL    HW223568   6.456   6.226   2.118 -0.3418  0.8257 -0.9583
 7557SOL     OW23569   3.465   5.277   6.143  0.0094 -0.0419  0.0038
 7557SOL    HW123570   3.560   5.281   6.174 -0.4662 -0.9653  1.7053
 7557SOL    HW223571   3.427   5.187   6.164 -1.9821  1.1020  1.6793
 7558SOL     OW23572   2.649   2.054   3.953  0.1116  0.1570  0.3596
 7558SOL    HW123573   2.632   2.040   3.856  0.5052  1.2088  0.1250
 7558SOL    HW223574   2.688   2.145   3.967  0.6238 -0.2138  1.4344
 7559SOL     OW23575   1.349   1.728   5.119  0.0599 -0.0616  0.2879
 7559SOL    HW123576   1.302   1.779   5.046  1.5051 -0.2580 -0.8364
 7559SOL    HW223577   1.409   1.790   5.169 -1.1670  0.1369  1.5460
 7560SOL     OW23578   1.237   1.851   5.368  0.1527  0.4448  0.8848
 7560SOL    HW123579   1.330   1.857   5.332  0.3034 -3.0896  0.3260
 7560SOL    HW223580   1.240   1.813   5.460 -0.7164  0.7652  1.0493
 7561SOL     OW23581   6.192   1.784   3.050 -0.1229 -0.5252  0.2097
 7561SOL    HW123582   6.243   1.853   2.998  1.9171 -1.9616  0.1765
 7561SOL    HW223583   6.100   1.774   3.012  0.5317  0.0820 -1.6534
 7562SOL     OW23584   0.583   6.138   3.263  0.0223  0.6452  0.2142
 7562SOL    HW123585   0.655   6.203   3.283 -0.4372  1.0803  0.4886
 7562SOL    HW223586   0.569   6.078   3.342 -0.2222  0.8559  0.3314
 7563SOL     OW23587   2.767   0.370   3.327 -0.5953  0.2662  0.2244
 7563SOL    HW123588   2.774   0.279   3.289 -0.8280 -0.0603  0.9378
 7563SOL    HW223589   2.856   0.415   3.325 -0.2558 -0.3657  0.8028
 7564SOL     OW23590   4.665   2.025   6.396 -0.0933  0.6678 -0.2833
 7564SOL    HW123591   4.707   1.944   6.437 -2.3585 -0.6917 -0.5223
 7564SOL    HW223592   4.663   2.099   6.464 -1.6810 -0.8022  1.3540
 7565SOL     OW23593   6.275   4.734   6.171  0.2221 -0.3449 -0.5285
 7565SOL    HW123594   6.177   4.716   6.160  0.5833 -2.6506 -0.3922
 7565SOL    HW223595   6.293   4.759   6.266 -0.2713  0.5351 -0.6525
 7566SOL     OW23596   5.255   4.476   3.721  0.1705 -0.0217  0.3301
 7566SOL    HW123597   5.170   4.442   3.761  0.2014 -0.9810 -0.3746
 7566SOL    HW223598   5.314   4.398   3.700  1.7716  0.6647  1.9634
 7567SOL     OW23599   1.196   0.341   1.585  0.4336 -0.3398 -0.1656
 7567SOL    HW123600   1.254   0.261   1.573 -0.4595 -1.1762  0.9011
 7567SOL    HW223601   1.152   0.337   1.675  0.4813  1.4289 -0.0350
 7568SOL     OW23602   5.198   4.151   2.381 -0.2906 -0.0418  0.8219
 7568SOL    HW123603   5.221   4.229   2.323 -2.5206 -0.8509 -1.3286
 7568SOL    HW223604   5.244   4.069   2.346 -1.1986 -0.4251  0.4924
 7569SOL     OW23605   5.282   2.589   6.985  0.2743 -0.3429  0.2089
 7569SOL    HW123606   5.303   2.568   7.080 -0.0633  1.3957  0.7108
 7569SOL    HW223607   5.196   2.640   6.980 -0.6595 -1.9359 -1.2167
 7570SOL     OW23608   6.013   1.109   0.994 -0.5526  0.3524 -0.5021
 7570SOL    HW123609   6.003   1.117   0.895  1.1290 -2.3707 -0.9977
 7570SOL    HW223610   6.098   1.061   1.015 -1.3653 -0.0447  2.2438
 7571SOL     OW23611   5.961   0.665   3.802  0.6465 -0.4435 -0.7866
 7571SOL    HW123612   6.014   0.617   3.871  0.6217  0.4977 -0.0946
 7571SOL    HW223613   5.941   0.603   3.726  0.7641 -1.4630 -0.0038
 7572SOL     OW23614   4.848   0.335   1.850  0.1797  0.4806  0.3329
 7572SOL    HW123615   4.879   0.247   1.886  0.2200  0.7621  0.9991
 7572SOL    HW223616   4.789   0.380   1.916 -0.9404  0.3621 -0.5619
 7573SOL     OW23617   3.698   1.568   0.114  0.0698  0.3959  0.3348
 7573SOL    HW123618   3.619   1.515   0.144 -0.9370  1.3815 -0.5145
 7573SOL    HW223619   3.669   1.658   0.083  1.3634  0.3409 -1.1870
 7574SOL     OW23620   1.640   4.303   2.618 -0.1418 -0.0493 -0.1734
 7574SOL    HW123621   1.690   4.279   2.701  0.4660  2.6849  0.3446
 7574SOL    HW223622   1.704   4.330   2.546 -0.7393  1.5838 -0.1403
 7575SOL     OW23623   0.921   1.703   6.231  0.8319 -0.4202  0.2775
 7575SOL    HW123624   0.990   1.691   6.302  0.3648  1.1688  1.0543
 7575SOL    HW223625   0.849   1.634   6.243  2.1945 -2.0657 -0.5222
 7576SOL     OW23626   4.852   3.296   4.414  0.0874 -0.4690  0.5428
 7576SOL    HW123627   4.779   3.357   4.383  1.0277  0.0776 -0.7354
 7576SOL    HW223628   4.940   3.331   4.381  0.5845 -3.0791 -1.2675
 7577SOL     OW23629   0.924   6.247   4.890 -0.0321 -0.8371 -0.5457
 7577SOL    HW123630   1.022   6.263   4.902 -0.5987  1.5333  1.8599
 7577SOL    HW223631   0.897   6.164   4.939  0.3948 -0.1172  0.9519
 7578SOL     OW23632   6.261   6.911   1.397 -0.5609 -0.0050 -0.4027
 7578SOL    HW123633   6.266   6.928   1.496 -0.2511 -0.7921 -0.2754
 7578SOL    HW223634   6.174   6.945   1.362 -0.9760 -0.3474  0.2730
 7579SOL     OW23635   1.114   2.447   4.339  0.0498  0.0375 -0.1082
 7579SOL    HW123636   1.098   2.375   4.406 -2.4285 -0.6745 -1.3368
 7579SOL    HW223637   1.058   2.527   4.360  0.4218  0.4083 -0.4835
 7580SOL     OW23638   1.484   4.431   3.326 -0.0972  0.3519 -0.3380
 7580SOL    HW123639   1.423   4.445   3.404 -0.5305 -0.3898 -0.5348
 7580SOL    HW223640   1.556   4.500   3.328 -0.6571  0.9399  0.1738
 7581SOL     OW23641   6.594   6.090   6.650 -0.2666  0.3891  0.3567
 7581SOL    HW123642   6.663   6.128   6.588 -0.2936 -1.4257 -0.8674
 7581SOL    HW223643   6.636   6.019   6.707 -1.0498 -0.6695 -0.3341
 7582SOL     OW23644   1.782   0.045   6.537  0.0304 -0.1929  0.8395
 7582SOL    HW123645   1.702   0.105   6.544  0.2807  0.1566  0.7126
 7582SOL    HW223646   1.865   0.100   6.542  0.4019  0.3211 -4.8145
 7583SOL     OW23647   4.801   4.055   2.895  0.0183  0.1813  0.0752
 7583SOL    HW123648   4.854   4.109   2.960 -0.3312  1.0717 -0.3675
 7583SOL    HW223649   4.719   4.106   2.868 -0.2548 -0.5169 -0.4552
 7584SOL     OW23650   0.667   3.681   2.881 -0.4784 -0.0840  0.5716
 7584SOL    HW123651   0.658   3.758   2.818 -0.3205 -0.9400 -0.5204
 7584SOL    HW223652   0.626   3.599   2.841  1.9004 -1.2919  0.4061
 7585SOL     OW23653   6.637   2.225   4.981 -0.4889  0.2418 -0.1027
 7585SOL    HW123654   6.551   2.180   5.002 -0.1352 -0.4832 -0.1802
 7585SOL    HW223655   6.635   2.262   4.888 -0.0378 -1.4605 -0.8254
 7586SOL     OW23656   1.791   6.279   3.369 -0.1855 -0.9354  0.1103
 7586SOL    HW123657   1.731   6.246   3.442 -1.1478 -2.0337 -1.1347
 7586SOL    HW223658   1.737   6.327   3.300  0.9511  1.8525  1.0024
 7587SOL     OW23659   5.504   6.725   2.351 -0.1280  0.5108  0.5595
 7587SOL    HW123660   5.424   6.721   2.410  0.6986 -2.5006  1.6646
 7587SOL    HW223661   5.482   6.685   2.262 -0.3882  1.6936  0.0720
 7588SOL     OW23662   2.503   2.380   5.115  0.1265 -0.2537 -0.3866
 7588SOL    HW123663   2.410   2.343   5.108  0.7164 -2.5433  2.0360
 7588SOL    HW223664   2.499   2.470   5.158 -0.9480 -0.4801  0.0369
 7589SOL     OW23665   6.031   6.950   1.832 -0.0218 -0.0634  0.1429
 7589SOL    HW123666   6.023   6.966   1.734 -1.4969 -0.0402  0.2431
 7589SOL    HW223667   6.017   6.853   1.852 -2.7095  0.3387  0.5553
 7590SOL     OW23668   4.817   6.245   0.108  0.0295 -0.0413 -0.1877
 7590SOL    HW123669   4.805   6.343   0.120  0.4869 -0.1275  1.0348
 7590SOL    HW223670   4.739   6.197   0.148  0.2056 -0.2131 -0.0476
 7591SOL     OW23671   3.491   3.140   4.472  0.2266  0.1043  0.2996
 7591SOL    HW123672   3.577   3.167   4.428  0.1123 -0.4653 -0.2783
 7591SOL    HW223673   3.512   3.083   4.552  0.3772 -2.3223 -1.3455
 7592SOL     OW23674   6.388   0.136   2.758 -0.3024 -0.0672  0.3501
 7592SOL    HW123675   6.293   0.105   2.749 -0.2787 -0.7192  2.0258
 7592SOL    HW223676   6.399   0.224   2.712 -1.6407 -0.1359 -0.1365
 7593SOL     OW23677   6.421   1.227   5.911 -0.4288  0.0326 -0.1451
 7593SOL    HW123678   6.388   1.170   5.987 -1.4609 -0.0642 -0.6443
 7593SOL    HW223679   6.346   1.284   5.878  0.0704  0.2336 -0.9543
 7594SOL     OW23680   4.351   2.848   6.651 -0.0956  0.8657  0.3014
 7594SOL    HW123681   4.282   2.803   6.707 -0.1401  0.3686 -0.1467
 7594SOL    HW223682   4.316   2.937   6.621 -1.4827 -0.2696 -1.7429
 7595SOL     OW23683   1.223   2.299   5.885  0.8335 -0.0979  0.3648
 7595SOL    HW123684   1.149   2.235   5.866  1.5927 -1.2637  1.2457
 7595SOL    HW223685   1.238   2.357   5.805  0.4858 -1.3694 -0.6494
 7596SOL     OW23686   4.228   1.435   6.645  0.2315  0.8890  0.4614
 7596SOL    HW123687   4.207   1.523   6.687  1.4924  0.7078  1.5453
 7596SOL    HW223688   4.272   1.376   6.713 -0.7504 -0.6517 -0.1968
 7597SOL     OW23689   4.633   4.546   1.567  0.3561  0.2860  0.2756
 7597SOL    HW123690   4.548   4.507   1.603  0.3662  1.1704  1.3092
 7597SOL    HW223691   4.636   4.532   1.468 -0.3388 -0.9697  0.4043
 7598SOL     OW23692   4.390   0.620   2.190  0.1598  0.1429 -0.0202
 7598SOL    HW123693   4.343   0.567   2.119 -0.7982  0.2373  0.5199
 7598SOL    HW223694   4.474   0.573   2.217  0.0589 -0.3668 -0.5674
 7599SOL     OW23695   2.775   4.059   0.138 -0.1259 -0.1539 -0.0741
 7599SOL    HW123696   2.869   4.039   0.110  0.0261  0.5226 -0.0823
 7599SOL    HW223697   2.715   3.985   0.109  0.3222 -0.3442 -0.5463
 7600SOL     OW23698   6.417   7.007   3.213  0.0476 -0.2917  0.0942
 7600SOL    HW123699   6.391   6.916   3.180  2.6972 -1.8387  1.8478
 7600SOL    HW223700   6.513   7.024   3.192 -0.4268  2.2740 -0.3738
 7601SOL     OW23701   3.229   6.273   6.617 -0.8561  0.1368  0.2933
 7601SOL    HW123702   3.222   6.326   6.532 -2.0409 -0.7736 -0.2093
 7601SOL    HW223703   3.224   6.335   6.695  1.1796  1.0902 -0.2717
 7602SOL     OW23704   0.252   0.867   1.051  0.9050 -0.1281 -0.1533
 7602SOL    HW123705   0.345   0.903   1.039  0.7291  0.4078  0.0630
 7602SOL    HW223706   0.214   0.900   1.137  0.9709 -1.3565  0.3717
 7603SOL     OW23707   4.622   2.862   5.341  0.1852 -0.1442 -0.2153
 7603SOL    HW123708   4.705   2.816   5.308  0.1421  1.3736 -2.8060
 7603SOL    HW223709   4.543   2.803   5.326  0.5960 -0.9486  0.7078
 7604SOL     OW23710   3.217   1.837   5.050 -0.1583  0.1166 -0.0205
 7604SOL    HW123711   3.173   1.903   5.111  0.1428 -0.3884  0.7611
 7604SOL    HW223712   3.315   1.831   5.074 -0.3614 -1.2837  0.5447
 7605SOL     OW23713   2.873   0.100   0.493  0.5740 -0.2658  0.1853
 7605SOL    HW123714   2.944   0.171   0.497 -0.6113  0.8775  2.0434
 7605SOL    HW223715   2.905   0.018   0.539  0.1571  0.8103  2.5292
 7606SOL     OW23716   6.621   6.767   4.412  0.1338  0.3257  0.4462
 7606SOL    HW123717   6.664   6.705   4.477  0.4162 -0.0441 -0.0845
 7606SOL    HW223718   6.525   6.741   4.401  0.2442  0.0016  0.2468
 7607SOL     OW23719   3.352   4.063   5.368 -0.1729 -0.5306  0.9223
 7607SOL    HW123720   3.269   4.106   5.332 -0.1351 -2.6137 -1.9836
 7607SOL    HW223721   3.429   4.126   5.357 -0.7463  0.0780  0.2253
 7608SOL     OW23722   5.584   2.373   6.479 -0.8538 -0.6506  0.0594
 7608SOL    HW123723   5.594   2.301   6.410 -2.0206 -0.1349 -0.6870
 7608SOL    HW223724   5.664   2.433   6.476 -0.9311 -0.5815 -0.9144
 7609SOL     OW23725   3.011   0.451   4.567  0.4431  0.0995 -0.1793
 7609SOL    HW123726   3.018   0.422   4.472 -0.1694 -0.4480 -0.0629
 7609SOL    HW223727   3.005   0.371   4.627 -1.6548  0.4256  0.1166
 7610SOL     OW23728   4.789   5.768   6.205  0.1527 -0.3265  0.0013
 7610SOL    HW123729   4.723   5.782   6.131  0.2335 -0.9529 -0.2036
 7610SOL    HW223730   4.746   5.787   6.293 -0.3803 -0.9399 -0.1149
 7611SOL     OW23731   4.603   1.274   6.678  0.2575 -0.1584 -0.2743
 7611SOL    HW123732   4.525   1.280   6.740  0.4294 -2.0930  0.1826
 7611SOL    HW223733   4.631   1.179   6.669  2.4414  0.4694 -0.6044
 7612SOL     OW23734   4.763   1.048   2.780  0.3756 -0.2349  0.0355
 7612SOL    HW123735   4.769   0.960   2.827 -2.0497 -0.6565 -0.3524
 7612SOL    HW223736   4.668   1.069   2.758  0.8422  2.5871  0.2569
 7613SOL     OW23737   1.004   5.653   5.776 -0.0795  0.3442  0.0087
 7613SOL    HW123738   0.945   5.612   5.707  0.3030 -0.9144  0.3992
 7613SOL    HW223739   1.054   5.730   5.736  0.4362 -0.6093 -1.2502
 7614SOL     OW23740   4.538   6.197   6.135  0.3488 -0.6956 -0.3760
 7614SOL    HW123741   4.530   6.190   6.235  0.1179 -0.1403 -0.3534
 7614SOL    HW223742   4.635   6.191   6.110  0.4135 -0.7797 -0.1149
 7615SOL     OW23743   4.704   2.772   5.927  0.2392 -0.4734 -0.5872
 7615SOL    HW123744   4.629   2.790   5.864 -0.9182  1.1108  1.1347
 7615SOL    HW223745   4.677   2.700   5.991 -0.5224  1.1375  1.0051
 7616SOL     OW23746   6.508   6.828   1.753 -0.4033  0.3734  0.2386
 7616SOL    HW123747   6.469   6.748   1.708 -2.0157  1.6125 -0.6960
 7616SOL    HW223748   6.481   6.829   1.849  0.7043 -0.8402  0.5787
 7617SOL     OW23749   5.961   4.755   3.704  0.0058  0.2656  0.1154
 7617SOL    HW123750   6.014   4.714   3.629 -0.5655 -0.1610 -0.0584
 7617SOL    HW223751   5.979   4.853   3.707  2.3333 -0.1265  1.2789
 7618SOL     OW23752   2.830   2.276   0.398 -0.2591 -0.0897  0.4315
 7618SOL    HW123753   2.736   2.253   0.423 -0.4078  1.0137  0.9415
 7618SOL    HW223754   2.870   2.334   0.469 -0.1280  1.7563 -1.0828
 7619SOL     OW23755   6.055   1.027   3.528  0.2710  0.0982  0.4837
 7619SOL    HW123756   5.970   1.063   3.489 -1.1206 -1.2382  2.0939
 7619SOL    HW223757   6.092   0.956   3.468 -1.3176 -1.2695  1.0322
 7620SOL     OW23758   4.050   4.411   1.296 -0.1552 -0.0998  0.0835
 7620SOL    HW123759   4.075   4.478   1.366 -1.9145  0.4522  0.2391
 7620SOL    HW223760   3.963   4.367   1.321  0.7963 -2.2527 -0.1712
 7621SOL     OW23761   4.849   4.799   0.817 -0.3443  0.2354 -0.4065
 7621SOL    HW123762   4.768   4.854   0.799 -0.8076 -0.6123 -0.9645
 7621SOL    HW223763   4.823   4.714   0.863  0.3873  0.5646  0.6577
 7622SOL     OW23764   1.076   3.567   0.753 -0.1077 -0.0104  0.4439
 7622SOL    HW123765   1.154   3.622   0.782  2.1015 -2.0252 -1.2888
 7622SOL    HW223766   0.999   3.628   0.732  0.7276  2.0179  2.7186
 7623SOL     OW23767   3.975   6.337   3.999 -0.0531  0.7936  0.1412
 7623SOL    HW123768   3.914   6.257   3.996 -0.3625  1.0451 -2.1296
 7623SOL    HW223769   3.938   6.409   3.940  2.5886  0.7902 -1.6958
 7624SOL     OW23770   6.738   2.469   3.236 -0.6343 -0.2323 -0.0840
 7624SOL    HW123771   6.780   2.522   3.163 -1.2701  0.9282  0.3729
 7624SOL    HW223772   6.710   2.380   3.200  0.6793 -0.3875 -0.7949
 7625SOL     OW23773   4.367   6.495   1.032  0.1126 -0.3761  0.0085
 7625SOL    HW123774   4.341   6.591   1.026  0.0960 -0.4341 -1.2103
 7625SOL    HW223775   4.291   6.439   0.998  0.6130 -0.7361 -0.5353
 7626SOL     OW23776   6.994   6.130   0.238  0.1986  0.2375 -0.3174
 7626SOL    HW123777   6.915   6.149   0.297  1.0055  1.0916  0.5389
 7626SOL    HW223778   7.029   6.039   0.257 -0.9438 -0.4071 -1.1636
 7627SOL     OW23779   3.905   1.997   3.999 -0.0869  0.0613 -0.2559
 7627SOL    HW123780   3.975   2.067   3.991  0.3887 -0.3683  0.1093
 7627SOL    HW223781   3.840   2.023   4.071  0.9054 -0.5563  0.8822
 7628SOL     OW23782   3.274   2.688   1.212  0.0141  0.1070  0.1237
 7628SOL    HW123783   3.333   2.767   1.228 -0.7241  0.9072 -0.9469
 7628SOL    HW223784   3.211   2.677   1.289  0.1848  0.5031  0.3221
 7629SOL     OW23785   6.401   2.833   4.430  0.0596  0.2302  0.1168
 7629SOL    HW123786   6.483   2.853   4.484  0.0438  0.5439  0.0254
 7629SOL    HW223787   6.347   2.763   4.476  2.2191 -2.7766 -1.5736
 7630SOL     OW23788   2.070   6.540   3.861  0.1376  0.6708  0.4175
 7630SOL    HW123789   2.016   6.476   3.806  0.3156  1.4078 -0.6530
 7630SOL    HW223790   2.039   6.634   3.843  3.2754  1.3950 -2.1489
 7631SOL     OW23791   0.185   1.355   1.709 -0.4895 -0.1925 -0.1309
 7631SOL    HW123792   0.217   1.435   1.759 -0.1269 -0.3602 -0.0930
 7631SOL    HW223793   0.162   1.380   1.615 -1.1632  0.1230  0.1132
 7632SOL     OW23794   5.331   5.542   0.424  0.4338  0.3098 -0.6713
 7632SOL    HW123795   5.270   5.464   0.438 -0.7670  0.5138 -3.9527
 7632SOL    HW223796   5.393   5.522   0.348  0.0138  2.5455 -1.6764
 7633SOL     OW23797   3.257   0.770   2.779  0.2911  0.2521  0.4887
 7633SOL    HW123798   3.165   0.805   2.796 -0.2692  0.0008 -1.7206
 7633SOL    HW223799   3.313   0.841   2.737 -0.4068 -0.8775 -2.6279
 7634SOL     OW23800   1.117   2.524   6.585 -0.0459 -0.0867 -0.4658
 7634SOL    HW123801   1.158   2.568   6.666 -2.5880 -1.5268  1.7733
 7634SOL    HW223802   1.182   2.461   6.545  1.5896  1.2953 -0.1112
 7635SOL     OW23803   3.239   2.794   6.321 -0.1208 -0.1106  0.1854
 7635SOL    HW123804   3.253   2.745   6.407  0.8261 -0.4298 -0.1374
 7635SOL    HW223805   3.310   2.767   6.255 -0.0840  1.0607 -0.2796
 7636SOL     OW23806   0.789   3.975   3.666 -0.5502  0.1309  0.3945
 7636SOL    HW123807   0.879   3.992   3.625 -0.1116 -0.8741  0.9255
 7636SOL    HW223808   0.745   4.063   3.684  0.5586  0.6652  0.6404
 7637SOL     OW23809   0.580   4.655   6.183  0.9948 -0.1053  0.1535
 7637SOL    HW123810   0.641   4.705   6.245  0.3921 -0.5048  1.0903
 7637SOL    HW223811   0.578   4.558   6.210  0.3140 -0.1836 -0.1619
 7638SOL     OW23812   5.697   6.963   1.337 -0.6902 -0.1331  0.1134
 7638SOL    HW123813   5.654   7.035   1.390 -0.8325 -0.1795  0.0630
 7638SOL    HW223814   5.718   6.997   1.245 -2.6171 -0.7293 -0.6076
 7639SOL     OW23815   0.934   5.666   0.403 -0.0683  0.2082 -0.0776
 7639SOL    HW123816   1.005   5.672   0.473 -1.5888  2.1011  1.4080
 7639SOL    HW223817   0.881   5.582   0.416 -0.4198  0.6058  1.1680
 7640SOL     OW23818   3.111   0.738   0.487 -0.3192 -0.2482  0.1749
 7640SOL    HW123819   3.190   0.732   0.426 -0.0764 -1.8906  0.5786
 7640SOL    HW223820   3.113   0.824   0.537 -0.0372  0.7337 -1.4386
 7641SOL     OW23821   5.111   3.965   6.855  0.3935 -0.0281  0.0172
 7641SOL    HW123822   5.195   3.916   6.880  0.3136 -0.5663 -0.7658
 7641SOL    HW223823   5.034   3.902   6.855  0.0423  0.3955  0.3895
 7642SOL     OW23824   0.564   6.656   5.658  0.6523  0.0132 -0.3629
 7642SOL    HW123825   0.538   6.707   5.739 -0.6828 -1.9844  0.5550
 7642SOL    HW223826   0.633   6.707   5.606 -0.8273  2.8101  0.2733
 7643SOL     OW23827   0.206   1.203   3.174  0.0143  0.3701  0.2999
 7643SOL    HW123828   0.275   1.257   3.126  1.7620 -1.1811  0.9633
 7643SOL    HW223829   0.222   1.208   3.272 -0.2047 -0.7638  0.4121
 7644SOL     OW23830   5.232   2.646   6.030  0.0718  0.2345  0.3874
 7644SOL    HW123831   5.134   2.666   6.017  0.2220  0.4029 -0.5285
 7644SOL    HW223832   5.242   2.574   6.098 -0.7032  0.1117  0.3802
 7645SOL     OW23833   6.894   5.283   6.128  0.1537 -0.2704 -0.0209
 7645SOL    HW123834   6.840   5.208   6.090  1.0423  0.5610 -3.2764
 7645SOL    HW223835   6.845   5.369   6.116  0.5074  0.0453  0.7350
 7646SOL     OW23836   1.657   4.294   2.168  0.1863 -0.8084  0.0520
 7646SOL    HW123837   1.709   4.305   2.084  1.3785 -1.8069  0.6194
 7646SOL    HW223838   1.560   4.312   2.151  0.1289 -2.6942 -1.9495
 7647SOL     OW23839   6.978   2.989   3.672  0.3520  0.2987  0.0007
 7647SOL    HW123840   6.879   2.995   3.660 -0.0412 -0.5262  2.3288
 7647SOL    HW223841   7.021   3.073   3.639 -1.0756  0.5851 -1.2399
 7648SOL     OW23842   3.187   3.857   1.128  0.6397  0.1143  0.1519
 7648SOL    HW123843   3.175   3.892   1.036  1.8990  0.1501 -0.0202
 7648SOL    HW223844   3.199   3.933   1.192  0.3994  0.0748  0.2440
 7649SOL     OW23845   4.725   0.869   0.059  0.1865 -0.0303  0.3279
 7649SOL    HW123846   4.694   0.816   0.138 -0.3785 -1.9604 -1.1108
 7649SOL    HW223847   4.823   0.856   0.046  0.3998  0.7832  1.0389
 7650SOL     OW23848   4.381   3.772   0.348  0.3556 -0.4001 -0.0347
 7650SOL    HW123849   4.455   3.723   0.394  0.8004  1.0693  0.8946
 7650SOL    HW223850   4.306   3.788   0.412  0.0720 -0.1764 -0.4170
 7651SOL     OW23851   2.277   5.347   5.810 -0.0557 -0.0827 -0.0039
 7651SOL    HW123852   2.195   5.314   5.763 -0.6281  2.1589 -0.7537
 7651SOL    HW223853   2.268   5.332   5.909  0.4289 -3.3622 -0.3489
 7652SOL     OW23854   6.951   2.479   4.608  0.1323 -0.5870  0.3738
 7652SOL    HW123855   7.037   2.504   4.565 -0.7725  0.1991 -1.0373
 7652SOL    HW223856   6.953   2.381   4.632  0.3888 -1.2913 -2.2380
 7653SOL     OW23857   1.792   5.808   5.846 -0.4980 -0.1950 -0.2336
 7653SOL    HW123858   1.749   5.843   5.763 -1.5858 -0.1927  0.3207
 7653SOL    HW223859   1.764   5.713   5.861 -0.0582 -0.2970 -0.0326
 7654SOL     OW23860   5.903   2.285   3.384 -0.9416 -0.4636 -0.2242
 7654SOL    HW123861   5.811   2.274   3.420 -1.9087  0.2300 -2.3549
 7654SOL    HW223862   5.959   2.334   3.450 -2.9054  1.6387  0.0005
 7655SOL     OW23863   3.943   0.031   4.621  0.0199  0.0659 -0.1769
 7655SOL    HW123864   3.868   0.065   4.677 -0.9465 -0.5554 -1.0433
 7655SOL    HW223865   4.007   0.105   4.601 -0.6228  0.7280  0.1816
 7656SOL     OW23866   5.522   2.366   0.900 -0.2851  0.3200  0.1100
 7656SOL    HW123867   5.431   2.356   0.942 -1.2031  0.6982 -1.7135
 7656SOL    HW223868   5.512   2.383   0.802  1.7769  0.3336 -0.1346
 7657SOL     OW23869   0.713   3.245   3.746 -0.6307 -0.3804  0.1071
 7657SOL    HW123870   0.759   3.171   3.796 -1.4851 -0.7123  0.4263
 7657SOL    HW223871   0.764   3.330   3.759 -0.0516 -0.7556  0.3642
 7658SOL     OW23872   3.422   1.654   1.543  0.0891 -0.1681  0.4246
 7658SOL    HW123873   3.425   1.720   1.618  2.6398  0.4187 -0.0880
 7658SOL    HW223874   3.389   1.699   1.460 -0.8121 -0.2878  0.7117
 7659SOL     OW23875   4.750   5.490   6.468 -0.7385 -0.0868 -0.2535
 7659SOL    HW123876   4.767   5.511   6.564 -0.4418 -0.3484 -0.2506
 7659SOL    HW223877   4.732   5.576   6.419  0.3866  0.1858 -0.2209
 7660SOL     OW23878   1.076   6.356   5.298 -0.4651  0.3101  0.6031
 7660SOL    HW123879   1.063   6.400   5.209 -0.1301 -1.0529 -0.1428
 7660SOL    HW223880   1.151   6.401   5.346 -0.4129  0.8382  0.0471
 7661SOL     OW23881   3.041   6.400   5.247 -0.4012  0.2163 -0.2180
 7661SOL    HW123882   2.983   6.355   5.179  0.7121  0.7177 -1.5303
 7661SOL    HW223883   3.064   6.492   5.216  1.1769 -0.0134  0.2279
 7662SOL     OW23884   5.806   1.060   1.394  0.2087  0.3117  0.3628
 7662SOL    HW123885   5.897   1.094   1.417 -0.4429  1.4488  1.3704
 7662SOL    HW223886   5.761   1.027   1.477 -0.5181  0.3150 -0.0234
 7663SOL     OW23887   6.365   5.681   2.734  0.4358  0.4633 -0.6725
 7663SOL    HW123888   6.299   5.611   2.761  1.0967  0.2463  0.3983
 7663SOL    HW223889   6.382   5.674   2.636 -0.4918 -0.0164 -0.8130
 7664SOL     OW23890   5.344   0.976   2.956  0.1884 -0.6318 -0.3053
 7664SOL    HW123891   5.401   1.049   2.993  0.2522 -0.0014 -1.6031
 7664SOL    HW223892   5.371   0.957   2.861  0.9622 -3.1624  0.3396
 7665SOL     OW23893   1.175   4.104   5.949  0.1941  0.0413 -0.4052
 7665SOL    HW123894   1.205   4.097   6.044 -0.6830  0.3506 -0.0936
 7665SOL    HW223895   1.237   4.165   5.898  1.4138 -1.1400 -0.3711
 7666SOL     OW23896   6.396   4.614   3.859 -0.1216  0.4685 -0.2117
 7666SOL    HW123897   6.349   4.642   3.942 -0.6633  3.8404 -1.5081
 7666SOL    HW223898   6.494   4.614   3.874 -0.0713  3.4169 -0.0996
 7667SOL     OW23899   4.631   6.190   2.229 -0.5897  0.6843 -0.2496
 7667SOL    HW123900   4.575   6.160   2.306 -0.7247  1.2855 -0.1027
 7667SOL    HW223901   4.640   6.116   2.163 -0.6938  0.2488  0.2179
 7668SOL     OW23902   3.450   6.223   6.827  0.0876  0.0385 -0.4773
 7668SOL    HW123903   3.358   6.251   6.801 -0.1893  0.4969  0.9229
 7668SOL    HW223904   3.481   6.277   6.906  1.6216  0.0057 -1.0122
 7669SOL     OW23905   3.324   2.762   0.961  0.7223 -0.0040 -0.3000
 7669SOL    HW123906   3.319   2.723   1.052  1.4619 -0.0465 -0.2668
 7669SOL    HW223907   3.419   2.789   0.941  0.3248  1.3671 -0.4902
 7670SOL     OW23908   2.418   2.920   0.604  0.2581  0.1762  0.2245
 7670SOL    HW123909   2.507   2.874   0.606  0.0916 -0.1298  1.3632
 7670SOL    HW223910   2.369   2.901   0.689 -1.3627 -0.5711 -0.8245
 7671SOL     OW23911   4.383   0.559   3.475 -0.2871 -0.4073  0.4932
 7671SOL    HW123912   4.325   0.559   3.556 -0.9006 -0.2996  0.0576
 7671SOL    HW223913   4.368   0.644   3.423  0.3813 -0.2990  0.4674
 7672SOL     OW23914   5.874   3.342   2.846  0.0609 -0.1560 -0.1646
 7672SOL    HW123915   5.818   3.354   2.764 -0.0015  1.1757  0.0392
 7672SOL    HW223916   5.815   3.326   2.925 -0.3040  3.3472  0.4327
 7673SOL     OW23917   1.368   5.272   4.495 -0.3959 -0.4778  0.1795
 7673SOL    HW123918   1.283   5.220   4.485 -0.4439 -0.0942 -1.6775
 7673SOL    HW223919   1.440   5.229   4.441  0.0742  0.2790  0.1984
 7674SOL     OW23920   2.164   4.917   4.782  0.6723  0.7406 -0.1100
 7674SOL    HW123921   2.090   4.887   4.722  0.9154 -3.3150  1.2927
 7674SOL    HW223922   2.135   4.998   4.832 -1.6057  1.0538 -1.7647
 7675SOL     OW23923   3.724   6.712   2.330 -0.6652  0.1915 -0.2673
 7675SOL    HW123924   3.702   6.614   2.331  0.0703 -0.0210 -1.5334
 7675SOL    HW223925   3.785   6.733   2.406 -1.4826 -0.1651  0.4934
 7676SOL     OW23926   3.342   2.368   6.240 -0.0258 -0.2008 -0.3260
 7676SOL    HW123927   3.295   2.415   6.165 -1.9741  3.4116  2.7848
 7676SOL    HW223928   3.407   2.431   6.283 -0.7588 -1.2000  2.4574
 7677SOL     OW23929   0.961   5.374   1.696 -0.0275 -0.3912 -0.1751
 7677SOL    HW123930   0.935   5.277   1.701  0.7491 -0.6195 -0.3689
 7677SOL    HW223931   1.019   5.388   1.616  0.6648  0.0471  0.3947
 7678SOL     OW23932   4.628   1.480   4.916 -0.7550  0.5469  0.4921
 7678SOL    HW123933   4.618   1.452   5.011  0.2064 -0.6978  0.2501
 7678SOL    HW223934   4.590   1.410   4.856  1.3702 -0.1685 -0.1108
 7679SOL     OW23935   3.383   1.384   3.319 -1.1878 -0.3168 -0.7173
 7679SOL    HW123936   3.414   1.338   3.235 -1.7348 -0.8935 -0.6111
 7679SOL    HW223937   3.326   1.321   3.372 -0.9161  0.0768  0.0467
 7680SOL     OW23938   0.885   6.016   5.058  0.2296  0.0098  0.0780
 7680SOL    HW123939   0.854   5.957   4.983  0.4695  1.4324 -1.2077
 7680SOL    HW223940   0.844   5.986   5.144  0.5209 -2.1270 -0.4797
 7681SOL     OW23941   2.196   2.779   6.229 -0.4821  0.9152 -0.3801
 7681SOL    HW123942   2.292   2.793   6.251 -0.3707 -0.3098  0.0004
 7681SOL    HW223943   2.184   2.780   6.130  0.1232  0.0200 -0.4806
 7682SOL     OW23944   2.273   0.170   1.321  0.3207 -0.1632 -0.0556
 7682SOL    HW123945   2.284   0.107   1.398 -0.7724  1.1263  1.2060
 7682SOL    HW223946   2.307   0.261   1.347 -2.4953  0.9987 -0.0587
 7683SOL     OW23947   6.327   3.744   5.166 -0.5096 -0.4820 -0.6294
 7683SOL    HW123948   6.246   3.686   5.178  0.3515 -1.3792  1.4290
 7683SOL    HW223949   6.401   3.690   5.127 -0.0851 -0.4282  0.0906
 7684SOL     OW23950   4.069   4.177   1.031 -1.0269 -0.0535 -0.4804
 7684SOL    HW123951   3.978   4.136   1.025 -0.7694 -0.8201  0.5253
 7684SOL    HW223952   4.065   4.258   1.089 -1.3420  0.7828 -1.6466
 7685SOL     OW23953   6.046   0.021   0.353  0.1663  0.0841  0.7484
 7685SOL    HW123954   6.098  -0.030   0.284 -0.2055 -0.0253  0.5425
 7685SOL    HW223955   6.102   0.034   0.435 -0.1951 -1.9212  1.3744
 7686SOL     OW23956   0.490   6.038   5.863  0.4000  0.2577  0.7725
 7686SOL    HW123957   0.501   6.012   5.767 -2.4527  0.4444  0.2929
 7686SOL    HW223958   0.556   6.110   5.886  2.3004 -0.9869 -0.4930
 7687SOL     OW23959   6.349   3.060   6.808  0.0395 -0.0936  0.4597
 7687SOL    HW123960   6.284   2.988   6.829  0.2851 -0.3715  0.2757
 7687SOL    HW223961   6.391   3.043   6.719  0.2586  0.1587  0.5102
 7688SOL     OW23962   0.046   3.283   1.189  0.0615 -0.8418 -0.6248
 7688SOL    HW123963   0.109   3.207   1.205  0.6062 -0.6903 -1.8674
 7688SOL    HW223964   0.052   3.348   1.264  1.1746 -0.9891 -0.5725
 7689SOL     OW23965   5.788   5.915   2.702 -0.1417  0.1174  0.4113
 7689SOL    HW123966   5.689   5.930   2.689 -0.3619 -1.2490  0.4105
 7689SOL    HW223967   5.812   5.936   2.797 -0.2568  1.2751  0.2010
 7690SOL     OW23968   6.657   4.572   3.897 -0.1909 -0.1719  0.1826
 7690SOL    HW123969   6.695   4.544   3.985 -3.5149 -0.6936  1.5993
 7690SOL    HW223970   6.696   4.515   3.824  0.9141 -1.3055  1.6139
 7691SOL     OW23971   5.770   3.257   5.185 -0.6556 -0.4638  0.6013
 7691SOL    HW123972   5.685   3.274   5.134 -0.2094  0.4141  0.1337
 7691SOL    HW223973   5.759   3.288   5.279  0.0545  2.4275 -0.1585
 7692SOL     OW23974   2.360   1.406   1.193 -0.2493  0.0187  0.1390
 7692SOL    HW123975   2.307   1.335   1.239 -1.1369  1.2932  1.1442
 7692SOL    HW223976   2.382   1.376   1.100 -1.0393 -1.3488  0.3680
 7693SOL     OW23977   2.018   2.627   6.386  0.2268 -0.2507 -0.0896
 7693SOL    HW123978   2.075   2.678   6.321 -0.2817  2.5774  1.5096
 7693SOL    HW223979   1.925   2.666   6.385 -0.0057 -0.6953  1.7065
 7694SOL     OW23980   4.907   3.948   2.286 -0.0225  0.0216 -0.1433
 7694SOL    HW123981   4.939   3.908   2.371  2.1338  0.4242 -0.7117
 7694SOL    HW223982   4.847   4.026   2.305 -0.1823 -0.3685  0.9758
 7695SOL     OW23983   5.814   6.570   5.395 -0.1625 -0.7393 -0.2957
 7695SOL    HW123984   5.856   6.480   5.387  0.8022 -0.3743  0.4210
 7695SOL    HW223985   5.876   6.631   5.445 -1.0198  0.1744 -0.3195
 7696SOL     OW23986   2.635   1.544   0.754 -0.2448 -0.3414  0.5747
 7696SOL    HW123987   2.660   1.447   0.761 -2.0783 -1.0954 -2.0658
 7696SOL    HW223988   2.715   1.597   0.725  0.1328 -1.5124 -0.5939
 7697SOL     OW23989   5.552   1.953   2.854 -0.3331  0.0875 -0.3818
 7697SOL    HW123990   5.642   1.997   2.851  0.7769 -2.1183 -1.6138
 7697SOL    HW223991   5.524   1.927   2.762 -0.8205 -1.9218  0.2778
 7698SOL     OW23992   6.044   0.670   2.971 -0.0380  0.4780 -0.1330
 7698SOL    HW123993   5.949   0.679   3.000 -0.1876 -0.0586 -0.4437
 7698SOL    HW223994   6.061   0.576   2.942  0.9936  0.1741  1.3454
 7699SOL     OW23995   3.792   0.255   6.710 -0.1395 -0.1972 -0.6157
 7699SOL    HW123996   3.811   0.225   6.803  0.5209  0.5000 -0.5084
 7699SOL    HW223997   3.709   0.309   6.708  0.3366  0.5655 -0.2536
 7700SOL     OW23998   5.086   5.239   1.356 -0.5430 -0.4781  0.6814
 7700SOL    HW123999   5.010   5.295   1.389 -0.5785 -0.0838 -0.0301
 7700SOL    HW224000   5.063   5.202   1.266  0.7909  1.1775 -0.4300
 7701SOL     OW24001   2.145   1.364   0.159 -0.1653  0.7118 -0.5203
 7701SOL    HW124002   2.230   1.344   0.110 -0.8933 -2.0171 -0.7757
 7701SOL    HW224003   2.165   1.428   0.234  2.8186 -2.0635  1.3218
 7702SOL     OW24004   0.846   6.152   3.932 -0.1585 -0.3458  0.0128
 7702SOL    HW124005   0.771   6.175   3.994 -1.5013 -1.2538 -1.2277
 7702SOL    HW224006   0.820   6.175   3.839  1.4751  0.1266 -0.3509
 7703SOL     OW24007   6.764   5.927   1.516 -0.6669 -0.8184 -0.4024
 7703SOL    HW124008   6.736   5.979   1.596  0.2056 -0.4497 -0.3174
 7703SOL    HW224009   6.852   5.962   1.483  0.8387 -3.3120  0.6692
 7704SOL     OW24010   2.885   2.185   3.227 -0.0374  0.0156  0.8550
 7704SOL    HW124011   2.888   2.220   3.320  1.3235  0.7120  0.5686
 7704SOL    HW224012   2.977   2.163   3.196 -0.5255 -0.7173 -0.1471
 7705SOL     OW24013   1.393   5.046   1.798 -0.0325 -0.1736 -1.0414
 7705SOL    HW124014   1.408   4.949   1.779  1.2596 -0.6469  1.8250
 7705SOL    HW224015   1.447   5.073   1.878 -0.7968  2.8002 -1.4034
 7706SOL     OW24016   3.854   4.280   1.413 -0.5101  0.0642  0.5391
 7706SOL    HW124017   3.776   4.264   1.352 -1.0442  1.8600  0.7169
 7706SOL    HW224018   3.886   4.192   1.448 -1.7018 -0.8098 -0.4560
 7707SOL     OW24019   0.069   5.602   4.412 -0.1403  0.2292  0.0796
 7707SOL    HW124020   0.098   5.634   4.502  0.1612  1.7560 -0.5389
 7707SOL    HW224021   0.011   5.671   4.369 -1.4142 -1.0634 -0.3608
 7708SOL     OW24022   2.156   1.271   3.046 -0.1127 -0.2522  0.2209
 7708SOL    HW124023   2.139   1.363   3.012 -0.0508 -0.5886 -0.7750
 7708SOL    HW224024   2.094   1.207   3.000 -0.9147 -0.5803  1.6964
 7709SOL     OW24025   5.870   6.025   1.242 -0.9245  0.4929  0.1750
 7709SOL    HW124026   5.841   6.017   1.147 -1.1066 -0.8475  0.3256
 7709SOL    HW224027   5.965   5.996   1.252 -0.1574  2.7916  0.0531
 7710SOL     OW24028   6.899   5.146   4.803  0.2134  0.0772 -0.0741
 7710SOL    HW124029   6.972   5.203   4.767  0.5058  0.2767  0.7992
 7710SOL    HW224030   6.815   5.201   4.812  0.9648  0.9717  2.5142
 7711SOL     OW24031   0.311   3.441   6.208  0.2773  0.3338 -0.5079
 7711SOL    HW124032   0.408   3.448   6.186  0.4980  1.6041  0.7005
 7711SOL    HW224033   0.300   3.440   6.307 -0.8305 -2.2448 -0.5739
 7712SOL     OW24034   5.555   6.308   5.057 -0.0963  0.0579 -0.1213
 7712SOL    HW124035   5.487   6.292   5.129 -1.7405  1.2964 -1.3249
 7712SOL    HW224036   5.589   6.220   5.023  0.0970 -0.5590  1.5481
 7713SOL     OW24037   1.361   6.229   6.952 -0.3236  0.3965 -0.3883
 7713SOL    HW124038   1.398   6.173   6.878 -0.9907  0.6671 -0.9300
 7713SOL    HW224039   1.407   6.205   7.038  3.0304  2.4938 -1.4028
 7714SOL     OW24040   6.481   0.811   2.631  0.1979  0.5276  0.1709
 7714SOL    HW124041   6.574   0.774   2.639  0.5875  0.9033 -2.0255
 7714SOL    HW224042   6.462   0.871   2.709  2.0388  0.9749  0.3175
 7715SOL     OW24043   4.821   5.763   5.573 -0.2564 -0.2594 -0.7804
 7715SOL    HW124044   4.851   5.758   5.478  1.1794  1.2209 -0.4666
 7715SOL    HW224045   4.895   5.802   5.629 -1.7566  0.7667  0.5994
 7716SOL     OW24046   1.862   1.687   6.966 -0.8724 -0.1800  0.4485
 7716SOL    HW124047   1.846   1.784   6.979  0.4892  0.0783  0.3402
 7716SOL    HW224048   1.843   1.662   6.871 -1.7623 -0.1408  0.6138
 7717SOL     OW24049   6.269   2.483   4.920 -0.5509  0.6329 -0.3259
 7717SOL    HW124050   6.208   2.403   4.919 -0.0570  0.1821 -2.8614
 7717SOL    HW224051   6.329   2.479   4.999 -0.9290 -1.2090 -0.0910
 7718SOL     OW24052   0.067   4.927   3.354 -0.1905 -0.3524  0.2129
 7718SOL    HW124053   0.156   4.948   3.316 -0.1589 -0.4922  0.2102
 7718SOL    HW224054   0.007   5.008   3.346 -0.0623 -0.2555  0.2265
 7719SOL     OW24055   1.336   4.841   5.701  0.5209  0.1926 -0.0833
 7719SOL    HW124056   1.287   4.754   5.693  1.0456 -0.2165  1.0040
 7719SOL    HW224057   1.407   4.845   5.630 -0.9382  0.7249 -1.5741
 7720SOL     OW24058   3.545   2.012   1.463 -0.8617 -0.2615 -0.4576
 7720SOL    HW124059   3.610   1.991   1.536 -0.2370 -0.7730 -1.1408
 7720SOL    HW224060   3.589   2.071   1.395 -2.5381  3.5057  1.3865
 7721SOL     OW24061   6.124   5.223   1.579  0.7148 -0.2115  0.4608
 7721SOL    HW124062   6.195   5.188   1.518  0.6193  0.0608  0.1870
 7721SOL    HW224063   6.142   5.320   1.599 -0.3010  0.2563 -0.7154
 7722SOL     OW24064   1.612   5.939   3.556  0.3362 -0.2576 -0.3925
 7722SOL    HW124065   1.573   6.018   3.508 -1.1656  0.1564  1.4063
 7722SOL    HW224066   1.599   5.857   3.500 -1.8627  0.1113 -0.5175
 7723SOL     OW24067   5.046   5.357   6.372  0.6228 -0.1530 -0.0108
 7723SOL    HW124068   5.020   5.394   6.283 -0.4911 -0.3461  0.2083
 7723SOL    HW224069   5.016   5.262   6.378  1.1954 -0.3144  0.3632
 7724SOL     OW24070   2.751   5.013   0.825  0.5491  0.4771  0.0327
 7724SOL    HW124071   2.750   5.102   0.780  0.1087 -0.2263 -1.4108
 7724SOL    HW224072   2.659   4.990   0.855  0.9313  1.1922  1.8805
 7725SOL     OW24073   3.765   1.868   3.788  0.0761  0.4706  0.5535
 7725SOL    HW124074   3.818   1.912   3.860  0.1634  1.4345 -0.0802
 7725SOL    HW224075   3.687   1.820   3.828  0.3339  0.6827  1.3144
 7726SOL     OW24076   6.573   2.793   5.245  0.2080 -0.4591  0.3161
 7726SOL    HW124077   6.581   2.733   5.324 -0.9160  1.0423  1.6325
 7726SOL    HW224078   6.584   2.888   5.274 -1.9020  0.2602 -1.0045
 7727SOL     OW24079   0.376   5.707   4.399  0.5195  0.5628  0.7142
 7727SOL    HW124080   0.409   5.751   4.316  1.8870 -0.3020  0.7669
 7727SOL    HW224081   0.409   5.757   4.479  2.6282 -0.8436  0.7890
 7728SOL     OW24082   2.899   3.151   6.146  0.1341 -0.2834 -0.1377
 7728SOL    HW124083   2.956   3.098   6.209 -0.2682 -0.7223 -0.1348
 7728SOL    HW224084   2.955   3.216   6.096  0.3593  0.6474  1.2539
 7729SOL     OW24085   1.525   1.963   0.012  0.3385 -0.3056  0.1994
 7729SOL    HW124086   1.612   1.998   0.046 -0.3790  2.1002 -0.2661
 7729SOL    HW224087   1.541   1.893  -0.057  1.9689  1.3980 -1.2214
 7730SOL     OW24088   3.734   3.654   0.038  0.0839 -0.0745  0.2085
 7730SOL    HW124089   3.817   3.617  -0.003  0.6102 -0.1018  1.2666
 7730SOL    HW224090   3.757   3.705   0.121 -0.8027  1.1678 -0.2614
 7731SOL     OW24091   5.751   1.123   1.096 -0.3877 -0.1357  0.1756
 7731SOL    HW124092   5.829   1.155   1.042 -1.0064  0.7742 -0.1991
 7731SOL    HW224093   5.779   1.115   1.192 -0.0022  0.8468  0.1611
 7732SOL     OW24094   4.074   0.229   0.292  0.4402 -0.4824  0.7853
 7732SOL    HW124095   4.121   0.184   0.216  1.5819 -0.1591  1.2917
 7732SOL    HW224096   4.122   0.312   0.317 -1.6229  1.0803 -0.1064
 7733SOL     OW24097   5.495   6.772   0.075  0.3488  0.1272 -0.1428
 7733SOL    HW124098   5.546   6.727   0.149  0.8979  1.3003  0.2084
 7733SOL    HW224099   5.413   6.815   0.113 -0.6046 -1.2145 -0.6075
 7734SOL     OW24100   3.511   3.644   4.482 -0.2155  1.1577  0.0514
 7734SOL    HW124101   3.609   3.633   4.497 -0.3347  2.2953  1.9529
 7734SOL    HW224102   3.492   3.739   4.457 -0.6160  0.4248 -2.7721
 7735SOL     OW24103   0.948   5.519   1.293 -0.1747 -0.6485 -0.3239
 7735SOL    HW124104   1.013   5.494   1.222 -0.9862 -0.3659 -1.1911
 7735SOL    HW224105   0.973   5.475   1.379  0.8824 -0.9112 -0.7517
 7736SOL     OW24106   1.943   2.320   5.867 -0.5785 -0.3878 -0.0549
 7736SOL    HW124107   2.035   2.348   5.842  0.0191 -1.9893  0.1924
 7736SOL    HW224108   1.910   2.376   5.943 -0.0722  0.6103 -0.5589
 7737SOL     OW24109   4.402   4.141   0.342 -0.5483 -0.0343 -0.3301
 7737SOL    HW124110   4.325   4.152   0.278  0.2281  0.8668 -1.1496
 7737SOL    HW224111   4.474   4.088   0.298 -0.5503 -0.5709  0.3079
 7738SOL     OW24112   2.098   1.987   5.800  0.4569  0.0635 -0.0352
 7738SOL    HW124113   2.127   2.077   5.767 -1.8351  0.4897 -1.0948
 7738SOL    HW224114   2.107   1.982   5.899  0.5951  1.4657  0.0315
 7739SOL     OW24115   6.057   4.293   0.078  0.1911  0.8781  0.0767
 7739SOL    HW124116   6.056   4.375   0.019 -0.9910  0.8880  0.0939
 7739SOL    HW224117   6.129   4.303   0.147  0.6667  1.4911 -0.4882
 7740SOL     OW24118   2.076   1.239   3.984 -0.0214  0.4348 -0.5745
 7740SOL    HW124119   2.026   1.156   4.008  1.5981 -1.1521 -2.2967
 7740SOL    HW224120   2.015   1.301   3.935 -1.7606  1.1932  2.2847
 7741SOL     OW24121   0.320   4.694   0.999 -0.1514  0.6631  0.1443
 7741SOL    HW124122   0.392   4.739   1.052  2.5919 -0.7465 -2.1354
 7741SOL    HW224123   0.231   4.713   1.041  1.4777  2.5201  3.0947
 7742SOL     OW24124   3.769   0.488   3.743 -0.2705  0.0149 -0.3164
 7742SOL    HW124125   3.692   0.524   3.690 -0.4248 -0.2423 -0.2672
 7742SOL    HW224126   3.738   0.411   3.799 -0.3793  1.0057  1.0360
 7743SOL     OW24127   3.707   2.964   1.094  0.2850  0.2168  0.1219
 7743SOL    HW124128   3.678   3.056   1.121 -0.6770  0.0746 -0.4023
 7743SOL    HW224129   3.778   2.932   1.157  1.1245  1.5884 -0.0960
 7744SOL     OW24130   0.203   6.030   4.517  0.3516 -1.0627 -0.2312
 7744SOL    HW124131   0.221   5.956   4.581  1.0239  1.4398  2.7273
 7744SOL    HW224132   0.106   6.030   4.492  0.3285 -2.8543 -0.2532
 7745SOL     OW24133   4.531   1.143   0.385  0.1531 -0.0926 -0.3150
 7745SOL    HW124134   4.592   1.221   0.369  0.0628 -0.1549 -1.0240
 7745SOL    HW224135   4.495   1.147   0.478  0.4138  0.5235 -0.2330
 7746SOL     OW24136   1.166   4.720   1.425 -0.1114  0.0171  0.3176
 7746SOL    HW124137   1.119   4.732   1.512 -0.9416 -0.7922  0.0050
 7746SOL    HW224138   1.207   4.628   1.422  2.1419  0.9406  0.8629
 7747SOL     OW24139   1.508   5.087   2.042  0.1327  0.7470 -0.0053
 7747SOL    HW124140   1.601   5.119   2.026  0.7131 -1.1475 -0.7681
 7747SOL    HW224141   1.467   5.138   2.118  2.2358  0.7725  1.1803
 7748SOL     OW24142   5.628   2.911   3.844  0.4554  0.1602  0.0741
 7748SOL    HW124143   5.621   2.825   3.896 -2.2837 -1.1396 -2.1687
 7748SOL    HW224144   5.682   2.895   3.761 -0.0539  0.6163 -0.3496
 7749SOL     OW24145   3.491   3.463   4.277  0.0944  0.3316 -0.0672
 7749SOL    HW124146   3.503   3.540   4.214  3.1302  1.3331  1.5145
 7749SOL    HW224147   3.477   3.498   4.369  2.0248 -0.9120  0.7694
 7750SOL     OW24148   4.429   4.687   6.566  0.0223 -0.4424  0.1121
 7750SOL    HW124149   4.411   4.779   6.599  1.3091 -0.4242  0.8141
 7750SOL    HW224150   4.425   4.686   6.466  1.4015  0.7198  0.0169
 7751SOL     OW24151   2.694   1.757   3.442 -0.0019  0.4736 -0.1244
 7751SOL    HW124152   2.597   1.782   3.446  0.4123  2.1516  0.4304
 7751SOL    HW224153   2.706   1.681   3.379 -1.8735 -0.8646  1.0023
 7752SOL     OW24154   5.303   6.225   5.185  0.1917  0.7335 -0.1148
 7752SOL    HW124155   5.242   6.249   5.110  1.3360 -0.1037 -1.3675
 7752SOL    HW224156   5.291   6.129   5.209  1.2296  0.4441 -0.6461
 7753SOL     OW24157   0.089   2.478   5.410 -0.2186  0.5408  0.4377
 7753SOL    HW124158   0.060   2.405   5.472  2.4117 -0.0582  1.0616
 7753SOL    HW224159   0.153   2.441   5.342  0.1482  2.0201 -0.0607
 7754SOL     OW24160   1.360   0.516   6.510  0.0956 -0.2776  0.0688
 7754SOL    HW124161   1.292   0.446   6.488 -2.2766  1.7216  0.4756
 7754SOL    HW224162   1.414   0.488   6.588 -0.1222 -2.0379 -0.3811
 7755SOL     OW24163   2.413   6.845   5.639  0.1492  0.6403 -0.1140
 7755SOL    HW124164   2.415   6.910   5.715  0.7115  0.2501  0.2081
 7755SOL    HW224165   2.320   6.810   5.628  0.4148 -0.7421  1.6270
 7756SOL     OW24166   3.370   6.594   3.025 -0.0895  0.7527 -0.3786
 7756SOL    HW124167   3.442   6.663   3.011  0.4586  0.4370  0.7035
 7756SOL    HW224168   3.411   6.512   3.065 -0.8508  0.0555 -1.0076
 7757SOL     OW24169   2.215   3.008   5.505  0.3451 -0.1193  0.3743
 7757SOL    HW124170   2.141   3.044   5.562  2.1108  0.2395  2.5971
 7757SOL    HW224171   2.265   3.085   5.463  0.5016 -0.2749  0.2734
 7758SOL     OW24172   3.195   0.737   6.027  0.0923 -0.6126  0.4640
 7758SOL    HW124173   3.125   0.784   6.080  0.2323 -0.9835  0.9771
 7758SOL    HW224174   3.159   0.651   5.992  0.5437 -1.2026  1.4225
 7759SOL     OW24175   0.926   6.453   3.985  0.6371 -0.4427 -0.0670
 7759SOL    HW124176   0.868   6.448   3.904  0.9850 -0.3956 -0.3195
 7759SOL    HW224177   1.015   6.413   3.965  1.5560  1.6498 -0.4386
 7760SOL     OW24178   1.226   1.250   3.109  0.1897  0.3107  0.0340
 7760SOL    HW124179   1.308   1.306   3.093 -0.6327  1.4874 -0.1637
 7760SOL    HW224180   1.242   1.189   3.187  0.7813  1.4775  0.8512
 7761SOL     OW24181   3.640   1.473   6.466  0.3140 -0.2997 -0.5488
 7761SOL    HW124182   3.571   1.501   6.532 -0.6108 -0.2642 -1.5039
 7761SOL    HW224183   3.672   1.553   6.414  2.6317  0.0573  1.2632
 7762SOL     OW24184   2.138   3.832   6.450 -0.1112  0.1332 -0.1031
 7762SOL    HW124185   2.155   3.917   6.500  3.0412 -0.0046 -0.7436
 7762SOL    HW224186   2.082   3.771   6.506 -1.4971  2.1495  0.8194
 7763SOL     OW24187   1.925   2.604   5.468 -0.4121 -0.4654  0.1562
 7763SOL    HW124188   2.003   2.626   5.410 -1.4843  1.5373 -0.6192
 7763SOL    HW224189   1.935   2.511   5.504  2.6094 -0.0666  0.5822
 7764SOL     OW24190   3.459   3.546   2.679 -0.1853 -0.4821 -0.1012
 7764SOL    HW124191   3.370   3.587   2.660  0.4892  1.5726  0.9439
 7764SOL    HW224192   3.447   3.470   2.744 -1.2241 -0.6303 -0.4487
 7765SOL     OW24193   2.400   1.471   0.901  0.1062 -0.2798  0.2191
 7765SOL    HW124194   2.344   1.441   0.824 -0.0805 -4.1282  1.6193
 7765SOL    HW224195   2.492   1.492   0.870 -0.5913  0.6022 -1.3341
 7766SOL     OW24196   2.473   3.900   6.718 -0.5297 -0.1033  0.3294
 7766SOL    HW124197   2.434   3.808   6.707  1.8854 -1.2798  0.8358
 7766SOL    HW224198   2.473   3.925   6.815  1.9711 -1.1765  0.6930
 7767SOL     OW24199   5.759   4.446   5.723  0.5399  0.1065 -0.0440
 7767SOL    HW124200   5.722   4.511   5.789  0.5203 -0.6151  0.6755
 7767SOL    HW224201   5.833   4.394   5.765  1.1727  0.2957 -0.9045
 7768SOL     OW24202   3.571   4.645   1.549 -0.1553 -0.6760 -0.5232
 7768SOL    HW124203   3.551   4.643   1.646 -1.9613 -0.0877 -0.8549
 7768SOL    HW224204   3.532   4.727   1.508  0.1361 -1.1576 -1.8341
 7769SOL     OW24205   3.888   2.136   2.149  0.6431  0.2550 -0.4275
 7769SOL    HW124206   3.805   2.173   2.106 -0.7285 -0.7645  1.2162
 7769SOL    HW224207   3.894   2.038   2.130  2.1090  0.5079 -1.4408
 7770SOL     OW24208   4.268   0.252   0.041  0.0142 -0.6716  0.1829
 7770SOL    HW124209   4.254   0.221  -0.053 -2.0624  0.2573  0.1278
 7770SOL    HW224210   4.224   0.341   0.053  0.0337 -0.8864  2.1032
 7771SOL     OW24211   2.848   1.011   5.913  0.1337  0.4505 -0.1480
 7771SOL    HW124212   2.806   1.101   5.911  0.4385  0.6206  0.7111
 7771SOL    HW224213   2.947   1.020   5.908  0.5028  0.4859  4.0597
 7772SOL     OW24214   4.465   0.431   6.394 -0.7047  0.0070 -0.0908
 7772SOL    HW124215   4.507   0.343   6.374 -2.1958 -1.2814  2.0766
 7772SOL    HW224216   4.380   0.440   6.342  0.3345  1.0474 -1.7175
 7773SOL     OW24217   5.668   4.548   6.069 -0.2319  0.3053  0.1658
 7773SOL    HW124218   5.661   4.606   5.988  0.8031 -1.0905 -0.9851
 7773SOL    HW224219   5.576   4.525   6.101 -0.6709  2.4916  0.6450
 7774SOL     OW24220   3.431   1.737   5.809 -0.4141  0.2606 -0.1071
 7774SOL    HW124221   3.493   1.659   5.800  0.5323  1.0795 -0.9353
 7774SOL    HW224222   3.480   1.814   5.850 -0.8407  0.9469 -0.8542
 7775SOL     OW24223   0.169   0.867   1.355 -0.1970 -0.0816  0.1920
 7775SOL    HW124224   0.081   0.820   1.349 -1.1454  1.3339  1.9732
 7775SOL    HW224225   0.187   0.891   1.450  1.7613  0.3596 -0.2601
 7776SOL     OW24226   3.349   4.460   1.688  0.8052  0.0181  0.1817
 7776SOL    HW124227   3.261   4.504   1.703  1.3332  1.4621 -0.7899
 7776SOL    HW224228   3.422   4.512   1.733  1.1925 -1.1455  0.9579
 7777SOL     OW24229   0.036   0.662   5.355  0.1664  0.1855 -0.6580
 7777SOL    HW124230   0.115   0.712   5.321  0.7400  0.4680  0.9779
 7777SOL    HW224231   0.041   0.656   5.455 -0.4564 -2.2175 -0.7214
 7778SOL     OW24232   4.883   3.611   2.564 -0.1203  0.3517  0.3667
 7778SOL    HW124233   4.907   3.535   2.504  2.2647  0.0436  1.6134
 7778SOL    HW224234   4.799   3.588   2.613  0.6313 -1.6084  0.8583
 7779SOL     OW24235   3.918   2.648   6.176  0.4357  0.7085  0.5644
 7779SOL    HW124236   3.981   2.577   6.208  0.9387  0.9101  0.0244
 7779SOL    HW224237   3.958   2.696   6.099 -1.1304 -0.3918 -1.0082
 7780SOL     OW24238   2.686   0.507   4.392 -0.2278 -0.1570 -0.0833
 7780SOL    HW124239   2.609   0.553   4.349  0.6114  0.5194 -0.9289
 7780SOL    HW224240   2.727   0.568   4.460  0.8655  0.3919 -1.1809
 7781SOL     OW24241   4.757   4.757   5.668 -0.6784  0.6303  0.3654
 7781SOL    HW124242   4.694   4.680   5.657 -0.6462  0.6496  0.0585
 7781SOL    HW224243   4.762   4.809   5.583 -0.8052  1.0532  0.6111
 7782SOL     OW24244   0.239   5.060   6.814  0.1480  0.1948 -0.1143
 7782SOL    HW124245   0.246   5.119   6.734  0.4663  1.5732  0.8956
 7782SOL    HW224246   0.142   5.047   6.838  0.0577 -0.1190 -0.6259
 7783SOL     OW24247   3.956   5.040   6.098 -0.2701 -0.8078  0.6146
 7783SOL    HW124248   4.025   4.969   6.099 -0.2968 -0.8428  0.0433
 7783SOL    HW224249   3.909   5.041   6.010  0.5473  0.7057  0.1701
 7784SOL     OW24250   5.540   1.498   0.151 -0.2008  0.1639  0.2349
 7784SOL    HW124251   5.481   1.577   0.167  1.5061  1.8041 -1.0453
 7784SOL    HW224252   5.487   1.425   0.109 -1.3573  1.6200 -0.9860
 7785SOL     OW24253   0.513   6.900   6.158  0.0505 -0.3503 -0.2277
 7785SOL    HW124254   0.482   6.805   6.153  1.1985 -0.7522  0.0298
 7785SOL    HW224255   0.606   6.903   6.194  1.4969  0.5403 -3.6085
 7786SOL     OW24256   3.305   3.854   5.189 -0.4639  0.0629 -0.5782
 7786SOL    HW124257   3.342   3.921   5.253  0.2381 -0.5212 -0.3644
 7786SOL    HW224258   3.296   3.896   5.099  3.6418 -0.5164 -1.4638
 7787SOL     OW24259   3.358   2.554   5.328  0.0230 -0.6909 -0.0138
 7787SOL    HW124260   3.273   2.602   5.349  0.4030  0.7138 -1.5076
 7787SOL    HW224261   3.336   2.464   5.288 -0.8013 -0.0632 -1.0188
 7788SOL     OW24262   1.958   2.576   1.249 -0.0015 -0.2849 -0.0540
 7788SOL    HW124263   1.922   2.549   1.338 -1.0882 -0.0906 -0.4206
 7788SOL    HW224264   2.044   2.626   1.261 -0.7954  0.9057  0.9968
 7789SOL     OW24265   2.286   0.860   1.559 -0.0012 -0.0440  0.3213
 7789SOL    HW124266   2.358   0.909   1.509  0.6066 -1.3623 -0.1415
 7789SOL    HW224267   2.293   0.882   1.657  1.3140 -0.4583  0.3448
 7790SOL     OW24268   6.221   4.125   4.214 -0.0619 -0.0780  0.2612
 7790SOL    HW124269   6.242   4.213   4.256  1.3867 -0.4571  0.3705
 7790SOL    HW224270   6.184   4.139   4.122 -0.2120  0.6468  0.4325
 7791SOL     OW24271   5.777   6.508   5.100  0.5397 -0.4468 -0.6941
 7791SOL    HW124272   5.695   6.450   5.097  1.1347 -1.5526  1.9519
 7791SOL    HW224273   5.798   6.531   5.194  2.2471  1.4132 -1.4569
 7792SOL     OW24274   2.237   5.119   0.180 -0.0182  0.1584 -0.2719
 7792SOL    HW124275   2.138   5.128   0.169  0.1611  1.2917 -1.1273
 7792SOL    HW224276   2.278   5.210   0.187  1.0396 -0.2752 -0.6481
 7793SOL     OW24277   1.830   6.338   6.699  0.2396  0.2695 -0.1827
 7793SOL    HW124278   1.778   6.413   6.659 -1.6241 -1.2432 -0.7594
 7793SOL    HW224279   1.926   6.364   6.707 -0.4245  2.8882  0.1751
 7794SOL     OW24280   5.153   3.836   3.895 -0.3326  0.2453  0.2048
 7794SOL    HW124281   5.181   3.754   3.945 -0.6479  0.4177  0.6680
 7794SOL    HW224282   5.091   3.890   3.952 -2.0113 -0.3677 -0.9680
 7795SOL     OW24283   1.295   2.455   6.172  0.1612  0.2000 -0.0487
 7795SOL    HW124284   1.335   2.370   6.205 -1.1597 -0.9471 -1.2431
 7795SOL    HW224285   1.353   2.493   6.100  0.6457  0.2003  0.3383
 7796SOL     OW24286   3.719   3.337   4.354 -0.1686  0.4393 -0.3117
 7796SOL    HW124287   3.637   3.375   4.312  0.7614  0.4525 -2.1897
 7796SOL    HW224288   3.750   3.397   4.428 -0.3897  1.7837 -1.2927
 7797SOL     OW24289   1.869   6.549   4.391 -0.0929  0.2144  0.0686
 7797SOL    HW124290   1.855   6.560   4.293  0.1495 -2.3310 -0.3148
 7797SOL    HW224291   1.798   6.600   4.441 -0.9928  0.5031 -1.4591
 7798SOL     OW24292   4.436   0.413   0.557  0.0769  0.6912  0.7248
 7798SOL    HW124293   4.340   0.433   0.575 -0.0030  1.2782 -0.2465
 7798SOL    HW224294   4.462   0.453   0.469  0.8565 -0.6144  0.3391
 7799SOL     OW24295   0.329   5.688   0.200 -0.4273 -0.1284  0.1010
 7799SOL    HW124296   0.380   5.740   0.132 -0.3667  3.5859  2.6455
 7799SOL    HW224297   0.392   5.646   0.265 -0.5457 -1.7324 -0.7722
 7800SOL     OW24298   1.275   6.660   1.460 -0.9843 -0.1689  0.0407
 7800SOL    HW124299   1.266   6.717   1.541 -1.7761  0.7458 -0.6642
 7800SOL    HW224300   1.204   6.589   1.462 -1.1284 -0.0248  0.0542
 7801SOL     OW24301   3.477   2.185   0.369  0.6602  0.2436  0.3200
 7801SOL    HW124302   3.504   2.091   0.348  1.0033  0.4611 -0.2316
 7801SOL    HW224303   3.410   2.184   0.443  1.0417 -0.4023  0.6687
 7802SOL     OW24304   5.554   0.507   5.294  0.8405 -0.5747 -0.7780
 7802SOL    HW124305   5.621   0.552   5.236  0.8513 -1.8070 -1.7663
 7802SOL    HW224306   5.580   0.411   5.307 -0.3816 -0.9064 -0.6393
 7803SOL     OW24307   5.653   1.479   5.941 -0.5758  0.1345  0.3777
 7803SOL    HW124308   5.653   1.505   6.037 -0.1177 -0.2192  0.4814
 7803SOL    HW224309   5.680   1.382   5.933  0.9577  0.5698 -0.1990
 7804SOL     OW24310   4.823   0.967   5.302 -0.2386  0.2426 -0.1029
 7804SOL    HW124311   4.889   0.903   5.263  0.1714  1.4821 -1.5657
 7804SOL    HW224312   4.824   0.960   5.402 -0.4431 -2.2132 -0.2083
 7805SOL     OW24313   6.760   2.431   2.694  0.5018 -0.1895 -0.0741
 7805SOL    HW124314   6.750   2.529   2.712  1.5966 -0.2348  0.9164
 7805SOL    HW224315   6.752   2.413   2.596 -2.6303  0.4949 -0.0518
 7806SOL     OW24316   3.409   3.514   1.419  0.4386 -0.0725 -0.8081
 7806SOL    HW124317   3.508   3.518   1.436  0.5348  0.4136 -1.4299
 7806SOL    HW224318   3.370   3.438   1.470  1.1249 -0.2299 -0.4974
 7807SOL     OW24319   1.097   4.621   6.734  0.5310 -0.3323 -0.3010
 7807SOL    HW124320   1.057   4.709   6.758  0.6216 -0.4693  0.3853
 7807SOL    HW224321   1.130   4.623   6.640 -4.3173 -1.2917 -2.3488
 7808SOL     OW24322   1.062   1.955   5.205  0.0089 -0.0859 -0.3992
 7808SOL    HW124323   1.091   2.049   5.191 -1.5394  0.9755  2.5957
 7808SOL    HW224324   1.124   1.910   5.269 -0.2274 -0.5228 -0.4716
 7809SOL     OW24325   3.487   5.482   5.957  0.0301  0.0652  0.5778
 7809SOL    HW124326   3.496   5.416   6.030 -2.0697 -0.4066  0.4700
 7809SOL    HW224327   3.510   5.574   5.991  0.7538 -0.3866  1.3278
 7810SOL     OW24328   2.448   1.830   6.961  0.2970  0.2969  0.0504
 7810SOL    HW124329   2.495   1.755   6.915 -1.2694 -0.2999 -0.6575
 7810SOL    HW224330   2.473   1.830   7.058 -1.9793 -3.2268  0.8596
 7811SOL     OW24331   0.841   4.890   3.601 -0.5313  0.1028 -0.2380
 7811SOL    HW124332   0.909   4.916   3.532 -0.4185  1.5242  0.3731
 7811SOL    HW224333   0.858   4.796   3.631  0.3261 -0.0228 -1.0698
 7812SOL     OW24334   0.808   6.834   1.922 -0.0875 -0.3352 -0.4425
 7812SOL    HW124335   0.737   6.888   1.966  0.6440  0.0725  0.2838
 7812SOL    HW224336   0.768   6.775   1.852 -1.1585 -0.2979  0.1204
 7813SOL     OW24337   5.675   0.429   2.795 -0.5689  0.1300  0.4776
 7813SOL    HW124338   5.659   0.421   2.697 -0.4063  0.9736  0.3761
 7813SOL    HW224339   5.591   0.405   2.845 -0.6391 -0.3375  0.1445
 7814SOL     OW24340   1.888   1.722   2.236 -0.1275  0.1999 -0.0263
 7814SOL    HW124341   1.801   1.743   2.192 -0.1840  0.4178  0.1858
 7814SOL    HW224342   1.879   1.734   2.335  0.2796  0.6955 -0.0477
 7815SOL     OW24343   5.870   3.103   3.370 -1.0255  0.6760 -0.6042
 7815SOL    HW124344   5.959   3.063   3.392  0.9444  3.3459 -2.8755
 7815SOL    HW224345   5.828   3.139   3.453  0.0112 -0.6357  0.5409
 7816SOL     OW24346   0.827   5.099   5.276 -0.0181 -0.4309 -0.0588
 7816SOL    HW124347   0.798   5.058   5.189  1.9362 -1.2525 -0.3776
 7816SOL    HW224348   0.884   5.179   5.257 -0.5463  0.0984  0.5181
 7817SOL     OW24349   5.032   2.058   3.504  0.5545  0.0604 -0.2618
 7817SOL    HW124350   5.047   1.960   3.516  1.3044  0.0258 -1.3722
 7817SOL    HW224351   5.121   2.105   3.504  0.2485  0.6429 -0.5689
 7818SOL     OW24352   5.375   4.168   1.641  0.1320  0.5122  0.5036
 7818SOL    HW124353   5.412   4.230   1.572 -0.3985  0.3327  0.0514
 7818SOL    HW224354   5.275   4.164   1.633  0.2229 -1.2045 -0.1659
 7819SOL     OW24355   2.089   3.198   0.017  0.1126 -0.2356 -0.8086
 7819SOL    HW124356   2.075   3.102   0.040 -0.2824  0.0102  0.0087
 7819SOL    HW224357   2.073   3.212  -0.081 -1.4390 -0.7070 -0.6403
 7820SOL     OW24358   1.501   6.163   6.421  0.3455  0.1887  0.1911
 7820SOL    HW124359   1.486   6.073   6.462 -2.1842  0.9394  1.0995
 7820SOL    HW224360   1.524   6.153   6.324 -0.8050 -1.4062  0.0500
 7821SOL     OW24361   2.842   6.030   3.424  0.3076 -0.2889 -0.4680
 7821SOL    HW124362   2.908   6.054   3.495  1.1021  1.5040 -1.7268
 7821SOL    HW224363   2.776   6.105   3.414  0.2765 -0.4670 -1.6908
 7822SOL     OW24364   0.325   6.686   4.929  0.0254  0.1799 -0.5122
 7822SOL    HW124365   0.275   6.763   4.970 -0.4943 -0.6892  0.5161
 7822SOL    HW224366   0.357   6.713   4.838 -0.4905  1.4780 -0.3358
 7823SOL     OW24367   0.602   3.736   6.294 -0.4013 -0.1688 -0.0357
 7823SOL    HW124368   0.616   3.758   6.391 -0.5003 -1.7508  0.3706
 7823SOL    HW224369   0.646   3.805   6.237  1.3373 -0.2279  1.1566
 7824SOL     OW24370   6.861   5.303   6.981  0.2539 -0.0325  0.2919
 7824SOL    HW124371   6.909   5.218   7.003  0.3891  0.0944  0.4871
 7824SOL    HW224372   6.925   5.368   6.939 -0.1858 -0.5891 -1.3212
 7825SOL     OW24373   1.496   6.753   6.646  0.6328 -0.3951 -0.6551
 7825SOL    HW124374   1.451   6.692   6.711 -1.3471 -0.0772 -1.6672
 7825SOL    HW224375   1.453   6.843   6.648  1.1208 -0.1104 -1.7571
 7826SOL     OW24376   0.408   3.972   6.324 -0.9383 -0.2162  0.1927
 7826SOL    HW124377   0.434   3.875   6.327  1.0597  0.2784 -0.1200
 7826SOL    HW224378   0.308   3.979   6.324 -1.1372 -2.2274  1.4828
 7827SOL     OW24379   6.796   4.315   3.839 -0.0704 -0.4041 -0.4065
 7827SOL    HW124380   6.747   4.233   3.869 -0.1592 -0.6230 -1.1346
 7827SOL    HW224381   6.750   4.354   3.760 -2.2319  2.5122  2.0832
 7828SOL     OW24382   2.027   5.827   5.674 -0.1729  1.1282  0.3265
 7828SOL    HW124383   2.074   5.739   5.678  1.2447  1.9095  2.1730
 7828SOL    HW224384   1.951   5.828   5.740 -1.0309  0.8745 -0.6219
 7829SOL     OW24385   4.714   5.700   2.108  0.0002  0.4067  0.4601
 7829SOL    HW124386   4.693   5.665   2.017 -2.0523  2.8594 -0.1475
 7829SOL    HW224387   4.800   5.662   2.140  1.0741 -0.1291 -2.7203
 7830SOL     OW24388   0.083   3.763   3.970  0.1412  0.2037  0.2150
 7830SOL    HW124389   0.041   3.848   3.941  0.1990 -0.3610 -1.6108
 7830SOL    HW224390   0.117   3.713   3.891  1.4875 -0.8133  1.3748
 7831SOL     OW24391   6.675   0.716   0.069  0.3940 -0.2073 -0.4330
 7831SOL    HW124392   6.691   0.714  -0.029  0.1937  1.3354 -0.5240
 7831SOL    HW224393   6.581   0.744   0.088  1.1507  2.2258  0.1628
 7832SOL     OW24394   6.408   2.038   5.055 -0.6605 -0.0704 -0.2927
 7832SOL    HW124395   6.355   2.119   5.082  0.5075  0.2308  1.2492
 7832SOL    HW224396   6.410   1.973   5.131 -1.1917 -1.3537 -1.3564
 7833SOL     OW24397   0.077   0.504   4.103 -0.1294  0.2063  0.2935
 7833SOL    HW124398   0.029   0.580   4.060  0.0936  0.0970 -0.1509
 7833SOL    HW224399   0.114   0.534   4.191 -0.9914  0.2936  0.6373
 7834SOL     OW24400   1.728   4.095   5.149 -0.7115  0.5566  0.3622
 7834SOL    HW124401   1.771   4.137   5.069 -0.4034  0.7571  0.6313
 7834SOL    HW224402   1.781   4.015   5.176  1.1026  2.3052  2.3238
 7835SOL     OW24403   4.432   4.075   6.119 -0.7403 -0.0051  0.3613
 7835SOL    HW124404   4.482   4.017   6.184  0.5872 -1.4163 -1.7971
 7835SOL    HW224405   4.338   4.041   6.109  0.2664 -2.4877 -1.5350
 7836SOL     OW24406   2.658   3.459   5.676  0.2699  0.5394  0.4524
 7836SOL    HW124407   2.738   3.459   5.617 -0.2219  1.6116 -0.2435
 7836SOL    HW224408   2.648   3.550   5.717 -0.6026  0.4189  0.5125
 7837SOL     OW24409   1.840   5.348   0.812 -0.0537  0.5677 -0.4342
 7837SOL    HW124410   1.750   5.324   0.847 -0.2182 -1.3531 -1.9894
 7837SOL    HW224411   1.866   5.438   0.845 -2.1351  0.7770  0.7845
 7838SOL     OW24412   3.937   4.815   1.086  0.3933 -0.0598  0.2433
 7838SOL    HW124413   3.992   4.732   1.095  1.0955  0.1597 -1.5653
 7838SOL    HW224414   3.871   4.820   1.161  1.1179 -1.6418  1.0305
 7839SOL     OW24415   0.762   3.908   5.300  0.3104 -0.3568 -0.5547
 7839SOL    HW124416   0.718   3.905   5.389 -1.0522  0.3802 -1.1737
 7839SOL    HW224417   0.861   3.919   5.311  0.0916  0.3320  0.8416
 7840SOL     OW24418   1.665   1.907   3.247 -0.2478  0.0973  0.1620
 7840SOL    HW124419   1.637   1.816   3.276 -0.5144  0.1056 -0.0698
 7840SOL    HW224420   1.734   1.900   3.175 -1.7760  0.0547 -1.3616
 7841SOL     OW24421   4.719   2.757   6.370  0.3509 -0.0752 -0.2139
 7841SOL    HW124422   4.661   2.690   6.323  2.9969 -0.9229 -2.5651
 7841SOL    HW224423   4.813   2.724   6.371  1.3596  2.5655  0.7594
 7842SOL     OW24424   6.939   0.365   1.781 -0.3060 -0.0460 -0.3489
 7842SOL    HW124425   7.007   0.435   1.761 -0.7644 -0.0419 -2.1465
 7842SOL    HW224426   6.860   0.406   1.826  0.2601  0.2155  0.4119
 7843SOL     OW24427   6.889   6.923   1.875 -0.2317 -0.0217  0.9975
 7843SOL    HW124428   6.849   7.000   1.926  0.6591  2.2195 -1.4501
 7843SOL    HW224429   6.866   6.932   1.778  1.9136 -1.5067  0.2905
 7844SOL     OW24430   2.221   4.812   1.946  1.0813 -0.2796  0.3156
 7844SOL    HW124431   2.137   4.762   1.926  2.9437 -3.4458 -0.4198
 7844SOL    HW224432   2.234   4.818   2.045  1.6591 -3.1759  0.5170
 7845SOL     OW24433   6.409   1.720   0.732  0.5189 -0.1751 -0.2613
 7845SOL    HW124434   6.378   1.779   0.807  0.2547 -2.5748  1.6417
 7845SOL    HW224435   6.507   1.733   0.718  1.1887 -1.5054  2.4113
 7846SOL     OW24436   0.486   1.400   1.474  0.5901  0.0781 -0.0802
 7846SOL    HW124437   0.550   1.406   1.550  2.4275 -0.0036 -1.5357
 7846SOL    HW224438   0.530   1.436   1.391 -1.2949  0.0774 -1.1396
 7847SOL     OW24439   4.576   0.168   6.312  0.0814  0.3885 -0.2946
 7847SOL    HW124440   4.523   0.083   6.322 -0.1162  0.4655 -0.6386
 7847SOL    HW224441   4.613   0.173   6.219 -0.3600  0.9293 -0.4521
 7848SOL     OW24442   3.268   3.512   0.195  0.0253  0.2609 -0.2223
 7848SOL    HW124443   3.358   3.495   0.155  0.7351  1.4158  0.7901
 7848SOL    HW224444   3.254   3.453   0.273 -0.5983 -0.7173 -1.0489
 7849SOL     OW24445   4.272   4.973   5.826 -0.1728 -0.5094 -0.1319
 7849SOL    HW124446   4.186   4.931   5.795 -1.2540  1.6056 -0.1463
 7849SOL    HW224447   4.348   4.936   5.773 -1.2375 -1.4156 -1.0770
 7850SOL     OW24448   0.620   1.048   3.167 -0.0539  0.1703 -0.0207
 7850SOL    HW124449   0.571   1.089   3.244  0.8235 -0.5072  0.9261
 7850SOL    HW224450   0.613   1.108   3.088 -0.6442  1.0815  0.6933
 7851SOL     OW24451   0.676   4.089   0.875  0.4699  0.0536  0.1864
 7851SOL    HW124452   0.684   3.991   0.858 -3.3986 -0.3834  0.0020
 7851SOL    HW224453   0.717   4.140   0.799 -0.5756 -1.5064 -1.4797
 7852SOL     OW24454   1.240   4.165   6.480 -0.3124 -0.6894  0.1166
 7852SOL    HW124455   1.262   4.078   6.524 -0.4611 -1.3441 -1.0354
 7852SOL    HW224456   1.148   4.193   6.506  0.5954  0.3933  2.3910
 7853SOL     OW24457   3.749   2.802   1.390 -0.7931  0.1339 -0.5280
 7853SOL    HW124458   3.740   2.824   1.488 -1.5840  0.8511 -0.7445
 7853SOL    HW224459   3.838   2.832   1.357 -0.1605 -0.9043  0.1573
 7854SOL     OW24460   3.000   0.857   1.215  0.1011 -0.8158  0.7338
 7854SOL    HW124461   2.991   0.772   1.266  0.8874 -1.1136  0.3928
 7854SOL    HW224462   3.034   0.838   1.123  0.1303 -0.1522  0.5986
 7855SOL     OW24463   5.165   5.538   5.533 -0.3732 -0.2123 -0.5228
 7855SOL    HW124464   5.085   5.572   5.483 -0.6784  0.3999  0.3565
 7855SOL    HW224465   5.247   5.582   5.498 -0.5373 -0.0776 -0.7424
 7856SOL     OW24466   2.208   4.372   5.794  0.1010 -0.4337  0.2093
 7856SOL    HW124467   2.146   4.398   5.868  0.9043  0.6974  0.4989
 7856SOL    HW224468   2.156   4.359   5.710 -1.0448 -3.0715  1.1945
 7857SOL     OW24469   0.240   5.085   1.912  0.7322  0.7776  0.0188
 7857SOL    HW124470   0.167   5.140   1.871  1.7271  0.7910 -1.8637
 7857SOL    HW224471   0.294   5.142   1.973  2.7398  2.5523 -3.1150
 7858SOL     OW24472   1.726   4.743   2.949  0.2532 -0.7159 -0.1268
 7858SOL    HW124473   1.798   4.782   2.892  0.5453  2.3372  2.0661
 7858SOL    HW224474   1.636   4.769   2.913  0.3627 -0.8744 -0.5125
 7859SOL     OW24475   5.066   4.039   2.744  0.4376  0.7340 -0.3812
 7859SOL    HW124476   5.114   3.978   2.680  1.8436  0.6535  0.7037
 7859SOL    HW224477   4.983   3.994   2.777  0.9039 -0.1635 -0.4026
 7860SOL     OW24478   4.963   1.921   4.631 -0.5005 -0.1297  0.0772
 7860SOL    HW124479   5.063   1.922   4.640 -0.4855  0.0603 -0.0956
 7860SOL    HW224480   4.931   2.013   4.610 -0.5539 -0.4769 -1.5030
 7861SOL     OW24481   1.980   3.380   1.381  0.9333  0.5616 -0.2731
 7861SOL    HW124482   1.913   3.409   1.313  1.6642  0.8429 -0.8886
 7861SOL    HW224483   2.036   3.459   1.408  0.2291  0.6043  1.1515
 7862SOL     OW24484   6.828   0.341   6.435  0.4147 -0.2558 -0.3973
 7862SOL    HW124485   6.777   0.412   6.386 -0.8897  0.1937  1.4894
 7862SOL    HW224486   6.867   0.380   6.518  0.1051 -1.6046  0.4190
 7863SOL     OW24487   6.894   3.405   3.786 -0.3975 -0.3795 -0.2618
 7863SOL    HW124488   6.878   3.391   3.884 -1.5209  1.0129 -0.2134
 7863SOL    HW224489   6.821   3.463   3.748 -0.6989 -1.9286 -2.2050
 7864SOL     OW24490   4.655   5.963   4.254 -0.1771  0.2552  0.2691
 7864SOL    HW124491   4.714   5.885   4.276 -0.0798  0.0596 -0.6454
 7864SOL    HW224492   4.688   6.045   4.300 -0.4103 -0.2885  1.4270
 7865SOL     OW24493   6.786   4.305   3.237 -0.2015 -0.1876  0.2567
 7865SOL    HW124494   6.689   4.284   3.250 -0.2322 -0.9246 -1.0547
 7865SOL    HW224495   6.831   4.229   3.192  0.6617  0.7608 -0.5187
 7866SOL     OW24496   2.136   1.941   4.709 -0.0324 -0.1021  0.0321
 7866SOL    HW124497   2.231   1.926   4.681 -0.1000 -0.0124 -0.2438
 7866SOL    HW224498   2.105   1.863   4.764  0.7132  0.5823  1.4892
 7867SOL     OW24499   3.505   6.389   1.833 -0.2279  0.3781  0.0820
 7867SOL    HW124500   3.582   6.335   1.868 -0.4476  0.4937  0.7640
 7867SOL    HW224501   3.447   6.331   1.776 -0.2034  0.0141  0.4209
 7868SOL     OW24502   5.793   5.525   1.153 -0.1840  0.7412 -0.2946
 7868SOL    HW124503   5.802   5.549   1.057 -0.0326 -0.3008 -0.5578
 7868SOL    HW224504   5.786   5.425   1.162 -3.5549  0.9375  0.5227
 7869SOL     OW24505   5.714   4.367   0.416  0.6224 -0.1320  0.0046
 7869SOL    HW124506   5.725   4.270   0.394 -0.8053 -0.3070 -0.0248
 7869SOL    HW224507   5.784   4.395   0.482  1.1637 -1.1245 -0.1338
 7870SOL     OW24508   1.758   6.814   4.113  0.5808  0.1326 -1.1474
 7870SOL    HW124509   1.673   6.867   4.107  0.0649 -0.5538 -0.2333
 7870SOL    HW224510   1.834   6.868   4.078  0.4090  2.2282  1.3960
 7871SOL     OW24511   4.997   2.012   1.853  0.3119 -0.2653  0.6954
 7871SOL    HW124512   4.993   2.095   1.797  0.1087 -0.9239 -0.3041
 7871SOL    HW224513   5.022   2.036   1.947 -3.0543  1.3715  1.3322
 7872SOL     OW24514   6.315   6.129   3.445  0.0044 -0.5762 -0.5114
 7872SOL    HW124515   6.308   6.086   3.535 -2.1168  0.1670 -0.2663
 7872SOL    HW224516   6.323   6.059   3.374 -0.6316 -1.2756  0.0941
 7873SOL     OW24517   5.553   2.851   5.676  0.3137 -0.1291  0.3144
 7873SOL    HW124518   5.484   2.873   5.607 -0.2718  0.7066  1.1454
 7873SOL    HW224519   5.598   2.765   5.652 -0.8533 -0.5661 -0.3641
 7874SOL     OW24520   5.948   1.361   1.319 -0.0508 -0.3890  0.5736
 7874SOL    HW124521   5.967   1.357   1.418  0.6789  0.3248  0.4686
 7874SOL    HW224522   6.026   1.400   1.272  0.5204 -2.7587 -0.5769
 7875SOL     OW24523   2.453   5.700   0.531 -0.0092  0.3025 -0.2370
 7875SOL    HW124524   2.359   5.671   0.510 -0.4573  1.2287  0.3973
 7875SOL    HW224525   2.516   5.624   0.516 -0.7113 -0.0158 -1.7500
 7876SOL     OW24526   6.837   6.202   3.027  0.2042 -0.0845 -0.0916
 7876SOL    HW124527   6.786   6.277   2.985 -0.9297  0.1792  1.6421
 7876SOL    HW224528   6.935   6.215   3.014 -0.0522 -0.7279 -3.7671
 7877SOL     OW24529   0.739   4.236   1.186 -0.0440  0.0052 -0.2346
 7877SOL    HW124530   0.793   4.178   1.124  0.4824 -0.3123  0.5015
 7877SOL    HW224531   0.734   4.329   1.149  0.1833 -0.2076 -0.8032
 7878SOL     OW24532   3.189   1.615   2.800 -0.3467  0.8106 -0.1628
 7878SOL    HW124533   3.232   1.705   2.804 -0.2693  0.7909 -0.5385
 7878SOL    HW224534   3.094   1.624   2.769 -0.2772  0.7432 -0.3970
 7879SOL     OW24535   2.644   0.114   1.272 -0.2585 -0.2654 -0.5722
 7879SOL    HW124536   2.572   0.099   1.339 -1.8360 -2.1409 -2.5324
 7879SOL    HW224537   2.622   0.195   1.217 -0.8760 -0.7929 -1.1211
 7880SOL     OW24538   1.121   5.366   3.052  0.5009  0.2788  0.9816
 7880SOL    HW124539   1.023   5.373   3.073  0.2514 -2.0465  0.8161
 7880SOL    HW224540   1.138   5.401   2.960  0.2554  2.8271  1.8189
 7881SOL     OW24541   5.039   3.272   3.032  0.4329 -0.3809  0.5856
 7881SOL    HW124542   5.010   3.367   3.049  1.9810  0.2782 -0.3115
 7881SOL    HW224543   5.130   3.258   3.071  0.3155 -1.4415  0.4870
 7882SOL     OW24544   0.171   1.505   5.522  0.0057 -0.1940 -0.3956
 7882SOL    HW124545   0.132   1.561   5.594 -0.9564  1.7361 -2.3151
 7882SOL    HW224546   0.118   1.516   5.438  2.5304 -0.3255 -2.1222
 7883SOL     OW24547   1.693   1.065   5.298  0.2005 -0.4787  0.7041
 7883SOL    HW124548   1.630   0.987   5.298  0.9152 -1.0944 -0.6652
 7883SOL    HW224549   1.785   1.033   5.275  0.5857  0.7235  0.5137
 7884SOL     OW24550   6.862   3.869   3.394 -0.2070 -0.0355  0.2298
 7884SOL    HW124551   6.812   3.946   3.434 -1.5144 -1.1966  0.9121
 7884SOL    HW224552   6.798   3.796   3.371  1.1853 -1.6658  1.3120
 7885SOL     OW24553   0.865   4.568   3.241  0.3008 -0.4059  0.1661
 7885SOL    HW124554   0.890   4.474   3.219  1.6946  0.0858 -0.4723
 7885SOL    HW224555   0.930   4.631   3.199 -1.5400  0.9431 -0.8518
 7886SOL     OW24556   4.964   3.707   1.223  0.2736 -0.0285 -0.4201
 7886SOL    HW124557   5.035   3.713   1.153  0.2246 -2.6010 -0.8127
 7886SOL    HW224558   4.996   3.647   1.297 -0.9673 -0.1177  0.0601
 7887SOL     OW24559   4.167   1.779   2.275  0.4776  0.4179  0.1564
 7887SOL    HW124560   4.111   1.717   2.331  1.2413 -0.3324  0.1217
 7887SOL    HW224561   4.249   1.730   2.245 -1.0686 -0.1273 -3.8202
 7888SOL     OW24562   3.636   5.371   3.866  0.2306 -0.2405  0.2418
 7888SOL    HW124563   3.552   5.325   3.897  0.5879 -0.9613  0.1625
 7888SOL    HW224564   3.678   5.418   3.944  0.2443 -0.6655  0.4990
 7889SOL     OW24565   1.525   6.333   2.241 -0.5020 -0.3003  0.4394
 7889SOL    HW124566   1.589   6.291   2.176 -0.1889  0.6898  0.0960
 7889SOL    HW224567   1.442   6.278   2.245 -0.4318 -0.5139 -0.6337
 7890SOL     OW24568   2.803   4.711   3.180 -0.5441 -0.0563  0.0861
 7890SOL    HW124569   2.796   4.761   3.094 -0.2287 -2.0922 -1.1930
 7890SOL    HW224570   2.847   4.769   3.249  0.2631  1.2249 -1.4450
 7891SOL     OW24571   1.427   4.266   3.684  0.0907 -0.3671  0.1672
 7891SOL    HW124572   1.379   4.208   3.617  0.6480 -1.0193  0.3149
 7891SOL    HW224573   1.475   4.207   3.749 -0.7728  0.2543  1.3893
 7892SOL     OW24574   3.513   2.107   3.802  0.6688 -0.3193  0.2641
 7892SOL    HW124575   3.460   2.044   3.860 -1.7396  0.4332 -0.9728
 7892SOL    HW224576   3.610   2.099   3.824  0.0241 -1.1259  3.3567
 7893SOL     OW24577   5.146   6.952   0.018 -0.3040 -0.3262 -0.0598
 7893SOL    HW124578   5.135   7.036  -0.035  1.2381 -0.7588 -1.1234
 7893SOL    HW224579   5.081   6.883  -0.015 -1.9099  0.5583  1.1384
 7894SOL     OW24580   1.971   0.537   0.223 -0.4894  0.5395 -0.0222
 7894SOL    HW124581   1.943   0.626   0.258 -1.2806 -0.1961  1.2914
 7894SOL    HW224582   2.004   0.480   0.299  1.6973  0.2946 -1.0755
 7895SOL     OW24583   1.842   3.583   5.395  0.2230 -0.5053  0.5924
 7895SOL    HW124584   1.867   3.561   5.301 -0.0046 -1.2957  0.7152
 7895SOL    HW224585   1.752   3.626   5.397 -0.5940 -2.1548  0.6064
 7896SOL     OW24586   3.190   1.206   7.006 -0.3138 -0.4169  0.1605
 7896SOL    HW124587   3.238   1.208   7.094 -0.3888  0.2619  0.1949
 7896SOL    HW224588   3.228   1.276   6.946 -1.2341  0.1306  0.1847
 7897SOL     OW24589   3.169   3.597   1.272  0.1156  0.7068  0.0492
 7897SOL    HW124590   3.266   3.578   1.288 -0.0005  1.0136  1.2217
 7897SOL    HW224591   3.159   3.688   1.231  0.2857  1.2132  1.0675
 7898SOL     OW24592   5.658   0.495   6.672 -0.0278 -1.2071 -0.0291
 7898SOL    HW124593   5.585   0.461   6.731  0.4044  0.1141  1.3189
 7898SOL    HW224594   5.720   0.553   6.725  0.1082  0.4537 -1.8765
 7899SOL     OW24595   4.582   0.245   1.564  0.2059 -0.0514  0.2846
 7899SOL    HW124596   4.646   0.193   1.619  1.1573 -0.9378 -1.5898
 7899SOL    HW224597   4.491   0.242   1.606  1.2811  1.1593  2.9391
 7900SOL     OW24598   6.741   6.963   0.667 -0.6352  0.0441  0.3412
 7900SOL    HW124599   6.757   7.036   0.734  0.9368 -0.0410  0.0795
 7900SOL    HW224600   6.768   6.994   0.576  0.3795 -0.9774  0.2795
 7901SOL     OW24601   6.096   5.316   1.940 -0.2000 -0.2785 -0.1562
 7901SOL    HW124602   6.175   5.341   1.885 -0.9406 -0.1525 -1.1821
 7901SOL    HW224603   6.107   5.222   1.974 -0.3625 -0.8864 -1.7105
 7902SOL     OW24604   5.754   6.978   0.100 -0.2691 -0.2119  0.3138
 7902SOL    HW124605   5.832   6.922   0.128 -0.3005  0.2558  1.3746
 7902SOL    HW224606   5.678   6.918   0.074  0.3744 -0.6667 -0.5767
 7903SOL     OW24607   0.861   3.989   1.401  0.0109 -0.1669  0.0887
 7903SOL    HW124608   0.834   4.060   1.466  0.1933  1.1047 -1.1666
 7903SOL    HW224609   0.929   3.929   1.444 -0.7098 -0.0628  1.4259
 7904SOL     OW24610   0.178   6.861   2.822 -0.3501  0.2822 -0.6576
 7904SOL    HW124611   0.200   6.954   2.793 -0.4225  0.4569 -0.1693
 7904SOL    HW224612   0.131   6.864   2.911 -0.7322 -0.1937 -0.8397
 7905SOL     OW24613   2.906   3.753   2.933 -0.4832  0.1248  0.0436
 7905SOL    HW124614   2.884   3.851   2.931 -0.2585  0.1623 -1.1817
 7905SOL    HW224615   3.004   3.741   2.915 -0.4463 -0.3080  0.5320
 7906SOL     OW24616   0.050   2.247   5.570  0.1091 -0.0830  0.8039
 7906SOL    HW124617   0.084   2.155   5.549  0.2543 -0.1467  1.3158
 7906SOL    HW224618  -0.047   2.242   5.595 -0.6956  0.2472 -1.9016
 7907SOL     OW24619   6.293   4.082   4.843  0.0170 -0.2856  0.2574
 7907SOL    HW124620   6.365   4.016   4.824 -0.6720 -0.6937 -1.0110
 7907SOL    HW224621   6.230   4.045   4.912 -0.0685 -0.7304 -0.0603
 7908SOL     OW24622   2.069   3.078   3.260 -0.3058  0.3975  0.5950
 7908SOL    HW124623   2.034   3.171   3.269  0.0203  0.8651 -2.1555
 7908SOL    HW224624   2.005   3.024   3.205  1.9062  0.5951 -2.4331
 7909SOL     OW24625   4.577   5.860   4.780 -0.7239  0.2111 -0.1313
 7909SOL    HW124626   4.571   5.893   4.875  0.6691 -1.8293  0.7155
 7909SOL    HW224627   4.647   5.912   4.731  1.1982 -1.1186  1.0851
 7910SOL     OW24628   5.888   2.016   6.259  0.0663  0.1936  0.2125
 7910SOL    HW124629   5.951   1.938   6.264  0.0235  0.0166 -1.4400
 7910SOL    HW224630   5.932   2.096   6.300  1.3861  0.0511 -0.8182
 7911SOL     OW24631   0.381   4.986   5.704 -0.1366  0.7353  1.0804
 7911SOL    HW124632   0.357   5.083   5.697  0.4243  1.0086  2.5242
 7911SOL    HW224633   0.386   4.960   5.801  1.1550 -0.3627  0.7470
 7912SOL     OW24634   6.440   6.443   5.663  0.5677 -0.4380 -0.0178
 7912SOL    HW124635   6.459   6.352   5.628 -0.7183 -0.6935 -0.1060
 7912SOL    HW224636   6.348   6.445   5.702  0.9906  0.5304  0.9885
 7913SOL     OW24637   1.470   4.540   0.194  0.4045 -0.2877  0.4247
 7913SOL    HW124638   1.395   4.557   0.259 -1.2967  0.5085 -1.6254
 7913SOL    HW224639   1.490   4.624   0.144  2.3247 -0.6499  0.5223
 7914SOL     OW24640   4.480   5.067   1.755 -0.4612  0.4168 -0.5359
 7914SOL    HW124641   4.480   4.967   1.753 -0.5469  0.4298 -1.6795
 7914SOL    HW224642   4.569   5.101   1.725 -0.2392  0.6882  0.3989
 7915SOL     OW24643   1.338   1.484   3.928 -0.0987 -0.4214 -0.4998
 7915SOL    HW124644   1.324   1.454   3.833 -0.9941  1.7989 -1.1359
 7915SOL    HW224645   1.435   1.473   3.952 -0.0062 -1.7428 -1.3830
 7916SOL     OW24646   3.330   3.776   3.222 -0.2903 -0.1934 -0.5244
 7916SOL    HW124647   3.380   3.814   3.144 -0.6535 -0.3550 -0.8362
 7916SOL    HW224648   3.376   3.694   3.255  1.4819  1.3763  1.2212
 7917SOL     OW24649   3.118   3.973   3.502 -0.0828 -0.6670 -0.6001
 7917SOL    HW124650   3.106   3.946   3.597 -1.2634 -0.9551 -0.8076
 7917SOL    HW224651   3.039   4.028   3.473  1.5219  1.7606 -0.6396
 7918SOL     OW24652   6.382   3.950   2.010  0.2986 -0.0499  0.3673
 7918SOL    HW124653   6.337   3.903   1.934  1.6787 -1.0049  0.1122
 7918SOL    HW224654   6.345   4.042   2.017  0.6234  0.3295 -1.9305
 7919SOL     OW24655   5.366   1.520   1.647 -0.4745 -0.1365  0.3006
 7919SOL    HW124656   5.296   1.498   1.714  0.5837  0.1385  1.5372
 7919SOL    HW224657   5.333   1.592   1.586 -1.5600 -0.6033  0.3186
 7920SOL     OW24658   6.233   6.847   0.670 -0.6834 -0.5324 -0.0843
 7920SOL    HW124659   6.218   6.941   0.639 -0.1904 -1.1105 -2.2852
 7920SOL    HW224660   6.149   6.810   0.708 -1.3252  0.3058 -0.6523
 7921SOL     OW24661   4.076   4.992   1.440 -0.4309 -0.3635  0.3334
 7921SOL    HW124662   3.984   5.007   1.478  0.5805  0.5798  2.5611
 7921SOL    HW224663   4.135   4.953   1.510  1.1731  0.0596 -0.7323
 7922SOL     OW24664   6.833   2.667   3.942  0.1915  0.0859  0.4353
 7922SOL    HW124665   6.870   2.611   4.015  0.0914 -2.2212 -1.1849
 7922SOL    HW224666   6.904   2.687   3.875 -0.7070 -1.8621 -1.1925
 7923SOL     OW24667   1.211   2.962   2.896  0.5537 -0.0838 -0.0236
 7923SOL    HW124668   1.305   2.991   2.914  0.1726  1.0189  0.2723
 7923SOL    HW224669   1.177   2.907   2.972  0.0247  1.8953  1.2215
 7924SOL     OW24670   3.029   2.118   4.632  0.3723 -0.1678 -0.4351
 7924SOL    HW124671   3.000   2.139   4.725 -0.5317  3.3034 -1.3672
 7924SOL    HW224672   3.128   2.104   4.629  0.6267  1.2261  0.8263
 7925SOL     OW24673   0.466   0.980   0.295 -0.4673  0.2100 -0.4392
 7925SOL    HW124674   0.472   0.886   0.261 -0.1851 -0.5124  1.4844
 7925SOL    HW224675   0.410   0.982   0.377  2.2838  1.0549  1.5746
 7926SOL     OW24676   1.937   2.128   1.191 -0.4981 -0.0092  0.5225
 7926SOL    HW124677   1.902   2.044   1.150 -0.7277  0.3364  0.0066
 7926SOL    HW224678   1.868   2.165   1.254 -0.5427 -0.0045  0.4701
 7927SOL     OW24679   4.089   5.732   3.880  0.2150 -0.2964  0.2883
 7927SOL    HW124680   4.074   5.807   3.944 -1.9651  0.6987 -1.2552
 7927SOL    HW224681   4.063   5.646   3.923  1.4610 -0.0394  1.6299
 7928SOL     OW24682   1.289   2.391   2.742  0.0199  0.1909  0.3097
 7928SOL    HW124683   1.293   2.457   2.817  0.1228 -1.2456  1.6086
 7928SOL    HW224684   1.377   2.346   2.731 -0.3965 -0.6582  0.3209
 7929SOL     OW24685   4.446   5.251   5.449  0.0742 -0.4647  0.0875
 7929SOL    HW124686   4.424   5.296   5.363  1.3466 -1.7522 -0.9770
 7929SOL    HW224687   4.536   5.281   5.480 -0.5437  0.2895  1.2044
 7930SOL     OW24688   3.403   6.798   6.990 -0.4356 -0.5742  0.1868
 7930SOL    HW124689   3.401   6.718   6.931 -0.5895 -1.3469  1.2114
 7930SOL    HW224690   3.376   6.879   6.938 -2.7220 -1.5748 -0.2693
 7931SOL     OW24691   3.724   2.338   0.607 -0.3623  0.3091 -0.0311
 7931SOL    HW124692   3.736   2.334   0.508  0.4264 -0.5139  0.0909
 7931SOL    HW224693   3.711   2.434   0.635  3.5432  1.1488 -0.4860
 7932SOL     OW24694   2.750   2.366   1.138 -0.1705 -0.1668  0.2740
 7932SOL    HW124695   2.653   2.356   1.161 -0.1069  1.0008  1.1219
 7932SOL    HW224696   2.785   2.451   1.177  0.8758  0.0923 -1.1312
 7933SOL     OW24697   2.088   6.856   6.679  0.1218 -0.6118 -0.3145
 7933SOL    HW124698   2.002   6.905   6.667  0.1111 -0.7485 -0.8387
 7933SOL    HW224699   2.126   6.877   6.769 -0.8111 -1.1066  0.2104
 7934SOL     OW24700   4.710   2.141   3.893 -0.0371 -0.1335  0.0148
 7934SOL    HW124701   4.804   2.131   3.862  1.0802  0.7679  2.7680
 7934SOL    HW224702   4.696   2.233   3.930 -1.9104 -0.3480 -0.0538
 7935SOL     OW24703   3.691   5.545   1.985  0.1387  0.1558  0.1273
 7935SOL    HW124704   3.703   5.505   1.894  1.4623  4.9466 -2.0984
 7935SOL    HW224705   3.768   5.519   2.043  0.8538 -0.5921 -1.1168
 7936SOL     OW24706   5.878   0.219   2.750 -0.1114  0.6697  0.3272
 7936SOL    HW124707   5.814   0.292   2.772 -0.9666 -0.5134  2.0786
 7936SOL    HW224708   5.930   0.195   2.832  1.1026  0.1992 -0.5478
 7937SOL     OW24709   5.835   2.419   4.768 -0.1999  0.0798  0.2332
 7937SOL    HW124710   5.747   2.403   4.723 -1.1149 -0.6603  2.1270
 7937SOL    HW224711   5.866   2.512   4.750  0.2035 -0.5716 -2.9406
 7938SOL     OW24712   0.119   3.913   4.912 -0.2016  0.3117  0.0399
 7938SOL    HW124713   0.168   3.837   4.955 -0.9254 -0.8183 -1.0390
 7938SOL    HW224714   0.168   3.942   4.830 -0.7862 -0.1667 -0.4968
 7939SOL     OW24715   4.626   4.723   2.805 -0.1520  0.3846 -0.6703
 7939SOL    HW124716   4.605   4.811   2.846 -0.3912  0.4488 -0.9289
 7939SOL    HW224717   4.542   4.682   2.768 -0.2255 -0.3962  0.3118
 7940SOL     OW24718   2.867   6.388   1.116  0.3511  0.6110 -0.3557
 7940SOL    HW124719   2.946   6.441   1.088 -1.1958  3.3126  0.0882
 7940SOL    HW224720   2.898   6.308   1.168  2.7813  2.5361  1.4316
 7941SOL     OW24721   0.249   6.307   0.307 -0.1391  0.5372  0.5034
 7941SOL    HW124722   0.199   6.334   0.390  0.5602  2.4299  0.3605
 7941SOL    HW224723   0.185   6.265   0.242 -0.7066 -0.9398  1.9391
 7942SOL     OW24724   2.159   0.462   0.421  0.1671  0.2339 -0.0123
 7942SOL    HW124725   2.179   0.556   0.449  1.9102 -0.5406  1.5559
 7942SOL    HW224726   2.240   0.423   0.376 -0.8260 -0.2735 -1.4206
 7943SOL     OW24727   5.416   2.812   6.546  0.3232 -0.5957 -0.8094
 7943SOL    HW124728   5.501   2.829   6.596 -0.8532 -0.6613  1.3232
 7943SOL    HW224729   5.362   2.896   6.543 -0.1652 -0.9105 -0.8901
 7944SOL     OW24730   5.431   2.460   0.202  0.3569  0.7019 -0.4420
 7944SOL    HW124731   5.460   2.377   0.251 -0.3484  0.1722 -0.9044
 7944SOL    HW224732   5.489   2.471   0.121 -0.4883 -0.1805 -1.1927
 7945SOL     OW24733   0.506   6.021   2.139  0.0668  0.3455  0.1581
 7945SOL    HW124734   0.564   6.100   2.119 -1.0701  1.1561 -0.0295
 7945SOL    HW224735   0.473   6.026   2.233  2.0606 -1.2915  1.0124
 7946SOL     OW24736   2.038   0.895   4.400  0.2398 -0.0476 -0.2208
 7946SOL    HW124737   2.006   0.907   4.493 -2.0065  1.2612 -1.0862
 7946SOL    HW224738   2.026   0.981   4.349  2.8701 -0.2467 -1.3472
 7947SOL     OW24739   4.605   4.340   6.161 -0.6490  0.4497  0.4173
 7947SOL    HW124740   4.548   4.258   6.170 -1.6837  0.8096 -2.0505
 7947SOL    HW224741   4.548   4.419   6.137  0.6225  1.2941  0.0449
 7948SOL     OW24742   1.639   5.152   6.407 -0.7845  0.2785 -0.2811
 7948SOL    HW124743   1.684   5.103   6.332 -0.1037 -0.4618  0.5957
 7948SOL    HW224744   1.603   5.239   6.372  1.0124  0.7409 -1.1107
 7949SOL     OW24745   6.626   3.401   4.610  0.7780 -0.0591 -0.2755
 7949SOL    HW124746   6.725   3.385   4.609  0.7849 -0.2181 -2.5248
 7949SOL    HW224747   6.581   3.335   4.550 -0.4012  1.5184 -1.2057
 7950SOL     OW24748   2.677   0.348   1.130 -0.3111 -0.0672 -0.2436
 7950SOL    HW124749   2.713   0.390   1.214  0.1491 -1.2397  0.1640
 7950SOL    HW224750   2.638   0.419   1.072  2.4529  1.2759 -0.6247
 7951SOL     OW24751   1.310   3.732   2.515  0.6518  0.0309 -0.1717
 7951SOL    HW124752   1.366   3.686   2.446 -1.2317 -2.6124 -0.0814
 7951SOL    HW224753   1.274   3.664   2.579  0.4561  2.1302  2.0693
 7952SOL     OW24754   0.096   3.333   2.598  0.0050 -0.0250 -0.3288
 7952SOL    HW124755   0.052   3.327   2.688  0.6116 -0.9087 -0.0760
 7952SOL    HW224756   0.089   3.427   2.564 -0.4110  0.2791  0.5516
 7953SOL     OW24757   2.275   3.372   1.587  0.1829 -0.2420  0.1348
 7953SOL    HW124758   2.186   3.416   1.602 -0.9567 -2.0976 -0.7827
 7953SOL    HW224759   2.333   3.386   1.667  0.7146  4.5324 -0.7789
 7954SOL     OW24760   0.036   4.568   2.306  0.2384 -0.2786 -0.6905
 7954SOL    HW124761   0.021   4.666   2.321  2.9307 -0.0278  0.9422
 7954SOL    HW224762   0.058   4.552   2.210  0.8342  0.8851 -0.7652
 7955SOL     OW24763   0.498   5.412   0.910  0.2480 -0.5193 -0.2266
 7955SOL    HW124764   0.483   5.510   0.924 -1.0885 -0.8198  0.6586
 7955SOL    HW224765   0.562   5.378   0.979  0.3144 -0.3616 -0.2098
 7956SOL     OW24766   2.898   6.415   3.278  0.1635  0.0720  0.3234
 7956SOL    HW124767   2.860   6.504   3.251  1.9765  0.7510 -0.1156
 7956SOL    HW224768   2.887   6.350   3.202  1.6788  0.8553 -0.6166
 7957SOL     OW24769   1.656   2.696   0.255 -0.0082  1.1380 -0.2931
 7957SOL    HW124770   1.623   2.626   0.191  1.9433 -1.0979  1.0196
 7957SOL    HW224771   1.621   2.677   0.347  3.2887 -0.3461  0.8131
 7958SOL     OW24772   2.557   5.213   2.428 -0.1662  0.7348 -0.7476
 7958SOL    HW124773   2.558   5.267   2.343  3.2578 -0.6358 -1.7426
 7958SOL    HW224774   2.508   5.128   2.412 -0.7479  1.0935 -0.9077
 7959SOL     OW24775   6.082   4.128   5.534  0.1007 -0.1043 -0.0592
 7959SOL    HW124776   6.004   4.166   5.484 -0.3267  0.9199  1.3347
 7959SOL    HW224777   6.079   4.028   5.530 -0.2149 -0.0644 -1.5990
 7960SOL     OW24778   1.140   3.049   1.877 -0.2709  0.0368  0.1500
 7960SOL    HW124779   1.122   2.987   1.953  0.6218 -1.0949 -0.5214
 7960SOL    HW224780   1.204   3.005   1.813  2.3611  2.5684  0.8542
 7961SOL     OW24781   0.439   6.165   0.429  0.5402  0.1354 -0.0868
 7961SOL    HW124782   0.367   6.209   0.376 -1.4633 -0.7587  1.7254
 7961SOL    HW224783   0.421   6.066   0.435  1.4248  0.0179  1.1128
 7962SOL     OW24784   0.971   5.749   1.437  0.3254 -0.1256  0.2523
 7962SOL    HW124785   0.971   5.662   1.387  2.9111  0.0575 -0.1722
 7962SOL    HW224786   1.048   5.805   1.407  1.7578  0.2159  4.0819
 7963SOL     OW24787   5.570   0.017   6.236  0.2642  0.1562  0.4578
 7963SOL    HW124788   5.509  -0.003   6.159  0.8174 -2.0483  0.5217
 7963SOL    HW224789   5.586   0.116   6.241 -3.1577  0.8331  0.3599
 7964SOL     OW24790   1.166   6.283   3.347 -0.1296 -0.1406 -0.7204
 7964SOL    HW124791   1.254   6.330   3.348 -0.5903  0.7393 -0.4668
 7964SOL    HW224792   1.149   6.242   3.437 -0.0493 -0.1893 -0.7271
 7965SOL     OW24793   2.148   2.642   0.507  0.0113 -0.2808  0.0196
 7965SOL    HW124794   2.189   2.707   0.572 -1.8926 -0.5868  1.6434
 7965SOL    HW224795   2.076   2.688   0.455  0.4451 -0.4509 -0.7419
 7966SOL     OW24796   7.014   0.080   6.973 -0.1412 -0.2402  0.6316
 7966SOL    HW124797   7.039   0.103   6.879 -2.7880 -2.0699 -0.6412
 7966SOL    HW224798   7.003   0.164   7.026  0.3053  0.9002 -0.9979
 7967SOL     OW24799   2.861   1.424   3.473 -0.9572 -0.0534  0.2862
 7967SOL    HW124800   2.888   1.492   3.542  0.1077  0.9415 -1.0516
 7967SOL    HW224801   2.779   1.455   3.425 -0.3113  0.4659 -0.5160
 7968SOL     OW24802   2.611   1.983   4.411  0.3775  0.1722 -0.5445
 7968SOL    HW124803   2.634   2.079   4.421 -0.6707  0.2559  1.3758
 7968SOL    HW224804   2.695   1.930   4.400  1.3101  0.9101  2.2554
 7969SOL     OW24805   4.572   0.319   5.545 -0.4207 -0.3788 -0.1123
 7969SOL    HW124806   4.656   0.294   5.593  0.9040  3.2980 -0.1920
 7969SOL    HW224807   4.503   0.348   5.612 -0.0231  0.8216 -0.2046
 7970SOL     OW24808   1.063   6.092   1.948  0.3357  0.1202  0.2408
 7970SOL    HW124809   1.016   6.082   2.035  0.9276  1.5599  0.7573
 7970SOL    HW224810   1.058   6.006   1.897 -2.3272  0.0344  0.5052
 7971SOL     OW24811   4.178   0.974   3.430 -0.3985 -0.1563  0.2643
 7971SOL    HW124812   4.135   0.955   3.519  2.4803 -2.3787  1.3730
 7971SOL    HW224813   4.221   1.064   3.433 -2.7674  1.0733 -0.0428
 7972SOL     OW24814   4.713   5.574   1.876 -0.0933  0.3229  0.1253
 7972SOL    HW124815   4.691   5.500   1.939 -1.7698  1.2485  0.6923
 7972SOL    HW224816   4.692   5.546   1.783 -0.8509  0.1154  0.3498
 7973SOL     OW24817   6.674   1.687   0.680 -0.0678 -0.6226  0.0978
 7973SOL    HW124818   6.739   1.724   0.613 -1.0696 -0.0136 -0.5684
 7973SOL    HW224819   6.634   1.603   0.644 -1.2220  0.1433 -0.4694
 7974SOL     OW24820   6.178   0.344   5.248 -0.5725  0.6153 -0.2777
 7974SOL    HW124821   6.103   0.370   5.188  0.6763  1.3396 -1.5989
 7974SOL    HW224822   6.265   0.368   5.205  0.4003  0.8562  1.6909
 7975SOL     OW24823   2.289   1.426   2.058  0.1251  0.4736 -0.1365
 7975SOL    HW124824   2.242   1.512   2.077  1.2588  1.1924 -0.4688
 7975SOL    HW224825   2.345   1.436   1.975  2.1030  0.1846  1.0926
 7976SOL     OW24826   1.394   4.618   5.277  0.1682 -0.0234  0.0708
 7976SOL    HW124827   1.351   4.708   5.266  0.5345 -0.0607 -2.1013
 7976SOL    HW224828   1.494   4.629   5.282  0.1408 -0.2123  1.5654
 7977SOL     OW24829   3.215   5.170   0.127  0.7350  0.0288  0.2266
 7977SOL    HW124830   3.150   5.226   0.076  0.2790 -0.9735 -0.3194
 7977SOL    HW224831   3.188   5.167   0.224 -1.5665 -2.3734 -0.3641
 7978SOL     OW24832   2.515   1.477   6.278  0.0781 -0.0070  0.2124
 7978SOL    HW124833   2.481   1.488   6.372  0.8959 -0.2275  0.5503
 7978SOL    HW224834   2.447   1.428   6.223 -0.4989  0.3116  0.6351
 7979SOL     OW24835   4.844   4.348   4.142  0.1003  0.2604  0.1670
 7979SOL    HW124836   4.929   4.383   4.183 -0.7632  2.7553 -0.0418
 7979SOL    HW224837   4.801   4.284   4.206  1.5339 -0.1639  0.7561
 7980SOL     OW24838   2.026   2.035   1.639 -0.4278  0.6439  0.2939
 7980SOL    HW124839   1.933   2.001   1.628 -0.1814  0.0594 -0.0302
 7980SOL    HW224840   2.055   2.083   1.556  0.0203 -0.3157 -0.1155
 7981SOL     OW24841   0.496   6.748   3.157  0.6122  0.2051 -0.2601
 7981SOL    HW124842   0.488   6.653   3.126 -0.3347  0.0720  0.3542
 7981SOL    HW224843   0.504   6.808   3.078  2.7285 -0.4865 -0.6324
 7982SOL     OW24844   5.247   1.495   0.505  0.7177  0.3972 -0.1033
 7982SOL    HW124845   5.210   1.424   0.446  0.6615  0.9862 -0.7907
 7982SOL    HW224846   5.341   1.473   0.530  1.0339  0.5595 -1.1135
 7983SOL     OW24847   3.246   2.030   0.994 -0.5220 -0.4698 -0.4320
 7983SOL    HW124848   3.310   2.106   1.007  0.3048 -1.3059  0.6175
 7983SOL    HW224849   3.153   2.065   0.994 -0.1035  0.7280 -1.5586
 7984SOL     OW24850   6.171   2.092   1.065 -0.3988  0.0912  0.0117
 7984SOL    HW124851   6.182   2.180   1.020 -1.1158  1.0131  1.5444
 7984SOL    HW224852   6.248   2.077   1.128 -0.0757 -0.5744 -0.5301
 7985SOL     OW24853   1.474   0.932   0.139 -0.8421  0.0910 -0.5242
 7985SOL    HW124854   1.419   0.899   0.063  0.5735  1.1394 -2.0688
 7985SOL    HW224855   1.452   1.028   0.157 -2.4030 -0.5686  1.6134
 7986SOL     OW24856   6.342   5.206   0.208  0.1728  0.1670 -0.4940
 7986SOL    HW124857   6.250   5.238   0.228 -0.1275 -1.0653  0.2088
 7986SOL    HW224858   6.353   5.193   0.110  0.6025  3.1843 -0.9457
 7987SOL     OW24859   0.762   4.154   5.940 -0.0205 -0.6274 -0.3263
 7987SOL    HW124860   0.766   4.105   5.853  2.0796 -1.1424  0.0133
 7987SOL    HW224861   0.751   4.252   5.922 -0.7483 -0.8417 -1.1221
 7988SOL     OW24862   3.922   1.079   4.886 -0.6021  0.1317  0.2229
 7988SOL    HW124863   4.006   1.064   4.938 -0.0323  0.7868 -0.4823
 7988SOL    HW224864   3.939   1.147   4.815 -1.8349  0.5494  0.3101
 7989SOL     OW24865   2.676   3.442   1.412 -0.3083 -0.1226 -0.4231
 7989SOL    HW124866   2.688   3.510   1.484  1.3386 -1.6447  0.8431
 7989SOL    HW224867   2.712   3.478   1.326  2.9533 -0.1848  0.7663
 7990SOL     OW24868   2.068   2.112   4.490  0.1536 -0.3866  0.2783
 7990SOL    HW124869   2.130   2.076   4.560  0.3396 -3.3433 -1.2122
 7990SOL    HW224870   2.121   2.136   4.409 -0.4218 -1.0116 -0.2982
 7991SOL     OW24871   2.609   2.432   6.766 -0.4040  0.4967 -0.1116
 7991SOL    HW124872   2.543   2.506   6.782  0.2598  0.8126  1.3120
 7991SOL    HW224873   2.697   2.456   6.808  0.4146 -0.2453 -1.3431
 7992SOL     OW24874   0.069   0.758   6.989 -0.2853 -0.4796 -0.2700
 7992SOL    HW124875   0.000   0.814   6.943 -0.3040  1.1661  1.6299
 7992SOL    HW224876   0.028   0.715   7.070 -0.1269 -2.9109 -1.3845
 7993SOL     OW24877   4.401   5.014   6.481 -0.3690 -0.0475  0.2815
 7993SOL    HW124878   4.473   5.083   6.484  0.0772 -0.3973 -1.3657
 7993SOL    HW224879   4.357   5.015   6.391 -1.3833 -0.8842  0.7459
 7994SOL     OW24880   5.928   6.225   3.760 -0.1706 -0.6037 -0.1332
 7994SOL    HW124881   6.020   6.187   3.759  0.3231  0.5250 -0.0140
 7994SOL    HW224882   5.934   6.324   3.746 -1.3572 -0.4982  0.0433
 7995SOL     OW24883   3.663   5.546   2.908  0.2553 -0.2383  0.3746
 7995SOL    HW124884   3.654   5.474   2.839 -0.9852 -0.1470  0.4239
 7995SOL    HW224885   3.584   5.607   2.902  1.0631  0.8518  0.6497
 7996SOL     OW24886   5.236   1.927   4.595  0.1770 -0.5817  0.7848
 7996SOL    HW124887   5.320   1.877   4.617  0.5102 -0.3323  0.1062
 7996SOL    HW224888   5.252   1.987   4.517 -0.6966 -0.6952  0.5045
 7997SOL     OW24889   3.257   2.901   6.718  0.3509 -0.3742 -0.1078
 7997SOL    HW124890   3.347   2.876   6.754  0.2672 -1.1170 -0.3929
 7997SOL    HW224891   3.236   2.844   6.639 -0.0226  0.3589 -0.5431
 7998SOL     OW24892   1.378   6.285   5.150 -0.1308 -0.2913  0.4265
 7998SOL    HW124893   1.375   6.303   5.248 -1.0787  0.8436  0.2069
 7998SOL    HW224894   1.446   6.344   5.107  0.0915 -0.5972  0.3502
 7999SOL     OW24895   3.718   1.200   6.715  0.1825 -0.1057 -0.2759
 7999SOL    HW124896   3.626   1.218   6.681 -0.0524  1.3236  1.0094
 7999SOL    HW224897   3.731   1.245   6.804  2.1686 -0.1565 -0.4819
 8000SOL     OW24898   0.047   2.394   4.025  0.3174  0.1275  0.2419
 8000SOL    HW124899   0.132   2.385   4.076 -0.3361 -0.4238  1.2624
 8000SOL    HW224900   0.060   2.459   3.949  1.7523 -0.2890  0.1111
 8001SOL     OW24901   3.648   4.474   0.949 -0.5509  0.3094  0.2513
 8001SOL    HW124902   3.559   4.503   0.915 -0.9072 -0.0497  0.8685
 8001SOL    HW224903   3.719   4.530   0.907 -1.1777  1.6242  0.8860
 8002SOL     OW24904   4.416   1.857   4.095 -0.5736  0.3590  0.2876
 8002SOL    HW124905   4.359   1.777   4.114  3.0218 -2.1647  1.4839
 8002SOL    HW224906   4.452   1.850   4.002  1.8466 -1.0324  1.2291
 8003SOL     OW24907   4.805   6.465   3.871  0.6521  0.0823  0.4657
 8003SOL    HW124908   4.841   6.405   3.943  0.6192 -0.2045  0.2445
 8003SOL    HW224909   4.838   6.433   3.782  1.1468  0.7629  0.3990
 8004SOL     OW24910   2.241   4.048   5.726  0.0253  0.1803  0.1296
 8004SOL    HW124911   2.175   4.065   5.799  2.3222 -0.7335  2.5829
 8004SOL    HW224912   2.323   4.103   5.742  1.1367 -1.0884 -0.9722
 8005SOL     OW24913   3.311   1.083   4.162 -0.0886 -0.3856  0.0427
 8005SOL    HW124914   3.322   1.066   4.260  1.8315 -0.5234 -0.1543
 8005SOL    HW224915   3.398   1.114   4.124 -1.1830  1.1309 -1.3527
 8006SOL     OW24916   4.385   5.131   3.246  0.4170 -0.1216 -0.2784
 8006SOL    HW124917   4.463   5.191   3.233  0.1032 -0.0055 -1.8387
 8006SOL    HW224918   4.417   5.038   3.265  0.9017  0.3942  1.6194
 8007SOL     OW24919   1.775   2.493   4.182  0.2457 -0.1178  0.1966
 8007SOL    HW124920   1.693   2.538   4.217  0.4179 -0.6214  1.3108
 8007SOL    HW224921   1.752   2.400   4.152  0.0350  0.4276 -1.3900
 8008SOL     OW24922   6.552   5.224   2.346 -0.1284 -0.3391 -0.3543
 8008SOL    HW124923   6.466   5.229   2.295 -0.1940 -1.2865 -0.3646
 8008SOL    HW224924   6.538   5.258   2.439 -0.2248  0.5736 -0.6908
 8009SOL     OW24925   6.694   5.522   4.960 -0.1598 -0.4104  0.3055
 8009SOL    HW124926   6.655   5.592   4.900  1.1488 -0.2356 -0.3650
 8009SOL    HW224927   6.793   5.528   4.960  0.0003 -2.2779  0.2209
 8010SOL     OW24928   0.449   1.900   0.092  0.4326  0.1965  0.3469
 8010SOL    HW124929   0.434   1.949   0.178  0.0225  0.5484  0.0814
 8010SOL    HW224930   0.506   1.820   0.108 -0.3781 -0.2355  1.0948
 8011SOL     OW24931   1.539   4.084   6.581  0.4556 -0.0761  0.2829
 8011SOL    HW124932   1.564   4.145   6.505  0.3830  0.9037  1.0307
 8011SOL    HW224933   1.616   4.074   6.643  0.2019 -0.1013  0.5955
 8012SOL     OW24934   2.221   6.518   2.998  0.8811  0.9385  0.3225
 8012SOL    HW124935   2.132   6.474   3.012  1.5609 -1.5370 -2.1305
 8012SOL    HW224936   2.281   6.498   3.075  0.3472 -0.3322  0.4362
 8013SOL     OW24937   0.356   5.787   4.847 -0.3614 -0.2374  0.7369
 8013SOL    HW124938   0.278   5.848   4.860 -0.5040 -0.3010  0.2006
 8013SOL    HW224939   0.334   5.721   4.775  0.2585 -0.1372  0.4576
 8014SOL     OW24940   1.862   6.501   5.265  0.0556  0.0484  0.6934
 8014SOL    HW124941   1.916   6.488   5.181 -1.6906  0.3522 -0.5462
 8014SOL    HW224942   1.920   6.486   5.345  1.9391  0.3499 -0.5533
 8015SOL     OW24943   1.029   0.134   6.295 -0.5657 -0.1949  0.0337
 8015SOL    HW124944   1.033   0.212   6.232 -0.5009 -0.1836  0.0523
 8015SOL    HW224945   0.996   0.054   6.246 -4.0453  0.6312  0.7426
 8016SOL     OW24946   5.846   6.302   1.168 -0.6218  0.0670  0.7437
 8016SOL    HW124947   5.935   6.302   1.123 -1.3391  0.2951 -0.7353
 8016SOL    HW224948   5.841   6.225   1.232  0.8615  0.4500  1.3583
 8017SOL     OW24949   4.993   4.567   4.760  0.2320 -0.1978 -0.1426
 8017SOL    HW124950   5.035   4.571   4.851  1.0795 -0.7646 -0.4926
 8017SOL    HW224951   5.034   4.636   4.701 -1.6238  1.4611  0.3900
 8018SOL     OW24952   4.855   4.506   3.431 -0.4477 -0.2089  0.4032
 8018SOL    HW124953   4.851   4.514   3.331  0.3293 -1.0706  0.2909
 8018SOL    HW224954   4.794   4.433   3.461  1.0367 -1.5229  0.3217
 8019SOL     OW24955   4.198   6.918   6.705  0.0369 -0.3643  0.9364
 8019SOL    HW124956   4.106   6.933   6.670  0.6391  3.0406  0.4729
 8019SOL    HW224957   4.209   6.822   6.731 -3.3967 -1.0018  0.4508
 8020SOL     OW24958   6.317   6.064   6.555 -0.0785 -0.1568 -0.0516
 8020SOL    HW124959   6.412   6.081   6.582  0.2333 -2.0635  0.1658
 8020SOL    HW224960   6.256   6.084   6.633  0.3535 -0.9600  0.4994
 8021SOL     OW24961   6.368   3.155   2.087  0.1840 -1.0991  0.1074
 8021SOL    HW124962   6.346   3.245   2.126  4.7845  0.4190 -0.1681
 8021SOL    HW224963   6.312   3.139   2.006 -0.2313  1.9473 -0.3201
 8022SOL     OW24964   5.289   5.393   5.069  0.4273 -0.2168  0.2329
 8022SOL    HW124965   5.372   5.406   5.123  0.4843  2.6952 -0.4392
 8022SOL    HW224966   5.216   5.359   5.128  0.2679  3.5634  2.4803
 8023SOL     OW24967   6.257   5.366   4.474  0.4631 -0.3495  0.3070
 8023SOL    HW124968   6.284   5.339   4.382 -2.7589 -2.2357 -0.2415
 8023SOL    HW224969   6.305   5.309   4.541  1.5511 -0.1385 -0.2728
 8024SOL     OW24970   3.963   6.662   1.756 -0.0222 -1.1189  0.0834
 8024SOL    HW124971   4.013   6.747   1.772 -1.8612  0.5211 -2.1050
 8024SOL    HW224972   3.987   6.595   1.826 -0.1827  1.9192  3.2964
 8025SOL     OW24973   0.653   5.795   2.131  0.2024 -0.0676  0.0334
 8025SOL    HW124974   0.581   5.862   2.151  0.2074 -0.1930  0.4666
 8025SOL    HW224975   0.666   5.790   2.032 -1.7063 -1.4412 -0.1951
 8026SOL     OW24976   4.545   0.806   6.053 -0.1482 -0.1045  0.0262
 8026SOL    HW124977   4.637   0.844   6.046 -0.5476  1.0555  0.7997
 8026SOL    HW224978   4.478   0.879   6.042 -0.9979 -0.9624 -0.7018
 8027SOL     OW24979   5.214   2.994   5.260 -0.6167  0.1617 -0.2852
 8027SOL    HW124980   5.286   3.050   5.301  0.5049 -0.4489 -1.3338
 8027SOL    HW224981   5.127   3.013   5.305  0.4482 -0.2050  2.0962
 8028SOL     OW24982   1.160   5.399   1.913  0.1800  0.2514 -0.4008
 8028SOL    HW124983   1.244   5.453   1.909 -0.7172  1.6652 -0.8737
 8028SOL    HW224984   1.104   5.418   1.832 -1.4784  0.8601  0.8211
 8029SOL     OW24985   2.758   3.734   5.261  0.0235  0.0674 -0.7634
 8029SOL    HW124986   2.841   3.690   5.293 -0.2439 -1.4106 -1.9933
 8029SOL    HW224987   2.680   3.672   5.273 -0.3357  0.0739 -2.7272
 8030SOL     OW24988   5.909   3.952   1.795  0.6195  0.3856  0.1198
 8030SOL    HW124989   5.847   3.883   1.758 -0.7100  1.7499 -0.2829
 8030SOL    HW224990   5.868   3.993   1.877  2.1182 -0.3986  1.3075
 8031SOL     OW24991   5.500   6.241   1.748 -0.0834  0.4432  0.0981
 8031SOL    HW124992   5.468   6.165   1.692  0.3368  0.1459  0.2538
 8031SOL    HW224993   5.466   6.231   1.842  0.4281  0.1468  0.2547
 8032SOL     OW24994   4.051   2.502   5.430  0.0506  0.5864 -0.2777
 8032SOL    HW124995   4.079   2.505   5.334 -0.2295 -1.5934 -0.4795
 8032SOL    HW224996   3.975   2.566   5.444 -1.2691 -0.5159 -2.0040
 8033SOL     OW24997   5.401   1.008   1.891  0.3100  0.4096 -0.0129
 8033SOL    HW124998   5.317   1.057   1.914 -1.9469 -3.0364 -0.2424
 8033SOL    HW224999   5.410   1.003   1.792  1.8872  2.2893 -0.0376
 8034SOL     OW25000   0.124   1.589   5.798  0.1188 -0.4826  0.1116
 8034SOL    HW125001   0.183   1.640   5.860  1.2496  0.5957 -1.7650
 8034SOL    HW225002   0.029   1.619   5.809  0.3110 -0.2497  1.2099
 8035SOL     OW25003   5.720   0.213   0.472  0.1773 -0.1985 -0.5297
 8035SOL    HW125004   5.673   0.148   0.412 -1.8702  1.0542 -0.3889
 8035SOL    HW225005   5.761   0.286   0.417  1.0313 -0.6924 -0.5721
 8036SOL     OW25006   1.682   4.302   3.084  0.4145 -0.7420  0.0383
 8036SOL    HW125007   1.618   4.341   3.018  1.1966 -1.7055 -1.3701
 8036SOL    HW225008   1.738   4.375   3.124  0.5867 -0.1994 -1.1348
 8037SOL     OW25009   1.121   3.274   3.467 -0.1801  0.3813 -0.4041
 8037SOL    HW125010   1.123   3.370   3.438  0.6162  0.5785  0.2516
 8037SOL    HW225011   1.161   3.267   3.559  1.3699 -0.8208 -1.1354
 8038SOL     OW25012   4.971   0.254   3.276 -0.3537 -0.0504  0.0568
 8038SOL    HW125013   4.987   0.341   3.229  0.4929  0.8719  1.9336
 8038SOL    HW225014   5.024   0.182   3.231  2.4882  1.2960  1.0134
 8039SOL     OW25015   1.178   4.994   3.754  0.2989  0.5915  0.6051
 8039SOL    HW125016   1.143   4.902   3.764  0.8171  0.3072 -0.0560
 8039SOL    HW225017   1.103   5.057   3.735 -0.2847  0.6289  2.8256
 8040SOL     OW25018   6.347   0.002   5.759 -0.5277  0.7336  0.3033
 8040SOL    HW125019   6.263  -0.013   5.707  0.2666 -1.6510 -0.3894
 8040SOL    HW225020   6.328  -0.009   5.857 -1.0104  0.1054  0.1461
 8041SOL     OW25021   2.154   3.724   5.991 -0.3524  0.4911 -0.1234
 8041SOL    HW125022   2.194   3.737   5.900  0.7428 -0.6516  0.1692
 8041SOL    HW225023   2.156   3.812   6.040 -0.4662  0.9982 -1.0037
 8042SOL     OW25024   3.125   3.967   6.309 -0.3095  0.2565  0.5574
 8042SOL    HW125025   3.113   4.064   6.287 -0.5470  0.5054  1.7045
 8042SOL    HW225026   3.047   3.935   6.363  1.0404  0.1693  2.5614
 8043SOL     OW25027   3.094   6.360   2.275  0.2234 -0.0197 -0.3374
 8043SOL    HW125028   3.115   6.350   2.178  1.0153 -0.1702 -0.1628
 8043SOL    HW225029   3.002   6.326   2.293  0.0624  0.0324 -1.0407
 8044SOL     OW25030   2.966   3.634   1.887 -0.4630 -0.3483 -0.4893
 8044SOL    HW125031   3.043   3.698   1.884  0.4532 -1.4448 -0.9727
 8044SOL    HW225032   2.966   3.586   1.974 -2.0642  1.3563  0.5189
 8045SOL     OW25033   6.104   2.231   3.032 -1.0662 -0.1713  0.0590
 8045SOL    HW125034   6.016   2.267   3.062 -0.6190 -0.7411  2.2538
 8045SOL    HW225035   6.167   2.307   3.017 -1.7642  0.2134 -1.0860
 8046SOL     OW25036   4.475   5.660   3.383  0.3080  1.1193 -0.2231
 8046SOL    HW125037   4.395   5.619   3.426 -0.5943  2.4577 -0.5552
 8046SOL    HW225038   4.478   5.757   3.406  1.5334  1.1967 -0.6747
 8047SOL     OW25039   3.449   0.238   3.124  0.3122  0.1565 -0.0216
 8047SOL    HW125040   3.373   0.228   3.188  0.7070 -0.7332  0.3148
 8047SOL    HW225041   3.535   0.224   3.171  0.6533  0.3282 -0.5788
 8048SOL     OW25042   3.917   6.905   6.668  0.0251  0.4023 -0.1365
 8048SOL    HW125043   3.930   6.996   6.630 -1.6129  0.3455 -0.9301
 8048SOL    HW225044   3.843   6.858   6.619  0.0118 -0.8900  1.0427
 8049SOL     OW25045   3.533   3.674   5.614 -0.1608 -0.1319  0.3149
 8049SOL    HW125046   3.466   3.749   5.616  0.3304  0.3000  0.7573
 8049SOL    HW225047   3.519   3.620   5.532  0.8546  1.7214 -1.1654
 8050SOL     OW25048   2.191   5.199   4.168  0.6427 -0.0808 -0.3845
 8050SOL    HW125049   2.263   5.200   4.238  0.1568  0.0531  0.1214
 8050SOL    HW225050   2.140   5.113   4.176  0.0894  0.2759 -0.0585
 8051SOL     OW25051   1.811   3.244   5.300 -0.3471 -0.3042  0.3207
 8051SOL    HW125052   1.900   3.258   5.344 -0.0791 -0.4239 -0.1724
 8051SOL    HW225053   1.767   3.164   5.340  1.1931 -2.2307 -1.5906
 8052SOL     OW25054   4.240   1.808   2.698 -0.1098  0.1334 -0.8856
 8052SOL    HW125055   4.222   1.791   2.794  0.2791  0.0133 -0.8314
 8052SOL    HW225056   4.157   1.792   2.645 -0.0658 -0.7820 -0.6934
 8053SOL     OW25057   4.278   3.645   0.838 -0.6366 -0.4975 -0.3529
 8053SOL    HW125058   4.239   3.734   0.861 -1.3353 -0.5920 -1.1409
 8053SOL    HW225059   4.272   3.585   0.918  0.2686  0.2921  0.3355
 8054SOL     OW25060   6.130   6.435   3.578 -0.4188  0.0421  0.2613
 8054SOL    HW125061   6.056   6.436   3.510  0.4404  0.1675 -0.6881
 8054SOL    HW225062   6.218   6.429   3.531  0.2466  1.2030  1.3096
 8055SOL     OW25063   1.486   4.260   4.466  0.1716  0.6036  0.3856
 8055SOL    HW125064   1.565   4.255   4.404  0.2737  0.0254  0.5564
 8055SOL    HW225065   1.412   4.309   4.421 -0.3057 -1.1171 -0.8140
 8056SOL     OW25066   3.581   5.931   2.966 -0.1925  0.4525  0.0622
 8056SOL    HW125067   3.652   5.927   2.895 -0.7424  1.9590 -0.6081
 8056SOL    HW225068   3.491   5.941   2.922 -0.6159  0.6614  0.9635
 8057SOL     OW25069   3.320   6.675   3.692  0.2105 -0.1718  0.2777
 8057SOL    HW125070   3.353   6.765   3.721 -0.2135  0.2136 -0.4145
 8057SOL    HW225071   3.385   6.634   3.628  0.4000 -0.3664  0.5873
 8058SOL     OW25072   3.298   0.003   3.449 -0.2601  0.5071  0.8324
 8058SOL    HW125073   3.322  -0.062   3.376 -0.8891  0.7353  0.4071
 8058SOL    HW225074   3.338  -0.027   3.535 -0.6168 -0.5051  0.6631
 8059SOL     OW25075   2.375   2.704   4.618  0.0038  0.3649  0.3684
 8059SOL    HW125076   2.320   2.683   4.699  0.2821 -0.8759  0.2659
 8059SOL    HW225077   2.435   2.626   4.598 -1.3004 -0.0896 -2.0416
 8060SOL     OW25078   6.601   3.491   5.460  0.0454 -0.0770  0.2631
 8060SOL    HW125079   6.604   3.476   5.361 -1.5915 -0.4127  0.2223
 8060SOL    HW225080   6.550   3.575   5.479 -0.6054 -0.5850  0.8280
 8061SOL     OW25081   4.854   5.928   3.683  0.2529 -0.3000 -0.5180
 8061SOL    HW125082   4.763   5.888   3.678  0.9293 -2.3830  2.0129
 8061SOL    HW225083   4.909   5.880   3.751  3.8039 -0.1714 -2.9641
 8062SOL     OW25084   1.824   3.184   0.807 -0.1098 -0.0684  0.3861
 8062SOL    HW125085   1.748   3.222   0.754 -0.4520 -1.3054 -0.0651
 8062SOL    HW225086   1.885   3.257   0.837 -0.8447  0.8260 -0.2614
 8063SOL     OW25087   3.474   1.563   5.499 -0.1776 -0.1111 -0.5170
 8063SOL    HW125088   3.378   1.552   5.523 -0.5414  1.7853 -0.9470
 8063SOL    HW225089   3.503   1.656   5.520  0.6767  0.3527 -3.2656
 8064SOL     OW25090   5.362   2.892   3.731 -0.4724 -0.6093 -1.1761
 8064SOL    HW125091   5.436   2.902   3.796 -0.7819 -3.9868 -0.1259
 8064SOL    HW225092   5.397   2.902   3.638  1.2192 -1.6312 -0.6824
 8065SOL     OW25093   4.555   1.950   1.189 -0.1777  0.1968 -0.1026
 8065SOL    HW125094   4.494   2.023   1.158  0.5006  1.7111  1.9709
 8065SOL    HW225095   4.501   1.867   1.206 -1.7155  1.4771  1.6179
 8066SOL     OW25096   5.421   0.699   1.441 -0.0853 -0.3996  0.0547
 8066SOL    HW125097   5.435   0.635   1.517  0.6478 -0.5339 -0.1901
 8066SOL    HW225098   5.499   0.760   1.434  0.2476 -0.9546 -1.1415
 8067SOL     OW25099   3.757   1.398   1.861 -1.1592 -0.2558 -0.1598
 8067SOL    HW125100   3.758   1.435   1.768 -1.4970 -0.2248 -0.1534
 8067SOL    HW225101   3.785   1.469   1.925 -1.4262 -0.1238 -0.1869
 8068SOL     OW25102   6.774   3.530   4.085  0.0600 -0.4239  0.1833
 8068SOL    HW125103   6.787   3.438   4.122 -0.3659 -0.1954  0.9388
 8068SOL    HW225104   6.835   3.594   4.133  0.5766 -0.3508 -0.5476
 8069SOL     OW25105   6.000   5.200   3.293 -0.7229 -0.4947 -0.1531
 8069SOL    HW125106   6.071   5.221   3.359 -0.7545 -2.5359  0.5953
 8069SOL    HW225107   6.028   5.122   3.237 -1.7435 -0.3844 -0.8532
 8070SOL     OW25108   4.537   0.506   2.988 -0.0466 -0.4443  0.0009
 8070SOL    HW125109   4.615   0.558   3.022 -0.8947 -0.1755  1.6555
 8070SOL    HW225110   4.478   0.565   2.933 -0.9204  0.3750  1.7350
 8071SOL     OW25111   1.102   3.819   0.356  0.6719  0.5176 -0.3410
 8071SOL    HW125112   1.105   3.847   0.452  1.3605 -1.2666  0.2018
 8071SOL    HW225113   1.108   3.720   0.351  0.6217  0.5906 -2.2467
 8072SOL     OW25114   2.843   0.348   1.531 -0.2266 -0.2091 -0.1519
 8072SOL    HW125115   2.889   0.263   1.508 -2.0969 -1.8858  1.8556
 8072SOL    HW225116   2.865   0.374   1.625 -2.9088 -0.8672  0.7470
 8073SOL     OW25117   5.139   0.607   6.084 -0.2824 -0.4691 -0.3734
 8073SOL    HW125118   5.101   0.689   6.127  0.0295 -1.1525  1.2766
 8073SOL    HW225119   5.212   0.570   6.142 -0.6919 -2.1413 -0.8717
 8074SOL     OW25120   3.979   3.131   6.819 -0.3161 -0.4519 -0.2819
 8074SOL    HW125121   3.983   3.106   6.915 -0.0715  0.0977 -0.1424
 8074SOL    HW225122   4.071   3.127   6.779 -0.4697 -1.0349 -0.5911
 8075SOL     OW25123   1.314   0.673   2.627  0.1585 -0.0675  0.0749
 8075SOL    HW125124   1.215   0.657   2.625  0.4159 -1.9174 -2.9631
 8075SOL    HW225125   1.343   0.715   2.541  2.0294  0.8149  1.0676
 8076SOL     OW25126   5.326   2.486   4.105 -0.4462  0.0415  0.1346
 8076SOL    HW125127   5.324   2.582   4.131 -1.0722 -0.0501  0.4641
 8076SOL    HW225128   5.240   2.443   4.132 -0.3718 -0.4958 -0.4565
 8077SOL     OW25129   5.684   1.599   5.693  0.4183 -0.0583  0.3501
 8077SOL    HW125130   5.660   1.695   5.674  0.9046  0.7555  3.2888
 8077SOL    HW225131   5.680   1.584   5.792  0.8202 -2.9916 -0.0181
 8078SOL     OW25132   0.284   5.264   1.081 -0.6436  0.1510  0.3527
 8078SOL    HW125133   0.368   5.272   1.028 -0.2250 -1.4219  0.7047
 8078SOL    HW225134   0.218   5.208   1.030 -0.5234 -0.7182  1.1156
 8079SOL     OW25135   2.435   4.152   6.216 -0.0332 -0.3343 -0.1440
 8079SOL    HW125136   2.526   4.159   6.176 -0.0773  0.3072 -0.1450
 8079SOL    HW225137   2.442   4.127   6.312  0.1302 -0.5535 -0.2125
 8080SOL     OW25138   5.029   4.419   6.430 -0.2759  0.4012  0.0284
 8080SOL    HW125139   5.124   4.449   6.440 -0.1544 -0.1615  0.6328
 8080SOL    HW225140   5.026   4.320   6.422 -0.5769  0.5758 -3.2043
 8081SOL     OW25141   5.433   3.524   4.440 -0.0998  0.5893 -0.3505
 8081SOL    HW125142   5.408   3.614   4.475  2.3464  1.0643  0.3967
 8081SOL    HW225143   5.417   3.520   4.342  1.2098  2.4613 -0.6868
 8082SOL     OW25144   6.435   4.314   5.631 -0.3770  0.5437  0.4189
 8082SOL    HW125145   6.451   4.263   5.716  0.1953 -0.0082 -0.0122
 8082SOL    HW225146   6.463   4.409   5.645  0.3950  0.2976  0.6480
 8083SOL     OW25147   4.931   2.286   5.674 -0.2708  0.2635 -0.1832
 8083SOL    HW125148   4.872   2.208   5.654 -0.3555  0.1191  0.5855
 8083SOL    HW225149   5.005   2.257   5.736  0.7650  0.3815 -1.3349
 8084SOL     OW25150   6.804   5.796   6.522  0.2341  0.0200  0.9064
 8084SOL    HW125151   6.776   5.752   6.607 -1.1101 -1.0609 -0.0406
 8084SOL    HW225152   6.726   5.846   6.483  0.2930 -0.9109 -0.5107
 8085SOL     OW25153   4.984   3.612   1.948 -0.0937  0.2400  0.3595
 8085SOL    HW125154   5.003   3.663   2.032 -0.7215  1.0004  0.0515
 8085SOL    HW225155   5.026   3.521   1.954  1.0114  0.7662  0.9372
 8086SOL     OW25156   5.042   5.092   6.621 -0.4843 -0.0691 -0.1088
 8086SOL    HW125157   4.945   5.071   6.609  0.1297 -2.7103 -1.1616
 8086SOL    HW225158   5.088   5.089   6.532  1.1380 -2.5647  0.7027
 8087SOL     OW25159   1.706   3.490   1.518  0.2923 -1.0073 -0.3245
 8087SOL    HW125160   1.689   3.450   1.608 -2.5395  0.9777  0.1522
 8087SOL    HW225161   1.785   3.552   1.524 -0.9124  0.4530  1.3192
 8088SOL     OW25162   5.602   0.648   3.493  0.2174  0.9747  0.2718
 8088SOL    HW125163   5.639   0.558   3.518 -0.9757  0.7720  1.3900
 8088SOL    HW225164   5.507   0.655   3.523 -0.0008  2.2788 -0.6334
 8089SOL     OW25165   6.843   2.179   6.915  0.1376 -0.0618 -0.5725
 8089SOL    HW125166   6.873   2.274   6.920 -0.2697 -0.0012  1.8371
 8089SOL    HW225167   6.884   2.135   6.835  0.7177  1.9800 -1.4639
 8090SOL     OW25168   6.199   2.303   3.671  0.2370  0.3949 -0.1016
 8090SOL    HW125169   6.212   2.230   3.603 -0.8870 -0.1824  0.2810
 8090SOL    HW225170   6.197   2.262   3.762 -0.2099  0.9280  0.1300
 8091SOL     OW25171   1.553   3.450   3.532  0.2382  0.2085 -0.2393
 8091SOL    HW125172   1.491   3.391   3.585  0.2214 -0.9142 -1.4670
 8091SOL    HW225173   1.529   3.546   3.549 -2.1213 -0.1862 -0.9520
 8092SOL     OW25174   5.306   2.537   4.928  0.4963 -0.3915  0.6451
 8092SOL    HW125175   5.387   2.595   4.927 -0.3241  0.8310 -1.5465
 8092SOL    HW225176   5.248   2.562   5.006  0.6373  1.0798  0.3044
 8093SOL     OW25177   5.989   3.511   0.349  0.2367 -0.6283 -0.4166
 8093SOL    HW125178   5.986   3.432   0.287 -0.9798 -0.0762 -1.0869
 8093SOL    HW225179   6.058   3.576   0.317  2.5635 -2.1562  1.1299
 8094SOL     OW25180   0.299   2.751   3.675 -0.0413  0.2484 -0.8276
 8094SOL    HW125181   0.248   2.719   3.595 -1.5326  0.0440  0.1574
 8094SOL    HW225182   0.321   2.848   3.664 -1.4865  0.5890 -0.8882
 8095SOL     OW25183   0.189   3.665   5.036 -0.4569 -0.1867 -0.1331
 8095SOL    HW125184   0.270   3.611   5.060  0.7902  2.2507  1.6180
 8095SOL    HW225185   0.111   3.604   5.024  0.9962 -2.4193  0.9475
 8096SOL     OW25186   3.099   6.075   6.772  0.7224  0.0324  0.1610
 8096SOL    HW125187   3.031   6.118   6.831  1.2900  0.5023  0.4851
 8096SOL    HW225188   3.141   6.144   6.713  2.4384  0.1646  1.4581
 8097SOL     OW25189   5.734   0.765   2.509 -0.1107 -0.7314  0.1281
 8097SOL    HW125190   5.742   0.790   2.412  0.5164 -0.9846  0.1054
 8097SOL    HW225191   5.673   0.830   2.555  1.2288  0.6960  0.0052
 8098SOL     OW25192   1.596   0.683   3.579  0.3355  0.1346 -0.3593
 8098SOL    HW125193   1.525   0.617   3.553  1.8298 -0.8771 -2.1625
 8098SOL    HW225194   1.656   0.642   3.648 -0.0024  0.4389  0.1146
 8099SOL     OW25195   3.342   0.093   4.044  0.3790 -0.2200  0.7113
 8099SOL    HW125196   3.374   0.007   4.003 -1.5464 -0.2407 -0.8937
 8099SOL    HW225197   3.336   0.083   4.143 -0.8852 -2.3503  0.4798
 8100SOL     OW25198   0.768   4.563   0.030 -0.4109  0.1190 -0.2263
 8100SOL    HW125199   0.702   4.511   0.084  1.9485  0.5271  3.3371
 8100SOL    HW225200   0.811   4.503  -0.038 -1.3070 -1.2435  0.3730
 8101SOL     OW25201   1.393   5.480   3.457 -0.0050  0.0155  0.5554
 8101SOL    HW125202   1.338   5.426   3.393  0.5044  0.5022 -0.3130
 8101SOL    HW225203   1.475   5.429   3.480  1.0738  0.8437 -1.2032
 8102SOL     OW25204   6.688   6.586   5.028  0.6163  0.6641 -0.0637
 8102SOL    HW125205   6.774   6.636   5.015  0.2550  1.0855 -0.9293
 8102SOL    HW225206   6.614   6.652   5.042  0.0667  0.4218 -1.5993
 8103SOL     OW25207   2.144   3.327   3.387  0.1407  0.7418  0.3119
 8103SOL    HW125208   2.075   3.397   3.404 -1.7948 -1.2037  0.8842
 8103SOL    HW225209   2.176   3.290   3.474 -3.1320 -2.9577  0.1934
 8104SOL     OW25210   3.400   0.255   5.478 -0.0663 -0.0094 -0.4577
 8104SOL    HW125211   3.448   0.330   5.433  0.6288 -1.5829 -2.5257
 8104SOL    HW225212   3.448   0.230   5.562  0.4689  0.9479 -0.4643
 8105SOL     OW25213   0.866   1.606   3.742 -0.2287  0.0139  0.3795
 8105SOL    HW125214   0.870   1.509   3.762 -0.6401  0.0477  0.6240
 8105SOL    HW225215   0.801   1.622   3.667  1.0808 -0.0822 -0.8194
 8106SOL     OW25216   1.111   3.340   0.877  0.0016 -0.3124  0.4975
 8106SOL    HW125217   1.078   3.428   0.843 -0.2904 -0.2086  1.0464
 8106SOL    HW225218   1.193   3.354   0.933 -0.9881 -0.2061  1.9470
 8107SOL     OW25219   0.318   4.782   6.952 -0.0473 -0.1669 -0.3381
 8107SOL    HW125220   0.265   4.765   7.035 -2.0078 -1.0310 -1.7049
 8107SOL    HW225221   0.307   4.877   6.925 -0.8480 -0.3287 -0.5812
 8108SOL     OW25222   0.488   2.405   6.743 -0.0337  0.0833 -0.5151
 8108SOL    HW125223   0.535   2.350   6.812  0.7203  2.7810  1.2715
 8108SOL    HW225224   0.395   2.426   6.774  0.2262  1.1071 -0.3830
 8109SOL     OW25225   6.761   4.639   5.235  0.3242 -0.3600 -0.0399
 8109SOL    HW125226   6.730   4.594   5.151  0.1422  1.2655 -0.8787
 8109SOL    HW225227   6.860   4.627   5.245  0.4188 -0.1608 -0.7311
 8110SOL     OW25228   1.380   4.208   6.770 -0.0264 -0.2680 -0.1010
 8110SOL    HW125229   1.390   4.305   6.751 -0.4922 -0.2756 -0.3991
 8110SOL    HW225230   1.427   4.155   6.699 -1.7884 -0.2971 -1.3030
 8111SOL     OW25231   2.232   6.789   3.029  0.8115 -1.0323 -0.1083
 8111SOL    HW125232   2.267   6.802   3.122  0.0532 -1.1308  0.1941
 8111SOL    HW225233   2.211   6.693   3.015 -0.3507 -0.8160  0.0816
 8112SOL     OW25234   4.613   1.322   3.564 -0.2644 -0.3295  0.3470
 8112SOL    HW125235   4.648   1.248   3.622  0.7238  0.8964  1.3803
 8112SOL    HW225236   4.598   1.404   3.620 -1.7376  0.1484 -0.6901
 8113SOL     OW25237   0.976   3.239   5.221 -0.0812 -0.0140 -0.5271
 8113SOL    HW125238   0.907   3.292   5.271 -0.4152  0.2002 -1.2099
 8113SOL    HW225239   1.065   3.251   5.266  0.1809  2.3931 -1.5238
 8114SOL     OW25240   1.696   3.919   0.905  0.0532 -0.2373  0.2020
 8114SOL    HW125241   1.676   3.838   0.960 -0.5590  1.1361  2.1362
 8114SOL    HW225242   1.616   3.944   0.850 -0.0929 -0.3960  0.3440
 8115SOL     OW25243   3.359   2.215   1.466  0.3331  1.0118  0.3056
 8115SOL    HW125244   3.381   2.257   1.554  1.8614  0.8506  0.0320
 8115SOL    HW225245   3.423   2.141   1.447  0.8078  1.8236 -1.4712
 8116SOL     OW25246   4.413   1.619   0.879 -0.1844  0.3997 -0.3718
 8116SOL    HW125247   4.482   1.579   0.818 -1.9855  0.5985 -2.6635
 8116SOL    HW225248   4.436   1.716   0.895  0.2754  0.3624 -0.7649
 8117SOL     OW25249   4.790   3.071   5.839 -0.0170  0.9042  0.0256
 8117SOL    HW125250   4.829   3.071   5.931  1.0961  0.3868 -0.4255
 8117SOL    HW225251   4.700   3.114   5.841  0.3547  1.6848  1.1975
 8118SOL     OW25252   1.161   2.801   4.851  0.2274 -0.0381 -0.0598
 8118SOL    HW125253   1.075   2.751   4.863 -0.3448  1.4654  2.9695
 8118SOL    HW225254   1.219   2.788   4.931  0.9633  2.3810 -0.1278
 8119SOL     OW25255   2.002   6.419   1.507  0.0301 -0.7281 -0.5394
 8119SOL    HW125256   1.951   6.492   1.463  1.2539  0.7896  0.4462
 8119SOL    HW225257   2.100   6.432   1.489  0.6881  0.4409  3.1421
 8120SOL     OW25258   5.324   3.462   2.127 -0.3186  0.0465  0.2901
 8120SOL    HW125259   5.248   3.478   2.189 -0.9896  0.7659 -0.6915
 8120SOL    HW225260   5.320   3.527   2.051  0.5615 -0.7194 -0.4404
 8121SOL     OW25261   0.885   6.877   3.136  0.1151  0.0661  0.4465
 8121SOL    HW125262   0.895   6.797   3.194 -1.2082 -0.6992 -0.3252
 8121SOL    HW225263   0.818   6.940   3.177  1.0894  0.7654  1.0101
 8122SOL     OW25264   6.364   3.489   1.012  0.1604 -0.6486 -1.0006
 8122SOL    HW125265   6.452   3.442   1.014  0.5153 -0.1091 -2.4686
 8122SOL    HW225266   6.302   3.442   0.949 -0.8793 -1.4416  0.5580
 8123SOL     OW25267   0.024   5.011   5.939 -0.4321  0.8667 -0.5956
 8123SOL    HW125268   0.067   4.958   6.012  0.4136  0.8303 -1.1018
 8123SOL    HW225269   0.057   5.106   5.944 -0.2149  0.8162 -1.0495
 8124SOL     OW25270   0.878   6.421   2.871 -0.1547 -0.5300 -0.1681
 8124SOL    HW125271   0.885   6.369   2.956 -0.2873 -0.7067 -0.2662
 8124SOL    HW225272   0.846   6.362   2.798  0.9500 -0.6479 -0.5871
 8125SOL     OW25273   6.139   4.953   2.933 -0.0217 -0.2423 -0.4516
 8125SOL    HW125274   6.230   4.919   2.908  0.5208  1.4852 -1.0358
 8125SOL    HW225275   6.069   4.899   2.887  0.7256 -1.2961 -0.3779
 8126SOL     OW25276   0.263   2.934   1.662  0.2168  0.0320 -0.2126
 8126SOL    HW125277   0.224   2.946   1.754 -2.1819  1.3105 -1.3241
 8126SOL    HW225278   0.337   3.000   1.649  0.8523 -0.4247  0.9125
 8127SOL     OW25279   5.009   5.356   6.863  0.1013  0.2426 -0.2186
 8127SOL    HW125280   5.033   5.422   6.935  1.3353 -1.0253  0.5812
 8127SOL    HW225281   5.071   5.366   6.786  0.7745 -0.4415  0.2162
 8128SOL     OW25282   5.596   2.643   4.632  0.1638  0.5422  0.2728
 8128SOL    HW125283   5.527   2.707   4.664 -1.9788 -2.1714  1.5139
 8128SOL    HW225284   5.686   2.673   4.663 -0.5608  3.4008 -0.0992
 8129SOL     OW25285   4.540   6.675   5.328 -0.2890  0.6397  0.1634
 8129SOL    HW125286   4.581   6.613   5.261 -1.5190 -0.7053  0.6145
 8129SOL    HW225287   4.610   6.704   5.394  0.2405 -0.5846  0.1618
 8130SOL     OW25288   1.624   1.716   5.982  0.2463  0.1029 -0.0826
 8130SOL    HW125289   1.539   1.758   5.952  1.4281  2.0565 -0.9237
 8130SOL    HW225290   1.625   1.707   6.081 -0.7423  0.4881 -0.0316
 8131SOL     OW25291   2.656   2.636   0.389 -0.6901 -0.9578 -0.1573
 8131SOL    HW125292   2.721   2.669   0.457 -0.1641 -0.2574 -0.9659
 8131SOL    HW225293   2.564   2.638   0.426 -0.6837  1.4150 -0.1197
 8132SOL     OW25294   0.334   4.730   3.939 -0.0717 -0.1400  0.2340
 8132SOL    HW125295   0.335   4.827   3.961  0.8098  0.1178 -0.8584
 8132SOL    HW225296   0.245   4.706   3.899  0.2855  0.5954 -1.0439
 8133SOL     OW25297   6.709   0.555   2.253 -0.0759 -0.1407 -0.6577
 8133SOL    HW125298   6.626   0.509   2.220  0.2038  0.5826 -2.4604
 8133SOL    HW225299   6.785   0.490   2.252 -0.3739 -0.5039 -0.0693
 8134SOL     OW25300   4.380   3.407   1.040 -0.3330 -1.0774 -0.3640
 8134SOL    HW125301   4.407   3.418   0.944  0.6402 -0.4185 -0.0238
 8134SOL    HW225302   4.435   3.467   1.098 -0.4773 -1.9260  0.6880
 8135SOL     OW25303   3.116   5.101   3.543 -0.6375  0.4849  0.1455
 8135SOL    HW125304   3.074   5.148   3.465 -3.3529 -0.6019  0.8607
 8135SOL    HW225305   3.197   5.153   3.572 -0.3514  1.6866 -2.4504
 8136SOL     OW25306   1.762   5.488   2.201 -0.2062 -0.3799  0.1097
 8136SOL    HW125307   1.744   5.470   2.298  0.9289 -0.8368  0.2519
 8136SOL    HW225308   1.769   5.402   2.152  2.1302 -0.3182  0.2039
 8137SOL     OW25309   3.911   4.880   6.845  0.7349 -0.0103  0.0749
 8137SOL    HW125310   3.847   4.948   6.882 -0.0122 -1.1770  0.9857
 8137SOL    HW225311   3.928   4.810   6.914  0.7404 -1.2770 -1.1790
 8138SOL     OW25312   5.203   3.692   4.130  0.6785  0.6212  0.1920
 8138SOL    HW125313   5.139   3.626   4.169  0.5054 -0.1300 -1.2957
 8138SOL    HW225314   5.182   3.783   4.164  0.5219  0.0144  1.8019
 8139SOL     OW25315   1.158   2.551   0.233 -0.0841 -0.1152  0.5519
 8139SOL    HW125316   1.170   2.466   0.285  2.7742  0.7924  1.5525
 8139SOL    HW225317   1.246   2.581   0.198 -1.4037  1.2545 -1.8314
 8140SOL     OW25318   5.319   1.018   2.653  0.6047  0.0272  0.4297
 8140SOL    HW125319   5.258   1.098   2.655  1.2922  0.6928 -2.1237
 8140SOL    HW225320   5.399   1.039   2.597  0.7139 -2.5289 -0.4852
 8141SOL     OW25321   5.610   2.363   4.623 -0.1077 -0.2713  0.5257
 8141SOL    HW125322   5.582   2.452   4.587 -0.2075 -0.2530  0.6468
 8141SOL    HW225323   5.533   2.321   4.672 -0.9219 -1.6170 -1.7724
 8142SOL     OW25324   5.083   6.694   0.922  0.2022  0.5504 -0.4004
 8142SOL    HW125325   5.177   6.670   0.945 -0.1800 -0.9200 -0.2988
 8142SOL    HW225326   5.036   6.726   1.004  0.0971 -0.4854 -0.0439
 8143SOL     OW25327   6.627   3.793   0.963 -0.1479 -0.3020 -0.0827
 8143SOL    HW125328   6.683   3.734   0.905 -0.4558 -0.6803  0.0004
 8143SOL    HW225329   6.581   3.861   0.906  1.9836  1.3569  0.0523
 8144SOL     OW25330   1.642   6.485   0.223 -0.8440 -0.0321 -0.0386
 8144SOL    HW125331   1.674   6.427   0.298 -0.5136  1.7755  1.2936
 8144SOL    HW225332   1.687   6.457   0.138  1.4782  0.0348  1.0851
 8145SOL     OW25333   5.862   5.848   5.990 -0.0745  0.0831  0.1781
 8145SOL    HW125334   5.764   5.865   5.985  0.2696  2.9968  1.2568
 8145SOL    HW225335   5.878   5.758   6.031 -2.2960  0.0954  1.2067
 8146SOL     OW25336   6.958   6.372   6.549  0.4441 -0.3828  0.0789
 8146SOL    HW125337   6.965   6.312   6.470 -0.2946  0.0076 -0.2950
 8146SOL    HW225338   6.910   6.456   6.522 -2.4121 -1.3929  1.5605
 8147SOL     OW25339   2.669   0.234   5.289 -0.1760 -0.0783 -0.1685
 8147SOL    HW125340   2.670   0.208   5.386  1.6808 -0.6763 -0.3208
 8147SOL    HW225341   2.691   0.331   5.281 -1.1400  0.1724  0.0312
 8148SOL     OW25342   5.893   4.600   4.383 -0.5605 -0.0170  0.2159
 8148SOL    HW125343   5.966   4.652   4.428  0.2047 -0.5332 -0.3984
 8148SOL    HW225344   5.916   4.588   4.286 -0.2867 -2.2167  0.5134
 8149SOL     OW25345   3.590   6.546   4.578  0.1561  0.0851 -0.0351
 8149SOL    HW125346   3.675   6.532   4.526 -0.3976 -0.3148 -0.8473
 8149SOL    HW225347   3.512   6.522   4.521 -0.4931  0.1158  0.8273
 8150SOL     OW25348   0.988   5.417   0.999  0.3766  0.4765  0.3128
 8150SOL    HW125349   0.943   5.416   0.910 -0.1829  1.7929  0.5595
 8150SOL    HW225350   1.020   5.324   1.021 -0.1956 -0.0292 -0.8790
 8151SOL     OW25351   5.108   3.322   3.965  0.3091 -0.5926  0.4737
 8151SOL    HW125352   5.191   3.333   3.912 -0.7932 -0.5671 -1.3281
 8151SOL    HW225353   5.045   3.397   3.946  0.2598 -0.0035  2.6495
 8152SOL     OW25354   4.800   3.080   3.287 -0.0304  0.0366 -0.3030
 8152SOL    HW125355   4.836   3.021   3.215 -2.3950 -0.0470 -1.5087
 8152SOL    HW225356   4.785   3.027   3.370 -0.7230 -0.7361 -0.9073
 8153SOL     OW25357   1.333   3.633   1.597 -0.0297 -0.0785 -0.0699
 8153SOL    HW125358   1.400   3.608   1.666 -1.2885 -0.7661  0.9422
 8153SOL    HW225359   1.277   3.554   1.575 -0.4792  0.4664 -0.9459
 8154SOL     OW25360   6.440   0.494   3.718  0.0253  0.0491  0.4924
 8154SOL    HW125361   6.430   0.565   3.788  0.2288  0.8785 -0.2960
 8154SOL    HW225362   6.357   0.491   3.662 -0.2488 -0.8017  0.9157
 8155SOL     OW25363   0.658   4.472   4.997 -0.1439  0.4003  0.1107
 8155SOL    HW125364   0.697   4.500   4.909  0.9627  0.5176  0.6204
 8155SOL    HW225365   0.730   4.475   5.068 -0.4391 -1.8882  0.5823
 8156SOL     OW25366   1.230   3.353   0.297 -0.3076  0.2797 -0.5384
 8156SOL    HW125367   1.284   3.437   0.287  0.5744 -0.2390 -0.3051
 8156SOL    HW225368   1.147   3.372   0.349  0.9959  0.5725  1.5170
 8157SOL     OW25369   5.481   6.082   6.895  0.3798 -0.6048  0.3226
 8157SOL    HW125370   5.502   6.022   6.817  0.3283 -0.0056 -0.1639
 8157SOL    HW225371   5.423   6.033   6.960  1.1818 -1.4210  0.4410
 8158SOL     OW25372   7.003   5.506   6.840 -0.0316 -0.7568 -0.5247
 8158SOL    HW125373   6.939   5.515   6.764 -1.7787 -0.3659  0.9402
 8158SOL    HW225374   7.011   5.593   6.888  0.4819 -1.1879  0.1987
 8159SOL     OW25375   3.977   6.069   4.729 -0.0503 -0.0297 -0.0413
 8159SOL    HW125376   3.915   6.085   4.805 -0.6751 -0.7290 -0.3956
 8159SOL    HW225377   3.980   6.151   4.670 -1.1217 -0.2043 -0.3640
 8160SOL     OW25378   6.074   2.407   2.053 -0.1045 -0.0480  0.0269
 8160SOL    HW125379   6.170   2.386   2.072  0.0457  0.3136 -0.3216
 8160SOL    HW225380   6.045   2.484   2.110  0.0829  0.4416 -0.5261
 8161SOL     OW25381   0.106   2.231   1.211 -0.0150  0.2300 -0.3682
 8161SOL    HW125382   0.119   2.171   1.290  2.2938  1.2083  0.0663
 8161SOL    HW225383   0.044   2.306   1.236  0.5070  0.3999  0.4601
 8162SOL     OW25384   5.097   6.184   0.081  0.0200  0.1610  0.8012
 8162SOL    HW125385   5.004   6.222   0.080 -1.2027 -2.5361 -0.6056
 8162SOL    HW225386   5.156   6.237   0.020 -1.4020  0.2656 -0.5485
 8163SOL     OW25387   2.421   7.012   5.861 -0.5455  0.2623  0.3761
 8163SOL    HW125388   2.432   6.955   5.942  0.6198  1.1796  0.8920
 8163SOL    HW225389   2.393   7.104   5.888 -2.5058 -0.0254 -0.4518
 8164SOL     OW25390   3.651   2.343   0.897  0.0688  0.1986 -0.2333
 8164SOL    HW125391   3.700   2.424   0.928  0.1245 -0.4883  1.6229
 8164SOL    HW225392   3.690   2.312   0.810 -0.5250  2.6072 -1.4413
 8165SOL     OW25393   0.239   2.649   5.563 -0.4215  0.2175  0.2571
 8165SOL    HW125394   0.180   2.596   5.502  0.5622  1.2289 -1.6713
 8165SOL    HW225395   0.280   2.588   5.630  0.9524 -1.5991 -2.0883
 8166SOL     OW25396   4.012   2.258   1.678  1.0468  0.2573  0.8884
 8166SOL    HW125397   4.049   2.281   1.588  1.6797  2.1241  1.5676
 8166SOL    HW225398   3.912   2.255   1.673  0.8373  3.4686  0.6625
 8167SOL     OW25399   2.758   2.376   0.659  0.5709  0.1558  0.1285
 8167SOL    HW125400   2.709   2.302   0.613  1.4097  0.2065 -0.8700
 8167SOL    HW225401   2.691   2.443   0.694 -0.1012 -0.0077 -0.8002
 8168SOL     OW25402   0.786   5.808   4.519 -0.1273 -0.3168 -0.6463
 8168SOL    HW125403   0.744   5.771   4.601 -1.4622 -1.3874 -1.7700
 8168SOL    HW225404   0.855   5.744   4.485  0.6575  0.2746 -0.2083
 8169SOL     OW25405   6.871   5.343   6.422  0.1461  0.0385  0.1945
 8169SOL    HW125406   6.826   5.367   6.336 -0.7535 -1.6558  0.1491
 8169SOL    HW225407   6.927   5.262   6.408 -1.3044 -1.2535  1.5358
 8170SOL     OW25408   1.145   3.847   2.811 -0.0911  0.0310 -0.1893
 8170SOL    HW125409   1.181   3.757   2.784  0.9511 -0.1311  1.5924
 8170SOL    HW225410   1.204   3.919   2.773  0.8557 -0.1670  0.8465
 8171SOL     OW25411   1.446   1.838   1.342 -0.4725 -0.2536  0.2641
 8171SOL    HW125412   1.482   1.896   1.268  0.7377 -0.2950  0.8057
 8171SOL    HW225413   1.349   1.818   1.324 -0.8573  1.7093 -0.0735
 8172SOL     OW25414   2.802   5.256   0.679  0.1312  1.0289  0.7680
 8172SOL    HW125415   2.778   5.197   0.601 -0.4834  1.8462  0.3212
 8172SOL    HW225416   2.889   5.301   0.660  0.6639  0.1919  1.1639
 8173SOL     OW25417   2.695   0.176   0.773 -0.2267 -0.0177  0.3785
 8173SOL    HW125418   2.758   0.183   0.695 -1.3228  0.2800 -0.5032
 8173SOL    HW225419   2.748   0.179   0.858  0.9634  0.0963 -0.3333
 8174SOL     OW25420   3.354   0.104   4.549  0.3061 -0.4441 -0.1479
 8174SOL    HW125421   3.355   0.100   4.649 -0.4084  1.5114 -0.0254
 8174SOL    HW225422   3.441   0.142   4.517 -0.6221  1.8878 -0.0453
 8175SOL     OW25423   2.208   3.558   6.344  0.7397 -0.0342 -0.2068
 8175SOL    HW125424   2.190   3.654   6.366 -1.5233 -0.6602  1.0157
 8175SOL    HW225425   2.288   3.526   6.395  0.0830  0.5975  1.2586
 8176SOL     OW25426   3.279   3.629   6.496 -0.5697  0.4442  0.5840
 8176SOL    HW125427   3.367   3.581   6.490  0.1608  1.8993 -1.3131
 8176SOL    HW225428   3.214   3.572   6.545  0.4262 -2.1994 -0.9734
 8177SOL     OW25429   2.967   6.917   2.443 -0.4488  0.1224  0.0667
 8177SOL    HW125430   2.948   6.863   2.525  1.9707 -0.2984  0.4314
 8177SOL    HW225431   2.962   7.014   2.466  0.0815  0.0092  0.7072
 8178SOL     OW25432   4.170   0.226   1.896 -0.9068 -0.1945  0.5851
 8178SOL    HW125433   4.089   0.277   1.923 -1.6196 -1.1395  0.2868
 8178SOL    HW225434   4.161   0.130   1.925 -0.4427 -0.5891 -0.5047
 8179SOL     OW25435   0.629   6.811   4.156  0.3791 -0.0042  0.6066
 8179SOL    HW125436   0.584   6.774   4.075  1.5718 -1.7361  0.6823
 8179SOL    HW225437   0.688   6.888   4.130  0.8216 -0.6082 -0.1868
 8180SOL     OW25438   4.163   4.860   0.154 -0.2449 -0.0330  0.1533
 8180SOL    HW125439   4.163   4.913   0.239 -0.2903  0.0792  0.0828
 8180SOL    HW225440   4.151   4.921   0.076  1.9191  0.1197 -0.1049
 8181SOL     OW25441   5.367   6.686   0.940 -0.5654  0.3232  0.6763
 8181SOL    HW125442   5.405   6.770   0.980 -2.6549  0.6963  2.0196
 8181SOL    HW225443   5.406   6.607   0.988  0.9226  0.5070 -0.1639
 8182SOL     OW25444   4.697   3.306   0.800 -0.0292  0.7432 -0.0659
 8182SOL    HW125445   4.793   3.297   0.778 -0.1208  0.4773 -0.3582
 8182SOL    HW225446   4.646   3.339   0.721 -0.6841 -2.1368 -0.9774
 8183SOL     OW25447   5.885   5.594   5.768 -0.0554 -0.5472  0.2481
 8183SOL    HW125448   5.978   5.630   5.764 -1.0849  2.4831  1.1882
 8183SOL    HW225449   5.879   5.525   5.841  1.9537 -2.8209 -1.5528
 8184SOL     OW25450   6.946   6.882   4.127 -0.2797 -0.1316 -0.6882
 8184SOL    HW125451   6.982   6.957   4.182 -1.3612 -0.9557  1.2630
 8184SOL    HW225452   6.846   6.887   4.124 -0.3773 -1.4353 -0.5452
 8185SOL     OW25453   5.346   6.043   3.629 -0.3119  0.0722  0.0417
 8185SOL    HW125454   5.355   5.944   3.613 -0.4072 -0.1396  1.2201
 8185SOL    HW225455   5.257   6.062   3.670 -0.0274  0.5660  0.4422
 8186SOL     OW25456   6.424   0.350   5.104  0.1536  0.5594  0.7290
 8186SOL    HW125457   6.486   0.417   5.063 -0.7537  2.0566  1.7183
 8186SOL    HW225458   6.474   0.292   5.167  1.1602 -0.4307 -0.9114
 8187SOL     OW25459   1.371   6.201   4.754 -0.4274 -0.0442  0.0757
 8187SOL    HW125460   1.441   6.135   4.727  0.4432  0.8900 -0.0053
 8187SOL    HW225461   1.363   6.271   4.683 -1.9913 -0.5447 -0.2675
 8188SOL     OW25462   1.443   1.159   3.306 -0.0491 -0.0925  0.0644
 8188SOL    HW125463   1.470   1.115   3.221  0.8759  0.4364  0.0668
 8188SOL    HW225464   1.376   1.102   3.354  1.1384 -1.5304  0.0962
 8189SOL     OW25465   0.952   7.000   2.883 -0.0030  0.6689  0.0428
 8189SOL    HW125466   1.043   6.995   2.844 -0.7587  0.8589 -1.8245
 8189SOL    HW225467   0.952   6.956   2.973  2.0362  1.1946  0.3364
 8190SOL     OW25468   4.725   1.202   1.748 -0.3198  0.3874 -0.0348
 8190SOL    HW125469   4.773   1.196   1.661  1.5686  0.2730  0.9641
 8190SOL    HW225470   4.630   1.174   1.735  0.3973 -1.5868 -1.6674
 8191SOL     OW25471   4.500   5.125   6.032  0.4092  0.1148  0.0686
 8191SOL    HW125472   4.563   5.199   6.011  1.2325 -0.9214 -1.3175
 8191SOL    HW225473   4.407   5.151   6.005  0.6340  0.7582 -0.0985
 8192SOL     OW25474   5.493   5.564   4.237  0.0458 -0.1542  0.0818
 8192SOL    HW125475   5.513   5.519   4.150 -2.3065 -0.1322 -0.5547
 8192SOL    HW225476   5.488   5.663   4.223  1.1131 -0.0203  0.5813
 8193SOL     OW25477   0.478   5.873   4.617  0.2100  0.0658  0.6910
 8193SOL    HW125478   0.462   5.832   4.707 -0.3709 -0.2838  0.4420
 8193SOL    HW225479   0.484   5.972   4.625 -0.6922  0.1068  1.0153
 8194SOL     OW25480   6.140   6.069   2.408 -0.2569 -0.4880  0.4830
 8194SOL    HW125481   6.080   5.993   2.385 -1.6793  0.0010  2.3085
 8194SOL    HW225482   6.093   6.155   2.388  0.3790 -0.0853  0.6818
 8195SOL     OW25483   6.916   6.578   6.015  0.3733  0.1450 -0.1836
 8195SOL    HW125484   6.846   6.644   5.988 -0.3269 -0.3303  0.4271
 8195SOL    HW225485   6.877   6.486   6.015  0.5542  0.0343  1.6144
 8196SOL     OW25486   2.985   6.862   1.955  0.3796  0.2511  0.2276
 8196SOL    HW125487   3.081   6.851   1.930  1.2461  1.1656  2.8314
 8196SOL    HW225488   2.967   6.958   1.979 -1.7222  0.5325 -2.0048
 8197SOL     OW25489   4.089   1.536   2.406 -0.0654 -0.0612 -0.4098
 8197SOL    HW125490   3.993   1.520   2.429 -0.0303  0.2891 -0.0144
 8197SOL    HW225491   4.136   1.448   2.397 -0.0158 -0.2234  1.1330
 8198SOL     OW25492   1.461   0.372   6.805 -0.5720 -0.1606 -0.7379
 8198SOL    HW125493   1.413   0.425   6.875 -0.4844 -2.5314  1.2593
 8198SOL    HW225494   1.415   0.284   6.793  1.7656 -1.4871 -0.6082
 8199SOL     OW25495   5.316   2.882   6.096 -0.1403 -0.2486 -0.2301
 8199SOL    HW125496   5.298   2.787   6.072 -1.0318 -0.1951  0.2102
 8199SOL    HW225497   5.280   2.901   6.187  1.5775  0.0407  0.4432
 8200SOL     OW25498   4.920   4.669   0.569 -0.1891 -0.4438  0.3148
 8200SOL    HW125499   4.903   4.696   0.664 -1.1360 -1.4515  0.4473
 8200SOL    HW225500   4.840   4.691   0.514  1.3680  2.8075 -0.9105
 8201SOL     OW25501   6.821   1.183   3.529 -0.8664  0.3562  0.1248
 8201SOL    HW125502   6.871   1.181   3.442  1.7473  1.8157  1.4662
 8201SOL    HW225503   6.729   1.220   3.513 -0.9205 -0.5997 -2.1756
 8202SOL     OW25504   6.933   6.538   2.940 -0.1972 -0.4997 -0.0300
 8202SOL    HW125505   6.974   6.541   2.849 -1.0519  1.8264 -0.4069
 8202SOL    HW225506   6.836   6.560   2.934 -0.4674 -1.1722  1.3694
 8203SOL     OW25507   6.716   4.052   6.611  0.3882  0.0246 -0.0454
 8203SOL    HW125508   6.667   4.002   6.540  1.8130 -0.1095 -0.9759
 8203SOL    HW225509   6.758   3.988   6.675 -0.9236  0.1455  0.9862
 8204SOL     OW25510   5.610   1.816   6.496  1.0128 -0.2289  0.3327
 8204SOL    HW125511   5.601   1.897   6.553  1.1073  0.4010 -0.5275
 8204SOL    HW225512   5.704   1.784   6.497  0.7081 -1.1836  1.7865
 8205SOL     OW25513   5.346   3.212   2.026 -0.0464 -0.1722 -0.1931
 8205SOL    HW125514   5.352   3.308   2.055  0.5526 -0.4725  0.7174
 8205SOL    HW225515   5.335   3.208   1.926 -0.1497  0.8403 -0.2329
 8206SOL     OW25516   4.110   1.836   1.249 -0.3805  0.2876 -0.5669
 8206SOL    HW125517   4.113   1.921   1.197 -0.9116  1.2943  0.9830
 8206SOL    HW225518   4.048   1.846   1.326 -0.4839 -1.5370 -0.3692
 8207SOL     OW25519   2.951   3.833   5.039  0.0234 -0.5569 -0.3562
 8207SOL    HW125520   2.897   3.826   5.122 -1.2426  0.1148 -1.1002
 8207SOL    HW225521   2.988   3.743   5.015 -0.6298 -0.9902  0.2462
 8208SOL     OW25522   4.168   6.454   5.896 -0.4638 -0.1125 -0.0264
 8208SOL    HW125523   4.241   6.487   5.955  1.4843 -0.8307 -1.9264
 8208SOL    HW225524   4.117   6.382   5.944  3.0286 -2.9588 -0.1530
 8209SOL     OW25525   6.709   1.865   4.098  0.7723 -0.1898  0.2085
 8209SOL    HW125526   6.781   1.823   4.152  2.4037  1.5985 -0.4363
 8209SOL    HW225527   6.728   1.963   4.088 -1.4426  0.2290 -0.5201
 8210SOL     OW25528   1.566   1.635   4.711 -0.0662 -0.2077  0.2735
 8210SOL    HW125529   1.561   1.700   4.787 -0.3146 -0.9818  0.9327
 8210SOL    HW225530   1.661   1.606   4.698 -0.0908 -0.4415  0.6080
 8211SOL     OW25531   2.090   4.324   1.213  0.8338  0.2610  0.5388
 8211SOL    HW125532   2.138   4.369   1.288  1.2831 -1.5548  1.4168
 8211SOL    HW225533   2.055   4.392   1.149  0.5142  1.8561  2.3424
 8212SOL     OW25534   1.384   3.224   3.971  0.0065  0.3154 -0.1903
 8212SOL    HW125535   1.450   3.253   4.040 -1.3532  1.6746  0.5827
 8212SOL    HW225536   1.401   3.128   3.948 -0.3211 -0.6143  3.0368
 8213SOL     OW25537   6.656   5.195   0.621 -0.3567 -0.1271  0.0387
 8213SOL    HW125538   6.589   5.238   0.682 -0.2497 -0.2493  0.2451
 8213SOL    HW225539   6.610   5.131   0.561 -0.0564 -2.7934  2.4496
 8214SOL     OW25540   5.053   3.504   3.517  0.0621  0.0825 -0.2098
 8214SOL    HW125541   5.015   3.449   3.443  1.1460  0.3958 -1.0276
 8214SOL    HW225542   4.984   3.517   3.588 -1.0914  0.0285 -1.2971
 8215SOL     OW25543   4.456   4.849   1.081  0.0733  0.5076  0.2031
 8215SOL    HW125544   4.361   4.861   1.111  0.1266  0.1780  0.5049
 8215SOL    HW225545   4.512   4.822   1.159  0.1295 -0.7756 -0.2632
 8216SOL     OW25546   4.457   2.379   4.888  0.0500 -0.3523 -0.0370
 8216SOL    HW125547   4.514   2.459   4.868 -2.9046  1.1448 -4.0248
 8216SOL    HW225548   4.387   2.404   4.954  1.3123 -0.8736  1.5490
 8217SOL     OW25549   2.390   6.784   6.784  0.1787  0.0054  0.6759
 8217SOL    HW125550   2.392   6.881   6.760 -0.2673 -0.4183 -1.2909
 8217SOL    HW225551   2.336   6.771   6.867  1.7479  1.5901  2.0438
 8218SOL     OW25552   3.996   0.851   0.557  0.1965 -0.5979 -0.5263
 8218SOL    HW125553   4.068   0.920   0.558 -0.3132  0.0478  2.7302
 8218SOL    HW225554   3.937   0.864   0.477  1.2053  1.5457 -0.9735
 8219SOL     OW25555   6.232   4.260   0.686  0.4982 -0.9991 -0.4963
 8219SOL    HW125556   6.298   4.284   0.614 -0.6950 -0.4551 -1.4480
 8219SOL    HW225557   6.209   4.342   0.738 -0.4484 -0.8905 -1.0628
 8220SOL     OW25558   2.878   3.881   0.746 -0.3820  0.1752 -0.3012
 8220SOL    HW125559   2.959   3.824   0.732 -0.1462 -0.0569  1.7076
 8220SOL    HW225560   2.807   3.855   0.681 -0.4376 -2.7435  0.7932
 8221SOL     OW25561   6.015   5.476   4.150  0.1023  0.0194  0.7595
 8221SOL    HW125562   5.947   5.542   4.180  0.6179  0.4523  1.0002
 8221SOL    HW225563   5.970   5.394   4.114 -0.6971  1.8815 -2.9794
 8222SOL     OW25564   5.582   0.237   3.664  0.0268  0.3788  0.5671
 8222SOL    HW125565   5.603   0.281   3.577  0.1196  0.6448  0.7238
 8222SOL    HW225566   5.662   0.183   3.694 -0.4596 -0.7822 -0.1553
 8223SOL     OW25567   2.120   4.573   0.289  0.5842  0.1033  0.1975
 8223SOL    HW125568   2.201   4.609   0.334 -1.0795  0.8857  2.7315
 8223SOL    HW225569   2.048   4.642   0.288 -0.4112 -0.8949 -1.1026
 8224SOL     OW25570   1.283   4.385   4.090 -0.8908  0.4912 -0.4339
 8224SOL    HW125571   1.323   4.374   4.180  0.6785 -0.3464 -1.1958
 8224SOL    HW225572   1.216   4.311   4.074 -0.2482 -0.1031 -0.4196
 8225SOL     OW25573   4.173   1.303   2.290  0.4552  0.2196  0.4066
 8225SOL    HW125574   4.262   1.266   2.261  0.2866 -2.3486  2.6870
 8225SOL    HW225575   4.108   1.295   2.215  1.4267 -0.7128 -0.3751
 8226SOL     OW25576   4.032   1.400   5.955  0.1103 -0.1430 -0.9464
 8226SOL    HW125577   4.053   1.321   5.896 -0.9999  0.3050 -1.9865
 8226SOL    HW225578   3.992   1.473   5.899 -0.1588  0.6326  0.2363
 8227SOL     OW25579   6.360   5.149   3.643 -0.2637  0.1904  0.1837
 8227SOL    HW125580   6.416   5.199   3.710  1.2677 -2.0264  0.6548
 8227SOL    HW225581   6.419   5.104   3.577 -1.7187  3.1463 -3.5125
 8228SOL     OW25582   1.359   2.735   3.984  0.3810 -0.2946  0.1202
 8228SOL    HW125583   1.365   2.641   4.018 -0.4422 -1.5481 -2.8910
 8228SOL    HW225584   1.321   2.735   3.891 -0.7454  3.1461  0.4435
 8229SOL     OW25585   6.351   4.898   0.784  0.3285 -0.0726 -0.6893
 8229SOL    HW125586   6.379   4.917   0.878  0.5197  0.2335 -0.8037
 8229SOL    HW225587   6.428   4.918   0.722 -0.3467  1.4993 -1.0867
 8230SOL     OW25588   4.238   0.268   1.164  0.1175 -0.0859  0.0187
 8230SOL    HW125589   4.322   0.218   1.146  0.0262 -0.7767  1.3660
 8230SOL    HW225590   4.233   0.290   1.261 -0.5336  1.2976 -0.3110
 8231SOL     OW25591   2.543   0.807   1.076  0.0098  0.6227  0.2134
 8231SOL    HW125592   2.469   0.785   1.012  0.8190 -1.5310 -0.0713
 8231SOL    HW225593   2.583   0.895   1.052 -1.7670  1.3427 -0.2536
 8232SOL     OW25594   2.648   1.893   2.278 -0.1115  0.3319  0.5747
 8232SOL    HW125595   2.627   1.819   2.342  0.1171  0.6517  1.0282
 8232SOL    HW225596   2.743   1.920   2.290  0.6953 -1.2512 -1.5948
 8233SOL     OW25597   2.457   4.247   6.739  0.6612 -0.4995 -0.2297
 8233SOL    HW125598   2.431   4.338   6.773 -0.0902 -1.6246  2.4857
 8233SOL    HW225599   2.485   4.190   6.816  0.9146 -2.6544 -1.8357
 8234SOL     OW25600   1.292   4.423   0.863 -0.4193  0.1384 -0.2731
 8234SOL    HW125601   1.354   4.479   0.808  1.3595 -1.3894  0.0827
 8234SOL    HW225602   1.243   4.360   0.803  1.8841 -1.8744 -0.1908
 8235SOL     OW25603   3.603   3.229   5.796  1.0787 -0.0439  0.3795
 8235SOL    HW125604   3.620   3.289   5.873  1.4561  1.1332 -0.5898
 8235SOL    HW225605   3.511   3.247   5.759  0.6517 -1.0348  0.9085
 8236SOL     OW25606   5.167   3.698   1.016  0.6549  0.0529 -0.2400
 8236SOL    HW125607   5.220   3.623   1.055  1.6050  1.1863  0.7541
 8236SOL    HW225608   5.224   3.780   1.009 -1.1004  1.5647  1.6247
 8237SOL     OW25609   3.733   0.056   5.503  0.6021  0.2691 -0.4896
 8237SOL    HW125610   3.641   0.026   5.528  1.3475 -0.8369  1.0762
 8237SOL    HW225611   3.738   0.156   5.508  0.0423  0.2435  1.5887
 8238SOL     OW25612   1.817   1.974   4.667  0.2549 -0.1000  0.0514
 8238SOL    HW125613   1.899   2.002   4.616 -0.4968 -2.3620 -2.6600
 8238SOL    HW225614   1.842   1.903   4.733  0.3498 -2.3463 -2.2257
 8239SOL     OW25615   5.464   1.647   3.193  0.5726  0.3565 -0.3465
 8239SOL    HW125616   5.506   1.737   3.181  1.5362 -0.0703 -0.1912
 8239SOL    HW225617   5.415   1.645   3.280 -2.1038  1.7399 -1.6640
 8240SOL     OW25618   3.441   3.046   1.559  0.0753 -0.3344 -0.4245
 8240SOL    HW125619   3.472   2.970   1.617 -2.9344 -1.4706 -0.1350
 8240SOL    HW225620   3.416   3.124   1.617 -0.9330 -0.7118 -0.3360
 8241SOL     OW25621   3.545   0.356   1.255  0.5286  0.3014  0.3222
 8241SOL    HW125622   3.580   0.449   1.243  0.6027  0.1796 -0.4905
 8241SOL    HW225623   3.548   0.331   1.352 -0.9017  1.7040  0.7895
 8242SOL     OW25624   3.052   4.528   5.333 -0.0715  0.2217  0.7635
 8242SOL    HW125625   3.056   4.625   5.356 -0.4273  0.1784  1.0077
 8242SOL    HW225626   2.970   4.510   5.279  1.2812  0.5325 -1.5370
 8243SOL     OW25627   6.534   2.587   3.365 -0.8794  0.0539 -0.7494
 8243SOL    HW125628   6.476   2.621   3.291 -0.6795  0.0374 -0.9170
 8243SOL    HW225629   6.608   2.532   3.326 -0.3295  0.6700 -0.6037
 8244SOL     OW25630   3.180   4.038   6.748  0.1148  0.2179  0.5148
 8244SOL    HW125631   3.244   4.056   6.823  1.3154  0.5830 -0.5655
 8244SOL    HW225632   3.182   4.114   6.684 -2.3676  0.8325  1.0599
 8245SOL     OW25633   5.561   2.732   0.512  0.2082  0.0319  0.6363
 8245SOL    HW125634   5.594   2.639   0.530 -0.8717 -0.4262  0.3581
 8245SOL    HW225635   5.518   2.735   0.422  2.2822  1.3956 -0.3739
 8246SOL     OW25636   4.431   2.097   0.551  0.0514 -0.5352  0.5913
 8246SOL    HW125637   4.387   2.186   0.536 -1.1121 -1.4618 -2.2274
 8246SOL    HW225638   4.527   2.102   0.522 -0.3290 -0.4762 -0.7003
 8247SOL     OW25639   1.472   4.581   0.748 -0.2443  0.2314 -0.6170
 8247SOL    HW125640   1.439   4.543   0.661  0.1341 -0.3434 -0.5108
 8247SOL    HW225641   1.539   4.652   0.729  3.8042 -3.2937 -0.8585
 8248SOL     OW25642   0.644   3.893   4.200 -0.0269  0.6923 -0.5628
 8248SOL    HW125643   0.648   3.961   4.273 -0.4430  0.5844 -0.4385
 8248SOL    HW225644   0.549   3.881   4.170  0.0569  0.2360 -0.6530
 8249SOL     OW25645   0.097   5.043   3.014 -0.0375 -0.4481 -0.5343
 8249SOL    HW125646   0.136   4.957   3.047 -0.4443 -0.3230  0.3172
 8249SOL    HW225647   0.034   5.025   2.939  2.0067 -0.6053 -2.3038
 8250SOL     OW25648   3.128   3.149   5.302  0.4200  0.2308 -0.1373
 8250SOL    HW125649   3.061   3.170   5.231  0.5256 -0.5538 -0.4766
 8250SOL    HW225650   3.197   3.221   5.306  0.7570 -0.0243 -1.2429
 8251SOL     OW25651   5.805   6.241   3.182  0.2131 -0.1346 -0.2461
 8251SOL    HW125652   5.810   6.153   3.135  1.9648  0.0872 -0.5309
 8251SOL    HW225653   5.761   6.228   3.271  1.2959 -1.5022  0.1279
 8252SOL     OW25654   0.976   3.760   4.739  0.2466 -0.2199  0.1785
 8252SOL    HW125655   1.012   3.801   4.823  1.1598  0.1278 -0.3702
 8252SOL    HW225656   1.030   3.791   4.661 -1.6253  0.8122 -0.7753
 8253SOL     OW25657   1.612   3.708   5.479  0.0241 -0.2664  0.5382
 8253SOL    HW125658   1.603   3.697   5.578 -1.3016  1.7064  0.6961
 8253SOL    HW225659   1.601   3.805   5.456  0.9398 -0.6078 -1.5006
 8254SOL     OW25660   4.660   4.315   3.498 -0.5069  0.3950 -0.0061
 8254SOL    HW125661   4.668   4.239   3.563  0.3336  0.8651  0.4543
 8254SOL    HW225662   4.670   4.279   3.405  1.1718  0.0750  0.2618
 8255SOL     OW25663   3.848   6.110   4.050  0.5194 -0.0734  0.7303
 8255SOL    HW125664   3.763   6.117   3.999  0.9032 -1.2093 -0.1121
 8255SOL    HW225665   3.903   6.035   4.013  0.6872 -1.1428  2.9934
 8256SOL     OW25666   6.746   1.703   2.001 -0.7132  0.5304 -0.1353
 8256SOL    HW125667   6.829   1.666   2.043 -1.3466 -0.0241  0.6502
 8256SOL    HW225668   6.768   1.791   1.957 -0.0115  1.1426  1.3471
 8257SOL     OW25669   6.148   4.195   3.771  0.0774 -0.3230 -0.1031
 8257SOL    HW125670   6.052   4.194   3.744  0.5164 -2.5714 -1.8886
 8257SOL    HW225671   6.202   4.141   3.707  2.6082  1.0054  0.7470
 8258SOL     OW25672   5.342   4.230   2.645  0.4539  0.1020  0.4006
 8258SOL    HW125673   5.405   4.299   2.612 -0.9794  0.4410 -1.8246
 8258SOL    HW225674   5.301   4.182   2.567 -1.1359 -0.9108  1.7908
 8259SOL     OW25675   2.834   0.880   1.893  0.0636  0.3421 -0.1192
 8259SOL    HW125676   2.801   0.928   1.811  0.3621 -1.5017 -1.3948
 8259SOL    HW225677   2.925   0.842   1.875  0.4466  0.5056  1.3488
 8260SOL     OW25678   3.815   5.920   1.918 -0.3012  0.5600  0.0487
 8260SOL    HW125679   3.720   5.915   1.947 -0.2791 -1.0498 -0.1007
 8260SOL    HW225680   3.822   5.971   1.832 -0.9059  1.4010  0.4834
 8261SOL     OW25681   6.588   1.610   3.047 -0.0452 -0.4529 -0.0744
 8261SOL    HW125682   6.547   1.654   2.967 -1.1869  0.8650  1.1926
 8261SOL    HW225683   6.656   1.543   3.016 -0.5046 -0.0480 -2.1361
 8262SOL     OW25684   4.951   2.605   2.183 -0.0829 -0.1056 -0.2738
 8262SOL    HW125685   4.894   2.537   2.230 -0.6945 -0.1142 -1.0145
 8262SOL    HW225686   4.902   2.692   2.179  1.3415  0.9267  2.1639
 8263SOL     OW25687   1.229   1.742   0.813 -0.2104 -0.2434  0.3750
 8263SOL    HW125688   1.224   1.671   0.743 -1.4643  0.6350 -0.4647
 8263SOL    HW225689   1.244   1.831   0.769 -1.6269  0.4125  1.1505
 8264SOL     OW25690   1.706   2.815   2.799  0.1991 -0.8529 -0.3496
 8264SOL    HW125691   1.746   2.871   2.727 -1.4343  1.5449  0.4916
 8264SOL    HW225692   1.684   2.724   2.762  0.7366 -0.1864 -2.4503
 8265SOL     OW25693   3.876   6.940   2.973 -0.5686 -0.6926  0.0035
 8265SOL    HW125694   3.851   6.925   3.069  0.8499  0.2825  0.5609
 8265SOL    HW225695   3.802   6.988   2.927 -0.5550  0.4460  1.1022
 8266SOL     OW25696   3.601   0.326   2.004  0.3721 -1.0838 -0.0048
 8266SOL    HW125697   3.605   0.258   2.078  0.7092 -1.1325 -0.0680
 8266SOL    HW225698   3.594   0.278   1.916  0.6955 -1.0375 -0.0556
 8267SOL     OW25699   7.003   3.809   2.532 -0.1295  0.3768 -0.2235
 8267SOL    HW125700   7.015   3.842   2.626 -1.0915 -0.3235  0.1627
 8267SOL    HW225701   6.905   3.810   2.510  0.1005  0.6094 -1.2500
 8268SOL     OW25702   2.549   3.115   5.631 -0.1015 -0.0399  0.9060
 8268SOL    HW125703   2.527   3.030   5.583  0.0858 -0.4620  1.5564
 8268SOL    HW225704   2.519   3.193   5.577  2.6104 -0.3557 -1.2816
 8269SOL     OW25705   6.116   1.925   1.578  0.0632 -0.4177 -0.5487
 8269SOL    HW125706   6.035   1.909   1.635  1.1717  0.1382  1.2919
 8269SOL    HW225707   6.092   1.984   1.502 -0.7320  2.3373  1.6706
 8270SOL     OW25708   0.770   0.352   4.175 -0.4011 -0.3606 -0.2452
 8270SOL    HW125709   0.714   0.407   4.114  0.4722 -0.1363 -0.8538
 8270SOL    HW225710   0.829   0.411   4.229  0.5183 -0.6913 -0.8778
 8271SOL     OW25711   0.430   1.586   3.982  0.4742 -0.5740  0.2424
 8271SOL    HW125712   0.496   1.524   4.025 -1.4293 -1.7196  1.6768
 8271SOL    HW225713   0.476   1.672   3.958  2.3844 -1.1686  1.5121
 8272SOL     OW25714   5.040   2.332   4.531  0.0028  0.1887  0.1118
 8272SOL    HW125715   5.007   2.282   4.612 -1.8432  1.3115  0.1241
 8272SOL    HW225716   4.982   2.412   4.516  0.6595  0.3359 -1.9918
 8273SOL     OW25717   3.065   6.541   1.047  0.5194  0.0157  0.5471
 8273SOL    HW125718   3.153   6.494   1.046  2.5352  3.4328  0.3393
 8273SOL    HW225719   3.076   6.632   1.087 -2.4545  1.4180 -1.3973
 8274SOL     OW25720   6.666   3.698   3.323  0.5564  0.4165  0.4047
 8274SOL    HW125721   6.623   3.665   3.407  1.8835  2.2434  1.8970
 8274SOL    HW225722   6.728   3.628   3.287  2.4534  0.7021  2.8518
 8275SOL     OW25723   4.794   1.062   6.262  0.2321 -0.4182 -0.2643
 8275SOL    HW125724   4.722   1.127   6.238  0.7606  0.2765  0.0178
 8275SOL    HW225725   4.826   1.015   6.180  0.2213  0.0631 -0.5427
 8276SOL     OW25726   6.976   2.799   4.182  0.1937  0.1176 -0.3141
 8276SOL    HW125727   7.070   2.776   4.205 -0.2707 -2.0209 -0.3124
 8276SOL    HW225728   6.974   2.852   4.098  1.3238 -2.1024 -1.8521
 8277SOL     OW25729   6.432   6.820   0.295 -0.1241  0.8082  0.2320
 8277SOL    HW125730   6.484   6.851   0.375 -1.6689  0.7900  1.2706
 8277SOL    HW225731   6.349   6.875   0.286  0.3102  1.2094 -1.7422
 8278SOL     OW25732   0.741   0.931   0.815 -0.0279 -0.2087  0.2434
 8278SOL    HW125733   0.822   0.926   0.757  0.2811 -1.2484  0.7402
 8278SOL    HW225734   0.745   0.859   0.885 -1.5504 -0.5433  0.0361
 8279SOL     OW25735   6.767   6.457   4.271  0.3829  0.2812  0.4162
 8279SOL    HW125736   6.810   6.399   4.201 -0.3004 -0.6856  0.7733
 8279SOL    HW225737   6.833   6.478   4.343  0.4541 -0.6184  0.6171
 8280SOL     OW25738   3.204   2.913   0.322  0.3897 -0.1229 -0.5414
 8280SOL    HW125739   3.267   2.967   0.266 -0.6096  0.1808 -1.3890
 8280SOL    HW225740   3.257   2.849   0.378  1.5135  0.8687 -0.4265
 8281SOL     OW25741   4.004   5.414   3.637  0.1525 -0.0057  0.0525
 8281SOL    HW125742   3.921   5.470   3.641  1.0463  1.7411 -2.6356
 8281SOL    HW225743   3.983   5.325   3.596 -0.6678 -0.2505  0.9820
 8282SOL     OW25744   4.787   2.118   4.929 -0.4449 -1.0564 -0.4486
 8282SOL    HW125745   4.719   2.146   4.997  0.7099 -1.4029  0.8736
 8282SOL    HW225746   4.779   2.020   4.913 -1.5049 -0.7848 -1.7340
 8283SOL     OW25747   2.028   3.002   4.850 -0.5092  0.0040  0.2534
 8283SOL    HW125748   2.076   2.951   4.922  2.0953  0.0040 -1.3685
 8283SOL    HW225749   2.045   2.959   4.762 -2.1345  1.0648 -0.6180
 8284SOL     OW25750   2.199   4.044   3.337 -0.4989  0.1788  0.6931
 8284SOL    HW125751   2.114   4.097   3.334 -0.2653  0.5725  0.8128
 8284SOL    HW225752   2.181   3.949   3.315 -0.6159  0.6803 -1.5680
 8285SOL     OW25753   3.591   3.782   5.034  0.4261  0.4042 -0.6149
 8285SOL    HW125754   3.528   3.860   5.033  1.9383  1.6949 -1.6646
 8285SOL    HW225755   3.636   3.775   4.945  1.8925 -0.3245  0.1521
 8286SOL     OW25756   6.003   0.859   6.696 -0.3477 -0.0496  0.1805
 8286SOL    HW125757   6.068   0.787   6.672 -0.8272 -0.7804  1.0149
 8286SOL    HW225758   6.046   0.920   6.763  0.2852  0.8391 -0.9961
 8287SOL     OW25759   1.308   0.746   5.994  0.1189  0.6796  0.3164
 8287SOL    HW125760   1.283   0.741   5.898 -2.3153 -1.5335  0.9477
 8287SOL    HW225761   1.364   0.667   6.019  0.1924  0.8946  0.8572
 8288SOL     OW25762   0.590   0.485   3.087 -0.0814 -0.8553 -0.2674
 8288SOL    HW125763   0.524   0.551   3.124 -0.1829  0.6899 -2.9903
 8288SOL    HW225764   0.542   0.421   3.027  0.6532 -0.8466 -0.8629
 8289SOL     OW25765   0.557   0.245   1.082 -0.1122 -0.0284 -0.5757
 8289SOL    HW125766   0.510   0.222   1.167 -1.3509 -1.6900 -1.6502
 8289SOL    HW225767   0.575   0.343   1.080 -2.9537  0.6061  0.1906
 8290SOL     OW25768   0.845   0.509   1.264  0.4119  0.7394  0.3633
 8290SOL    HW125769   0.878   0.474   1.352  0.1884 -1.1420 -0.2512
 8290SOL    HW225770   0.892   0.461   1.190 -2.7014 -1.2235 -0.5453
 8291SOL     OW25771   4.136   1.981   1.874 -0.1917 -0.0334 -0.3871
 8291SOL    HW125772   4.093   1.962   1.786  2.4436  0.8503 -1.9793
 8291SOL    HW225773   4.182   2.070   1.871 -1.8954  1.1170  2.7041
 8292SOL     OW25774   1.743   0.805   6.586 -0.6691 -0.0259  0.3352
 8292SOL    HW125775   1.842   0.813   6.599 -0.7462 -0.3290  1.1649
 8292SOL    HW225776   1.706   0.737   6.649 -1.3064 -0.4451 -0.4688
 8293SOL     OW25777   4.916   6.821   4.631  0.0548  0.2059 -0.0265
 8293SOL    HW125778   4.905   6.828   4.730 -1.9212 -0.0183 -0.1953
 8293SOL    HW225779   4.872   6.737   4.599 -1.7751  1.6239 -1.3921
 8294SOL     OW25780   5.223   2.198   1.232 -0.1653  0.2582 -0.0322
 8294SOL    HW125781   5.239   2.101   1.210  0.0595  0.3280 -0.1766
 8294SOL    HW225782   5.159   2.204   1.309 -1.2514  0.0202 -0.8847
 8295SOL     OW25783   6.199   2.070   3.512 -0.3422 -0.0832 -0.0407
 8295SOL    HW125784   6.180   2.061   3.415 -0.8532 -1.5487  0.1683
 8295SOL    HW225785   6.140   2.008   3.564  0.2545  0.3207  1.1698
 8296SOL     OW25786   1.564   3.800   4.574 -0.2069  0.1597  0.3507
 8296SOL    HW125787   1.645   3.753   4.540  0.5640  0.1818  2.0808
 8296SOL    HW225788   1.586   3.848   4.659 -2.1349 -0.2102  1.1129
 8297SOL     OW25789   1.811   4.132   4.000 -0.0791  0.3104 -0.3638
 8297SOL    HW125790   1.802   4.129   3.901  0.9694  1.1421 -0.4958
 8297SOL    HW225791   1.733   4.183   4.039 -1.1953 -1.1370 -0.6206
 8298SOL     OW25792   5.043   2.346   1.839  0.0685 -0.2778  0.5928
 8298SOL    HW125793   5.111   2.328   1.910  0.1558  0.8804  0.8338
 8298SOL    HW225794   5.088   2.392   1.762  0.0072 -1.6576 -0.2894
 8299SOL     OW25795   5.886   1.288   0.189  0.1166 -0.0748  0.4431
 8299SOL    HW125796   5.820   1.260   0.259 -1.6004  1.8177 -0.3282
 8299SOL    HW225797   5.925   1.377   0.213  1.6854 -0.7138  0.3779
 8300SOL     OW25798   0.405   5.618   3.445  0.0565 -0.1866  0.2521
 8300SOL    HW125799   0.334   5.617   3.374  0.5996  1.4683 -0.3677
 8300SOL    HW225800   0.486   5.570   3.412  0.3530  0.6851 -0.3404
 8301SOL     OW25801   3.544   0.189   6.544  0.6141 -0.0894  0.2449
 8301SOL    HW125802   3.575   0.102   6.583  0.9328 -0.1025 -0.0363
 8301SOL    HW225803   3.545   0.259   6.616 -0.6502 -0.5464  0.7412
 8302SOL     OW25804   0.916   6.239   6.373 -0.0392 -0.4273  0.6672
 8302SOL    HW125805   0.877   6.189   6.451 -1.5731 -0.2399  0.0678
 8302SOL    HW225806   1.009   6.267   6.394 -0.0889 -1.2147  2.0564
 8303SOL     OW25807   6.144   0.683   6.552 -0.4698  0.7788  0.1823
 8303SOL    HW125808   6.117   0.589   6.531  0.8566  0.7351 -1.5496
 8303SOL    HW225809   6.202   0.718   6.478  0.9932  2.1511  1.8905
 8304SOL     OW25810   5.911   3.144   5.581 -0.3748  0.1137  0.4547
 8304SOL    HW125811   5.872   3.070   5.635 -2.6734  0.3387 -0.7689
 8304SOL    HW225812   6.000   3.116   5.543 -0.2409 -1.2004  1.6950
 8305SOL     OW25813   4.033   5.374   2.962 -0.1827 -0.4254  0.2812
 8305SOL    HW125814   4.015   5.321   2.879  1.0015 -0.5258  0.0812
 8305SOL    HW225815   3.946   5.402   3.002 -0.7880 -0.0957 -1.1762
 8306SOL     OW25816   1.086   1.133   2.883  0.7860 -0.1193 -0.6412
 8306SOL    HW125817   0.995   1.092   2.892  0.7926 -0.3000 -1.3625
 8306SOL    HW225818   1.132   1.131   2.972 -0.5858  1.5800  0.1759
 8307SOL     OW25819   2.619   6.202   6.259 -0.0721  0.4741 -0.5472
 8307SOL    HW125820   2.708   6.247   6.263  0.4058 -0.2544 -2.3279
 8307SOL    HW225821   2.550   6.267   6.225  0.2939  0.3473 -1.5621
 8308SOL     OW25822   2.397   2.209   6.502 -0.4621  0.1743 -0.1027
 8308SOL    HW125823   2.320   2.147   6.520  0.7725 -1.5255 -0.3961
 8308SOL    HW225824   2.365   2.304   6.505 -2.5652 -0.4762 -0.2854
 8309SOL     OW25825   6.195   6.325   1.499 -0.2351  0.1058 -0.1718
 8309SOL    HW125826   6.219   6.344   1.594 -2.0823  3.4175 -0.1800
 8309SOL    HW225827   6.108   6.276   1.496  1.0263 -2.2468 -0.2200
 8310SOL     OW25828   0.770   5.935   5.719 -0.0540  0.1802 -0.1344
 8310SOL    HW125829   0.735   6.011   5.664  0.4945  2.4782  2.5133
 8310SOL    HW225830   0.870   5.938   5.721 -0.0803  0.7311  1.7033
 8311SOL     OW25831   6.566   1.024   6.665  0.2680  0.4660 -0.1882
 8311SOL    HW125832   6.662   1.052   6.659  0.5435 -0.6157 -1.2535
 8311SOL    HW225833   6.542   1.009   6.760  1.4352 -0.1362  0.0298
 8312SOL     OW25834   6.013   4.960   5.854  0.1915  0.0095 -0.1103
 8312SOL    HW125835   6.073   4.994   5.782  0.5523 -0.1084  0.1324
 8312SOL    HW225836   6.034   4.864   5.873  0.5848  0.2353  0.6368
 8313SOL     OW25837   3.317   0.769   3.444  0.1194  0.7912  0.3495
 8313SOL    HW125838   3.373   0.746   3.524 -0.8071 -2.4199  0.1921
 8313SOL    HW225839   3.292   0.686   3.396 -0.3770  2.5525 -2.6606
 8314SOL     OW25840   6.603   5.248   5.761 -0.3559 -0.2085  0.0250
 8314SOL    HW125841   6.634   5.179   5.696  3.6876  0.6353  0.8225
 8314SOL    HW225842   6.619   5.339   5.723 -3.0929  0.4106  0.1080
 8315SOL     OW25843   6.204   4.568   0.563 -0.6558  0.0830 -0.4186
 8315SOL    HW125844   6.250   4.563   0.474  4.6511  1.0717  1.8676
 8315SOL    HW225845   6.177   4.662   0.581  1.2586  0.5663  0.1632
 8316SOL     OW25846   3.732   6.291   1.059  0.4541  0.4924  0.2458
 8316SOL    HW125847   3.697   6.380   1.029 -0.7394  0.1104  0.4538
 8316SOL    HW225848   3.786   6.302   1.142  0.2869  1.0092  0.2868
 8317SOL     OW25849   3.766   4.356   0.070 -0.2654  0.0049  0.3776
 8317SOL    HW125850   3.837   4.402   0.017  0.5479 -0.9795  0.5827
 8317SOL    HW225851   3.701   4.313   0.007 -1.2237  1.6567  0.1788
 8318SOL     OW25852   3.751   0.734   5.745  0.9254  0.7117  0.5298
 8318SOL    HW125853   3.659   0.701   5.766  1.0676  1.3113  2.2546
 8318SOL    HW225854   3.760   0.748   5.646 -0.6234  0.0701  0.2721
 8319SOL     OW25855   2.365   0.580   5.091 -0.5996  0.4151  0.7603
 8319SOL    HW125856   2.265   0.579   5.099 -0.5766 -0.1528  1.0859
 8319SOL    HW225857   2.405   0.586   5.182 -0.3396 -3.8703  1.1464
 8320SOL     OW25858   4.138   6.550   5.236 -0.7798  0.7326  0.0857
 8320SOL    HW125859   4.199   6.530   5.159 -2.1376  1.2527 -1.1838
 8320SOL    HW225860   4.066   6.612   5.205 -1.5092  0.7441  1.7338
 8321SOL     OW25861   0.908   2.442   2.248  0.1246  0.8603  0.5342
 8321SOL    HW125862   0.947   2.402   2.331 -0.1306  1.1523  0.7995
 8321SOL    HW225863   0.808   2.433   2.251 -0.2387  3.9661  1.9660
 8322SOL     OW25864   0.246   6.460   2.276 -0.9471  0.2225  0.1990
 8322SOL    HW125865   0.173   6.517   2.239 -0.7905  1.5437  1.8394
 8322SOL    HW225866   0.206   6.376   2.314 -1.3177 -0.1693 -0.9972
 8323SOL     OW25867   0.457   1.900   6.624  0.0622 -0.2979 -0.0502
 8323SOL    HW125868   0.481   1.988   6.666  0.7454 -0.3599 -0.3034
 8323SOL    HW225869   0.533   1.835   6.637  0.4578 -0.1963 -1.7388
 8324SOL     OW25870   2.868   0.442   1.806  0.4228 -0.2844 -0.4333
 8324SOL    HW125871   2.886   0.345   1.825  0.0155 -0.2785  0.0065
 8324SOL    HW225872   2.954   0.492   1.803  0.5396 -0.3556  1.0543
 8325SOL     OW25873   3.788   4.590   6.768  0.4652  0.1406 -0.6321
 8325SOL    HW125874   3.833   4.654   6.706  2.3252  0.9384  1.3666
 8325SOL    HW225875   3.857   4.529   6.808 -0.3728  0.5601  1.6123
 8326SOL     OW25876   3.608   3.238   4.775  0.6338 -0.1006  0.3168
 8326SOL    HW125877   3.642   3.307   4.711  0.4751 -0.7933 -0.5414
 8326SOL    HW225878   3.662   3.154   4.765 -0.2792 -0.6751  0.0778
 8327SOL     OW25879   5.674   2.730   4.313 -0.3073 -0.1433  0.0095
 8327SOL    HW125880   5.692   2.826   4.336  0.9158 -0.4467  0.4156
 8327SOL    HW225881   5.705   2.672   4.389 -0.4264 -0.8932 -0.5114
 8328SOL     OW25882   0.526   2.200   4.728 -0.7534  0.1165 -0.2870
 8328SOL    HW125883   0.510   2.299   4.729  1.9616  0.6588  2.1103
 8328SOL    HW225884   0.576   2.173   4.810 -0.9669 -3.2251 -1.1046
 8329SOL     OW25885   6.930   2.461   6.903 -0.7411 -0.2855 -0.3406
 8329SOL    HW125886   6.848   2.511   6.932 -2.2318 -3.5791  1.7342
 8329SOL    HW225887   6.998   2.463   6.976 -0.9460 -1.4677 -0.1042
 8330SOL     OW25888   0.461   0.776   0.076  0.0593 -0.1409 -0.4595
 8330SOL    HW125889   0.399   0.764  -0.001 -0.9572 -1.8486  0.5631
 8330SOL    HW225890   0.486   0.686   0.113 -0.1464  0.6252  1.7007
 8331SOL     OW25891   3.484   6.795   1.283 -1.0056  0.1135 -0.0805
 8331SOL    HW125892   3.398   6.744   1.286 -1.2932  0.6267  1.1605
 8331SOL    HW225893   3.468   6.888   1.316  0.0083  0.2341  0.0842
 8332SOL     OW25894   4.728   5.483   2.847  0.0494  0.2266  0.0251
 8332SOL    HW125895   4.810   5.430   2.825  1.8346  1.2542  3.4386
 8332SOL    HW225896   4.669   5.430   2.907  0.0219  0.7519  0.4724
 8333SOL     OW25897   2.732   4.478   6.313 -0.4878 -0.5377 -0.0392
 8333SOL    HW125898   2.674   4.453   6.236  0.7949  1.2141 -1.6782
 8333SOL    HW225899   2.697   4.436   6.397 -3.4651 -0.3556 -1.0950
 8334SOL     OW25900   0.394   0.806   2.342  0.1529 -0.2977  0.1202
 8334SOL    HW125901   0.435   0.852   2.263  0.5508 -2.4003 -0.9850
 8334SOL    HW225902   0.461   0.802   2.417  0.2570  0.4953  0.0778
 8335SOL     OW25903   6.300   6.882   5.497 -0.3284 -0.1818 -0.1878
 8335SOL    HW125904   6.272   6.790   5.467 -0.3360  0.2146 -1.4591
 8335SOL    HW225905   6.220   6.932   5.529 -0.7870  0.2207 -1.8465
 8336SOL     OW25906   2.439   1.803   2.577  0.4760 -0.2688 -0.1788
 8336SOL    HW125907   2.493   1.720   2.565  1.1751  0.3815 -1.8389
 8336SOL    HW225908   2.364   1.786   2.641  1.4911 -1.7325  0.6717
 8337SOL     OW25909   6.094   6.386   3.217  0.0700 -0.0757 -0.2666
 8337SOL    HW125910   6.104   6.481   3.188 -0.3089 -0.3534 -1.3627
 8337SOL    HW225911   5.996   6.362   3.220  0.0139  0.1837  2.1483
 8338SOL     OW25912   4.366   4.235   6.801  0.4053  0.5481 -0.2206
 8338SOL    HW125913   4.279   4.195   6.772 -0.0303 -0.2449  1.9437
 8338SOL    HW225914   4.437   4.165   6.799  0.5698  0.7154 -0.2394
 8339SOL     OW25915   5.918   1.993   2.431  0.2141  0.9826 -0.6072
 8339SOL    HW125916   5.966   2.011   2.517 -0.4710 -1.4420  0.3666
 8339SOL    HW225917   5.985   1.983   2.357  0.8360  2.5868 -0.3150
 8340SOL     OW25918   4.747   4.374   1.981  0.0325 -0.4204 -0.4287
 8340SOL    HW125919   4.791   4.285   1.970 -2.0257 -1.6719  0.8635
 8340SOL    HW225920   4.648   4.363   1.977 -0.2686  1.9133 -0.7057
 8341SOL     OW25921   2.138   0.962   0.820  0.1348 -0.1874 -0.0732
 8341SOL    HW125922   2.148   1.028   0.745 -1.6746 -0.1439 -0.3175
 8341SOL    HW225923   2.048   0.918   0.814 -0.3397  0.2795  2.4167
 8342SOL     OW25924   4.706   0.651   1.846 -0.1328  0.0808 -0.0473
 8342SOL    HW125925   4.772   0.631   1.774  0.0502 -0.4825  0.2710
 8342SOL    HW225926   4.726   0.594   1.926  0.2812  1.4068  0.8170
 8343SOL     OW25927   6.363   4.800   4.083 -0.1246 -0.3408 -0.3339
 8343SOL    HW125928   6.450   4.849   4.095  0.0169 -0.0110 -2.4005
 8343SOL    HW225929   6.289   4.855   4.122  0.1695  1.0496 -1.6287
 8344SOL     OW25930   3.713   0.048   3.731  0.7444 -0.0791 -0.0200
 8344SOL    HW125931   3.662   0.101   3.662  0.9884  0.4831  0.2213
 8344SOL    HW225932   3.782  -0.008   3.686 -0.0569 -0.8237 -0.3502
 8345SOL     OW25933   5.724   6.853   3.928  0.0488 -0.2143 -0.3934
 8345SOL    HW125934   5.785   6.904   3.990 -2.3554  1.9058  0.4113
 8345SOL    HW225935   5.676   6.782   3.980  2.4164 -2.6260 -1.2459
 8346SOL     OW25936   4.403   5.705   1.180 -0.2112 -0.2042 -0.6791
 8346SOL    HW125937   4.374   5.773   1.247 -0.8864 -0.3693 -0.7964
 8346SOL    HW225938   4.496   5.726   1.150 -0.2185  0.3645 -0.3297
 8347SOL     OW25939   2.603   4.610   4.024  0.1798 -0.4918  0.2084
 8347SOL    HW125940   2.616   4.548   4.101  0.7861  1.2484  1.5785
 8347SOL    HW225941   2.538   4.570   3.959 -0.4777 -1.9323  1.6841
 8348SOL     OW25942   6.769   6.959   6.313 -0.1122 -0.1902 -0.8600
 8348SOL    HW125943   6.794   6.985   6.220  1.1862  1.1089 -0.1905
 8348SOL    HW225944   6.851   6.939   6.365 -0.8534 -1.3488 -0.1046
 8349SOL     OW25945   6.880   4.590   1.187  0.6120  0.2476 -0.2419
 8349SOL    HW125946   6.789   4.603   1.227  0.9190 -1.8462  1.2925
 8349SOL    HW225947   6.871   4.551   1.095 -0.0355  0.0298 -0.0918
 8350SOL     OW25948   6.458   2.142   2.731  0.1852 -0.5586 -0.6823
 8350SOL    HW125949   6.417   2.228   2.762  0.3246 -0.5349 -0.5622
 8350SOL    HW225950   6.490   2.152   2.637  1.0373 -0.1926 -0.3569
 8351SOL     OW25951   2.158   6.442   1.760  0.4093  0.5356  0.2199
 8351SOL    HW125952   2.169   6.343   1.760  1.4215  0.5986  2.2678
 8351SOL    HW225953   2.091   6.468   1.691  2.1035 -1.2980 -2.2634
 8352SOL     OW25954   6.772   5.519   2.123  0.2004 -0.1251 -0.2385
 8352SOL    HW125955   6.719   5.539   2.041  0.3986  1.0181 -0.1160
 8352SOL    HW225956   6.755   5.590   2.191 -1.5763 -2.1288  1.5460
 8353SOL     OW25957   1.391   4.594   2.014 -0.0679 -0.3981  0.0573
 8353SOL    HW125958   1.475   4.606   1.961  0.1729 -0.7411  0.3538
 8353SOL    HW225959   1.314   4.583   1.952  0.3710 -1.9938 -0.2703
 8354SOL     OW25960   2.755   5.643   1.039 -0.6892  0.2589  0.4314
 8354SOL    HW125961   2.720   5.709   0.972 -1.4215 -0.5162  0.0201
 8354SOL    HW225962   2.786   5.561   0.991 -0.7545 -0.1069  1.0067
 8355SOL     OW25963   2.762   2.272   1.741  0.1749  0.3206 -0.3691
 8355SOL    HW125964   2.802   2.318   1.820  0.3320  2.6743 -1.7314
 8355SOL    HW225965   2.744   2.339   1.669 -1.7621 -1.4342 -1.6265
 8356SOL     OW25966   2.397   4.411   0.053 -0.0818 -0.3357  0.5008
 8356SOL    HW125967   2.478   4.469   0.060 -0.1256 -0.1646 -0.2771
 8356SOL    HW225968   2.425   4.316   0.038 -0.0152 -0.2690  0.1805
 8357SOL     OW25969   2.931   5.696   6.800 -0.2649  0.0878  0.2518
 8357SOL    HW125970   2.877   5.747   6.868 -0.7066 -0.3281  0.2153
 8357SOL    HW225971   3.010   5.655   6.845 -0.7319 -0.4589  0.5900
 8358SOL     OW25972   2.774   2.199   4.472 -0.0224  0.8565  0.0551
 8358SOL    HW125973   2.725   2.250   4.542 -0.0282 -0.1145  0.7627
 8358SOL    HW225974   2.865   2.175   4.505  0.4446  1.4649 -0.7430
 8359SOL     OW25975   4.162   5.809   3.224  0.4444  0.4432 -0.1325
 8359SOL    HW125976   4.144   5.742   3.152  2.2921  0.5097 -0.7192
 8359SOL    HW225977   4.176   5.761   3.311  0.3712  0.1789 -0.2642
 8360SOL     OW25978   4.525   1.939   3.866 -0.3633 -0.9296 -0.3399
 8360SOL    HW125979   4.483   1.942   3.775 -1.4036 -2.4285  0.0475
 8360SOL    HW225980   4.597   2.008   3.872 -1.8868  0.8690 -1.4852
 8361SOL     OW25981   1.651   1.484   1.563 -0.0365 -0.0562  0.5746
 8361SOL    HW125982   1.633   1.492   1.661 -1.1220  3.2058  0.2381
 8361SOL    HW225983   1.745   1.511   1.545 -0.6130  2.1240  0.5376
 8362SOL     OW25984   2.399   2.530   0.513  0.2502  0.2474  0.1123
 8362SOL    HW125985   2.420   2.491   0.423 -0.3210  1.8620 -0.7620
 8362SOL    HW225986   2.309   2.572   0.510 -0.6561 -1.4137  2.0614
 8363SOL     OW25987   5.702   3.557   2.086  0.0655 -0.2787 -0.1631
 8363SOL    HW125988   5.778   3.599   2.135  0.1492  0.0367 -0.5573
 8363SOL    HW225989   5.691   3.463   2.116  0.2338 -0.1470  0.3244
 8364SOL     OW25990   0.733   4.772   5.194  0.6163 -0.6075 -0.4753
 8364SOL    HW125991   0.665   4.781   5.121 -0.2767 -2.0807  0.1151
 8364SOL    HW225992   0.771   4.679   5.192 -0.3723 -1.1210  1.6823
 8365SOL     OW25993   1.003   5.356   6.690  0.2917 -0.8443  0.2133
 8365SOL    HW125994   0.980   5.366   6.787 -0.0334  1.7464 -0.0620
 8365SOL    HW225995   0.924   5.322   6.640 -0.3174  0.0793  0.5259
 8366SOL     OW25996   2.885   5.359   2.623 -0.6111  0.2939  0.3583
 8366SOL    HW125997   2.921   5.410   2.545 -0.7628  1.1296  0.8290
 8366SOL    HW225998   2.807   5.407   2.662 -2.3722 -1.5240 -0.6906
 8367SOL     OW25999   3.844   6.054   2.881 -0.3030  0.3065  0.1853
 8367SOL    HW126000   3.919   6.113   2.911 -0.4386  1.2398 -1.2293
 8367SOL    HW226001   3.856   5.963   2.921  0.2076  1.1151  1.9717
 8368SOL     OW26002   3.283   0.506   5.732  0.6266 -0.2525 -0.5257
 8368SOL    HW126003   3.317   0.417   5.765 -0.0835 -1.4151 -2.7144
 8368SOL    HW226004   3.194   0.525   5.774  0.0163 -1.4111 -1.2144
 8369SOL     OW26005   3.477   1.861   2.395  0.0017 -0.5318 -0.3242
 8369SOL    HW126006   3.484   1.943   2.340  0.2526  0.1575  0.7026
 8369SOL    HW226007   3.535   1.789   2.356 -0.6807 -0.4379 -1.5642
 8370SOL     OW26008   3.229   1.587   0.647  0.4944 -0.0997 -0.4069
 8370SOL    HW126009   3.145   1.541   0.619  0.7156 -1.3892  0.9203
 8370SOL    HW226010   3.208   1.657   0.715  0.4868 -0.5448  0.0599
 8371SOL     OW26011   1.185   1.803   6.381 -0.2514 -0.0228  0.0228
 8371SOL    HW126012   1.113   1.872   6.379 -0.1006  0.1194 -0.9382
 8371SOL    HW226013   1.257   1.828   6.316  0.0381 -0.8310  0.0218
 8372SOL     OW26014   5.352   1.860   5.786 -0.1838 -0.2253 -0.6273
 8372SOL    HW126015   5.287   1.913   5.732 -0.1454  1.8646  1.1958
 8372SOL    HW226016   5.445   1.881   5.756 -0.2549 -1.6219 -1.8790
 8373SOL     OW26017   1.800   0.858   3.200  0.4958  0.3388  0.0704
 8373SOL    HW126018   1.836   0.938   3.249 -0.3738  0.9935 -0.3159
 8373SOL    HW226019   1.791   0.781   3.263 -1.7392  1.5031  1.2994
 8374SOL     OW26020   4.408   0.798   5.116 -0.1811  0.0153  0.0359
 8374SOL    HW126021   4.448   0.869   5.058 -1.0409  1.4420  1.1393
 8374SOL    HW226022   4.369   0.726   5.058  1.1534  0.1557 -1.0923
 8375SOL     OW26023   4.750   1.036   6.690  0.2981 -0.2603 -0.2927
 8375SOL    HW126024   4.753   0.984   6.604  0.6492 -0.4246 -0.1821
 8375SOL    HW226025   4.842   1.046   6.726  0.0782 -0.8379  0.4589
 8376SOL     OW26026   5.133   6.175   2.589  0.3586 -0.1471  0.0954
 8376SOL    HW126027   5.037   6.189   2.565  0.8506 -0.3255 -2.2752
 8376SOL    HW226028   5.177   6.122   2.516  2.6261  1.3062  0.3143
 8377SOL     OW26029   5.967   5.652   6.165 -0.0402  0.4515  0.4461
 8377SOL    HW126030   5.975   5.641   6.265 -0.4059 -0.3880  0.3927
 8377SOL    HW226031   6.003   5.570   6.120  0.4935  0.9927 -0.1356
 8378SOL     OW26032   6.512   4.946   1.494 -0.0565  0.0961  0.3104
 8378SOL    HW126033   6.463   4.867   1.458 -0.0039  0.3583 -0.3482
 8378SOL    HW226034   6.601   4.917   1.529  0.9565  0.1635 -2.0111
 8379SOL     OW26035   6.483   5.352   3.799 -0.3949  0.1824 -0.3933
 8379SOL    HW126036   6.461   5.368   3.895  4.9218 -2.7802  1.7551
 8379SOL    HW226037   6.534   5.430   3.762  0.6268 -0.0734  0.4419
 8380SOL     OW26038   6.168   0.062   3.910  0.0593 -0.2779 -0.1895
 8380SOL    HW126039   6.195   0.113   3.829 -1.8633  0.8833 -0.1750
 8380SOL    HW226040   6.186   0.117   3.992  2.3954 -1.6162  0.2772
 8381SOL     OW26041   2.497   4.654   5.409 -0.0004 -0.1951  0.1639
 8381SOL    HW126042   2.421   4.709   5.443 -0.6024 -0.9176  0.0173
 8381SOL    HW226043   2.498   4.566   5.456  1.5572  0.3013  1.1042
 8382SOL     OW26044   1.331   4.627   2.722 -0.4232 -0.0264  0.1448
 8382SOL    HW126045   1.236   4.648   2.746  0.0029  2.6698 -0.2388
 8382SOL    HW226046   1.333   4.548   2.660 -2.2716 -0.9420  1.1518
 8383SOL     OW26047   4.375   0.639   4.080  0.1081 -0.1507  0.4206
 8383SOL    HW126048   4.297   0.578   4.068  2.1474 -2.8805  0.0194
 8383SOL    HW226049   4.354   0.706   4.150 -3.6780  1.2829 -1.7731
 8384SOL     OW26050   1.839   0.339   1.520  0.0168 -0.1533  0.4089
 8384SOL    HW126051   1.860   0.247   1.488  0.2391  0.0203  0.0454
 8384SOL    HW226052   1.763   0.377   1.467 -0.0696 -0.1260  0.5519
 8385SOL     OW26053   3.549   2.141   1.222 -0.2511  0.7582  0.3562
 8385SOL    HW126054   3.494   2.223   1.236 -0.4356  0.5455  0.8969
 8385SOL    HW226055   3.620   2.160   1.154 -1.4719  0.8182 -0.9626
 8386SOL     OW26056   1.641   1.768   2.133 -0.1319 -0.0634  0.0632
 8386SOL    HW126057   1.573   1.841   2.138  0.8559  0.8404  0.6454
 8386SOL    HW226058   1.598   1.685   2.098 -1.1879  0.9020 -1.0146
 8387SOL     OW26059   0.980   2.233   2.428  0.3920 -1.1986  0.1634
 8387SOL    HW126060   0.929   2.198   2.506 -0.1737 -2.1167 -0.6022
 8387SOL    HW226061   1.077   2.214   2.440  0.2714 -1.6095  0.4942
 8388SOL     OW26062   2.360   1.460   1.791  0.4182 -0.1255 -0.5883
 8388SOL    HW126063   2.360   1.551   1.748  0.1400  0.2803  0.2538
 8388SOL    HW226064   2.320   1.394   1.728 -1.2250  0.6972 -0.4729
 8389SOL     OW26065   4.000   0.838   2.197  0.0193 -0.0551  0.1451
 8389SOL    HW126066   4.074   0.783   2.236  0.6185  1.0221  0.5585
 8389SOL    HW226067   3.986   0.920   2.253 -1.3205 -0.1021 -0.0731
 8390SOL     OW26068   5.106   2.074   6.733  0.2035 -0.3015  0.7699
 8390SOL    HW126069   5.088   2.002   6.800  3.0166 -1.8606  0.0179
 8390SOL    HW226070   5.063   2.051   6.646  2.9300 -2.4261 -0.1505
 8391SOL     OW26071   6.044   1.049   0.173 -0.6838 -0.3926  0.0840
 8391SOL    HW126072   6.143   1.062   0.166 -0.6611  0.2918  1.4029
 8391SOL    HW226073   6.001   1.136   0.199 -1.6851 -0.5823 -0.8882
 8392SOL     OW26074   4.073   3.718   4.317 -1.3271  0.4587  0.2747
 8392SOL    HW126075   4.099   3.745   4.410  1.3710  0.6736 -0.4586
 8392SOL    HW226076   4.102   3.623   4.301  0.3605  1.1321 -1.0135
 8393SOL     OW26077   4.757   1.557   1.561  0.0932 -0.0844  0.3494
 8393SOL    HW126078   4.777   1.651   1.591  0.2006 -0.1425  0.4627
 8393SOL    HW226079   4.679   1.522   1.612 -0.5941  0.3029 -0.4128
 8394SOL     OW26080   5.067   5.162   2.410  0.1685  0.1946  0.4002
 8394SOL    HW126081   5.056   5.256   2.441 -1.3936  0.2354 -0.2055
 8394SOL    HW226082   5.057   5.158   2.310  1.0603 -0.5048  0.3261
 8395SOL     OW26083   4.345   1.571   5.960  0.8056 -0.0764 -0.1709
 8395SOL    HW126084   4.269   1.571   5.895  1.4359 -1.3295 -0.9589
 8395SOL    HW226085   4.335   1.647   6.024  0.2348  1.3354 -1.8380
 8396SOL     OW26086   5.952   4.662   4.074  0.3863 -0.2978  0.9104
 8396SOL    HW126087   5.978   4.575   4.033  0.7468 -0.3588  1.2604
 8396SOL    HW226088   5.990   4.737   4.020 -0.1784 -0.3512  0.4378
 8397SOL     OW26089   5.101   6.342   1.956 -1.0778 -0.0703 -0.0336
 8397SOL    HW126090   5.122   6.385   1.868 -1.6344  0.7432  0.2179
 8397SOL    HW226091   5.041   6.264   1.941 -2.2686  0.8541 -0.2870
 8398SOL     OW26092   4.453   2.250   1.563 -0.2092 -0.8742  0.0070
 8398SOL    HW126093   4.471   2.207   1.651 -2.0285  0.0468  0.8796
 8398SOL    HW226094   4.400   2.188   1.505 -0.1425 -0.9853  0.0655
 8399SOL     OW26095   6.716   3.789   2.807 -0.1179 -0.0519 -0.5865
 8399SOL    HW126096   6.701   3.855   2.733  1.6003 -0.2903 -1.1918
 8399SOL    HW226097   6.786   3.823   2.870  0.7005 -1.1990 -0.8296
 8400SOL     OW26098   0.184   0.906   1.623 -0.2718  0.4665  0.2715
 8400SOL    HW126099   0.271   0.948   1.648 -0.8576  1.9919 -0.1041
 8400SOL    HW226100   0.112   0.937   1.685 -0.9023  0.7855 -0.5895
 8401SOL     OW26101   3.006   5.913   6.353 -0.4934 -0.0442 -0.2744
 8401SOL    HW126102   3.050   5.907   6.443 -0.4436 -0.3495 -0.3165
 8401SOL    HW226103   3.029   5.831   6.300  0.6789  0.7777 -1.1006
 8402SOL     OW26104   2.815   6.496   0.414  0.1793  0.0054 -0.1650
 8402SOL    HW126105   2.720   6.478   0.389 -0.0380 -0.0299  0.6594
 8402SOL    HW226106   2.867   6.518   0.331 -0.5277 -0.0280 -0.6332
 8403SOL     OW26107   4.979   3.536   6.166 -0.1895 -0.3879  0.0066
 8403SOL    HW126108   4.899   3.500   6.212 -0.3970 -0.4908 -0.4247
 8403SOL    HW226109   5.056   3.540   6.230 -0.3806 -0.8413  0.2675
 8404SOL     OW26110   0.894   2.642   0.260 -0.2976  0.4564  0.3049
 8404SOL    HW126111   0.843   2.680   0.183  1.0818 -1.6400 -1.7609
 8404SOL    HW226112   0.986   2.617   0.231  0.2908 -0.4213  2.6587
 8405SOL     OW26113   4.139   0.605   5.707  0.4590  0.2906 -0.6299
 8405SOL    HW126114   4.096   0.525   5.749 -0.2808  1.1247  0.2382
 8405SOL    HW226115   4.226   0.623   5.753  1.1481 -0.6281 -1.5327
 8406SOL     OW26116   1.661   1.258   5.905  0.1515 -0.6013 -0.4316
 8406SOL    HW126117   1.747   1.210   5.922  0.1556  0.1373  1.9462
 8406SOL    HW226118   1.603   1.202   5.845  1.5989 -1.8637 -0.7196
 8407SOL     OW26119   5.044   0.164   5.710 -0.0693  0.2759  0.5467
 8407SOL    HW126120   4.955   0.147   5.669 -0.3458  1.1857  0.7348
 8407SOL    HW226121   5.044   0.255   5.753  1.4066  0.9465 -0.7597
 8408SOL     OW26122   2.785   2.214   2.513  0.6867  0.4454  0.1409
 8408SOL    HW126123   2.753   2.140   2.572  1.9574 -1.0407 -0.9609
 8408SOL    HW226124   2.722   2.291   2.521 -0.5692 -0.6405  1.4974
 8409SOL     OW26125   4.834   2.522   3.109  0.3187  0.3808  0.3396
 8409SOL    HW126126   4.887   2.516   3.193  0.1679  0.6534  0.4548
 8409SOL    HW226127   4.882   2.473   3.036 -0.1710 -0.9505  0.8902
 8410SOL     OW26128   6.201   2.516   1.483 -0.1960  0.0049 -0.6294
 8410SOL    HW126129   6.173   2.595   1.430  0.2639  0.0499 -0.8111
 8410SOL    HW226130   6.144   2.508   1.565 -0.4744  0.3150 -0.7935
 8411SOL     OW26131   0.613   5.243   2.783  0.7881 -0.4783 -0.7345
 8411SOL    HW126132   0.608   5.156   2.733 -2.0143 -1.2922  0.7591
 8411SOL    HW226133   0.562   5.313   2.733  2.2316  0.0909 -1.4522
 8412SOL     OW26134   2.736   0.749   6.682  0.3912 -0.2617  0.3630
 8412SOL    HW126135   2.696   0.832   6.644 -1.9976 -1.9753 -1.1222
 8412SOL    HW226136   2.719   0.746   6.781 -0.2751  0.6189  0.2844
 8413SOL     OW26137   5.332   5.199   5.382  0.4005  0.2750 -0.1717
 8413SOL    HW126138   5.247   5.244   5.354  0.4828  0.8808  0.5299
 8413SOL    HW226139   5.350   5.122   5.321  0.1460  1.0566 -1.2553
 8414SOL     OW26140   0.715   0.863   1.627  0.0472  0.2406 -0.0467
 8414SOL    HW126141   0.737   0.932   1.696 -0.8321  0.6148 -0.1258
 8414SOL    HW226142   0.695   0.776   1.671  0.0494  0.3319  0.1350
 8415SOL     OW26143   2.478   0.195   6.844  0.1537 -0.1463 -0.6741
 8415SOL    HW126144   2.543   0.120   6.834 -0.8669 -0.9898 -1.2208
 8415SOL    HW226145   2.512   0.260   6.912  1.0350 -1.1443 -0.1323
 8416SOL     OW26146   6.768   1.747   6.699 -0.0574  0.1125  0.4144
 8416SOL    HW126147   6.775   1.792   6.789 -0.4654  1.4953 -0.2141
 8416SOL    HW226148   6.855   1.755   6.651  0.2975 -1.0231  0.8560
 8417SOL     OW26149   2.125   3.268   4.646  0.1532 -0.0816 -0.0955
 8417SOL    HW126150   2.192   3.195   4.635  0.4003  0.1140  0.0849
 8417SOL    HW226151   2.110   3.286   4.743 -0.5910 -0.5077 -0.1215
 8418SOL     OW26152   1.894   6.034   1.734 -0.8708  0.4790 -0.1497
 8418SOL    HW126153   1.952   6.040   1.653  1.2519 -0.9566  1.1683
 8418SOL    HW226154   1.942   6.072   1.813 -0.6628 -2.7098  1.4354
 8419SOL     OW26155   3.981   0.314   3.888 -0.2157 -0.2759 -0.4564
 8419SOL    HW126156   3.887   0.317   3.855 -0.2131 -0.0764 -0.4446
 8419SOL    HW226157   4.044   0.334   3.812 -0.2302  0.6736 -0.2281
 8420SOL     OW26158   3.824   1.684   3.328  0.6493 -0.2681  0.0049
 8420SOL    HW126159   3.923   1.675   3.321  0.6262 -1.6996  1.0314
 8420SOL    HW226160   3.780   1.621   3.265  0.2775  2.7810 -3.0869
 8421SOL     OW26161   3.981   0.583   5.438 -0.1414 -0.2088  0.1407
 8421SOL    HW126162   4.028   0.638   5.507 -0.8890 -0.1446  0.6117
 8421SOL    HW226163   4.015   0.608   5.347 -0.4753  1.0533  0.3448
 8422SOL     OW26164   6.422   0.042   4.184  0.5940  0.2503  0.0679
 8422SOL    HW126165   6.443   0.029   4.281  0.6367 -2.3069 -0.2133
 8422SOL    HW226166   6.450   0.134   4.156 -0.2562  1.4123  2.6542
 8423SOL     OW26167   6.516   5.035   6.974  0.0705  0.7674  0.2992
 8423SOL    HW126168   6.501   5.083   6.888  1.0698 -0.9796 -0.9055
 8423SOL    HW226169   6.428   5.017   7.018 -0.9303 -1.7792 -2.3722
 8424SOL     OW26170   2.017   6.973   6.203  0.7805  0.0856 -0.1891
 8424SOL    HW126171   1.963   7.055   6.187 -1.6338 -1.1336  1.1162
 8424SOL    HW226172   2.097   6.995   6.260  0.8199  1.6810 -0.8332
 8425SOL     OW26173   2.195   2.936   0.943 -0.0366 -0.5374 -0.0435
 8425SOL    HW126174   2.130   2.873   0.984  0.1129 -0.6116  0.0815
 8425SOL    HW226175   2.146   3.006   0.891 -0.2210 -0.5021  0.1776
 8426SOL     OW26176   2.168   3.280   1.092  0.3860 -0.0047 -0.4611
 8426SOL    HW126177   2.227   3.246   1.018  0.7729 -1.9224  0.6529
 8426SOL    HW226178   2.221   3.288   1.176  0.0753  2.6618 -0.4479
 8427SOL     OW26179   3.029   3.917   2.689 -0.5468 -0.5540  0.2140
 8427SOL    HW126180   3.029   3.906   2.789 -0.1064  2.5471  0.6748
 8427SOL    HW226181   3.111   3.968   2.662 -0.7086 -1.2766 -1.7696
 8428SOL     OW26182   4.635   3.329   1.278 -0.1232  0.2987 -0.3411
 8428SOL    HW126183   4.649   3.423   1.311  0.7452  0.1602 -0.2782
 8428SOL    HW226184   4.648   3.265   1.354 -0.0280  0.0922 -0.5314
 8429SOL     OW26185   3.302   5.466   6.283  0.2698 -0.3726 -0.1608
 8429SOL    HW126186   3.382   5.426   6.240  1.8530 -0.2185  2.4444
 8429SOL    HW226187   3.322   5.487   6.379 -3.4141 -1.9099  1.1368
 8430SOL     OW26188   5.935   0.485   4.881 -0.5890 -0.0693  0.5325
 8430SOL    HW126189   5.858   0.500   4.818  1.1478  0.4282 -1.6171
 8430SOL    HW226190   5.940   0.389   4.906  0.1745 -0.8525 -2.3009
 8431SOL     OW26191   4.881   3.309   5.435  0.9379  0.1942 -0.0387
 8431SOL    HW126192   4.813   3.361   5.486  0.1749  0.1755 -1.0107
 8431SOL    HW226193   4.946   3.268   5.499  0.5984  0.9855  0.8423
 8432SOL     OW26194   0.544   6.551   5.035  0.3528  0.3585  0.2864
 8432SOL    HW126195   0.471   6.614   5.008  1.3388  0.4096 -2.5860
 8432SOL    HW226196   0.578   6.503   4.955  0.4879 -3.0234  2.1696
 8433SOL     OW26197   4.962   1.049   0.061  0.0892 -0.1014 -0.2452
 8433SOL    HW126198   5.031   0.982   0.034  1.8066  1.2144  0.6857
 8433SOL    HW226199   4.932   1.101  -0.020 -0.2204 -1.0288 -0.7358
 8434SOL     OW26200   2.878   6.126   4.478 -0.5434  0.6694  0.1866
 8434SOL    HW126201   2.786   6.119   4.439 -0.2081  2.2565 -0.9703
 8434SOL    HW226202   2.892   6.217   4.515  1.2930  1.2416 -1.7152
 8435SOL     OW26203   6.318   1.563   3.124 -0.0151 -0.5664  0.5204
 8435SOL    HW126204   6.414   1.572   3.099 -0.0906 -1.5528 -0.1984
 8435SOL    HW226205   6.273   1.652   3.119  0.7076 -0.2159  0.1976
 8436SOL     OW26206   2.772   5.119   3.467 -0.1226  0.1772  0.2940
 8436SOL    HW126207   2.693   5.106   3.407  0.5776 -2.6837 -0.1394
 8436SOL    HW226208   2.840   5.177   3.421 -0.0688 -1.0564 -1.2563
 8437SOL     OW26209   0.752   4.743   1.979 -0.0303 -0.7635 -0.4821
 8437SOL    HW126210   0.683   4.798   1.931  0.4204  0.1320 -0.1340
 8437SOL    HW226211   0.755   4.651   1.939 -1.7086 -0.9670 -0.2437
 8438SOL     OW26212   6.918   5.405   2.460 -0.2819 -0.2640 -0.4537
 8438SOL    HW126213   6.963   5.459   2.531  0.1576 -1.6266  0.3340
 8438SOL    HW226214   6.822   5.432   2.454 -0.3255 -0.1218  0.6593
 8439SOL     OW26215   0.116   5.394   2.274 -0.3944 -0.4315  0.2916
 8439SOL    HW126216   0.035   5.408   2.330 -0.5667 -0.9446  0.1755
 8439SOL    HW226217   0.090   5.379   2.179 -0.3079 -2.2817  0.5111
 8440SOL     OW26218   1.564   2.215   3.675 -0.2313  0.2407  0.5872
 8440SOL    HW126219   1.613   2.185   3.593 -0.5490  0.3684  0.3520
 8440SOL    HW226220   1.616   2.287   3.720  0.2392 -0.2371  0.8264
 8441SOL     OW26221   0.700   2.888   0.724  0.3046  0.5034 -0.1697
 8441SOL    HW126222   0.685   2.952   0.649  0.5363  1.3263  0.4763
 8441SOL    HW226223   0.797   2.888   0.749  0.0383  1.1910  0.9513
 8442SOL     OW26224   2.505   1.805   5.116 -0.7556  0.1504  0.3799
 8442SOL    HW126225   2.553   1.808   5.028 -0.4900  0.6529  0.5413
 8442SOL    HW226226   2.411   1.774   5.101 -0.9804  1.0736 -0.2047
 8443SOL     OW26227   2.254   4.925   3.173  0.1055  0.2271  0.3103
 8443SOL    HW126228   2.323   4.895   3.108  0.6628  1.8448  0.1002
 8443SOL    HW226229   2.291   4.917   3.266 -0.1349 -0.6648  0.3387
 8444SOL     OW26230   5.450   5.910   5.398 -0.1858 -0.3835 -0.1171
 8444SOL    HW126231   5.456   5.935   5.495 -0.2654 -0.7867 -0.0061
 8444SOL    HW226232   5.542   5.910   5.358 -0.0270 -1.2498  0.2257
 8445SOL     OW26233   0.949   4.903   6.860  0.1319 -0.2360 -0.3830
 8445SOL    HW126234   0.864   4.868   6.819 -0.2985 -0.1976  0.4529
 8445SOL    HW226235   0.926   4.975   6.926  0.7941 -0.4151  0.0491
 8446SOL     OW26236   6.896   6.822   5.298  0.3508  0.1275 -0.1205
 8446SOL    HW126237   6.939   6.911   5.314 -0.2179  0.2470  0.8259
 8446SOL    HW226238   6.796   6.834   5.294  0.2556 -0.5004  0.2836
 8447SOL     OW26239   5.103   2.344   3.862 -0.0898  0.0275 -0.2898
 8447SOL    HW126240   5.061   2.254   3.857 -0.3701  0.1172  0.3131
 8447SOL    HW226241   5.093   2.380   3.955  2.4545 -0.4749  0.2321
 8448SOL     OW26242   3.257   6.574   1.767  0.8974  0.6169 -0.9253
 8448SOL    HW126243   3.211   6.577   1.678  0.5773 -0.7305 -0.8326
 8448SOL    HW226244   3.345   6.527   1.757  0.8649  0.4733 -0.5372
 8449SOL     OW26245   1.099   4.013   4.385 -0.2826 -0.5487 -0.1298
 8449SOL    HW126246   1.121   4.097   4.435  0.4385 -1.8522  1.8874
 8449SOL    HW226247   1.007   3.983   4.408 -0.1938 -0.8024 -0.0994
 8450SOL     OW26248   6.936   6.794   2.359  0.3696  0.6266 -0.0567
 8450SOL    HW126249   6.854   6.850   2.351  0.1884  0.2813 -0.6608
 8450SOL    HW226250   6.986   6.820   2.441 -0.7322  0.3275  0.7283
 8451SOL     OW26251   2.937   2.082   2.022 -0.4947  0.1185  0.2044
 8451SOL    HW126252   2.903   2.176   2.019  0.7382  0.5785  0.2461
 8451SOL    HW226253   2.944   2.052   2.117  0.0796  0.3541  0.2403
 8452SOL     OW26254   5.002   0.829   6.170  0.2023 -0.8861 -0.7756
 8452SOL    HW126255   4.954   0.833   6.082  2.0481 -1.7087 -1.8951
 8452SOL    HW226256   5.083   0.888   6.166 -0.7458  0.6771  1.1418
 8453SOL     OW26257   0.100   0.748   0.383 -0.2954  0.4667 -0.0127
 8453SOL    HW126258   0.116   0.846   0.400 -0.3974  0.8105 -1.7415
 8453SOL    HW226259   0.050   0.737   0.297  0.1895 -1.1513 -0.1133
 8454SOL     OW26260   0.039   4.927   1.697  0.2727 -0.2079  0.0421
 8454SOL    HW126261   0.018   5.021   1.726 -1.2569 -0.4124 -0.3000
 8454SOL    HW226262   0.093   4.930   1.613  0.9727  0.3535  0.4938
 8455SOL     OW26263   6.931   0.820   2.460  0.5367 -0.3217  0.1561
 8455SOL    HW126264   6.851   0.844   2.406 -0.4834 -0.8346  1.3858
 8455SOL    HW226265   6.933   0.875   2.543  1.2740 -0.5425  0.2914
 8456SOL     OW26266   5.867   5.884   1.979  0.5458  0.0099 -0.2769
 8456SOL    HW126267   5.837   5.867   2.073  1.9718  1.8092  0.5861
 8456SOL    HW226268   5.833   5.812   1.919 -1.0854 -0.7627  1.4629
 8457SOL     OW26269   0.053   5.287   5.018 -0.5132  0.2880  0.7145
 8457SOL    HW126270  -0.032   5.269   4.969  0.8102  0.2649 -1.7278
 8457SOL    HW226271   0.110   5.204   5.017  0.7696  1.1463 -0.3754
 8458SOL     OW26272   1.619   4.333   1.888 -0.4453  0.1125 -0.0931
 8458SOL    HW126273   1.599   4.235   1.895 -1.0325  0.3361  2.2469
 8458SOL    HW226274   1.542   4.380   1.845  0.4142 -0.5695 -2.5281
 8459SOL     OW26275   0.609   0.785   2.528 -0.2450  0.0830  0.0085
 8459SOL    HW126276   0.662   0.794   2.444 -0.6026  0.0879 -0.2169
 8459SOL    HW226277   0.670   0.760   2.603 -0.0597 -0.8699 -0.4432
 8460SOL     OW26278   2.851   3.514   2.320 -0.6881  0.0438 -0.2354
 8460SOL    HW126279   2.902   3.553   2.397 -1.4265 -0.8424  0.7258
 8460SOL    HW226280   2.757   3.547   2.323 -1.5626 -2.3546  1.0808
 8461SOL     OW26281   6.752   4.583   5.983 -0.3637  0.1780  0.0152
 8461SOL    HW126282   6.676   4.519   5.996 -0.1229 -0.3869 -1.2194
 8461SOL    HW226283   6.823   4.539   5.929  0.4995  0.9821  0.4661
 8462SOL     OW26284   2.200   1.754   2.704  0.1142 -0.5310 -0.8073
 8462SOL    HW126285   2.124   1.742   2.640 -0.1232 -1.9322 -0.2943
 8462SOL    HW226286   2.204   1.677   2.766  1.5739 -0.1682 -0.4029
 8463SOL     OW26287   6.012   0.751   1.156  0.3419  0.2380  0.0258
 8463SOL    HW126288   5.937   0.754   1.222 -0.6055 -2.3419 -0.8321
 8463SOL    HW226289   6.099   0.766   1.205 -0.4299 -0.2203  1.6181
 8464SOL     OW26290   2.494   6.397   4.520  0.2213  0.6030  0.2315
 8464SOL    HW126291   2.565   6.352   4.573 -0.4412  0.4898  1.0558
 8464SOL    HW226292   2.523   6.406   4.425  1.0039 -0.1354  0.3917
 8465SOL     OW26293   1.618   1.030   6.472  0.0413 -0.0211 -0.9625
 8465SOL    HW126294   1.551   1.006   6.402 -2.2420 -1.3742  1.5015
 8465SOL    HW226295   1.656   0.947   6.512  0.7790  0.6903 -0.1345
 8466SOL     OW26296   1.975   1.085   3.252  0.3087 -0.5903  0.6717
 8466SOL    HW126297   1.991   1.176   3.215  1.4115 -1.1209 -0.2015
 8466SOL    HW226298   2.050   1.024   3.226  1.1021 -1.0537  3.6769
 8467SOL     OW26299   5.249   5.784   1.597  0.0550  0.0285 -0.1653
 8467SOL    HW126300   5.198   5.698   1.589 -1.3507  0.7540  0.5522
 8467SOL    HW226301   5.253   5.828   1.507 -0.9029  0.1020 -0.1910
 8468SOL     OW26302   4.103   1.993   5.971  0.0628  0.1448 -0.1698
 8468SOL    HW126303   4.122   2.089   5.950  2.3120 -0.1625  0.2676
 8468SOL    HW226304   4.184   1.950   6.011 -0.9665 -1.8903 -0.1216
 8469SOL     OW26305   6.720   2.063   2.143  0.3073 -0.3923 -0.4515
 8469SOL    HW126306   6.738   2.036   2.048  0.1052 -0.7071 -0.4057
 8469SOL    HW226307   6.621   2.075   2.155  0.3916  0.2773 -0.4424
 8470SOL     OW26308   1.893   5.291   0.552 -0.0001  0.2879 -0.1898
 8470SOL    HW126309   1.864   5.322   0.643 -0.5203  0.6663 -0.4818
 8470SOL    HW226310   1.950   5.361   0.510 -0.1793  0.3285 -0.3629
 8471SOL     OW26311   4.659   2.299   0.422 -0.5687 -0.5353  0.0176
 8471SOL    HW126312   4.645   2.294   0.323  0.1080  1.6305 -0.2319
 8471SOL    HW226313   4.646   2.393   0.453 -1.6291 -1.3118  2.1628
 8472SOL     OW26314   6.615   5.745   2.715  0.1546  0.5802 -0.3178
 8472SOL    HW126315   6.614   5.777   2.621 -2.4620 -0.2141 -0.6464
 8472SOL    HW226316   6.526   5.706   2.738  1.3206 -1.0220  1.8944
 8473SOL     OW26317   1.591   5.360   6.278 -0.0460 -0.6424  0.3909
 8473SOL    HW126318   1.614   5.364   6.180 -0.2886  1.0582  0.3619
 8473SOL    HW226319   1.492   5.369   6.289  0.1295  1.1092  0.8321
 8474SOL     OW26320   3.725   5.324   6.214  0.2951 -0.4342 -0.3816
 8474SOL    HW126321   3.737   5.414   6.256 -1.0045  0.2487 -1.3989
 8474SOL    HW226322   3.776   5.256   6.266 -1.5771  0.2745  2.5721
 8475SOL     OW26323   3.287   2.061   3.452  0.3593 -1.0301 -0.0832
 8475SOL    HW126324   3.341   1.978   3.436 -0.3562 -1.5749  0.2829
 8475SOL    HW226325   3.326   2.136   3.399  2.2649 -1.0790  1.1719
 8476SOL     OW26326   4.829   0.817   2.940  0.1867  0.5286 -0.2089
 8476SOL    HW126327   4.925   0.833   2.919  0.1062  0.6813 -0.4741
 8476SOL    HW226328   4.821   0.757   3.019  0.4995  0.8782  0.0879
 8477SOL     OW26329   6.972   1.639   4.049 -0.4596 -0.4908  0.5680
 8477SOL    HW126330   7.072   1.637   4.053 -0.4603  0.4047  2.2681
 8477SOL    HW226331   6.935   1.573   4.115 -0.9349  0.6256  1.4595
 8478SOL     OW26332   2.797   1.550   5.426  0.0036  0.1297 -0.1752
 8478SOL    HW126333   2.723   1.602   5.383 -0.6096 -0.5427  0.0539
 8478SOL    HW226334   2.885   1.592   5.403 -0.5143  1.9442  0.8896
 8479SOL     OW26335   0.394   6.019   1.895  0.0509  0.1086  0.2482
 8479SOL    HW126336   0.458   6.026   1.971 -1.1660  3.9810  1.1279
 8479SOL    HW226337   0.304   5.994   1.929 -0.5017  1.8646  0.1703
 8480SOL     OW26338   1.336   0.869   6.940  0.6296 -0.2737  0.1032
 8480SOL    HW126339   1.262   0.802   6.938  0.9364 -0.6163  0.1758
 8480SOL    HW226340   1.303   0.955   6.901  0.0025 -0.2263  0.7012
 8481SOL     OW26341   4.648   6.492   6.326  0.9666 -0.2108  0.5107
 8481SOL    HW126342   4.631   6.397   6.351 -3.0515  0.4155  0.9203
 8481SOL    HW226343   4.704   6.497   6.243  1.7428 -2.8409  0.8090
 8482SOL     OW26344   4.996   0.011   0.935  0.6122 -0.3317  0.1582
 8482SOL    HW126345   5.030   0.053   0.851 -1.9345  2.2885  0.2761
 8482SOL    HW226346   4.930  -0.061   0.912 -0.5516  0.8013 -0.1490
 8483SOL     OW26347   6.272   5.913   0.998  0.0814 -0.5200  0.0436
 8483SOL    HW126348   6.285   5.993   1.057  0.0954 -0.0283 -0.6115
 8483SOL    HW226349   6.354   5.857   0.998  0.6262  0.2576 -0.6483
 8484SOL     OW26350   6.435   3.392   0.597 -0.0142 -0.8416 -0.0000
 8484SOL    HW126351   6.381   3.383   0.680 -2.2159 -0.5280 -1.3220
 8484SOL    HW226352   6.374   3.398   0.518  1.9924 -0.8270 -1.6281
 8485SOL     OW26353   1.285   2.852   6.758  0.3671  0.2461  0.4611
 8485SOL    HW126354   1.202   2.842   6.704  0.4015  0.5307  0.3546
 8485SOL    HW226355   1.364   2.850   6.697  0.4207  0.3138  0.5295
 8486SOL     OW26356   4.168   6.818   1.256 -0.4552 -0.4655 -0.0644
 8486SOL    HW126357   4.155   6.902   1.202 -0.5059  0.2915  1.0831
 8486SOL    HW226358   4.114   6.824   1.340  0.9266 -0.8700  0.8817
 8487SOL     OW26359   3.871   6.499   1.189  0.2610 -0.0523  0.1170
 8487SOL    HW126360   3.802   6.568   1.169  0.7408  0.2584 -0.5015
 8487SOL    HW226361   3.907   6.514   1.281 -0.7510 -0.4502  0.5944
 8488SOL     OW26362   1.157   4.548   1.060  0.7275 -0.7774  0.2091
 8488SOL    HW126363   1.235   4.573   1.117  0.5474  0.7868 -0.1893
 8488SOL    HW226364   1.189   4.502   0.977  1.4055  1.1322 -0.6552
 8489SOL     OW26365   2.858   6.948   2.887 -0.0264  0.0341 -0.0176
 8489SOL    HW126366   2.888   6.861   2.849  0.0842 -0.1240  0.4241
 8489SOL    HW226367   2.860   6.943   2.987 -1.4805  0.0267  0.0324
 8490SOL     OW26368   4.222   6.154   4.078 -0.0622 -0.8202 -0.3047
 8490SOL    HW126369   4.272   6.173   3.993 -0.1380 -3.0670 -0.8993
 8490SOL    HW226370   4.143   6.216   4.085  1.8647  1.8027 -0.0650
 8491SOL     OW26371   6.411   0.651   6.867 -0.4842  0.3895  0.1702
 8491SOL    HW126372   6.494   0.646   6.810  0.2045  0.1034  1.1639
 8491SOL    HW226373   6.403   0.568   6.921 -0.8145  0.8926  0.9088
 8492SOL     OW26374   0.086   4.696   3.812  0.3210  0.5658  0.4612
 8492SOL    HW126375   0.041   4.748   3.739 -0.5121 -0.3038  0.3355
 8492SOL    HW226376   0.040   4.713   3.899  0.2426  0.2780  0.4755
 8493SOL     OW26377   5.841   2.215   0.285 -0.1108  0.5892  0.1249
 8493SOL    HW126378   5.820   2.294   0.226 -0.0588  0.7491  0.3185
 8493SOL    HW226379   5.940   2.208   0.296  0.1386 -1.3654 -2.4383
 8494SOL     OW26380   3.774   5.890   5.514 -0.7543  0.2423 -0.3673
 8494SOL    HW126381   3.700   5.952   5.537  0.0574  1.3228 -0.5897
 8494SOL    HW226382   3.796   5.898   5.416 -1.0060 -0.8041 -0.5197
 8495SOL     OW26383   0.249   3.627   0.096 -0.2665 -0.1342  0.6333
 8495SOL    HW126384   0.167   3.683   0.092 -0.5728 -0.6250 -0.1331
 8495SOL    HW226385   0.322   3.678   0.142  0.2291  1.8827 -2.1740
 8496SOL     OW26386   2.212   1.693   4.018 -0.0366  0.7610  0.5245
 8496SOL    HW126387   2.126   1.723   4.059 -1.0781  1.1025 -1.7708
 8496SOL    HW226388   2.266   1.774   3.991  1.1209  0.5554  2.0708
 8497SOL     OW26389   4.897   3.145   4.727 -0.3709  0.0377  0.6150
 8497SOL    HW126390   4.927   3.180   4.816 -0.3224  0.4665  0.4373
 8497SOL    HW226391   4.878   3.223   4.666  1.0566 -0.2426 -0.2318
 8498SOL     OW26392   0.466   0.210   1.327  0.0470 -0.8137 -0.4725
 8498SOL    HW126393   0.405   0.278   1.369  0.6958  1.9096 -3.4978
 8498SOL    HW226394   0.547   0.200   1.384 -0.1141  0.9788  0.1599
 8499SOL     OW26395   0.476   3.554   0.298  0.4241  0.5404 -0.1624
 8499SOL    HW126396   0.554   3.505   0.258  0.2584 -1.3449  1.6612
 8499SOL    HW226397   0.494   3.575   0.393 -0.4843  2.0027 -0.2753
 8500SOL     OW26398   2.190   6.252   5.159 -0.2055 -0.7804  0.0196
 8500SOL    HW126399   2.153   6.274   5.069  2.8961  1.6447 -0.8413
 8500SOL    HW226400   2.262   6.183   5.150  1.7739  1.1454  0.1269
 8501SOL     OW26401   2.943   4.260   6.925 -0.9366 -0.2764 -0.3606
 8501SOL    HW126402   2.970   4.230   6.833  0.1262 -0.0235 -0.1501
 8501SOL    HW226403   2.857   4.215   6.951 -0.2260 -1.9305 -0.6899
 8502SOL     OW26404   0.720   0.171   1.524 -0.0966  0.0216  0.0523
 8502SOL    HW126405   0.748   0.103   1.591  0.2912 -0.5754 -0.7015
 8502SOL    HW226406   0.801   0.217   1.487 -0.2258 -0.3677 -0.7368
 8503SOL     OW26407   4.871   6.071   3.412  0.6907  0.1171  0.0273
 8503SOL    HW126408   4.854   6.029   3.501  1.2369  0.4197  0.2805
 8503SOL    HW226409   4.946   6.136   3.420  0.4054  0.5224 -0.5456
 8504SOL     OW26410   0.241   4.177   2.949 -0.1031 -0.1892 -0.1033
 8504SOL    HW126411   0.254   4.272   2.920 -0.8145  0.1610  0.6842
 8504SOL    HW226412   0.310   4.119   2.906  0.7926  0.7980 -0.0185
 8505SOL     OW26413   4.689   1.640   2.468  0.4182  0.0619 -0.1236
 8505SOL    HW126414   4.625   1.612   2.541  2.2978 -1.8366  0.9186
 8505SOL    HW226415   4.713   1.736   2.480  0.6721 -0.1957  1.8181
 8506SOL     OW26416   0.905   4.901   0.537  0.0101  0.0132 -0.1145
 8506SOL    HW126417   0.955   4.963   0.477  0.6327 -0.4330 -0.0704
 8506SOL    HW226418   0.878   4.949   0.620 -0.1087  0.4069 -0.3811
 8507SOL     OW26419   1.229   5.314   3.322 -0.0997  0.1590  0.5453
 8507SOL    HW126420   1.172   5.344   3.246  1.0591  0.2191 -0.3351
 8507SOL    HW226421   1.172   5.271   3.392 -1.2296  0.4116 -0.1912
 8508SOL     OW26422   6.063   1.425   6.991  0.4000  0.3225 -0.2903
 8508SOL    HW126423   6.089   1.405   6.897  1.6092  1.2904 -0.1840
 8508SOL    HW226424   5.968   1.397   7.006  0.7933 -1.6952 -1.2132
 8509SOL     OW26425   5.189   2.699   3.693 -0.9266  0.1410 -0.3220
 8509SOL    HW126426   5.259   2.765   3.722 -0.6411  0.6141 -1.9901
 8509SOL    HW226427   5.166   2.715   3.597 -2.4296 -0.8247 -0.1498
 8510SOL     OW26428   5.350   0.337   4.826  0.3585  0.0967 -0.1914
 8510SOL    HW126429   5.255   0.313   4.806  0.7057 -1.7264  0.2165
 8510SOL    HW226430   5.369   0.322   4.923  0.4411  2.8104  0.3069
 8511SOL     OW26431   1.061   5.180   0.715 -0.1907 -0.1144 -0.6103
 8511SOL    HW126432   1.055   5.176   0.615 -1.5259 -0.6650 -0.5338
 8511SOL    HW226433   0.984   5.130   0.755 -0.9511  1.9461  0.6821
 8512SOL     OW26434   1.760   3.064   0.230 -0.2404  0.2156  0.3547
 8512SOL    HW126435   1.858   3.044   0.238  0.3396  1.1530 -2.8659
 8512SOL    HW226436   1.747   3.162   0.220 -1.1385 -0.0878 -2.1624
 8513SOL     OW26437   1.501   3.936   5.962 -0.3272  0.4421 -0.2234
 8513SOL    HW126438   1.514   4.028   5.924  2.7895 -0.4540 -1.7083
 8513SOL    HW226439   1.479   3.872   5.888  0.2696 -0.4212  0.3207
 8514SOL     OW26440   4.148   1.091   4.501 -0.8407  0.1408  0.7538
 8514SOL    HW126441   4.113   1.131   4.585 -1.7960 -2.2317  1.5825
 8514SOL    HW226442   4.072   1.052   4.448  0.0253 -0.7052  0.0928
 8515SOL     OW26443   2.255   2.808   0.133  0.0798 -0.4305  0.0185
 8515SOL    HW126444   2.316   2.811   0.213 -2.0836 -1.2608  1.7953
 8515SOL    HW226445   2.263   2.895   0.083 -0.0447  1.0370  2.3661
 8516SOL     OW26446   6.622   3.832   0.608 -0.2369  0.9903 -0.3027
 8516SOL    HW126447   6.691   3.901   0.585 -0.3505  0.7470 -1.4749
 8516SOL    HW226448   6.579   3.855   0.695  0.3013  1.9402 -0.2738
 8517SOL     OW26449   6.270   2.952   5.379 -0.2921  0.0125  0.3261
 8517SOL    HW126450   6.185   2.934   5.429 -0.0722 -0.2720  0.6014
 8517SOL    HW226451   6.249   2.964   5.282 -0.8044  1.2156  0.5603
 8518SOL     OW26452   5.124   5.184   1.796  1.1100  0.0460 -0.2947
 8518SOL    HW126453   5.122   5.124   1.876  0.2034  1.7161  0.9990
 8518SOL    HW226454   5.035   5.230   1.786  1.4113  0.3618 -1.9049
 8519SOL     OW26455   0.164   4.007   1.015 -0.1041  0.0103  0.2383
 8519SOL    HW126456   0.215   3.958   1.086 -0.0202  0.7923  0.7340
 8519SOL    HW226457   0.066   3.996   1.030 -0.0966 -1.2185 -0.5202
 8520SOL     OW26458   3.858   3.657   6.534  0.5365 -0.0221 -0.1131
 8520SOL    HW126459   3.772   3.673   6.582 -0.1562 -1.5440 -0.7603
 8520SOL    HW226460   3.934   3.659   6.599  0.3286  3.4204  0.1644
 8521SOL     OW26461   2.104   6.587   6.613  0.1632  0.0335 -0.0431
 8521SOL    HW126462   2.173   6.545   6.673 -0.1709 -0.5764 -0.0792
 8521SOL    HW226463   2.111   6.686   6.619 -0.4045 -0.0038  1.6288
 8522SOL     OW26464   6.918   4.471   6.919 -0.5597 -0.0961 -0.0640
 8522SOL    HW126465   6.950   4.386   6.961 -0.2050  0.2406  0.3603
 8522SOL    HW226466   6.835   4.453   6.866  0.2431 -0.9609 -1.0779
 8523SOL     OW26467   3.623   1.607   2.269  0.0913 -0.1489  0.0075
 8523SOL    HW126468   3.667   1.519   2.290 -0.1106 -0.9317 -2.5251
 8523SOL    HW226469   3.689   1.669   2.228 -0.5544 -0.4709 -1.5905
 8524SOL     OW26470   2.366   4.900   2.700 -0.1428  0.5155  0.0683
 8524SOL    HW126471   2.361   4.845   2.617 -0.2998  1.3071 -0.4561
 8524SOL    HW226472   2.328   4.991   2.682  2.9024  1.8731  0.0322
 8525SOL     OW26473   0.308   2.343   2.798  0.5822  0.1235  0.4556
 8525SOL    HW126474   0.281   2.348   2.702  0.2809  1.4842  0.5940
 8525SOL    HW226475   0.241   2.289   2.849 -0.2873  1.0019  0.2486
 8526SOL     OW26476   1.822   4.435   4.240 -0.1162  0.2647 -0.2428
 8526SOL    HW126477   1.760   4.362   4.268  0.4904 -0.2163 -0.1210
 8526SOL    HW226478   1.844   4.425   4.142  0.6423 -0.2460 -0.0352
 8527SOL     OW26479   6.495   6.323   6.763  0.2876  0.1105 -0.6775
 8527SOL    HW126480   6.544   6.248   6.718  0.2242  0.6366 -1.6664
 8527SOL    HW226481   6.418   6.350   6.706 -0.5200  0.0108  0.3466
 8528SOL     OW26482   5.339   0.121   0.898 -0.0071 -0.4151  0.1776
 8528SOL    HW126483   5.298   0.103   0.987 -0.8327 -1.1295 -0.3306
 8528SOL    HW226484   5.429   0.164   0.910 -0.3082 -0.0881  1.3342
 8529SOL     OW26485   6.302   5.406   1.789  0.3444 -0.1771 -0.3940
 8529SOL    HW126486   6.310   5.435   1.693 -0.5567 -1.1475 -0.7849
 8529SOL    HW226487   6.387   5.360   1.816  0.3761 -0.4446 -0.9240
 8530SOL     OW26488   3.524   3.219   2.869  0.1962 -0.2121  0.0163
 8530SOL    HW126489   3.513   3.135   2.815 -1.9146  0.1016 -0.1377
 8530SOL    HW226490   3.528   3.196   2.966  1.0191 -0.5736 -0.0977
 8531SOL     OW26491   6.662   6.119   5.149 -0.3948 -0.3385  0.6775
 8531SOL    HW126492   6.563   6.134   5.148 -0.2134  1.1047  1.5255
 8531SOL    HW226493   6.698   6.130   5.056 -1.2501 -2.9849 -0.0852
 8532SOL     OW26494   3.411   5.276   0.641 -0.3542  0.1513  0.3116
 8532SOL    HW126495   3.363   5.360   0.666 -2.3769 -0.7945 -0.1727
 8532SOL    HW226496   3.482   5.296   0.574  0.1969  1.6568  1.3016
 8533SOL     OW26497   2.910   6.697   4.586  0.4069  0.0081  0.9989
 8533SOL    HW126498   2.831   6.689   4.647 -0.4289 -0.9250 -0.1665
 8533SOL    HW226499   2.880   6.685   4.491  2.1370 -1.6864  0.6168
 8534SOL     OW26500   1.888   5.197   3.976 -0.3686  0.0315 -0.5025
 8534SOL    HW126501   1.939   5.111   3.987  0.3299  0.4620 -0.2813
 8534SOL    HW226502   1.879   5.241   4.065 -1.6678 -0.3231 -0.4383
 8535SOL     OW26503   6.074   4.784   0.947  0.1870 -0.3273 -0.1696
 8535SOL    HW126504   6.080   4.883   0.964  0.6054 -0.1173 -1.4555
 8535SOL    HW226505   6.131   4.736   1.014 -1.7876  0.0863  1.9714
 8536SOL     OW26506   2.412   0.353   4.468  0.5623  0.0771  0.1786
 8536SOL    HW126507   2.434   0.260   4.441 -0.3706 -0.1367  0.1158
 8536SOL    HW226508   2.458   0.418   4.408 -0.2487 -0.3698 -0.9469
 8537SOL     OW26509   6.191   1.089   2.950  0.2654  0.5020  0.8484
 8537SOL    HW126510   6.232   1.068   3.039 -0.5189  0.3553  1.1936
 8537SOL    HW226511   6.101   1.131   2.965  0.5963  1.5025  0.1351
 8538SOL     OW26512   5.942   3.583   5.962 -0.2140  0.9505 -0.3435
 8538SOL    HW126513   5.927   3.544   6.053  0.1302  0.2239 -0.5895
 8538SOL    HW226514   5.952   3.509   5.896  2.4072  1.3453 -0.5188
 8539SOL     OW26515   6.130   4.166   3.165 -0.5177 -0.0595 -0.2633
 8539SOL    HW126516   6.188   4.084   3.167 -0.4116 -0.0601 -1.9939
 8539SOL    HW226517   6.177   4.238   3.115 -1.4396  0.4136 -0.4634
 8540SOL     OW26518   4.182   0.663   1.524 -0.5056 -0.3770 -0.3717
 8540SOL    HW126519   4.128   0.655   1.608 -0.5669 -1.9803 -0.5441
 8540SOL    HW226520   4.134   0.618   1.449  0.3038 -0.3847 -0.9011
 8541SOL     OW26521   0.099   4.295   4.007  0.2080 -0.3847 -0.0824
 8541SOL    HW126522   0.080   4.335   3.917  1.0205  0.3295  0.0477
 8541SOL    HW226523   0.025   4.318   4.070  1.5382  2.7373  0.5416
 8542SOL     OW26524   2.066   4.537   6.481 -0.4540  0.3981 -0.4063
 8542SOL    HW126525   1.968   4.551   6.494 -0.3436  1.0416 -0.2174
 8542SOL    HW226526   2.098   4.461   6.538 -0.9171 -0.0970 -0.7957
 8543SOL     OW26527   3.861   1.977   6.971  0.3209  0.1804 -0.0316
 8543SOL    HW126528   3.790   1.970   7.041  0.3282 -0.0509 -0.0456
 8543SOL    HW226529   3.906   2.066   6.978  0.1525  0.2568  0.0943
 8544SOL     OW26530   6.498   3.630   6.110  0.1393 -0.4276  0.2415
 8544SOL    HW126531   6.580   3.687   6.115 -0.4833  0.6252 -1.0867
 8544SOL    HW226532   6.439   3.649   6.188  0.7475 -0.5575  0.7405
 8545SOL     OW26533   5.072   1.859   6.209  0.3451  0.2289 -0.1050
 8545SOL    HW126534   5.135   1.886   6.135 -1.4784  1.2771 -1.3478
 8545SOL    HW226535   5.119   1.795   6.270  2.8076  1.3928 -0.6262
 8546SOL     OW26536   4.290   6.804   4.913 -0.0483  0.2683 -0.9353
 8546SOL    HW126537   4.218   6.838   4.852  0.9273  1.0594 -1.6880
 8546SOL    HW226538   4.280   6.845   5.003 -1.0519 -0.3187 -0.7655
 8547SOL     OW26539   2.347   5.639   2.298 -0.3821  0.2871  0.1528
 8547SOL    HW126540   2.444   5.634   2.273  0.4826  2.5433  2.5950
 8547SOL    HW226541   2.304   5.713   2.247 -1.0961 -1.1860 -1.4855
 8548SOL     OW26542   5.470   1.122   6.594  0.3381  0.7795 -0.0587
 8548SOL    HW126543   5.482   1.167   6.506  0.2001  1.2339  0.1506
 8548SOL    HW226544   5.500   1.026   6.588 -1.7956  0.1199 -1.2424
 8549SOL     OW26545   4.255   2.591   5.590 -0.2677 -0.0164 -0.2996
 8549SOL    HW126546   4.174   2.541   5.562 -0.6884  1.2414 -1.4636
 8549SOL    HW226547   4.228   2.674   5.639  0.2425  0.8258 -1.3888
 8550SOL     OW26548   2.750   4.394   5.370  0.0826 -0.2045  0.2906
 8550SOL    HW126549   2.815   4.334   5.415 -0.5003 -0.2563  1.0874
 8550SOL    HW226550   2.797   4.446   5.298  0.6430 -1.3997 -0.2405
 8551SOL     OW26551   2.135   6.034   1.160  1.1937  0.1459  0.1016
 8551SOL    HW126552   2.139   5.993   1.251  1.7121 -0.6579 -0.2661
 8551SOL    HW226553   2.045   6.017   1.119  1.3828 -0.5980 -0.0240
 8552SOL     OW26554   2.876   1.810   3.649  0.0580 -0.2392 -0.4195
 8552SOL    HW126555   2.809   1.787   3.578 -0.1496 -0.0222 -0.2955
 8552SOL    HW226556   2.954   1.857   3.607 -0.6530  1.0569 -0.3437
 8553SOL     OW26557   4.936   3.483   5.758 -0.5955  0.1359 -0.4153
 8553SOL    HW126558   4.991   3.421   5.814 -0.5704  1.8612  1.6068
 8553SOL    HW226559   4.875   3.429   5.700  0.7870 -1.7767 -0.2049
 8554SOL     OW26560   4.830   2.132   7.006  0.0636 -0.1629  0.5998
 8554SOL    HW126561   4.885   2.102   7.084 -0.6699 -0.9785  0.8186
 8554SOL    HW226562   4.837   2.064   6.933 -0.4627 -0.1635  0.5466
 8555SOL     OW26563   1.705   1.293   4.507  1.0318 -0.0454  0.1136
 8555SOL    HW126564   1.774   1.290   4.580  0.7987  2.0652  0.4815
 8555SOL    HW226565   1.751   1.307   4.419  1.2129 -1.2098  0.0012
 8556SOL     OW26566   5.357   6.829   6.422  0.1240  0.0445 -0.0695
 8556SOL    HW126567   5.437   6.837   6.482  0.3968 -0.6300 -0.3293
 8556SOL    HW226568   5.325   6.920   6.396  1.4794  0.3419 -0.8269
 8557SOL     OW26569   0.095   1.637   2.758 -0.4221  0.5082  0.1537
 8557SOL    HW126570   0.128   1.685   2.676  0.1337  1.0130  0.6650
 8557SOL    HW226571   0.169   1.631   2.825 -1.1539  0.9718  1.0251
 8558SOL     OW26572   0.570   4.233   2.711 -0.5460  0.2335  1.0332
 8558SOL    HW126573   0.496   4.290   2.675 -0.9068 -0.0018  1.3918
 8558SOL    HW226574   0.543   4.137   2.705  0.0114  0.1027  0.5398
 8559SOL     OW26575   3.465   1.295   4.710 -0.3722 -0.1535  0.5201
 8559SOL    HW126576   3.467   1.322   4.614  1.6353 -0.1325  0.5339
 8559SOL    HW226577   3.543   1.237   4.731  0.1402  1.1132  2.4801
 8560SOL     OW26578   6.895   1.757   0.182  0.2798  0.0811  0.0517
 8560SOL    HW126579   6.864   1.679   0.237 -0.9545  0.9026  0.5640
 8560SOL    HW226580   6.841   1.838   0.206 -0.0796  0.5449 -2.1585
 8561SOL     OW26581   4.366   6.496   6.083  0.1329 -0.3758 -0.2750
 8561SOL    HW126582   4.458   6.506   6.045  1.0526  0.1265  1.9112
 8561SOL    HW226583   4.363   6.413   6.139 -0.3408  0.2792  0.6912
 8562SOL     OW26584   4.296   0.585   4.555  0.0554 -0.5744 -0.2977
 8562SOL    HW126585   4.232   0.568   4.480  0.4793 -2.9114 -0.2044
 8562SOL    HW226586   4.378   0.529   4.541  2.3418  2.6221 -0.6242
 8563SOL     OW26587   2.098   1.903   5.509  0.7556 -0.3509 -0.3231
 8563SOL    HW126588   2.044   1.973   5.462 -0.3134 -0.7653  0.2485
 8563SOL    HW226589   2.093   1.919   5.608  0.0150 -1.5516 -0.1486
 8564SOL     OW26590   2.220   5.823   3.259 -0.0728  0.2428 -0.0650
 8564SOL    HW126591   2.318   5.805   3.260  0.0119  0.5267 -1.4919
 8564SOL    HW226592   2.204   5.920   3.240 -0.6256  0.3397  0.8493
 8565SOL     OW26593   2.509   0.821   2.484  0.5991  0.2982  0.2724
 8565SOL    HW126594   2.577   0.824   2.557  1.7550 -1.0063 -0.6860
 8565SOL    HW226595   2.549   0.777   2.403 -2.0914 -2.8365  0.4414
 8566SOL     OW26596   2.408   4.458   5.561 -0.1692  0.7479  0.2346
 8566SOL    HW126597   2.477   4.416   5.619  0.0466 -0.3705 -0.8052
 8566SOL    HW226598   2.351   4.387   5.520  0.1779  1.4605 -1.5386
 8567SOL     OW26599   4.264   5.902   5.361  0.0455  0.0346 -0.1475
 8567SOL    HW126600   4.188   5.843   5.332  0.0810 -0.1585  0.1488
 8567SOL    HW226601   4.231   5.996   5.371 -0.6968 -0.3885  2.0562
 8568SOL     OW26602   5.519   6.070   2.155  0.2666 -0.0060 -0.6580
 8568SOL    HW126603   5.539   6.038   2.062  2.4648 -1.2899  0.2056
 8568SOL    HW226604   5.535   5.996   2.220  1.7591  1.7327  1.0530
 8569SOL     OW26605   3.345   6.044   6.154 -0.0190 -0.5453 -0.5432
 8569SOL    HW126606   3.434   6.003   6.134 -0.0613 -1.0114  0.1710
 8569SOL    HW226607   3.290   5.979   6.208 -0.5898 -0.0602 -0.5312
 8570SOL     OW26608   5.253   3.655   5.749 -0.3480 -0.3044  0.1063
 8570SOL    HW126609   5.185   3.635   5.679 -0.2335  0.0100 -0.0949
 8570SOL    HW226610   5.310   3.574   5.764  1.6689  0.5355 -2.3995
 8571SOL     OW26611   1.431   3.374   0.608  0.3382  0.1802  0.2396
 8571SOL    HW126612   1.377   3.298   0.571  0.1892  1.5266 -2.5632
 8571SOL    HW226613   1.375   3.457   0.608  1.1184  0.7236  1.3640
 8572SOL     OW26614   3.484   4.733   6.217  0.7033 -0.3001 -0.2568
 8572SOL    HW126615   3.552   4.800   6.190  0.7123 -0.5368 -0.8337
 8572SOL    HW226616   3.487   4.721   6.316  1.0814  0.1364 -0.2121
 8573SOL     OW26617   2.574   5.906   2.709 -0.1617 -0.3039 -0.4709
 8573SOL    HW126618   2.508   5.973   2.743 -1.1970 -1.2445 -0.5348
 8573SOL    HW226619   2.591   5.837   2.780  0.0323 -0.5799 -0.7820
 8574SOL     OW26620   0.720   3.582   5.586  0.3526  0.4636  0.2702
 8574SOL    HW126621   0.625   3.609   5.603  0.4235  0.9035 -0.0217
 8574SOL    HW226622   0.753   3.528   5.664 -0.3649 -0.3190  0.0534
 8575SOL     OW26623   3.742   4.141   4.657 -0.1022 -0.0703 -0.2819
 8575SOL    HW126624   3.658   4.169   4.611 -0.5919 -0.6057  0.2693
 8575SOL    HW226625   3.782   4.219   4.705  0.8141  0.6886 -2.1794
 8576SOL     OW26626   1.701   1.736   0.649  0.3655  0.0152 -0.5089
 8576SOL    HW126627   1.671   1.768   0.739 -0.5148  0.6934 -1.0278
 8576SOL    HW226628   1.624   1.694   0.601  0.7204  0.0346 -1.1103
 8577SOL     OW26629   4.422   5.530   3.845  0.4488  0.2668 -0.2675
 8577SOL    HW126630   4.445   5.571   3.933 -0.8571  0.8371 -0.1671
 8577SOL    HW226631   4.357   5.589   3.797 -0.4225 -1.0267 -0.7188
 8578SOL     OW26632   0.937   1.628   2.587  0.1912 -0.7277  0.4166
 8578SOL    HW126633   0.992   1.555   2.626  0.3343 -0.9390 -0.1602
 8578SOL    HW226634   0.866   1.589   2.529  0.3439 -0.4098  0.0056
 8579SOL     OW26635   6.939   6.195   2.469  0.0778  0.2587 -0.1527
 8579SOL    HW126636   6.941   6.228   2.564 -0.4064 -0.4687  0.1154
 8579SOL    HW226637   7.030   6.162   2.444 -0.1161 -0.8530  0.5407
 8580SOL     OW26638   3.447   4.589   5.724 -0.2136  0.0950 -0.4180
 8580SOL    HW126639   3.433   4.583   5.626 -0.1403 -0.3946 -0.3996
 8580SOL    HW226640   3.392   4.521   5.771 -1.6884  1.5316  0.0364
 8581SOL     OW26641   4.555   3.465   1.628 -0.1478  0.4106  0.0648
 8581SOL    HW126642   4.486   3.537   1.636 -0.9929 -0.2830 -0.7548
 8581SOL    HW226643   4.511   3.380   1.599  0.9421 -0.2621  0.3225
 8582SOL     OW26644   2.093   5.366   6.876 -0.4312  0.6590 -0.7042
 8582SOL    HW126645   2.040   5.403   6.800  0.7403 -0.6449 -2.2180
 8582SOL    HW226646   2.191   5.379   6.859 -0.1254 -0.1410  0.3125
 8583SOL     OW26647   5.235   0.713   5.681 -0.2397 -0.6626  0.5519
 8583SOL    HW126648   5.313   0.685   5.738 -0.6696 -0.6291  1.1692
 8583SOL    HW226649   5.249   0.807   5.650 -0.4517 -0.3412  1.4078
 8584SOL     OW26650   0.827   3.818   0.297 -0.2820  0.2128 -0.1610
 8584SOL    HW126651   0.809   3.719   0.301  0.4532 -0.0140 -1.7263
 8584SOL    HW226652   0.905   3.839   0.356  0.5922 -0.4397 -1.0368
 8585SOL     OW26653   1.952   0.847   0.386  0.3291  0.5555 -0.2696
 8585SOL    HW126654   1.852   0.858   0.389  0.1878 -0.6920  0.8780
 8585SOL    HW226655   1.996   0.935   0.403 -0.5721  1.1807 -1.0763
 8586SOL     OW26656   1.369   5.990   4.382  0.0658  0.2932 -0.2926
 8586SOL    HW126657   1.270   5.986   4.389  0.2049 -0.5301  2.4757
 8586SOL    HW226658   1.397   6.077   4.342 -1.7200  1.1732  0.3074
 8587SOL     OW26659   0.283   3.255   1.453 -0.3102 -0.3865 -0.0827
 8587SOL    HW126660   0.302   3.347   1.488  0.6431 -0.0067 -1.5014
 8587SOL    HW226661   0.369   3.206   1.441 -0.7892 -1.3401  0.2799
 8588SOL     OW26662   5.382   3.545   5.989 -0.3761 -0.0338  0.7048
 8588SOL    HW126663   5.435   3.570   5.908  0.4023 -0.5796  1.0337
 8588SOL    HW226664   5.379   3.445   5.999 -1.6291 -0.0314  0.6002
 8589SOL     OW26665   4.254   1.046   5.288  0.3064  0.1504 -0.4725
 8589SOL    HW126666   4.353   1.055   5.297  0.3980 -0.5032 -0.7603
 8589SOL    HW226667   4.219   0.981   5.356 -0.5063  3.2874  2.3847
 8590SOL     OW26668   4.458   2.359   6.501 -0.9376  0.3558  0.3571
 8590SOL    HW126669   4.396   2.313   6.564 -1.7610 -0.1618 -0.7952
 8590SOL    HW226670   4.550   2.321   6.511 -1.3347 -0.6447  0.3415
 8591SOL     OW26671   5.026   1.969   0.666  0.0792  0.4541  0.4611
 8591SOL    HW126672   4.950   1.976   0.731 -0.2655 -0.0237  0.1167
 8591SOL    HW226673   5.031   1.876   0.631  1.5409  0.1726  1.3406
 8592SOL     OW26674   6.098   6.087   6.744  0.0536 -0.0925  0.5079
 8592SOL    HW126675   6.008   6.075   6.786  0.1588  0.4892  0.9170
 8592SOL    HW226676   6.140   6.170   6.780  0.8504 -0.4789  0.4900
 8593SOL     OW26677   2.046   3.673   6.642  0.6547  0.1220  0.1601
 8593SOL    HW126678   2.081   3.584   6.672  1.4556  0.4419  0.2070
 8593SOL    HW226679   1.948   3.666   6.624  0.6843 -0.7396  0.2805
 8594SOL     OW26680   4.060   3.247   1.859 -0.1707 -0.0844 -0.1387
 8594SOL    HW126681   4.107   3.160   1.845 -0.3492 -0.1513 -0.3394
 8594SOL    HW226682   3.996   3.239   1.936  1.1252  0.4115  1.0215
 8595SOL     OW26683   0.917   1.862   2.710 -0.0166 -0.2182 -0.5976
 8595SOL    HW126684   0.936   1.778   2.659  0.2240 -0.6689  0.2036
 8595SOL    HW226685   0.993   1.925   2.700  0.2815 -0.5328 -0.3491
 8596SOL     OW26686   1.177   1.214   1.962 -0.2174 -0.7382  0.2387
 8596SOL    HW126687   1.197   1.193   2.058 -2.4705 -0.6822  0.7650
 8596SOL    HW226688   1.198   1.134   1.905  0.8993 -0.8538  0.7860
 8597SOL     OW26689   2.504   0.856   0.124  0.2529 -0.4413 -0.3652
 8597SOL    HW126690   2.410   0.846   0.091  0.6797  0.2982 -1.8789
 8597SOL    HW226691   2.503   0.897   0.215 -0.9180 -1.2968  0.0339
 8598SOL     OW26692   0.062   3.399   2.155  0.0219 -0.4485 -0.1038
 8598SOL    HW126693   0.009   3.392   2.071 -0.2302  2.7318 -0.3133
 8598SOL    HW226694   0.009   3.447   2.224  2.2685  2.2863 -0.1086
 8599SOL     OW26695   1.408   3.455   6.820  0.0003 -0.1372  0.4074
 8599SOL    HW126696   1.411   3.380   6.753  0.6232 -0.3389  0.6519
 8599SOL    HW226697   1.458   3.534   6.784  0.6037 -0.3520  0.7482
 8600SOL     OW26698   7.011   2.726   6.900 -1.2165  0.1234  0.0640
 8600SOL    HW126699   7.098   2.755   6.940 -0.7317  0.4636 -1.1804
 8600SOL    HW226700   7.026   2.649   6.838 -1.7751  0.2693 -0.2667
 8601SOL     OW26701   0.975   0.872   4.278  0.1946 -0.1702  0.5978
 8601SOL    HW126702   0.926   0.957   4.258  1.7192  0.6747  0.2979
 8601SOL    HW226703   0.971   0.812   4.198  1.0173  0.5984 -0.0470
 8602SOL     OW26704   1.781   2.228   4.063  0.2463  0.0975 -0.0054
 8602SOL    HW126705   1.866   2.253   4.016 -0.3101  1.1051 -0.5219
 8602SOL    HW226706   1.803   2.189   4.152  1.2592  0.0307 -0.2659
 8603SOL     OW26707   5.050   4.053   3.383 -0.1754  0.2795 -0.0397
 8603SOL    HW126708   4.964   4.063   3.333 -1.2038  2.7803  2.0198
 8603SOL    HW226709   5.116   4.122   3.352 -0.6170  1.4650  1.5458
 8604SOL     OW26710   5.137   3.076   2.213  0.0346  0.0407  0.2466
 8604SOL    HW126711   5.212   3.118   2.162  0.3146 -1.3190 -0.5127
 8604SOL    HW226712   5.053   3.128   2.197  0.5157  0.7581 -0.0255
 8605SOL     OW26713   2.667   5.566   6.186  0.0248 -0.5480  0.0178
 8605SOL    HW126714   2.622   5.477   6.176  0.1305 -0.5686 -0.2871
 8605SOL    HW226715   2.684   5.584   6.283 -0.9272 -0.3955  0.1651
 8606SOL     OW26716   6.169   3.658   3.519 -0.0620  0.1485 -0.1794
 8606SOL    HW126717   6.132   3.565   3.523 -2.1610  0.9085 -0.4749
 8606SOL    HW226718   6.173   3.687   3.423 -1.3731  1.0499  0.0104
 8607SOL     OW26719   0.933   5.839   0.747  0.0757  0.1676  0.2141
 8607SOL    HW126720   0.904   5.925   0.706  2.2871  0.4918 -0.8102
 8607SOL    HW226721   0.945   5.851   0.846 -1.2974  0.5258  0.3542
 8608SOL     OW26722   6.154   6.537   1.342  0.1461 -0.1432  0.0793
 8608SOL    HW126723   6.187   6.452   1.384  1.7992 -0.3808 -1.5274
 8608SOL    HW226724   6.113   6.595   1.411  0.7822 -1.4151  1.5906
 8609SOL     OW26725   6.795   6.134   0.416  0.0246 -0.1701  0.6633
 8609SOL    HW126726   6.771   6.038   0.400  1.2558 -0.4276  0.3037
 8609SOL    HW226727   6.780   6.156   0.513 -0.1097 -0.7612  0.7831
 8610SOL     OW26728   1.401   6.556   2.121  0.1565  0.0707 -0.6277
 8610SOL    HW126729   1.312   6.597   2.102 -0.1877 -0.4881 -0.2605
 8610SOL    HW226730   1.394   6.497   2.202  1.3554  1.7082  0.7472
 8611SOL     OW26731   0.595   1.634   1.769 -0.1016 -1.0651  0.7018
 8611SOL    HW126732   0.654   1.691   1.713 -1.0680 -0.7031  0.0188
 8611SOL    HW226733   0.645   1.554   1.801  0.8222 -0.6261  0.3701
 8612SOL     OW26734   4.816   3.813   3.138  0.1800 -0.4560  0.3974
 8612SOL    HW126735   4.789   3.834   3.043 -2.3712 -0.0153  1.1492
 8612SOL    HW226736   4.866   3.727   3.140  2.1465  0.5383 -1.5784
 8613SOL     OW26737   0.912   2.352   0.622  0.3079 -0.0719 -0.5970
 8613SOL    HW126738   0.873   2.435   0.662 -0.0046 -0.0372 -0.9660
 8613SOL    HW226739   0.843   2.305   0.567  0.3247 -0.8656  0.0375
 8614SOL     OW26740   0.422   3.593   4.473 -0.7334 -0.3974  0.6210
 8614SOL    HW126741   0.455   3.499   4.462 -2.9380 -1.3185  1.1797
 8614SOL    HW226742   0.332   3.591   4.516 -1.8389  1.8358 -1.3469
 8615SOL     OW26743   4.615   1.263   6.162  0.2708 -1.0575  0.1117
 8615SOL    HW126744   4.555   1.240   6.085  0.1450 -0.6360  0.0820
 8615SOL    HW226745   4.568   1.327   6.223  0.5770 -0.9579  0.2456
 8616SOL     OW26746   6.249   2.272   1.552 -0.5306 -0.3690  0.0289
 8616SOL    HW126747   6.201   2.199   1.505  0.4375 -1.4433  0.6520
 8616SOL    HW226748   6.218   2.361   1.518  0.3700 -1.0880 -2.8990
 8617SOL     OW26749   1.108   4.568   1.926  0.0354 -0.2518  0.0725
 8617SOL    HW126750   1.047   4.489   1.931 -1.1532  0.6015 -0.4563
 8617SOL    HW226751   1.091   4.629   2.003 -1.9009  1.4325 -1.6028
 8618SOL     OW26752   2.661   1.094   3.754 -0.1840 -0.1185  0.1693
 8618SOL    HW126753   2.662   1.158   3.831  0.6900  0.4739 -0.3149
 8618SOL    HW226754   2.589   1.119   3.690 -0.0280  0.2250  0.1234
 8619SOL     OW26755   4.977   6.406   0.845  0.0722  0.5715  0.0187
 8619SOL    HW126756   4.945   6.415   0.939 -1.2663  1.4068 -0.4940
 8619SOL    HW226757   4.923   6.335   0.798  0.1301  0.7846 -0.3755
 8620SOL     OW26758   4.289   6.645   2.920 -0.1049  0.4165  0.0490
 8620SOL    HW126759   4.230   6.593   2.982 -1.6961  0.8351 -1.0691
 8620SOL    HW226760   4.234   6.709   2.867  1.5334  1.7672 -0.1229
 8621SOL     OW26761   3.545   0.580   3.625  0.1965 -0.5205  0.8205
 8621SOL    HW126762   3.478   0.612   3.692 -1.0797 -1.2495 -0.0660
 8621SOL    HW226763   3.498   0.530   3.552  1.4349  0.9276 -1.0611
 8622SOL     OW26764   4.419   5.695   4.152  0.4833  0.0036  0.1481
 8622SOL    HW126765   4.398   5.792   4.164  2.3148  0.3468  0.8354
 8622SOL    HW226766   4.344   5.641   4.189 -0.1605  1.1544  0.5858
 8623SOL     OW26767   5.914   0.003   4.045 -0.0544  0.1169  0.0417
 8623SOL    HW126768   5.985   0.045   3.988 -0.3775 -0.4449 -0.7912
 8623SOL    HW226769   5.943   0.006   4.141  1.4273 -0.7166 -0.3420
 8624SOL     OW26770   6.036   3.679   4.466  0.2398  0.6098 -0.0501
 8624SOL    HW126771   6.025   3.774   4.436 -3.3814  0.5060  0.4797
 8624SOL    HW226772   6.129   3.665   4.499  0.9430  3.9140 -0.2957
 8625SOL     OW26773   3.337   1.400   5.193 -0.2345 -0.1863  0.1003
 8625SOL    HW126774   3.382   1.480   5.233 -1.9012  1.9370 -1.9484
 8625SOL    HW226775   3.267   1.366   5.256 -0.4905  0.9076  0.4297
 8626SOL     OW26776   4.403   5.216   1.455 -0.2436 -0.2879  0.2169
 8626SOL    HW126777   4.344   5.219   1.535  1.2045 -0.1007  1.3150
 8626SOL    HW226778   4.468   5.141   1.464 -0.7171 -0.9244 -1.2939
 8627SOL     OW26779   2.282   1.302   4.915  0.1691  0.7153  0.5749
 8627SOL    HW126780   2.183   1.291   4.923  0.1205  0.7060 -0.0126
 8627SOL    HW226781   2.320   1.227   4.861  0.5959  0.3373  1.3730
 8628SOL     OW26782   4.138   0.975   1.564  0.0530  0.0087  0.0225
 8628SOL    HW126783   4.074   1.051   1.575  1.0176  1.0862 -1.3348
 8628SOL    HW226784   4.195   0.966   1.646 -0.7017  0.1371  0.5618
 8629SOL     OW26785   0.660   5.010   2.617 -0.6670 -0.0757 -0.7770
 8629SOL    HW126786   0.632   5.024   2.522 -0.8332 -0.5462 -0.8012
 8629SOL    HW226787   0.753   5.042   2.630 -1.3803  2.0718 -0.5645
 8630SOL     OW26788   3.262   5.607   4.710  0.0955 -0.3250  0.5036
 8630SOL    HW126789   3.282   5.705   4.711 -0.7105 -0.1571  0.6173
 8630SOL    HW226790   3.164   5.593   4.727  0.2335 -1.1543  0.6211
 8631SOL     OW26791   4.593   0.493   3.991  0.6174  0.5097 -0.0172
 8631SOL    HW126792   4.636   0.526   3.908  0.9332  0.4540  0.1256
 8631SOL    HW226793   4.506   0.542   4.005  1.6699  2.2183  0.8708
 8632SOL     OW26794   2.539   1.956   0.936 -0.7151  0.4788 -0.0272
 8632SOL    HW126795   2.631   1.922   0.951 -0.4289  1.8254  1.6061
 8632SOL    HW226796   2.473   1.883   0.953 -0.0081 -0.2943 -0.5028
 8633SOL     OW26797   0.248   0.150   3.915  0.1801 -0.0001  1.2308
 8633SOL    HW126798   0.302   0.111   3.989  1.0143  0.3280  0.8065
 8633SOL    HW226799   0.157   0.108   3.914  0.5145 -0.7545  1.7812
 8634SOL     OW26800   6.093   6.683   1.574 -0.2467  0.4923 -0.5798
 8634SOL    HW126801   6.075   6.646   1.665  2.3575  0.0838 -0.1606
 8634SOL    HW226802   6.078   6.782   1.575  1.5998  0.8210  0.9139
 8635SOL     OW26803   6.055   4.675   6.515  0.2447  0.3487  0.4158
 8635SOL    HW126804   6.038   4.594   6.458  2.2108 -2.0319  2.9434
 8635SOL    HW226805   6.129   4.729   6.474  1.0185 -0.8262  0.2089
 8636SOL     OW26806   6.035   5.051   0.940 -0.2376  0.0573 -0.1570
 8636SOL    HW126807   5.978   5.133   0.938 -0.6230 -0.2228 -1.2262
 8636SOL    HW226808   6.123   5.071   0.897 -0.6329 -0.2922 -1.1564
 8637SOL     OW26809   1.096   3.963   1.549  0.0943  0.4003  0.1360
 8637SOL    HW126810   1.065   3.984   1.642  0.8600 -1.3039  0.8156
 8637SOL    HW226811   1.195   3.966   1.544  0.1865 -1.4977 -0.0623
 8638SOL     OW26812   4.108   2.761   6.777 -0.5048 -0.0026 -0.3192
 8638SOL    HW126813   4.034   2.828   6.783 -0.1665  0.3161  0.5151
 8638SOL    HW226814   4.070   2.670   6.764 -0.9567  0.4037 -2.0684
 8639SOL     OW26815   7.000   2.672   5.025  0.0077 -0.1276  0.9843
 8639SOL    HW126816   6.980   2.769   5.034 -1.9995 -0.1566 -1.8098
 8639SOL    HW226817   6.914   2.621   5.017  1.0446 -1.9156  0.7303
 8640SOL     OW26818   5.767   5.201   0.900  0.6859 -0.2988 -0.1453
 8640SOL    HW126819   5.801   5.242   0.815 -0.5341 -1.1173 -1.0704
 8640SOL    HW226820   5.667   5.195   0.896  0.2482  2.5942  2.7190
 8641SOL     OW26821   4.543   5.382   5.018  0.1353  0.3033 -0.0225
 8641SOL    HW126822   4.509   5.420   4.932  1.8772  0.5780 -0.6411
 8641SOL    HW226823   4.581   5.291   5.002 -1.9154 -0.8076  1.0134
 8642SOL     OW26824   4.138   2.248   2.206  0.1590  0.4541  0.1536
 8642SOL    HW126825   4.110   2.343   2.212  0.1146  0.4031  0.8483
 8642SOL    HW226826   4.057   2.190   2.194  0.3408  0.6717 -2.9493
 8643SOL     OW26827   4.939   5.930   0.623  0.0253 -0.7014  0.2046
 8643SOL    HW126828   4.942   5.979   0.710 -2.0869  1.4029 -0.7951
 8643SOL    HW226829   4.849   5.891   0.610  0.0615 -0.3345 -1.3456
 8644SOL     OW26830   0.011   2.020   6.697 -0.2208 -0.2903 -0.2224
 8644SOL    HW126831  -0.025   1.927   6.687  1.1566 -0.8502 -0.1391
 8644SOL    HW226832   0.087   2.033   6.633  0.9254  0.0776  1.1828
 8645SOL     OW26833   5.552   2.935   2.625  0.2444  0.4904  0.4800
 8645SOL    HW126834   5.490   2.873   2.577  0.7068 -0.7998  1.4842
 8645SOL    HW226835   5.499   2.994   2.687 -0.0829  0.1419  0.5337
 8646SOL     OW26836   3.693   0.966   5.964  0.4455 -0.2075  0.4581
 8646SOL    HW126837   3.634   0.886   5.965  1.5632 -1.0497  0.3459
 8646SOL    HW226838   3.702   1.000   5.871  2.0577 -1.5613  0.0739
 8647SOL     OW26839   4.785   5.902   1.335 -0.0975 -0.0579  0.3652
 8647SOL    HW126840   4.737   5.877   1.251  2.8057 -1.6106 -1.0038
 8647SOL    HW226841   4.858   5.967   1.313  0.2301  0.0886  1.8179
 8648SOL     OW26842   5.442   0.588   4.788  0.0518  0.0231 -0.1104
 8648SOL    HW126843   5.405   0.499   4.814  1.9977 -0.6008  0.6879
 8648SOL    HW226844   5.449   0.594   4.688 -2.7261  0.4544 -0.3672
 8649SOL     OW26845   6.890   3.404   4.640  0.2447  0.4870  0.6015
 8649SOL    HW126846   6.902   3.502   4.623  1.6584  0.0041 -1.5897
 8649SOL    HW226847   6.970   3.354   4.605 -0.0549 -1.4085  2.3978
 8650SOL     OW26848   0.427   4.179   1.835 -0.4602  0.0520  0.3709
 8650SOL    HW126849   0.413   4.255   1.772 -0.4886  0.1709  0.5195
 8650SOL    HW226850   0.419   4.093   1.786  1.0384  0.1579 -0.0908
 8651SOL     OW26851   4.608   4.238   0.998  0.2488 -0.2816  0.4657
 8651SOL    HW126852   4.543   4.243   1.075 -1.4740  0.2910 -0.9520
 8651SOL    HW226853   4.596   4.319   0.940  0.9970 -1.0604 -0.8115
 8652SOL     OW26854   1.941   4.159   4.539 -0.2552  0.1481 -0.2399
 8652SOL    HW126855   1.948   4.158   4.439 -0.3630 -0.3119 -0.2440
 8652SOL    HW226856   1.905   4.247   4.569 -1.8432 -0.3141 -0.7197
 8653SOL     OW26857   6.558   4.545   0.170 -0.5585 -0.0843  0.1276
 8653SOL    HW126858   6.570   4.448   0.149  0.3089  0.5274 -2.5562
 8653SOL    HW226859   6.626   4.572   0.239 -1.4024 -1.5056  1.6071
 8654SOL     OW26860   0.812   4.187   1.597  0.1747 -0.6543  0.5711
 8654SOL    HW126861   0.789   4.152   1.688 -2.0997 -0.4489  0.1469
 8654SOL    HW226862   0.769   4.277   1.585  2.4185  0.4175  0.1136
 8655SOL     OW26863   5.398   5.692   3.948  0.0469 -0.4213 -0.4962
 8655SOL    HW126864   5.340   5.702   4.030  0.6032 -0.9693 -0.0211
 8655SOL    HW226865   5.436   5.599   3.947  2.2575  0.4345  0.0947
 8656SOL     OW26866   6.431   3.426   2.704  0.6313 -0.0399 -0.1731
 8656SOL    HW126867   6.402   3.335   2.675  0.4745 -0.0690  0.0776
 8656SOL    HW226868   6.531   3.430   2.707  0.6355 -0.4789  0.6777
 8657SOL     OW26869   1.810   5.288   1.396  0.0205 -0.0483 -0.2144
 8657SOL    HW126870   1.883   5.247   1.450  0.6616 -0.7749 -1.5665
 8657SOL    HW226871   1.840   5.295   1.301 -1.8917 -0.9556 -0.9256
 8658SOL     OW26872   1.743   1.838   6.376  0.1868 -0.3111 -0.5745
 8658SOL    HW126873   1.726   1.748   6.335 -1.9645  0.2954 -1.1304
 8658SOL    HW226874   1.834   1.869   6.350  0.7667 -2.0961 -0.7934
 8659SOL     OW26875   4.378   1.256   2.093 -0.4981 -0.0948 -0.0708
 8659SOL    HW126876   4.463   1.205   2.102 -0.4501  0.1685  1.0482
 8659SOL    HW226877   4.396   1.343   2.046  0.3054  1.0009  2.1545
 8660SOL     OW26878   6.522   4.904   6.333  0.1090 -0.1956  0.1132
 8660SOL    HW126879   6.588   4.835   6.302  1.3789  1.7548 -1.7626
 8660SOL    HW226880   6.570   4.985   6.365 -1.3773  0.2064  1.4347
 8661SOL     OW26881   6.180   2.828   1.141 -0.1712  0.7101 -0.7930
 8661SOL    HW126882   6.135   2.750   1.185  1.2147  0.4457  0.2308
 8661SOL    HW226883   6.204   2.803   1.047  0.1836 -0.0997 -0.5026
 8662SOL     OW26884   6.744   1.405   5.701 -0.6070 -0.1954  0.0329
 8662SOL    HW126885   6.648   1.378   5.709 -1.1666  1.3149 -1.0176
 8662SOL    HW226886   6.767   1.417   5.605  0.6502 -0.5640  0.2812
 8663SOL     OW26887   5.420   5.708   6.478 -0.0710  0.2099 -0.1283
 8663SOL    HW126888   5.493   5.650   6.443 -0.3538 -0.0755 -0.2547
 8663SOL    HW226889   5.337   5.694   6.424 -0.0415  1.0111 -0.3931
 8664SOL     OW26890   4.940   4.719   2.942 -0.1485 -0.0143 -0.2177
 8664SOL    HW126891   4.885   4.700   2.860  0.7043 -0.2571 -0.7516
 8664SOL    HW226892   5.017   4.777   2.916  1.1304 -1.5222  0.0382
 8665SOL     OW26893   0.140   6.841   3.375  0.1151  0.0835 -0.6388
 8665SOL    HW126894   0.128   6.838   3.474 -0.2446 -1.7908 -0.6902
 8665SOL    HW226895   0.079   6.774   3.332 -0.6889  1.7716 -2.2537
 8666SOL     OW26896   6.586   6.619   3.200 -0.2186  0.4692 -0.3865
 8666SOL    HW126897   6.552   6.548   3.262  1.2604 -0.5650 -0.6924
 8666SOL    HW226898   6.651   6.677   3.249  0.3067  0.1785 -0.7287
 8667SOL     OW26899   5.419   4.226   4.423 -0.3379 -0.3155  0.3063
 8667SOL    HW126900   5.370   4.307   4.456  0.5231  0.1487  0.4959
 8667SOL    HW226901   5.496   4.207   4.485 -0.8710 -1.6270  0.5833
 8668SOL     OW26902   4.295   6.207   7.006  0.4054  0.3445  0.3514
 8668SOL    HW126903   4.309   6.305   7.011  1.2277  0.2910 -0.5618
 8668SOL    HW226904   4.199   6.186   7.023 -0.3072  1.5366 -1.7756
 8669SOL     OW26905   4.072   0.435   6.711  0.2019 -0.0934  0.3963
 8669SOL    HW126906   4.056   0.357   6.771 -0.6774  0.1692  0.5146
 8669SOL    HW226907   4.158   0.478   6.735  0.5591 -0.8499  0.5207
 8670SOL     OW26908   3.475   5.247   1.707  0.2658  0.0044  0.4135
 8670SOL    HW126909   3.377   5.237   1.691  0.1144  0.4041  1.0340
 8670SOL    HW226910   3.525   5.213   1.628 -0.4042  0.8681 -0.4120
 8671SOL     OW26911   6.728   5.655   1.544 -0.1474 -0.1190 -0.3380
 8671SOL    HW126912   6.819   5.623   1.517 -0.3067 -0.6483 -0.2632
 8671SOL    HW226913   6.727   5.755   1.546  1.0002 -0.1120  1.5874
 8672SOL     OW26914   4.244   4.403   5.968 -0.4121  0.2539  0.1409
 8672SOL    HW126915   4.283   4.357   6.048 -0.8009  1.2077  0.8964
 8672SOL    HW226916   4.318   4.437   5.911 -0.1046 -1.5503 -0.6097
 8673SOL     OW26917   4.721   0.597   1.281  0.1642  0.2696 -0.3019
 8673SOL    HW126918   4.774   0.517   1.308 -2.3192 -1.7721 -1.1091
 8673SOL    HW226919   4.675   0.579   1.194  0.8917  3.2841 -1.4342
 8674SOL     OW26920   0.299   0.547   2.241 -0.0614 -0.0780 -0.3202
 8674SOL    HW126921   0.204   0.530   2.214 -0.4831 -1.3778  1.7159
 8674SOL    HW226922   0.304   0.631   2.295  0.1606  0.5553 -1.2955
 8675SOL     OW26923   2.415   2.828   0.347 -0.4214  0.3785 -0.4870
 8675SOL    HW126924   2.463   2.903   0.302 -0.0323  0.1713 -0.4252
 8675SOL    HW226925   2.395   2.851   0.442  0.3929  0.1065 -0.2410
 8676SOL     OW26926   5.760   2.157   2.814 -0.7522 -0.2618  0.1312
 8676SOL    HW126927   5.856   2.147   2.841 -1.1814  0.0033  1.8969
 8676SOL    HW226928   5.739   2.255   2.806 -0.7396 -0.3316 -0.8432
 8677SOL     OW26929   2.179   2.400   4.641 -0.2748  0.1570  0.2550
 8677SOL    HW126930   2.222   2.460   4.709  0.6069  0.2480 -0.3743
 8677SOL    HW226931   2.083   2.426   4.630 -1.0713 -1.1733  2.9906
 8678SOL     OW26932   1.443   1.275   5.433  0.2017  0.2974  0.2096
 8678SOL    HW126933   1.405   1.352   5.381  0.4761  0.3297  0.0565
 8678SOL    HW226934   1.504   1.310   5.504  0.2249  0.2270  0.2238
 8679SOL     OW26935   6.093   1.495   2.932  0.6322  0.8651  0.1378
 8679SOL    HW126936   6.180   1.523   2.971  1.2857  1.1224 -1.4362
 8679SOL    HW226937   6.068   1.557   2.857 -1.6444  1.6990  1.4487
 8680SOL     OW26938   0.468   2.313   6.258 -0.0465  0.1087 -0.6848
 8680SOL    HW126939   0.540   2.264   6.307 -0.8560  1.6142  2.2151
 8680SOL    HW226940   0.496   2.408   6.245 -1.2397  0.5504 -0.0864
 8681SOL     OW26941   3.859   4.352   0.704 -0.1696  0.1784 -0.5314
 8681SOL    HW126942   3.818   4.274   0.751 -2.9469  1.5180 -0.5255
 8681SOL    HW226943   3.874   4.427   0.769 -0.0037  0.5663 -1.0078
 8682SOL     OW26944   0.151   4.924   2.551  0.2769  0.2113 -0.1949
 8682SOL    HW126945   0.228   4.870   2.586  0.4613  0.8492  0.4044
 8682SOL    HW226946   0.172   5.021   2.558 -1.9009  0.6256  3.4420
 8683SOL     OW26947   4.670   5.022   6.240 -0.1728 -0.1075  0.1166
 8683SOL    HW126948   4.610   5.070   6.176  0.0712 -0.5975 -0.4823
 8683SOL    HW226949   4.666   4.924   6.222 -1.0905 -0.4019  1.6840
 8684SOL     OW26950   0.628   0.900   3.430 -0.1750  0.0888 -0.1607
 8684SOL    HW126951   0.582   0.817   3.461  1.1812  0.3531  2.9282
 8684SOL    HW226952   0.724   0.880   3.410  0.1133  0.8263  0.4155
 8685SOL     OW26953   6.516   0.859   4.640 -0.7716  0.1677 -0.4062
 8685SOL    HW126954   6.533   0.811   4.554  1.4457  0.7020 -0.3287
 8685SOL    HW226955   6.523   0.795   4.716 -0.8762  0.0581 -0.4875
 8686SOL     OW26956   6.808   0.612   3.638  0.7082  0.7385 -0.4483
 8686SOL    HW126957   6.906   0.605   3.617  0.3766  0.2450 -1.9545
 8686SOL    HW226958   6.775   0.704   3.616  0.5637  0.5027 -1.2628
 8687SOL     OW26959   1.743   0.534   2.736  0.3805  0.2821  0.0424
 8687SOL    HW126960   1.748   0.632   2.718 -1.8658  0.4760  0.1968
 8687SOL    HW226961   1.721   0.518   2.833  2.2327 -0.4497  0.3817
 8688SOL     OW26962   2.293   5.800   3.848 -0.3740 -0.2203 -0.0336
 8688SOL    HW126963   2.315   5.704   3.829 -1.9408 -0.9770  1.5388
 8688SOL    HW226964   2.208   5.824   3.800  0.5257  0.7123 -1.1945
 8689SOL     OW26965   5.534   4.400   0.665 -0.2941  0.6339  0.7352
 8689SOL    HW126966   5.449   4.450   0.681 -0.4104  0.6099  0.2256
 8689SOL    HW226967   5.540   4.375   0.568  0.5439  1.0956  0.6571
 8690SOL     OW26968   1.494   1.121   3.032  0.5158 -0.2375 -0.2508
 8690SOL    HW126969   1.470   1.024   3.023  2.4209 -0.8683  0.8769
 8690SOL    HW226970   1.579   1.138   2.982  0.9459  0.5258  0.7291
 8691SOL     OW26971   5.019   5.931   6.258 -0.5387  0.5512 -0.1113
 8691SOL    HW126972   4.926   5.896   6.253 -0.2159 -0.6714  1.4049
 8691SOL    HW226973   5.021   6.014   6.314 -0.6182  0.1383  0.5102
 8692SOL     OW26974   2.335   0.704   3.752 -0.4620 -0.3416 -0.2868
 8692SOL    HW126975   2.254   0.646   3.764 -0.2592 -0.9567 -1.7359
 8692SOL    HW226976   2.305   0.799   3.738 -0.9821 -0.6783 -1.5520
 8693SOL     OW26977   5.539   2.472   6.180  0.1473 -0.1018  0.5247
 8693SOL    HW126978   5.508   2.519   6.263  0.5179 -1.8252  1.6916
 8693SOL    HW226979   5.637   2.455   6.185 -0.0840 -1.5491  0.4385
 8694SOL     OW26980   4.606   1.004   5.818  0.4328  0.3575  0.2713
 8694SOL    HW126981   4.591   1.098   5.784 -0.5494  0.8044  1.8428
 8694SOL    HW226982   4.518   0.963   5.841  1.0540  1.0977  4.8366
 8695SOL     OW26983   3.582   3.233   5.295  0.1530  0.6660 -0.1739
 8695SOL    HW126984   3.592   3.290   5.214 -0.2795 -0.1961 -0.8421
 8695SOL    HW226985   3.549   3.143   5.269 -0.0363  0.3893  0.9671
 8696SOL     OW26986   3.622   5.050   5.651  0.0045 -0.2442 -0.2690
 8696SOL    HW126987   3.575   5.010   5.573 -0.8518 -0.3496  0.2910
 8696SOL    HW226988   3.606   5.149   5.652 -0.4100 -0.3152  0.0628
 8697SOL     OW26989   0.256   4.001   6.722 -0.1563 -0.2919  0.5190
 8697SOL    HW126990   0.274   3.998   6.623 -1.8563 -0.9856  0.1898
 8697SOL    HW226991   0.255   3.907   6.758 -0.8383 -0.1288  0.9315
 8698SOL     OW26992   6.263   7.002   4.615  0.8097  0.1451  0.3690
 8698SOL    HW126993   6.219   6.913   4.602  3.1587 -0.9036 -1.0941
 8698SOL    HW226994   6.323   7.022   4.537  2.6523  1.6201  2.0376
 8699SOL     OW26995   2.705   6.934   4.298 -0.2213 -0.1413  0.3331
 8699SOL    HW126996   2.664   6.930   4.207  1.0023 -0.2041 -0.2429
 8699SOL    HW226997   2.677   7.019   4.344 -1.3618 -0.4126  0.1700
 8700SOL     OW26998   4.161   1.013   5.025 -0.0181 -0.5889  0.0611
 8700SOL    HW126999   4.180   1.005   5.123  1.1805 -0.1672 -0.1219
 8700SOL    HW227000   4.226   1.076   4.983  0.6032 -2.0861 -1.3299
 8701SOL     OW27001   1.052   1.654   3.427  0.3926  0.0994  0.5894
 8701SOL    HW127002   1.005   1.700   3.503  1.6115  3.1886 -0.3383
 8701SOL    HW227003   1.007   1.678   3.341  0.5990 -1.1905  0.0984
 8702SOL     OW27004   3.552   0.144   0.482  0.2159  0.1767 -0.0067
 8702SOL    HW127005   3.648   0.158   0.459  0.2892  0.5389  0.5030
 8702SOL    HW227006   3.539   0.051   0.517  0.7293  0.6958  1.6366
 8703SOL     OW27007   1.923   4.348   3.394 -0.1172 -0.8326  0.0782
 8703SOL    HW127008   1.920   4.253   3.366  1.0804 -0.4560 -1.4414
 8703SOL    HW227009   1.834   4.375   3.431 -0.3889 -2.5844  0.7999
 8704SOL     OW27010   1.323   3.172   1.548 -0.2746 -0.5071  0.2070
 8704SOL    HW127011   1.392   3.139   1.613 -0.5233 -2.0900 -0.2846
 8704SOL    HW227012   1.274   3.094   1.510 -0.5509  0.4239 -1.4378
 8705SOL     OW27013   4.111   5.158   5.112  0.5499  0.5113 -0.2718
 8705SOL    HW127014   4.061   5.104   5.180  1.3909 -0.2145 -0.1946
 8705SOL    HW227015   4.110   5.110   5.024 -0.2897  1.3071 -0.7120
 8706SOL     OW27016   5.768   6.522   1.546  0.7735  0.5362  0.1505
 8706SOL    HW127017   5.767   6.429   1.583  0.7411  0.1893 -0.7111
 8706SOL    HW227018   5.765   6.587   1.622 -1.2387 -0.1455  0.7298
 8707SOL     OW27019   2.796   0.781   6.364  0.7433 -0.1362  0.0321
 8707SOL    HW127020   2.736   0.705   6.337 -0.4497  0.0092  2.0527
 8707SOL    HW227021   2.862   0.748   6.431  2.1605 -0.0038 -1.2627
 8708SOL     OW27022   3.239   3.036   5.806  0.5631 -0.2632  0.0643
 8708SOL    HW127023   3.256   3.076   5.897  1.9286 -1.5021  0.3817
 8708SOL    HW227024   3.145   3.002   5.803 -0.5322  2.5453 -0.0929
 8709SOL     OW27025   4.968   1.568   0.699 -0.4100  0.6095  0.1062
 8709SOL    HW127026   4.921   1.539   0.616 -0.2533  0.2056  0.1569
 8709SOL    HW227027   5.042   1.632   0.676  1.2485 -1.3627 -0.3489
 8710SOL     OW27028   4.685   4.746   6.191 -0.0870 -0.2544  0.0069
 8710SOL    HW127029   4.709   4.671   6.252 -1.7440 -1.5188 -0.8164
 8710SOL    HW227030   4.732   4.736   6.104 -0.2772 -0.3160 -0.0896
 8711SOL     OW27031   2.326   2.856   5.314 -0.1914 -0.2786  0.1484
 8711SOL    HW127032   2.376   2.936   5.281 -0.4025 -0.7475 -1.4163
 8711SOL    HW227033   2.274   2.880   5.396  1.1842  0.6769  0.7700
 8712SOL     OW27034   2.332   0.461   5.929  0.1284 -0.1589  0.2142
 8712SOL    HW127035   2.269   0.538   5.928 -0.6675 -0.7976 -0.5080
 8712SOL    HW227036   2.304   0.395   6.000 -1.5482 -1.6241 -1.6831
 8713SOL     OW27037   6.260   5.204   2.926  0.3672  0.2709  0.2387
 8713SOL    HW127038   6.281   5.218   3.023 -0.5541 -1.3514  0.7053
 8713SOL    HW227039   6.204   5.122   2.915 -0.1913  0.8449 -1.6080
 8714SOL     OW27040   0.420   0.418   6.461 -0.2531  0.2299  0.6541
 8714SOL    HW127041   0.385   0.485   6.395 -0.2224  0.6131  1.0251
 8714SOL    HW227042   0.518   0.430   6.473 -0.7667  2.5813  3.4583
 8715SOL     OW27043   4.404   1.648   3.350 -0.0043 -0.1837  0.1460
 8715SOL    HW127044   4.455   1.579   3.299 -0.2601 -0.6684  0.5325
 8715SOL    HW227045   4.347   1.602   3.419 -0.4405  0.3942  0.1707
 8716SOL     OW27046   0.939   0.519   2.146  0.5909 -0.5731  0.5165
 8716SOL    HW127047   0.852   0.472   2.127  0.7200 -0.3180 -0.8081
 8716SOL    HW227048   0.999   0.459   2.198  0.5505 -1.7104 -0.6910
 8717SOL     OW27049   4.964   2.744   3.004  0.3308  0.0385  0.2787
 8717SOL    HW127050   4.881   2.699   3.037 -0.5102  1.0467 -0.3903
 8717SOL    HW227051   4.959   2.842   3.025  1.2572  0.1409  0.0444
 8718SOL     OW27052   6.383   1.512   4.855 -0.2651 -0.1647  0.4930
 8718SOL    HW127053   6.478   1.488   4.833  0.0056  0.6242  0.7552
 8718SOL    HW227054   6.380   1.554   4.946 -1.0005 -0.9848  0.8651
 8719SOL     OW27055   4.988   0.210   5.358 -0.3271  0.5159  0.2955
 8719SOL    HW127056   4.946   0.186   5.270 -0.4302  3.8701 -0.7097
 8719SOL    HW227057   4.918   0.241   5.421 -0.0857 -0.4514  1.0464
 8720SOL     OW27058   5.667   2.413   5.028 -0.5088 -0.8931 -0.0086
 8720SOL    HW127059   5.697   2.403   4.933 -0.3600 -2.8188  0.2022
 8720SOL    HW227060   5.734   2.371   5.089 -0.9854 -0.3668  0.8981
 8721SOL     OW27061   5.966   5.888   6.449 -0.2077  0.3298 -0.3684
 8721SOL    HW127062   6.013   5.966   6.408 -1.4469  1.3829  0.1404
 8721SOL    HW227063   5.868   5.895   6.431 -0.5782 -0.0545  1.3286
 8722SOL     OW27064   2.975   2.264   1.045 -0.3238 -0.0030  0.1758
 8722SOL    HW127065   2.892   2.309   1.078  1.3485  3.2909  0.3524
 8722SOL    HW227066   2.971   2.257   0.945 -0.9851 -0.2489  0.2173
 8723SOL     OW27067   0.665   5.063   2.334 -0.2454  0.1870 -0.1832
 8723SOL    HW127068   0.722   5.007   2.273  1.8171 -0.1634  1.9322
 8723SOL    HW227069   0.695   5.158   2.331 -0.4726  0.2639 -0.0792
 8724SOL     OW27070   3.921   2.035   0.580 -0.2188 -0.0551  0.6223
 8724SOL    HW127071   3.831   2.050   0.620 -1.0041  1.6466 -1.5547
 8724SOL    HW227072   3.992   2.064   0.643 -1.3463  1.6740  1.1465
 8725SOL     OW27073   3.909   6.199   0.864 -0.3191  0.1405  0.5413
 8725SOL    HW127074   3.940   6.108   0.890 -0.1359  0.4177  1.3299
 8725SOL    HW227075   3.837   6.229   0.927 -0.6418  0.3939  0.0628
 8726SOL     OW27076   0.502   5.604   6.013  0.9666  0.5051  0.0691
 8726SOL    HW127077   0.562   5.554   5.950  2.4679  0.1732  1.6680
 8726SOL    HW227078   0.557   5.642   6.087 -0.5351  2.2275  0.3576
 8727SOL     OW27079   4.692   5.441   1.623 -0.4858  0.3793  0.1902
 8727SOL    HW127080   4.597   5.432   1.592  0.1905 -2.9469 -1.4314
 8727SOL    HW227081   4.736   5.517   1.575 -1.2854 -0.5771 -2.2165
 8728SOL     OW27082   1.620   6.452   5.132  0.0597  0.2562 -0.2699
 8728SOL    HW127083   1.699   6.438   5.191 -0.6955 -2.2422  0.2642
 8728SOL    HW227084   1.546   6.493   5.185  0.0652 -0.0690 -0.0058
 8729SOL     OW27085   3.615   5.554   4.703 -0.1519 -0.5106  0.2254
 8729SOL    HW127086   3.632   5.617   4.627 -2.7668 -0.2050 -0.2042
 8729SOL    HW227087   3.627   5.602   4.790 -0.3453  0.0727 -0.0653
 8730SOL     OW27088   5.933   5.888   2.382 -0.4867 -0.1060  0.4532
 8730SOL    HW127089   5.899   5.898   2.475 -0.4322  3.5355  0.2236
 8730SOL    HW227090   5.866   5.839   2.327 -1.4584 -0.4814  1.9101
 8731SOL     OW27091   0.968   2.738   2.824 -0.6989  0.1781  0.5909
 8731SOL    HW127092   0.960   2.640   2.810 -1.1694  0.3082 -0.1206
 8731SOL    HW227093   1.019   2.779   2.748 -1.3628  0.6093  0.3672
 8732SOL     OW27094   6.689   0.484   1.846  0.1292  0.6477  0.4151
 8732SOL    HW127095   6.684   0.493   1.747  0.4042  2.0643  0.5027
 8732SOL    HW227096   6.694   0.575   1.888 -0.8858  0.1166  1.7864
 8733SOL     OW27097   0.086   5.667   1.038 -0.3054  0.6342 -0.1433
 8733SOL    HW127098   0.064   5.569   1.031  0.2073  0.5538 -0.7860
 8733SOL    HW227099   0.123   5.686   1.128  0.6361 -0.0028 -0.3756
 8734SOL     OW27100   5.357   1.404   2.758 -0.1675 -0.2167  0.4332
 8734SOL    HW127101   5.348   1.414   2.857 -0.7263 -0.8079  0.4528
 8734SOL    HW227102   5.267   1.387   2.718 -0.0420  0.7083 -0.2679
 8735SOL     OW27103   5.984   2.353   6.056  0.6196  0.3115  0.0624
 8735SOL    HW127104   6.083   2.358   6.040  0.5508  0.0780 -0.4580
 8735SOL    HW227105   5.945   2.278   6.002  0.1691  0.3488  0.3282
 8736SOL     OW27106   0.700   6.200   5.862  0.3444 -0.6100  0.0577
 8736SOL    HW127107   0.714   6.220   5.765 -0.6315 -2.6099 -0.5501
 8736SOL    HW227108   0.777   6.235   5.915  0.2344  1.7771 -1.2224
 8737SOL     OW27109   4.338   5.249   0.041 -0.4871 -0.4837 -0.5379
 8737SOL    HW127110   4.362   5.309  -0.035 -0.3761 -0.6676 -0.6484
 8737SOL    HW227111   4.286   5.170   0.007  0.5810 -1.1849 -0.5958
 8738SOL     OW27112   0.524   3.912   5.543 -0.3063 -0.4586  0.4333
 8738SOL    HW127113   0.455   3.983   5.532 -1.4828 -1.3322  1.8422
 8738SOL    HW227114   0.495   3.848   5.614  2.1384 -0.6647  1.3194
 8739SOL     OW27115   6.471   2.735   6.360  0.1096 -0.4678  0.2474
 8739SOL    HW127116   6.493   2.641   6.333  0.9092  0.0614 -1.0140
 8739SOL    HW227117   6.520   2.757   6.445  0.6189 -0.8945  0.0737
 8740SOL     OW27118   6.077   0.382   1.195 -0.4541 -0.1752  0.2882
 8740SOL    HW127119   6.152   0.323   1.167 -0.9789  0.1737 -2.0355
 8740SOL    HW227120   6.111   0.475   1.207  0.2540 -0.7065  3.3944
 8741SOL     OW27121   1.609   4.770   2.549 -0.8976  0.2082 -0.2655
 8741SOL    HW127122   1.577   4.772   2.643 -0.8683  0.0398 -0.2519
 8741SOL    HW227123   1.705   4.742   2.546 -0.1804  2.4482 -0.1559
 8742SOL     OW27124   3.746   5.282   3.410 -0.6309  0.3760 -0.2800
 8742SOL    HW127125   3.744   5.279   3.310 -0.7636 -3.7412 -0.3263
 8742SOL    HW227126   3.839   5.266   3.442 -0.8181  0.3362  0.2589
 8743SOL     OW27127   2.577   5.374   1.258  0.1947 -0.4011 -0.0439
 8743SOL    HW127128   2.555   5.277   1.260  2.5742 -1.0065 -0.5256
 8743SOL    HW227129   2.498   5.426   1.224 -1.1472 -2.1191  0.3399
 8744SOL     OW27130   2.566   1.679   5.348 -0.3661  0.3015  0.3175
 8744SOL    HW127131   2.496   1.707   5.414 -0.9556 -0.2420 -0.0723
 8744SOL    HW227132   2.547   1.721   5.259  0.9841  1.8548  0.7009
 8745SOL     OW27133   4.265   1.667   5.397 -0.0013  0.3975 -0.1986
 8745SOL    HW127134   4.340   1.640   5.457 -0.0068  0.4830 -0.1529
 8745SOL    HW227135   4.267   1.612   5.314 -0.5464 -0.3704  0.2806
 8746SOL     OW27136   6.218   3.658   6.986 -0.6892  0.1327  0.6168
 8746SOL    HW127137   6.244   3.653   6.890  1.5294  1.2508  1.1066
 8746SOL    HW227138   6.153   3.585   7.006 -0.3238 -0.8378 -1.4623
 8747SOL     OW27139   2.232   0.795   4.226 -0.1952 -0.5482  0.0083
 8747SOL    HW127140   2.153   0.812   4.285 -0.9758 -3.4794 -0.0507
 8747SOL    HW227141   2.282   0.880   4.213 -1.8959  0.8932  2.1159
 8748SOL     OW27142   2.485   1.101   5.638 -0.1081  0.5278 -0.4789
 8748SOL    HW127143   2.483   1.188   5.688  0.1068  1.5141 -2.1235
 8748SOL    HW227144   2.525   1.115   5.548 -2.1663 -0.8034 -1.6884
 8749SOL     OW27145   5.135   1.146   3.726  0.1190  0.1571 -0.1190
 8749SOL    HW127146   5.079   1.220   3.763 -1.2545 -1.3444  0.9369
 8749SOL    HW227147   5.200   1.115   3.796 -1.8461 -2.0547  0.8953
 8750SOL     OW27148   2.209   0.713   5.923 -0.0461 -0.6808 -0.4408
 8750SOL    HW127149   2.272   0.730   5.848 -2.6388  1.7868 -2.2542
 8750SOL    HW227150   2.210   0.790   5.986  0.3451 -1.6492  0.7847
 8751SOL     OW27151   1.238   6.952   2.798 -0.5234 -0.2663  0.5818
 8751SOL    HW127152   1.260   6.867   2.750 -0.9571 -0.6865  1.1042
 8751SOL    HW227153   1.281   7.029   2.752  0.3659 -0.8371  0.4452
 8752SOL     OW27154   2.960   6.573   6.376 -0.4209 -0.4212  0.9302
 8752SOL    HW127155   3.025   6.619   6.315 -1.3162 -1.7813 -1.1968
 8752SOL    HW227156   2.869   6.615   6.366 -0.5000 -0.4096  1.6501
 8753SOL     OW27157   4.881   2.975   3.764  0.5446  0.2496 -0.5471
 8753SOL    HW127158   4.975   2.965   3.797 -0.0736  0.0592  1.2850
 8753SOL    HW227159   4.819   2.987   3.842 -0.9145  0.8163 -1.7289
 8754SOL     OW27160   1.086   1.039   4.795 -0.2612  0.6653 -0.0132
 8754SOL    HW127161   1.159   1.014   4.859  1.1983 -1.0605 -2.2082
 8754SOL    HW227162   1.108   1.128   4.753 -0.6999  1.3044  1.0618
 8755SOL     OW27163   0.845   4.519   0.863 -0.4759 -0.2103 -0.8764
 8755SOL    HW127164   0.748   4.516   0.888  0.1289 -0.8887  1.6884
 8755SOL    HW227165   0.887   4.431   0.882  1.0446  0.6590 -0.0454
 8756SOL     OW27166   1.946   4.743   3.495 -0.2663  0.1566 -0.0234
 8756SOL    HW127167   2.002   4.675   3.541 -1.3617 -0.0220  1.1125
 8756SOL    HW227168   1.867   4.699   3.453 -0.3990  0.5898 -0.2372
 8757SOL     OW27169   3.395   4.991   3.756 -0.8717 -0.6292  0.0587
 8757SOL    HW127170   3.455   4.914   3.732 -0.3211 -0.4460  0.8168
 8757SOL    HW227171   3.345   4.968   3.840 -1.8947 -0.7924 -0.5888
 8758SOL     OW27172   4.899   6.559   3.036  0.4873 -0.8641  0.4312
 8758SOL    HW127173   4.821   6.610   3.074  0.7738  1.0452 -1.3385
 8758SOL    HW227174   4.877   6.462   3.033 -2.4106 -0.2783 -1.1840
 8759SOL     OW27175   2.530   0.079   5.085 -0.0867  0.8711 -0.1268
 8759SOL    HW127176   2.493  -0.007   5.118  0.7990 -0.0411 -1.4176
 8759SOL    HW227177   2.574   0.128   5.160 -2.4038  1.2307  1.0858
 8760SOL     OW27178   2.098   2.621   4.440 -0.1634 -0.2381 -0.4742
 8760SOL    HW127179   2.179   2.631   4.498 -0.1243  1.0826 -0.7312
 8760SOL    HW227180   2.026   2.573   4.491  1.0938 -2.3738 -0.5785
 8761SOL     OW27181   6.254   5.374   2.398  0.0716 -0.0356  0.1260
 8761SOL    HW127182   6.252   5.387   2.299  0.2196 -2.4681 -0.2368
 8761SOL    HW227183   6.168   5.408   2.437 -0.8114 -0.7802 -1.0879
 8762SOL     OW27184   2.430   6.654   1.785  0.0598 -0.0388  0.4565
 8762SOL    HW127185   2.495   6.693   1.852  0.8979 -3.1749  1.6431
 8762SOL    HW227186   2.388   6.572   1.824 -2.7513  0.4277 -1.3195
 8763SOL     OW27187   0.808   5.426   0.408  0.8958 -0.1790 -0.5220
 8763SOL    HW127188   0.775   5.398   0.498 -0.4039  3.6119  0.3374
 8763SOL    HW227189   0.732   5.423   0.343  1.1418 -0.1651 -0.8126
 8764SOL     OW27190   3.234   4.537   6.336  0.0756 -0.7258  0.5802
 8764SOL    HW127191   3.214   4.614   6.275  0.7290 -0.2837  0.9187
 8764SOL    HW227192   3.157   4.522   6.397 -0.0890 -0.3954  0.4553
 8765SOL     OW27193   4.765   6.579   6.058  0.5970  0.3593  0.7959
 8765SOL    HW127194   4.850   6.560   6.009  0.7387  1.5727  0.5486
 8765SOL    HW227195   4.723   6.661   6.021  0.1705  0.7105  2.0152
 8766SOL     OW27196   2.081   4.444   3.188  0.0236  0.5705 -0.4148
 8766SOL    HW127197   2.037   4.388   3.258 -0.5322 -0.5510 -1.6222
 8766SOL    HW227198   2.173   4.469   3.218 -0.2456  0.2200  0.7559
 8767SOL     OW27199   5.289   6.782   5.404  0.5691  0.2559  0.1263
 8767SOL    HW127200   5.223   6.848   5.368  0.5233 -0.7338 -1.7014
 8767SOL    HW227201   5.261   6.690   5.378 -0.5685 -0.8453  4.4379
 8768SOL     OW27202   1.040   5.729   2.117  0.5158  0.2395 -0.1516
 8768SOL    HW127203   0.993   5.816   2.131  0.3263  0.2436 -0.7824
 8768SOL    HW227204   1.133   5.746   2.085  2.4216  0.3986  4.5850
 8769SOL     OW27205   6.528   1.379   6.963 -0.2030  0.1871 -0.0634
 8769SOL    HW127206   6.593   1.418   6.897  0.1291 -0.1325  0.0719
 8769SOL    HW227207   6.574   1.307   7.015 -0.9889 -0.8233 -0.7309
 8770SOL     OW27208   0.352   1.723   2.421 -0.2030 -0.4761 -0.0234
 8770SOL    HW127209   0.394   1.783   2.353 -1.4288 -0.7118 -1.0160
 8770SOL    HW227210   0.408   1.723   2.504  2.3920 -1.6381 -1.6364
 8771SOL     OW27211   3.208   4.088   3.749 -0.3016 -0.3791 -0.0029
 8771SOL    HW127212   3.276   4.103   3.677  0.9742 -2.4900  0.6636
 8771SOL    HW227213   3.203   4.168   3.808 -1.6969  1.6196 -2.5734
 8772SOL     OW27214   6.813   0.032   6.048 -0.4123  0.8036  0.9758
 8772SOL    HW127215   6.860   0.120   6.055 -0.3782  1.4327 -3.7189
 8772SOL    HW227216   6.715   0.048   6.032 -0.3958  0.0425  0.0467
 8773SOL     OW27217   2.654   1.997   3.688 -0.3447 -0.5793  0.1878
 8773SOL    HW127218   2.730   1.936   3.710 -0.4070 -0.7779 -0.1578
 8773SOL    HW227219   2.689   2.078   3.641 -0.3766 -0.7842 -0.1889
 8774SOL     OW27220   1.318   0.376   6.039 -0.3325 -0.0914 -0.5518
 8774SOL    HW127221   1.320   0.348   5.943 -0.9221  0.2556 -0.6710
 8774SOL    HW227222   1.387   0.325   6.090 -1.1706 -1.5757 -0.8124
 8775SOL     OW27223   6.293   0.236   3.441  0.3169  0.3899  0.1219
 8775SOL    HW127224   6.361   0.165   3.455 -1.0849 -0.8939  0.7125
 8775SOL    HW227225   6.295   0.267   3.346  0.1201 -1.3408 -0.4787
 8776SOL     OW27226   3.540   2.438   0.296 -0.1143 -0.1593 -0.2961
 8776SOL    HW127227   3.514   2.344   0.315  1.9390 -0.2492  2.5359
 8776SOL    HW227228   3.496   2.499   0.362  1.8983  0.3359  0.6461
 8777SOL     OW27229   5.856   6.723   3.124  0.0424 -0.1436  0.2513
 8777SOL    HW127230   5.845   6.822   3.126 -0.9659 -0.2381  0.0019
 8777SOL    HW227231   5.811   6.682   3.203  1.4649 -0.3363  0.9979
 8778SOL     OW27232   5.016   3.289   1.922 -0.2292  0.1594 -0.1492
 8778SOL    HW127233   5.097   3.316   1.869 -0.3178 -0.2691 -0.5078
 8778SOL    HW227234   5.000   3.191   1.910 -0.1720  0.0342  0.7814
 8779SOL     OW27235   1.977   4.047   0.854  0.1855  0.1004 -0.3940
 8779SOL    HW127236   1.882   4.018   0.851  0.0819  0.4690 -0.7710
 8779SOL    HW227237   2.020   4.012   0.938 -1.1477  2.5967  1.4696
 8780SOL     OW27238   4.110   5.901   6.366  0.5475 -0.2330 -0.5814
 8780SOL    HW127239   4.124   5.810   6.326  0.1005  0.2793 -1.9553
 8780SOL    HW227240   4.125   5.971   6.296  2.0439  0.8489  0.7338
 8781SOL     OW27241   0.388   4.359   1.596  0.0032  0.1177  0.1040
 8781SOL    HW127242   0.347   4.444   1.630 -1.3360 -1.5232  3.0395
 8781SOL    HW227243   0.321   4.310   1.539 -0.7843 -0.7224  1.6699
 8782SOL     OW27244   5.648   0.903   5.170  1.0384 -0.5841 -0.0034
 8782SOL    HW127245   5.657   1.002   5.181 -0.1545 -0.4977  0.4264
 8782SOL    HW227246   5.634   0.861   5.259 -0.7632 -0.8481 -0.3729
 8783SOL     OW27247   5.350   1.889   4.987 -0.6994 -0.0212  0.5127
 8783SOL    HW127248   5.340   1.891   4.888 -0.5456 -1.6377  0.4383
 8783SOL    HW227249   5.442   1.919   5.012 -0.9144  0.9237  0.2280
 8784SOL     OW27250   4.298   3.816   6.738  0.0536 -0.3006  0.3291
 8784SOL    HW127251   4.288   3.898   6.681 -0.9592 -0.6988 -0.0969
 8784SOL    HW227252   4.393   3.783   6.732  0.2027  0.2206 -0.3602
 8785SOL     OW27253   5.289   4.423   0.762  0.2418  0.8022 -0.2884
 8785SOL    HW127254   5.334   4.391   0.845  0.6012  0.1223 -0.7330
 8785SOL    HW227255   5.191   4.401   0.767  0.0546  1.7371  0.4127
 8786SOL     OW27256   4.176   5.649   0.870  0.7923 -0.5319  0.0468
 8786SOL    HW127257   4.090   5.695   0.893  1.0355 -0.3570  0.6153
 8786SOL    HW227258   4.194   5.577   0.936  0.7171 -1.0622 -0.4979
 8787SOL     OW27259   1.680   1.597   6.235 -0.0176 -0.4120 -0.4097
 8787SOL    HW127260   1.729   1.554   6.311  0.9066  0.8408 -0.2544
 8787SOL    HW227261   1.619   1.531   6.192 -2.7523 -0.5362  3.1678
 8788SOL     OW27262   0.201   1.211   3.511  0.0661 -0.5414 -0.3060
 8788SOL    HW127263   0.256   1.142   3.557  0.0448 -0.7905 -0.6571
 8788SOL    HW227264   0.120   1.232   3.566  0.0444 -0.8356 -0.2290
 8789SOL     OW27265   6.762   1.483   6.804  0.2284  1.1508  0.2245
 8789SOL    HW127266   6.743   1.576   6.772  1.4915  1.2324 -0.3588
 8789SOL    HW227267   6.849   1.482   6.854 -0.0428  0.3797  0.6988
 8790SOL     OW27268   3.261   0.319   6.543  0.1732 -0.4604  0.0349
 8790SOL    HW127269   3.300   0.322   6.635  0.8307 -3.3213 -0.0501
 8790SOL    HW227270   3.304   0.244   6.491 -0.5918  0.6886 -2.4289
 8791SOL     OW27271   0.382   5.507   4.165  0.1321 -0.4290 -0.2661
 8791SOL    HW127272   0.461   5.536   4.112 -1.4803  0.1778 -2.5356
 8791SOL    HW227273   0.344   5.585   4.216 -2.1889  0.9183 -3.6639
 8792SOL     OW27274   5.360   4.732   3.776  0.5544  0.0169 -1.2436
 8792SOL    HW127275   5.324   4.642   3.750  1.3297 -0.6640 -0.0231
 8792SOL    HW227276   5.425   4.722   3.851 -0.8879  1.8233  0.3283
 8793SOL     OW27277   0.016   5.725   2.899  0.0920  0.4863  0.1727
 8793SOL    HW127278  -0.057   5.670   2.856  2.0982 -2.3335  0.1148
 8793SOL    HW227279   0.034   5.805   2.842 -2.1729  0.6958 -0.3786
 8794SOL     OW27280   1.473   1.095   4.091 -0.5456 -0.5509 -0.0092
 8794SOL    HW127281   1.558   1.111   4.141  0.3751  0.4919 -1.8028
 8794SOL    HW227282   1.396   1.097   4.155  0.7602 -1.9547  1.7316
 8795SOL     OW27283   2.406   6.615   4.938  0.0206 -0.2963  0.1237
 8795SOL    HW127284   2.402   6.517   4.919  1.3244 -0.0583 -1.6241
 8795SOL    HW227285   2.499   6.640   4.966 -0.1817  0.5281  0.1010
 8796SOL     OW27286   5.117   1.557   3.109 -0.1725 -0.2604  0.1138
 8796SOL    HW127287   5.044   1.543   3.042  0.1116 -1.5547  0.0516
 8796SOL    HW227288   5.109   1.649   3.148 -0.9898  0.1190 -0.9022
 8797SOL     OW27289   5.204   0.899   6.454  0.1445 -0.4051 -0.3491
 8797SOL    HW127290   5.124   0.840   6.444  0.6326 -1.2300  0.4442
 8797SOL    HW227291   5.176   0.995   6.450 -1.1020 -0.6588  1.2908
 8798SOL     OW27292   3.152   3.597   5.883 -0.2848  0.1405  0.4594
 8798SOL    HW127293   3.080   3.576   5.949 -1.2685 -0.4905 -0.7441
 8798SOL    HW227294   3.228   3.534   5.896 -1.2148 -1.1562 -0.0828
 8799SOL     OW27295   3.297   0.263   2.240  0.3623 -0.1240 -0.6988
 8799SOL    HW127296   3.224   0.331   2.234 -0.3244 -0.6454  1.2307
 8799SOL    HW227297   3.290   0.200   2.162  0.3568  1.3357 -1.9195
 8800SOL     OW27298   4.597   3.942   0.987 -0.6358 -0.4452  0.3779
 8800SOL    HW127299   4.631   4.036   0.983  0.4708 -0.7660  1.4114
 8800SOL    HW227300   4.639   3.895   1.065  0.1589 -2.2953 -1.0822
 8801SOL     OW27301   2.643   6.307   4.998  0.0201  0.2812  0.1361
 8801SOL    HW127302   2.546   6.314   4.979  0.1806 -0.3822 -0.9856
 8801SOL    HW227303   2.668   6.372   5.070 -0.9066  1.8133 -0.8760
 8802SOL     OW27304   0.909   4.522   2.353  0.3566 -0.6821  0.1488
 8802SOL    HW127305   0.818   4.521   2.310  0.5112 -0.4010 -0.1868
 8802SOL    HW227306   0.936   4.616   2.372  0.7016 -0.7481 -0.0119
 8803SOL     OW27307   2.598   5.820   0.928 -0.1908  0.7661  0.0235
 8803SOL    HW127308   2.611   5.915   0.954 -0.5087  0.5868  0.8493
 8803SOL    HW227309   2.587   5.814   0.829  2.5071  1.3089 -0.3805
 8804SOL     OW27310   3.313   0.565   1.995  0.7184 -0.3451 -0.0584
 8804SOL    HW127311   3.298   0.573   2.093  0.1530  0.4562 -0.2026
 8804SOL    HW227312   3.407   0.592   1.973 -0.1113  2.9611 -0.1111
 8805SOL     OW27313   6.751   0.508   4.807  0.1521  0.1915  0.0670
 8805SOL    HW127314   6.653   0.494   4.816  0.3358 -0.4840  1.2087
 8805SOL    HW227315   6.775   0.600   4.835 -0.2392  0.6240 -0.9732
 8806SOL     OW27316   3.745   5.246   0.119 -0.5524 -0.0432  0.2897
 8806SOL    HW127317   3.784   5.284   0.203 -0.5181 -1.1610  0.7961
 8806SOL    HW227318   3.648   5.269   0.113 -0.0765  2.0634 -0.5758
 8807SOL     OW27319   0.824   4.542   0.584 -0.2919 -0.0760  0.2026
 8807SOL    HW127320   0.901   4.573   0.529 -0.9437  0.8024 -0.2382
 8807SOL    HW227321   0.847   4.548   0.681  0.9141 -1.7598  0.0648
 8808SOL     OW27322   6.564   0.916   2.003 -0.0669  0.1824 -0.0407
 8808SOL    HW127323   6.500   0.854   1.956  0.0197 -0.2868  0.4468
 8808SOL    HW227324   6.515   0.997   2.034 -0.9597 -1.1527  2.2732
 8809SOL     OW27325   0.217   3.618   0.974 -0.0808 -0.4678  0.6170
 8809SOL    HW127326   0.223   3.519   0.964  1.2726 -0.5501  1.8264
 8809SOL    HW227327   0.183   3.659   0.889  0.9146 -1.8310 -0.4770
 8810SOL     OW27328   6.184   2.130   3.879 -0.3782  0.1571  0.0176
 8810SOL    HW127329   6.128   2.051   3.853  2.1278 -0.9250 -2.6956
 8810SOL    HW227330   6.263   2.099   3.930  0.4152  0.9286 -0.7104
 8811SOL     OW27331   1.006   1.250   4.075  0.1604 -0.0372  0.7407
 8811SOL    HW127332   1.055   1.320   4.127  2.4154 -0.9588 -0.0090
 8811SOL    HW227333   1.005   1.275   3.978 -0.8952 -0.0171  0.7552
 8812SOL     OW27334   2.421   6.338   0.843 -1.1130 -0.3076  0.0731
 8812SOL    HW127335   2.490   6.384   0.786  0.1003 -2.1078  0.0105
 8812SOL    HW227336   2.352   6.297   0.783 -0.2534 -1.5443 -0.1173
 8813SOL     OW27337   2.896   5.505   1.511 -0.0412 -0.5569 -0.0731
 8813SOL    HW127338   2.810   5.533   1.468 -0.2826 -1.8122 -0.4384
 8813SOL    HW227339   2.960   5.474   1.440  0.3255 -0.6449  0.2909
 8814SOL     OW27340   6.043   1.168   6.498 -0.0398  0.7118  0.0313
 8814SOL    HW127341   6.076   1.089   6.550 -1.6963  0.3386  0.5882
 8814SOL    HW227342   5.954   1.146   6.458 -0.0296  1.9477 -0.7073
 8815SOL     OW27343   6.963   4.151   3.094  0.5313 -0.1862  0.1205
 8815SOL    HW127344   6.973   4.179   2.999 -0.9420 -0.8001 -0.2338
 8815SOL    HW227345   7.054   4.136   3.134  1.1852  0.7619 -0.9628
 8816SOL     OW27346   0.166   6.597   1.368  0.3616  1.1175 -0.7094
 8816SOL    HW127347   0.229   6.527   1.334  0.2728  1.5351 -1.7654
 8816SOL    HW227348   0.072   6.572   1.345 -0.0001  0.1159  1.5156
 8817SOL     OW27349   2.412   3.943   5.474 -0.4545  0.0313  0.0628
 8817SOL    HW127350   2.325   3.986   5.498 -0.9906 -0.5746 -0.7571
 8817SOL    HW227351   2.435   3.963   5.379  0.0742 -0.2004  0.1342
 8818SOL     OW27352   6.542   3.947   4.743  0.6160  0.7287 -0.2280
 8818SOL    HW127353   6.597   3.864   4.742  0.5516  0.6811 -0.0176
 8818SOL    HW227354   6.602   4.027   4.730  0.3661  0.5185 -3.1422
 8819SOL     OW27355   1.123   1.882   4.056  0.3813  0.3106  0.4819
 8819SOL    HW127356   1.156   1.801   4.104  1.6042  2.3472  3.3398
 8819SOL    HW227357   1.191   1.912   3.990 -0.0378 -0.8427 -0.5269
 8820SOL     OW27358   1.825   2.026   2.465 -0.1416 -0.0913  0.2841
 8820SOL    HW127359   1.821   2.095   2.538 -3.1581 -0.0831  0.1988
 8820SOL    HW227360   1.755   2.045   2.396 -0.7372 -2.9230 -0.0201
 8821SOL     OW27361   6.537   0.000   0.952 -1.1499 -0.1067  0.5365
 8821SOL    HW127362   6.478  -0.077   0.975  0.3208 -2.0466 -1.6621
 8821SOL    HW227363   6.504   0.045   0.870 -0.6091 -0.0035  0.3686
 8822SOL     OW27364   0.885   2.251   3.626 -0.3489 -0.0621  0.6365
 8822SOL    HW127365   0.844   2.341   3.634 -0.2938  0.2391 -1.7754
 8822SOL    HW227366   0.938   2.231   3.708  0.0343  2.3035  1.0404
 8823SOL     OW27367   2.698   5.618   1.341 -0.1374  0.2241  0.9139
 8823SOL    HW127368   2.690   5.640   1.243  1.0576 -0.0679  0.7385
 8823SOL    HW227369   2.637   5.541   1.362  0.5753 -0.5982  0.0935
 8824SOL     OW27370   4.072   3.583   1.417 -0.2191 -0.1537 -0.1149
 8824SOL    HW127371   4.027   3.636   1.489 -2.4929 -1.6202 -0.3419
 8824SOL    HW227372   4.007   3.517   1.378  1.5016 -0.7728 -2.1717
 8825SOL     OW27373   1.870   1.324   6.081 -0.5003  0.7419 -0.0316
 8825SOL    HW127374   1.862   1.239   6.134 -0.3731  1.2201  0.7637
 8825SOL    HW227375   1.794   1.385   6.104 -0.7354  0.7571 -0.7908
 8826SOL     OW27376   5.750   1.193   1.816 -0.6120  0.5112 -0.1306
 8826SOL    HW127377   5.658   1.170   1.847 -1.2029  2.2044 -0.5399
 8826SOL    HW227378   5.747   1.224   1.722  0.2735  1.2806  0.0788
 8827SOL     OW27379   0.878   0.916   5.389  0.5875  0.3431 -0.4730
 8827SOL    HW127380   0.813   0.898   5.316  2.3085 -0.5879 -1.8608
 8827SOL    HW227381   0.883   0.836   5.450  0.9329  0.1123 -0.7957
 8828SOL     OW27382   1.852   5.351   4.217  0.3110 -0.1102  0.3282
 8828SOL    HW127383   1.795   5.420   4.263  0.8760  1.3752 -1.0939
 8828SOL    HW227384   1.947   5.383   4.217  0.4385 -0.4577 -1.1371
 8829SOL     OW27385   0.546   2.046   1.575  0.0944  0.3938  0.3546
 8829SOL    HW127386   0.507   2.055   1.667  1.1493 -0.6683  0.9366
 8829SOL    HW227387   0.645   2.038   1.582  0.1055 -0.7696 -0.8011
 8830SOL     OW27388   6.992   1.290   1.883 -0.4941 -0.2246  0.0165
 8830SOL    HW127389   6.989   1.355   1.959 -1.4690 -1.0705  0.7423
 8830SOL    HW227390   7.071   1.310   1.824 -0.4945  1.2793  0.4889
 8831SOL     OW27391   5.729   5.755   0.437  0.0500 -0.1187 -0.2010
 8831SOL    HW127392   5.747   5.852   0.420 -0.2460 -0.2383 -1.3007
 8831SOL    HW227393   5.637   5.744   0.475 -1.8947 -0.2269 -4.3675
 8832SOL     OW27394   6.780   0.034   2.072 -0.0035 -0.0700 -0.4429
 8832SOL    HW127395   6.741   0.023   2.163  2.0488 -1.3088  0.3424
 8832SOL    HW227396   6.872   0.071   2.079  0.6926 -1.3873 -1.9171
 8833SOL     OW27397   1.611   5.983   1.092 -0.4817 -1.0282 -0.4567
 8833SOL    HW127398   1.548   5.943   1.158 -0.1392  1.2651  1.4022
 8833SOL    HW227399   1.571   6.067   1.054  1.0382  0.0378  0.1740
 8834SOL     OW27400   2.024   4.476   5.419  0.5299 -0.4327  0.1704
 8834SOL    HW127401   1.974   4.413   5.479 -0.1289  0.4543  0.5824
 8834SOL    HW227402   2.094   4.524   5.472  1.5593 -1.3574 -0.3133
 8835SOL     OW27403   0.617   1.086   0.995  0.5509  0.0088  0.3799
 8835SOL    HW127404   0.652   1.031   0.919  0.2851  0.2846  0.0526
 8835SOL    HW227405   0.595   1.026   1.072  0.4251 -0.3257  0.0867
 8836SOL     OW27406   4.494   2.684   1.153  0.4378 -0.0334 -0.1382
 8836SOL    HW127407   4.574   2.686   1.212  0.0586  2.4474  0.4034
 8836SOL    HW227408   4.514   2.733   1.068 -0.1643 -0.3934 -0.5007
 8837SOL     OW27409   0.339   2.728   2.349 -0.3691  0.3317  0.3788
 8837SOL    HW127410   0.364   2.705   2.442 -0.1971  0.7101  0.4288
 8837SOL    HW227411   0.378   2.661   2.285 -0.9163 -0.2212  0.6150
 8838SOL     OW27412   2.280   6.914   3.859  0.1209 -0.2373 -0.0629
 8838SOL    HW127413   2.281   7.005   3.817 -2.6922 -0.0617  0.0799
 8838SOL    HW227414   2.326   6.849   3.798 -0.2547  0.7713 -1.4622
 8839SOL     OW27415   3.670   5.755   5.254  0.1313 -0.4965 -0.7903
 8839SOL    HW127416   3.711   5.843   5.234 -1.7850  1.3198  2.3722
 8839SOL    HW227417   3.589   5.742   5.196 -0.8706  0.9931  0.1772
 8840SOL     OW27418   3.758   0.912   2.889  0.5586 -0.6771 -0.1282
 8840SOL    HW127419   3.830   0.842   2.885 -0.2952 -1.6225  0.4633
 8840SOL    HW227420   3.688   0.884   2.955 -1.6510 -1.0537 -2.4768
 8841SOL     OW27421   4.265   6.940   1.941  0.0932 -0.6460 -0.5703
 8841SOL    HW127422   4.242   6.898   2.029 -1.2014 -0.7496 -0.9520
 8841SOL    HW227423   4.323   6.878   1.889  1.1801 -0.4399  0.3347
 8842SOL     OW27424   3.550   1.507   2.667 -0.0917 -0.2171 -0.4303
 8842SOL    HW127425   3.536   1.605   2.651 -0.5786  0.1506  1.9314
 8842SOL    HW227426   3.519   1.456   2.587 -1.4355  1.4626 -1.0480
 8843SOL     OW27427   0.650   3.713   3.967 -0.4752  0.7332 -0.2664
 8843SOL    HW127428   0.653   3.793   4.028  0.4972  1.3558 -1.1052
 8843SOL    HW227429   0.567   3.717   3.912 -0.2647  1.3670 -0.5496
 8844SOL     OW27430   6.438   1.867   5.648 -0.1717  0.8538 -0.2575
 8844SOL    HW127431   6.383   1.907   5.574  0.3121  0.3007 -0.9395
 8844SOL    HW227432   6.494   1.793   5.611  0.5540  0.9794  0.5431
 8845SOL     OW27433   4.334   3.619   1.533 -0.2169 -0.2797 -0.0726
 8845SOL    HW127434   4.253   3.598   1.478 -1.4373  0.4267  1.3550
 8845SOL    HW227435   4.305   3.648   1.625  1.7363 -1.4449  0.9729
 8846SOL     OW27436   2.678   5.762   2.913 -0.4359  0.4080 -0.0849
 8846SOL    HW127437   2.775   5.739   2.921 -0.4070  0.3616 -0.5482
 8846SOL    HW227438   2.638   5.769   3.004 -0.2983 -0.8664  0.1030
 8847SOL     OW27439   2.235   2.201   4.263 -0.3625 -0.7008 -0.4693
 8847SOL    HW127440   2.212   2.290   4.224  1.5916 -0.1373 -0.4359
 8847SOL    HW227441   2.250   2.135   4.189  1.2500 -0.1780 -0.6371
 8848SOL     OW27442   1.726   0.994   4.925 -0.0944  0.5301 -0.3765
 8848SOL    HW127443   1.732   1.085   4.966 -2.3702  0.4730  0.2499
 8848SOL    HW227444   1.682   1.001   4.835 -0.8578 -0.0019 -0.0514
 8849SOL     OW27445   2.938   6.171   0.850  0.0105 -0.4297 -0.1865
 8849SOL    HW127446   2.885   6.243   0.804 -0.0939  0.1820  0.8703
 8849SOL    HW227447   2.932   6.183   0.949  1.1114 -1.0955 -0.0222
 8850SOL     OW27448   4.080   2.471   0.063 -0.4631 -0.1432  0.0423
 8850SOL    HW127449   4.094   2.491   0.160 -2.2262  1.2139  0.0916
 8850SOL    HW227450   4.168   2.467   0.016  0.4570 -1.2824  1.7459
 8851SOL     OW27451   1.874   4.802   6.360  0.0507  0.5952  0.9333
 8851SOL    HW127452   1.832   4.711   6.360 -1.0571  1.0816  0.0386
 8851SOL    HW227453   1.877   4.837   6.454 -1.2089  0.3673  1.0838
 8852SOL     OW27454   0.467   1.676   4.764  0.1188 -0.6360 -0.0277
 8852SOL    HW127455   0.538   1.708   4.827  0.8982  2.5204 -2.2655
 8852SOL    HW227456   0.392   1.636   4.817  1.4523  0.2562  2.7573
 8853SOL     OW27457   4.051   0.863   3.230  0.4856  0.3552 -0.1842
 8853SOL    HW127458   4.102   0.883   3.314  0.0308  1.4188 -0.1504
 8853SOL    HW227459   4.116   0.844   3.156  0.9878  2.1532 -0.2652
 8854SOL     OW27460   6.321   2.884   3.858 -0.0552  1.0244 -0.4497
 8854SOL    HW127461   6.349   2.913   3.949  1.1767 -0.9504 -0.1339
 8854SOL    HW227462   6.235   2.833   3.863  1.1863 -1.1402  0.0305
 8855SOL     OW27463   6.633   5.653   6.816  0.0322  0.3989 -0.3419
 8855SOL    HW127464   6.683   5.597   6.750 -0.9548 -0.1426 -0.6494
 8855SOL    HW227465   6.543   5.612   6.834  0.0680  0.8150  0.9412
 8856SOL     OW27466   6.224   2.481   6.370  0.0394  0.0443 -0.1873
 8856SOL    HW127467   6.208   2.567   6.321 -0.0361  0.4530  0.5435
 8856SOL    HW227468   6.267   2.415   6.308  1.6974  1.1634 -0.2991
 8857SOL     OW27469   5.968   1.546   0.990 -0.1083  0.3159  0.4906
 8857SOL    HW127470   6.013   1.562   0.902 -0.3206 -0.1535  0.2968
 8857SOL    HW227471   5.870   1.534   0.976 -0.1910  0.5745  0.8323
 8858SOL     OW27472   0.411   4.576   5.382  0.7414  0.2008  0.2179
 8858SOL    HW127473   0.452   4.661   5.414  2.7211 -0.5227 -0.2744
 8858SOL    HW227474   0.400   4.579   5.283  0.5300  0.0077  0.2338
 8859SOL     OW27475   6.452   0.099   2.335 -0.7634 -0.2417 -0.5415
 8859SOL    HW127476   6.374   0.142   2.289 -0.4494  0.4760 -0.4277
 8859SOL    HW227477   6.521   0.169   2.356  0.5855 -1.0689 -1.9807
 8860SOL     OW27478   0.713   3.340   1.353  0.1155 -0.3290 -0.0217
 8860SOL    HW127479   0.664   3.427   1.365 -1.1350 -0.9932 -0.1821
 8860SOL    HW227480   0.811   3.356   1.365 -0.0964  1.0832  0.0660
 8861SOL     OW27481   2.991   3.437   2.088  0.2914  0.0921 -1.8552
 8861SOL    HW127482   2.930   3.453   2.166 -1.5460  0.5933 -3.3056
 8861SOL    HW227483   3.086   3.442   2.118 -0.3483 -0.2770  0.4299
 8862SOL     OW27484   6.584   4.408   4.694  0.0686  0.5115  0.5530
 8862SOL    HW127485   6.627   4.318   4.698  2.3408  1.5640  1.6424
 8862SOL    HW227486   6.533   4.424   4.779 -0.4775  0.1863  0.2865
 8863SOL     OW27487   0.954   4.757   1.757  0.4612 -0.2299  0.2169
 8863SOL    HW127488   1.027   4.690   1.742 -0.6457 -0.9885 -2.1673
 8863SOL    HW227489   0.913   4.741   1.847  1.1744 -1.8437  0.2932
 8864SOL     OW27490   6.867   2.569   5.312 -0.3303  0.2390 -0.4235
 8864SOL    HW127491   6.947   2.519   5.346 -0.9806 -0.5797 -0.0460
 8864SOL    HW227492   6.802   2.503   5.274 -0.9398  0.8687 -0.4728
 8865SOL     OW27493   1.260   0.464   0.839  0.1666  0.2595  0.0211
 8865SOL    HW127494   1.223   0.552   0.869  1.7103  0.8819  0.1984
 8865SOL    HW227495   1.294   0.472   0.745 -1.6192 -0.7702 -0.7613
 8866SOL     OW27496   5.876   0.216   1.977  0.0186  0.7269 -0.3009
 8866SOL    HW127497   5.883   0.187   1.882 -1.7073  1.1012 -0.5780
 8866SOL    HW227498   5.965   0.206   2.022  0.1960 -2.2915 -1.1242
 8867SOL     OW27499   4.766   0.628   3.141  0.1113 -0.0263  0.1716
 8867SOL    HW127500   4.758   0.539   3.185 -2.5839  0.7272  1.3583
 8867SOL    HW227501   4.841   0.679   3.182 -0.9160 -0.2075  2.3766
 8868SOL     OW27502   0.233   2.006   2.675  0.1368  0.7099 -0.5366
 8868SOL    HW127503   0.192   1.925   2.635 -0.8634  1.2760 -0.6783
 8868SOL    HW227504   0.306   1.978   2.738 -0.2278 -0.2917 -0.5396
 8869SOL     OW27505   4.441   1.455   3.096  0.5391  0.1753  0.2895
 8869SOL    HW127506   4.523   1.415   3.136 -0.8877 -1.2450  1.9328
 8869SOL    HW227507   4.362   1.432   3.152 -0.9921  1.6089 -1.1760
 8870SOL     OW27508   1.349   2.053   1.509 -0.3307  0.0735 -0.2177
 8870SOL    HW127509   1.252   2.033   1.494 -0.2098 -0.0675 -0.8706
 8870SOL    HW227510   1.401   2.023   1.428  0.4619 -1.3557  0.7746
 8871SOL     OW27511   6.740   0.886   6.330  0.1994 -0.0088  0.0378
 8871SOL    HW127512   6.660   0.944   6.315  1.4266  1.5266 -0.9236
 8871SOL    HW227513   6.821   0.930   6.291  1.4324 -1.7816  0.4604
 8872SOL     OW27514   4.996   4.974   4.115  0.4750 -0.2601  0.3085
 8872SOL    HW127515   4.959   4.889   4.076  1.2265 -0.1569 -0.6547
 8872SOL    HW227516   4.921   5.037   4.132 -0.1621 -1.3234  1.5815
 8873SOL     OW27517   0.356   0.379   2.916  0.0074 -0.2320  0.0101
 8873SOL    HW127518   0.346   0.425   3.004 -1.8631  0.5516 -0.5709
 8873SOL    HW227519   0.278   0.400   2.858  2.2283  1.1756 -2.7376
 8874SOL     OW27520   2.153   5.332   1.169  0.1331 -0.1025 -0.5905
 8874SOL    HW127521   2.053   5.324   1.161 -0.0797  0.8515  0.8715
 8874SOL    HW227522   2.190   5.246   1.205 -0.2105 -0.2720 -0.6363
 8875SOL     OW27523   6.678   1.086   2.543 -0.3560  0.4695  0.5235
 8875SOL    HW127524   6.684   1.168   2.486  0.6837 -1.9494 -3.1476
 8875SOL    HW227525   6.592   1.039   2.526  0.0152 -0.3525  0.8648
 8876SOL     OW27526   5.822   0.679   6.819  0.0744  0.5791  0.0809
 8876SOL    HW127527   5.869   0.697   6.905  1.8560 -1.2435 -0.4289
 8876SOL    HW227528   5.853   0.744   6.750  0.1113  0.8242  0.3280
 8877SOL     OW27529   2.079   5.135   0.872 -0.4209  0.2726 -0.2048
 8877SOL    HW127530   2.025   5.206   0.916 -1.1166  1.9747 -3.4912
 8877SOL    HW227531   2.023   5.052   0.863 -2.1719  1.5524 -2.2906
 8878SOL     OW27532   0.247   3.583   2.035 -0.1960 -0.4719  0.3834
 8878SOL    HW127533   0.195   3.510   2.080 -1.4610 -0.1494 -0.4983
 8878SOL    HW227534   0.187   3.634   1.973  1.1021  0.1415 -0.4248
 8879SOL     OW27535   0.403   4.165   4.498  0.5660 -0.2839  0.8619
 8879SOL    HW127536   0.322   4.106   4.491  0.5660 -0.3165  1.1300
 8879SOL    HW227537   0.415   4.194   4.593  0.1330  0.7590  0.6079
 8880SOL     OW27538   2.619   2.035   3.251 -0.3344 -0.5176 -0.2394
 8880SOL    HW127539   2.669   1.958   3.289  0.5502 -0.0300 -0.3886
 8880SOL    HW227540   2.683   2.098   3.207 -1.3207 -1.1745 -2.7961
 8881SOL     OW27541   3.019   5.989   2.990  0.4712  0.1242  0.0308
 8881SOL    HW127542   3.073   5.984   3.073 -0.3724  1.3321  0.6823
 8881SOL    HW227543   2.932   6.035   3.009  0.1330  0.1538 -1.4445
 8882SOL     OW27544   3.837   0.886   6.193 -0.1021  0.3739 -0.2613
 8882SOL    HW127545   3.783   0.915   6.114 -0.0708  0.7745 -0.1379
 8882SOL    HW227546   3.867   0.966   6.244  1.3650  0.2237 -0.8293
 8883SOL     OW27547   2.643   0.986   4.572  0.0234  0.3892  0.5454
 8883SOL    HW127548   2.696   0.993   4.657  1.1750 -0.7139 -0.0436
 8883SOL    HW227549   2.633   1.076   4.531 -2.9196  1.4511  3.1881
 8884SOL     OW27550   2.100   1.550   6.370  0.0664  0.3435 -0.4785
 8884SOL    HW127551   2.098   1.615   6.295 -1.0829  1.5149  0.5233
 8884SOL    HW227552   2.155   1.586   6.445 -0.2394 -0.0093 -0.0716
 8885SOL     OW27553   6.402   4.588   0.806  0.5717  0.8362  0.0740
 8885SOL    HW127554   6.314   4.541   0.810  0.7464  0.3559 -1.3653
 8885SOL    HW227555   6.387   4.687   0.809  0.1039  0.7528  1.3716
 8886SOL     OW27556   6.233   0.265   2.287  0.1121 -0.2990 -0.5309
 8886SOL    HW127557   6.167   0.339   2.275 -0.7462 -0.6075  1.8072
 8886SOL    HW227558   6.196   0.196   2.349  1.8798 -1.4695 -0.6850
 8887SOL     OW27559   4.957   0.992   4.329 -0.5065 -0.6022  0.2685
 8887SOL    HW127560   4.863   1.021   4.348 -1.6321 -2.1461 -2.3710
 8887SOL    HW227561   4.966   0.895   4.352 -0.2609 -1.0336 -1.5286
 8888SOL     OW27562   2.608   1.472   3.376 -0.0213  0.5265  0.5342
 8888SOL    HW127563   2.599   1.485   3.277 -0.6838 -1.9485  0.2043
 8888SOL    HW227564   2.528   1.511   3.422  1.2653  3.6327  0.4091
 8889SOL     OW27565   0.927   5.509   5.977 -0.0881  1.0317 -0.0555
 8889SOL    HW127566   1.004   5.487   6.037  1.3224  1.3684 -1.6403
 8889SOL    HW227567   0.960   5.561   5.898 -1.7133  0.0249 -1.4907
 8890SOL     OW27568   2.734   5.439   5.685  0.1676  0.2739  0.5308
 8890SOL    HW127569   2.782   5.525   5.670 -0.0382  0.2675 -0.1996
 8890SOL    HW227570   2.670   5.449   5.761  0.0197  0.8157  0.3392
 8891SOL     OW27571   4.196   4.215   0.145 -0.1529 -0.2462  0.3162
 8891SOL    HW127572   4.103   4.179   0.147 -0.0388 -0.6278 -0.6670
 8891SOL    HW227573   4.210   4.266   0.059  0.4436  0.0779  0.6025
 8892SOL     OW27574   3.173   4.275   6.590  0.1842 -0.0934 -0.1882
 8892SOL    HW127575   3.102   4.293   6.522 -0.9970 -2.6840  0.2284
 8892SOL    HW227576   3.176   4.351   6.655 -1.1344  0.7840 -1.0964
 8893SOL     OW27577   0.575   3.680   6.577  0.4220  0.0559 -0.5325
 8893SOL    HW127578   0.553   3.678   6.675  1.1376  2.5520 -0.2387
 8893SOL    HW227579   0.493   3.659   6.524 -0.0435 -1.0528  0.5865
 8894SOL     OW27580   5.845   2.120   0.746  0.6959  0.1045 -0.2854
 8894SOL    HW127581   5.775   2.062   0.705 -0.5132  0.9183  0.5610
 8894SOL    HW227582   5.918   2.135   0.680  0.8528 -2.0044 -0.6785
 8895SOL     OW27583   6.395   4.413   2.601 -0.3235 -0.6104  0.6210
 8895SOL    HW127584   6.384   4.342   2.532  0.4347  1.3076 -1.6110
 8895SOL    HW227585   6.308   4.460   2.615  0.0622  0.6147 -0.9415
 8896SOL     OW27586   0.966   0.391   4.796 -0.0978 -0.6354 -0.0380
 8896SOL    HW127587   1.002   0.344   4.716 -1.3080 -0.2441 -0.8507
 8896SOL    HW227588   1.036   0.449   4.836 -0.2262  1.4518 -2.5805
 8897SOL     OW27589   0.813   2.367   4.865  0.5363 -0.0034  0.2014
 8897SOL    HW127590   0.905   2.330   4.870  1.2257  1.6877  0.7366
 8897SOL    HW227591   0.781   2.391   4.957 -1.0732 -1.9637  0.2158
 8898SOL     OW27592   5.546   3.961   3.728  1.0258 -0.6283 -0.1296
 8898SOL    HW127593   5.509   3.876   3.764 -0.9395 -0.5168 -1.6842
 8898SOL    HW227594   5.574   3.946   3.633  2.3759  0.0263  0.1537
 8899SOL     OW27595   1.817   2.743   4.051 -0.4250  0.3989  0.2997
 8899SOL    HW127596   1.758   2.701   4.119  2.2529 -1.2068  1.8111
 8899SOL    HW227597   1.854   2.672   3.990  1.4627  0.9753  0.6835
 8900SOL     OW27598   4.710   0.311   3.736 -0.7111  0.1789 -0.6719
 8900SOL    HW127599   4.751   0.346   3.820 -0.7106 -0.7968 -0.2582
 8900SOL    HW227600   4.691   0.214   3.745  0.7874 -0.3369 -2.3649
 8901SOL     OW27601   0.780   4.776   6.366  0.5913 -0.1707 -0.0850
 8901SOL    HW127602   0.805   4.870   6.391  1.1827 -0.7295  1.5809
 8901SOL    HW227603   0.785   4.718   6.447  1.3180 -1.8749 -1.2895
 8902SOL     OW27604   0.269   3.341   0.293 -0.5175  0.1041  0.1431
 8902SOL    HW127605   0.286   3.436   0.270  1.3209 -0.1519  0.2763
 8902SOL    HW227606   0.353   3.288   0.278 -0.9864 -1.1577  1.7441
 8903SOL     OW27607   2.596   1.611   4.240 -0.0281 -0.2259  0.0263
 8903SOL    HW127608   2.616   1.653   4.328 -0.4589 -0.5638  0.2925
 8903SOL    HW227609   2.645   1.660   4.168 -0.3614  0.6049  0.3467
 8904SOL     OW27610   4.095   2.190   2.637  0.8988  0.2634  0.0801
 8904SOL    HW127611   4.138   2.135   2.564 -0.8751  0.1379 -0.9335
 8904SOL    HW227612   4.156   2.265   2.662  1.6813  0.1539 -1.3586
 8905SOL     OW27613   2.086   4.049   2.374  0.0302  0.1048 -0.2980
 8905SOL    HW127614   2.121   4.141   2.355  0.2179  0.1877  0.3834
 8905SOL    HW227615   2.066   4.002   2.289  1.2275  0.2872 -0.6962
 8906SOL     OW27616   5.102   1.313   5.735 -0.4227 -0.2519  0.3126
 8906SOL    HW127617   5.084   1.388   5.799 -0.8362 -0.2005  0.1415
 8906SOL    HW227618   5.199   1.310   5.713 -0.5596  0.9194 -0.5293
 8907SOL     OW27619   3.021   3.224   5.523  0.4722 -0.2223  0.7111
 8907SOL    HW127620   3.079   3.190   5.449  1.1984 -0.6566  1.4660
 8907SOL    HW227621   2.977   3.147   5.569  1.2034 -0.0839  1.6780
 8908SOL     OW27622   3.631   0.507   6.146 -0.2068 -0.3650 -0.2003
 8908SOL    HW127623   3.673   0.521   6.236 -0.1790 -1.6667  0.0156
 8908SOL    HW227624   3.594   0.594   6.112 -0.0667  0.1796  0.9936
 8909SOL     OW27625   1.431   6.383   1.892  0.4356 -0.5692  0.1374
 8909SOL    HW127626   1.417   6.437   1.975  0.2999 -0.8650  0.3099
 8909SOL    HW227627   1.410   6.439   1.812  1.6051  0.0513  0.2450
 8910SOL     OW27628   1.720   0.608   3.850  0.8615 -0.6582 -1.1137
 8910SOL    HW127629   1.759   0.541   3.914 -1.2251 -0.6209  0.3058
 8910SOL    HW227630   1.682   0.684   3.902  0.0875 -0.0769 -2.5008
 8911SOL     OW27631   5.117   3.795   4.940 -0.1106  0.2354 -0.2737
 8911SOL    HW127632   5.063   3.856   4.882 -2.1845 -1.4048 -0.1757
 8911SOL    HW227633   5.058   3.754   5.009  1.7112 -0.1454  1.1148
 8912SOL     OW27634   3.228   3.413   4.707 -0.1868  0.1060  0.1443
 8912SOL    HW127635   3.269   3.340   4.652 -0.9088 -0.1939 -0.0123
 8912SOL    HW227636   3.185   3.480   4.647 -2.3655 -1.0365  0.3244
 8913SOL     OW27637   5.204   5.120   0.740  0.5215 -0.5747  0.1606
 8913SOL    HW127638   5.220   5.086   0.647 -1.6286  0.0718 -0.4944
 8913SOL    HW227639   5.109   5.103   0.766  0.9118 -0.1706  2.0300
 8914SOL     OW27640   6.704   3.869   5.255 -0.3666 -0.5937  0.2120
 8914SOL    HW127641   6.609   3.878   5.285 -0.2171  3.0856 -0.0096
 8914SOL    HW227642   6.714   3.910   5.165  1.2799 -1.9629 -0.2774
 8915SOL     OW27643   2.503   0.574   3.975  0.5451 -0.1881 -0.5620
 8915SOL    HW127644   2.560   0.641   4.023 -1.4073  0.9006  0.3324
 8915SOL    HW227645   2.435   0.622   3.920  0.6844 -1.4636 -1.8975
 8916SOL     OW27646   0.404   6.682   2.070  0.1651 -0.7319 -0.3744
 8916SOL    HW127647   0.314   6.724   2.072  0.2472 -0.5379 -0.5875
 8916SOL    HW227648   0.405   6.607   2.004  0.2255 -0.5680 -0.5652
 8917SOL     OW27649   4.869   2.676   4.974 -0.2229 -0.3676  0.4388
 8917SOL    HW127650   4.946   2.620   4.945  0.5876 -0.0928  1.9387
 8917SOL    HW227651   4.872   2.765   4.928 -0.3061 -0.7674 -0.3525
 8918SOL     OW27652   2.272   2.172   4.750 -0.5477 -0.1452 -0.0159
 8918SOL    HW127653   2.214   2.090   4.745 -0.6409 -0.0622 -0.3752
 8918SOL    HW227654   2.227   2.248   4.703 -0.9494  0.4216  1.2648
 8919SOL     OW27655   1.757   2.222   2.924 -0.4553 -0.0532 -0.6666
 8919SOL    HW127656   1.839   2.279   2.924  0.2434 -1.0312  0.1640
 8919SOL    HW227657   1.758   2.160   3.002 -1.8682 -0.2749 -0.7813
 8920SOL     OW27658   1.677   2.027   0.404 -0.1980  0.9063 -0.1924
 8920SOL    HW127659   1.619   1.947   0.387  0.6198  0.1039  0.6872
 8920SOL    HW227660   1.623   2.098   0.450 -0.2073 -0.3516  1.8737
 8921SOL     OW27661   2.375   2.611   1.028  0.0506 -0.1822  0.5400
 8921SOL    HW127662   2.448   2.662   0.983  0.1007 -1.0859 -0.4364
 8921SOL    HW227663   2.359   2.649   1.120  3.1998 -1.2761  1.6786
 8922SOL     OW27664   3.516   0.168   4.891 -0.5772 -0.2421  0.4226
 8922SOL    HW127665   3.495   0.074   4.919 -0.4476 -0.1069  0.9840
 8922SOL    HW227666   3.433   0.211   4.856 -0.9325 -0.1534  1.3572
 8923SOL     OW27667   2.775   0.636   3.659  0.0664  0.2001 -0.0920
 8923SOL    HW127668   2.817   0.701   3.597  0.1730  0.3338  0.1197
 8923SOL    HW227669   2.723   0.685   3.729  1.0062  0.1118  0.6978
 8924SOL     OW27670   1.155   3.138   5.459 -0.1943  0.2513 -0.3060
 8924SOL    HW127671   1.189   3.228   5.432 -1.5215  0.7825 -0.2846
 8924SOL    HW227672   1.076   3.149   5.520  1.7011 -0.9249  2.5815
 8925SOL     OW27673   2.982   5.419   3.654  0.3723 -0.0701  0.3871
 8925SOL    HW127674   2.896   5.421   3.706  1.1881  1.8722  1.7929
 8925SOL    HW227675   3.048   5.361   3.702  0.7328  0.7388  0.8924
 8926SOL     OW27676   5.266   1.503   6.200  0.4231  0.3474  0.3620
 8926SOL    HW127677   5.170   1.477   6.210  1.0054 -1.8292  0.9369
 8926SOL    HW227678   5.277   1.561   6.120 -1.1709 -0.5914 -0.5866
 8927SOL     OW27679   5.632   0.274   6.248  0.2576 -0.3746 -0.2273
 8927SOL    HW127680   5.727   0.243   6.246  0.9201  1.4436  0.6493
 8927SOL    HW227681   5.619   0.343   6.178  0.2835  1.1119  1.1638
 8928SOL     OW27682   0.842   6.722   5.342  0.0215  0.1282  0.4798
 8928SOL    HW127683   0.936   6.693   5.326 -0.2085 -1.2794  1.5364
 8928SOL    HW227684   0.842   6.804   5.400  0.5687 -0.9071  1.9784
 8929SOL     OW27685   1.256   1.827   4.323  0.3024  0.1296 -0.1194
 8929SOL    HW127686   1.218   1.740   4.355 -0.5875  0.2538 -0.7936
 8929SOL    HW227687   1.335   1.810   4.265 -1.5604 -0.4717 -2.6813
 8930SOL     OW27688   2.389   6.053   1.488 -0.2263 -0.4981  0.6127
 8930SOL    HW127689   2.382   6.139   1.438  3.1425 -0.5721 -0.1980
 8930SOL    HW227690   2.311   5.995   1.466  0.2799  0.0909 -3.3908
 8931SOL     OW27691   0.104   3.515   6.524  0.1390 -0.3510  0.3776
 8931SOL    HW127692   0.015   3.483   6.490 -0.3652  0.2292  1.1175
 8931SOL    HW227693   0.090   3.585   6.594  1.2058  0.9787 -0.6799
 8932SOL     OW27694   1.296   1.953   2.509  0.7712  0.7206  0.0642
 8932SOL    HW127695   1.276   1.990   2.600 -0.6847  0.9756 -0.3283
 8932SOL    HW227696   1.267   2.019   2.439  1.5006  0.3572 -0.5954
 8933SOL     OW27697   5.315   2.391   3.690 -0.0605  0.2760 -0.1795
 8933SOL    HW127698   5.232   2.396   3.746 -0.0416 -0.4309 -0.0763
 8933SOL    HW227699   5.296   2.428   3.599 -1.5750 -3.1194 -1.4102
 8934SOL     OW27700   2.312   5.896   1.823  0.6159  0.0596 -0.1189
 8934SOL    HW127701   2.404   5.899   1.786 -0.0253  0.8853 -1.7888
 8934SOL    HW227702   2.252   5.846   1.761  0.7352 -4.8403  3.1532
 8935SOL     OW27703   1.077   3.256   0.606  0.6577  0.3839 -0.6732
 8935SOL    HW127704   1.136   3.180   0.577  0.7946  0.7604 -1.3917
 8935SOL    HW227705   1.093   3.274   0.703  0.4033 -0.7031 -0.4063
 8936SOL     OW27706   5.483   1.996   5.397  0.2294  0.3250 -0.9071
 8936SOL    HW127707   5.476   1.896   5.394  0.9421  0.2897 -1.8644
 8936SOL    HW227708   5.391   2.036   5.392 -0.1118 -0.2800  0.2054
 8937SOL     OW27709   1.097   1.575   6.500  0.5475  0.0682 -0.1920
 8937SOL    HW127710   1.125   1.568   6.596 -0.9742  0.2894  0.3000
 8937SOL    HW227711   1.141   1.655   6.458 -0.0807  0.9747  0.8219
 8938SOL     OW27712   4.515   4.447   2.237 -0.0740 -0.4548  0.4354
 8938SOL    HW127713   4.494   4.375   2.170  1.3426  0.0403 -0.5882
 8938SOL    HW227714   4.605   4.486   2.217 -0.1882  0.6145  1.8595
 8939SOL     OW27715   6.723   0.646   2.682  0.2588  0.0894 -0.0816
 8939SOL    HW127716   6.810   0.600   2.667  0.7598  0.1317  2.4248
 8939SOL    HW227717   6.705   0.655   2.780 -1.3166  2.4422 -0.4863
 8940SOL     OW27718   4.834   1.794   1.629  0.8820 -0.4565 -0.3622
 8940SOL    HW127719   4.774   1.858   1.580  1.4798 -1.2008 -2.1234
 8940SOL    HW227720   4.799   1.781   1.722 -1.7266 -0.8986 -1.3259
 8941SOL     OW27721   3.157   1.011   5.867  0.4545  0.0468  0.7552
 8941SOL    HW127722   3.198   1.040   5.954  2.7371 -0.4105 -0.1051
 8941SOL    HW227723   3.166   0.912   5.857  0.4518  0.1313 -0.1265
 8942SOL     OW27724   0.676   0.942   6.925  0.0613  0.0735 -0.2923
 8942SOL    HW127725   0.611   0.953   6.849 -0.2922  0.0806  0.0079
 8942SOL    HW227726   0.625   0.933   7.010  0.4639  0.2504 -0.0339
 8943SOL     OW27727   3.536   2.868   0.435 -0.3262  0.2894  0.3238
 8943SOL    HW127728   3.612   2.804   0.447 -0.0135  0.4899 -0.4556
 8943SOL    HW227729   3.562   2.937   0.367 -2.3343 -1.4776 -2.4605
 8944SOL     OW27730   4.819   5.650   1.514 -0.7929  0.0324 -0.3432
 8944SOL    HW127731   4.772   5.736   1.493 -1.4946 -0.7250 -2.0735
 8944SOL    HW227732   4.912   5.670   1.545 -1.3545  1.4476  0.5313
 8945SOL     OW27733   3.208   0.507   2.713  0.5888 -0.3997  0.3493
 8945SOL    HW127734   3.241   0.591   2.755  0.5513  0.2177 -0.8130
 8945SOL    HW227735   3.244   0.428   2.763  1.7118  0.2872  0.6603
 8946SOL     OW27736   4.353   0.979   5.915  0.2031 -0.0742 -0.1079
 8946SOL    HW127737   4.306   1.059   5.951 -0.5876 -0.1980 -0.8246
 8946SOL    HW227738   4.304   0.945   5.835 -0.3908 -2.2262  1.0938
 8947SOL     OW27739   3.025   3.438   3.692  0.2461 -0.6461 -0.0564
 8947SOL    HW127740   2.971   3.449   3.775  1.6965  1.6637  0.6654
 8947SOL    HW227741   2.992   3.501   3.622  0.4764 -0.9437 -0.4363
 8948SOL     OW27742   5.895   5.507   3.778  0.1756 -0.3035  0.5031
 8948SOL    HW127743   5.896   5.562   3.694  0.0159 -0.9617  0.0579
 8948SOL    HW227744   5.975   5.447   3.779  0.2238 -0.2358  0.8684
 8949SOL     OW27745   1.203   5.222   6.543 -0.2812 -0.2048  0.1940
 8949SOL    HW127746   1.194   5.124   6.523 -0.3155  0.1337 -1.5830
 8949SOL    HW227747   1.132   5.249   6.609 -0.1605 -1.3989  0.8400
 8950SOL     OW27748   5.807   2.452   3.904 -0.3202  0.2259 -0.2105
 8950SOL    HW127749   5.714   2.431   3.873  0.2848 -2.4998 -0.4493
 8950SOL    HW227750   5.873   2.423   3.834  0.7774  0.4232  0.7074
 8951SOL     OW27751   3.769   6.069   6.848  0.0701  0.6156 -0.1053
 8951SOL    HW127752   3.861   6.058   6.809  0.6097  0.7364  1.1074
 8951SOL    HW227753   3.715   6.128   6.788  1.2638  1.7584 -0.0910
 8952SOL     OW27754   5.077   6.595   3.934  0.9851  0.2779  0.3221
 8952SOL    HW127755   5.075   6.672   3.869  1.5758  1.2784  1.4457
 8952SOL    HW227756   5.036   6.624   4.020 -0.6440 -1.3287  0.1464
 8953SOL     OW27757   2.117   6.201   6.037 -0.1307 -0.2837 -0.8233
 8953SOL    HW127758   2.079   6.254   6.112  0.3856  3.2764 -2.8509
 8953SOL    HW227759   2.167   6.122   6.073 -0.7141  0.7036  2.4404
 8954SOL     OW27760   3.597   0.851   5.329 -0.3134 -0.2356 -0.0346
 8954SOL    HW127761   3.633   0.899   5.249 -1.7108 -1.5987 -1.5479
 8954SOL    HW227762   3.532   0.780   5.300  0.5858 -2.1083  2.1731
 8955SOL     OW27763   2.008   2.848   4.194  0.0170 -0.1774  0.1478
 8955SOL    HW127764   2.092   2.851   4.139  0.1547  1.8846  0.3689
 8955SOL    HW227765   1.939   2.794   4.147  0.8765 -0.3785 -0.9303
 8956SOL     OW27766   1.116   1.028   3.666  0.0213 -0.4361  0.5426
 8956SOL    HW127767   1.167   1.094   3.721  1.3621 -1.1182  0.1697
 8956SOL    HW227768   1.020   1.057   3.659  0.5295  1.3795  0.5262
 8957SOL     OW27769   3.947   6.590   1.439  0.0621 -0.1926  0.2001
 8957SOL    HW127770   3.966   6.687   1.449  1.1539 -0.2677 -0.9332
 8957SOL    HW227771   3.920   6.552   1.527  0.8037  0.8809  0.9116
 8958SOL     OW27772   3.443   1.135   6.805 -0.3907 -0.9163 -0.1834
 8958SOL    HW127773   3.355   1.109   6.845 -0.4489  1.5820  1.5245
 8958SOL    HW227774   3.517   1.102   6.864 -0.3828  0.4273  0.6074
 8959SOL     OW27775   4.775   6.129   4.438 -0.3129  0.7009  0.6720
 8959SOL    HW127776   4.729   6.218   4.439 -1.4792  0.1129  0.1696
 8959SOL    HW227777   4.756   6.081   4.524  0.4605  0.9878  1.0174
 8960SOL     OW27778   2.855   6.229   0.489 -0.2034 -0.1010  0.1501
 8960SOL    HW127779   2.921   6.185   0.428  0.5106  0.3605  0.5678
 8960SOL    HW227780   2.829   6.318   0.452 -0.7234 -0.3561 -0.0988
 8961SOL     OW27781   5.826   4.114   5.342  0.2530  0.0445  0.2887
 8961SOL    HW127782   5.747   4.120   5.403  1.1525  2.3551  1.3220
 8961SOL    HW227783   5.821   4.186   5.273  0.3947 -1.1554 -1.0388
 8962SOL     OW27784   4.057   0.993   5.529 -1.1430  0.1747  0.5166
 8962SOL    HW127785   3.964   0.983   5.493 -1.1957  2.1755 -0.0173
 8962SOL    HW227786   4.063   1.074   5.586 -0.0376 -0.7167  1.7414
 8963SOL     OW27787   1.112   0.328   2.511  0.1320  0.1334  0.3468
 8963SOL    HW127788   1.021   0.301   2.480 -0.0903  0.6009  0.5834
 8963SOL    HW227789   1.106   0.413   2.562  1.1070  2.0000 -2.4015
 8964SOL     OW27790   1.185   1.127   3.417  0.3183  0.2550  0.5815
 8964SOL    HW127791   1.156   1.075   3.497  0.4397  0.9715  1.1040
 8964SOL    HW227792   1.208   1.220   3.444 -0.1150  0.6586 -0.3611
 8965SOL     OW27793   1.422   5.063   6.883 -0.5971 -0.4293  0.2798
 8965SOL    HW127794   1.448   5.099   6.794 -1.5534  0.7257  0.4497
 8965SOL    HW227795   1.498   5.076   6.947 -0.2645 -0.3799 -0.1216
 8966SOL     OW27796   3.086   2.039   5.168 -0.5396 -0.4209 -0.1367
 8966SOL    HW127797   3.004   2.009   5.120 -1.1154  0.5351  0.2338
 8966SOL    HW227798   3.114   2.128   5.135 -0.9641  0.2727  1.2786
 8967SOL     OW27799   5.823   0.513   0.442 -0.8219 -0.4396 -0.3366
 8967SOL    HW127800   5.727   0.486   0.438 -0.6670 -0.8970 -1.3617
 8967SOL    HW227801   5.869   0.484   0.358  0.5260 -1.3840  0.6893
 8968SOL     OW27802   6.707   4.153   4.758 -0.2331  0.3546 -0.0754
 8968SOL    HW127803   6.780   4.155   4.826 -0.6675  3.7592  0.4947
 8968SOL    HW227804   6.746   4.161   4.667  0.2067 -1.3637 -0.0690
 8969SOL     OW27805   0.618   1.423   3.572  0.3562  0.2438 -0.0604
 8969SOL    HW127806   0.519   1.427   3.556  0.4867  1.8602 -0.5575
 8969SOL    HW227807   0.662   1.503   3.532  2.0717 -1.1580 -1.0872
 8970SOL     OW27808   3.071   4.906   0.270 -0.2159  0.3442  0.4514
 8970SOL    HW127809   2.993   4.846   0.248  1.6822 -2.1776  0.1458
 8970SOL    HW227810   3.155   4.866   0.232  1.4170  2.3509  1.7734
 8971SOL     OW27811   3.813   0.264   0.844  0.7214 -0.5104 -0.6649
 8971SOL    HW127812   3.886   0.321   0.881 -0.3281  0.1391  0.4924
 8971SOL    HW227813   3.762   0.222   0.919 -1.6583  1.0779 -1.2568
 8972SOL     OW27814   4.945   6.435   5.626  0.2776 -1.0674  0.2104
 8972SOL    HW127815   4.859   6.481   5.644  0.9339  0.7322 -1.0161
 8972SOL    HW227816   5.015   6.467   5.690  0.6068 -0.7126 -0.3159
 8973SOL     OW27817   1.756   4.508   0.206  0.4408 -0.0158 -0.3216
 8973SOL    HW127818   1.658   4.503   0.222  0.6478 -1.3187  0.7280
 8973SOL    HW227819   1.786   4.427   0.156  1.1851 -0.3355  0.6148
 8974SOL     OW27820   0.632   2.660   2.538 -0.5756  0.7653 -0.5066
 8974SOL    HW127821   0.690   2.579   2.540 -0.3644  0.8124 -2.5886
 8974SOL    HW227822   0.667   2.728   2.603  0.8353  0.2176 -0.6501
 8975SOL     OW27823   4.827   6.804   5.684 -0.1559  0.1888 -0.8377
 8975SOL    HW127824   4.921   6.795   5.717 -0.7043 -0.3471  0.6878
 8975SOL    HW227825   4.792   6.895   5.705  0.5438  0.9772 -2.9185
 8976SOL     OW27826   1.210   6.977   3.940 -0.3703 -0.0135  0.1937
 8976SOL    HW127827   1.228   7.051   3.875  0.9121 -0.2453  0.2582
 8976SOL    HW227828   1.263   6.896   3.914 -0.3286 -0.3110  1.1747
 8977SOL     OW27829   5.192   4.009   1.413 -0.5490 -0.0059 -0.4190
 8977SOL    HW127830   5.143   4.058   1.485  1.3117  0.3281  0.6799
 8977SOL    HW227831   5.243   3.933   1.454 -0.2249 -0.4100 -1.5355
 8978SOL     OW27832   4.606   5.017   2.885 -0.2697  0.0084 -0.2252
 8978SOL    HW127833   4.621   5.050   2.978  0.0515 -0.1284 -0.2258
 8978SOL    HW227834   4.511   5.032   2.859 -1.0096 -2.0878  0.9850
 8979SOL     OW27835   0.884   3.890   4.454 -0.5740  0.3444 -0.3204
 8979SOL    HW127836   0.827   3.825   4.404  0.3729 -1.1555  0.4755
 8979SOL    HW227837   0.891   3.861   4.550 -0.2609  1.7395  0.1047
 8980SOL     OW27838   3.744   3.482   3.610  0.5107  0.1070 -0.1385
 8980SOL    HW127839   3.728   3.407   3.674  0.9995  0.6868  0.6875
 8980SOL    HW227840   3.673   3.552   3.624  2.2401  1.5874  1.8703
 8981SOL     OW27841   3.873   2.919   4.957 -0.0960 -0.0686  0.7038
 8981SOL    HW127842   3.910   2.828   4.976  0.6734  0.0630 -0.1064
 8981SOL    HW227843   3.787   2.931   5.008 -0.0550 -1.1254  1.0540
 8982SOL     OW27844   4.484   3.548   6.904  0.4502 -0.6366 -0.4555
 8982SOL    HW127845   4.458   3.578   6.995 -0.3347  0.4334 -1.0184
 8982SOL    HW227846   4.564   3.599   6.873  1.5758 -1.9635  0.1545
 8983SOL     OW27847   4.185   5.156   2.085  0.0626 -0.0714  0.2882
 8983SOL    HW127848   4.242   5.074   2.077  0.1481  0.0419 -0.3548
 8983SOL    HW227849   4.231   5.223   2.145  1.2361  0.5164 -1.1891
 8984SOL     OW27850   0.915   5.279   2.596  0.0567 -0.2192  0.3216
 8984SOL    HW127851   0.869   5.350   2.649  1.5727  0.1868  1.1674
 8984SOL    HW227852   0.864   5.261   2.512 -2.6534 -1.1523  2.0265
 8985SOL     OW27853   3.544   3.482   0.130  0.2098 -0.0086 -0.2825
 8985SOL    HW127854   3.577   3.552   0.066  2.1476 -2.4485 -2.1998
 8985SOL    HW227855   3.605   3.476   0.208 -1.4283  2.0845  1.2735
 8986SOL     OW27856   2.264   6.504   3.267  0.2458 -0.3969 -0.2796
 8986SOL    HW127857   2.295   6.599   3.266 -0.1916 -0.2355  0.5146
 8986SOL    HW227858   2.181   6.497   3.324 -0.4821 -1.0167 -1.3831
 8987SOL     OW27859   6.758   6.373   1.325 -0.3586 -0.5210  0.5888
 8987SOL    HW127860   6.726   6.279   1.311 -1.0833  0.0431 -2.2673
 8987SOL    HW227861   6.681   6.430   1.355 -0.7097 -0.2963 -0.6591
 8988SOL     OW27862   0.196   4.393   5.325  0.2484 -0.5152  0.7111
 8988SOL    HW127863   0.271   4.422   5.385 -0.4713 -3.9071  3.5654
 8988SOL    HW227864   0.233   4.362   5.238  1.6273  1.8604  0.3608
 8989SOL     OW27865   3.027   3.061   6.700  0.0201  0.0905 -0.2488
 8989SOL    HW127866   3.115   3.015   6.709 -0.8824 -1.6251  0.2781
 8989SOL    HW227867   3.019   3.100   6.608  0.3700 -1.8445 -1.1393
 8990SOL     OW27868   0.314   4.807   4.987  0.0128  0.1327  0.8303
 8990SOL    HW127869   0.383   4.737   5.006 -1.3877 -1.7974 -0.7538
 8990SOL    HW227870   0.240   4.800   5.055 -0.4309 -0.3983  0.3081
 8991SOL     OW27871   1.942   2.106   4.979 -0.8270  0.5349 -0.2603
 8991SOL    HW127872   1.874   2.094   4.907  0.3655  1.5083 -1.5947
 8991SOL    HW227873   1.939   2.200   5.013 -0.8612  0.2915  0.4333
 8992SOL     OW27874   5.747   6.206   1.950 -0.3386  0.4594  0.1177
 8992SOL    HW127875   5.830   6.240   1.995 -0.3921  1.1594 -0.2934
 8992SOL    HW227876   5.751   6.106   1.945 -0.0727  0.4033  1.1559
 8993SOL     OW27877   3.415   3.510   6.839 -0.6702  0.0808  0.0342
 8993SOL    HW127878   3.382   3.420   6.870 -1.3002  0.2809 -0.0476
 8993SOL    HW227879   3.350   3.580   6.866 -0.5585  0.4228 -0.5747
 8994SOL     OW27880   0.909   5.082   1.811  0.7563  0.5580  0.3366
 8994SOL    HW127881   0.911   4.986   1.783  0.1552  1.2503 -2.3843
 8994SOL    HW227882   0.979   5.097   1.880  1.0080 -1.7829  0.7017
 8995SOL     OW27883   0.219   1.225   0.500 -0.2604  0.7812 -0.3788
 8995SOL    HW127884   0.211   1.296   0.570 -1.8179  0.2914 -0.0020
 8995SOL    HW227885   0.257   1.264   0.416 -0.1443  1.8162  0.1401
 8996SOL     OW27886   6.448   4.728   6.991 -0.9264  0.4092 -0.3288
 8996SOL    HW127887   6.400   4.797   7.045  0.8964  0.7450  0.9567
 8996SOL    HW227888   6.501   4.670   7.052 -0.2887 -0.4064 -1.6292
 8997SOL     OW27889   6.396   5.975   4.836  0.1895 -0.1490 -0.2477
 8997SOL    HW127890   6.425   5.942   4.926  1.3305 -0.2769 -0.6482
 8997SOL    HW227891   6.321   6.041   4.848  0.5909  0.1397  0.8199
 8998SOL     OW27892   6.647   2.849   4.977 -0.3233 -0.5358  0.4471
 8998SOL    HW127893   6.603   2.839   5.066  0.1882  2.0825  1.0714
 8998SOL    HW227894   6.673   2.759   4.943 -2.0072 -1.7544  2.1529
 8999SOL     OW27895   5.846   0.328   6.483 -0.0475 -0.0317 -0.3959
 8999SOL    HW127896   5.941   0.356   6.492  0.2828 -0.8502 -1.1922
 8999SOL    HW227897   5.790   0.379   6.549  0.8022  1.0459 -0.4803
 9000SOL     OW27898   2.075   3.241   3.947 -0.4781  0.5600  0.2366
 9000SOL    HW127899   2.125   3.231   4.034 -0.7178  0.1667  0.3350
 9000SOL    HW227900   1.990   3.188   3.952 -1.3650  1.9592  0.4114
 9001SOL     OW27901   1.718   5.660   1.297 -0.4540 -0.2128  0.3323
 9001SOL    HW127902   1.627   5.695   1.321 -0.5852 -0.3845  0.0874
 9001SOL    HW227903   1.753   5.603   1.372  0.1941  1.2395  1.1809
 9002SOL     OW27904   6.932   5.683   6.305 -0.0652  0.1116  0.8499
 9002SOL    HW127905   6.874   5.617   6.256 -0.2049  0.2258  0.8615
 9002SOL    HW227906   6.886   5.711   6.389  0.7289 -1.0738  1.7255
 9003SOL     OW27907   5.432   0.468   0.623  0.0262  0.1297  0.0123
 9003SOL    HW127908   5.464   0.506   0.710 -1.0319  1.5050 -0.1688
 9003SOL    HW227909   5.336   0.494   0.608 -0.6995 -2.3897 -0.2747
 9004SOL     OW27910   6.303   0.226   1.148 -0.5553  0.0190  0.5165
 9004SOL    HW127911   6.391   0.186   1.174 -0.2979  0.9093  1.0502
 9004SOL    HW227912   6.310   0.264   1.056 -0.0117  1.1045  0.9808
 9005SOL     OW27913   3.486   1.286   5.435  0.1094  0.1825 -0.2191
 9005SOL    HW127914   3.498   1.245   5.526 -0.0310  2.1440  0.7339
 9005SOL    HW227915   3.498   1.385   5.441  1.0123  0.2793 -2.5297
 9006SOL     OW27916   4.817   5.193   6.979 -0.3299  0.0265 -0.4627
 9006SOL    HW127917   4.865   5.219   6.896 -2.4387  2.5377 -1.0090
 9006SOL    HW227918   4.826   5.094   6.993 -0.4866 -0.6294 -4.0594
 9007SOL     OW27919   6.493   0.296   3.986  0.1717 -0.3925  0.1175
 9007SOL    HW127920   6.559   0.241   3.936 -0.5997 -0.7797 -0.4972
 9007SOL    HW227921   6.531   0.387   4.003  0.8139 -0.5741 -0.3134
 9008SOL     OW27922   0.436   4.027   2.570  0.0010 -0.2482 -0.3210
 9008SOL    HW127923   0.387   4.114   2.564 -1.9003 -1.2617 -0.5360
 9008SOL    HW227924   0.460   3.995   2.479  1.8490  0.6297 -0.1708
 9009SOL     OW27925   2.908   1.572   0.981  0.3628  0.5614 -0.0527
 9009SOL    HW127926   2.884   1.584   0.884 -1.5749 -0.7263  0.2183
 9009SOL    HW227927   2.835   1.522   1.027  1.2404  1.1869  2.1133
 9010SOL     OW27928   1.362   4.495   3.558  0.3517 -0.5569  0.6174
 9010SOL    HW127929   1.271   4.483   3.517  1.2199 -0.6330 -1.4264
 9010SOL    HW227930   1.387   4.411   3.607 -0.3258 -0.8852  0.4170
 9011SOL     OW27931   3.478   2.103   2.757 -0.2402  0.5215 -0.1613
 9011SOL    HW127932   3.524   2.123   2.670 -0.6976 -4.0932 -1.7382
 9011SOL    HW227933   3.547   2.086   2.828  0.3422 -0.4697 -0.9388
 9012SOL     OW27934   1.811   0.226   6.103  0.0947  0.0675  0.0222
 9012SOL    HW127935   1.855   0.257   6.187 -2.4006  1.0790  1.0263
 9012SOL    HW227936   1.834   0.288   6.028  2.7862 -1.1469 -0.2785
 9013SOL     OW27937   4.009   1.259   4.666 -0.5060  0.2314  0.0826
 9013SOL    HW127938   4.078   1.300   4.725  0.4333  0.8403 -1.3714
 9013SOL    HW227939   3.937   1.326   4.645 -0.2677  0.3656 -0.3184
 9014SOL     OW27940   5.401   2.538   1.306 -0.1419 -0.6907  0.5730
 9014SOL    HW127941   5.450   2.576   1.384  0.8513  0.2429 -0.4598
 9014SOL    HW227942   5.423   2.441   1.295  4.0643  0.2922 -1.6181
 9015SOL     OW27943   3.909   5.248   5.631  0.1772 -0.3342  0.0941
 9015SOL    HW127944   3.891   5.183   5.705 -0.5456 -3.3196 -2.5382
 9015SOL    HW227945   4.008   5.255   5.616  0.2259 -1.8539 -0.4074
 9016SOL     OW27946   5.191   4.968   5.983  0.3310 -0.3121 -0.0375
 9016SOL    HW127947   5.159   4.876   6.005 -1.4918  0.2070 -0.4181
 9016SOL    HW227948   5.115   5.032   5.989  1.8178  1.4133  1.4539
 9017SOL     OW27949   4.321   5.601   6.009 -0.5912 -0.4275  0.1947
 9017SOL    HW127950   4.359   5.520   5.965  1.6523  1.3028 -1.2674
 9017SOL    HW227951   4.382   5.631   6.082  0.0768  1.4551 -1.0776
 9018SOL     OW27952   3.322   5.565   6.545  0.5987 -0.1059 -0.5937
 9018SOL    HW127953   3.389   5.636   6.523 -0.9816  0.9607 -2.2685
 9018SOL    HW227954   3.277   5.588   6.631  0.5814  0.5954 -0.7786
 9019SOL     OW27955   0.690   5.340   1.093  0.1056  0.5638 -0.1807
 9019SOL    HW127956   0.763   5.407   1.082  0.0804  0.6283  0.0340
 9019SOL    HW227957   0.645   5.354   1.181  0.5351 -0.1644  0.1585
 9020SOL     OW27958   5.412   5.568   3.499 -0.1612 -0.3025  0.7217
 9020SOL    HW127959   5.428   5.490   3.559 -0.6657 -1.2063 -0.2754
 9020SOL    HW227960   5.350   5.541   3.425  1.5629  0.3202 -1.0425
 9021SOL     OW27961   0.568   1.312   3.822 -0.3996  0.5703  0.2925
 9021SOL    HW127962   0.580   1.361   3.735  1.4672  0.3447  0.3800
 9021SOL    HW227963   0.646   1.250   3.836 -0.3237  1.0860  2.4545
 9022SOL     OW27964   2.553   2.428   5.803 -0.0834 -0.1245 -0.4560
 9022SOL    HW127965   2.510   2.444   5.892 -1.2262 -1.5853 -0.7085
 9022SOL    HW227966   2.638   2.377   5.816 -1.2645 -2.1537 -0.2732
 9023SOL     OW27967   1.761   6.292   1.614 -0.8179  0.9900  0.0313
 9023SOL    HW127968   1.829   6.354   1.575 -2.0995  1.8823 -0.8855
 9023SOL    HW227969   1.733   6.325   1.704  1.1640 -0.3360  1.2204
 9024SOL     OW27970   1.058   6.537   5.067  0.7227  0.3394  0.1186
 9024SOL    HW127971   1.004   6.606   5.019  0.2133 -0.8297 -1.0497
 9024SOL    HW227972   1.102   6.477   5.000  2.8851  0.7745  1.0469
 9025SOL     OW27973   1.916   0.626   0.653 -0.0176  0.0395 -0.6989
 9025SOL    HW127974   1.985   0.662   0.591  0.6761 -0.1607 -0.0605
 9025SOL    HW227975   1.886   0.536   0.621 -0.2762  0.2935 -1.1871
 9026SOL     OW27976   0.026   3.082   0.568  0.4954  0.2630  0.1176
 9026SOL    HW127977   0.035   3.010   0.637  2.9260  0.9747  0.6333
 9026SOL    HW227978  -0.038   3.053   0.497 -1.8869 -0.6270  2.4498
 9027SOL     OW27979   6.325   4.083   3.591  0.6852  0.2759 -0.0840
 9027SOL    HW127980   6.407   4.091   3.535 -0.0748 -0.4800 -1.3566
 9027SOL    HW227981   6.244   4.093   3.534 -0.2025  3.5327  1.5142
 9028SOL     OW27982   5.556   5.896   1.003 -0.4122  0.2748 -0.2783
 9028SOL    HW127983   5.526   5.829   0.935  2.3758 -0.5021 -0.8386
 9028SOL    HW227984   5.559   5.986   0.961 -2.7209  0.5801  0.0635
 9029SOL     OW27985   3.464   5.930   4.760  0.2703 -0.0882  0.2199
 9029SOL    HW127986   3.459   5.966   4.853  3.1203  1.2332  0.0016
 9029SOL    HW227987   3.392   5.971   4.704 -1.6889 -1.1586  1.8598
 9030SOL     OW27988   1.738   2.764   1.574  0.2683  0.7233  0.0038
 9030SOL    HW127989   1.730   2.759   1.674 -1.9859  2.0251 -0.0598
 9030SOL    HW227990   1.740   2.860   1.546 -0.6540  0.3840 -1.2955
 9031SOL     OW27991   6.568   5.332   5.442  0.8361 -0.2015  0.2844
 9031SOL    HW127992   6.667   5.313   5.441  0.5273 -1.9034 -0.6895
 9031SOL    HW227993   6.548   5.399   5.370  1.1658 -0.5162 -0.1096
 9032SOL     OW27994   3.157   2.148   2.462  0.2118 -0.1870  0.2120
 9032SOL    HW127995   3.105   2.198   2.532  1.4722 -0.9771  1.7933
 9032SOL    HW227996   3.241   2.198   2.440 -0.6350  0.5473 -1.5227
 9033SOL     OW27997   0.358   6.118   4.325  0.5237  0.3434  0.1279
 9033SOL    HW127998   0.284   6.080   4.380  1.0728  0.0151  0.6456
 9033SOL    HW227999   0.325   6.134   4.232 -0.1083 -0.0958  0.2690
 9034SOL     OW28000   5.046   6.569   4.849  0.8394  0.4375 -0.0142
 9034SOL    HW128001   5.027   6.640   4.916  2.1013  0.8669 -0.0940
 9034SOL    HW228002   5.132   6.523   4.872  1.7927  1.2103 -1.8340
 9035SOL     OW28003   2.065   4.807   5.945 -0.3522  0.0266 -0.1937
 9035SOL    HW128004   2.129   4.787   6.019 -0.0184  0.5083 -0.3493
 9035SOL    HW228005   2.002   4.880   5.974  0.3891  0.8969 -0.7150
 9036SOL     OW28006   6.636   5.473   3.534 -0.2521  0.0950 -0.1943
 9036SOL    HW128007   6.636   5.518   3.624  2.0054 -1.1275  0.4844
 9036SOL    HW228008   6.565   5.515   3.477 -1.7860  0.9195  2.1224
 9037SOL     OW28009   0.029   1.641   3.444 -0.1277  0.1823 -0.5423
 9037SOL    HW128010   0.126   1.654   3.424 -0.1733  0.6495 -0.4657
 9037SOL    HW228011   0.019   1.601   3.536 -0.0140  0.2477 -0.5014
 9038SOL     OW28012   4.068   3.476   4.828 -0.1061 -1.2187  0.0498
 9038SOL    HW128013   4.141   3.408   4.829 -0.9314 -2.1602 -1.1955
 9038SOL    HW228014   3.981   3.433   4.854 -0.2594 -0.1298  1.4554
 9039SOL     OW28015   4.066   0.362   5.851 -0.6790  0.2186  0.0235
 9039SOL    HW128016   3.971   0.361   5.881 -0.4126 -1.0291  0.9044
 9039SOL    HW228017   4.087   0.277   5.804  0.4302 -0.2549  1.3058
 9040SOL     OW28018   1.560   2.037   6.271 -0.5480  0.2173  0.3283
 9040SOL    HW128019   1.591   1.953   6.316 -1.4405 -0.5903 -0.5296
 9040SOL    HW228020   1.473   2.020   6.226 -0.4279  1.4414 -0.3907
 9041SOL     OW28021   5.255   3.765   2.453 -0.3972 -0.0115  0.3385
 9041SOL    HW128022   5.290   3.813   2.372  2.1029 -0.7497  0.8969
 9041SOL    HW228023   5.201   3.686   2.424 -0.3001  0.2513 -0.5954
 9042SOL     OW28024   5.080   4.143   6.382 -0.1491  0.3670 -0.1246
 9042SOL    HW128025   5.047   4.144   6.477  0.0707  2.2522 -0.0296
 9042SOL    HW228026   5.178   4.126   6.382 -0.3213 -0.7194 -0.1127
 9043SOL     OW28027   4.140   3.647   2.538  0.1885  0.0826  0.0529
 9043SOL    HW128028   4.157   3.613   2.445  1.3890 -1.8214  0.9073
 9043SOL    HW228029   4.153   3.573   2.604 -2.3223  0.9229  1.6602
 9044SOL     OW28030   0.892   1.710   6.714 -0.6564  0.2926  0.4083
 9044SOL    HW128031   0.948   1.789   6.690 -0.9835  0.6446  0.7695
 9044SOL    HW228032   0.951   1.632   6.734 -0.0594  1.3625  3.4455
 9045SOL     OW28033   3.154   0.533   5.062 -0.4449  0.5314  0.5502
 9045SOL    HW128034   3.126   0.629   5.067  0.5867  0.7991  2.7365
 9045SOL    HW228035   3.254   0.528   5.067 -0.3896 -0.6280 -1.0319
 9046SOL     OW28036   2.585   2.700   1.316 -0.2926 -0.2771  0.3343
 9046SOL    HW128037   2.529   2.622   1.344  0.6699 -0.7459  0.9723
 9046SOL    HW228038   2.661   2.668   1.260 -0.0551  0.2416  0.3572
 9047SOL     OW28039   4.657   2.553   5.427  0.6510  0.6645  0.5529
 9047SOL    HW128040   4.693   2.473   5.378 -1.7554  0.8332 -1.7756
 9047SOL    HW228041   4.568   2.530   5.467  1.1350  1.4742  2.1576
 9048SOL     OW28042   0.785   1.663   4.886 -0.2501  0.2159 -0.1055
 9048SOL    HW128043   0.795   1.721   4.806 -0.0360 -0.5164 -0.6230
 9048SOL    HW228044   0.869   1.664   4.940 -0.9707  2.0909  1.0924
 9049SOL     OW28045   6.015   6.695   5.717  0.3373  0.8588  0.6170
 9049SOL    HW128046   5.981   6.683   5.811  1.5965  1.9007  1.2346
 9049SOL    HW228047   6.012   6.607   5.670 -1.0931  0.4774  1.3514
 9050SOL     OW28048   2.122   4.348   6.677 -0.0417 -0.2925 -0.4614
 9050SOL    HW128049   2.188   4.410   6.720 -1.0220  2.3268 -2.4007
 9050SOL    HW228050   2.151   4.254   6.690  3.4093  0.6627 -0.1899
 9051SOL     OW28051   0.758   0.746   0.388  0.3223 -0.0169  0.0228
 9051SOL    HW128052   0.684   0.707   0.443 -0.5996  1.6351  0.0012
 9051SOL    HW228053   0.781   0.682   0.314 -3.4583  0.7528 -2.1040
 9052SOL     OW28054   2.483   4.070   6.493  0.1376 -0.2605  0.0943
 9052SOL    HW128055   2.464   3.988   6.546 -1.2783 -2.2298 -3.1192
 9052SOL    HW228056   2.450   4.150   6.543 -1.1920 -1.9451  2.1095
 9053SOL     OW28057   0.460   0.274   0.787 -0.1629  0.3902  0.5014
 9053SOL    HW128058   0.516   0.338   0.734  2.0278 -0.4364  1.7465
 9053SOL    HW228059   0.501   0.258   0.876 -1.8624 -1.0725  1.0907
 9054SOL     OW28060   1.726   5.096   4.304  0.7779 -0.3671 -0.1687
 9054SOL    HW128061   1.634   5.095   4.265  0.9160 -2.1666 -0.5423
 9054SOL    HW228062   1.781   5.166   4.259  0.3948 -1.1628 -1.9523
 9055SOL     OW28063   7.013   3.330   0.258 -0.3323  0.4488  0.3355
 9055SOL    HW128064   6.980   3.246   0.216  0.1077 -0.3832  1.6139
 9055SOL    HW228065   7.112   3.324   0.269 -0.3051  1.1247  0.4912
 9056SOL     OW28066   4.500   1.474   3.803  0.0651 -0.3320  0.2907
 9056SOL    HW128067   4.540   1.404   3.862 -1.4195 -0.8381  0.7554
 9056SOL    HW228068   4.401   1.479   3.819 -0.9600 -2.2706 -3.8410
 9057SOL     OW28069   6.218   1.091   3.925 -0.4610 -0.0266 -0.4133
 9057SOL    HW128070   6.184   1.007   3.881  0.1861  0.3657 -1.6885
 9057SOL    HW228071   6.150   1.123   3.991  0.8460 -3.7586  3.2247
 9058SOL     OW28072   1.131   1.413   4.965 -0.8385 -0.6829  0.4856
 9058SOL    HW128073   1.123   1.490   5.028  1.3692 -0.6018  0.7206
 9058SOL    HW228074   1.086   1.437   4.879  0.5852  1.2631  0.2151
 9059SOL     OW28075   2.107   1.623   4.555  0.7540 -0.4518  0.5989
 9059SOL    HW128076   2.143   1.628   4.648 -0.4433  0.5925  1.0287
 9059SOL    HW228077   2.145   1.699   4.501  0.3974 -0.2575  0.6207
 9060SOL     OW28078   6.096   1.109   5.734 -0.0041 -0.5477  0.2265
 9060SOL    HW128079   6.072   1.067   5.821 -0.4615 -1.7808 -0.4562
 9060SOL    HW228080   6.192   1.090   5.713  0.1061 -0.2500  0.4598
 9061SOL     OW28081   1.980   4.845   2.857 -0.5090  0.2761  0.1525
 9061SOL    HW128082   2.068   4.892   2.869 -0.6339  0.5378  0.0487
 9061SOL    HW228083   1.991   4.748   2.879 -0.3945  0.4666  0.9598
 9062SOL     OW28084   1.250   6.473   0.346 -0.4468 -0.3450 -0.2035
 9062SOL    HW128085   1.288   6.478   0.254  0.5296  1.1919  0.2540
 9062SOL    HW228086   1.324   6.470   0.413 -1.1332  0.1348  0.5982
 9063SOL     OW28087   2.172   6.677   1.467 -0.4801  0.1841 -0.2324
 9063SOL    HW128088   2.256   6.628   1.445 -1.3425 -1.2293 -0.4694
 9063SOL    HW228089   2.175   6.706   1.563  0.9533  1.5943 -0.6659
 9064SOL     OW28090   3.600   5.325   0.441 -0.0307  0.0353  0.3213
 9064SOL    HW128091   3.636   5.388   0.372 -0.1977 -0.4382 -0.2122
 9064SOL    HW228092   3.674   5.297   0.502  0.2788 -0.0976 -0.1084
 9065SOL     OW28093   2.907   1.918   5.862 -0.2391 -0.0836  0.3231
 9065SOL    HW128094   2.883   1.973   5.783 -0.5005 -2.4389 -1.3550
 9065SOL    HW228095   2.995   1.872   5.846  0.5068  0.6223  2.1182
 9066SOL     OW28096   6.695   4.247   2.325  0.1573 -0.1150 -0.4928
 9066SOL    HW128097   6.769   4.218   2.385  0.8478 -0.5800 -1.5484
 9066SOL    HW228098   6.705   4.345   2.305  0.0208  0.0030  0.0040
 9067SOL     OW28099   6.466   0.059   1.314 -0.1088  0.3131 -0.6142
 9067SOL    HW128100   6.486   0.105   1.400  1.5777 -1.2321 -0.1287
 9067SOL    HW228101   6.390  -0.005   1.328 -0.8977  1.1898 -0.7191
 9068SOL     OW28102   0.347   4.764   0.738  0.0319  0.1401 -0.0557
 9068SOL    HW128103   0.426   4.728   0.688  2.5648  3.2356  1.3733
 9068SOL    HW228104   0.355   4.739   0.835 -1.4329 -0.5084 -0.0857
 9069SOL     OW28105   0.475   2.730   4.193 -0.2646  0.0438 -0.3999
 9069SOL    HW128106   0.409   2.659   4.216 -0.6164  0.2886 -0.6573
 9069SOL    HW228107   0.487   2.791   4.272 -0.9312  0.4566 -0.6090
 9070SOL     OW28108   1.683   3.477   2.887  0.3478  0.0775  0.4243
 9070SOL    HW128109   1.686   3.377   2.884 -1.0935  0.0277 -1.8279
 9070SOL    HW228110   1.628   3.506   2.966  0.9498 -0.8647  1.2155
 9071SOL     OW28111   4.169   5.044   6.982 -0.2559  0.1414  0.4210
 9071SOL    HW128112   4.176   4.972   6.914  1.4402  1.0775 -0.4671
 9071SOL    HW228113   4.094   5.106   6.959 -1.1126 -0.7749  0.6747
 9072SOL     OW28114   4.584   2.615   6.940 -0.2444  0.1986 -0.3103
 9072SOL    HW128115   4.632   2.531   6.918  0.4062  0.0173  1.6520
 9072SOL    HW228116   4.591   2.679   6.863  0.5781 -0.9412 -1.2064
 9073SOL     OW28117   0.660   6.259   2.026 -0.1172  0.4019  0.5810
 9073SOL    HW128118   0.593   6.316   1.980 -1.2764 -0.1079  1.5749
 9073SOL    HW228119   0.713   6.208   1.959 -2.4466 -1.1227 -0.2386
 9074SOL     OW28120   0.355   5.906   0.403 -0.2424 -0.5066  0.0871
 9074SOL    HW128121   0.427   5.852   0.446 -1.1166 -1.1333  0.8019
 9074SOL    HW228122   0.299   5.847   0.345 -0.3989 -0.0923 -0.1944
 9075SOL     OW28123   5.827   0.780   1.374 -0.5985 -0.0160  0.1660
 9075SOL    HW128124   5.759   0.709   1.395  0.0345 -1.2664 -1.7770
 9075SOL    HW228125   5.781   0.862   1.341 -1.2717  0.0063  1.1238
 9076SOL     OW28126   2.106   2.542   5.086  0.1953  0.1475  0.5554
 9076SOL    HW128127   2.127   2.533   5.184  1.4893 -1.7006  0.1625
 9076SOL    HW228128   2.165   2.481   5.034 -3.1054 -1.8876 -1.1105
 9077SOL     OW28129   3.975   5.095   1.757  0.3277 -0.1811  0.2573
 9077SOL    HW128130   3.984   5.155   1.836 -0.6570 -2.6302  2.4075
 9077SOL    HW228131   3.878   5.086   1.732  0.5350 -0.2612 -0.5642
 9078SOL     OW28132   4.861   3.138   3.979 -0.0552  0.1021  0.5468
 9078SOL    HW128133   4.875   3.237   3.970  1.5009 -0.0764  0.6072
 9078SOL    HW228134   4.845   3.116   4.075  0.6704  0.2046  0.7030
 9079SOL     OW28135   0.146   3.222   4.621 -0.4342  0.4071  0.2550
 9079SOL    HW128136   0.079   3.153   4.648  1.2245 -1.5019 -0.2589
 9079SOL    HW228137   0.152   3.226   4.522  1.1051 -0.4177  0.2858
 9080SOL     OW28138   4.750   1.149   0.689  0.0544 -0.3184 -0.6866
 9080SOL    HW128139   4.844   1.181   0.684  0.9864 -2.2327  2.1311
 9080SOL    HW228140   4.748   1.049   0.688 -1.5355 -0.4536  2.4769
 9081SOL     OW28141   5.304   6.591   4.654 -0.2262 -0.4887  0.6730
 9081SOL    HW128142   5.338   6.541   4.734 -0.1142  1.3022  1.7964
 9081SOL    HW228143   5.270   6.681   4.682 -0.8799 -0.0974 -1.2053
 9082SOL     OW28144   4.054   0.834   2.690  0.4633  0.1156 -0.3803
 9082SOL    HW128145   4.113   0.841   2.609  1.6299  0.2423  0.4568
 9082SOL    HW228146   4.047   0.738   2.718 -0.8805 -0.0702 -1.2907
 9083SOL     OW28147   4.758   5.224   3.810 -0.4706  0.4553 -0.2254
 9083SOL    HW128148   4.750   5.278   3.726  0.2640  1.0982  0.1076
 9083SOL    HW228149   4.696   5.261   3.879  1.0602  1.8171  0.4754
 9084SOL     OW28150   2.874   3.847   1.690 -0.4288  0.1347 -0.3907
 9084SOL    HW128151   2.854   3.754   1.719 -0.1996  0.5153  1.0863
 9084SOL    HW228152   2.895   3.903   1.771 -1.9181  1.8021 -1.1095
 9085SOL     OW28153   3.014   3.076   0.743  0.2375 -0.0624  0.0083
 9085SOL    HW128154   3.036   3.163   0.698 -0.6268  0.1270 -0.0707
 9085SOL    HW228155   3.095   3.018   0.744  0.6307  0.4529 -0.6078
 9086SOL     OW28156   6.778   3.509   6.610 -0.6208  0.3411 -0.0602
 9086SOL    HW128157   6.852   3.493   6.675 -0.4191 -1.0960 -0.6015
 9086SOL    HW228158   6.717   3.580   6.645 -0.0072  0.2457  1.2424
 9087SOL     OW28159   5.038   2.088   3.101 -0.4020 -0.5592  0.3623
 9087SOL    HW128160   4.969   2.145   3.146  0.1263 -0.7502  1.4437
 9087SOL    HW228161   5.109   2.063   3.167 -1.5095 -3.9926  0.4597
 9088SOL     OW28162   4.697   6.653   3.192  0.5558  0.4572 -0.1939
 9088SOL    HW128163   4.650   6.618   3.273  0.8700 -0.2823 -0.3251
 9088SOL    HW228164   4.638   6.721   3.147  0.2508  0.6477  0.4703
 9089SOL     OW28165   5.046   1.155   4.563 -0.2400  0.5249 -0.4305
 9089SOL    HW128166   5.138   1.190   4.547 -0.1596  0.4003 -0.2526
 9089SOL    HW228167   5.015   1.105   4.482 -0.8258  1.9974 -1.1430
 9090SOL     OW28168   5.100   3.407   4.358 -0.1856  0.4432  0.4125
 9090SOL    HW128169   5.135   3.454   4.439 -1.7996 -0.6156  1.8125
 9090SOL    HW228170   5.172   3.350   4.318  1.1181  2.2689  0.0560
 9091SOL     OW28171   4.834   3.881   5.180 -0.0883 -0.0910 -0.7652
 9091SOL    HW128172   4.815   3.799   5.126 -3.7260  0.1539 -0.1441
 9091SOL    HW228173   4.831   3.857   5.277 -1.4227  0.7847 -0.5760
 9092SOL     OW28174   1.037   3.747   1.211  0.3964 -0.2317  0.2499
 9092SOL    HW128175   1.071   3.659   1.178 -0.2152 -0.2148 -0.4335
 9092SOL    HW228176   0.969   3.731   1.282 -2.3008 -0.4813 -2.2106
 9093SOL     OW28177   0.837   5.436   2.995  0.4062 -0.4151 -0.1925
 9093SOL    HW128178   0.797   5.459   2.906 -0.9654 -0.1714  0.4553
 9093SOL    HW228179   0.799   5.349   3.026  0.4059 -0.1964  0.4298
 9094SOL     OW28180   0.685   2.152   0.848 -0.7413 -0.3459 -0.0432
 9094SOL    HW128181   0.751   2.113   0.912  0.3563  0.4473 -0.6708
 9094SOL    HW228182   0.660   2.082   0.780 -1.0834 -0.8514  0.5878
 9095SOL     OW28183   2.473   0.652   4.339  0.0135 -0.7927 -0.1371
 9095SOL    HW128184   2.442   0.688   4.428  2.5584  0.1713  0.4308
 9095SOL    HW228185   2.403   0.671   4.270 -2.2518 -1.9541  1.6665
 9096SOL     OW28186   5.977   5.401   4.524 -0.8218 -0.7494  0.5104
 9096SOL    HW128187   6.066   5.411   4.480 -1.1444  0.5897  0.1179
 9096SOL    HW228188   5.951   5.304   4.525  0.2688 -1.0616 -0.0952
 9097SOL     OW28189   1.143   3.743   1.798 -0.0650 -0.3192  0.1125
 9097SOL    HW128190   1.221   3.732   1.737 -0.8078 -1.6197 -0.6479
 9097SOL    HW228191   1.075   3.673   1.779 -2.2252  1.7718 -0.4180
 9098SOL     OW28192   1.534   5.498   4.196  0.0659  0.0138 -0.2459
 9098SOL    HW128193   1.537   5.542   4.107  1.1624 -1.2606 -0.8736
 9098SOL    HW228194   1.620   5.516   4.245  0.2545 -0.8468 -0.2410
 9099SOL     OW28195   2.099   0.629   5.121 -0.5508  0.4707  0.4119
 9099SOL    HW128196   2.005   0.663   5.125 -1.2738 -1.3795 -0.2304
 9099SOL    HW228197   2.150   0.665   5.199 -1.7991  1.4484  0.8105
 9100SOL     OW28198   1.854   5.554   3.692 -0.2835 -0.1946 -0.2820
 9100SOL    HW128199   1.889   5.461   3.707 -1.0450 -0.4720 -0.1691
 9100SOL    HW228200   1.843   5.570   3.594  1.4132  0.3803 -0.4068
 9101SOL     OW28201   1.249   1.993   0.705  0.0158  0.1709  0.2931
 9101SOL    HW128202   1.269   2.001   0.608 -0.3438  0.2553  0.2270
 9101SOL    HW228203   1.150   1.996   0.720  0.0514 -0.1418  0.6314
 9102SOL     OW28204   2.778   0.133   3.906  0.4244 -0.1145 -0.8371
 9102SOL    HW128205   2.817   0.042   3.918 -0.7056 -0.7305 -1.6614
 9102SOL    HW228206   2.721   0.135   3.824  0.3724  1.3192 -0.7944
 9103SOL     OW28207   5.519   2.813   2.335 -0.6996  0.2685  0.0734
 9103SOL    HW128208   5.557   2.880   2.270 -0.1146 -0.8775 -0.8038
 9103SOL    HW228209   5.419   2.815   2.330 -0.6984  1.1828  0.1871
 9104SOL     OW28210   4.284   2.372   6.126  0.2648  0.5136 -0.2425
 9104SOL    HW128211   4.344   2.406   6.199  0.5278 -1.4075  0.5163
 9104SOL    HW228212   4.330   2.382   6.038  1.1556  0.2804  0.1851
 9105SOL     OW28213   2.601   5.427   6.626 -0.1208  0.4446 -0.2167
 9105SOL    HW128214   2.585   5.337   6.585 -2.2666  0.3754  0.6396
 9105SOL    HW228215   2.633   5.490   6.555 -0.4768 -0.5142 -1.2710
 9106SOL     OW28216   2.592   2.193   0.137 -0.2866 -0.0678 -0.0149
 9106SOL    HW128217   2.550   2.213   0.049 -1.7330 -1.3573  0.3299
 9106SOL    HW228218   2.576   2.269   0.200 -0.9887  0.0111 -0.2794
 9107SOL     OW28219   4.845   1.171   2.296 -0.2000 -0.2335  0.1202
 9107SOL    HW128220   4.940   1.145   2.277 -0.2088  0.8112 -1.5056
 9107SOL    HW228221   4.784   1.111   2.244 -0.3651  0.3111 -0.3139
 9108SOL     OW28222   5.531   6.968   5.025 -0.3102 -0.2900  0.0541
 9108SOL    HW128223   5.584   6.931   5.101 -0.3144 -1.1491 -0.3522
 9108SOL    HW228224   5.573   7.054   4.994  1.0523 -1.1106 -0.4697
 9109SOL     OW28225   5.447   4.399   3.106 -0.2203 -0.3726  0.0970
 9109SOL    HW128226   5.498   4.400   3.191 -0.5289 -2.8097  0.3764
 9109SOL    HW228227   5.438   4.305   3.073  3.2129  0.5908 -4.7003
 9110SOL     OW28228   0.351   5.554   2.848  0.5458 -0.1623 -0.5263
 9110SOL    HW128229   0.359   5.653   2.834  0.6432 -0.1553 -0.4236
 9110SOL    HW228230   0.276   5.536   2.912 -1.0409 -0.2960 -2.3330
 9111SOL     OW28231   4.804   2.468   5.166  0.0770  0.2585  0.9629
 9111SOL    HW128232   4.896   2.447   5.198  0.5796 -0.9210 -1.1020
 9111SOL    HW228233   4.808   2.544   5.101 -0.0498 -1.1672 -0.7810
 9112SOL     OW28234   1.809   4.020   0.222 -0.0740  0.3678  0.3588
 9112SOL    HW128235   1.761   4.096   0.179  1.0052  1.5912  1.2273
 9112SOL    HW228236   1.831   4.043   0.317  1.2019 -0.5947  0.3341
 9113SOL     OW28237   3.638   6.720   2.703  0.6086  0.0572  0.4067
 9113SOL    HW128238   3.735   6.739   2.685 -0.0375  3.3088 -0.3993
 9113SOL    HW228239   3.598   6.672   2.626  1.2215  0.2148 -0.0158
 9114SOL     OW28240   7.001   1.064   5.480 -1.2099 -0.7798  0.0983
 9114SOL    HW128241   6.916   1.036   5.523 -1.6737  0.6688  0.1746
 9114SOL    HW228242   7.077   1.047   5.543 -1.3463 -2.4935 -0.1407
 9115SOL     OW28243   4.202   5.022   4.351  0.1970  0.5305 -1.1968
 9115SOL    HW128244   4.222   4.949   4.285 -0.6536  0.1406 -1.0362
 9115SOL    HW228245   4.269   5.019   4.425 -0.2713 -0.5829 -0.7936
 9116SOL     OW28246   1.617   5.324   3.498 -0.0496 -0.0909  0.0333
 9116SOL    HW128247   1.663   5.249   3.545  0.4803  0.7810  0.9748
 9116SOL    HW228248   1.682   5.399   3.483 -0.3304 -0.1591 -1.7142
 9117SOL     OW28249   0.313   0.714   6.882 -0.1098  0.3683  0.4452
 9117SOL    HW128250   0.321   0.635   6.820  1.2717  1.2367 -0.5421
 9117SOL    HW228251   0.217   0.724   6.910 -0.5365 -0.8956 -0.4272
 9118SOL     OW28252   0.473   4.266   2.131 -0.1370  0.7795  0.1880
 9118SOL    HW128253   0.495   4.279   2.035  0.7631  3.7471  0.6785
 9118SOL    HW228254   0.381   4.227   2.139 -0.5330  1.1782 -1.8594
 9119SOL     OW28255   1.529   2.992   1.238  0.7962 -0.4225 -0.1165
 9119SOL    HW128256   1.611   3.017   1.186  0.6147  0.3630 -0.0314
 9119SOL    HW228257   1.508   3.064   1.305  1.0043 -1.4016  1.0305
 9120SOL     OW28258   6.525   5.399   6.457  0.8051  0.1668 -0.1411
 9120SOL    HW128259   6.512   5.303   6.433 -1.0533  0.8035 -1.9268
 9120SOL    HW228260   6.447   5.453   6.425  1.6445  2.2556  1.0884
 9121SOL     OW28261   4.736   6.896   5.059  0.1908  0.5415  0.3390
 9121SOL    HW128262   4.654   6.942   5.091 -0.5470 -0.1254 -0.5402
 9121SOL    HW228263   4.711   6.827   4.990  1.4744  0.2833  0.1069
 9122SOL     OW28264   5.577   2.112   5.805  0.2380  0.0688  0.0561
 9122SOL    HW128265   5.511   2.186   5.819  0.1881  0.3382 -1.4372
 9122SOL    HW228266   5.620   2.089   5.892  0.4184  2.0331  0.5429
 9123SOL     OW28267   2.353   5.734   4.112 -0.1535  0.3645 -0.1955
 9123SOL    HW128268   2.369   5.635   4.111  0.1344  0.4144 -1.4659
 9123SOL    HW228269   2.272   5.755   4.056 -0.8110  0.7635  0.8698
 9124SOL     OW28270   4.629   6.432   0.998 -0.1260 -0.4541  0.2309
 9124SOL    HW128271   4.538   6.463   0.972  0.3198  0.0183 -0.8393
 9124SOL    HW228272   4.652   6.465   1.089 -0.8287 -0.1714  0.3083
 9125SOL     OW28273   4.363   6.231   0.710  0.0315  0.0603  0.2417
 9125SOL    HW128274   4.362   6.194   0.617  0.4841  0.4670  0.0690
 9125SOL    HW228275   4.419   6.172   0.769  0.8851  0.5357 -0.0701
 9126SOL     OW28276   4.105   6.248   1.149 -0.0412  0.0570 -0.1192
 9126SOL    HW128277   4.144   6.164   1.113 -1.7928 -0.2061 -1.4881
 9126SOL    HW228278   4.063   6.300   1.076 -1.4841  0.7485  1.1419
 9127SOL     OW28279   6.411   3.321   5.605  0.1309  0.5599  0.6196
 9127SOL    HW128280   6.476   3.391   5.574 -0.6779  1.5165  1.0161
 9127SOL    HW228281   6.365   3.353   5.688 -1.1729  0.1067  0.0970
 9128SOL     OW28282   5.020   1.523   5.918 -0.0407 -0.4261 -0.5645
 9128SOL    HW128283   4.966   1.598   5.957  3.3767  2.3908 -0.7848
 9128SOL    HW228284   5.052   1.464   5.992 -3.2690 -2.2748 -0.4400
 9129SOL     OW28285   0.791   3.096   2.394  0.2115  0.7241  0.6153
 9129SOL    HW128286   0.814   3.189   2.423 -0.2313  1.1082 -0.2124
 9129SOL    HW228287   0.704   3.098   2.344  0.1973 -0.1372  0.6000
 9130SOL     OW28288   4.221   3.860   6.997  0.3311  0.6861 -0.1647
 9130SOL    HW128289   4.301   3.895   7.045  0.3514 -3.2875  3.2692
 9130SOL    HW228290   4.246   3.836   6.903  2.9265  0.4802  0.5074
 9131SOL     OW28291   0.813   2.133   1.237 -0.0014  0.0745  0.5182
 9131SOL    HW128292   0.857   2.045   1.256 -0.9281 -0.2032  1.4559
 9131SOL    HW228293   0.867   2.182   1.168  1.0048 -0.8393  0.6134
 9132SOL     OW28294   1.646   4.650   5.297  0.0692 -0.3531 -0.0820
 9132SOL    HW128295   1.710   4.657   5.221 -1.3105  0.7581 -1.2003
 9132SOL    HW228296   1.674   4.576   5.359  2.4425  0.1545 -0.4714
 9133SOL     OW28297   5.049   0.571   0.398 -0.1914  0.0177  0.3759
 9133SOL    HW128298   5.147   0.583   0.409 -0.3433 -0.1640  2.1106
 9133SOL    HW228299   5.026   0.474   0.411 -0.7989  0.3386  1.8681
 9134SOL     OW28300   5.282   3.906   5.556 -0.0836  0.1895  0.5820
 9134SOL    HW128301   5.236   3.879   5.472 -2.3109 -0.8522  2.0244
 9134SOL    HW228302   5.259   3.841   5.629  3.2722 -0.0181  1.6002
 9135SOL     OW28303   5.498   4.553   2.872  0.4455 -0.4049 -0.0714
 9135SOL    HW128304   5.495   4.516   2.965 -1.8276 -0.6513 -0.1873
 9135SOL    HW228305   5.407   4.584   2.846  1.6495  2.5846 -1.0932
 9136SOL     OW28306   0.181   6.221   6.964 -0.2790  0.6284  0.2062
 9136SOL    HW128307   0.231   6.159   7.025  0.1077 -1.6267 -2.2269
 9136SOL    HW228308   0.083   6.206   6.975 -0.1942 -0.2893 -0.1910
 9137SOL     OW28309   0.280   6.056   6.143 -0.4659 -0.0549  1.1594
 9137SOL    HW128310   0.233   5.969   6.126 -0.0276  0.1773 -1.8228
 9137SOL    HW228311   0.234   6.129   6.092 -0.8590  1.5434  3.6549
 9138SOL     OW28312   2.926   4.143   5.390  0.3563 -0.0135  0.0738
 9138SOL    HW128313   2.849   4.096   5.348  0.3810 -0.1983  0.2358
 9138SOL    HW228314   2.997   4.159   5.321  0.0165  0.4957 -0.1653
 9139SOL     OW28315   1.671   1.507   0.407 -0.3075 -0.2047  0.1171
 9139SOL    HW128316   1.632   1.418   0.384 -0.0846 -0.3826  0.4244
 9139SOL    HW228317   1.602   1.578   0.393 -0.8029 -0.5359  0.8203
 9140SOL     OW28318   6.915   4.666   1.769 -0.0935  0.1691 -0.4739
 9140SOL    HW128319   6.835   4.705   1.815  0.3699 -0.1497  0.6314
 9140SOL    HW228320   6.967   4.739   1.725 -0.5576  0.4799 -0.5127
 9141SOL     OW28321   6.421   6.268   5.116  0.2897 -0.0971  0.1308
 9141SOL    HW128322   6.366   6.322   5.180  1.3168  2.2523 -0.8442
 9141SOL    HW228323   6.447   6.325   5.038  1.7694 -1.9315 -0.8035
 9142SOL     OW28324   0.530   0.601   2.093 -0.6235  0.5459 -0.2943
 9142SOL    HW128325   0.451   0.584   2.151 -1.3662  0.2535 -1.3679
 9142SOL    HW228326   0.524   0.545   2.011 -0.4644  2.1548 -1.4544
 9143SOL     OW28327   6.572   3.328   2.313  0.1373 -0.2492 -0.5787
 9143SOL    HW128328   6.628   3.292   2.238  1.2570  0.7252 -0.2487
 9143SOL    HW228329   6.488   3.369   2.276  0.1528 -0.7556 -1.1877
 9144SOL     OW28330   3.318   4.374   6.094 -0.6600 -0.2078 -0.3065
 9144SOL    HW128331   3.302   4.431   6.175  0.5875  1.3352 -1.0997
 9144SOL    HW228332   3.342   4.281   6.123 -0.1076  0.3527  1.1223
 9145SOL     OW28333   0.795   0.247   5.972 -0.0742  0.2440  0.3036
 9145SOL    HW128334   0.825   0.164   6.019  2.0419 -0.6282 -2.3276
 9145SOL    HW228335   0.708   0.229   5.925  0.5233 -0.5996 -0.4962
 9146SOL     OW28336   5.633   6.241   3.410  0.6866 -0.0876  0.0839
 9146SOL    HW128337   5.690   6.184   3.469  0.8434  1.3477  1.3753
 9146SOL    HW228338   5.542   6.199   3.401  1.0039 -0.8697  0.4507
 9147SOL     OW28339   4.047   5.405   1.035 -0.5626 -0.0868 -0.1658
 9147SOL    HW128340   4.017   5.390   0.941 -1.5563  0.1854  0.0945
 9147SOL    HW228341   4.064   5.317   1.080  4.1117 -0.2954 -1.8270
 9148SOL     OW28342   2.569   6.829   1.961 -0.0358 -0.3127  0.1993
 9148SOL    HW128343   2.657   6.833   2.007 -0.0087  0.0130  0.1223
 9148SOL    HW228344   2.495   6.832   2.028  0.0029  0.1876  0.2237
 9149SOL     OW28345   0.362   3.680   2.331  0.0367  0.1504  0.4618
 9149SOL    HW128346   0.435   3.625   2.291  2.1320  2.8758  0.3427
 9149SOL    HW228347   0.315   3.730   2.258 -0.8638 -0.2706  0.7371
 9150SOL     OW28348   3.597   3.651   6.668  0.1404  0.0004 -0.0086
 9150SOL    HW128349   3.530   3.626   6.738 -0.3124 -0.3053 -0.5379
 9150SOL    HW228350   3.622   3.747   6.679 -1.4663  0.5387 -0.6377
 9151SOL     OW28351   0.466   4.830   4.242  0.7228 -0.0844  0.6407
 9151SOL    HW128352   0.467   4.905   4.175  0.2761  0.2961  1.0530
 9151SOL    HW228353   0.377   4.784   4.238  0.7539 -0.1632  0.8620
 9152SOL     OW28354   0.930   3.827   3.023 -0.2429 -0.7167  0.5324
 9152SOL    HW128355   1.015   3.819   2.970  0.7611  2.9392  1.2991
 9152SOL    HW228356   0.856   3.856   2.962 -0.4954 -1.9880  0.2111
 9153SOL     OW28357   0.462   1.964   2.806 -0.0506 -0.4644 -0.1019
 9153SOL    HW128358   0.519   2.040   2.839 -0.9620 -0.1294  0.7466
 9153SOL    HW228359   0.516   1.880   2.804  0.2982 -0.2874  1.3248
 9154SOL     OW28360   4.805   6.360   2.329  0.0658  0.1020  0.5490
 9154SOL    HW128361   4.747   6.285   2.299 -0.9128  0.3206  1.8250
 9154SOL    HW228362   4.869   6.384   2.256 -0.1276 -1.4386 -0.1650
 9155SOL     OW28363   0.346   1.130   1.632 -0.0666 -0.4428 -0.5953
 9155SOL    HW128364   0.342   1.223   1.670 -1.0813 -0.2634 -1.1080
 9155SOL    HW228365   0.343   1.135   1.532 -1.2823 -1.0685 -0.5994
 9156SOL     OW28366   0.524   3.936   1.049 -0.2787  0.1164 -0.3148
 9156SOL    HW128367   0.571   4.016   1.010  0.3472  0.2957  0.7521
 9156SOL    HW228368   0.506   3.869   0.977  1.2709  0.2197 -0.8348
 9157SOL     OW28369   2.931   5.272   5.291 -0.6830 -0.1117  0.3052
 9157SOL    HW128370   2.942   5.191   5.233 -1.0253 -0.1174  0.2483
 9157SOL    HW228371   2.858   5.256   5.358 -1.0832  0.3259 -0.0187
 9158SOL     OW28372   5.368   2.758   4.209  0.5476 -0.1308  0.6272
 9158SOL    HW128373   5.452   2.732   4.257  0.1676 -1.8757  0.4387
 9158SOL    HW228374   5.361   2.857   4.204  4.8727  0.3079 -3.2429
 9159SOL     OW28375   6.913   1.053   1.457  0.5002  0.2228 -0.4017
 9159SOL    HW128376   6.910   1.128   1.523  0.8828  0.2092 -0.3626
 9159SOL    HW228377   6.825   1.044   1.412 -0.5112 -1.2072  1.7042
 9160SOL     OW28378   1.498   4.225   5.630  0.5800 -0.0665 -0.1659
 9160SOL    HW128379   1.526   4.195   5.721  0.6586 -2.7260 -1.0095
 9160SOL    HW228380   1.429   4.297   5.639 -0.0510 -0.8669  2.0133
 9161SOL     OW28381   5.981   2.409   2.571  0.0547 -0.5269  0.0503
 9161SOL    HW128382   5.896   2.359   2.587 -0.8568  0.7157 -0.6764
 9161SOL    HW228383   5.959   2.500   2.536  1.6567  0.2557  0.9728
 9162SOL     OW28384   3.533   1.317   1.035  0.3811 -0.1489 -0.0076
 9162SOL    HW128385   3.536   1.376   0.954 -0.2485  1.1185  0.8614
 9162SOL    HW228386   3.458   1.347   1.095 -0.2061 -2.0848  0.2899
 9163SOL     OW28387   1.455   5.775   2.552  0.1807 -0.3544  0.3855
 9163SOL    HW128388   1.446   5.831   2.634 -1.7501 -0.6861  0.4382
 9163SOL    HW228389   1.375   5.788   2.493  2.0075  0.7541 -2.0493
 9164SOL     OW28390   5.004   2.095   0.201  0.2555 -0.6787 -0.2005
 9164SOL    HW128391   5.066   2.169   0.225  0.2362 -0.6814 -0.1421
 9164SOL    HW228392   5.054   2.009   0.197  0.3558 -0.6019 -0.6596
 9165SOL     OW28393   6.479   6.567   6.298  0.5281 -0.4896 -0.5215
 9165SOL    HW128394   6.487   6.647   6.237 -2.1689 -0.5517 -1.0618
 9165SOL    HW228395   6.383   6.553   6.322  1.3169 -1.4269  2.5461
 9166SOL     OW28396   3.126   6.053   2.074 -0.2155  0.1510  0.6079
 9166SOL    HW128397   3.042   6.035   2.023  0.4352  0.2614 -0.5498
 9166SOL    HW228398   3.160   6.144   2.051  0.8940 -0.3829  0.0604
 9167SOL     OW28399   1.283   2.363   5.409  0.0723  0.3459  0.2458
 9167SOL    HW128400   1.187   2.391   5.399  0.2982  1.6478  1.4401
 9167SOL    HW228401   1.289   2.294   5.481  0.0105  0.1544  0.0671
 9168SOL     OW28402   6.508   0.431   5.443  0.5674  0.0701 -0.7704
 9168SOL    HW128403   6.602   0.404   5.467  1.4435  1.2092 -2.6758
 9168SOL    HW228404   6.464   0.357   5.393  1.1156  0.1938 -1.4520
 9169SOL     OW28405   5.530   5.470   0.231 -0.3328  0.8788 -0.1372
 9169SOL    HW128406   5.540   5.377   0.195  0.7640  0.2176  1.7161
 9169SOL    HW228407   5.615   5.521   0.217 -0.8951  1.5861 -1.0530
 9170SOL     OW28408   1.851   7.006   4.647 -0.1156 -0.1351  0.1229
 9170SOL    HW128409   1.901   6.937   4.700  1.4393  1.2217  0.5172
 9170SOL    HW228410   1.832   6.970   4.556  1.2561 -0.8801  0.0937
 9171SOL     OW28411   6.955   5.975   4.419 -0.1380 -0.5214 -0.1031
 9171SOL    HW128412   6.938   5.905   4.349  1.2990  0.1486 -1.1592
 9171SOL    HW228413   6.891   6.051   4.406  0.8240  0.0919 -1.4014
 9172SOL     OW28414   5.854   1.462   6.179 -0.2437  0.4192 -0.3212
 9172SOL    HW128415   5.903   1.549   6.186 -0.2869  0.3785  0.6585
 9172SOL    HW228416   5.915   1.387   6.205 -0.8142  0.3773  1.0057
 9173SOL     OW28417   4.834   2.645   0.665 -0.0510 -0.2408 -0.0281
 9173SOL    HW128418   4.754   2.617   0.613 -0.2153  0.7359 -0.3219
 9173SOL    HW228419   4.828   2.611   0.758 -0.8064 -0.1690 -0.0502
 9174SOL     OW28420   4.856   5.683   0.940  0.3070 -0.5610  0.0458
 9174SOL    HW128421   4.831   5.626   0.861 -1.1539 -0.1681  0.2026
 9174SOL    HW228422   4.903   5.626   1.008 -1.6691 -1.7861  0.4779
 9175SOL     OW28423   2.676   0.576   1.680 -0.1954  0.0824  0.0435
 9175SOL    HW128424   2.742   0.524   1.735 -1.1398 -3.6100 -2.0115
 9175SOL    HW228425   2.583   0.554   1.710 -0.6360  1.3480 -0.3222
 9176SOL     OW28426   0.798   1.026   2.635  0.0164 -0.0091  0.3649
 9176SOL    HW128427   0.702   1.042   2.613  0.2356 -0.8671 -1.4294
 9176SOL    HW228428   0.848   1.005   2.551  1.5069 -0.9369  1.4385
 9177SOL     OW28429   6.490   4.308   2.900  0.0733 -0.5428  0.4134
 9177SOL    HW128430   6.506   4.383   2.835  0.3741 -0.2191  0.8596
 9177SOL    HW228431   6.394   4.306   2.926  0.3100  0.4979  1.3910
 9178SOL     OW28432   0.966   2.244   1.057 -0.2156 -0.9618  0.2057
 9178SOL    HW128433   1.056   2.222   1.094  0.1263 -0.3746 -0.2732
 9178SOL    HW228434   0.969   2.240   0.958 -0.1881  0.9985  0.0880
 9179SOL     OW28435   3.797   5.444   2.228  0.1937  0.8987  0.4643
 9179SOL    HW128436   3.720   5.482   2.279  0.1841  1.4566  0.0473
 9179SOL    HW228437   3.883   5.467   2.275  0.0554 -1.3127  1.9615
 9180SOL     OW28438   0.569   1.068   4.222  0.2047  0.1994  0.0296
 9180SOL    HW128439   0.656   1.107   4.249 -0.6901  0.4780  2.7976
 9180SOL    HW228440   0.517   1.135   4.169 -0.0497  1.7024  2.0659
 9181SOL     OW28441   3.671   0.999   1.315  0.4479  0.0477 -0.2164
 9181SOL    HW128442   3.628   1.075   1.363  1.0276 -0.0203  0.4434
 9181SOL    HW228443   3.763   1.027   1.285  0.3314 -0.1180 -0.7409
 9182SOL     OW28444   5.155   0.446   0.701  0.5485  0.5909  0.1166
 9182SOL    HW128445   5.199   0.365   0.738 -0.0255  0.6723  1.0040
 9182SOL    HW228446   5.079   0.419   0.643  0.6892  0.4873 -0.0209
 9183SOL     OW28447   2.824   2.566   5.296 -0.8829  0.4337 -0.1296
 9183SOL    HW128448   2.790   2.526   5.381  2.5007 -1.6149  0.4368
 9183SOL    HW228449   2.809   2.502   5.221 -0.6504  0.6563 -0.3666
 9184SOL     OW28450   1.325   5.111   0.636 -0.0601 -0.1332 -0.1096
 9184SOL    HW128451   1.375   5.170   0.573  1.7848 -1.1340  0.3460
 9184SOL    HW228452   1.247   5.161   0.674  0.2823  1.3161 -1.2333
 9185SOL     OW28453   1.874   3.280   3.288 -0.0550  0.3337  0.0220
 9185SOL    HW128454   1.823   3.203   3.328  0.3500 -0.5988 -1.2194
 9185SOL    HW228455   1.872   3.357   3.352 -0.4993 -0.6826  1.2799
 9186SOL     OW28456   6.032   4.796   4.755  0.0532 -0.4930  0.2927
 9186SOL    HW128457   5.949   4.781   4.808  0.2957 -1.2414  0.4752
 9186SOL    HW228458   6.068   4.708   4.725  1.1380 -0.2298  0.7685
 9187SOL     OW28459   4.339   3.285   1.486  0.1808  0.1290  0.1488
 9187SOL    HW128460   4.326   3.188   1.506  0.0033  0.1375  0.0864
 9187SOL    HW228461   4.289   3.307   1.402  1.4529 -0.0536 -0.6691
 9188SOL     OW28462   2.967   0.305   2.203 -0.0654  0.3346 -0.5236
 9188SOL    HW128463   2.876   0.312   2.243 -0.1862  0.9051 -0.8919
 9188SOL    HW228464   2.999   0.396   2.177  0.5246  0.1137 -0.5860
 9189SOL     OW28465   2.083   5.941   6.956  0.0605  0.3402 -0.2758
 9189SOL    HW128466   2.125   5.851   6.944  0.3306  0.2755  1.0626
 9189SOL    HW228467   1.989   5.930   6.987 -0.5805  0.5076 -2.0570
 9190SOL     OW28468   2.777   1.531   6.367 -0.4859  0.5602  0.7294
 9190SOL    HW128469   2.806   1.620   6.332 -0.3062  0.1962 -0.0763
 9190SOL    HW228470   2.689   1.507   6.326 -0.2369  0.0948  0.4582
 9191SOL     OW28471   0.911   0.381   1.510 -0.6441  0.0023 -0.6877
 9191SOL    HW128472   0.892   0.461   1.567 -1.1471 -0.7427  0.2235
 9191SOL    HW228473   1.000   0.343   1.534 -0.6824 -0.0816 -0.6777
 9192SOL     OW28474   4.978   4.311   2.513  0.2947  0.5891  0.0422
 9192SOL    HW128475   4.955   4.327   2.609  0.6409  1.3223  0.0070
 9192SOL    HW228476   5.070   4.270   2.507  0.3326  0.6777  0.0162
 9193SOL     OW28477   3.865   3.651   2.091  0.3137  0.0666  0.1074
 9193SOL    HW128478   3.882   3.621   2.185  1.6368 -0.6997 -0.3369
 9193SOL    HW228479   3.911   3.739   2.076 -1.3422  1.0629  0.6455
 9194SOL     OW28480   2.444   6.652   4.481 -0.5032  0.2276  0.7137
 9194SOL    HW128481   2.463   6.556   4.505  1.1264  0.2299 -0.4127
 9194SOL    HW228482   2.456   6.710   4.561 -0.3657 -0.3750  1.1338
 9195SOL     OW28483   6.640   5.287   4.829 -0.0641  0.3955  0.0767
 9195SOL    HW128484   6.542   5.263   4.825 -0.0124  0.2023 -0.0441
 9195SOL    HW228485   6.655   5.352   4.904 -0.2157  0.0865  0.3769
 9196SOL     OW28486   6.784   6.950   4.549  0.3453  0.3240 -0.2266
 9196SOL    HW128487   6.767   6.946   4.647  1.3813 -0.4967 -0.0634
 9196SOL    HW228488   6.751   6.866   4.505  0.3002  0.4872 -0.5119
 9197SOL     OW28489   4.233   2.046   6.856  0.5400  0.2522 -0.3668
 9197SOL    HW128490   4.136   2.023   6.869  1.1177 -1.7762  0.7741
 9197SOL    HW228491   4.282   1.965   6.824  1.9731  1.1158 -0.4328
 9198SOL     OW28492   5.693   4.291   6.696 -0.2539  0.2557  0.3465
 9198SOL    HW128493   5.750   4.320   6.773  0.9379 -2.3853  0.5416
 9198SOL    HW228494   5.617   4.355   6.686  1.6292  2.8233  1.2931
 9199SOL     OW28495   1.414   3.531   4.722 -0.0944  0.0084 -0.4127
 9199SOL    HW128496   1.364   3.615   4.698 -1.3677 -0.6609 -0.2003
 9199SOL    HW228497   1.509   3.539   4.692 -0.4749  1.0764 -1.4029
 9200SOL     OW28498   4.309   5.757   2.078 -0.3107 -0.4448 -0.1670
 9200SOL    HW128499   4.407   5.776   2.072 -0.0294 -0.1259  3.2919
 9200SOL    HW228500   4.258   5.841   2.064 -0.1258 -0.5815 -1.8340
 9201SOL     OW28501   6.757   4.199   1.887 -0.2237  0.0725  0.5684
 9201SOL    HW128502   6.711   4.212   1.975 -0.3056 -0.1763  0.5612
 9201SOL    HW228503   6.716   4.122   1.839  1.7581 -1.7350  1.6149
 9202SOL     OW28504   6.995   4.941   4.368 -0.5040 -0.2198  0.1925
 9202SOL    HW128505   6.971   5.027   4.414  1.6113 -0.2051  1.4090
 9202SOL    HW228506   7.027   4.961   4.276  1.1403  0.4926  0.8754
 9203SOL     OW28507   5.205   2.609   6.721 -0.2813  0.3352  0.3482
 9203SOL    HW128508   5.294   2.645   6.692 -0.3474  0.9087  0.8216
 9203SOL    HW228509   5.208   2.587   6.819  0.4722 -3.2204 -0.3573
 9204SOL     OW28510   5.520   3.397   3.396 -0.5800 -0.4375 -0.2410
 9204SOL    HW128511   5.570   3.438   3.473  0.6668 -0.0812 -1.2139
 9204SOL    HW228512   5.520   3.298   3.406 -1.7311 -0.3529  0.9797
 9205SOL     OW28513   3.187   0.988   6.809  0.1711 -0.0223  0.4000
 9205SOL    HW128514   3.159   1.083   6.793  4.0474  1.2080 -0.2416
 9205SOL    HW228515   3.172   0.965   6.905 -2.3909  0.5649  0.2066
 9206SOL     OW28516   0.870   0.455   2.990  0.1825 -0.0865 -0.4726
 9206SOL    HW128517   0.932   0.504   3.051  2.1269 -2.0106 -0.7827
 9206SOL    HW228518   0.776   0.467   3.022  0.9506  0.4902  1.7963
 9207SOL     OW28519   5.884   0.218   0.200 -0.1055  0.1700 -0.0574
 9207SOL    HW128520   5.840   0.174   0.122  0.1129  0.9619 -0.6345
 9207SOL    HW228521   5.931   0.149   0.255 -1.1699 -0.5478 -0.0071
 9208SOL     OW28522   6.011   3.598   2.785 -0.6279 -0.0600  0.2010
 9208SOL    HW128523   5.957   3.526   2.828 -1.3889  0.2885 -0.1566
 9208SOL    HW228524   5.984   3.687   2.822  0.3733  0.0501  0.7148
 9209SOL     OW28525   0.267   5.467   4.924 -0.2612  0.1078 -0.3111
 9209SOL    HW128526   0.254   5.370   4.943  1.4515 -0.2935 -1.0138
 9209SOL    HW228527   0.287   5.516   5.009 -0.9960 -0.1667  0.0259
 9210SOL     OW28528   1.431   6.608   0.810  0.6478  0.0692 -0.3954
 9210SOL    HW128529   1.379   6.534   0.853  2.1075 -0.4229  0.5932
 9210SOL    HW228530   1.375   6.691   0.807  0.2222 -0.0897  1.7754
 9211SOL     OW28531   4.875   0.669   5.938  0.5742 -0.6384  0.3564
 9211SOL    HW128532   4.944   0.604   5.906  0.8906 -0.0983 -0.0958
 9211SOL    HW228533   4.787   0.623   5.946  0.9826 -1.3358  0.9323
 9212SOL     OW28534   5.608   2.071   6.646  0.0384 -0.4225  0.1593
 9212SOL    HW128535   5.645   2.140   6.585  0.9740 -2.7549 -2.1017
 9212SOL    HW228536   5.509   2.083   6.654 -0.4788 -1.1216 -3.5139
 9213SOL     OW28537   1.946   6.958   3.990  0.2068 -0.0719 -0.2859
 9213SOL    HW128538   1.905   7.048   3.975  0.5882 -0.0121 -1.0019
 9213SOL    HW228539   2.046   6.964   3.982  0.2475 -0.5335 -0.1954
 9214SOL     OW28540   1.974   1.752   5.741 -0.4369  0.2310  0.4932
 9214SOL    HW128541   2.014   1.842   5.756  0.3506 -0.3628  2.2371
 9214SOL    HW228542   1.956   1.708   5.829 -0.6806 -1.3733 -0.3055
 9215SOL     OW28543   6.267   5.492   3.096 -0.2906  0.2790 -0.3327
 9215SOL    HW128544   6.307   5.576   3.132  1.6465 -0.2588 -1.1016
 9215SOL    HW228545   6.334   5.444   3.040 -1.5943 -1.4228 -0.5340
 9216SOL     OW28546   2.904   5.745   3.364  0.3074 -0.2911  0.2702
 9216SOL    HW128547   2.857   5.707   3.284 -2.4895  0.0667  1.6171
 9216SOL    HW228548   2.893   5.844   3.365  2.8293  0.0725 -0.3253
 9217SOL     OW28549   1.674   2.397   0.433  0.1972 -0.2907 -0.1025
 9217SOL    HW128550   1.668   2.366   0.338 -0.1923 -3.0002  0.7181
 9217SOL    HW228551   1.770   2.403   0.461  0.2811 -1.3672 -0.1340
 9218SOL     OW28552   5.149   6.094   4.940 -0.4126 -0.1021  0.5912
 9218SOL    HW128553   5.052   6.095   4.916  0.1225  0.5083 -1.7938
 9218SOL    HW228554   5.174   6.003   4.975 -1.4483 -0.8600 -0.5656
 9219SOL     OW28555   3.861   3.017   5.270  0.5145  0.5688 -0.3553
 9219SOL    HW128556   3.926   2.941   5.262  1.0900  0.8557  1.1759
 9219SOL    HW228557   3.769   2.985   5.248  0.6285 -0.8037  0.9877
 9220SOL     OW28558   0.380   6.776   3.589  0.1810 -0.5476  0.7210
 9220SOL    HW128559   0.347   6.747   3.679 -0.9887 -3.4281 -0.4892
 9220SOL    HW228560   0.375   6.698   3.526  2.2545  0.9986 -1.5138
 9221SOL     OW28561   2.715   1.401   2.352  0.6313  0.3879  0.1879
 9221SOL    HW128562   2.692   1.363   2.441 -1.4610 -0.6651 -0.7349
 9221SOL    HW228563   2.784   1.343   2.308  0.8414  0.2844  0.6439
 9222SOL     OW28564   2.045   6.063   2.043  0.3370  0.8982 -0.2832
 9222SOL    HW128565   2.063   6.136   2.108  2.3521 -0.9922  1.4239
 9222SOL    HW228566   2.124   6.001   2.039 -1.8044 -2.0296 -0.5025
 9223SOL     OW28567   5.653   1.998   5.159 -0.1585  0.8521  0.5206
 9223SOL    HW128568   5.573   2.014   5.216  0.5305  0.7199  1.5601
 9223SOL    HW228569   5.631   2.018   5.064 -2.0652 -1.2681  0.4422
 9224SOL     OW28570   2.506   6.029   2.480  0.2095 -0.1136 -0.5728
 9224SOL    HW128571   2.546   5.973   2.552 -0.2835 -2.1965 -1.8561
 9224SOL    HW228572   2.409   6.045   2.501 -0.3054 -1.9149 -1.4027
 9225SOL     OW28573   1.474   5.855   6.381  1.1858 -0.0392 -0.4821
 9225SOL    HW128574   1.389   5.817   6.417  1.0866  1.1928  0.6422
 9225SOL    HW228575   1.481   5.832   6.283 -0.8996  0.6051 -0.8472
 9226SOL     OW28576   0.707   0.686   3.844  0.7763  0.1955  0.2267
 9226SOL    HW128577   0.626   0.738   3.818  0.9164 -0.0198 -0.6531
 9226SOL    HW228578   0.679   0.609   3.902  0.1205 -0.8614 -1.4274
 9227SOL     OW28579   5.273   4.200   6.051 -0.2556  0.1524  0.1869
 9227SOL    HW128580   5.272   4.117   6.106 -1.3593  0.6521  0.9575
 9227SOL    HW228581   5.201   4.195   5.982 -0.5142  0.5785  0.4189
 9228SOL     OW28582   2.283   3.193   6.112 -0.1591  0.4039 -0.2334
 9228SOL    HW128583   2.377   3.158   6.120  0.0969  0.7992 -1.3437
 9228SOL    HW228584   2.285   3.286   6.076 -1.0388 -0.2557 -2.1395
 9229SOL     OW28585   0.174   0.288   2.560  0.6041 -0.0668 -0.1267
 9229SOL    HW128586   0.160   0.217   2.491  0.4698 -0.4724  0.3191
 9229SOL    HW228587   0.158   0.378   2.518  1.7009 -0.2223 -0.9465
 9230SOL     OW28588   4.388   5.878   5.597 -0.1508  0.3226  0.3634
 9230SOL    HW128589   4.320   5.901   5.667  0.3874  0.2442  0.9193
 9230SOL    HW228590   4.350   5.897   5.506 -0.8606  0.4149  0.6724
 9231SOL     OW28591   4.641   5.202   6.462 -0.4605  0.3509 -0.1129
 9231SOL    HW128592   4.690   5.289   6.450 -0.6197  0.7767  1.9261
 9231SOL    HW228593   4.654   5.145   6.381 -1.5948  2.8446 -2.2024
 9232SOL     OW28594   1.887   5.288   1.149 -0.2604  0.2428 -0.7715
 9232SOL    HW128595   1.885   5.370   1.093 -0.6124  0.8114  0.0611
 9232SOL    HW228596   1.818   5.223   1.115 -0.0210  0.3025 -1.3900
 9233SOL     OW28597   0.632   2.411   5.917 -0.0088  0.3026  0.0947
 9233SOL    HW128598   0.709   2.458   5.873 -0.0148 -0.1957 -0.4687
 9233SOL    HW228599   0.571   2.375   5.846 -1.2079  1.4012  0.5279
 9234SOL     OW28600   3.725   4.649   0.048  0.2048 -0.4685 -0.0080
 9234SOL    HW128601   3.735   4.556   0.085 -1.4784 -0.9410 -0.6064
 9234SOL    HW228602   3.715   4.644  -0.052  3.1185  0.6554 -0.4463
 9235SOL     OW28603   2.805   1.728   2.694  0.0832 -0.7040 -0.0322
 9235SOL    HW128604   2.813   1.672   2.776  0.3852 -0.9133 -0.2019
 9235SOL    HW228605   2.893   1.770   2.673  0.2003 -1.2397 -0.6581
 9236SOL     OW28606   3.512   3.858   6.331 -0.2212  0.1638 -0.1809
 9236SOL    HW128607   3.515   3.932   6.398 -2.0314  2.9067 -2.8877
 9236SOL    HW228608   3.603   3.844   6.293  0.0596  1.3536  0.0185
 9237SOL     OW28609   1.476   6.146   3.268 -0.5616 -0.0333 -0.3985
 9237SOL    HW128610   1.431   6.145   3.179 -2.6589 -0.1122  0.6108
 9237SOL    HW228611   1.421   6.096   3.335 -0.8967  2.8932  1.7565
 9238SOL     OW28612   1.066   2.155   3.873 -0.2841  0.4155  0.5916
 9238SOL    HW128613   1.120   2.075   3.848  0.0212  0.3537  1.4115
 9238SOL    HW228614   1.025   2.141   3.963 -1.0583  0.7690  0.3033
 9239SOL     OW28615   1.730   4.098   6.768  0.3376 -0.4667 -0.3071
 9239SOL    HW128616   1.687   4.132   6.852 -1.6018 -1.1168 -0.9676
 9239SOL    HW228617   1.791   4.022   6.790  2.1292  1.1860  0.7929
 9240SOL     OW28618   3.830   6.317   3.754 -0.1948  0.0645 -0.0283
 9240SOL    HW128619   3.894   6.253   3.713 -1.1845 -0.3193 -1.0392
 9240SOL    HW228620   3.879   6.398   3.787  0.8509 -0.4436 -0.3063
 9241SOL     OW28621   5.679   0.796   0.356  0.2614  0.5490  0.2172
 9241SOL    HW128622   5.632   0.830   0.438  0.3864 -0.7598  0.8677
 9241SOL    HW228623   5.700   0.699   0.368 -0.9587 -0.0524 -1.9258
 9242SOL     OW28624   1.289   3.776   4.602 -0.0061  0.1057  0.1586
 9242SOL    HW128625   1.384   3.806   4.600 -0.3608  1.2289 -0.8957
 9242SOL    HW228626   1.257   3.758   4.509 -0.7953 -0.4109  0.5106
 9243SOL     OW28627   1.203   6.286   6.407 -0.5897  0.1603  0.1611
 9243SOL    HW128628   1.244   6.265   6.496  0.0044 -2.4853 -0.6408
 9243SOL    HW228629   1.246   6.367   6.368  2.5958 -1.3682  0.2114
 9244SOL     OW28630   5.557   6.694   5.283 -0.1060 -0.4503  0.4082
 9244SOL    HW128631   5.486   6.715   5.350  0.3315 -0.8215  1.0030
 9244SOL    HW228632   5.620   6.626   5.321  0.6627 -0.0106 -0.0401
 9245SOL     OW28633   5.984   4.265   4.484  0.3306 -0.2489 -0.0724
 9245SOL    HW128634   5.999   4.236   4.389  1.0293 -1.3658  0.3562
 9245SOL    HW228635   6.068   4.302   4.522  0.3829 -0.9135  0.4752
 9246SOL     OW28636   2.917   1.058   0.426 -0.1083 -0.2872  0.5978
 9246SOL    HW128637   2.892   1.062   0.329  0.5337 -1.5107  0.3448
 9246SOL    HW228638   2.836   1.042   0.481 -0.4398  0.1004  0.2259
 9247SOL     OW28639   3.596   0.588   2.006 -0.2369  0.1608  0.6369
 9247SOL    HW128640   3.621   0.629   2.094 -1.1253 -1.5671  1.7444
 9247SOL    HW228641   3.608   0.489   2.011 -1.1999 -0.0596 -0.8714
 9248SOL     OW28642   1.333   6.521   6.789  0.0381  0.3675  0.1756
 9248SOL    HW128643   1.248   6.562   6.756  1.2587  1.8951 -1.2350
 9248SOL    HW228644   1.344   6.430   6.751 -0.9428  0.1638  0.3576
 9249SOL     OW28645   3.172   1.730   5.799  0.3160 -0.7514  0.1096
 9249SOL    HW128646   3.139   1.664   5.730 -1.0020 -0.8708  0.8192
 9249SOL    HW228647   3.272   1.727   5.802  0.3376 -1.8230 -0.7465
 9250SOL     OW28648   1.014   4.754   0.920 -0.3026 -0.3124 -0.1215
 9250SOL    HW128649   1.078   4.692   0.965 -0.1328 -0.2179 -0.2287
 9250SOL    HW228650   0.942   4.701   0.875 -1.0132 -0.3699  1.0538
 9251SOL     OW28651   3.181   0.017   1.455  0.1548 -0.1284  0.3016
 9251SOL    HW128652   3.108   0.035   1.520 -0.4529 -0.0848 -0.3766
 9251SOL    HW228653   3.145  -0.036   1.378  0.8046 -0.0122 -0.0928
 9252SOL     OW28654   6.776   1.327   2.914 -0.0884  0.4453  0.0359
 9252SOL    HW128655   6.840   1.342   2.839 -0.0724  1.4904  0.2440
 9252SOL    HW228656   6.684   1.313   2.877  0.1570 -0.4454 -0.2358
 9253SOL     OW28657   3.564   5.062   4.367 -0.3737 -0.0157  0.4553
 9253SOL    HW128658   3.588   5.049   4.464  0.8646  0.2372  0.2076
 9253SOL    HW228659   3.467   5.085   4.360 -1.0891 -2.4232  1.4262
 9254SOL     OW28660   0.646   5.308   0.600  0.5700 -0.2034 -0.4915
 9254SOL    HW128661   0.606   5.222   0.569  0.4043  0.2692 -1.6226
 9254SOL    HW228662   0.692   5.294   0.688  0.7307 -1.4863 -0.7697
 9255SOL     OW28663   1.473   2.303   2.459  0.0687  0.0259  0.3107
 9255SOL    HW128664   1.517   2.365   2.394  1.1462 -0.0337  0.9518
 9255SOL    HW228665   1.498   2.329   2.552 -1.2148 -0.0667  0.6945
 9256SOL     OW28666   6.918   4.162   2.548 -0.4347 -0.1137 -0.3400
 9256SOL    HW128667   6.888   4.258   2.541 -0.3301  0.1353  1.8898
 9256SOL    HW228668   7.008   4.152   2.507 -0.3801  0.7796 -0.4635
 9257SOL     OW28669   0.520   0.098   5.154 -0.3249  0.1161  0.5363
 9257SOL    HW128670   0.468   0.118   5.072 -0.9471  4.2311  1.6736
 9257SOL    HW228671   0.555   0.004   5.151 -4.5268 -1.6157 -1.9892
 9258SOL     OW28672   5.922   3.456   1.215 -0.2531 -0.1453 -0.5644
 9258SOL    HW128673   6.009   3.430   1.257 -1.5131 -0.8807  1.7697
 9258SOL    HW228674   5.918   3.419   1.122  2.1909  0.5533 -1.0168
 9259SOL     OW28675   1.771   3.644   6.577 -0.7682  0.1137 -0.0354
 9259SOL    HW128676   1.773   3.721   6.514 -1.1046  1.7447  1.8263
 9259SOL    HW228677   1.679   3.636   6.616 -0.7257 -1.2246 -0.1797
 9260SOL     OW28678   6.540   5.857   5.060  0.5488  0.1041  0.1633
 9260SOL    HW128679   6.496   5.767   5.053  0.6351  0.1164 -0.5983
 9260SOL    HW228680   6.640   5.845   5.061  0.5791  0.2299 -0.6947
 9261SOL     OW28681   6.755   2.965   0.581  0.6463 -0.1701  0.4750
 9261SOL    HW128682   6.749   2.995   0.676  0.9779  0.9072  0.1667
 9261SOL    HW228683   6.685   3.012   0.526 -0.3875 -1.7176  0.3999
 9262SOL     OW28684   1.548   6.733   5.629 -0.4596 -0.2396  0.8350
 9262SOL    HW128685   1.493   6.794   5.687  1.1618 -0.3717  2.6056
 9262SOL    HW228686   1.595   6.666   5.687  1.1696 -0.4463 -0.6525
 9263SOL     OW28687   2.451   6.801   4.721 -0.5699 -0.3554 -0.3688
 9263SOL    HW128688   2.473   6.890   4.759 -0.3575  0.3835 -2.1277
 9263SOL    HW228689   2.395   6.749   4.786 -0.4416  0.9235  0.7954
 9264SOL     OW28690   5.726   3.634   6.697  0.5088  0.0584 -0.2884
 9264SOL    HW128691   5.819   3.622   6.663  0.2941  0.0758 -0.8867
 9264SOL    HW228692   5.682   3.709   6.649  0.5390  0.7674  0.7505
 9265SOL     OW28693   4.431   1.570   5.571 -0.6821  0.2815  0.1081
 9265SOL    HW128694   4.465   1.613   5.654  1.0787  0.2793 -0.5809
 9265SOL    HW228695   4.499   1.507   5.535 -1.4772  0.1593 -1.2631
 9266SOL     OW28696   6.677   3.512   0.652  0.0458 -0.5463  0.2970
 9266SOL    HW128697   6.734   3.471   0.581 -0.7942  0.4683 -0.9968
 9266SOL    HW228698   6.582   3.485   0.637 -0.1149 -0.5331  1.2182
 9267SOL     OW28699   6.453   0.833   3.119 -0.1582 -0.5451 -0.3898
 9267SOL    HW128700   6.474   0.848   3.216 -0.0411 -0.6328 -0.4027
 9267SOL    HW228701   6.378   0.767   3.110 -0.0373 -0.6845 -0.3665
 9268SOL     OW28702   0.355   0.657   1.327  0.9080 -0.0201 -0.0396
 9268SOL    HW128703   0.434   0.641   1.267 -0.4659 -1.2451 -1.6018
 9268SOL    HW228704   0.315   0.746   1.305  0.6490 -0.2893 -0.7047
 9269SOL     OW28705   2.024   0.445   1.237 -0.0217  0.3039 -0.7720
 9269SOL    HW128706   2.100   0.435   1.172  0.6524 -1.0493  0.1712
 9269SOL    HW228707   2.060   0.449   1.330 -1.0461  0.9775 -0.3885
 9270SOL     OW28708   2.952   0.722   5.329 -0.0176 -0.2813 -0.4571
 9270SOL    HW128709   2.881   0.653   5.315  1.3550 -1.4892 -1.8622
 9270SOL    HW228710   2.981   0.758   5.240 -0.5846  2.0420  0.2383
 9271SOL     OW28711   1.809   4.326   5.952  0.0469 -0.3176  0.3546
 9271SOL    HW128712   1.804   4.266   6.032  1.7452  0.2714  0.9318
 9271SOL    HW228713   1.887   4.387   5.961 -0.1251  0.2120 -1.4580
 9272SOL     OW28714   6.582   0.932   5.300  0.2187  0.4410  0.5467
 9272SOL    HW128715   6.521   0.974   5.233 -0.4539  1.3354  1.6855
 9272SOL    HW228716   6.557   0.835   5.311 -0.8704  0.7445  0.8443
 9273SOL     OW28717   4.911   5.820   5.017  0.3717 -0.1202  0.0546
 9273SOL    HW128718   4.904   5.918   5.034  1.2729 -0.1294  0.5461
 9273SOL    HW228719   4.845   5.771   5.074 -0.6979  0.2411 -0.8350
 9274SOL     OW28720   4.603   1.483   0.726 -0.4990 -0.1128 -0.1044
 9274SOL    HW128721   4.563   1.392   0.723  0.2973 -0.4468 -0.8699
 9274SOL    HW228722   4.692   1.479   0.771 -0.5919  0.3499  0.1334
 9275SOL     OW28723   2.855   0.167   1.015 -0.1576 -0.4159  0.7995
 9275SOL    HW128724   2.809   0.217   1.088 -2.5331 -0.4652 -0.5773
 9275SOL    HW228725   2.924   0.226   0.973 -0.4751  0.4731  1.4876
 9276SOL     OW28726   2.087   3.764   0.447 -0.1046 -0.3242 -0.3309
 9276SOL    HW128727   1.998   3.770   0.493 -0.4143 -0.2517 -0.9294
 9276SOL    HW228728   2.087   3.825   0.368  1.1713  1.1852  0.7822
 9277SOL     OW28729   3.489   6.036   4.303  0.6113 -1.0296 -0.4848
 9277SOL    HW128730   3.391   6.017   4.306  0.5335 -0.5777 -0.1328
 9277SOL    HW228731   3.539   5.951   4.322  0.2603 -0.8244  1.6839
 9278SOL     OW28732   1.284   6.620   4.705 -0.1683  0.2692  0.1370
 9278SOL    HW128733   1.230   6.693   4.663 -0.3535  0.2011  0.2579
 9278SOL    HW228734   1.230   6.574   4.775 -0.0706 -0.0190  0.0243
 9279SOL     OW28735   3.957   6.163   1.937  0.3012  0.1117  0.0944
 9279SOL    HW128736   3.940   6.065   1.949  2.3614 -0.0350  3.0575
 9279SOL    HW228737   4.053   6.178   1.914 -0.2326  1.4336 -1.4401
 9280SOL     OW28738   1.005   3.443   2.868 -0.0083 -0.4394 -0.3263
 9280SOL    HW128739   1.056   3.467   2.950 -0.8538 -0.9243  0.3591
 9280SOL    HW228740   0.971   3.349   2.876  0.3180 -0.6584 -1.4449
 9281SOL     OW28741   1.752   4.941   1.857  0.0645 -0.0487  0.4977
 9281SOL    HW128742   1.776   5.037   1.842  0.6416 -0.3180 -0.3547
 9281SOL    HW228743   1.672   4.917   1.802 -0.2213 -0.0024  0.8869
 9282SOL     OW28744   2.739   1.371   4.188  0.5587  0.0195  0.0799
 9282SOL    HW128745   2.696   1.462   4.193 -0.4819  0.0399 -4.6011
 9282SOL    HW228746   2.817   1.374   4.125 -0.6656 -2.5784 -1.7565
 9283SOL     OW28747   3.801   5.497   0.298 -0.2628  0.4039 -0.5262
 9283SOL    HW128748   3.883   5.499   0.241 -1.2403 -0.8278 -2.0780
 9283SOL    HW228749   3.735   5.564   0.263 -1.1135 -0.7898 -1.2999
 9284SOL     OW28750   3.346   6.028   3.141 -0.1509  0.0321 -0.1666
 9284SOL    HW128751   3.443   6.006   3.130  0.1602  1.0623  0.4246
 9284SOL    HW228752   3.323   6.108   3.085 -1.1116 -1.2855 -1.7590
 9285SOL     OW28753   6.415   0.202   1.760 -0.1563  0.0746  0.3821
 9285SOL    HW128754   6.401   0.295   1.726 -2.8352  0.6542  2.7034
 9285SOL    HW228755   6.464   0.206   1.848  0.2930 -0.7883  0.1805
 9286SOL     OW28756   5.732   6.616   0.172 -0.2904  0.0695  0.5827
 9286SOL    HW128757   5.718   6.552   0.247  1.1808 -0.4765  0.4225
 9286SOL    HW228758   5.780   6.696   0.205 -1.0514  0.5640  0.5288
 9287SOL     OW28759   5.828   3.163   0.513  0.0977 -0.2331  0.3994
 9287SOL    HW128760   5.798   3.068   0.505  0.9464 -0.5706  1.0647
 9287SOL    HW228761   5.927   3.168   0.500 -0.0171  0.6602 -0.2899
 9288SOL     OW28762   2.943   1.167   5.154 -0.3785  0.2795 -0.1197
 9288SOL    HW128763   3.007   1.227   5.105  0.2922 -0.7123 -0.5009
 9288SOL    HW228764   2.899   1.218   5.228 -0.9164  1.6319 -1.3259
 9289SOL     OW28765   4.763   6.142   2.839  0.2172 -0.9299 -0.1261
 9289SOL    HW128766   4.697   6.156   2.913 -1.3984 -2.8475 -1.1122
 9289SOL    HW228767   4.751   6.212   2.769 -0.4800 -1.0232 -0.0996
 9290SOL     OW28768   6.052   0.145   3.639  0.1528 -1.0015 -0.0123
 9290SOL    HW128769   6.011   0.133   3.549  0.2617 -1.2488 -0.0287
 9290SOL    HW228770   6.148   0.169   3.630  0.3011 -1.5418  0.0396
 9291SOL     OW28771   0.940   4.859   5.415 -0.0532 -0.1838 -0.2230
 9291SOL    HW128772   0.872   4.906   5.358 -1.5462 -0.7212  1.0218
 9291SOL    HW228773   0.960   4.916   5.495 -0.7744 -0.9997  0.5589
 9292SOL     OW28774   1.421   3.475   0.079 -0.2492 -0.6588 -0.1819
 9292SOL    HW128775   1.350   3.405   0.078 -0.6827 -0.2352  0.1723
 9292SOL    HW228776   1.455   3.489  -0.014 -1.0752 -0.4337 -0.4653
 9293SOL     OW28777   4.429   0.360   5.048  0.7948 -0.2932  0.3349
 9293SOL    HW128778   4.484   0.398   5.122 -0.1925  0.6337  0.5931
 9293SOL    HW228779   4.450   0.408   4.963 -0.1822  0.5999  0.5889
 9294SOL     OW28780   5.433   5.188   0.834 -0.7413  0.2664  0.2847
 9294SOL    HW128781   5.347   5.158   0.792 -1.5571  1.1552  1.2590
 9294SOL    HW228782   5.506   5.185   0.767 -1.6304 -0.1018 -0.6863
 9295SOL     OW28783   5.979   1.245   3.041  0.0702  0.4593 -0.4756
 9295SOL    HW128784   5.881   1.250   3.025 -0.1690 -1.2022  0.2611
 9295SOL    HW228785   6.022   1.331   3.013 -1.5540  1.1498 -0.9596
 9296SOL     OW28786   2.130   2.801   5.953 -0.3247 -0.4855  0.4052
 9296SOL    HW128787   2.049   2.835   5.905 -0.3444 -0.7886  0.2197
 9296SOL    HW228788   2.209   2.858   5.929 -0.5258 -0.0456  0.7714
 9297SOL     OW28789   0.126   5.504   2.629 -0.1766  0.0075 -0.7522
 9297SOL    HW128790   0.197   5.485   2.696 -0.1298  0.6116 -0.6219
 9297SOL    HW228791   0.072   5.583   2.659 -1.6238 -1.1184 -0.3011
 9298SOL     OW28792   6.625   5.022   0.881  0.7375  0.1008 -0.1903
 9298SOL    HW128793   6.661   4.951   0.821  2.7386  2.6479 -2.2433
 9298SOL    HW228794   6.581   5.094   0.826 -0.6726  0.8123  1.7338
 9299SOL     OW28795   3.973   1.711   3.605 -0.0828  0.7092 -0.0533
 9299SOL    HW128796   3.993   1.791   3.662  4.3664 -0.7409  0.8859
 9299SOL    HW228797   3.989   1.734   3.509  2.5006  0.8022  0.3120
 9300SOL     OW28798   1.838   2.170   4.311  0.4257  0.0078 -0.3911
 9300SOL    HW128799   1.774   2.237   4.349  0.2404 -0.2436 -0.2613
 9300SOL    HW228800   1.913   2.156   4.376  1.4212  1.4264 -1.1768
 9301SOL     OW28801   2.171   4.035   4.647 -0.0642  0.6464  0.0307
 9301SOL    HW128802   2.189   4.059   4.742 -1.1352  1.0905  0.1373
 9301SOL    HW228803   2.128   4.112   4.601 -1.0108 -0.0981 -0.3782
 9302SOL     OW28804   3.394   6.260   2.140  0.0421  0.1852 -0.3310
 9302SOL    HW128805   3.393   6.210   2.226 -0.2898  2.1765  0.8882
 9302SOL    HW228806   3.439   6.348   2.154 -2.6237  1.8287 -1.4091
 9303SOL     OW28807   1.480   3.944   0.732  0.3025 -0.5533  0.0551
 9303SOL    HW128808   1.493   4.032   0.687 -0.6387 -0.6534 -0.4355
 9303SOL    HW228809   1.550   3.880   0.699  1.1502  0.0576  0.6034
 9304SOL     OW28810   6.805   4.316   5.333 -0.2547  0.0998 -0.9336
 9304SOL    HW128811   6.803   4.390   5.400 -0.7444  0.0411 -0.8775
 9304SOL    HW228812   6.882   4.330   5.270  0.2413  0.1178 -0.3216
 9305SOL     OW28813   2.344   2.327   1.631 -0.3963 -0.0214  0.3044
 9305SOL    HW128814   2.251   2.322   1.595 -0.0024  1.6423 -1.0620
 9305SOL    HW228815   2.351   2.269   1.712 -2.1114 -1.6277 -0.6110
 9306SOL     OW28816   6.273   5.988   3.672  0.3926  0.3460  0.2692
 9306SOL    HW128817   6.262   6.072   3.725  2.2876  1.0005 -0.2712
 9306SOL    HW228818   6.189   5.935   3.674 -0.0057  0.9668  2.8438
 9307SOL     OW28819   1.906   3.947   1.547 -0.0556  0.6276  0.2960
 9307SOL    HW128820   1.848   4.028   1.556  0.9991  1.5329 -0.6878
 9307SOL    HW228821   1.998   3.975   1.519  0.2994 -0.9272 -0.2011
 9308SOL     OW28822   2.857   3.440   6.681 -0.5508 -0.6933  0.2241
 9308SOL    HW128823   2.884   3.367   6.743  0.0421 -0.3763  0.3510
 9308SOL    HW228824   2.920   3.517   6.692 -1.3812 -0.0262  0.3512
 9309SOL     OW28825   4.143   5.921   5.748 -0.0294 -0.1600  0.2051
 9309SOL    HW128826   4.066   5.861   5.730 -2.7469  2.3834  2.3389
 9309SOL    HW228827   4.166   5.916   5.846  1.6228  0.2243 -0.1265
 9310SOL     OW28828   6.209   2.596   0.036  0.1799  0.6447 -0.1003
 9310SOL    HW128829   6.259   2.599  -0.050 -0.6247  0.5734 -0.5804
 9310SOL    HW228830   6.222   2.682   0.085  0.2864  0.8574 -0.4988
 9311SOL     OW28831   4.444   4.263   5.529  0.7309  0.2707  1.0110
 9311SOL    HW128832   4.524   4.281   5.586  0.7161 -0.4106  1.2524
 9311SOL    HW228833   4.463   4.187   5.467  0.6480  0.8235  0.2984
 9312SOL     OW28834   5.927   2.815   4.417 -0.2532  0.0837 -0.2854
 9312SOL    HW128835   5.862   2.890   4.404  1.0293  1.7467  2.0087
 9312SOL    HW228836   6.017   2.843   4.384  0.0258 -0.8373 -0.3220
 9313SOL     OW28837   0.242   0.084   3.545 -0.1094  0.1860 -0.6382
 9313SOL    HW128838   0.332   0.113   3.575 -0.1456  0.2942 -0.6326
 9313SOL    HW228839   0.213   0.004   3.598  0.9470 -1.2996 -2.1797
 9314SOL     OW28840   5.074   4.867   6.304 -0.3041  0.2756 -0.5834
 9314SOL    HW128841   5.055   4.833   6.212  0.1388 -0.8361 -0.2822
 9314SOL    HW228842   5.152   4.817   6.343 -0.7880  0.3876  0.5795
 9315SOL     OW28843   5.248   6.151   4.192 -0.5091  0.0789 -0.6382
 9315SOL    HW128844   5.289   6.087   4.127  1.5178 -0.2880  0.8973
 9315SOL    HW228845   5.178   6.103   4.246 -1.0919 -0.0204 -1.4563
 9316SOL     OW28846   5.136   5.431   6.621 -0.0135 -0.3500  0.5072
 9316SOL    HW128847   5.232   5.415   6.642  0.4962  1.1942 -0.5006
 9316SOL    HW228848   5.113   5.389   6.533 -0.1573 -0.4068  0.5716
 9317SOL     OW28849   3.952   0.804   4.194  0.2464  0.2501 -0.3704
 9317SOL    HW128850   3.936   0.761   4.283 -0.4177  1.0091 -0.1130
 9317SOL    HW228851   3.893   0.760   4.125 -0.6691  0.9312 -0.0453
 9318SOL     OW28852   4.413   6.886   5.487 -0.3633  0.0440 -0.2834
 9318SOL    HW128853   4.466   6.839   5.417 -0.9648  0.6411 -1.1607
 9318SOL    HW228854   4.417   6.834   5.573  2.3269  0.4933 -0.0464
 9319SOL     OW28855   3.235   1.396   6.562 -0.0121 -0.1010 -0.1847
 9319SOL    HW128856   3.182   1.385   6.647  0.3401 -0.1480  0.0316
 9319SOL    HW228857   3.175   1.429   6.490 -0.1210  0.8342  0.3189
 9320SOL     OW28858   6.903   0.324   0.052  0.0939 -0.4936 -0.1218
 9320SOL    HW128859   6.982   0.338   0.112  0.5463 -1.6890 -0.3900
 9320SOL    HW228860   6.823   0.301   0.106 -0.0650  0.6987  0.1531
 9321SOL     OW28861   1.813   3.312   4.652 -0.4850  0.4311  0.4831
 9321SOL    HW128862   1.808   3.235   4.716  1.3198  0.9744  1.3411
 9321SOL    HW228863   1.884   3.295   4.584 -0.4533  1.0835  0.3456
 9322SOL     OW28864   5.448   4.386   1.014  0.0774  0.6265 -0.1012
 9322SOL    HW128865   5.427   4.300   1.059  0.0535  1.0807  0.7869
 9322SOL    HW228866   5.539   4.381   0.972 -0.1488 -0.0032 -0.5283
 9323SOL     OW28867   0.057   2.928   5.807 -1.1735  0.8500  0.3694
 9323SOL    HW128868   0.144   2.933   5.759 -1.3898  0.8179 -0.0315
 9323SOL    HW228869   0.048   3.007   5.868 -0.6632  0.6078  0.7674
 9324SOL     OW28870   6.588   3.612   2.165 -0.1508 -0.1270  0.1838
 9324SOL    HW128871   6.648   3.576   2.237  2.7422  1.6263 -1.1638
 9324SOL    HW228872   6.513   3.663   2.207 -0.0630 -1.3622  1.9440
 9325SOL     OW28873   0.814   2.322   4.250 -0.4871  0.0688 -0.3918
 9325SOL    HW128874   0.755   2.269   4.310 -0.6426 -0.1749 -0.7582
 9325SOL    HW228875   0.770   2.410   4.229 -0.5663  0.0303 -0.3863
 9326SOL     OW28876   3.533   3.987   0.682  0.0382  0.2293 -0.3641
 9326SOL    HW128877   3.607   3.970   0.748  0.0870 -0.4613 -0.5901
 9326SOL    HW228878   3.561   4.060   0.620  0.3881  0.2206 -0.2243
 9327SOL     OW28879   2.634   1.398   1.907  0.0017  0.6457  0.6156
 9327SOL    HW128880   2.537   1.419   1.912 -0.5348 -1.6202  0.6338
 9327SOL    HW228881   2.682   1.444   1.982 -1.1902  0.9782  1.1991
 9328SOL     OW28882   0.891   6.960   5.089 -0.0442 -0.0264 -0.3659
 9328SOL    HW128883   0.883   7.044   5.035  1.0053  0.0621 -0.3912
 9328SOL    HW228884   0.892   6.982   5.186 -0.0418 -0.0314 -0.3650
 9329SOL     OW28885   1.936   5.190   5.206 -0.1352 -0.4733  0.3823
 9329SOL    HW128886   1.992   5.271   5.224  0.4593 -0.9487  0.6841
 9329SOL    HW228887   1.946   5.124   5.281 -0.6465 -0.8116  0.1600
 9330SOL     OW28888   1.512   0.515   1.613  0.2671 -0.3983  0.5265
 9330SOL    HW128889   1.426   0.546   1.570 -0.5957 -0.7960  1.9090
 9330SOL    HW228890   1.588   0.533   1.551 -0.9128 -0.8790 -1.1514
 9331SOL     OW28891   4.383   5.207   4.022 -0.3259 -0.8551  0.0966
 9331SOL    HW128892   4.368   5.244   3.930 -0.4717 -1.4282 -0.1146
 9331SOL    HW228893   4.304   5.228   4.080  0.4610  0.9613  0.5903
 9332SOL     OW28894   6.270   6.245   0.020  0.4233 -0.1638 -0.3832
 9332SOL    HW128895   6.228   6.287  -0.060  0.9953  0.5669 -0.3143
 9332SOL    HW228896   6.364   6.276   0.029  1.2055 -2.2409 -0.8766
 9333SOL     OW28897   2.378   4.204   1.888  0.0808  0.6672  0.8886
 9333SOL    HW128898   2.454   4.169   1.944 -0.2233 -0.1050  0.8257
 9333SOL    HW228899   2.413   4.274   1.825  0.9186 -0.2933  0.2535
 9334SOL     OW28900   0.785   5.656   6.165 -0.3561  0.1937 -0.2354
 9334SOL    HW128901   0.847   5.610   6.100  0.8531  0.1844  0.8801
 9334SOL    HW228902   0.769   5.750   6.135 -0.0475  0.1013 -0.7043
 9335SOL     OW28903   1.078   4.228   1.504  0.1882 -0.0192  0.8161
 9335SOL    HW128904   1.095   4.130   1.508  0.3433 -0.0502 -0.3622
 9335SOL    HW228905   0.980   4.245   1.496 -0.1100  0.0353  3.6066
 9336SOL     OW28906   4.569   5.984   5.038  0.1194  0.5165  0.4588
 9336SOL    HW128907   4.570   6.081   5.062 -0.1473  0.2386  1.6563
 9336SOL    HW228908   4.551   5.929   5.120  0.5348 -0.5642 -0.1472
 9337SOL     OW28909   1.843   1.124   6.261  0.5358  0.6625  0.2781
 9337SOL    HW128910   1.818   1.141   6.356  1.0350  1.0572  0.3398
 9337SOL    HW228911   1.891   1.036   6.254  0.9150  0.8565  0.4583
 9338SOL     OW28912   4.805   0.745   2.142 -0.0479 -0.0893  0.3399
 9338SOL    HW128913   4.837   0.779   2.230 -1.8069 -0.3089  1.0910
 9338SOL    HW228914   4.712   0.777   2.125 -0.1809 -1.0426 -0.8794
 9339SOL     OW28915   0.388   3.080   4.855 -0.3221 -0.5542 -0.1043
 9339SOL    HW128916   0.325   3.147   4.893  0.6522 -0.3957  1.3296
 9339SOL    HW228917   0.452   3.126   4.793 -0.1644 -0.2832  0.2531
 9340SOL     OW28918   3.146   5.903   1.680  0.1219 -0.3181  0.0999
 9340SOL    HW128919   3.203   5.935   1.605  0.1566 -1.7265 -0.5051
 9340SOL    HW228920   3.063   5.861   1.643 -0.8407  0.7773  0.9311
 9341SOL     OW28921   4.761   5.346   2.059 -0.0070 -0.2229 -0.4455
 9341SOL    HW128922   4.828   5.388   2.120  0.8780 -0.3623 -1.2915
 9341SOL    HW228923   4.690   5.301   2.113  0.2331  0.4594  0.4680
 9342SOL     OW28924   3.070   1.510   6.395 -0.0514  0.1685 -0.0914
 9342SOL    HW128925   3.108   1.602   6.383  2.3244 -0.9724 -2.1593
 9342SOL    HW228926   2.972   1.511   6.376  0.0727  2.1219 -0.7934
 9343SOL     OW28927   4.259   3.096   6.798 -0.1583  0.3053  0.3283
 9343SOL    HW128928   4.303   3.184   6.782 -0.6101  0.8744  2.0844
 9343SOL    HW228929   4.293   3.056   6.883  0.3292 -1.4276 -0.6318
 9344SOL     OW28930   2.651   6.189   3.509  0.0298  0.0256  0.3624
 9344SOL    HW128931   2.620   6.279   3.480  1.1190 -0.2882 -2.0034
 9344SOL    HW228932   2.689   6.196   3.602  0.8120  2.1856 -0.0442
 9345SOL     OW28933   0.117   4.290   6.510  0.2076  0.5023  0.0126
 9345SOL    HW128934   0.058   4.270   6.588 -1.0618  1.0225 -0.7705
 9345SOL    HW228935   0.210   4.310   6.542 -0.3837  1.1169  1.4237
 9346SOL     OW28936   5.061   2.685   2.751 -0.1456 -0.0033 -0.1020
 9346SOL    HW128937   4.969   2.659   2.722 -0.0137 -0.6507  0.0439
 9346SOL    HW228938   5.062   2.697   2.851  0.3156 -1.7682  0.1526
 9347SOL     OW28939   4.182   6.954   0.409  0.3672 -0.0552 -0.7513
 9347SOL    HW128940   4.215   6.987   0.321 -0.5367  1.0909 -0.6807
 9347SOL    HW228941   4.126   7.024   0.452 -2.3301 -1.9295 -0.9567
 9348SOL     OW28942   2.112   6.121   2.825  0.5224  0.7740  0.3545
 9348SOL    HW128943   2.046   6.117   2.900 -0.3961 -0.7711 -0.4786
 9348SOL    HW228944   2.093   6.047   2.760  2.2921  1.0872 -0.5810
 9349SOL     OW28945   0.118   3.584   2.464 -0.3391 -0.0071 -0.0148
 9349SOL    HW128946   0.188   3.611   2.398 -3.6385  2.0527 -2.9891
 9349SOL    HW228947   0.077   3.666   2.505 -2.1375 -1.0288  0.3436
 9350SOL     OW28948   5.703   1.475   0.939 -0.2478 -0.0484 -0.1683
 9350SOL    HW128949   5.692   1.444   1.034 -0.8952 -0.6158 -0.4098
 9350SOL    HW228950   5.623   1.529   0.913  0.6603  1.4550  0.0941
 9351SOL     OW28951   2.922   5.340   6.355  0.2091 -0.5547  0.0959
 9351SOL    HW128952   2.917   5.349   6.455  2.5831 -2.2444  0.4690
 9351SOL    HW228953   2.955   5.426   6.316 -0.8516  0.1620  0.7227
 9352SOL     OW28954   2.524   1.872   0.209  0.4281  0.7050 -0.0881
 9352SOL    HW128955   2.515   1.918   0.297  1.4785  1.3616 -0.2998
 9352SOL    HW228956   2.602   1.912   0.159 -1.2571  1.6503 -2.1001
 9353SOL     OW28957   0.479   3.999   2.938 -0.7056 -0.1708 -0.1922
 9353SOL    HW128958   0.534   4.046   3.008 -0.2107  0.6236 -1.0876
 9353SOL    HW228959   0.538   3.975   2.861 -1.1573 -1.4471 -0.1644
 9354SOL     OW28960   5.596   2.277   2.239  0.4368  0.6434  0.1189
 9354SOL    HW128961   5.690   2.304   2.259  0.3051  2.0578 -0.9477
 9354SOL    HW228962   5.542   2.359   2.217 -0.4023 -0.3444 -1.7395
 9355SOL     OW28963   0.557   2.398   0.445  0.4764  0.6083 -0.3135
 9355SOL    HW128964   0.462   2.387   0.473  0.0074 -0.6106 -2.1375
 9355SOL    HW228965   0.585   2.493   0.455 -0.9015  0.9628  0.3503
 9356SOL     OW28966   4.131   2.060   1.083  0.1136  0.1791  0.3267
 9356SOL    HW128967   4.060   2.059   1.012  1.0977  1.4037 -0.7220
 9356SOL    HW228968   4.138   2.152   1.122  0.1916 -0.2714  1.4111
 9357SOL     OW28969   0.627   4.358   0.914  0.2670 -0.2848 -0.5560
 9357SOL    HW128970   0.532   4.371   0.886 -0.2944 -1.5506  0.6265
 9357SOL    HW228971   0.648   4.261   0.919  1.5543 -0.0332 -0.5418
 9358SOL     OW28972   4.913   0.082   1.963 -0.1350  0.3132 -0.6575
 9358SOL    HW128973   4.946  -0.010   1.940  1.6168  0.8053 -0.2653
 9358SOL    HW228974   4.900   0.089   2.062 -0.7860  0.3255 -0.7436
 9359SOL     OW28975   4.064   3.698   4.631 -0.3640 -0.5848  0.3768
 9359SOL    HW128976   4.068   3.599   4.618  0.5917 -0.5189  0.1395
 9359SOL    HW228977   4.125   3.724   4.706 -1.6288 -0.3153  1.3651
 9360SOL     OW28978   2.933   1.556   2.878  0.1611 -0.5426  0.1438
 9360SOL    HW128979   2.957   1.643   2.921  0.7069  0.0780 -1.3260
 9360SOL    HW228980   2.929   1.484   2.947 -0.4732  0.6692  1.4152
 9361SOL     OW28981   0.792   2.587   0.729  0.4218 -0.0515 -0.6518
 9361SOL    HW128982   0.737   2.596   0.646 -0.6712  2.2850  0.2537
 9361SOL    HW228983   0.846   2.670   0.742  2.0685 -1.1738 -0.0161
 9362SOL     OW28984   0.323   0.819   2.890 -0.9329 -0.1075  0.2567
 9362SOL    HW128985   0.371   0.790   2.973 -0.4241 -0.0732 -0.0242
 9362SOL    HW228986   0.241   0.871   2.915 -0.0756  1.0488  0.7287
 9363SOL     OW28987   0.132   0.561   2.544  0.2699  0.0362 -0.1504
 9363SOL    HW128988   0.081   0.633   2.496  1.4093  0.7207 -0.3833
 9363SOL    HW228989   0.219   0.599   2.576  1.4381 -1.5188 -1.3178
 9364SOL     OW28990   6.087   2.930   0.047  0.4580  0.1780 -0.2786
 9364SOL    HW128991   6.112   3.026   0.033 -1.9121  0.7848 -0.6684
 9364SOL    HW228992   6.133   2.874  -0.023  2.3900  0.8867  0.3608
 9365SOL     OW28993   2.254   6.672   6.247 -0.8056  0.4077 -0.0745
 9365SOL    HW128994   2.167   6.670   6.296 -0.3340 -0.0105  0.7834
 9365SOL    HW228995   2.243   6.631   6.157 -1.0132 -1.8574  0.9028
 9366SOL     OW28996   1.850   2.284   2.131 -0.4236  0.1458  0.5198
 9366SOL    HW128997   1.811   2.258   2.043  0.1351  2.3664 -0.4641
 9366SOL    HW228998   1.943   2.248   2.139  0.5885  2.1687 -1.0973
 9367SOL     OW28999   3.011   6.749   4.843  0.0965  0.4344 -0.0539
 9367SOL    HW129000   2.951   6.712   4.915 -0.3357 -0.2414 -0.7505
 9367SOL    HW229001   2.976   6.723   4.753 -1.0020  3.6041 -0.6954
 9368SOL     OW29002   3.331   1.829   0.533 -0.0089 -0.0561 -0.0007
 9368SOL    HW129003   3.255   1.894   0.530  0.1316  0.1023 -0.1503
 9368SOL    HW229004   3.297   1.739   0.557 -0.2476  0.0104 -0.0935
 9369SOL     OW29005   0.350   0.973   4.505  0.0388  0.4787 -0.3165
 9369SOL    HW129006   0.413   1.049   4.493  1.4081 -0.6559 -0.6459
 9369SOL    HW229007   0.288   0.992   4.581 -0.2285  2.2645 -0.9526
 9370SOL     OW29008   3.175   4.877   3.328 -0.3247 -0.0032  0.3209
 9370SOL    HW129009   3.261   4.888   3.378 -0.0241 -2.2654  0.4346
 9370SOL    HW229010   3.194   4.847   3.235 -0.9788  1.2956 -0.2579
 9371SOL     OW29011   1.352   5.717   0.962  0.1943  0.7029  0.1970
 9371SOL    HW129012   1.335   5.804   0.916 -1.7592  0.7640  0.9300
 9371SOL    HW229013   1.275   5.655   0.944  0.5356 -0.1116  1.4424
 9372SOL     OW29014   5.279   5.756   5.017  0.1821  0.5419  0.8718
 9372SOL    HW129015   5.231   5.669   5.006  0.3539  0.2430  2.3361
 9372SOL    HW229016   5.374   5.745   4.990 -0.0333  0.5742  0.0483
 9373SOL     OW29017   5.681   4.354   4.066 -0.0975 -0.1909 -0.2804
 9373SOL    HW129018   5.642   4.310   3.985 -0.3327 -0.7902  0.1506
 9373SOL    HW229019   5.608   4.401   4.117  0.2280  1.1031 -0.9833
 9374SOL     OW29020   6.562   3.645   0.391 -0.3688  0.1583  0.4608
 9374SOL    HW129021   6.608   3.694   0.465 -2.2046  1.6539  0.6847
 9374SOL    HW229022   6.470   3.618   0.421 -0.8071 -0.0056 -0.9578
 9375SOL     OW29023   0.100   6.654   4.073 -0.4443  0.4806 -0.0425
 9375SOL    HW129024   0.028   6.723   4.071 -0.3712  0.8083  3.1372
 9375SOL    HW229025   0.123   6.632   4.168  1.6964 -1.6984 -0.9422
 9376SOL     OW29026   2.068   3.909   1.085 -0.3288 -0.7631 -0.7079
 9376SOL    HW129027   2.007   3.874   1.156 -1.4517 -1.3484 -1.9252
 9376SOL    HW229028   2.152   3.853   1.083 -0.3252 -0.7949  0.0877
 9377SOL     OW29029   6.080   2.588   2.331 -0.3497 -0.3376  0.1503
 9377SOL    HW129030   6.078   2.688   2.339  1.1740 -0.1943 -0.8567
 9377SOL    HW229031   6.155   2.552   2.386  1.8339 -0.4885 -2.7105
 9378SOL     OW29032   3.572   6.076   0.712  0.2556  0.0534  0.2347
 9378SOL    HW129033   3.599   6.172   0.725 -0.0599 -0.0058  1.4812
 9378SOL    HW229034   3.632   6.018   0.768 -0.6007 -0.3203  0.7787
 9379SOL     OW29035   4.999   4.728   5.362 -0.2436 -0.4679 -0.2106
 9379SOL    HW129036   5.030   4.711   5.456 -0.7775  0.9576  0.2525
 9379SOL    HW229037   4.913   4.678   5.347 -2.0832  1.9740  1.3088
 9380SOL     OW29038   2.260   5.631   5.923  1.1595  0.3585 -0.6468
 9380SOL    HW129039   2.265   5.603   5.827  0.8038  0.8086 -0.7972
 9380SOL    HW229040   2.304   5.720   5.934  3.0267 -0.5966 -0.0229
 9381SOL     OW29041   1.084   6.504   0.580 -0.5773 -0.3568 -0.0204
 9381SOL    HW129042   1.127   6.471   0.496 -1.5281 -0.9967 -0.2774
 9381SOL    HW229043   1.145   6.491   0.658  0.1025 -0.2419 -0.5332
 9382SOL     OW29044   6.155   3.418   2.398 -0.0720  0.1503  0.1856
 9382SOL    HW129045   6.193   3.487   2.460  2.2708 -1.4488  0.6403
 9382SOL    HW229046   6.087   3.364   2.447 -0.0166  0.4607  0.6116
 9383SOL     OW29047   6.962   4.988   0.791  0.6270  0.2587  0.3942
 9383SOL    HW129048   6.992   5.002   0.697 -2.2918 -1.2088 -0.8693
 9383SOL    HW229049   6.990   4.896   0.821  1.2262  0.5840  0.8638
 9384SOL     OW29050   2.640   6.763   1.534  0.0628 -0.2077 -0.8242
 9384SOL    HW129051   2.560   6.704   1.523 -0.2963  0.4608 -1.9976
 9384SOL    HW229052   2.619   6.836   1.599  0.3877 -1.1381  0.3519
 9385SOL     OW29053   5.211   0.706   4.969  0.1940 -0.1141  0.1608
 9385SOL    HW129054   5.145   0.634   4.992 -0.7685  0.9081  0.6492
 9385SOL    HW229055   5.224   0.709   4.870 -2.8501  1.6411 -0.3080
 9386SOL     OW29056   2.550   6.941   1.709  0.0286  0.0730 -0.0916
 9386SOL    HW129057   2.616   6.969   1.779 -0.1301  0.1998  0.0089
 9386SOL    HW229058   2.458   6.950   1.745 -0.0423 -0.1835 -0.2032
 9387SOL     OW29059   4.282   5.937   1.682 -0.7582 -0.6663 -0.5156
 9387SOL    HW129060   4.190   5.904   1.703 -1.5121  1.8759  0.5271
 9387SOL    HW229061   4.324   5.975   1.764  0.4527 -0.0215 -1.3912
 9388SOL     OW29062   5.299   1.668   1.956  0.1458  0.4071  0.4133
 9388SOL    HW129063   5.387   1.699   1.920  0.6562 -1.2235  0.1852
 9388SOL    HW229064   5.226   1.687   1.890  0.5742  0.3769 -0.0712
 9389SOL     OW29065   3.962   1.668   1.090 -0.0290  0.0461 -0.1480
 9389SOL    HW129066   3.874   1.715   1.104  0.2937  0.5559  0.2162
 9389SOL    HW229067   4.032   1.712   1.146 -0.1052 -2.1202  1.7973
 9390SOL     OW29068   3.297   6.411   1.046  0.0015  0.1022 -0.1525
 9390SOL    HW129069   3.303   6.323   0.999 -1.3837  0.4628 -1.0932
 9390SOL    HW229070   3.381   6.463   1.030 -0.2038 -0.0070 -1.8503
 9391SOL     OW29071   6.315   6.699   4.429 -0.0570 -0.1265  0.0407
 9391SOL    HW129072   6.357   6.622   4.476  1.5054  1.3575  1.1848
 9391SOL    HW229073   6.226   6.720   4.470 -0.5430 -1.3433 -0.3526
 9392SOL     OW29074   1.195   0.259   5.414 -0.0433 -0.5652  0.3007
 9392SOL    HW129075   1.263   0.238   5.344  0.4129 -0.7022  0.7831
 9392SOL    HW229076   1.129   0.184   5.419  0.6909 -1.1829  0.9373
 9393SOL     OW29077   4.384   2.223   3.883  0.4703 -0.1072 -0.4860
 9393SOL    HW129078   4.437   2.165   3.822 -1.5942 -2.8586  0.0987
 9393SOL    HW229079   4.421   2.217   3.976  0.9462  0.4388 -0.6417
 9394SOL     OW29080   4.611   0.361   2.314  0.6533 -0.5702 -0.1771
 9394SOL    HW129081   4.515   0.333   2.310 -0.7506  3.6707 -1.7253
 9394SOL    HW229082   4.633   0.390   2.408 -0.4675  0.8197 -0.3064
 9395SOL     OW29083   2.038   2.505   0.742 -0.1369 -0.0880  0.3278
 9395SOL    HW129084   2.050   2.481   0.645 -0.0059  0.3729  0.2259
 9395SOL    HW229085   2.072   2.430   0.799  0.1805 -0.1861  0.0182
 9396SOL     OW29086   0.302   1.113   6.406 -0.4370 -0.2550  0.5100
 9396SOL    HW129087   0.323   1.040   6.341 -1.0288 -0.9185  1.0397
 9396SOL    HW229088   0.378   1.124   6.470 -1.1828 -1.9182  1.7680
 9397SOL     OW29089   2.096   2.495   0.247 -0.2786  0.9840  0.4968
 9397SOL    HW129090   2.078   2.528   0.154 -3.8584  1.6286  1.2655
 9397SOL    HW229091   2.098   2.573   0.309  0.5247  0.4385  1.1661
 9398SOL     OW29092   2.496   3.246   0.777  0.2005 -0.2645 -0.3613
 9398SOL    HW129093   2.407   3.284   0.750  0.1109 -0.2642 -0.0683
 9398SOL    HW229094   2.491   3.213   0.871  1.0411  1.4601  0.3352
 9399SOL     OW29095   0.126   1.594   5.252  0.3947 -0.2388  0.3131
 9399SOL    HW129096   0.205   1.572   5.194  0.1585  0.1841 -0.1741
 9399SOL    HW229097   0.075   1.510   5.271  0.4355 -0.3731 -0.1472
 9400SOL     OW29098   5.304   2.102   3.551 -0.0569 -0.1699  0.4587
 9400SOL    HW129099   5.337   2.064   3.637 -0.0369 -0.2115  0.4334
 9400SOL    HW229100   5.365   2.176   3.522  0.0343 -0.2678  0.3962
 9401SOL     OW29101   2.379   6.191   3.455  0.4401  0.4100  0.1337
 9401SOL    HW129102   2.428   6.264   3.406  0.5930  0.1330 -0.1274
 9401SOL    HW229103   2.444   6.136   3.506  0.6648 -1.0890 -1.6622
 9402SOL     OW29104   1.255   5.118   5.329  0.2370  0.3931  1.1084
 9402SOL    HW129105   1.274   5.202   5.379  1.0424  0.0839  1.3343
 9402SOL    HW229106   1.318   5.109   5.252  0.1938 -0.0316  1.1194
 9403SOL     OW29107   1.637   1.468   4.035  0.3459  0.5360 -0.1167
 9403SOL    HW129108   1.593   1.462   4.124  1.6362  2.8257  0.7712
 9403SOL    HW229109   1.727   1.423   4.039 -0.8343 -2.1308 -1.2625
 9404SOL     OW29110   2.457   4.520   4.561  0.1322 -0.1839 -0.3992
 9404SOL    HW129111   2.409   4.439   4.525 -1.4483  0.0652  1.0216
 9404SOL    HW229112   2.480   4.505   4.657  0.2013  0.8875 -0.2384
 9405SOL     OW29113   6.346   6.611   1.615  0.3300 -0.4975 -0.3772
 9405SOL    HW129114   6.321   6.538   1.678 -0.1263  0.9179  1.1340
 9405SOL    HW229115   6.264   6.646   1.569  0.3020  0.1878  0.1768
 9406SOL     OW29116   0.183   1.602   4.833  0.0908 -0.3329  0.3388
 9406SOL    HW129117   0.092   1.566   4.814  0.3090 -0.9655  0.4373
 9406SOL    HW229118   0.198   1.686   4.781 -1.1822  0.7418  1.6399
 9407SOL     OW29119   2.088   5.295   3.393  0.1172  0.1616 -0.2376
 9407SOL    HW129120   2.041   5.331   3.312  0.7444  2.4451  0.3480
 9407SOL    HW229121   2.055   5.203   3.412  0.5470 -0.8024 -3.5484
 9408SOL     OW29122   2.878   1.638   0.697  0.2846  0.6998 -0.1228
 9408SOL    HW129123   2.873   1.580   0.616  0.1914 -0.8333  0.9459
 9408SOL    HW229124   2.874   1.734   0.669  0.4476  0.2185 -1.9366
 9409SOL     OW29125   0.041   3.529   3.113 -0.4013 -0.3223 -0.6314
 9409SOL    HW129126   0.034   3.614   3.165 -2.0561 -0.2852 -0.8474
 9409SOL    HW229127   0.134   3.519   3.077 -0.1120  1.2673 -0.4073
 9410SOL     OW29128   3.558   6.519   2.102 -0.2321 -0.2887  0.8882
 9410SOL    HW129129   3.495   6.597   2.106  0.3161  0.1155  3.3558
 9410SOL    HW229130   3.582   6.500   2.007 -1.5637  1.5703  0.1194
 9411SOL     OW29131   4.180   4.710   2.732 -0.2119 -0.4584 -0.0859
 9411SOL    HW129132   4.170   4.745   2.639  0.8150  1.8846  0.5864
 9411SOL    HW229133   4.103   4.742   2.788  0.1946 -0.1392  0.3022
 9412SOL     OW29134   1.338   1.158   1.406 -0.2793 -0.5880  0.0320
 9412SOL    HW129135   1.369   1.095   1.477 -1.5136 -0.4413  0.7330
 9412SOL    HW229136   1.241   1.178   1.420 -0.4357 -0.2166 -1.4548
 9413SOL     OW29137   5.697   6.182   3.904 -0.5686  0.2285  0.4318
 9413SOL    HW129138   5.787   6.196   3.864  0.1304 -1.0549  1.4964
 9413SOL    HW229139   5.634   6.252   3.870  0.2493 -0.1451 -2.0162
 9414SOL     OW29140   2.141   0.917   2.780  0.6245 -0.1250 -0.2596
 9414SOL    HW129141   2.219   0.953   2.830 -0.7444  1.0258  1.1530
 9414SOL    HW229142   2.167   0.832   2.735  2.4822 -0.1466  0.7505
 9415SOL     OW29143   1.165   0.169   3.696  0.1892 -0.3789 -0.8544
 9415SOL    HW129144   1.185   0.246   3.635 -0.2319  0.0978 -0.4037
 9415SOL    HW229145   1.186   0.083   3.650  3.9015  0.0445 -0.2175
 9416SOL     OW29146   0.859   1.814   0.995  0.5314 -0.0771 -0.0819
 9416SOL    HW129147   0.871   1.751   0.918  1.4944 -0.9449  0.7443
 9416SOL    HW229148   0.769   1.800   1.035 -0.2201  0.8071 -1.3996
 9417SOL     OW29149   2.104   6.384   4.823 -0.1184 -0.0729 -0.0837
 9417SOL    HW129150   2.035   6.312   4.825 -0.9955  0.7586  0.1543
 9417SOL    HW229151   2.124   6.408   4.728 -0.2779 -0.2046 -0.1517
 9418SOL     OW29152   5.780   5.234   0.153 -0.1061  0.2230 -0.0373
 9418SOL    HW129153   5.823   5.314   0.111 -0.6450 -0.0870 -1.2121
 9418SOL    HW229154   5.692   5.216   0.109 -0.7266 -0.0987  1.2589
 9419SOL     OW29155   3.844   6.249   4.291  0.3179 -0.8209  0.3272
 9419SOL    HW129156   3.894   6.218   4.210  0.6604 -0.8156  0.5338
 9419SOL    HW229157   3.761   6.195   4.302  0.6639 -1.3443  0.4123
 9420SOL     OW29158   1.940   0.955   2.573  0.5244  0.1000  0.7105
 9420SOL    HW129159   1.987   0.951   2.661 -0.8978 -0.1626  1.4897
 9420SOL    HW229160   1.968   0.877   2.516  0.6310 -0.3293  1.3483
 9421SOL     OW29161   0.698   3.616   5.266 -0.0732  1.2125 -0.2893
 9421SOL    HW129162   0.748   3.545   5.216  1.3042 -0.7939  3.5353
 9421SOL    HW229163   0.745   3.703   5.255  1.8421  0.2377 -0.2286
 9422SOL     OW29164   2.716   0.492   1.342  0.3418 -0.1489 -0.4294
 9422SOL    HW129165   2.740   0.424   1.411  0.5881  0.4857  0.1168
 9422SOL    HW229166   2.694   0.579   1.386 -0.5929 -0.0367 -1.0801
 9423SOL     OW29167   4.951   6.029   5.290 -0.3060 -0.1696 -0.1169
 9423SOL    HW129168   4.920   6.118   5.257 -1.8461  0.3520  2.3997
 9423SOL    HW229169   5.048   6.017   5.270 -0.4780  1.2892 -2.0394
 9424SOL     OW29170   3.238   5.764   1.369  0.2198  0.1670  0.2855
 9424SOL    HW129171   3.150   5.798   1.403  0.3807  0.6337  0.2496
 9424SOL    HW229172   3.223   5.702   1.293 -0.0737  0.4030  0.1493
 9425SOL     OW29173   5.556   5.937   1.912  0.3514  0.5169 -0.3246
 9425SOL    HW129174   5.619   5.911   1.839  1.3856 -1.0994  1.0566
 9425SOL    HW229175   5.486   5.867   1.922 -0.3381  1.1924 -0.3613
 9426SOL     OW29176   5.525   6.078   3.103 -0.0513 -0.5495 -0.6336
 9426SOL    HW129177   5.495   6.095   3.197 -0.4211 -2.7218 -0.3258
 9426SOL    HW229178   5.487   6.148   3.043  0.9386  1.4353  0.9289
 9427SOL     OW29179   5.559   3.491   4.157  0.6487 -0.0369 -0.3140
 9427SOL    HW129180   5.480   3.523   4.105  0.1208  0.2205  0.6268
 9427SOL    HW229181   5.603   3.569   4.202  2.2475  0.0271 -1.8744
 9428SOL     OW29182   3.575   6.355   0.756 -0.4688  0.0050 -0.1382
 9428SOL    HW129183   3.624   6.436   0.723 -2.9916  1.6116 -0.1231
 9428SOL    HW229184   3.571   6.357   0.856 -0.2038 -0.3685 -0.1178
 9429SOL     OW29185   6.400   1.110   1.312 -0.3901  0.0749  0.0291
 9429SOL    HW129186   6.367   1.118   1.406  0.3462  1.0487  0.2179
 9429SOL    HW229187   6.437   1.198   1.282 -2.3199  0.3177 -1.8468
 9430SOL     OW29188   6.547   6.187   0.048  0.5063 -0.0235  0.3012
 9430SOL    HW129189   6.572   6.260   0.111  0.5982  1.0099 -0.9077
 9430SOL    HW229190   6.599   6.196  -0.037  0.2866 -1.3126  0.0038
 9431SOL     OW29191   5.546   3.691   0.206  0.1382 -0.7091 -0.4474
 9431SOL    HW129192   5.541   3.628   0.284  0.7983  0.3099  0.4439
 9431SOL    HW229193   5.465   3.748   0.204 -0.6917 -1.8700 -1.5416
 9432SOL     OW29194   5.530   6.270   2.684 -0.6710  0.0557 -0.0753
 9432SOL    HW129195   5.517   6.367   2.663 -0.8643  0.2073  0.6867
 9432SOL    HW229196   5.484   6.214   2.615 -0.4360  0.5016 -0.5993
 9433SOL     OW29197   2.003   5.720   5.032  0.1445 -0.3047  0.1597
 9433SOL    HW129198   1.935   5.678   4.972 -0.7689 -0.0904  1.0269
 9433SOL    HW229199   1.959   5.792   5.086  0.6281 -1.4274  2.1111
 9434SOL     OW29200   6.085   4.943   3.203 -0.7732  0.2866 -0.3588
 9434SOL    HW129201   6.167   4.940   3.260 -1.3251  0.7230  0.4696
 9434SOL    HW229202   6.110   4.970   3.110  0.0222  0.3858 -0.1205
 9435SOL     OW29203   3.397   4.294   6.392  0.4638 -0.1974  0.2601
 9435SOL    HW129204   3.340   4.376   6.402 -0.3792 -0.8166  0.6541
 9435SOL    HW229205   3.359   4.220   6.447  1.6434 -0.6441  0.5025
 9436SOL     OW29206   2.356   1.203   5.257 -0.0057  0.4159  0.0276
 9436SOL    HW129207   2.418   1.279   5.274  0.5719 -0.0969  0.2722
 9436SOL    HW229208   2.332   1.200   5.160  1.2736 -0.0632 -0.2914
 9437SOL     OW29209   6.714   4.937   2.702 -0.3149  0.1949  0.3871
 9437SOL    HW129210   6.654   5.014   2.725  0.3956  0.7315  0.4734
 9437SOL    HW229211   6.680   4.855   2.748 -0.7899  0.5613  0.7145
 9438SOL     OW29212   6.354   6.101   1.621  0.4390 -0.0531 -0.1163
 9438SOL    HW129213   6.280   6.138   1.565 -0.3487  0.4371  1.1893
 9438SOL    HW229214   6.319   6.079   1.712  1.6877 -0.7694  0.2133
 9439SOL     OW29215   0.360   2.316   1.172  0.2660  0.1396  0.2582
 9439SOL    HW129216   0.260   2.326   1.174  0.1609 -0.8694  0.7135
 9439SOL    HW229217   0.386   2.259   1.095  0.8212  3.2626 -2.0589
 9440SOL     OW29218   0.712   6.688   1.729 -0.1777  0.6624  0.1956
 9440SOL    HW129219   0.628   6.725   1.689 -0.9615 -0.3517  0.8839
 9440SOL    HW229220   0.714   6.589   1.719  0.0219  0.4682  1.8748
 9441SOL     OW29221   6.594   4.062   0.370  0.0973  0.3135  0.2998
 9441SOL    HW129222   6.557   4.112   0.449 -0.3444  1.3430 -0.5426
 9441SOL    HW229223   6.529   4.064   0.295  0.5899 -0.5103 -0.1697
 9442SOL     OW29224   0.889   2.750   6.279  0.5612  0.4732  0.0766
 9442SOL    HW129225   0.890   2.845   6.246  1.1871  0.5062  0.1751
 9442SOL    HW229226   0.796   2.715   6.276  0.5548  0.5582 -1.5067
 9443SOL     OW29227   0.214   2.643   6.419 -0.5958 -0.0553 -0.0277
 9443SOL    HW129228   0.118   2.645   6.446 -0.4257  0.2525  0.5920
 9443SOL    HW229229   0.233   2.718   6.356 -0.9972 -0.7748 -1.0327
 9444SOL     OW29230   1.565   4.373   4.935  0.2122  0.4507  0.2999
 9444SOL    HW129231   1.532   4.288   4.976  0.9263  0.0922  0.1406
 9444SOL    HW229232   1.626   4.352   4.859 -0.3418  1.1113 -0.3418
 9445SOL     OW29233   6.984   1.906   1.468 -0.4331 -0.2412  0.3572
 9445SOL    HW129234   6.926   1.875   1.543 -0.9455  0.8348  0.4244
 9445SOL    HW229235   7.075   1.927   1.503 -0.9703  1.3071  0.9336
 9446SOL     OW29236   6.511   4.021   0.062  0.3559 -0.0915 -0.5230
 9446SOL    HW129237   6.446   3.988   0.130  1.5640 -0.3838  0.5100
 9446SOL    HW229238   6.460   4.065  -0.013 -1.1042 -1.4102 -0.3778
 9447SOL     OW29239   6.943   0.137   1.648  0.2841 -0.1679  0.0954
 9447SOL    HW129240   6.850   0.105   1.630  0.6714 -1.3120 -0.0056
 9447SOL    HW229241   6.941   0.213   1.713 -0.9108  1.7928 -2.0935
 9448SOL     OW29242   5.992   6.918   6.473 -0.1778  0.3124 -0.1429
 9448SOL    HW129243   5.924   6.987   6.447 -0.8579 -0.1784  0.3059
 9448SOL    HW229244   5.975   6.888   6.567  1.0628  0.6534  0.2201
 9449SOL     OW29245   4.365   5.592   5.624 -0.1487 -0.1678  0.0684
 9449SOL    HW129246   4.350   5.683   5.584  0.4270  0.0220  0.2656
 9449SOL    HW229247   4.463   5.573   5.624 -0.1762 -0.3319  1.0248
 9450SOL     OW29248   3.632   0.196   3.515  0.1806  0.5208  0.6232
 9450SOL    HW129249   3.620   0.138   3.435  1.8962 -3.2659  2.8333
 9450SOL    HW229250   3.713   0.253   3.503  1.0499 -0.7962  0.0170
 9451SOL     OW29251   3.632   2.876   4.588 -0.8525  0.1295  0.0433
 9451SOL    HW129252   3.574   2.822   4.527 -0.3397 -0.1258 -0.2128
 9451SOL    HW229253   3.660   2.820   4.666  1.8854 -0.8766 -1.5322
 9452SOL     OW29254   2.883   4.095   0.407  0.2401 -0.3737 -0.2615
 9452SOL    HW129255   2.903   4.104   0.309  4.1424 -1.8744  0.2458
 9452SOL    HW229256   2.835   4.008   0.422 -1.4832  0.4120 -0.8645
 9453SOL     OW29257   1.239   1.429   1.196  0.4417 -0.5975  0.0936
 9453SOL    HW129258   1.311   1.433   1.265  1.2949 -2.2321 -0.6253
 9453SOL    HW229259   1.219   1.521   1.163  1.0954  0.0418  1.4206
 9454SOL     OW29260   1.300   3.349   4.942 -0.4221 -1.0076 -0.5653
 9454SOL    HW129261   1.360   3.417   4.901 -0.3104 -2.0207 -2.1855
 9454SOL    HW229262   1.317   3.260   4.900 -2.8014 -1.4022 -0.8470
 9455SOL     OW29263   2.121   1.821   0.238 -0.0947  0.1828 -0.5870
 9455SOL    HW129264   2.024   1.810   0.258 -0.0629 -0.5669 -0.8302
 9455SOL    HW229265   2.132   1.874   0.153 -0.2799  0.6893 -0.2956
 9456SOL     OW29266   0.318   4.150   0.447 -0.1106  0.6437  0.1373
 9456SOL    HW129267   0.277   4.180   0.361  0.3289 -1.8530 -1.0375
 9456SOL    HW229268   0.405   4.103   0.428  0.8959  1.5577  2.1284
 9457SOL     OW29269   3.811   3.048   4.711  0.3198  0.0368 -0.3519
 9457SOL    HW129270   3.870   3.004   4.779 -0.5376 -1.0929 -0.3106
 9457SOL    HW229271   3.760   2.979   4.661 -2.4815  1.0144  0.9752
 9458SOL     OW29272   1.324   5.654   5.139  0.2602  0.1343 -1.1121
 9458SOL    HW129273   1.265   5.620   5.211  0.9147  0.6393 -0.3179
 9458SOL    HW229274   1.360   5.578   5.086 -2.0411 -0.1354 -2.4033
 9459SOL     OW29275   2.996   1.532   0.460 -0.4883 -0.2113  0.1674
 9459SOL    HW129276   3.047   1.601   0.409 -2.0837  1.6485  0.9300
 9459SOL    HW229277   2.948   1.471   0.396 -0.8557  0.8174 -0.5640
 9460SOL     OW29278   0.369   4.986   5.991  0.2330 -0.6279  0.3253
 9460SOL    HW129279   0.395   5.065   6.048 -1.1613 -0.1367  0.3096
 9460SOL    HW229280   0.292   4.939   6.034 -1.5228  0.3302 -1.6045
 9461SOL     OW29281   1.536   1.739   1.574  0.2587 -0.2886 -0.2079
 9461SOL    HW129282   1.555   1.642   1.558 -0.4362 -0.8801  2.1970
 9461SOL    HW229283   1.497   1.779   1.491 -1.0917 -2.5155 -0.7259
 9462SOL     OW29284   6.222   2.919   5.076 -0.5296  0.3781  0.2985
 9462SOL    HW129285   6.260   3.008   5.053  0.1792 -0.0091 -0.0565
 9462SOL    HW229286   6.122   2.927   5.084 -0.6122  0.9401 -1.0046
 9463SOL     OW29287   5.645   2.785   0.205  0.5684 -0.2880  0.2743
 9463SOL    HW129288   5.651   2.724   0.126  1.2224 -0.1185  0.1938
 9463SOL    HW229289   5.706   2.752   0.277 -1.1169 -1.3251  1.3255
 9464SOL     OW29290   1.918   5.632   0.958 -0.1323 -0.6678  0.4233
 9464SOL    HW129291   1.857   5.593   1.027 -0.1771 -1.1746  0.1047
 9464SOL    HW229292   2.001   5.666   1.001 -0.4817 -0.3063  0.8162
 9465SOL     OW29293   2.821   5.445   3.419 -0.2066  0.1228 -0.5583
 9465SOL    HW129294   2.830   5.499   3.336  1.0132  0.6775 -0.0880
 9465SOL    HW229295   2.910   5.434   3.462 -0.8944  0.4672  1.0506
 9466SOL     OW29296   2.501   6.958   0.010  0.2220 -0.0875 -0.1654
 9466SOL    HW129297   2.566   6.964  -0.066 -1.3784 -1.9397 -1.7972
 9466SOL    HW229298   2.514   6.870   0.057  1.3891  1.1517  1.9882
 9467SOL     OW29299   6.741   2.707   2.376  0.0350  0.1106 -0.3928
 9467SOL    HW129300   6.818   2.723   2.438 -0.9908 -1.7831  1.4983
 9467SOL    HW229301   6.771   2.649   2.301  0.6350  0.0646 -0.1268
 9468SOL     OW29302   6.192   1.181   5.343 -0.0692 -0.0456  0.5617
 9468SOL    HW129303   6.240   1.160   5.258  0.0686 -0.3748  0.7188
 9468SOL    HW229304   6.146   1.099   5.376  1.7890 -0.5380  2.0314
 9469SOL     OW29305   1.013   4.671   0.419 -0.2578  0.0615 -0.1353
 9469SOL    HW129306   0.996   4.671   0.321  1.0751  1.3111 -0.3877
 9469SOL    HW229307   0.971   4.752   0.460 -2.5915 -1.4504  0.7180
 9470SOL     OW29308   6.964   1.142   0.034  0.3093 -0.0315 -0.0361
 9470SOL    HW129309   7.043   1.090   0.068 -0.2010  0.3501  1.8551
 9470SOL    HW229310   6.994   1.234   0.009  0.5444 -0.0217  0.2707
 9471SOL     OW29311   4.120   1.647   6.836 -0.7831 -0.1532 -0.0756
 9471SOL    HW129312   4.078   1.683   6.920 -1.3865 -1.0614  0.0219
 9471SOL    HW229313   4.050   1.606   6.778 -0.0664 -1.6532  0.0592
 9472SOL     OW29314   0.912   0.700   5.774 -0.3476 -0.4388 -0.1253
 9472SOL    HW129315   0.863   0.786   5.790 -2.5955 -1.5574 -0.5325
 9472SOL    HW229316   0.874   0.630   5.835  0.9312 -1.3364 -0.3373
 9473SOL     OW29317   2.062   5.142   6.123 -0.0237 -0.2535  0.0272
 9473SOL    HW129318   2.145   5.087   6.123 -0.1949 -0.5412 -1.3979
 9473SOL    HW229319   2.086   5.239   6.120  0.2650 -0.2816  1.1578
 9474SOL     OW29320   1.948   4.643   4.379 -0.7659 -0.3094  0.0315
 9474SOL    HW129321   2.042   4.630   4.413 -0.8817 -0.1106  0.4420
 9474SOL    HW229322   1.916   4.559   4.336 -0.8783 -0.8203  1.0814
 9475SOL     OW29323   2.648   2.805   1.714  0.0662 -0.4629 -0.2001
 9475SOL    HW129324   2.598   2.725   1.748  0.6865  0.2344  2.5741
 9475SOL    HW229325   2.745   2.781   1.705 -0.0570 -0.5757 -1.3920
 9476SOL     OW29326   4.014   3.104   3.634 -0.0637 -0.2215  0.2833
 9476SOL    HW129327   4.094   3.046   3.617  1.5432  1.5530  1.3814
 9476SOL    HW229328   3.934   3.066   3.587  1.2604 -2.4025 -0.3333
 9477SOL     OW29329   0.694   3.009   0.410  0.3796  0.3089  0.5765
 9477SOL    HW129330   0.640   2.927   0.430  1.7263 -0.5727  0.7476
 9477SOL    HW229331   0.633   3.083   0.381 -1.0465 -0.2035  2.1035
 9478SOL     OW29332   0.224   3.271   6.918 -0.2165 -0.2917  0.7954
 9478SOL    HW129333   0.263   3.217   6.844 -0.9534 -1.8425  1.4903
 9478SOL    HW229334   0.289   3.342   6.945  0.5719 -0.4893 -0.4904
 9479SOL     OW29335   5.707   6.493   4.730  1.0607  0.0858 -0.3634
 9479SOL    HW129336   5.627   6.452   4.686 -0.0829 -1.1158  2.5370
 9479SOL    HW229337   5.759   6.422   4.779  2.4020  1.2482 -0.0169
 9480SOL     OW29338   6.078   2.530   6.626 -0.0607 -0.1500 -0.4259
 9480SOL    HW129339   6.150   2.477   6.581 -1.2283 -1.4355 -0.8314
 9480SOL    HW229340   6.099   2.628   6.619  1.6560 -0.4947 -0.4839
 9481SOL     OW29341   2.143   2.352   3.683  0.0668 -0.3969 -0.0908
 9481SOL    HW129342   2.176   2.261   3.658 -0.6105 -0.8179  0.5064
 9481SOL    HW229343   2.057   2.370   3.634  0.9314  0.5249 -1.3269
 9482SOL     OW29344   4.786   2.780   3.222 -0.2829  0.0380 -0.2148
 9482SOL    HW129345   4.804   2.833   3.305  0.1710  0.7708 -0.7686
 9482SOL    HW229346   4.767   2.685   3.247  0.6052  0.0730  0.6765
 9483SOL     OW29347   2.854   2.424   6.043 -0.4850  0.0067 -0.2378
 9483SOL    HW129348   2.797   2.406   6.123 -0.0604 -1.5439 -0.2460
 9483SOL    HW229349   2.932   2.361   6.044 -1.2654 -1.1232 -2.6252
 9484SOL     OW29350   6.345   5.911   3.251  0.4233 -0.1925 -0.3996
 9484SOL    HW129351   6.273   5.969   3.212 -1.3209 -1.3601  0.9595
 9484SOL    HW229352   6.358   5.831   3.192 -0.9611 -1.0639  0.4271
 9485SOL     OW29353   5.217   0.486   2.169 -0.5116 -0.1641  0.2458
 9485SOL    HW129354   5.147   0.548   2.131 -0.8848 -1.2676 -0.9420
 9485SOL    HW229355   5.298   0.488   2.110 -0.8990 -1.5107 -0.3714
 9486SOL     OW29356   2.704   5.861   1.432  0.0473 -0.1776 -0.8622
 9486SOL    HW129357   2.704   5.761   1.424 -0.3684 -0.2263 -0.3068
 9486SOL    HW229358   2.634   5.900   1.373 -0.8523 -0.3242  0.0868
 9487SOL     OW29359   3.028   3.122   4.806  0.3490 -0.4554  0.0427
 9487SOL    HW129360   3.088   3.171   4.870 -0.8844  0.6534  0.3936
 9487SOL    HW229361   3.030   3.024   4.827  1.0786 -0.2862  0.8416
 9488SOL     OW29362   1.355   6.105   1.874 -0.0102  0.3626 -0.3836
 9488SOL    HW129363   1.300   6.122   1.956 -1.5746 -0.3121 -1.2403
 9488SOL    HW229364   1.410   6.186   1.853 -0.7796  1.1176  0.4526
 9489SOL     OW29365   2.430   4.442   2.205 -0.2373 -0.0890  0.5915
 9489SOL    HW129366   2.349   4.492   2.177 -1.2994 -2.4225 -0.7699
 9489SOL    HW229367   2.405   4.349   2.232  1.8743 -0.5964  1.0077
 9490SOL     OW29368   3.399   1.656   0.867  0.1932 -0.1245 -0.3954
 9490SOL    HW129369   3.387   1.609   0.779  1.4154 -1.5378  0.1337
 9490SOL    HW229370   3.318   1.642   0.924 -1.8559  3.1299 -2.1970
 9491SOL     OW29371   3.997   5.236   6.683  0.6880 -0.0228  0.2486
 9491SOL    HW129372   4.038   5.314   6.636  0.5130 -1.6024 -2.8462
 9491SOL    HW229373   4.066   5.166   6.701  0.3613 -0.3429  0.2979
 9492SOL     OW29374   2.185   4.030   1.469  0.0038 -0.5535  0.6098
 9492SOL    HW129375   2.205   4.040   1.372 -0.2617  1.7358  0.7229
 9492SOL    HW229376   2.261   4.066   1.523  0.4541 -2.4497  1.2888
 9493SOL     OW29377   4.867   5.689   3.162  0.5375 -0.2379  0.5641
 9493SOL    HW129378   4.932   5.762   3.183 -0.3595  0.4679  1.0023
 9493SOL    HW229379   4.910   5.600   3.178  1.3264  0.2125  1.0253
 9494SOL     OW29380   1.521   2.509   5.329  0.3574 -0.6262  0.0773
 9494SOL    HW129381   1.538   2.513   5.230  1.4747 -0.6144  0.2488
 9494SOL    HW229382   1.430   2.473   5.346 -0.2170  0.2532 -0.9784
 9495SOL     OW29383   6.121   2.137   2.552 -0.1782  0.6039  0.6616
 9495SOL    HW129384   6.131   2.229   2.514 -0.4578  0.4370  0.1810
 9495SOL    HW229385   6.109   2.144   2.651  1.3342  0.9885  0.8421
 9496SOL     OW29386   6.681   5.123   6.432  0.4181 -0.1418  0.0868
 9496SOL    HW129387   6.707   5.217   6.457  0.1925 -0.1502  0.3653
 9496SOL    HW229388   6.764   5.069   6.416  0.6598 -0.4800  2.1249
 9497SOL     OW29389   6.736   5.806   0.438 -0.3109 -0.5313 -0.7203
 9497SOL    HW129390   6.743   5.788   0.340 -0.2457  0.7873 -0.9712
 9497SOL    HW229391   6.768   5.726   0.489  3.1091  0.0212 -1.7742
 9498SOL     OW29392   5.700   6.174   6.539  0.5782  0.2943  0.5450
 9498SOL    HW129393   5.758   6.144   6.464  0.2242  0.5626  0.1610
 9498SOL    HW229394   5.647   6.096   6.573 -0.7709  0.5593 -0.8309
 9499SOL     OW29395   4.596   5.371   5.874  0.4933  0.0208  0.3839
 9499SOL    HW129396   4.601   5.341   5.779 -0.6245 -0.8465  0.5730
 9499SOL    HW229397   4.664   5.442   5.891  0.0328  0.9210 -1.3267
 9500SOL     OW29398   4.802   5.992   2.498  0.2502 -0.0066 -0.4063
 9500SOL    HW129399   4.727   5.947   2.546  1.9058 -1.8876  0.5798
 9500SOL    HW229400   4.806   6.089   2.526 -1.0803 -0.1484  0.3835
 9501SOL     OW29401   3.473   1.278   3.876  0.1426  0.2463  0.5600
 9501SOL    HW129402   3.488   1.274   3.777  0.7030 -0.0065  0.6526
 9501SOL    HW229403   3.465   1.185   3.913  1.4057  0.2895  0.9678
 9502SOL     OW29404   5.267   2.843   4.844 -0.4458 -0.2924 -0.0343
 9502SOL    HW129405   5.308   2.828   4.754 -0.3100 -0.5796  0.0759
 9502SOL    HW229406   5.242   2.940   4.853  1.0046  0.0827  0.2219
 9503SOL     OW29407   0.588   5.919   2.557 -0.1665  0.3594 -1.0227
 9503SOL    HW129408   0.562   5.939   2.651 -2.6697 -1.1918 -1.2847
 9503SOL    HW229409   0.552   5.990   2.496 -0.4923  0.2052 -1.0123
 9504SOL     OW29410   6.347   2.597   6.815 -0.1372  0.3878 -0.6715
 9504SOL    HW129411   6.438   2.622   6.784  0.5293 -1.5833 -0.4700
 9504SOL    HW229412   6.346   2.500   6.842 -1.6835  0.9422  1.6064
 9505SOL     OW29413   6.095   0.413   2.904  0.0938  0.6615  0.9619
 9505SOL    HW129414   6.152   0.398   2.823  0.7451  0.9389  1.3590
 9505SOL    HW229415   6.119   0.346   2.974  0.1124  0.9430  1.2256
 9506SOL     OW29416   4.848   2.004   1.210  0.4485 -0.0902  0.0061
 9506SOL    HW129417   4.851   1.965   1.301  0.3876  0.2416  0.1535
 9506SOL    HW229418   4.753   2.026   1.186  0.4116 -0.6050 -0.3209
 9507SOL     OW29419   0.850   2.752   5.692  0.4805 -0.2959 -0.0173
 9507SOL    HW129420   0.857   2.654   5.710  1.1693 -0.2642 -0.0548
 9507SOL    HW229421   0.917   2.800   5.749  2.0548 -0.1023 -1.9189
 9508SOL     OW29422   3.610   6.775   4.939 -0.7559  0.4385  0.0817
 9508SOL    HW129423   3.618   6.775   4.839 -2.7545 -0.3022 -0.1081
 9508SOL    HW229424   3.533   6.832   4.967 -0.0750  0.8306  1.2408
 9509SOL     OW29425   3.465   6.578   3.456  0.3501 -0.2877 -0.2291
 9509SOL    HW129426   3.554   6.543   3.484  1.3479  1.4000 -1.0966
 9509SOL    HW229427   3.434   6.529   3.374  1.6058  0.6211 -1.2828
 9510SOL     OW29428   0.465   4.595   3.580 -0.4787  0.1238 -0.0978
 9510SOL    HW129429   0.531   4.559   3.515  0.7072 -1.1754  1.7439
 9510SOL    HW229430   0.374   4.560   3.558 -0.4592  1.2293 -2.1326
 9511SOL     OW29431   2.607   3.157   0.532  0.7239 -0.2522 -0.5075
 9511SOL    HW129432   2.554   3.176   0.615  0.6054 -0.6955 -0.4760
 9511SOL    HW229433   2.548   3.112   0.465  0.2865  1.8313 -1.5943
 9512SOL     OW29434   2.055   3.910   3.991 -0.3345 -0.2977  0.3576
 9512SOL    HW129435   1.955   3.913   3.987 -0.4773  2.6309  2.3567
 9512SOL    HW229436   2.085   3.913   4.086  1.6790 -1.2405 -0.1950
 9513SOL     OW29437   3.477   5.942   3.453 -0.9338 -0.0993  0.5359
 9513SOL    HW129438   3.504   5.864   3.510 -1.1546 -0.5003  0.0952
 9513SOL    HW229439   3.520   5.933   3.363  0.7258  1.3577  1.1320
 9514SOL     OW29440   4.057   1.920   3.757  0.1179 -0.3294 -0.2432
 9514SOL    HW129441   4.066   2.012   3.719  1.3897 -0.4040 -0.1508
 9514SOL    HW229442   4.028   1.926   3.853  0.1135 -0.0288 -0.2622
 9515SOL     OW29443   0.510   5.231   4.781  0.3741 -0.4645  0.4387
 9515SOL    HW129444   0.573   5.187   4.717 -0.7349 -0.7512 -0.4839
 9515SOL    HW229445   0.495   5.326   4.754  1.1232 -0.1158  1.2050
 9516SOL     OW29446   0.008   5.124   6.364  0.1278  0.0931 -0.6016
 9516SOL    HW129447  -0.010   5.030   6.395  2.0519 -0.3066 -0.5688
 9516SOL    HW229448   0.002   5.128   6.264  0.5291 -0.1920 -0.6396
 9517SOL     OW29449   0.125   4.523   1.661 -0.1316 -0.5132 -0.6186
 9517SOL    HW129450   0.089   4.578   1.736 -1.2783  1.1017 -2.2584
 9517SOL    HW229451   0.078   4.435   1.658 -0.9136 -0.1204 -0.1527
 9518SOL     OW29452   0.473   3.270   5.852  1.0735 -0.3437  0.2750
 9518SOL    HW129453   0.569   3.273   5.824  1.0625  1.4429  0.2929
 9518SOL    HW229454   0.416   3.313   5.782  0.2619 -1.4763  0.2189
 9519SOL     OW29455   3.555   3.807   2.714  0.2306  0.0907  0.5640
 9519SOL    HW129456   3.654   3.817   2.704  0.0948  0.8708 -0.1021
 9519SOL    HW229457   3.533   3.711   2.733  1.0483 -0.2208  0.0049
 9520SOL     OW29458   5.589   2.097   4.924  0.4569 -0.6397 -0.2372
 9520SOL    HW129459   5.555   2.067   4.835  1.9460  1.2570 -1.5305
 9520SOL    HW229460   5.566   2.194   4.937  0.9610 -0.6751  1.0873
 9521SOL     OW29461   3.839   1.397   0.916  0.0099 -0.2324 -0.0613
 9521SOL    HW129462   3.763   1.338   0.943 -0.0391  0.1115  0.5886
 9521SOL    HW229463   3.830   1.485   0.962  1.0906 -0.3738  0.4568
 9522SOL     OW29464   5.876   6.820   0.304  0.4034 -0.6730  0.0017
 9522SOL    HW129465   5.915   6.908   0.331 -0.1849 -0.1548 -0.8197
 9522SOL    HW229466   5.931   6.746   0.345 -0.3261  0.0453  2.4404
 9523SOL     OW29467   2.319   4.329   3.633  0.3644  0.1157 -0.4185
 9523SOL    HW129468   2.298   4.233   3.652  0.2038  0.4557  1.2338
 9523SOL    HW229469   2.355   4.337   3.540  1.5815 -1.7245 -0.1692
 9524SOL     OW29470   1.365   3.184   5.178  0.5830 -0.2642 -0.4588
 9524SOL    HW129471   1.351   3.255   5.109  1.9776  0.6676  0.1726
 9524SOL    HW229472   1.461   3.181   5.204  0.0919 -0.5106  1.5252
 9525SOL     OW29473   2.297   1.459   5.553 -0.4119  0.0151  0.8324
 9525SOL    HW129474   2.256   1.389   5.494 -0.5315 -0.5040  1.5164
 9525SOL    HW229475   2.389   1.430   5.580  1.0272  1.7379 -1.7190
 9526SOL     OW29476   6.346   5.142   5.803  0.4055 -0.1871 -0.4734
 9526SOL    HW129477   6.418   5.199   5.843 -1.5160  2.2333 -0.2100
 9526SOL    HW229478   6.338   5.057   5.854  2.5547 -0.1981 -0.0695
 9527SOL     OW29479   3.753   6.151   4.997 -0.2121  0.1147  0.7655
 9527SOL    HW129480   3.740   6.058   4.961  0.8615 -0.1367  1.0127
 9527SOL    HW229481   3.716   6.217   4.931  2.1775 -0.2917 -1.1472
 9528SOL     OW29482   4.977   2.511   3.345 -0.2961 -0.3230 -0.4873
 9528SOL    HW129483   4.922   2.463   3.413  0.1982  1.1888  1.0670
 9528SOL    HW229484   5.069   2.473   3.344  0.7730  1.8322  2.3649
 9529SOL     OW29485   6.534   6.642   0.880 -1.0042 -0.1133 -0.1631
 9529SOL    HW129486   6.532   6.542   0.886  1.2902 -0.1764  0.5806
 9529SOL    HW229487   6.605   6.670   0.814 -1.5580  1.0397 -0.3017
 9530SOL     OW29488   1.482   6.135   2.541 -0.3575 -0.0854  0.1677
 9530SOL    HW129489   1.412   6.064   2.530  0.8235 -1.1789 -0.6601
 9530SOL    HW229490   1.456   6.215   2.488 -0.6838 -0.7197 -0.6603
 9531SOL     OW29491   3.584   5.055   3.502 -0.4544 -0.5702 -0.5450
 9531SOL    HW129492   3.655   5.124   3.489 -1.6755  0.6773 -0.7897
 9531SOL    HW229493   3.566   5.045   3.600 -1.8108  1.1498 -0.5587
 9532SOL     OW29494   6.125   5.002   4.634 -0.6021 -0.6290  0.2798
 9532SOL    HW129495   6.091   4.923   4.684 -0.6560 -0.4623  0.5117
 9532SOL    HW229496   6.108   5.085   4.688  1.5453 -0.6790  1.1511
 9533SOL     OW29497   6.689   4.459   5.065 -0.3034  0.3775 -0.0344
 9533SOL    HW129498   6.658   4.425   5.153 -1.3032 -0.7825 -0.8046
 9533SOL    HW229499   6.611   4.493   5.012  0.1016 -0.0340 -0.9256
 9534SOL     OW29500   6.451   6.493   4.549  0.0075 -0.0749  0.0802
 9534SOL    HW129501   6.544   6.483   4.585  0.1803 -3.0098 -0.8845
 9534SOL    HW229502   6.396   6.414   4.578 -1.3633  0.1729 -1.6977
 9535SOL     OW29503   0.324   2.164   2.510 -0.7362  0.1894 -0.5184
 9535SOL    HW129504   0.419   2.165   2.542 -0.8420  0.4618 -0.2072
 9535SOL    HW229505   0.268   2.112   2.575 -1.2793  2.2021  0.6887
 9536SOL     OW29506   3.713   2.614   5.804  0.2423 -0.7966 -0.1542
 9536SOL    HW129507   3.690   2.605   5.707  1.0477 -2.1168 -0.2465
 9536SOL    HW229508   3.809   2.643   5.813  1.1195 -3.5046  0.1961
 9537SOL     OW29509   0.246   1.255   4.276 -0.0445 -0.3140 -0.2549
 9537SOL    HW129510   0.171   1.190   4.292 -1.7339  2.0411  2.7551
 9537SOL    HW229511   0.333   1.213   4.301 -0.4860 -2.6195 -2.2997
 9538SOL     OW29512   5.427   0.093   5.845  0.2571  0.1947  0.2097
 9538SOL    HW129513   5.380   0.051   5.922 -1.0993  0.3627 -0.5056
 9538SOL    HW229514   5.526   0.087   5.860  0.0335  0.0116  1.8356
 9539SOL     OW29515   4.143   3.315   2.932  0.1218  0.0299 -0.1871
 9539SOL    HW129516   4.119   3.384   2.999  1.5138  1.4301 -1.0647
 9539SOL    HW229517   4.151   3.226   2.977  0.8283  0.8981  1.4654
 9540SOL     OW29518   4.508   4.448   5.314  0.0588 -0.1851  0.1160
 9540SOL    HW129519   4.446   4.423   5.239  1.5856  0.4499 -1.4416
 9540SOL    HW229520   4.476   4.407   5.399 -1.3629 -1.5202 -1.0001
 9541SOL     OW29521   2.340   6.033   5.103  0.2000 -0.4218 -0.2514
 9541SOL    HW129522   2.331   6.008   5.199 -0.2378  0.0493 -0.1683
 9541SOL    HW229523   2.431   6.007   5.071  0.7687  0.4295  0.5995
 9542SOL     OW29524   0.531   3.618   3.097  0.4252 -0.1826 -0.1749
 9542SOL    HW129525   0.451   3.566   3.069 -0.8374  1.0384  0.9612
 9542SOL    HW229526   0.585   3.642   3.016 -1.4235  0.6308 -1.2456
 9543SOL     OW29527   0.639   6.337   6.599 -0.2876 -0.0266  0.2533
 9543SOL    HW129528   0.557   6.343   6.655  0.4843 -1.8228  1.6673
 9543SOL    HW229529   0.646   6.246   6.559  1.1712 -0.0096  0.4179
 9544SOL     OW29530   6.112   3.572   5.180  0.1815  0.9238 -0.9480
 9544SOL    HW129531   6.088   3.484   5.221  0.9253 -0.0868 -2.5738
 9544SOL    HW229532   6.039   3.601   5.117  0.1468  1.2449 -0.7625
 9545SOL     OW29533   5.933   5.489   1.540 -0.2447 -0.3465 -0.2687
 9545SOL    HW129534   5.895   5.406   1.499  1.6616 -0.5057 -1.8898
 9545SOL    HW229535   5.925   5.565   1.476 -1.0943  0.5164  0.8216
 9546SOL     OW29536   3.097   0.534   5.529 -0.7787 -0.0725 -0.2040
 9546SOL    HW129537   3.176   0.530   5.591 -0.1562  1.2063 -0.8698
 9546SOL    HW229538   3.067   0.629   5.520 -2.3453 -0.5304 -0.0517
 9547SOL     OW29539   5.758   0.011   4.619 -0.1222 -0.3015 -0.0666
 9547SOL    HW129540   5.806  -0.063   4.666  1.8491 -0.3917 -2.0554
 9547SOL    HW229541   5.667  -0.020   4.592 -0.0106 -1.3622  0.7231
 9548SOL     OW29542   3.042   5.195   4.965 -0.1890 -0.6307  0.0759
 9548SOL    HW129543   3.009   5.287   4.947  2.0789  0.0432 -0.9931
 9548SOL    HW229544   3.058   5.147   4.879  3.2652 -0.2090  0.3233
 9549SOL     OW29545   5.201   1.889   1.274  0.0371  0.0519  0.9115
 9549SOL    HW129546   5.110   1.902   1.312 -0.1652 -0.4441  0.6050
 9549SOL    HW229547   5.246   1.813   1.319 -0.6944 -1.3810 -0.6671
 9550SOL     OW29548   6.114   1.922   0.073 -0.1201 -0.0487  0.7096
 9550SOL    HW129549   6.056   1.868   0.013 -0.7408 -0.9692  2.0729
 9550SOL    HW229550   6.060   1.994   0.116 -0.3910 -1.1068  2.2264
 9551SOL     OW29551   6.846   1.788   0.509 -0.2742  0.3318 -0.7099
 9551SOL    HW129552   6.821   1.847   0.432  0.4124  1.2034 -0.2873
 9551SOL    HW229553   6.929   1.738   0.487  0.8132  1.7347 -0.0074
 9552SOL     OW29554   1.419   2.774   0.049 -0.0684 -0.4054 -0.5090
 9552SOL    HW129555   1.472   2.832   0.111  0.2717 -0.2135 -0.9800
 9552SOL    HW229556   1.322   2.797   0.057 -0.1898 -1.2450  0.8814
 9553SOL     OW29557   4.111   2.208   5.185 -0.3491 -0.4349 -0.1365
 9553SOL    HW129558   4.105   2.123   5.237 -1.1124 -0.3884 -0.1333
 9553SOL    HW229559   4.033   2.214   5.122 -0.0111  0.0107 -0.5170
 9554SOL     OW29560   3.594   1.935   4.594  0.0076 -0.5101  0.0804
 9554SOL    HW129561   3.664   2.005   4.580  0.1896 -0.7691 -0.3552
 9554SOL    HW229562   3.577   1.923   4.692  0.4097 -0.2824  0.1800
 9555SOL     OW29563   2.094   5.649   4.407  0.0733  0.3237 -0.2384
 9555SOL    HW129564   2.059   5.717   4.343 -1.8601 -0.1341  0.2821
 9555SOL    HW229565   2.092   5.686   4.499  1.1620  0.3318 -0.1980
 9556SOL     OW29566   3.947   4.022   6.717 -0.2034 -0.7609  0.1550
 9556SOL    HW129567   3.998   4.106   6.699 -0.9283 -0.5626 -1.1105
 9556SOL    HW229568   3.976   3.983   6.804  0.5908  0.4622  0.4600
 9557SOL     OW29569   3.785   2.193   6.598 -0.2826 -0.0692 -0.3456
 9557SOL    HW129570   3.734   2.247   6.531  0.1114 -1.0887 -1.5213
 9557SOL    HW229571   3.750   2.099   6.598  1.3838 -0.7317 -0.9882
 9558SOL     OW29572   5.443   5.935   5.678  0.5594 -0.0527  0.7069
 9558SOL    HW129573   5.541   5.918   5.665  0.3649 -0.2363 -0.7914
 9558SOL    HW229574   5.400   5.854   5.718  0.5487 -1.2030 -1.4439
 9559SOL     OW29575   3.429   4.220   1.782 -0.2747  0.1031 -0.4427
 9559SOL    HW129576   3.385   4.184   1.865 -0.3089 -0.5506 -0.7432
 9559SOL    HW229577   3.381   4.303   1.752  0.6990  1.2941  1.0946
 9560SOL     OW29578   0.573   6.862   6.574  0.2790 -0.0792 -0.1209
 9560SOL    HW129579   0.641   6.789   6.567  1.8065  1.2950 -0.0704
 9560SOL    HW229580   0.596   6.922   6.650 -1.3792  0.0464  0.3034
 9561SOL     OW29581   0.409   6.962   6.398 -0.1313  0.2811 -0.6736
 9561SOL    HW129582   0.451   6.931   6.313 -2.3198 -2.4544 -0.8848
 9561SOL    HW229583   0.451   6.914   6.475 -0.3266  0.3690 -0.5121
 9562SOL     OW29584   2.535   6.419   2.239  0.0482 -0.2216  0.2365
 9562SOL    HW129585   2.459   6.420   2.305 -0.6702  2.1639 -0.5068
 9562SOL    HW229586   2.517   6.352   2.168  0.2436 -1.9667  1.7514
 9563SOL     OW29587   1.840   6.801   0.902 -0.2732 -0.0564  0.1865
 9563SOL    HW129588   1.831   6.900   0.896  0.6498  0.1666  1.9026
 9563SOL    HW229589   1.755   6.761   0.936  0.3413  0.5029  2.4947
 9564SOL     OW29590   2.466   2.053   6.826 -0.0751  0.6627 -0.1026
 9564SOL    HW129591   2.442   1.972   6.878 -1.9990  1.7578  0.8301
 9564SOL    HW229592   2.543   2.033   6.766 -1.1941 -2.1590 -0.7315
 9565SOL     OW29593   1.296   0.870   4.145  0.0615 -0.2522  0.3047
 9565SOL    HW129594   1.253   0.780   4.136 -0.9829  0.2183  0.4133
 9565SOL    HW229595   1.345   0.893   4.061 -0.5448 -0.4865 -0.1191
 9566SOL     OW29596   1.500   6.673   6.377  0.1140  0.2573 -0.7501
 9566SOL    HW129597   1.494   6.705   6.472  0.4595 -2.0924  0.1291
 9566SOL    HW229598   1.586   6.705   6.337  0.7030 -0.0283  0.2545
 9567SOL     OW29599   5.551   3.950   1.750  0.1685  0.1146  0.1322
 9567SOL    HW129600   5.607   3.977   1.672 -0.9979  0.7116 -0.5348
 9567SOL    HW229601   5.563   3.853   1.767 -1.1357 -0.5365 -2.1805
 9568SOL     OW29602   4.164   2.208   4.264  0.1766  0.2613  0.0209
 9568SOL    HW129603   4.243   2.189   4.322  0.2659 -0.5078 -0.3446
 9568SOL    HW229604   4.083   2.164   4.303 -0.1021  1.0890  0.4222
 9569SOL     OW29605   6.414   1.555   3.630  0.4713 -0.1573  0.0074
 9569SOL    HW129606   6.468   1.511   3.702 -1.5717  0.7099  2.2283
 9569SOL    HW229607   6.453   1.645   3.609 -0.1977  0.6331  1.8772
 9570SOL     OW29608   6.513   3.987   3.855  1.1508 -0.1352 -0.0101
 9570SOL    HW129609   6.449   4.001   3.779  0.7696 -1.5445  0.0113
 9570SOL    HW229610   6.500   3.895   3.892  1.4815  0.4428  1.6299
 9571SOL     OW29611   1.508   1.143   1.219  0.7029 -0.3297  0.2667
 9571SOL    HW129612   1.428   1.163   1.275  0.9957 -1.3478  1.0799
 9571SOL    HW229613   1.548   1.229   1.186 -0.1288  0.2306  0.6858
 9572SOL     OW29614   1.706   5.961   4.885  0.0542  0.1811 -0.3615
 9572SOL    HW129615   1.661   5.881   4.924  1.5754 -0.5972 -0.1058
 9572SOL    HW229616   1.719   6.030   4.956  1.2572 -0.5243  0.1419
 9573SOL     OW29617   5.200   6.281   5.830  0.8465  0.4962 -0.1184
 9573SOL    HW129618   5.172   6.377   5.830 -0.3313  0.1837 -1.3497
 9573SOL    HW229619   5.252   6.261   5.747  1.9992  0.2971  0.6299
 9574SOL     OW29620   3.270   2.519   0.861 -0.2303  0.3586 -0.3419
 9574SOL    HW129621   3.263   2.607   0.909  0.5649 -0.1265  0.6926
 9574SOL    HW229622   3.274   2.445   0.928 -0.7235 -0.4677 -1.2066
 9575SOL     OW29623   4.570   1.500   2.036 -0.0617 -0.6034  0.5618
 9575SOL    HW129624   4.637   1.479   1.965 -0.6743 -0.5778 -0.0334
 9575SOL    HW229625   4.606   1.474   2.126  1.1401  0.3136  0.3638
 9576SOL     OW29626   2.576   1.330   6.051  0.4937 -0.0709 -0.7841
 9576SOL    HW129627   2.591   1.428   6.040 -0.3415 -0.0515 -2.0886
 9576SOL    HW229628   2.483   1.315   6.085  0.7235 -0.4066 -0.2990
 9577SOL     OW29629   0.635   3.420   2.751  0.4735  0.5212  0.4770
 9577SOL    HW129630   0.554   3.367   2.725  1.3589 -1.4915  1.6354
 9577SOL    HW229631   0.692   3.435   2.670  0.2609 -0.3971  0.1416
 9578SOL     OW29632   1.537   3.562   2.660  0.0984 -0.0690  0.2706
 9578SOL    HW129633   1.601   3.557   2.583 -0.6855  0.6652 -0.4452
 9578SOL    HW229634   1.579   3.520   2.740  1.0063 -0.6771 -0.4999
 9579SOL     OW29635   5.108   6.467   2.505  0.3142  0.1055  0.0178
 9579SOL    HW129636   5.048   6.510   2.438  2.8765 -0.1115 -2.6532
 9579SOL    HW229637   5.063   6.465   2.594 -3.8245 -0.6237 -1.8342
 9580SOL     OW29638   4.743   5.189   5.205 -0.0004  0.3192  0.3622
 9580SOL    HW129639   4.824   5.134   5.222  1.3119  2.4343  1.3963
 9580SOL    HW229640   4.697   5.157   5.121  2.1700 -0.6046 -0.5349
 9581SOL     OW29641   5.425   0.740   5.374  0.0606  0.1704 -0.4921
 9581SOL    HW129642   5.470   0.665   5.324 -0.5271  0.1921 -1.0650
 9581SOL    HW229643   5.362   0.788   5.313  1.0186  1.6592 -0.3770
 9582SOL     OW29644   2.833   6.847   3.974  0.2199 -0.0091  0.1111
 9582SOL    HW129645   2.908   6.800   4.021  0.2670 -1.2134 -1.1131
 9582SOL    HW229646   2.765   6.780   3.944 -0.5198  0.8947 -0.2855
 9583SOL     OW29647   2.925   5.472   0.448  0.1563 -0.3472 -0.0162
 9583SOL    HW129648   2.892   5.534   0.518 -0.5882 -1.2941  0.4913
 9583SOL    HW229649   3.020   5.494   0.426  0.0696  0.6175  0.5278
 9584SOL     OW29650   1.879   4.857   4.203 -0.4081 -0.0402 -0.2432
 9584SOL    HW129651   1.917   4.792   4.269 -0.6322 -0.3200 -0.3895
 9584SOL    HW229652   1.829   4.928   4.253 -0.3122 -0.0755 -0.0939
 9585SOL     OW29653   5.847   6.024   1.724  1.0775  0.6168 -0.8143
 9585SOL    HW129654   5.877   5.995   1.815 -0.0696  0.9155 -0.3202
 9585SOL    HW229655   5.809   5.946   1.675 -0.9822  0.9783  0.0945
 9586SOL     OW29656   2.663   5.979   4.752 -0.5818  0.1979  0.0339
 9586SOL    HW129657   2.703   6.070   4.758 -1.3299  0.4725  0.9851
 9586SOL    HW229658   2.696   5.934   4.668  1.1083  0.6791  0.3989
 9587SOL     OW29659   3.575   6.089   1.132 -0.3553 -0.8319  0.2012
 9587SOL    HW129660   3.647   6.146   1.092 -0.8564  0.7458  1.4261
 9587SOL    HW229661   3.495   6.091   1.073 -0.2078 -0.6350  0.0046
 9588SOL     OW29662   2.169   5.740   1.638 -0.0937 -0.8684  0.1485
 9588SOL    HW129663   2.247   5.702   1.589  0.3123  0.2026 -0.0704
 9588SOL    HW229664   2.099   5.669   1.650  0.2991 -1.4610 -0.9194
 9589SOL     OW29665   0.943   0.574   6.275  0.1420 -0.7171 -0.4466
 9589SOL    HW129666   0.989   0.656   6.239 -0.4886 -0.7107 -1.2835
 9589SOL    HW229667   0.956   0.498   6.211 -0.9979 -0.7097 -0.7121
 9590SOL     OW29668   4.772   0.184   1.031  0.3917 -0.0219 -0.6902
 9590SOL    HW129669   4.828   0.216   1.108 -0.1352 -0.9412  0.1119
 9590SOL    HW229670   4.786   0.085   1.019 -2.9226 -0.8922  1.2647
 9591SOL     OW29671   4.418   2.404   5.461  0.1299 -0.2002 -0.2344
 9591SOL    HW129672   4.459   2.338   5.525 -0.5039 -0.5931 -0.2227
 9591SOL    HW229673   4.354   2.462   5.511  0.8923  0.6143 -0.1922
 9592SOL     OW29674   1.279   5.885   5.011 -0.1758  0.5153  0.3017
 9592SOL    HW129675   1.213   5.946   5.053 -0.8969 -0.9362  1.3721
 9592SOL    HW229676   1.293   5.805   5.069  0.7579 -0.3356 -1.0179
 9593SOL     OW29677   2.410   1.837   3.858 -0.2984 -0.1708  0.1239
 9593SOL    HW129678   2.480   1.801   3.797 -1.0114 -2.2124  0.4225
 9593SOL    HW229679   2.378   1.925   3.824 -0.7767 -1.2973 -2.5859
 9594SOL     OW29680   0.596   0.111   2.589 -0.1836 -0.4672  0.5038
 9594SOL    HW129681   0.524   0.180   2.579 -0.7793 -1.0556  0.6595
 9594SOL    HW229682   0.620   0.101   2.686  0.7207  0.3338  0.3751
 9595SOL     OW29683   5.997   3.320   4.213 -0.0845  0.2491  0.2575
 9595SOL    HW129684   6.048   3.239   4.182  0.4800  1.5831 -2.5686
 9595SOL    HW229685   5.899   3.301   4.208  0.0425 -0.4193  0.1142
 9596SOL     OW29686   1.607   5.751   3.088  0.1271 -0.2825 -0.0522
 9596SOL    HW129687   1.512   5.728   3.066  0.1604  0.5252 -1.0784
 9596SOL    HW229688   1.640   5.820   3.025  0.5392  1.4362  1.9475
 9597SOL     OW29689   1.719   4.360   0.788  0.1389 -0.2096 -0.5207
 9597SOL    HW129690   1.643   4.416   0.820  2.1583  1.9001  0.9414
 9597SOL    HW229691   1.720   4.273   0.837 -1.5608 -0.4590 -0.9022
 9598SOL     OW29692   1.810   4.910   3.192 -0.3644  0.0078  0.4012
 9598SOL    HW129693   1.810   4.862   3.104  0.3202  0.0338  0.3802
 9598SOL    HW229694   1.752   4.860   3.256 -0.3230 -0.3947  0.1344
 9599SOL     OW29695   1.354   0.095   6.339 -0.0006 -0.6529 -0.1389
 9599SOL    HW129696   1.276   0.154   6.362 -0.5666 -1.3592 -0.2172
 9599SOL    HW229697   1.321   0.006   6.309  0.7641 -0.2643 -2.2851
 9600SOL     OW29698   4.417   2.858   1.365  0.2450 -0.2199  0.1660
 9600SOL    HW129699   4.410   2.790   1.291 -1.3122  1.4888 -1.3681
 9600SOL    HW229700   4.495   2.918   1.346  1.0289 -0.9390  1.0053
 9601SOL     OW29701   0.607   6.145   0.977 -0.0375  0.1530 -0.7034
 9601SOL    HW129702   0.534   6.082   0.953 -0.2132 -0.0281  0.2683
 9601SOL    HW229703   0.677   6.143   0.906  0.5975 -2.1348 -0.1295
 9602SOL     OW29704   3.314   3.143   6.050  0.0013  0.1192 -0.6839
 9602SOL    HW129705   3.322   3.241   6.030 -0.7243  0.0210 -1.5250
 9602SOL    HW229706   3.257   3.130   6.131 -1.3876  0.3493 -1.5823
 9603SOL     OW29707   6.400   0.408   6.960  0.0609 -0.2906  0.0706
 9603SOL    HW129708   6.366   0.337   7.022  0.8296 -0.4644  0.3067
 9603SOL    HW229709   6.414   0.369   6.869  0.9468 -0.5830  0.3185
 9604SOL     OW29710   5.019   0.628   0.836  0.1649  0.1276  0.6512
 9604SOL    HW129711   5.068   0.560   0.781  3.1966  0.8288  2.2448
 9604SOL    HW229712   5.047   0.720   0.808 -0.8333  0.5965  1.1542
 9605SOL     OW29713   6.823   3.875   1.303 -0.8952  0.4001  0.0735
 9605SOL    HW129714   6.888   3.871   1.227 -1.3017  0.4030 -0.2790
 9605SOL    HW229715   6.873   3.866   1.389 -0.5575 -0.9860 -0.2291
 9606SOL     OW29716   3.864   1.541   4.970  0.1489 -0.2943  0.0785
 9606SOL    HW129717   3.767   1.526   4.990  0.6407 -1.1607  1.9467
 9606SOL    HW229718   3.909   1.581   5.050  1.7830 -1.9275  0.0370
 9607SOL     OW29719   2.002   1.705   5.312  0.3540  0.0694  0.4670
 9607SOL    HW129720   2.004   1.781   5.378 -1.6037  1.3565 -0.8309
 9607SOL    HW229721   1.958   1.626   5.354  3.3997 -0.8707  2.2160
 9608SOL     OW29722   6.695   3.274   5.069  0.0445  0.1522  0.3662
 9608SOL    HW129723   6.784   3.253   5.030  0.0681  0.1491  0.4206
 9608SOL    HW229724   6.701   3.357   5.124  0.5789 -1.1039  2.3154
 9609SOL     OW29725   4.337   1.449   1.090  0.3687 -0.1464  0.7741
 9609SOL    HW129726   4.396   1.488   1.019 -0.4238  1.3670  0.9029
 9609SOL    HW229727   4.262   1.399   1.048  0.6167 -0.3599  0.5796
 9610SOL     OW29728   0.156   6.142   2.359 -0.8399  0.3079  0.0404
 9610SOL    HW129729   0.160   6.182   2.268 -0.4376 -1.3152 -0.6898
 9610SOL    HW229730   0.243   6.097   2.380 -0.7436  1.1030  1.4463
 9611SOL     OW29731   2.449   4.948   1.811  0.7378 -0.0847  0.5864
 9611SOL    HW129732   2.518   4.887   1.770  0.7830 -0.0110  0.5523
 9611SOL    HW229733   2.375   4.893   1.851 -0.5053 -0.1203 -1.6401
 9612SOL     OW29734   4.578   0.910   3.060  0.5013 -0.1184 -0.1559
 9612SOL    HW129735   4.629   0.988   3.097 -0.3658  0.0497  0.7435
 9612SOL    HW229736   4.641   0.848   3.013  1.7567 -0.4900  1.8747
 9613SOL     OW29737   5.551   3.645   5.136 -0.1280  0.0346  0.0252
 9613SOL    HW129738   5.452   3.631   5.126 -0.3017  0.5816  0.8918
 9613SOL    HW229739   5.597   3.618   5.051 -1.1217  0.8206 -0.7874
 9614SOL     OW29740   4.657   1.360   3.293  0.3973  0.0454 -0.2481
 9614SOL    HW129741   4.633   1.312   3.378 -0.8160  0.4775 -0.3273
 9614SOL    HW229742   4.680   1.455   3.314  1.3781 -0.1836 -0.2596
 9615SOL     OW29743   1.895   3.296   2.301  0.0135  0.0504  0.1089
 9615SOL    HW129744   1.925   3.333   2.389 -1.0302  1.4048 -0.0753
 9615SOL    HW229745   1.972   3.294   2.237 -0.0624  3.0588 -0.2290
 9616SOL     OW29746   5.323   3.607   5.024  0.1544  0.7544 -0.1464
 9616SOL    HW129747   5.226   3.590   5.041  0.4772 -1.3972 -0.1679
 9616SOL    HW229748   5.338   3.625   4.927 -0.0277 -0.8075 -0.4879
 9617SOL     OW29749   2.225   2.970   2.369  0.7293  0.0990 -0.3714
 9617SOL    HW129750   2.256   3.059   2.401 -3.2128  1.2695  0.7771
 9617SOL    HW229751   2.159   2.982   2.294  0.2311 -1.8409 -0.3064
 9618SOL     OW29752   1.740   3.876   6.105  0.2327  0.6696 -0.2957
 9618SOL    HW129753   1.793   3.791   6.107  0.0461  0.5422 -0.6310
 9618SOL    HW229754   1.671   3.870   6.033 -1.6433 -0.0051  1.4593
 9619SOL     OW29755   0.878   6.286   0.519 -0.5807 -0.0207 -0.2402
 9619SOL    HW129756   0.798   6.280   0.460 -0.4830  1.7680 -0.5963
 9619SOL    HW229757   0.929   6.370   0.498  0.9386 -0.7039  0.5419
 9620SOL     OW29758   3.554   0.562   4.045  0.1470  0.1823  0.0499
 9620SOL    HW129759   3.506   0.647   4.065  0.6308  0.4475  0.0872
 9620SOL    HW229760   3.487   0.490   4.024 -0.2409  0.9123 -1.3338
 9621SOL     OW29761   1.809   4.274   3.735 -0.1749  0.3533 -0.3776
 9621SOL    HW129762   1.742   4.291   3.662 -0.4134  0.5755 -0.1094
 9621SOL    HW229763   1.854   4.186   3.719 -1.9188 -0.7389  0.4735
 9622SOL     OW29764   5.191   1.292   0.333  0.1765 -0.0355 -0.3227
 9622SOL    HW129765   5.099   1.254   0.344  0.1953 -0.0100 -0.0701
 9622SOL    HW229766   5.220   1.281   0.238  0.9226 -2.3385  0.1200
 9623SOL     OW29767   0.986   4.579   5.964 -0.1221 -0.3862 -0.2564
 9623SOL    HW129768   0.974   4.490   5.920  0.0006 -0.3745 -0.3145
 9623SOL    HW229769   0.986   4.650   5.895  0.9096 -0.4395 -0.3224
 9624SOL     OW29770   6.348   3.419   5.857  0.9861  0.5091 -0.9277
 9624SOL    HW129771   6.302   3.497   5.900  2.6110  1.5777 -1.0361
 9624SOL    HW229772   6.447   3.427   5.871  1.3009 -0.7956 -2.1841
 9625SOL     OW29773   5.374   5.092   2.951 -0.3402  0.2362 -0.3590
 9625SOL    HW129774   5.334   5.152   3.021 -0.0719  1.8680 -1.5439
 9625SOL    HW229775   5.463   5.059   2.983  0.7204  2.5998 -0.6850
 9626SOL     OW29776   3.542   0.061   6.021 -0.0964  0.3860 -0.1868
 9626SOL    HW129777   3.464  -0.002   6.014 -0.6177  1.1434 -1.5970
 9626SOL    HW229778   3.583   0.054   6.112  0.1570 -2.3397 -0.4188
 9627SOL     OW29779   6.372   1.485   0.156 -0.1996 -0.6204  0.3529
 9627SOL    HW129780   6.304   1.553   0.132  0.1403 -0.0566  0.9640
 9627SOL    HW229781   6.447   1.487   0.090  0.2791  0.2798  0.9004
 9628SOL     OW29782   4.420   6.629   1.348  0.5599 -0.3728 -0.2819
 9628SOL    HW129783   4.354   6.674   1.288  0.7529 -0.4237 -0.5384
 9628SOL    HW229784   4.489   6.696   1.378 -0.0319 -0.1443  0.6024
 9629SOL     OW29785   1.643   6.796   1.342 -0.2572  0.2885 -0.3558
 9629SOL    HW129786   1.583   6.741   1.284  0.8709 -0.4856 -0.8377
 9629SOL    HW229787   1.639   6.892   1.314 -0.5542  0.0906 -0.9924
 9630SOL     OW29788   0.737   1.482   6.258 -0.6965 -0.1835 -0.1345
 9630SOL    HW129789   0.687   1.416   6.203 -1.2244  0.0812  0.0242
 9630SOL    HW229790   0.756   1.444   6.349 -1.1762 -0.0504  0.0263
 9631SOL     OW29791   5.996   6.566   0.392  0.3470 -0.5590  0.1375
 9631SOL    HW129792   6.073   6.525   0.343 -0.4281 -0.6540 -1.0696
 9631SOL    HW229793   5.920   6.501   0.396 -0.6597  0.4483 -1.2155
 9632SOL     OW29794   1.287   4.321   2.372 -0.1179 -0.4222  0.6084
 9632SOL    HW129795   1.190   4.303   2.354  0.0150 -2.2257  1.4287
 9632SOL    HW229796   1.337   4.323   2.286 -0.9457  1.0621  0.1345
 9633SOL     OW29797   0.520   3.215   0.362 -0.4147  0.6728 -0.0692
 9633SOL    HW129798   0.435   3.170   0.389 -1.8705  2.7698 -0.8970
 9633SOL    HW229799   0.567   3.249   0.444  0.6522 -2.0219  0.5686
 9634SOL     OW29800   6.298   3.748   4.519 -0.6414 -0.0620  0.5559
 9634SOL    HW129801   6.386   3.744   4.470 -2.2049 -0.0631 -2.5104
 9634SOL    HW229802   6.254   3.836   4.499 -1.4599 -0.1504  1.8858
 9635SOL     OW29803   0.313   6.746   5.502  0.0261  0.1845 -0.0197
 9635SOL    HW129804   0.301   6.675   5.432  0.5342 -0.3946  0.4695
 9635SOL    HW229805   0.401   6.733   5.548 -0.5730  0.1840  1.1436
 9636SOL     OW29806   3.304   0.833   2.342  0.4013  0.6050 -0.5806
 9636SOL    HW129807   3.220   0.835   2.288 -0.7929 -2.9640  0.8353
 9636SOL    HW229808   3.359   0.754   2.316  1.4291  0.6897  1.1430
 9637SOL     OW29809   4.685   1.620   0.347  0.1575  0.6880  0.4029
 9637SOL    HW129810   4.599   1.622   0.296  0.8796  0.0787 -0.8756
 9637SOL    HW229811   4.682   1.689   0.419 -1.4794  0.5302  0.5190
 9638SOL     OW29812   5.993   1.447   5.902 -0.5440 -0.2260  0.3397
 9638SOL    HW129813   6.045   1.423   5.984  0.6493  0.4092 -0.2234
 9638SOL    HW229814   5.895   1.434   5.921 -0.2383 -0.9698  1.5588
 9639SOL     OW29815   2.690   0.723   6.985 -0.6580 -0.7924  0.1715
 9639SOL    HW129816   2.624   0.787   7.025  0.9580  1.5324 -0.6868
 9639SOL    HW229817   2.781   0.742   7.022  0.2666 -0.9328 -1.8989
 9640SOL     OW29818   2.109   3.375   3.073 -0.0355  0.7700  0.2553
 9640SOL    HW129819   2.089   3.297   3.014  1.2180  0.4149  0.2735
 9640SOL    HW229820   2.129   3.343   3.166  0.8644  1.0701  0.1724
 9641SOL     OW29821   6.260   3.568   6.733  0.0964  0.4708 -0.1457
 9641SOL    HW129822   6.297   3.488   6.684 -1.7861 -0.2409 -0.4782
 9641SOL    HW229823   6.228   3.635   6.666 -2.0485 -0.2980  0.0492
 9642SOL     OW29824   4.043   0.483   3.672 -0.0697 -0.1507 -0.1212
 9642SOL    HW129825   3.950   0.499   3.704  0.1517  0.5550  0.1853
 9642SOL    HW229826   4.101   0.560   3.698  1.0795 -1.5064  1.5947
 9643SOL     OW29827   3.069   5.180   2.726 -0.3077 -0.0814 -0.7202
 9643SOL    HW129828   3.001   5.244   2.692 -1.3676 -0.3872  0.7329
 9643SOL    HW229829   3.129   5.226   2.791  1.7030  0.4977 -2.8412
 9644SOL     OW29830   1.748   0.792   6.941 -0.3611  0.5453 -0.3093
 9644SOL    HW129831   1.763   0.884   6.977  0.6658  0.2257  0.1374
 9644SOL    HW229832   1.708   0.735   7.013 -0.1022  0.3991 -0.2803
 9645SOL     OW29833   4.668   5.867   5.966  0.1788  0.7448 -0.2630
 9645SOL    HW129834   4.640   5.876   5.870  0.2505 -0.3924 -0.3970
 9645SOL    HW229835   4.712   5.953   5.996 -0.1643  1.2347 -1.1305
 9646SOL     OW29836   2.567   5.584   3.634  0.4934 -0.0980  0.2933
 9646SOL    HW129837   2.608   5.672   3.658 -1.2636  0.9590 -0.3025
 9646SOL    HW229838   2.506   5.555   3.708  1.8771 -1.3881  0.9583
 9647SOL     OW29839   5.949   2.095   5.897  0.1595 -0.1851 -0.0345
 9647SOL    HW129840   5.858   2.066   5.927  0.1758 -1.0653 -0.7738
 9647SOL    HW229841   5.956   2.086   5.798  0.4910  1.5482 -0.1972
 9648SOL     OW29842   4.792   4.508   6.294  0.4939 -0.0791  0.3308
 9648SOL    HW129843   4.888   4.479   6.302  0.5541  0.5135  2.4788
 9648SOL    HW229844   4.734   4.429   6.277  1.2254 -0.6356  0.4065
 9649SOL     OW29845   1.336   4.222   1.223  0.6360 -0.4537  0.6318
 9649SOL    HW129846   1.343   4.197   1.126  0.9144 -0.2677  0.6037
 9649SOL    HW229847   1.281   4.153   1.271  1.0622 -0.9140  0.4735
 9650SOL     OW29848   2.228   6.334   6.362  0.2361  0.2362  0.5162
 9650SOL    HW129849   2.147   6.393   6.353  0.3378  0.3961  0.6551
 9650SOL    HW229850   2.199   6.241   6.386  0.0935  0.2973  0.5823
 9651SOL     OW29851   6.971   1.032   6.265 -0.2354 -0.0260 -0.1031
 9651SOL    HW129852   7.022   1.114   6.292 -0.5789  0.7824 -1.7407
 9651SOL    HW229853   7.033   0.968   6.219 -0.7546  1.3953 -3.0069
 9652SOL     OW29854   0.603   5.148   1.755  0.6356  0.3196 -0.2391
 9652SOL    HW129855   0.670   5.146   1.680  0.5030  1.5406 -0.4050
 9652SOL    HW229856   0.600   5.058   1.799 -0.2937 -0.8611 -2.5682
 9653SOL     OW29857   0.576   6.434   6.020 -0.4618 -0.1978  0.1768
 9653SOL    HW129858   0.594   6.380   5.938 -0.6287 -2.7657  1.7082
 9653SOL    HW229859   0.661   6.442   6.073 -0.6327  0.3697  0.3727
 9654SOL     OW29860   2.317   2.487   4.127  0.3763 -0.0904  0.2523
 9654SOL    HW129861   2.218   2.495   4.141  0.1440  0.2481 -1.4286
 9654SOL    HW229862   2.364   2.551   4.187 -0.4768  0.4751  0.3392
 9655SOL     OW29863   5.799   2.379   6.763 -0.5539  0.0090 -0.3091
 9655SOL    HW129864   5.891   2.346   6.784  0.2013  1.2339 -1.5015
 9655SOL    HW229865   5.750   2.310   6.710 -0.6447 -0.9811  1.0111
 9656SOL     OW29866   3.690   1.177   2.759 -0.2821 -0.8783  0.1317
 9656SOL    HW129867   3.612   1.183   2.697 -1.4170 -0.7476  1.5050
 9656SOL    HW229868   3.683   1.091   2.811  1.7583 -1.9946 -1.3038
 9657SOL     OW29869   2.721   6.918   6.132  0.0982  0.4648  0.1003
 9657SOL    HW129870   2.625   6.889   6.131 -0.5091  2.3880 -0.7194
 9657SOL    HW229871   2.751   6.938   6.038  1.0071  0.7975  0.4522
 9658SOL     OW29872   5.250   0.188   2.017 -0.0738  1.1068  0.1609
 9658SOL    HW129873   5.283   0.233   2.100 -0.2809  0.6584  0.4934
 9658SOL    HW229874   5.172   0.130   2.040  0.2336  0.5234 -0.2459
 9659SOL     OW29875   0.740   7.012   0.172 -0.2306  0.3377 -0.2870
 9659SOL    HW129876   0.761   7.068   0.253 -2.7859 -0.6590  1.1682
 9659SOL    HW229877   0.797   7.042   0.096  1.2035  2.3402  1.4447
 9660SOL     OW29878   1.298   3.901   1.297 -0.4021 -0.4090  0.3931
 9660SOL    HW129879   1.348   3.927   1.214  0.6894 -2.4020  0.3775
 9660SOL    HW229880   1.211   3.859   1.271 -0.7097  0.2545  0.3240
 9661SOL     OW29881   5.183   0.302   3.889 -0.0722 -0.2459  0.5446
 9661SOL    HW129882   5.252   0.278   3.820  1.9397  0.7992  2.1033
 9661SOL    HW229883   5.158   0.220   3.940  0.4245 -0.5468  0.3165
 9662SOL     OW29884   5.097   2.693   4.580  0.0141 -0.1737  0.1315
 9662SOL    HW129885   5.073   2.644   4.664 -1.1866  1.3577  0.7128
 9662SOL    HW229886   5.036   2.771   4.567  0.8482  0.2497 -1.6288
 9663SOL     OW29887   3.985   5.856   3.646  0.1946 -0.2264  0.3509
 9663SOL    HW129888   4.039   5.821   3.723  0.8340  0.6022  0.2937
 9663SOL    HW229889   3.966   5.953   3.661  0.0235 -0.1447 -0.3833
 9664SOL     OW29890   3.683   5.034   6.946  0.0840 -0.2460 -0.0108
 9664SOL    HW129891   3.594   5.059   6.907 -0.7153 -0.8067  1.3635
 9664SOL    HW229892   3.702   5.093   7.024 -0.2728 -1.6910  1.2192
 9665SOL     OW29893   6.513   0.117   3.551 -0.2862  0.3111 -0.3012
 9665SOL    HW129894   6.568   0.047   3.506 -1.1695 -1.1956  0.9009
 9665SOL    HW229895   6.574   0.190   3.584  0.6318  0.2066 -1.6485
 9666SOL     OW29896   5.167   4.207   5.261  0.2813  0.0492 -0.3881
 9666SOL    HW129897   5.172   4.285   5.324 -1.9811 -0.2098  0.2223
 9666SOL    HW229898   5.226   4.133   5.294  0.1002  0.3869  0.7376
 9667SOL     OW29899   2.858   3.487   2.810 -0.5124 -0.1984 -0.3762
 9667SOL    HW129900   2.884   3.486   2.713 -1.5021 -0.8553 -0.6482
 9667SOL    HW229901   2.867   3.580   2.847  3.6162 -0.5275 -0.0331
 9668SOL     OW29902   6.117   6.083   4.874 -0.1235 -0.1684  0.1145
 9668SOL    HW129903   6.086   6.160   4.818 -1.4128 -1.0088 -0.3792
 9668SOL    HW229904   6.066   6.000   4.848 -0.6258 -0.6427  2.3657
 9669SOL     OW29905   0.123   1.301   5.865 -0.0437 -0.2400 -0.0619
 9669SOL    HW129906   0.032   1.263   5.849 -0.0633 -0.5099  0.6602
 9669SOL    HW229907   0.123   1.398   5.839 -0.6277 -0.1594  0.2043
 9670SOL     OW29908   5.008   5.629   5.891  0.3264 -0.7557 -0.7834
 9670SOL    HW129909   5.031   5.534   5.867  0.2579 -0.9487 -0.1029
 9670SOL    HW229910   5.029   5.689   5.813  1.1456 -1.2119 -0.9266
 9671SOL     OW29911   5.927   2.128   5.629 -0.3937  0.5512 -0.2993
 9671SOL    HW129912   5.877   2.158   5.548  1.5838  1.3779 -1.2836
 9671SOL    HW229913   5.938   2.029   5.627 -1.9276  0.3364 -0.0406
 9672SOL     OW29914   0.170   0.421   5.178  0.1976 -0.1037  0.7273
 9672SOL    HW129915   0.143   0.503   5.128  1.8341 -0.0698 -0.1641
 9672SOL    HW229916   0.089   0.378   5.217 -0.9799  0.5862 -0.8546
 9673SOL     OW29917   0.957   2.523   5.900 -0.4425 -0.2816 -0.1658
 9673SOL    HW129918   0.939   2.434   5.941  0.0033 -0.5327 -0.5083
 9673SOL    HW229919   1.008   2.511   5.815  0.0790  0.3327  0.0553
 9674SOL     OW29920   2.298   0.175   1.004 -0.5508  0.5831  0.0998
 9674SOL    HW129921   2.338   0.084   1.004  0.3020  0.9382 -0.7691
 9674SOL    HW229922   2.298   0.211   1.097 -0.0146  0.0717  0.3033
 9675SOL     OW29923   1.658   3.165   3.079  0.0994  0.6781  1.3227
 9675SOL    HW129924   1.688   3.144   3.172 -1.3250 -0.3977  1.5613
 9675SOL    HW229925   1.587   3.235   3.082 -1.9559 -1.3073  1.3324
 9676SOL     OW29926   6.993   3.508   5.066  0.3137 -0.5842 -0.1997
 9676SOL    HW129927   6.980   3.417   5.027  0.6617 -1.3400  1.3636
 9676SOL    HW229928   7.011   3.500   5.164  0.9240  1.1351 -0.1327
 9677SOL     OW29929   1.252   2.944   5.277  0.5253 -0.5343 -0.0035
 9677SOL    HW129930   1.199   2.998   5.343 -1.9204 -1.5203 -1.0433
 9677SOL    HW229931   1.310   3.004   5.224  2.8802  0.2821  3.1722
 9678SOL     OW29932   2.958   3.870   4.354 -0.2834 -0.6300  0.0127
 9678SOL    HW129933   3.018   3.864   4.434  0.0703 -1.8782 -0.3227
 9678SOL    HW229934   2.912   3.782   4.341 -0.7354 -0.2719 -0.8576
 9679SOL     OW29935   6.624   2.595   1.176 -0.2995 -0.2685  0.2818
 9679SOL    HW129936   6.601   2.582   1.273 -0.7264  0.5580  0.2964
 9679SOL    HW229937   6.597   2.687   1.147 -1.1226 -0.8569 -0.9000
 9680SOL     OW29938   5.094   4.282   1.990 -0.2213 -0.1093  0.1332
 9680SOL    HW129939   5.063   4.363   1.940  0.4827 -0.1290 -0.3471
 9680SOL    HW229940   5.016   4.219   2.004 -0.5002  0.0684 -0.6025
 9681SOL     OW29941   0.728   0.044   3.302  0.3739 -0.3707  0.3615
 9681SOL    HW129942   0.674  -0.035   3.330  0.6345 -1.3583 -1.6947
 9681SOL    HW229943   0.668   0.122   3.284 -0.2791 -1.1029 -0.7393
 9682SOL     OW29944   0.900   3.941   4.077  0.0044 -0.2342  0.1644
 9682SOL    HW129945   0.942   4.024   4.115 -0.4076  1.0450 -1.9867
 9682SOL    HW229946   0.829   3.909   4.139 -0.0896  1.2578  0.8781
 9683SOL     OW29947   5.231   6.860   2.989  0.2014 -0.0097  0.3332
 9683SOL    HW129948   5.211   6.775   3.039  0.4206 -1.2497 -1.5813
 9683SOL    HW229949   5.160   6.875   2.920  1.9267 -0.5090 -1.6290
 9684SOL     OW29950   1.761   3.848   4.006  0.0900  0.4370 -0.4719
 9684SOL    HW129951   1.723   3.894   4.086 -0.6126  0.8577 -1.0314
 9684SOL    HW229952   1.696   3.854   3.930  0.4828 -0.4964 -0.8927
 9685SOL     OW29953   6.705   0.709   6.808  0.1543  0.2361 -0.1808
 9685SOL    HW129954   6.788   0.659   6.783 -0.5732 -0.9885 -0.2373
 9685SOL    HW229955   6.651   0.726   6.726 -1.2883 -2.0511  0.2069
 9686SOL     OW29956   6.170   4.141   2.601  0.1125  0.0890  0.3835
 9686SOL    HW129957   6.238   4.069   2.603 -0.0514 -0.0587  0.7284
 9686SOL    HW229958   6.205   4.219   2.549  0.7967  0.2699  1.0946
 9687SOL     OW29959   3.968   1.095   6.365 -0.0382 -0.0085 -0.2534
 9687SOL    HW129960   4.028   1.137   6.298  0.4578  0.6224  0.5658
 9687SOL    HW229961   3.930   1.165   6.425 -0.4254 -0.5648  0.1677
 9688SOL     OW29962   6.097   3.167   3.823 -0.3002 -0.3292 -0.6872
 9688SOL    HW129963   6.116   3.264   3.838 -0.2383 -0.3716 -0.4928
 9688SOL    HW229964   6.068   3.124   3.909  1.4045 -0.8789 -0.3299
 9689SOL     OW29965   3.605   6.210   4.499  0.2996  0.0575 -0.2083
 9689SOL    HW129966   3.546   6.290   4.486  1.8082  1.2747  0.1612
 9689SOL    HW229967   3.572   6.135   4.441 -0.1538  1.4857 -1.9052
 9690SOL     OW29968   0.855   4.334   2.085  0.7496 -0.2097  0.3199
 9690SOL    HW129969   0.944   4.327   2.130  0.1301  1.7796  2.0157
 9690SOL    HW229970   0.795   4.392   2.140 -1.2428 -0.6024 -1.3497
 9691SOL     OW29971   3.365   5.328   1.402  1.0069  0.0972 -0.2728
 9691SOL    HW129972   3.316   5.245   1.374  2.3665 -0.3374 -1.4511
 9691SOL    HW229973   3.463   5.311   1.399  1.3158  1.8275 -0.7552
 9692SOL     OW29974   3.511   4.340   1.463  0.0711  0.4769 -0.8638
 9692SOL    HW129975   3.454   4.383   1.394  0.0286 -0.0758 -1.1795
 9692SOL    HW229976   3.468   4.349   1.553  0.9090  2.6488 -0.6233
 9693SOL     OW29977   1.476   6.253   0.529  0.1707 -0.4808 -0.8176
 9693SOL    HW129978   1.574   6.260   0.509  0.3187 -0.5194 -0.1328
 9693SOL    HW229979   1.448   6.330   0.586 -0.2039 -0.4472 -1.0509
 9694SOL     OW29980   0.927   1.235   0.801  0.1026  0.1336 -0.1030
 9694SOL    HW129981   0.969   1.157   0.847 -0.9016  0.1438  0.8714
 9694SOL    HW229982   0.875   1.289   0.867 -0.3549  0.8574 -1.0275
 9695SOL     OW29983   5.877   4.730   6.160  0.1466 -0.3710  0.2247
 9695SOL    HW129984   5.921   4.757   6.074  3.0222 -1.0548  1.3714
 9695SOL    HW229985   5.807   4.661   6.140 -0.9605  1.1882 -1.7489
 9696SOL     OW29986   4.156   3.894   0.539  0.0547 -0.2468  0.3789
 9696SOL    HW129987   4.225   3.961   0.509  0.0911 -0.4997 -0.1159
 9696SOL    HW229988   4.069   3.913   0.492 -0.6159  0.8887  1.9660
 9697SOL     OW29989   6.829   6.592   0.987 -0.4002  0.0388  0.0807
 9697SOL    HW129990   6.898   6.584   1.059 -0.3172  0.4860  0.0520
 9697SOL    HW229991   6.788   6.682   0.991 -0.0056  0.2618 -0.7829
 9698SOL     OW29992   5.455   1.440   5.076  0.0146  0.9774  0.2734
 9698SOL    HW129993   5.513   1.361   5.095  0.6652  1.0755 -1.1564
 9698SOL    HW229994   5.504   1.524   5.099 -0.0688  1.0138  0.3174
 9699SOL     OW29995   2.812   1.867   0.366  0.0335  0.1844  1.0282
 9699SOL    HW129996   2.813   1.801   0.291 -0.6935  0.1649  1.0275
 9699SOL    HW229997   2.839   1.957   0.332  0.3900  0.0262  0.8911
 9700SOL     OW29998   3.494   2.938   2.806  0.1995 -0.6384 -0.2946
 9700SOL    HW129999   3.482   2.843   2.777  0.5579 -0.9027  0.3983
 9700SOL    HW230000   3.543   2.941   2.893 -0.4881  0.1521  0.0848
 9701SOL     OW30001   1.096   4.505   2.931  0.1814 -0.3033  0.1201
 9701SOL    HW130002   1.173   4.542   2.983  0.1321 -0.1009  0.0508
 9701SOL    HW230003   1.060   4.576   2.870 -1.1297  0.1427  1.3575
 9702SOL     OW30004   5.664   0.557   1.318 -0.1279 -0.4224  0.4029
 9702SOL    HW130005   5.698   0.508   1.398  1.5786  1.7124  1.0859
 9702SOL    HW230006   5.568   0.533   1.303 -0.1236 -1.8703  2.2780
 9703SOL     OW30007   2.362   6.136   4.283 -0.4140  0.5848 -0.2405
 9703SOL    HW130008   2.303   6.216   4.290 -0.7253  0.3653 -0.3232
 9703SOL    HW230009   2.347   6.090   4.196 -0.3104  0.3789 -0.1529
 9704SOL     OW30010   3.685   6.461   4.061 -0.1267 -0.0009  0.1080
 9704SOL    HW130011   3.656   6.377   4.106 -0.0706  0.1606  0.4444
 9704SOL    HW230012   3.605   6.513   4.033 -0.2213  1.2791  2.5647
 9705SOL     OW30013   4.163   4.030   6.083 -0.0571  0.0875 -0.1452
 9705SOL    HW130014   4.086   4.074   6.129 -0.3678  0.8146 -1.3324
 9705SOL    HW230015   4.142   4.018   5.986  1.6391  1.1044 -0.6778
 9706SOL     OW30016   6.917   2.801   2.575  0.0311 -0.0223 -0.7187
 9706SOL    HW130017   6.987   2.735   2.600  0.8164  1.2364  0.5757
 9706SOL    HW230018   6.958   2.891   2.564 -1.2368  0.5656 -0.8502
 9707SOL     OW30019   4.276   4.213   0.844 -0.2568  0.1311 -0.0751
 9707SOL    HW130020   4.349   4.280   0.858  0.9403 -0.8313 -1.4766
 9707SOL    HW230021   4.228   4.198   0.930  2.1760 -0.3510  1.2771
 9708SOL     OW30022   1.452   2.088   1.750 -0.0215 -0.1089  0.0746
 9708SOL    HW130023   1.402   2.153   1.807 -0.4000  0.3787 -0.7866
 9708SOL    HW230024   1.415   2.091   1.657 -0.1930 -1.7223  0.0731
 9709SOL     OW30025   1.316   0.487   4.657  0.1156  0.6913 -0.2596
 9709SOL    HW130026   1.396   0.444   4.697 -0.3500  1.0664  1.1473
 9709SOL    HW230027   1.345   0.563   4.598  0.8154  0.1230 -0.6674
 9710SOL     OW30028   2.821   6.859   5.168 -0.1472  0.5683 -0.6947
 9710SOL    HW130029   2.823   6.952   5.131 -0.5856  1.2205  0.8220
 9710SOL    HW230030   2.778   6.861   5.259  1.7973 -0.7738  0.3175
 9711SOL     OW30031   1.382   4.728   6.132 -0.1019 -0.1627 -0.1526
 9711SOL    HW130032   1.429   4.714   6.219 -0.9157 -0.8070  0.1972
 9711SOL    HW230033   1.429   4.799   6.079 -0.1264  0.9162  1.2112
 9712SOL     OW30034   5.243   4.513   4.240  0.3603  0.2304 -0.2515
 9712SOL    HW130035   5.168   4.475   4.292 -0.8663  1.3067 -1.1609
 9712SOL    HW230036   5.263   4.606   4.273  1.5722 -0.1952  0.2524
 9713SOL     OW30037   0.290   0.268   4.234 -0.7836  0.5019 -0.1582
 9713SOL    HW130038   0.219   0.320   4.187  0.1300  2.2506  0.3175
 9713SOL    HW230039   0.325   0.322   4.311 -0.2923 -1.1335  0.8180
 9714SOL     OW30040   4.013   1.913   1.601 -0.5258  0.2268  0.1307
 9714SOL    HW130041   3.976   1.886   1.512  0.8519  1.1602 -0.7715
 9714SOL    HW230042   4.079   1.845   1.632  0.6882  0.9872 -0.6900
 9715SOL     OW30043   5.315   5.252   5.863 -0.2939  0.4188  0.0351
 9715SOL    HW130044   5.356   5.162   5.850 -1.8867 -0.0276 -2.5846
 9715SOL    HW230045   5.338   5.311   5.785 -1.7922  1.2431  0.1725
 9716SOL     OW30046   3.778   1.675   6.358  0.0831 -0.5648  0.3085
 9716SOL    HW130047   3.843   1.653   6.286  0.8853 -0.0752  0.8611
 9716SOL    HW230048   3.700   1.723   6.319  0.7628  0.1818 -0.1657
 9717SOL     OW30049   6.083   0.065   2.933 -0.0184  0.5756 -0.0667
 9717SOL    HW130050   6.028   0.021   3.004  0.6122 -0.0912  0.0214
 9717SOL    HW230051   6.107  -0.003   2.863 -1.2593  1.3752 -1.3367
 9718SOL     OW30052   5.261   3.434   2.802 -0.0474  0.4627  0.1404
 9718SOL    HW130053   5.297   3.397   2.888  0.4550  0.8934  0.1194
 9718SOL    HW230054   5.222   3.524   2.818  0.0619  0.5509 -0.0858
 9719SOL     OW30055   0.664   2.643   6.336 -0.0061  0.2942  0.3764
 9719SOL    HW130056   0.613   2.637   6.250 -3.5651  0.6612  2.2379
 9719SOL    HW230057   0.613   2.596   6.408  2.0101  1.3162  2.6302
 9720SOL     OW30058   6.803   0.755   6.049  0.2701  0.0029 -0.4362
 9720SOL    HW130059   6.870   0.681   6.061  0.8570  0.5468 -0.3188
 9720SOL    HW230060   6.774   0.788   6.139 -0.1067 -0.1772 -0.4875
 9721SOL     OW30061   0.545   3.106   2.247  0.4689  0.8789 -0.3302
 9721SOL    HW130062   0.483   3.054   2.188 -0.3638 -0.0475  1.2840
 9721SOL    HW230063   0.577   3.187   2.198 -0.8202  0.5879 -1.7469
 9722SOL     OW30064   0.762   0.859   4.544 -0.0217  0.2086 -0.0085
 9722SOL    HW130065   0.771   0.824   4.637 -0.7734  1.8494  0.7217
 9722SOL    HW230066   0.845   0.909   4.519  0.8540 -1.5891 -0.8707
 9723SOL     OW30067   0.071   0.702   5.621  0.1245 -0.9170 -0.2607
 9723SOL    HW130068   0.043   0.726   5.713  1.1122  0.0811 -0.1989
 9723SOL    HW230069   0.131   0.622   5.624  2.3158  0.6455  0.3025
 9724SOL     OW30070   3.265   1.638   0.084 -0.4096 -0.2708 -0.2127
 9724SOL    HW130071   3.221   1.674   0.166 -1.1451 -0.5983 -0.4603
 9724SOL    HW230072   3.302   1.547   0.103  0.9858  0.3696  0.2596
 9725SOL     OW30073   3.515   2.691   5.582 -0.2756  0.9000 -0.7587
 9725SOL    HW130074   3.558   2.781   5.590  1.9529 -0.0415 -1.4617
 9725SOL    HW230075   3.511   2.664   5.486 -0.5632  0.0879 -0.5278
 9726SOL     OW30076   6.718   6.346   4.721  0.1120  0.1623 -0.2449
 9726SOL    HW130077   6.681   6.254   4.737  0.3125  0.1741  0.3054
 9726SOL    HW230078   6.795   6.362   4.783  0.4494  0.4858 -0.7447
 9727SOL     OW30079   0.876   6.941   0.562 -0.0561 -0.4738  0.5590
 9727SOL    HW130080   0.902   6.960   0.657  0.1924  0.9772  0.2154
 9727SOL    HW230081   0.777   6.955   0.551  0.0613  0.2382  0.3991
 9728SOL     OW30082   1.760   4.555   6.460 -0.8053  0.5824  0.0665
 9728SOL    HW130083   1.737   4.618   6.535  3.6357  1.0069  1.3484
 9728SOL    HW230084   1.736   4.461   6.488  0.1391  0.8124  1.8518
 9729SOL     OW30085   2.689   5.725   2.551 -0.0715  0.2221 -0.0841
 9729SOL    HW130086   2.665   5.793   2.621  1.2404  0.1582  0.4410
 9729SOL    HW230087   2.612   5.663   2.538 -1.4292  1.9634 -0.7843
 9730SOL     OW30088   5.391   4.180   2.922 -0.8621  0.2321  0.4882
 9730SOL    HW130089   5.485   4.153   2.943 -0.6315  0.4642 -0.2271
 9730SOL    HW230090   5.382   4.195   2.824 -1.1092  2.2652  0.7883
 9731SOL     OW30091   6.605   4.270   0.120 -0.3683  0.3681 -0.6341
 9731SOL    HW130092   6.694   4.234   0.151 -0.4952  1.2838  0.9458
 9731SOL    HW230093   6.562   4.204   0.059  2.0395  0.5185 -2.6862
 9732SOL     OW30094   3.574   6.933   4.216  0.0705 -0.4172 -0.2814
 9732SOL    HW130095   3.638   6.911   4.289  1.0038  0.6341 -0.7596
 9732SOL    HW230096   3.480   6.918   4.248  0.5032 -0.9907  0.7616
 9733SOL     OW30097   5.321   3.379   5.209  0.4918 -0.0338 -0.5987
 9733SOL    HW130098   5.318   3.435   5.126  0.3734  0.0424 -0.5444
 9733SOL    HW230099   5.246   3.406   5.270  0.9372  0.3301 -0.2017
 9734SOL     OW30100   6.942   3.696   4.199  0.0976 -0.2202 -0.0051
 9734SOL    HW130101   6.952   3.752   4.282  0.5296 -0.8489  0.3823
 9734SOL    HW230102   7.005   3.730   4.129 -1.0849  1.0345 -0.4968
 9735SOL     OW30103   4.510   4.434   0.812  0.0598  0.4776  0.5597
 9735SOL    HW130104   4.516   4.477   0.722  1.8155  0.9830  0.8874
 9735SOL    HW230105   4.451   4.488   0.871 -0.1313  0.8021  0.0814
 9736SOL     OW30106   4.388   2.371   2.155 -0.3380 -0.3488  0.1994
 9736SOL    HW130107   4.302   2.332   2.190 -0.4068 -0.5382 -0.1758
 9736SOL    HW230108   4.459   2.301   2.154  0.3256  0.2426  2.1903
 9737SOL     OW30109   6.632   0.676   2.949  0.0041 -0.0610 -0.6013
 9737SOL    HW130110   6.681   0.600   2.992 -0.5770 -0.4873 -0.6725
 9737SOL    HW230111   6.605   0.742   3.018 -0.0575 -0.2486 -0.4435
 9738SOL     OW30112   1.877   0.347   2.036  0.1981  0.5295  0.8611
 9738SOL    HW130113   1.830   0.382   1.955 -0.0673  1.5693  1.4483
 9738SOL    HW230114   1.931   0.267   2.011  1.3721  1.7419 -0.6816
 9739SOL     OW30115   4.786   4.007   0.038  0.6797  0.0896  0.4440
 9739SOL    HW130116   4.695   4.047   0.049  0.2249 -0.8120  0.0956
 9739SOL    HW230117   4.825   3.988   0.128  0.5805  0.6003  0.5961
 9740SOL     OW30118   0.469   3.145   4.036  0.3814  0.5088  0.0217
 9740SOL    HW130119   0.533   3.213   4.072 -0.0333  0.3249  1.1388
 9740SOL    HW230120   0.519   3.080   3.978  1.1320  0.6142  0.5346
 9741SOL     OW30121   4.801   0.568   4.165  0.0076 -0.1620  0.4014
 9741SOL    HW130122   4.888   0.574   4.116  0.2442  0.7716  0.9105
 9741SOL    HW230123   4.726   0.569   4.099  0.3720 -0.7692 -0.0297
 9742SOL     OW30124   5.831   0.883   4.426  0.5190  0.4262 -0.4119
 9742SOL    HW130125   5.929   0.871   4.409  0.4266 -0.3063 -0.4389
 9742SOL    HW230126   5.779   0.847   4.349  0.2262  0.8448 -0.4126
 9743SOL     OW30127   1.104   6.467   5.618 -0.1559 -0.0803  0.0453
 9743SOL    HW130128   1.174   6.461   5.547  2.1264  1.7896  1.9565
 9743SOL    HW230129   1.083   6.563   5.636 -1.9873 -0.5682  0.7134
 9744SOL     OW30130   2.918   0.709   0.273 -0.4622  0.1036  0.3257
 9744SOL    HW130131   2.970   0.739   0.353 -1.4986  0.5216  0.8624
 9744SOL    HW230132   2.861   0.630   0.298 -0.8887  0.3177  0.0411
 9745SOL     OW30133   0.554   0.755   4.393  0.5342  0.2074  1.0499
 9745SOL    HW130134   0.604   0.771   4.478  0.8526  1.3038  0.6729
 9745SOL    HW230135   0.579   0.825   4.325  0.4608 -0.7805 -0.0289
 9746SOL     OW30136   6.052   0.112   6.963 -0.0962 -0.6364 -0.4338
 9746SOL    HW130137   6.023   0.080   6.873  2.1328  0.1171 -1.5005
 9746SOL    HW230138   6.031   0.210   6.972 -0.8248 -0.8300  0.1315
 9747SOL     OW30139   0.022   5.939   6.513  0.1789 -0.3085 -0.1519
 9747SOL    HW130140  -0.056   5.878   6.497  0.1672  0.0808 -1.7078
 9747SOL    HW230141  -0.001   6.004   6.585 -0.2567 -1.3388  0.6662
 9748SOL     OW30142   3.947   5.593   5.056 -0.5678  0.0793  0.1774
 9748SOL    HW130143   3.931   5.510   5.111 -0.5587 -0.5590 -0.7558
 9748SOL    HW230144   3.922   5.575   4.961 -0.4518  1.1247 -0.0633
 9749SOL     OW30145   1.051   6.011   3.757  0.0011  0.1354 -0.5341
 9749SOL    HW130146   1.131   5.951   3.750  0.3687  0.5408  0.1073
 9749SOL    HW230147   0.970   5.957   3.777  0.3304 -0.1504  0.0456
 9750SOL     OW30148   1.903   0.089   2.827 -0.4560 -0.2806 -0.1450
 9750SOL    HW130149   1.809   0.056   2.834 -1.5667  1.6455 -3.6610
 9750SOL    HW230150   1.941   0.064   2.738  1.1874  1.7755 -0.0895
 9751SOL     OW30151   1.746   2.700   5.823  0.1104 -0.4671  0.0653
 9751SOL    HW130152   1.807   2.779   5.814 -1.5150  0.7514 -1.0327
 9751SOL    HW230153   1.698   2.686   5.736 -1.4457 -1.1126  0.9940
 9752SOL     OW30154   2.140   5.953   4.935  0.2286 -0.5496 -0.2232
 9752SOL    HW130155   2.091   5.876   4.973  0.5184 -1.0869 -0.9137
 9752SOL    HW230156   2.221   5.972   4.990  0.3250 -0.9352 -0.2314
 9753SOL     OW30157   2.103   6.083   6.428 -0.3623 -0.8277 -0.0628
 9753SOL    HW130158   2.087   5.992   6.389  0.0641 -1.2779  0.7931
 9753SOL    HW230159   2.059   6.089   6.518  2.1698 -1.2838  1.2901
 9754SOL     OW30160   6.530   1.452   6.297  0.2560  0.5306 -0.5524
 9754SOL    HW130161   6.499   1.545   6.276 -2.4551 -0.2416 -0.4333
 9754SOL    HW230162   6.552   1.446   6.394 -0.3573  0.8898 -0.3806
 9755SOL     OW30163   4.125   5.639   6.262 -0.2836  0.2818  0.0004
 9755SOL    HW130164   4.122   5.638   6.162  0.1582  2.0849 -0.0694
 9755SOL    HW230165   4.197   5.579   6.294 -0.4437 -0.3337 -0.7636
 9756SOL     OW30166   3.393   1.809   6.732  0.0980 -0.1926 -0.1515
 9756SOL    HW130167   3.401   1.902   6.695  0.2092 -0.2724 -0.3325
 9756SOL    HW230168   3.430   1.807   6.825  0.6123 -0.1723 -0.3487
 9757SOL     OW30169   6.140   1.468   3.783 -0.0768 -0.2555 -0.0409
 9757SOL    HW130170   6.206   1.399   3.814 -0.1312 -1.0235 -1.5614
 9757SOL    HW230171   6.086   1.431   3.708 -1.0918  0.9662  0.0635
 9758SOL     OW30172   3.479   5.476   1.162 -0.1952  0.1346 -0.3882
 9758SOL    HW130173   3.445   5.499   1.253 -0.4462 -1.9690  0.1154
 9758SOL    HW230174   3.520   5.557   1.120 -0.2969  1.2198  1.4814
 9759SOL     OW30175   3.455   5.542   2.106 -0.6468 -0.0565 -0.0801
 9759SOL    HW130176   3.549   5.547   2.073  0.1571  0.9999  2.1624
 9759SOL    HW230177   3.440   5.452   2.148  0.0867  0.5267  1.4785
 9760SOL     OW30178   4.908   4.359   5.470  0.1082 -0.1383 -0.3665
 9760SOL    HW130179   4.998   4.367   5.513 -0.3088 -1.4715  0.8214
 9760SOL    HW230180   4.888   4.442   5.418  0.6319  1.5681  2.0136
 9761SOL     OW30181   5.985   5.032   2.612 -0.2413  0.0750  0.3948
 9761SOL    HW130182   6.027   5.122   2.603 -1.6074  0.5910 -1.6982
 9761SOL    HW230183   5.891   5.035   2.576 -0.1395 -2.2896 -0.2800
 9762SOL     OW30184   2.879   0.109   1.432  0.3510  0.1620 -0.3390
 9762SOL    HW130185   2.787   0.122   1.394  0.7967  0.6709 -1.2431
 9762SOL    HW230186   2.883   0.019   1.476 -0.7596  0.3738  0.2651
 9763SOL     OW30187   1.356   2.577   2.309  0.2332  0.1911  0.1433
 9763SOL    HW130188   1.367   2.592   2.407  0.5655  0.6894  0.0417
 9763SOL    HW230189   1.428   2.627   2.260 -0.1959  0.3169 -0.3756
 9764SOL     OW30190   2.099   2.076   2.443 -0.5377 -0.2279 -0.3740
 9764SOL    HW130191   2.094   2.116   2.352  1.1295 -1.2983 -1.0014
 9764SOL    HW230192   2.009   2.042   2.471 -1.0774  0.1625 -1.5975
 9765SOL     OW30193   5.832   0.633   4.125  0.1279 -1.1070 -0.1427
 9765SOL    HW130194   5.911   0.630   4.186  0.1457  1.0778  0.0241
 9765SOL    HW230195   5.840   0.712   4.064 -1.2255 -1.6830 -1.1267
 9766SOL     OW30196   3.524   1.792   6.980 -0.2174 -0.0257  0.2070
 9766SOL    HW130197   3.450   1.737   7.019  0.9736  0.2283  3.0087
 9766SOL    HW230198   3.554   1.860   7.047  2.5853 -0.1514 -0.8074
 9767SOL     OW30199   4.422   6.038   3.385 -0.1848 -0.1090  0.9902
 9767SOL    HW130200   4.436   5.985   3.301  1.8874  0.5367  0.8713
 9767SOL    HW230201   4.391   6.130   3.362 -2.8161 -0.8969  1.1473
 9768SOL     OW30202   6.805   0.699   3.269  0.0751  0.1725 -0.4305
 9768SOL    HW130203   6.900   0.728   3.286 -0.2520  1.6071 -0.8685
 9768SOL    HW230204   6.804   0.626   3.201  0.9039 -0.3134  0.0651
 9769SOL     OW30205   5.050   6.884   6.512  0.2446 -0.2838 -0.0404
 9769SOL    HW130206   4.994   6.805   6.487  1.0910 -1.2355  0.9328
 9769SOL    HW230207   4.997   6.968   6.499 -0.2880 -0.8973 -2.1829
 9770SOL     OW30208   0.485   3.064   6.013  0.2128  0.1938 -0.0070
 9770SOL    HW130209   0.471   3.144   5.954  0.2938 -0.9808 -1.6992
 9770SOL    HW230210   0.495   2.982   5.956  2.3742 -0.7218  1.5642
 9771SOL     OW30211   3.399   6.954   5.009 -0.6438  0.2375  0.3380
 9771SOL    HW130212   3.305   6.933   4.985 -0.3044 -1.0430  0.0441
 9771SOL    HW230213   3.401   7.025   5.079 -1.8572 -0.5062  1.1603
 9772SOL     OW30214   6.570   0.612   0.773  0.7091  0.4772  0.0312
 9772SOL    HW130215   6.660   0.656   0.765  0.8205  0.3626  0.6071
 9772SOL    HW230216   6.579   0.514   0.753  0.3608  0.7782 -1.8162
 9773SOL     OW30217   5.724   6.147   4.637  0.4581 -0.4034  0.9004
 9773SOL    HW130218   5.677   6.229   4.605  2.7747  1.0105  0.8931
 9773SOL    HW230219   5.778   6.108   4.562  1.4310 -0.3793  1.5590
 9774SOL     OW30220   0.564   5.850   5.026 -0.5348 -0.2269 -0.1930
 9774SOL    HW130221   0.480   5.820   4.981  0.3882 -1.0551 -1.4803
 9774SOL    HW230222   0.572   5.949   5.020 -0.6529 -0.2773 -1.5420
 9775SOL     OW30223   3.340   2.139   4.216 -0.1523  0.0837 -0.1720
 9775SOL    HW130224   3.405   2.124   4.291  0.6782  2.4996 -0.3045
 9775SOL    HW230225   3.253   2.168   4.254 -0.7492 -1.7301 -0.0612
 9776SOL     OW30226   6.057   5.717   3.280 -0.0425 -0.0588 -0.1012
 9776SOL    HW130227   6.103   5.779   3.216 -1.0933  0.3344 -0.5009
 9776SOL    HW230228   6.058   5.624   3.243 -0.1370  0.0656 -0.4196
 9777SOL     OW30229   5.191   5.071   1.537  0.7771 -0.3663  0.2392
 9777SOL    HW130230   5.137   5.122   1.471  0.2980  0.4166  1.2078
 9777SOL    HW230231   5.179   5.111   1.628 -1.2412 -3.3960  1.4706
 9778SOL     OW30232   1.632   0.377   5.356 -0.1436 -0.2755  0.4596
 9778SOL    HW130233   1.711   0.413   5.306 -0.1902 -0.3489  0.3333
 9778SOL    HW230234   1.623   0.279   5.339 -1.0714 -0.0138 -0.6312
 9779SOL     OW30235   3.719   2.043   5.552 -0.0224  0.0185 -0.5559
 9779SOL    HW130236   3.780   1.994   5.615  0.3378  1.8482  0.5971
 9779SOL    HW230237   3.712   2.139   5.580 -1.9971  0.2860 -1.7628
 9780SOL     OW30238   1.639   2.565   2.670 -0.6308  0.4410  0.7950
 9780SOL    HW130239   1.546   2.590   2.642 -0.9811 -0.2063  1.3351
 9780SOL    HW230240   1.694   2.543   2.589 -1.7078 -1.6824  0.5660
 9781SOL     OW30241   0.245   6.734   5.751  0.0608  0.6833 -0.1908
 9781SOL    HW130242   0.205   6.646   5.776 -0.0780  0.5943 -0.7124
 9781SOL    HW230243   0.249   6.741   5.651  0.6006  1.0304 -0.1442
 9782SOL     OW30244   5.774   0.049   6.855 -0.0724 -0.2944 -0.0807
 9782SOL    HW130245   5.755   0.011   6.946 -0.6004  0.2470  0.0412
 9782SOL    HW230246   5.717   0.130   6.840  0.8230  0.2763 -0.4578
 9783SOL     OW30247   6.116   0.197   6.118 -0.0265 -0.1568  0.3485
 9783SOL    HW130248   6.158   0.285   6.140 -4.1918  1.9389  0.8799
 9783SOL    HW230249   6.036   0.182   6.176 -2.0719 -2.1317 -2.6601
 9784SOL     OW30250   5.274   2.481   3.418  0.0093 -0.0681  0.2609
 9784SOL    HW130251   5.370   2.494   3.394  0.1262  1.1398  1.2204
 9784SOL    HW230252   5.231   2.571   3.431 -0.9811 -0.6074  0.8202
 9785SOL     OW30253   2.324   1.963   0.412  0.1204  0.0135  0.0870
 9785SOL    HW130254   2.266   1.912   0.349  1.0561 -2.0582  0.8421
 9785SOL    HW230255   2.290   1.950   0.505  0.4110  0.7448  0.3001
 9786SOL     OW30256   0.881   6.663   1.349 -0.0809 -0.2584 -0.5767
 9786SOL    HW130257   0.936   6.679   1.267 -1.9418 -1.3358 -2.1302
 9786SOL    HW230258   0.819   6.740   1.363  0.7341  0.2595  0.2812
 9787SOL     OW30259   6.550   3.865   1.452  0.2654 -0.1203 -0.2809
 9787SOL    HW130260   6.588   3.851   1.544 -0.3240 -1.5842 -0.2229
 9787SOL    HW230261   6.624   3.873   1.386  0.7249 -1.7089 -0.0109
 9788SOL     OW30262   0.123   6.488   5.839 -0.9152 -0.1012 -0.4983
 9788SOL    HW130263   0.150   6.431   5.917 -1.1424 -0.5725 -0.7629
 9788SOL    HW230264   0.026   6.477   5.821 -0.8831  0.0790 -0.7936
 9789SOL     OW30265   0.177   4.004   4.358 -0.1730  0.1294 -0.4018
 9789SOL    HW130266   0.213   3.922   4.314  0.4988 -0.4413  1.1459
 9789SOL    HW230267   0.209   4.085   4.309 -0.9118 -0.5077 -1.9993
 9790SOL     OW30268   1.697   0.820   2.705 -0.0325  0.1013 -0.4606
 9790SOL    HW130269   1.652   0.859   2.785  0.8230  0.3850 -0.1026
 9790SOL    HW230270   1.769   0.882   2.674  1.2797 -1.0982  0.0578
 9791SOL     OW30271   0.787   1.326   1.020 -0.0374 -0.1535 -0.3736
 9791SOL    HW130272   0.764   1.229   1.031  0.3753 -0.0680  1.6655
 9791SOL    HW230273   0.852   1.353   1.091 -0.4498  1.7325 -0.6607
 9792SOL     OW30274   4.869   4.723   4.296  0.0971  0.4703 -0.5039
 9792SOL    HW130275   4.942   4.702   4.232 -0.7730 -1.0587 -1.0277
 9792SOL    HW230276   4.853   4.645   4.356 -1.3930  0.6122 -0.6802
 9793SOL     OW30277   6.912   4.026   1.097  0.3738 -0.4634  0.6854
 9793SOL    HW130278   6.932   4.103   1.157 -0.1526 -0.9696  1.5245
 9793SOL    HW230279   6.813   4.009   1.097  0.2905 -0.1575 -0.7251
 9794SOL     OW30280   2.465   3.567   0.239  0.0595  0.4030  0.9571
 9794SOL    HW130281   2.464   3.661   0.207 -0.1284  0.2709  0.5612
 9794SOL    HW230282   2.392   3.553   0.306  2.6185  1.6207  4.3074
 9795SOL     OW30283   0.897   5.935   2.188  0.7848 -0.0184  0.2136
 9795SOL    HW130284   0.879   6.031   2.209  1.3883  0.5965 -1.7695
 9795SOL    HW230285   0.811   5.883   2.192  0.6909  0.2270  2.8088
 9796SOL     OW30286   5.799   4.818   6.400  1.1442 -0.3292  0.1102
 9796SOL    HW130287   5.794   4.778   6.309  0.6017 -0.7059  0.3001
 9796SOL    HW230288   5.883   4.787   6.445  1.6212  0.1838 -0.4039
 9797SOL     OW30289   6.563   3.119   3.632 -0.3855  0.1969 -0.6019
 9797SOL    HW130290   6.465   3.104   3.640 -0.4815  0.7200 -0.7762
 9797SOL    HW230291   6.581   3.212   3.600  0.1507 -0.1380 -1.2965
 9798SOL     OW30292   0.634   0.346   0.262 -0.4782  0.1119  0.3199
 9798SOL    HW130293   0.594   0.298   0.340 -0.3983  0.9724  0.9084
 9798SOL    HW230294   0.721   0.387   0.290  0.9525 -1.8789 -0.9775
 9799SOL     OW30295   3.744   3.693   3.936  0.2586  0.6543 -0.0349
 9799SOL    HW130296   3.837   3.691   3.972  0.2362  0.0106 -0.0151
 9799SOL    HW230297   3.732   3.776   3.881  1.0611  0.4020 -0.6205
 9800SOL     OW30298   5.175   5.333   0.459 -0.2715  0.4247 -0.2389
 9800SOL    HW130299   5.100   5.309   0.398 -0.0575  0.7827 -0.6493
 9800SOL    HW230300   5.239   5.256   0.466 -0.8852 -0.0357  0.4443
 9801SOL     OW30301   5.353   4.278   1.895 -0.1493  0.1781  0.1174
 9801SOL    HW130302   5.261   4.268   1.933  0.2206 -2.8989  0.4471
 9801SOL    HW230303   5.350   4.261   1.796  0.2733 -2.0185  0.4319
 9802SOL     OW30304   1.332   0.481   1.893 -0.3436 -0.6118  0.1319
 9802SOL    HW130305   1.379   0.493   1.806 -2.0686  1.4491 -0.5848
 9802SOL    HW230306   1.399   0.476   1.967  1.0438  1.2315 -0.9408
 9803SOL     OW30307   4.544   6.490   0.011 -0.1203 -0.0790 -0.4030
 9803SOL    HW130308   4.574   6.433  -0.065 -0.3350 -1.4918  0.5268
 9803SOL    HW230309   4.446   6.506   0.004  0.4481  3.7246 -2.9053
 9804SOL     OW30310   3.967   6.726   3.444 -0.4353 -0.3660 -0.1698
 9804SOL    HW130311   3.937   6.638   3.480  0.2329 -0.3127  0.5380
 9804SOL    HW230312   4.054   6.752   3.486 -0.6409  0.6508 -0.3330
 9805SOL     OW30313   3.551   5.785   1.814 -0.9951  0.4876 -0.2139
 9805SOL    HW130314   3.483   5.830   1.871 -0.6225  0.9420 -0.1219
 9805SOL    HW230315   3.594   5.711   1.867  0.2106  1.6807  0.5492
 9806SOL     OW30316   1.187   0.391   2.238 -0.1006 -0.2296  0.0976
 9806SOL    HW130317   1.287   0.396   2.236 -0.1127  1.9706  1.5051
 9806SOL    HW230318   1.156   0.391   2.333 -1.4519 -1.1650 -0.3219
 9807SOL     OW30319   3.134   2.557   0.299 -0.0908 -0.2187  0.0522
 9807SOL    HW130320   3.073   2.636   0.295 -0.5645 -0.6129 -1.2155
 9807SOL    HW230321   3.226   2.587   0.323 -0.2111  0.7573 -0.6547
 9808SOL     OW30322   1.512   2.197   2.762 -0.2630  0.7058 -0.1094
 9808SOL    HW130323   1.578   2.204   2.837  0.6472  2.7390 -1.0382
 9808SOL    HW230324   1.538   2.120   2.703  0.3636  0.5252  0.3833
 9809SOL     OW30325   0.256   0.744   3.268 -0.0551 -0.4574  0.2026
 9809SOL    HW130326   0.216   0.819   3.215  0.6456  0.1694  0.5469
 9809SOL    HW230327   0.212   0.739   3.357 -0.1657 -0.5241  0.1455
 9810SOL     OW30328   5.258   0.045   4.015  0.3202 -0.0007  0.1604
 9810SOL    HW130329   5.330  -0.023   4.002  1.6511  1.2713  0.6198
 9810SOL    HW230330   5.192   0.012   4.082  0.5903 -1.0933 -0.0965
 9811SOL     OW30331   1.027   0.378   1.121  0.5271  0.4412  0.0803
 9811SOL    HW130332   1.089   0.315   1.169 -0.8847 -1.3160 -0.3094
 9811SOL    HW230333   1.006   0.342   1.031  0.0252  1.7394 -0.3473
 9812SOL     OW30334   0.887   2.225   6.430 -0.1863  0.2748 -0.0425
 9812SOL    HW130335   0.915   2.314   6.393 -1.0460  0.3198 -0.6014
 9812SOL    HW230336   0.800   2.197   6.389  0.3547 -1.0999 -0.3087
 9813SOL     OW30337   5.614   5.212   5.708 -0.5819  0.2403  0.7253
 9813SOL    HW130338   5.544   5.267   5.661 -0.3342  2.5501  2.8240
 9813SOL    HW230339   5.631   5.129   5.656 -1.8109  1.5978 -2.0874
 9814SOL     OW30340   5.748   0.775   4.684  0.4588  0.0628  0.0245
 9814SOL    HW130341   5.657   0.789   4.723 -1.2960 -2.2975 -2.7549
 9814SOL    HW230342   5.752   0.818   4.594  1.8925 -0.3163 -0.1056
 9815SOL     OW30343   6.049   6.393   2.907  0.8233  0.0060  0.6211
 9815SOL    HW130344   6.088   6.301   2.901  0.3677 -0.1177 -0.8047
 9815SOL    HW230345   5.958   6.388   2.948 -1.0707 -0.8577 -3.2308
 9816SOL     OW30346   6.211   2.339   4.409 -0.5558  0.7134 -0.0838
 9816SOL    HW130347   6.211   2.304   4.315  2.2005  1.5198 -0.4722
 9816SOL    HW230348   6.189   2.264   4.472  0.2169 -0.5171 -1.2100
 9817SOL     OW30349   2.993   2.611   6.792 -1.0411 -0.0895  0.2474
 9817SOL    HW130350   3.063   2.659   6.845  0.4115 -1.2823 -0.5301
 9817SOL    HW230351   2.926   2.571   6.855 -1.8156  2.1548  0.9424
 9818SOL     OW30352   0.439   6.438   2.620  0.2009 -0.1373  0.4766
 9818SOL    HW130353   0.466   6.533   2.635  0.2099 -0.0779  0.0807
 9818SOL    HW230354   0.471   6.407   2.531  0.5744 -0.6525  0.7813
 9819SOL     OW30355   5.737   1.505   3.821  0.3460  0.2723 -0.0838
 9819SOL    HW130356   5.697   1.560   3.748 -2.3654 -0.5436  0.6612
 9819SOL    HW230357   5.776   1.421   3.782 -1.7399 -0.5186 -0.6087
 9820SOL     OW30358   2.392   1.693   1.087 -0.0571  0.0917  0.7879
 9820SOL    HW130359   2.358   1.677   1.180  0.4039 -1.3393  0.7255
 9820SOL    HW230360   2.431   1.609   1.050 -1.3657  0.2704 -1.1907
 9821SOL     OW30361   4.977   3.287   4.943  0.2466  0.3075 -0.0026
 9821SOL    HW130362   4.980   3.377   4.900 -0.3636  0.8789  1.1343
 9821SOL    HW230363   4.900   3.281   5.005  0.3013 -0.9952 -0.0188
 9822SOL     OW30364   3.462   1.762   3.060 -0.0745  0.3606 -0.5870
 9822SOL    HW130365   3.557   1.765   3.090 -0.0087  0.3091 -0.7899
 9822SOL    HW230366   3.437   1.667   3.040 -0.0458  0.4249 -0.9287
 9823SOL     OW30367   4.963   6.895   3.843 -0.0266  0.1826 -0.7882
 9823SOL    HW130368   4.906   6.813   3.850  0.6467 -0.2193  0.3573
 9823SOL    HW230369   5.050   6.870   3.800  0.8587 -0.1209  1.0718
 9824SOL     OW30370   1.577   5.764   6.949 -0.5210 -0.1021  0.1926
 9824SOL    HW130371   1.512   5.723   6.885  0.4106 -0.5619 -0.4826
 9824SOL    HW230372   1.657   5.705   6.957 -0.5873 -0.0108  1.7403
 9825SOL     OW30373   0.156   0.446   5.600 -0.5386  0.4719  0.0753
 9825SOL    HW130374   0.224   0.415   5.534  0.8467  1.2488  1.0838
 9825SOL    HW230375   0.168   0.397   5.687 -1.9976 -0.1663 -0.0542
 9826SOL     OW30376   2.197   6.327   4.276  0.3006 -0.0889  0.5964
 9826SOL    HW130377   2.171   6.408   4.222  0.0720  0.0942  0.9803
 9826SOL    HW230378   2.140   6.249   4.248  0.4387 -0.0910  0.3112
 9827SOL     OW30379   0.888   4.984   0.795  0.3330  0.0309  0.3341
 9827SOL    HW130380   0.793   4.953   0.795  0.7183 -1.2660 -0.9424
 9827SOL    HW230381   0.937   4.941   0.870  0.2242 -0.3810  0.1733
 9828SOL     OW30382   5.778   1.283   2.103 -0.3149 -0.3964  0.1478
 9828SOL    HW130383   5.740   1.223   2.033 -0.1977  0.0895 -0.3367
 9828SOL    HW230384   5.876   1.268   2.112 -0.4325 -0.9103  0.6654
 9829SOL     OW30385   3.804   5.991   5.228  0.1453  0.1050  0.4380
 9829SOL    HW130386   3.899   5.961   5.239  0.0134 -0.8102 -0.7132
 9829SOL    HW230387   3.798   6.054   5.151 -0.3419 -0.6403 -0.1365
 9830SOL     OW30388   6.624   0.683   1.439 -0.4434 -0.1592  0.3586
 9830SOL    HW130389   6.596   0.725   1.525 -2.8357  0.1214 -0.4930
 9830SOL    HW230390   6.590   0.590   1.434 -1.0617  0.1054 -0.6272
 9831SOL     OW30391   0.348   0.087   2.195  0.4073  0.1026 -0.3106
 9831SOL    HW130392   0.365   0.129   2.106  1.1309  0.5064  0.0105
 9831SOL    HW230393   0.375   0.150   2.267  2.3388 -1.1968  0.1846
 9832SOL     OW30394   4.323   5.616   5.186 -0.1922 -0.0773 -0.1521
 9832SOL    HW130395   4.257   5.636   5.113 -0.3081  0.2776  0.0464
 9832SOL    HW230396   4.339   5.517   5.190 -0.8419 -0.1865 -0.0921
 9833SOL     OW30397   4.684   4.496   5.601  0.0460  0.1275  0.1958
 9833SOL    HW130398   4.729   4.439   5.532 -2.6274 -0.6578 -1.0231
 9833SOL    HW230399   4.677   4.444   5.686  2.9748  0.9489  1.0615
 9834SOL     OW30400   0.916   4.362   6.309 -0.6575  0.3182  0.2987
 9834SOL    HW130401   1.000   4.403   6.273 -0.1613 -2.0056 -1.5084
 9834SOL    HW230402   0.936   4.315   6.395  0.2235 -1.0300 -0.5866
 9835SOL     OW30403   3.453   3.237   3.508 -0.2277  0.0112 -0.1656
 9835SOL    HW130404   3.522   3.279   3.450  0.2844  0.4800  0.7559
 9835SOL    HW230405   3.376   3.299   3.521  0.5222  0.7128  1.1836
 9836SOL     OW30406   6.120   2.636   6.160 -0.2987  0.2735  0.0809
 9836SOL    HW130407   6.174   2.608   6.081 -0.2416 -0.5387  0.3969
 9836SOL    HW230408   6.025   2.651   6.131  0.3125  3.0754 -0.7624
 9837SOL     OW30409   5.367   6.746   6.144 -0.5061  0.4776  0.5051
 9837SOL    HW130410   5.382   6.774   6.238 -0.9383 -1.8938  1.3691
 9837SOL    HW230411   5.382   6.647   6.136  0.3185  0.7332 -2.1097
 9838SOL     OW30412   2.682   5.030   2.675  0.0301 -0.1776 -0.1264
 9838SOL    HW130413   2.609   4.987   2.623 -2.3384  0.4464  2.4233
 9838SOL    HW230414   2.678   5.129   2.664 -1.9545  0.1654  2.7592
 9839SOL     OW30415   4.763   6.994   3.337 -0.4211 -0.3962 -0.5070
 9839SOL    HW130416   4.849   6.947   3.314 -0.2061 -0.0540 -0.4046
 9839SOL    HW230417   4.771   7.036   3.428 -0.2745  0.6539 -0.9963
 9840SOL     OW30418   0.284   0.930   4.219  0.2753  0.2156  0.1905
 9840SOL    HW130419   0.310   0.952   4.313  1.7556 -1.0591  0.1151
 9840SOL    HW230420   0.366   0.920   4.163 -0.5295 -0.4131 -0.9179
 9841SOL     OW30421   0.186   6.659   4.324  0.6013  0.4462  0.2838
 9841SOL    HW130422   0.145   6.721   4.390 -0.8347  0.0247 -0.1662
 9841SOL    HW230423   0.285   6.676   4.319  0.7355  0.5567  2.4174
 9842SOL     OW30424   3.393   0.604   6.703  0.1736  0.4681 -0.0752
 9842SOL    HW130425   3.434   0.641   6.620  0.7678 -0.6646 -0.3031
 9842SOL    HW230426   3.294   0.609   6.697  0.2302  1.4270 -0.3641
 9843SOL     OW30427   0.909   0.148   0.364 -0.3515 -0.1346 -0.1029
 9843SOL    HW130428   0.898   0.090   0.445  0.9317 -0.3086 -0.0330
 9843SOL    HW230429   1.004   0.144   0.333 -1.0725 -1.1024 -2.4010
 9844SOL     OW30430   6.243   6.138   5.831 -0.3518 -0.0695  0.0618
 9844SOL    HW130431   6.320   6.190   5.867 -1.5480  0.8903  1.3694
 9844SOL    HW230432   6.276   6.059   5.780  1.4804  0.4549  0.3847
 9845SOL     OW30433   0.997   3.894   3.478  0.3087 -0.3583 -0.5526
 9845SOL    HW130434   1.092   3.907   3.451  0.0367  0.9375 -0.9742
 9845SOL    HW230435   0.988   3.808   3.528  1.8635 -0.0985  0.2538
 9846SOL     OW30436   0.113   1.183   2.630  0.8224 -0.0045 -0.3143
 9846SOL    HW130437   0.189   1.191   2.694  1.7439 -0.7217 -1.2846
 9846SOL    HW230438   0.139   1.124   2.554 -0.9304 -0.7826 -0.3560
 9847SOL     OW30439   3.550   3.802   6.938 -0.1541 -0.7581 -0.1925
 9847SOL    HW130440   3.463   3.788   6.986  1.1288 -4.3079  1.5027
 9847SOL    HW230441   3.623   3.757   6.989  2.3851  0.3564 -2.5947
 9848SOL     OW30442   6.789   4.265   6.129  0.1417  0.4375  0.0625
 9848SOL    HW130443   6.828   4.204   6.060  1.3952  1.3639 -0.0683
 9848SOL    HW230444   6.858   4.329   6.161 -1.3521  2.4996 -0.5639
 9849SOL     OW30445   2.620   1.276   2.587 -0.3666 -0.2508 -0.2507
 9849SOL    HW130446   2.544   1.222   2.549  1.5385 -3.2411 -0.1332
 9849SOL    HW230447   2.600   1.299   2.682 -2.1885  1.3257 -0.9465
 9850SOL     OW30448   2.686   0.196   4.372 -0.0145  0.0075  0.4468
 9850SOL    HW130449   2.681   0.277   4.431  2.1125 -0.4977  1.4407
 9850SOL    HW230450   2.659   0.221   4.279  0.8982  1.9802  0.6459
 9851SOL     OW30451   4.049   6.752   2.831  0.1716  0.1658 -0.2307
 9851SOL    HW130452   4.024   6.667   2.877  0.8411  0.5699  0.9237
 9851SOL    HW230453   3.996   6.827   2.869  1.5682  0.6887  0.7454
 9852SOL     OW30454   2.794   1.827   6.499  0.2322  0.1949  0.3845
 9852SOL    HW130455   2.828   1.816   6.406  0.4198  1.0113  0.3467
 9852SOL    HW230456   2.843   1.765   6.560  0.2062 -0.2426 -0.0380
 9853SOL     OW30457   2.502   2.590   3.573  0.4316 -0.2328  0.2128
 9853SOL    HW130458   2.452   2.566   3.655  1.0016 -1.9637  0.0986
 9853SOL    HW230459   2.454   2.663   3.524 -0.2995  0.2981  1.6686
 9854SOL     OW30460   4.455   2.531   6.290 -0.7699 -1.0446 -0.5132
 9854SOL    HW130461   4.463   2.468   6.368 -1.0536 -1.9617 -1.2018
 9854SOL    HW230462   4.405   2.613   6.319 -0.0361 -0.9408  0.5093
 9855SOL     OW30463   6.182   6.329   0.800  0.0452  0.3588  0.1120
 9855SOL    HW130464   6.171   6.316   0.701  1.1698  0.5275 -0.0556
 9855SOL    HW230465   6.255   6.268   0.833  0.1438  0.7916  0.7101
 9856SOL     OW30466   4.772   4.140   3.948  0.2440  0.3076 -0.1413
 9856SOL    HW130467   4.814   4.054   3.976  0.9507  0.2463 -1.3500
 9856SOL    HW230468   4.796   4.211   4.014  1.6682  0.1144 -0.4109
 9857SOL     OW30469   2.230   6.003   5.699 -0.1646  0.7966  0.4213
 9857SOL    HW130470   2.165   5.929   5.684  0.8385  0.0689 -0.4787
 9857SOL    HW230471   2.295   5.977   5.771  0.0117  0.9186  0.3073
 9858SOL     OW30472   0.469   5.667   1.965  0.1489 -0.3731  0.1856
 9858SOL    HW130473   0.529   5.600   1.921  1.0834 -0.6329  1.7584
 9858SOL    HW230474   0.474   5.754   1.915 -0.3829 -1.1877 -1.3471
 9859SOL     OW30475   6.816   6.881   1.044  0.0008  0.1067 -0.0803
 9859SOL    HW130476   6.908   6.918   1.028 -0.2437  0.6222 -0.3130
 9859SOL    HW230477   6.762   6.947   1.096  0.1770 -0.7535  1.2404
 9860SOL     OW30478   1.857   3.851   5.215  0.4775 -0.5503  0.1169
 9860SOL    HW130479   1.853   3.755   5.189  1.2953 -0.9266  1.2925
 9860SOL    HW230480   1.899   3.859   5.305  1.5561  0.9904 -0.4823
 9861SOL     OW30481   3.526   1.035   3.958  0.1864 -0.8089 -0.2438
 9861SOL    HW130482   3.584   0.990   3.890 -0.3228 -0.5672 -0.8486
 9861SOL    HW230483   3.570   1.029   4.047  1.9395  0.7716 -0.9345
 9862SOL     OW30484   2.792   4.783   0.648  0.6156 -0.3061  0.1366
 9862SOL    HW130485   2.712   4.737   0.686 -0.4887  0.1946 -1.4694
 9862SOL    HW230486   2.779   4.882   0.655 -0.7300 -0.0800 -3.4089
 9863SOL     OW30487   4.375   6.259   2.362  0.0302 -0.2837 -0.5106
 9863SOL    HW130488   4.335   6.293   2.277 -0.8970 -1.0731 -0.4158
 9863SOL    HW230489   4.330   6.173   2.387  1.6459 -1.0897 -0.2624
 9864SOL     OW30490   2.376   0.287   5.238  0.2147 -0.0425 -0.0129
 9864SOL    HW130491   2.475   0.295   5.252 -0.2068  0.4503  3.5181
 9864SOL    HW230492   2.330   0.282   5.326 -3.0405  0.7991 -1.5112
 9865SOL     OW30493   4.183   6.909   6.183  0.2040 -0.6266 -0.3871
 9865SOL    HW130494   4.155   6.858   6.264  0.3517  1.0064  0.7310
 9865SOL    HW230495   4.106   6.963   6.148  0.4481 -0.4360 -0.6454
 9866SOL     OW30496   1.918   0.386   5.895 -0.1166 -0.1843  1.2124
 9866SOL    HW130497   1.867   0.441   5.829 -0.6354 -2.5687 -0.4884
 9866SOL    HW230498   1.973   0.447   5.953  2.0345  2.0342 -2.7330
 9867SOL     OW30499   6.531   1.281   2.792  0.0205  0.1472 -0.5410
 9867SOL    HW130500   6.534   1.181   2.790 -0.6237  0.1038  0.2219
 9867SOL    HW230501   6.443   1.312   2.755  0.1800  0.4298 -0.6875
 9868SOL     OW30502   2.894   5.419   4.920  0.3445  0.4284 -0.2414
 9868SOL    HW130503   2.817   5.442   4.861 -0.0465 -0.9090 -0.2928
 9868SOL    HW230504   2.909   5.492   4.987 -3.3153 -0.7525  2.1723
 9869SOL     OW30505   0.943   0.727   4.029  0.0129 -0.2565  0.4126
 9869SOL    HW130506   0.858   0.736   3.978  0.2043  2.0540  0.4244
 9869SOL    HW230507   1.019   0.710   3.965 -0.2230 -0.7314  0.2568
 9870SOL     OW30508   1.027   3.165   3.161 -0.1053  0.1935  0.0277
 9870SOL    HW130509   0.950   3.117   3.204  1.9016 -1.8311  1.5829
 9870SOL    HW230510   1.026   3.147   3.063  0.0622 -2.4512  0.4270
 9871SOL     OW30511   5.505   5.488   3.104  0.0225 -0.2556 -0.5091
 9871SOL    HW130512   5.524   5.524   3.013 -1.5599 -0.6400 -1.0312
 9871SOL    HW230513   5.578   5.515   3.167  0.9934  0.2619 -1.8137
 9872SOL     OW30514   0.294   6.765   3.869  0.2483  0.4204  0.5543
 9872SOL    HW130515   0.384   6.741   3.905  0.6047 -0.1234 -0.6475
 9872SOL    HW230516   0.223   6.740   3.935  0.9354  0.3343  1.2667
 9873SOL     OW30517   0.153   0.527   4.345  0.1166 -0.1586 -0.0283
 9873SOL    HW130518   0.117   0.602   4.402 -0.3624 -0.3615 -0.0632
 9873SOL    HW230519   0.161   0.444   4.400  0.3107 -0.1742 -0.0800
 9874SOL     OW30520   5.796   3.921   4.909  0.3972 -0.0006 -0.3167
 9874SOL    HW130521   5.867   3.970   4.859  1.2407 -0.8092  0.0656
 9874SOL    HW230522   5.828   3.830   4.933  0.1984  0.4822  2.0605
 9875SOL     OW30523   5.855   5.206   0.438 -0.2859 -0.2960 -0.1438
 9875SOL    HW130524   5.888   5.114   0.455 -0.8383 -0.3779  0.5078
 9875SOL    HW230525   5.799   5.207   0.355 -1.3254 -0.8129  0.5279
 9876SOL     OW30526   0.428   1.340   3.075  0.4778  0.2281 -0.7798
 9876SOL    HW130527   0.458   1.312   2.984  1.1751 -0.8202 -0.2404
 9876SOL    HW230528   0.507   1.356   3.134  0.0499 -0.9496  0.1716
 9877SOL     OW30529   0.979   5.324   5.190  0.2107  0.0727  0.5534
 9877SOL    HW130530   1.035   5.264   5.133 -0.6207 -1.5911  1.4172
 9877SOL    HW230531   0.981   5.417   5.153 -0.1153 -0.8767 -2.0317
 9878SOL     OW30532   4.887   4.305   1.545  0.2279 -0.3546 -0.1445
 9878SOL    HW130533   4.853   4.296   1.451  1.0410 -0.6201 -0.4239
 9878SOL    HW230534   4.814   4.282   1.609 -0.0764 -1.0425 -0.7228
 9879SOL     OW30535   6.242   4.506   5.081 -0.5151  0.0019  0.1236
 9879SOL    HW130536   6.291   4.537   5.163  1.5727 -1.6385 -0.3860
 9879SOL    HW230537   6.225   4.407   5.089  0.5270 -0.3748 -1.7474
 9880SOL     OW30538   1.878   1.910   2.024 -0.3145  0.0090  0.7616
 9880SOL    HW130539   1.782   1.882   2.036 -0.3376 -1.1383 -1.5781
 9880SOL    HW230540   1.931   1.878   2.102 -1.7671  0.5133  2.0262
 9881SOL     OW30541   4.770   6.725   3.890 -0.3510  0.4814 -0.3251
 9881SOL    HW130542   4.691   6.767   3.846 -1.1917 -0.3352  0.3749
 9881SOL    HW230543   4.761   6.626   3.888 -0.7687  0.3992  2.2442
 9882SOL     OW30544   3.227   3.744   5.445  0.3257  0.0531  0.1068
 9882SOL    HW130545   3.259   3.747   5.351 -1.7060  2.4149 -0.6314
 9882SOL    HW230546   3.296   3.784   5.506  1.7056 -1.6190 -0.2866
 9883SOL     OW30547   0.156   6.272   2.088  0.3893 -0.0526  0.1353
 9883SOL    HW130548   0.166   6.224   2.001 -0.2405  1.1239 -0.6133
 9883SOL    HW230549   0.182   6.368   2.077  1.8183 -0.2115  1.6479
 9884SOL     OW30550   3.240   3.347   4.018  0.4902 -0.2101 -0.3065
 9884SOL    HW130551   3.195   3.414   4.077  0.8195 -0.3736  0.1339
 9884SOL    HW230552   3.173   3.279   3.988  0.4671 -0.5370  0.4620
 9885SOL     OW30553   5.419   3.070   6.854 -0.2285  0.3078 -0.1819
 9885SOL    HW130554   5.410   3.168   6.837  0.7124  0.2608 -1.0775
 9885SOL    HW230555   5.401   3.051   6.950 -0.1836  1.3927  0.0562
 9886SOL     OW30556   2.394   6.214   2.116  0.4955 -0.0147 -0.8533
 9886SOL    HW130557   2.308   6.246   2.156  1.6605  0.3612  1.4859
 9886SOL    HW230558   2.399   6.114   2.124  0.0191 -0.1049 -1.5841
 9887SOL     OW30559   3.835   1.978   6.336 -0.4026  0.1982 -0.3916
 9887SOL    HW130560   3.755   2.012   6.285 -0.3317 -0.5171 -1.0026
 9887SOL    HW230561   3.805   1.944   6.425 -0.5962  1.0408 -0.1239
 9888SOL     OW30562   5.972   6.315   5.359  0.3794 -0.0571 -0.0163
 9888SOL    HW130563   5.994   6.290   5.265 -1.1187  0.3417 -0.4967
 9888SOL    HW230564   5.897   6.258   5.392  0.7120 -0.0073  0.8413
 9889SOL     OW30565   0.432   6.997   4.438 -0.0530 -0.3934 -0.1634
 9889SOL    HW130566   0.496   7.072   4.424 -1.0168  0.3987 -0.4184
 9889SOL    HW230567   0.340   7.034   4.452 -0.6911 -1.5500 -1.1280
 9890SOL     OW30568   1.463   1.784   3.646  0.1311  0.4039 -0.0057
 9890SOL    HW130569   1.514   1.761   3.728 -0.9234 -0.7322  0.3748
 9890SOL    HW230570   1.512   1.752   3.565  1.1907  1.5625  0.1635
 9891SOL     OW30571   1.425   6.015   1.498  0.0189 -0.2984  0.2350
 9891SOL    HW130572   1.480   5.945   1.545 -1.1619 -0.7951  0.9175
 9891SOL    HW230573   1.485   6.087   1.464  1.4026 -2.1254 -1.3981
 9892SOL     OW30574   3.327   5.940   1.925  0.4785  0.3622  0.3275
 9892SOL    HW130575   3.265   5.966   1.999  1.3801  2.1405  0.5159
 9892SOL    HW230576   3.275   5.906   1.847 -0.5858  0.1003  1.1316
 9893SOL     OW30577   4.928   4.662   6.508 -0.0884  0.1703 -0.0540
 9893SOL    HW130578   4.885   4.596   6.446 -0.6073  0.5215 -0.0838
 9893SOL    HW230579   5.022   4.678   6.480  0.0382 -0.5501 -0.0496
 9894SOL     OW30580   5.271   4.886   7.008  0.3010 -0.4359  0.0285
 9894SOL    HW130581   5.286   4.796   6.967 -1.5976 -0.0916 -1.5805
 9894SOL    HW230582   5.208   4.939   6.951  1.3989  1.9696  0.8783
 9895SOL     OW30583   6.110   4.379   5.636  0.0337 -0.0030 -0.5896
 9895SOL    HW130584   6.144   4.290   5.604  1.3443  0.2347  0.0580
 9895SOL    HW230585   6.067   4.367   5.726 -2.4955 -0.4513 -1.7754
 9896SOL     OW30586   2.705   3.933   5.932 -0.2507 -0.3727  0.3357
 9896SOL    HW130587   2.652   3.967   5.854 -0.5300 -1.2065  0.1491
 9896SOL    HW230588   2.658   3.855   5.972  1.3462 -1.8202 -0.4829
 9897SOL     OW30589   2.318   2.725   3.389 -0.0938  0.4603  0.3228
 9897SOL    HW130590   2.233   2.706   3.341 -0.7845  0.5358  1.4763
 9897SOL    HW230591   2.322   2.823   3.412 -0.2277  0.2616  1.2336
 9898SOL     OW30592   6.642   5.751   0.172 -0.6090 -0.6992  0.0493
 9898SOL    HW130593   6.645   5.706   0.083 -3.3934 -0.8570 -0.0605
 9898SOL    HW230594   6.565   5.815   0.174  0.1036  0.1641  1.9659
 9899SOL     OW30595   3.840   5.398   2.558  0.0900  0.3215 -1.0277
 9899SOL    HW130596   3.932   5.414   2.594  0.1297  0.2806 -1.1123
 9899SOL    HW230597   3.845   5.382   2.460  0.1237 -0.9075 -0.8340
 9900SOL     OW30598   1.022   4.674   2.723  0.5897 -0.0887  0.6163
 9900SOL    HW130599   1.069   4.748   2.675  0.4313 -0.1765  0.3202
 9900SOL    HW230600   0.925   4.676   2.699  0.7777 -1.0973 -0.3116
 9901SOL     OW30601   3.490   2.605   5.955 -0.4624  0.3780  0.5960
 9901SOL    HW130602   3.414   2.637   5.898 -1.0190  2.7558  2.4933
 9901SOL    HW230603   3.576   2.624   5.908 -0.8974  2.3865  0.5072
 9902SOL     OW30604   3.411   6.034   5.300  0.6622 -0.1671 -0.3218
 9902SOL    HW130605   3.352   6.110   5.325  2.3216  1.4985 -1.2470
 9902SOL    HW230606   3.408   5.964   5.372  1.0375  1.9236  1.8405
 9903SOL     OW30607   3.394   1.351   1.279 -0.6371 -0.0139 -0.0352
 9903SOL    HW130608   3.438   1.283   1.337 -1.4595 -0.3520  0.1990
 9903SOL    HW230609   3.299   1.326   1.264 -0.6503  0.4958 -0.8715
 9904SOL     OW30610   0.607   6.750   2.265  0.1314  0.1033  0.0503
 9904SOL    HW130611   0.543   6.720   2.335  0.5965  0.2863  0.5538
 9904SOL    HW230612   0.564   6.741   2.175 -0.7656  0.6378  0.4077
 9905SOL     OW30613   2.090   1.286   5.265  0.6092  0.3027  0.7718
 9905SOL    HW130614   2.161   1.216   5.277 -0.6748 -1.2081  0.0106
 9905SOL    HW230615   2.043   1.270   5.178 -0.1703  1.7368  0.9009
 9906SOL     OW30616   4.292   2.493   6.676  0.0552  0.1434 -0.6527
 9906SOL    HW130617   4.221   2.532   6.619  1.1539  3.4153  0.0252
 9906SOL    HW230618   4.381   2.505   6.632  0.6108 -0.0514  0.3787
 9907SOL     OW30619   1.054   6.667   4.431  0.2604  0.5964  0.5453
 9907SOL    HW130620   0.983   6.689   4.364  1.6684 -0.2036 -1.3317
 9907SOL    HW230621   1.144   6.675   4.387  1.2582  0.0761  2.3906
 9908SOL     OW30622   6.017   2.878   5.512 -0.5693  0.5370  0.2000
 9908SOL    HW130623   5.963   2.844   5.434 -0.7665 -0.1500  0.6322
 9908SOL    HW230624   5.998   2.822   5.592 -0.7297  1.5398  0.8726
 9909SOL     OW30625   2.148   1.459   1.393  0.1748  0.0708 -0.4742
 9909SOL    HW130626   2.214   1.461   1.318  0.9289  0.8675  0.1882
 9909SOL    HW230627   2.071   1.519   1.371  0.8306  1.0195 -0.2411
 9910SOL     OW30628   1.447   5.516   0.507  0.4548  0.1822 -0.5346
 9910SOL    HW130629   1.528   5.553   0.552  0.9363  0.8354 -1.8635
 9910SOL    HW230630   1.405   5.587   0.450  1.5810 -1.2904 -3.4364
 9911SOL     OW30631   3.205   4.387   1.441  0.0346  0.2901  0.7742
 9911SOL    HW130632   3.119   4.338   1.433  0.0595  0.1969  1.0699
 9911SOL    HW230633   3.221   4.412   1.537 -1.2703  3.1782  0.3648
 9912SOL     OW30634   6.306   0.207   0.328  0.5152  0.2772 -0.1065
 9912SOL    HW130635   6.285   0.302   0.351 -0.4752  0.8198 -2.8279
 9912SOL    HW230636   6.320   0.199   0.229 -1.4529 -2.7205 -0.2740
 9913SOL     OW30637   6.732   2.023   0.706  0.4930 -0.3170  0.0744
 9913SOL    HW130638   6.801   2.084   0.747  0.9157 -0.2099 -0.7726
 9913SOL    HW230639   6.776   1.938   0.677  0.0663 -0.6726  0.4714
 9914SOL     OW30640   2.496   6.445   2.952 -0.1224  0.0266 -1.0037
 9914SOL    HW130641   2.402   6.446   2.918 -0.8153  0.3370  0.7869
 9914SOL    HW230642   2.534   6.538   2.947 -0.5966  0.2920 -0.0431
 9915SOL     OW30643   6.899   6.533   2.422  0.1862 -0.1484  0.3119
 9915SOL    HW130644   6.908   6.631   2.402  1.1752 -0.0997  0.9039
 9915SOL    HW230645   6.954   6.481   2.356  1.8234 -0.1122  1.5776
 9916SOL     OW30646   1.859   3.516   1.177 -0.1010 -0.1773  0.3171
 9916SOL    HW130647   1.845   3.610   1.207  0.8679  0.3401 -0.7608
 9916SOL    HW230648   1.775   3.481   1.134  0.0294  0.7790 -0.7512
 9917SOL     OW30649   1.436   4.793   4.139 -0.2856  0.1446  0.5319
 9917SOL    HW130650   1.416   4.784   4.042 -0.8030 -0.1326  0.6660
 9917SOL    HW230651   1.523   4.748   4.160 -1.0154 -1.3205  0.5139
 9918SOL     OW30652   1.441   0.535   5.273  0.2887  0.4995  0.2452
 9918SOL    HW130653   1.373   0.579   5.332 -1.1407 -0.0014 -0.9624
 9918SOL    HW230654   1.498   0.475   5.328 -0.5166  0.6124  1.2467
 9919SOL     OW30655   1.307   6.158   2.249  0.2566 -0.2426 -0.0549
 9919SOL    HW130656   1.249   6.134   2.328 -1.2094  1.4570 -0.5467
 9919SOL    HW230657   1.375   6.086   2.235  1.3034 -0.1228  3.4014
 9920SOL     OW30658   3.973   7.001   3.597  0.1027  0.0697  0.9154
 9920SOL    HW130659   4.043   7.072   3.590 -2.1198  2.3599  0.1007
 9920SOL    HW230660   3.949   6.969   3.506 -1.2290  0.7782  0.9895
 9921SOL     OW30661   2.692   6.817   2.574  0.2456 -0.0494 -0.2078
 9921SOL    HW130662   2.708   6.830   2.672  1.1217  1.3571 -0.4925
 9921SOL    HW230663   2.597   6.793   2.558 -0.2412  1.0100  0.9094
 9922SOL     OW30664   4.786   4.555   5.307  0.6015  0.1099 -0.3133
 9922SOL    HW130665   4.835   4.504   5.236 -1.3172  2.2201 -3.4109
 9922SOL    HW230666   4.690   4.524   5.309  0.0771  1.6605 -0.3157
 9923SOL     OW30667   4.118   5.796   6.006 -0.1043 -0.3074 -0.1569
 9923SOL    HW130668   4.034   5.744   5.989 -0.1092  0.0252 -1.2295
 9923SOL    HW230669   4.194   5.733   6.023 -0.5461 -0.6118  0.7253
 9924SOL     OW30670   0.857   5.790   4.882  0.2119 -0.0204 -0.1538
 9924SOL    HW130671   0.914   5.761   4.804 -1.4305  0.3324 -1.5392
 9924SOL    HW230672   0.820   5.709   4.928  0.5766 -0.2165 -0.2040
 9925SOL     OW30673   5.395   2.847   4.585 -0.6754 -0.3482  0.0064
 9925SOL    HW130674   5.324   2.874   4.520 -0.7162  0.6859  0.4566
 9925SOL    HW230675   5.453   2.926   4.605  1.3665 -1.4408 -1.2736
 9926SOL     OW30676   1.363   1.773   5.951 -0.7855  0.0899  0.0376
 9926SOL    HW130677   1.289   1.821   5.906 -1.0218  0.7451  1.0783
 9926SOL    HW230678   1.327   1.696   6.003 -0.5106 -0.6935 -0.9062
 9927SOL     OW30679   0.990   4.749   5.727 -0.5645  0.1100  0.8276
 9927SOL    HW130680   0.979   4.842   5.692 -0.1559 -0.2695 -0.3308
 9927SOL    HW230681   0.964   4.683   5.657  1.3305 -0.6787  0.8185
 9928SOL     OW30682   6.649   2.908   3.243  0.8700  0.2091  0.4979
 9928SOL    HW130683   6.648   2.914   3.342 -0.1283 -1.2806  0.6129
 9928SOL    HW230684   6.742   2.925   3.210  1.2313  0.6392  1.6886
 9929SOL     OW30685   0.962   5.216   6.312 -0.3035 -0.0678  0.4984
 9929SOL    HW130686   1.011   5.141   6.357  1.2278 -0.0758 -1.0889
 9929SOL    HW230687   0.960   5.201   6.214 -1.0975  1.3522  0.2657
 9930SOL     OW30688   6.837   6.459   0.125 -0.2723 -0.2780 -0.0999
 9930SOL    HW130689   6.871   6.527   0.061  1.0958 -0.3211  0.5308
 9930SOL    HW230690   6.846   6.494   0.219 -1.9965 -0.3083  0.1108
 9931SOL     OW30691   1.448   2.487   0.542 -0.4733  0.5627  0.1509
 9931SOL    HW130692   1.458   2.581   0.508 -0.4274  0.6020  0.2740
 9931SOL    HW230693   1.529   2.434   0.517 -1.7433 -0.2637 -2.5514
 9932SOL     OW30694   2.155   0.723   0.517  0.1682 -0.1294 -0.2688
 9932SOL    HW130695   2.094   0.789   0.473  0.3205  1.8133  2.1821
 9932SOL    HW230696   2.243   0.767   0.536  0.3057 -1.0359  1.3603
 9933SOL     OW30697   2.693   2.405   2.905 -0.4011 -0.2511  0.0760
 9933SOL    HW130698   2.677   2.430   3.001 -0.8960 -0.5869  0.0873
 9933SOL    HW230699   2.630   2.332   2.879  0.3311 -0.7741 -0.2551
 9934SOL     OW30700   4.537   1.929   4.825 -0.0816  0.3456  0.5029
 9934SOL    HW130701   4.470   1.936   4.899  0.3250  0.1696  0.8949
 9934SOL    HW230702   4.491   1.935   4.737 -0.7555 -0.8081  0.7530
 9935SOL     OW30703   3.960   1.636   6.593 -0.5857  0.7734 -0.4370
 9935SOL    HW130704   3.897   1.603   6.664 -0.4401 -2.3445 -1.6340
 9935SOL    HW230705   3.909   1.659   6.511 -0.8021  4.7651  0.5700
 9936SOL     OW30706   5.739   5.834   1.555 -0.1954  0.1290  0.3166
 9936SOL    HW130707   5.669   5.832   1.484 -0.4032  0.0606  0.5223
 9936SOL    HW230708   5.801   5.757   1.543  0.5138  0.8120 -0.5363
 9937SOL     OW30709   0.024   6.828   0.321  0.2613  0.1368 -0.2903
 9937SOL    HW130710  -0.021   6.908   0.280  0.3525 -0.1329 -0.9377
 9937SOL    HW230711   0.095   6.796   0.258 -0.3669 -0.9904 -0.4390
 9938SOL     OW30712   1.567   0.942   3.490 -0.0205  0.1533  0.1994
 9938SOL    HW130713   1.607   0.856   3.520  0.8507  0.7684  0.8588
 9938SOL    HW230714   1.635   0.996   3.441 -0.7292  0.2277 -0.7339
 9939SOL     OW30715   3.791   2.343   6.015  0.2946  0.2148  0.0802
 9939SOL    HW130716   3.876   2.291   6.008 -0.2236 -0.4475 -2.0779
 9939SOL    HW230717   3.808   2.437   5.983  0.2676  0.1358 -0.1706
 9940SOL     OW30718   5.681   1.738   2.546 -0.3905 -0.1163  0.4820
 9940SOL    HW130719   5.712   1.830   2.571  1.3849  0.0694 -2.0493
 9940SOL    HW230720   5.594   1.719   2.592 -0.9800  2.9321  0.8564
 9941SOL     OW30721   5.802   2.849   1.173  0.3188 -0.1966  0.4906
 9941SOL    HW130722   5.788   2.833   1.076  1.6517 -0.7468  0.3596
 9941SOL    HW230723   5.862   2.929   1.185 -1.1774  0.8994  0.9324
 9942SOL     OW30724   6.100   6.040   2.028 -0.2575 -0.3759 -0.5707
 9942SOL    HW130725   6.173   6.001   1.972 -0.5808 -2.2362  0.2310
 9942SOL    HW230726   6.020   5.981   2.023 -0.3466 -0.5205  1.7225
 9943SOL     OW30727   2.158   4.906   5.241  0.0618 -0.2085  0.1923
 9943SOL    HW130728   2.127   4.828   5.187 -2.3289 -0.4696  1.7854
 9943SOL    HW230729   2.215   4.966   5.185  0.4272 -2.1404 -1.5849
 9944SOL     OW30730   2.926   4.549   6.677 -0.1688 -0.1791  0.0714
 9944SOL    HW130731   2.962   4.642   6.674 -2.0657  0.6125 -3.0464
 9944SOL    HW230732   2.875   4.536   6.762  2.1748  0.6823  1.7148
 9945SOL     OW30733   6.600   1.363   6.569 -0.4531  0.6577 -0.3356
 9945SOL    HW130734   6.670   1.307   6.524 -0.2771  1.5332 -1.1904
 9945SOL    HW230735   6.633   1.390   6.659 -2.0276 -3.6542  1.7838
 9946SOL     OW30736   3.690   0.880   1.574 -0.1739  0.0097 -0.5468
 9946SOL    HW130737   3.741   0.936   1.640  0.6613 -1.8170  0.4263
 9946SOL    HW230738   3.725   0.898   1.482  2.5482 -1.3774  0.0984
 9947SOL     OW30739   0.089   1.004   4.009 -0.1192 -0.1445 -0.1362
 9947SOL    HW130740   0.004   0.965   4.044 -0.6683  2.3740  1.5913
 9947SOL    HW230741   0.165   0.978   4.069  0.1228 -1.3004 -0.9241
 9948SOL     OW30742   3.978   2.267   6.941  0.0677  0.5800 -0.2632
 9948SOL    HW130743   4.035   2.265   6.859 -0.8279  2.1308 -0.9730
 9948SOL    HW230744   4.019   2.328   7.008  0.1322  0.3355 -0.0811
 9949SOL     OW30745   6.278   4.420   3.074  0.1084  0.0351  0.1380
 9949SOL    HW130746   6.282   4.457   3.167 -0.8036  1.8439 -0.4965
 9949SOL    HW230747   6.221   4.479   3.017  2.3324  0.2087 -2.1047
 9950SOL     OW30748   4.965   6.683   0.146  0.3600  0.1205 -0.0642
 9950SOL    HW130749   5.051   6.647   0.110  0.6731  2.0377 -1.3920
 9950SOL    HW230750   4.895   6.611   0.145  1.3336 -0.8475 -1.2016
 9951SOL     OW30751   6.304   3.057   1.177 -0.6802  0.3914  0.2868
 9951SOL    HW130752   6.299   3.089   1.272  0.2436  0.2310  0.4034
 9951SOL    HW230753   6.241   2.981   1.165  1.4758 -1.8150  1.7268
 9952SOL     OW30754   0.004   3.425   6.876 -0.1260 -0.0606  0.9191
 9952SOL    HW130755   0.070   3.359   6.911 -0.8316 -0.4790  1.4787
 9952SOL    HW230756  -0.040   3.472   6.952 -0.0528  0.6390  0.5394
 9953SOL     OW30757   5.544   5.698   5.854  0.0653  0.5627  0.2787
 9953SOL    HW130758   5.611   5.688   5.928 -0.5152  0.3150  0.7871
 9953SOL    HW230759   5.556   5.624   5.788 -1.1104 -0.7905  1.5230
 9954SOL     OW30760   6.036   3.008   2.975 -0.4152  0.4987  0.2250
 9954SOL    HW130761   6.090   2.924   2.982 -1.5083 -0.3990 -1.4459
 9954SOL    HW230762   6.090   3.079   2.932 -0.1118  0.0319 -0.1763
 9955SOL     OW30763   6.231   4.665   1.126 -0.3104  0.3904 -0.3708
 9955SOL    HW130764   6.322   4.707   1.123 -0.1768  0.4995  2.3556
 9955SOL    HW230765   6.237   4.574   1.168 -1.7223  1.6234  2.8304
 9956SOL     OW30766   2.331   4.356   4.195 -0.3590  0.0522  0.7271
 9956SOL    HW130767   2.263   4.429   4.201  0.7919  1.2104  0.2074
 9956SOL    HW230768   2.310   4.298   4.117 -1.6365 -0.5817  1.5017
 9957SOL     OW30769   6.208   0.906   1.762 -0.6140 -0.2047 -0.1179
 9957SOL    HW130770   6.147   0.980   1.790 -2.0031 -0.5731 -1.9695
 9957SOL    HW230771   6.159   0.842   1.704  1.1717 -1.3335 -0.4693
 9958SOL     OW30772   5.852   6.873   6.226 -0.1382  0.1349 -0.0505
 9958SOL    HW130773   5.938   6.852   6.273 -0.0024  1.0460  0.1275
 9958SOL    HW230774   5.775   6.849   6.284  0.0222  3.1004  1.5664
 9959SOL     OW30775   6.303   5.543   6.317 -0.1694  0.3668 -0.2933
 9959SOL    HW130776   6.321   5.609   6.244 -0.3265  2.0859  1.1295
 9959SOL    HW230777   6.235   5.581   6.380  1.7837  0.1091  2.1292
 9960SOL     OW30778   5.855   1.427   6.662  0.2685 -0.0457 -0.0267
 9960SOL    HW130779   5.785   1.366   6.699  0.5341  0.1438  0.7907
 9960SOL    HW230780   5.945   1.389   6.682  0.4368 -0.9948 -2.2230
 9961SOL     OW30781   2.835   6.343   0.107 -0.4190  0.4314  0.5103
 9961SOL    HW130782   2.780   6.294   0.175 -3.5519 -1.3072 -2.9059
 9961SOL    HW230783   2.778   6.410   0.060  0.8925  0.0542 -1.7805
 9962SOL     OW30784   3.129   1.217   2.990  0.2768  0.2523  0.1870
 9962SOL    HW130785   3.093   1.310   2.995  2.3714  1.0824  0.9335
 9962SOL    HW230786   3.138   1.180   3.082 -1.8754 -1.2932 -0.1585
 9963SOL     OW30787   0.644   0.935   6.215 -0.1180  0.5662 -0.6660
 9963SOL    HW130788   0.696   0.971   6.138 -1.0975 -0.7884 -2.0174
 9963SOL    HW230789   0.552   0.974   6.216 -1.3302 -2.0014 -2.3875
 9964SOL     OW30790   3.256   6.597   4.888 -0.4306  0.3419 -0.4100
 9964SOL    HW130791   3.239   6.500   4.867 -0.4240  0.6026 -1.7112
 9964SOL    HW230792   3.168   6.645   4.896 -0.4384  0.2062  0.4072
 9965SOL     OW30793   1.805   0.385   6.568 -0.3920 -0.6666  0.3616
 9965SOL    HW130794   1.713   0.375   6.606 -0.7298  1.8785  0.3542
 9965SOL    HW230795   1.862   0.437   6.632  0.5510 -0.7637 -0.3740
 9966SOL     OW30796   1.484   4.773   3.552 -0.3090 -0.1797  0.5914
 9966SOL    HW130797   1.535   4.823   3.623 -1.0174  1.6140 -0.1063
 9966SOL    HW230798   1.412   4.718   3.596 -0.5657  0.6934  1.3072
 9967SOL     OW30799   6.289   2.266   1.854 -0.5274  0.5736 -0.7254
 9967SOL    HW130800   6.236   2.187   1.883  1.2033 -0.4060 -0.1206
 9967SOL    HW230801   6.306   2.261   1.755  0.0961 -0.1568 -0.5899
 9968SOL     OW30802   4.963   5.094   6.002  0.7471  0.1787 -0.4186
 9968SOL    HW130803   4.912   5.091   5.916  1.9604  0.0443 -1.1559
 9968SOL    HW230804   4.903   5.127   6.075  0.1261  1.9264 -1.6404
 9969SOL     OW30805   2.435   0.951   2.174  0.0233  0.1453  0.2188
 9969SOL    HW130806   2.347   0.953   2.223 -0.0265 -1.0687  0.2171
 9969SOL    HW230807   2.442   1.030   2.114 -0.6451  0.7768  0.9497
 9970SOL     OW30808   1.116   4.291   0.684 -0.1184 -0.4612  0.5034
 9970SOL    HW130809   1.094   4.362   0.617  1.1133 -1.4548 -1.0376
 9970SOL    HW230810   1.079   4.204   0.653  0.1210 -0.8669  1.3317
 9971SOL     OW30811   1.190   4.014   0.202 -0.1957 -0.3730  0.3335
 9971SOL    HW130812   1.143   3.942   0.254 -0.4898 -0.9288 -0.6855
 9971SOL    HW230813   1.276   3.978   0.166 -0.6182 -0.4021 -0.6696
 9972SOL     OW30814   2.020   5.493   5.952 -0.3314 -0.6742 -0.4268
 9972SOL    HW130815   2.098   5.555   5.952  0.1663 -1.2871  0.3975
 9972SOL    HW230816   2.051   5.401   5.927 -0.9022 -0.7877 -0.7264
 9973SOL     OW30817   2.551   2.232   1.493 -0.0616 -0.3056  0.2709
 9973SOL    HW130818   2.490   2.256   1.568 -1.1158 -1.5688 -0.1395
 9973SOL    HW230819   2.637   2.196   1.529 -0.5273 -0.8205  0.8837
 9974SOL     OW30820   0.347   4.359   2.568 -0.2504  0.2673 -0.9580
 9974SOL    HW130821   0.310   4.381   2.478 -1.1919 -0.6305 -0.8144
 9974SOL    HW230822   0.307   4.420   2.636 -0.9939 -0.2596 -0.9014
 9975SOL     OW30823   3.386   4.893   1.232  0.6272 -0.2409  0.1374
 9975SOL    HW130824   3.392   4.912   1.330  1.2110 -0.0928  0.0783
 9975SOL    HW230825   3.356   4.975   1.184  0.2146 -0.3508  0.2027
 9976SOL     OW30826   3.390   6.328   5.034 -0.7733  0.1771  0.1836
 9976SOL    HW130827   3.454   6.401   5.009 -0.4159  0.4358  1.7389
 9976SOL    HW230828   3.395   6.312   5.132 -2.0450 -0.8324  0.1096
 9977SOL     OW30829   2.240   6.086   0.449  0.2604 -0.2634 -0.1282
 9977SOL    HW130830   2.159   6.034   0.422  0.8166 -2.4504  2.0446
 9977SOL    HW230831   2.217   6.148   0.524  0.5746 -1.0235  0.6205
 9978SOL     OW30832   0.424   3.170   6.717  0.3918 -0.3592  0.8272
 9978SOL    HW130833   0.489   3.143   6.787 -0.7221 -0.5927  1.8073
 9978SOL    HW230834   0.436   3.112   6.636  2.7910  0.9864  0.1346
 9979SOL     OW30835   3.651   3.740   3.178 -0.6854 -0.4316  0.5395
 9979SOL    HW130836   3.605   3.666   3.228 -0.8978 -1.9275 -1.7042
 9979SOL    HW230837   3.669   3.710   3.084  1.0389  1.6959  0.1174
 9980SOL     OW30838   6.899   4.692   0.558 -0.1683 -0.2742  0.5871
 9980SOL    HW130839   6.954   4.634   0.617 -0.2609  0.6424  1.6049
 9980SOL    HW230840   6.936   4.785   0.558 -0.9219  0.0372  0.2098
 9981SOL     OW30841   6.829   1.048   6.592 -0.1485 -0.1359 -0.4001
 9981SOL    HW130842   6.849   0.953   6.569  0.4341 -0.0221 -0.3972
 9981SOL    HW230843   6.809   1.098   6.508  0.4117 -0.0735 -0.5047
 9982SOL     OW30844   4.031   0.119   6.114 -0.1246  0.7386 -0.1161
 9982SOL    HW130845   3.984   0.207   6.113 -0.0847  0.7758  0.7406
 9982SOL    HW230846   3.969   0.048   6.080  0.5566  1.4067 -2.9940
 9983SOL     OW30847   0.755   1.808   1.629  0.5852 -0.2739 -0.0428
 9983SOL    HW130848   0.777   1.791   1.533  0.9761  0.1735 -0.0306
 9983SOL    HW230849   0.783   1.900   1.655  0.1683 -0.2689  0.4112
 9984SOL     OW30850   1.427   4.874   0.359  1.2022  0.6739 -0.1753
 9984SOL    HW130851   1.444   4.932   0.438  0.3447  0.0878  0.4635
 9984SOL    HW230852   1.398   4.930   0.282 -1.8667  0.9867  1.0618
 9985SOL     OW30853   5.612   5.749   5.141 -0.2667  0.9253 -0.3137
 9985SOL    HW130854   5.644   5.837   5.178  0.5863  0.7757 -0.6859
 9985SOL    HW230855   5.558   5.765   5.058  0.2683  1.0718 -0.6353
 9986SOL     OW30856   6.155   5.670   0.723 -0.8112 -0.1502  0.0872
 9986SOL    HW130857   6.240   5.620   0.705 -0.9176  0.2149 -1.5321
 9986SOL    HW230858   6.145   5.684   0.822  0.9720 -0.2626  0.3137
 9987SOL     OW30859   3.786   1.456   0.535  0.7007 -1.0191  0.6489
 9987SOL    HW130860   3.847   1.458   0.456 -1.5282  1.8408 -1.2409
 9987SOL    HW230861   3.805   1.535   0.594 -0.7776 -0.3206  0.2486
 9988SOL     OW30862   6.251   0.282   4.564 -0.3285  0.0542 -0.1002
 9988SOL    HW130863   6.186   0.340   4.515 -0.3350 -0.9717 -1.3556
 9988SOL    HW230864   6.201   0.219   4.623 -0.4398 -0.1581 -0.4173
 9989SOL     OW30865   0.823   5.615   1.679  0.1856  0.3675 -0.1943
 9989SOL    HW130866   0.855   5.662   1.597  1.4398  1.0732  0.6533
 9989SOL    HW230867   0.867   5.525   1.685  0.6363  0.5955  0.0337
 9990SOL     OW30868   0.521   6.915   3.386 -0.8248  0.1793  0.0517
 9990SOL    HW130869   0.448   6.898   3.452 -1.2547  3.2779  0.5474
 9990SOL    HW230870   0.506   6.860   3.304 -2.5674 -0.7379  0.9407
 9991SOL     OW30871   1.126   3.444   4.299 -0.5774  0.1209  0.2565
 9991SOL    HW130872   1.170   3.415   4.384  1.7860  0.8096 -0.6651
 9991SOL    HW230873   1.146   3.540   4.281  1.4917 -0.6566 -2.4343
 9992SOL     OW30874   1.867   4.341   7.000  0.0715 -0.1410  1.0271
 9992SOL    HW130875   1.834   4.383   6.915  0.0188 -0.8225  0.6981
 9992SOL    HW230876   1.959   4.375   7.020 -0.6709  1.5369  1.7817
 9993SOL     OW30877   3.335   6.746   4.651  0.0710 -0.2815  0.5769
 9993SOL    HW130878   3.306   6.681   4.721 -0.7099  1.7070  2.1875
 9993SOL    HW230879   3.432   6.768   4.663 -0.4686  1.4620  2.3438
 9994SOL     OW30880   6.068   5.842   5.258  0.1076  0.5902  0.1936
 9994SOL    HW130881   6.100   5.834   5.163  3.1429 -0.9901  1.2276
 9994SOL    HW230882   6.001   5.769   5.276  1.0100 -0.3752 -0.2245
 9995SOL     OW30883   2.164   2.684   5.675 -0.0932 -0.2852  0.0452
 9995SOL    HW130884   2.081   2.705   5.623  0.1685  0.8026  0.0569
 9995SOL    HW230885   2.182   2.757   5.741  1.1847 -0.2290 -0.3466
 9996SOL     OW30886   2.699   3.855   0.520  0.5500 -0.1869 -0.4401
 9996SOL    HW130887   2.637   3.915   0.570  2.3453 -0.0519  1.7640
 9996SOL    HW230888   2.654   3.767   0.504  0.1428 -0.5628  2.2424
 9997SOL     OW30889   5.440   6.121   2.471 -0.1169 -0.0946 -0.2814
 9997SOL    HW130890   5.420   6.032   2.430  3.0555 -1.0243 -0.0593
 9997SOL    HW230891   5.518   6.163   2.423 -1.2793  2.4456 -0.1327
 9998SOL     OW30892   6.375   3.435   1.279  0.2338  0.1716  0.2898
 9998SOL    HW130893   6.378   3.494   1.198 -2.3470 -0.1194 -0.0883
 9998SOL    HW230894   6.462   3.443   1.328  1.6584  0.8110 -2.1486
 9999SOL     OW30895   2.144   0.310   5.103  0.1971 -0.8723 -0.0828
 9999SOL    HW130896   2.235   0.285   5.138 -0.0934  0.2382  1.6156
 9999SOL    HW230897   2.138   0.410   5.098 -0.9220 -0.9408 -0.1681
10000SOL     OW30898   4.875   3.199   2.199 -0.2278 -0.0854  0.0888
10000SOL    HW130899   4.809   3.131   2.168 -1.1859  0.0867  1.6596
10000SOL    HW230900   4.889   3.267   2.127 -0.0088 -1.3558 -1.1242
10001SOL     OW30901   3.513   6.187   2.403  0.6985  0.6134 -0.1367
10001SOL    HW130902   3.479   6.130   2.479  1.4310  1.4287  0.8313
10001SOL    HW230903   3.589   6.140   2.359  1.3150  0.8334  0.6735
10002SOL     OW30904   2.467   5.691   3.385  0.1074 -0.3472 -0.5712
10002SOL    HW130905   2.526   5.704   3.465 -1.7937  1.7153  0.5905
10002SOL    HW230906   2.399   5.621   3.405  0.5046 -0.8535 -0.9510
10003SOL     OW30907   2.135   1.721   0.996  0.3141 -0.3339  0.3131
10003SOL    HW130908   2.209   1.688   1.054 -0.7650 -0.1253  1.8649
10003SOL    HW230909   2.078   1.643   0.968  0.7564 -0.4167 -0.3871
10004SOL     OW30910   1.567   1.947   2.611 -0.4038 -0.3166  0.3284
10004SOL    HW130911   1.478   1.920   2.572 -2.4621  3.5609  1.7940
10004SOL    HW230912   1.625   1.985   2.539  0.4987 -3.4298 -0.7626
10005SOL     OW30913   2.693   6.633   3.324 -0.6031 -0.7247 -0.2287
10005SOL    HW130914   2.776   6.665   3.369 -0.5857 -1.9277  0.6539
10005SOL    HW230915   2.652   6.707   3.271  0.5220  0.1373  0.0879
10006SOL     OW30916   6.347   1.322   5.150  0.9541 -0.3057 -0.1921
10006SOL    HW130917   6.274   1.294   5.088  1.0593  0.2411 -0.5750
10006SOL    HW230918   6.350   1.422   5.154  0.5461 -0.3275  1.1796
10007SOL     OW30919   0.901   5.232   4.062 -0.1844  0.3715 -0.5302
10007SOL    HW130920   0.999   5.246   4.048  0.3793 -2.4481 -0.0033
10007SOL    HW230921   0.867   5.164   3.996 -1.0672 -0.9240  1.1554
10008SOL     OW30922   1.919   0.566   6.783 -0.0153 -0.0386 -0.2851
10008SOL    HW130923   1.970   0.520   6.856 -0.4783 -0.9067 -0.4983
10008SOL    HW230924   1.890   0.656   6.815  1.7650  0.5542 -0.2067
10009SOL     OW30925   0.084   5.272   3.183  0.3493 -0.0220 -0.1904
10009SOL    HW130926   0.134   5.194   3.145  2.2853 -0.5037  3.0083
10009SOL    HW230927   0.059   5.335   3.109  0.6380 -2.5615 -2.6021
10010SOL     OW30928   1.297   3.929   1.001 -0.0146 -0.0045  0.4051
10010SOL    HW130929   1.321   3.840   0.964 -0.9330  0.5147 -1.6040
10010SOL    HW230930   1.355   3.999   0.960 -1.1407  0.6069 -0.1856
10011SOL     OW30931   3.238   2.274   0.165  0.3339 -0.3172 -0.1184
10011SOL    HW130932   3.248   2.231   0.075 -0.1281 -2.1192  0.6407
10011SOL    HW230933   3.207   2.205   0.231 -1.2649  1.3943  1.0162
10012SOL     OW30934   1.785   1.411   3.148 -0.1204  0.0433  0.5064
10012SOL    HW130935   1.787   1.497   3.097 -0.0816 -0.4970 -0.4170
10012SOL    HW230936   1.710   1.414   3.214 -2.4849 -0.5653 -1.9786
10013SOL     OW30937   0.180   4.372   6.076 -0.3830  0.2733  0.3179
10013SOL    HW130938   0.139   4.291   6.118 -0.0779  0.6578  1.4189
10013SOL    HW230939   0.269   4.348   6.037 -1.2592 -0.3821 -1.3436
10014SOL     OW30940   2.173   0.611   1.508 -0.1543 -0.2279  0.4141
10014SOL    HW130941   2.246   0.677   1.524  1.1815 -1.6681  0.4525
10014SOL    HW230942   2.112   0.646   1.437  0.9325  0.7161 -0.0872
10015SOL     OW30943   2.620   1.277   0.668  0.6803 -0.0991 -0.0943
10015SOL    HW130944   2.615   1.240   0.575 -1.1473  1.1215 -0.5301
10015SOL    HW230945   2.709   1.253   0.708  2.1127  0.5153 -2.6621
10016SOL     OW30946   3.962   0.849   0.108  0.0464  0.1718  0.0214
10016SOL    HW130947   3.917   0.843   0.019  0.4716 -1.0055 -0.1337
10016SOL    HW230948   4.045   0.903   0.099  0.6658 -0.8438 -0.5604
10017SOL     OW30949   3.680   1.782   3.547  0.0960 -0.3310 -0.3741
10017SOL    HW130950   3.733   1.738   3.475  1.1689 -0.8085  0.6769
10017SOL    HW230951   3.740   1.805   3.624 -0.9550  0.4717  0.2404
10018SOL     OW30952   6.649   4.026   6.217  0.5431 -0.5257  0.1182
10018SOL    HW130953   6.642   4.043   6.315  0.9139 -1.0293  0.2334
10018SOL    HW230954   6.656   4.114   6.169  0.0711 -0.2684  0.5150
10019SOL     OW30955   6.555   1.772   1.668 -0.0408 -0.2961 -0.6516
10019SOL    HW130956   6.569   1.867   1.696  1.4078 -0.1798 -1.6758
10019SOL    HW230957   6.567   1.764   1.569  0.2765 -1.6240 -0.5252
10020SOL     OW30958   6.840   2.534   2.167 -0.2522  0.0043 -0.4520
10020SOL    HW130959   6.938   2.550   2.159 -0.4472  1.6353 -0.0339
10020SOL    HW230960   6.790   2.613   2.130 -1.4806 -1.7967 -2.8772
10021SOL     OW30961   2.375   4.476   1.772 -1.5326 -0.1912 -0.5393
10021SOL    HW130962   2.446   4.505   1.836 -1.6368  0.6730 -0.7969
10021SOL    HW230963   2.286   4.479   1.817 -1.6345  0.6343 -0.7637
10022SOL     OW30964   0.757   6.185   0.750 -0.5004  0.0155  0.3047
10022SOL    HW130965   0.659   6.181   0.728 -0.4176  1.1899 -0.3592
10022SOL    HW230966   0.807   6.217   0.670  0.4040 -0.3010  0.7334
10023SOL     OW30967   1.207   2.187   5.157 -0.3421  0.4582  0.0734
10023SOL    HW130968   1.264   2.125   5.210 -0.3902 -0.4387 -0.8832
10023SOL    HW230969   1.216   2.280   5.192  0.6557  0.1059  0.7758
10024SOL     OW30970   6.909   4.984   2.145 -0.4489  0.1205 -0.7104
10024SOL    HW130971   6.892   5.037   2.061 -1.5276  1.7437  0.4676
10024SOL    HW230972   6.894   5.043   2.224  0.7676 -1.3183  0.6478
10025SOL     OW30973   6.600   3.082   0.835  0.3564 -0.1428 -0.6108
10025SOL    HW130974   6.631   3.150   0.901  0.9511  0.5044 -1.5428
10025SOL    HW230975   6.503   3.062   0.850  0.7846 -1.0530  1.3546
10026SOL     OW30976   0.052   0.836   4.287  0.1811  0.1629  0.2418
10026SOL    HW130977   0.149   0.839   4.262  0.6986  2.3709  2.2234
10026SOL    HW230978   0.038   0.766   4.356  0.4472  0.1390  0.2740
10027SOL     OW30979   4.733   2.539   6.647  0.5182 -0.5182 -0.1655
10027SOL    HW130980   4.712   2.463   6.709 -1.9241 -0.7734 -1.2094
10027SOL    HW230981   4.742   2.505   6.553 -0.6696  0.4716 -0.6572
10028SOL     OW30982   4.385   6.326   1.256 -0.0619  0.5132 -0.1927
10028SOL    HW130983   4.405   6.404   1.196  0.6228 -0.8923 -1.8643
10028SOL    HW230984   4.288   6.301   1.247 -0.0981  0.6768 -0.2617
10029SOL     OW30985   6.946   4.361   5.042  0.2475  0.5025  0.0811
10029SOL    HW130986   6.862   4.411   5.062  1.1929  2.0184  0.3286
10029SOL    HW230987   6.922   4.270   5.006 -1.4792  0.4062  1.3529
10030SOL     OW30988   3.029   0.188   5.497 -0.1745  0.3438  0.0896
10030SOL    HW130989   2.951   0.249   5.509  0.5959  1.5033 -0.5546
10030SOL    HW230990   3.104   0.239   5.454  1.2827 -0.4551  1.5740
10031SOL     OW30991   2.080   0.523   2.170 -0.1264  0.3341  0.2595
10031SOL    HW130992   2.042   0.558   2.256 -2.5700  1.7432 -1.2448
10031SOL    HW230993   2.013   0.461   2.128 -0.2007  1.7637 -1.8472
10032SOL     OW30994   1.781   0.013   5.931 -0.1427 -0.1118 -0.1897
10032SOL    HW130995   1.743   0.059   5.851 -1.0834 -0.1564  0.2200
10032SOL    HW230996   1.797   0.079   6.004  0.3680 -0.1276 -0.2845
10033SOL     OW30997   1.732   1.621   4.375 -0.4334 -0.1837  0.3807
10033SOL    HW130998   1.750   1.705   4.324  0.7420 -0.4700  0.2781
10033SOL    HW230999   1.725   1.643   4.473 -2.4417  0.3290  0.1628
10034SOL     OW31000   3.334   5.872   2.827  0.0117 -0.2975 -0.3267
10034SOL    HW131001   3.281   5.861   2.911 -1.3855 -0.8653 -1.2377
10034SOL    HW231002   3.361   5.782   2.793  1.5002 -0.0198  0.0531
10035SOL     OW31003   4.774   3.187   1.761  0.2358  0.4879  0.1976
10035SOL    HW131004   4.748   3.099   1.800  1.5523  0.1857  0.4506
10035SOL    HW231005   4.750   3.260   1.825  1.4664  0.0790  1.1716
10036SOL     OW31006   6.673   0.239   0.154 -0.0693  0.7978 -0.0917
10036SOL    HW131007   6.627   0.160   0.113 -1.6976  1.3684  0.5628
10036SOL    HW231008   6.668   0.232   0.253  1.2847  0.8908 -0.0017
10037SOL     OW31009   6.561   1.149   5.704 -0.4303  0.1180  0.1032
10037SOL    HW131010   6.508   1.164   5.787 -0.7398 -0.9130  0.1150
10037SOL    HW231011   6.499   1.124   5.629 -0.0595 -0.0484 -0.1527
10038SOL     OW31012   6.041   0.841   6.327 -0.2913 -0.4877 -0.2384
10038SOL    HW131013   6.048   0.784   6.408  0.2344 -1.2947 -0.8276
10038SOL    HW231014   6.107   0.916   6.333  1.5638 -1.9561 -0.9768
10039SOL     OW31015   0.260   3.601   1.339  0.5028 -0.1214  0.6494
10039SOL    HW131016   0.277   3.593   1.437  2.0940  1.1926  0.5196
10039SOL    HW231017   0.300   3.522   1.292  1.2089  0.0731  0.9115
10040SOL     OW31018   3.232   0.151   0.710 -0.3530 -0.5361 -0.7328
10040SOL    HW131019   3.244   0.247   0.733  1.9369 -1.1736  1.0874
10040SOL    HW231020   3.150   0.140   0.654 -1.3257  2.2857 -0.0097
10041SOL     OW31021   0.080   5.434   5.269  0.2587  0.2884  0.1806
10041SOL    HW131022   0.144   5.508   5.250  0.5876  0.3122  1.3470
10041SOL    HW231023   0.069   5.378   5.187  1.5902  0.4237 -0.1022
10042SOL     OW31024   5.438   0.132   4.367  0.3456  0.6463 -0.2104
10042SOL    HW131025   5.536   0.146   4.354  0.5639 -0.0817  0.5356
10042SOL    HW231026   5.387   0.171   4.290  1.3693 -1.2722 -1.9595
10043SOL     OW31027   6.132   6.673   3.209 -0.1124 -0.1350 -0.1931
10043SOL    HW131028   6.187   6.740   3.260  0.5669  0.8410 -2.1105
10043SOL    HW231029   6.035   6.695   3.220  0.0861  0.9403 -0.4921
10044SOL     OW31030   3.837   6.928   1.059  0.0357  0.2936 -0.2616
10044SOL    HW131031   3.773   7.003   1.078  0.6729  0.6675  0.4551
10044SOL    HW231032   3.924   6.967   1.028  0.5884 -0.1045  0.7381
10045SOL     OW31033   1.971   6.787   3.770  0.0498  0.2786 -0.5562
10045SOL    HW131034   1.953   6.842   3.851  1.4053 -0.1608  0.0717
10045SOL    HW231035   1.940   6.837   3.688  1.2087  1.9872 -0.0111
10046SOL     OW31036   5.836   1.729   6.651  0.1791  0.0770 -0.0919
10046SOL    HW131037   5.841   1.629   6.663  2.8402  0.1846  0.4704
10046SOL    HW231038   5.777   1.768   6.722  0.2883 -0.9913  0.6179
10047SOL     OW31039   2.317   2.076   3.773 -0.1699 -0.0985  0.2561
10047SOL    HW131040   2.308   2.145   3.845  1.5052  0.6961 -0.2334
10047SOL    HW231041   2.364   2.116   3.694 -0.8855 -1.2852 -0.8164
10048SOL     OW31042   2.789   1.070   2.607 -0.8044  0.2748  0.1803
10048SOL    HW131043   2.752   1.161   2.586  0.1198  0.2019 -1.9739
10048SOL    HW231044   2.811   1.023   2.522 -1.1032 -1.9309  1.2693
10049SOL     OW31045   2.028   5.774   3.766  0.0747  0.2346 -0.3616
10049SOL    HW131046   2.048   5.823   3.681 -0.2729 -0.0585 -0.6133
10049SOL    HW231047   1.974   5.693   3.746 -1.2888  0.9382  0.2937
10050SOL     OW31048   5.749   1.146   3.947 -0.4681  0.1398 -0.4568
10050SOL    HW131049   5.711   1.055   3.966 -1.1029  0.8155  1.9034
10050SOL    HW231050   5.683   1.199   3.893 -1.7109  0.3392  1.1701
10051SOL     OW31051   5.412   3.235   1.481  0.0809 -0.2053  0.4618
10051SOL    HW131052   5.379   3.185   1.402 -0.4497 -0.5276  0.8748
10051SOL    HW231053   5.491   3.188   1.521  0.4740  0.0680  0.0095
10052SOL     OW31054   4.362   4.206   1.192 -0.0086  0.1841  0.0804
10052SOL    HW131055   4.314   4.131   1.148 -1.4505  0.7891  0.5657
10052SOL    HW231056   4.393   4.177   1.283 -0.9348  0.2854  0.4394
10053SOL     OW31057   3.368   5.507   3.877  0.1531  0.2285 -0.3356
10053SOL    HW131058   3.373   5.407   3.881  1.1282  0.1662 -2.0938
10053SOL    HW231059   3.332   5.535   3.789  0.0481  1.4448  0.0777
10054SOL     OW31060   5.760   5.003   5.643 -0.0524 -0.1970 -0.3632
10054SOL    HW131061   5.807   5.035   5.561 -0.0658  0.1749 -0.2264
10054SOL    HW231062   5.759   4.903   5.644  1.6180 -0.2304  0.1250
10055SOL     OW31063   2.845   2.124   1.523 -0.3378  0.1054  0.2684
10055SOL    HW131064   2.827   2.137   1.620  0.6969  0.7968  0.3894
10055SOL    HW231065   2.919   2.186   1.495  0.1413 -0.8864 -0.7042
10056SOL     OW31066   4.928   3.019   2.992  0.2878 -0.0975  0.0150
10056SOL    HW131067   4.941   3.115   3.016 -2.0278 -0.2359  2.1736
10056SOL    HW231068   4.877   3.013   2.906 -1.2972  0.7041  0.8504
10057SOL     OW31069   1.556   3.594   4.216 -0.3523  0.1992  0.2592
10057SOL    HW131070   1.573   3.536   4.296 -3.4665  0.1197  0.9984
10057SOL    HW231071   1.640   3.639   4.189  1.8375 -3.2320  0.7736
10058SOL     OW31072   1.178   2.959   6.073  0.3989  0.1988  0.3695
10058SOL    HW131073   1.258   3.016   6.089  0.7958 -0.6389  1.4882
10058SOL    HW231074   1.186   2.874   6.126 -0.5894 -0.5057 -0.5662
10059SOL     OW31075   4.912   6.752   1.170  0.2156  0.0579 -0.1657
10059SOL    HW131076   4.817   6.753   1.140  0.3326  1.7592 -0.5920
10059SOL    HW231077   4.917   6.717   1.264 -0.6971 -0.9492 -0.4760
10060SOL     OW31078   2.352   2.117   3.096 -0.8059 -0.4065  0.3149
10060SOL    HW131079   2.424   2.151   3.036 -1.1097  0.6836  0.5378
10060SOL    HW231080   2.392   2.056   3.164 -0.0641  0.2694  0.5039
10061SOL     OW31081   0.092   1.448   6.209 -0.0303  0.2430 -0.0480
10061SOL    HW131082   0.003   1.491   6.198 -0.9217 -1.1847  1.2076
10061SOL    HW231083   0.092   1.390   6.291  1.7807 -0.4700 -0.4884
10062SOL     OW31084   5.331   5.214   3.455 -0.6666 -0.1568 -0.0679
10062SOL    HW131085   5.339   5.122   3.494  1.5936 -0.1493 -0.3774
10062SOL    HW231086   5.331   5.281   3.529  1.1862 -0.2713  0.0895
10063SOL     OW31087   0.965   2.571   1.888  0.3611  0.2163 -0.2433
10063SOL    HW131088   0.994   2.521   1.970 -0.1031 -0.9070 -0.7324
10063SOL    HW231089   0.940   2.664   1.912  1.5448  0.3296  0.6633
10064SOL     OW31090   6.089   6.795   4.890  0.1589  0.2053 -0.0518
10064SOL    HW131091   6.130   6.708   4.863  1.2601  0.3489  1.0860
10064SOL    HW231092   6.004   6.777   4.941 -0.7471 -0.1116 -1.5990
10065SOL     OW31093   6.709   6.845   2.921 -0.1642  0.1718 -0.0474
10065SOL    HW131094   6.807   6.864   2.932 -0.2815  0.3274  0.7679
10065SOL    HW231095   6.690   6.752   2.953 -0.2660  0.1014 -0.3129
10066SOL     OW31096   5.706   1.069   4.243 -0.1862 -0.3017 -0.0739
10066SOL    HW131097   5.722   1.104   4.151  0.6099 -0.6368 -0.0706
10066SOL    HW231098   5.679   0.973   4.238 -1.6358  0.0836 -0.0387
10067SOL     OW31099   5.092   0.096   4.418 -0.4057 -0.2270  0.0849
10067SOL    HW131100   5.155   0.167   4.448 -0.1019 -0.7619  0.7531
10067SOL    HW231101   4.998   0.125   4.437 -0.3805  0.5716 -0.9172
10068SOL     OW31102   5.194   3.485   6.596  0.1148  0.4143  0.4228
10068SOL    HW131103   5.212   3.504   6.500  0.5896  1.2943  0.6748
10068SOL    HW231104   5.180   3.571   6.645 -1.0751 -0.0791  0.9652
10069SOL     OW31105   3.967   2.169   3.281  0.3141  0.6460  0.6025
10069SOL    HW131106   3.878   2.149   3.240  0.3434 -0.8893  1.2181
10069SOL    HW231107   4.038   2.166   3.211  0.1915 -0.6261  0.5232
10070SOL     OW31108   1.206   0.677   3.881  0.2327 -0.2506  0.6183
10070SOL    HW131109   1.130   0.679   3.815 -1.0943  0.7754  2.0897
10070SOL    HW231110   1.284   0.726   3.842 -0.4334  0.1315 -0.2904
10071SOL     OW31111   4.576   5.262   4.583  0.6628 -0.0059  0.3704
10071SOL    HW131112   4.529   5.182   4.545  0.0274  0.0009  1.0943
10071SOL    HW231113   4.511   5.315   4.639  0.9509  1.2600 -0.4461
10072SOL     OW31114   1.147   5.768   3.399 -0.0078  0.4290 -0.1353
10072SOL    HW131115   1.048   5.754   3.396  0.3127 -3.7771  1.5451
10072SOL    HW231116   1.192   5.698   3.343  2.0729  2.2958 -0.9244
10073SOL     OW31117   6.319   6.929   6.787  0.6236  0.1362 -0.9006
10073SOL    HW131118   6.349   6.946   6.881  0.9424  1.6990 -1.2507
10073SOL    HW231119   6.335   6.833   6.764 -1.5985 -0.8953  1.3665
10074SOL     OW31120   1.896   3.579   5.112 -0.0140  0.0510 -0.0343
10074SOL    HW131121   1.884   3.497   5.055  0.0830  0.7515 -1.0799
10074SOL    HW231122   1.989   3.614   5.102  0.4589 -0.6360  1.6913
10075SOL     OW31123   1.596   2.897   2.404 -0.0906 -0.1962  0.3586
10075SOL    HW131124   1.530   2.850   2.346 -1.1984 -1.4191  2.4776
10075SOL    HW231125   1.677   2.839   2.415  0.5093  0.4256 -0.6244
10076SOL     OW31126   3.251   6.668   1.364 -0.3675  0.2478 -0.1208
10076SOL    HW131127   3.180   6.736   1.346 -0.1350  0.8760  1.1873
10076SOL    HW231128   3.210   6.588   1.409 -0.0361  1.4981  2.6445
10077SOL     OW31129   1.262   1.929   4.592  0.2676 -0.0278  0.2305
10077SOL    HW131130   1.251   1.915   4.494 -0.1820 -0.2479  0.3057
10077SOL    HW231131   1.350   1.971   4.611  0.6551 -0.6362 -0.2071
10078SOL     OW31132   5.229   1.539   4.623  0.2068  0.4029  0.0321
10078SOL    HW131133   5.228   1.507   4.718  0.9457 -0.2082 -0.1543
10078SOL    HW231134   5.265   1.466   4.564 -0.5648  0.6562 -0.7628
10079SOL     OW31135   6.559   3.166   4.152 -0.0548 -0.2203 -0.0324
10079SOL    HW131136   6.519   3.209   4.071  2.9176 -0.5851 -1.8690
10079SOL    HW231137   6.549   3.067   4.146  3.1433 -0.5782 -1.9459
10080SOL     OW31138   1.909   2.352   3.559  0.4139  0.1665 -0.2541
10080SOL    HW131139   1.908   2.352   3.459 -0.4905 -2.4624 -0.3246
10080SOL    HW231140   1.889   2.260   3.593 -2.5076  1.5673  2.3798
10081SOL     OW31141   6.817   1.498   0.261 -0.2958 -0.1915 -0.1105
10081SOL    HW131142   6.861   1.531   0.344 -1.7709  2.0616 -0.1222
10081SOL    HW231143   6.754   1.424   0.284  1.0428 -1.1925  0.3893
10082SOL     OW31144   0.134   1.931   0.130  0.0439  1.1838 -0.2714
10082SOL    HW131145   0.069   1.861   0.100 -0.6522  1.3318  0.8229
10082SOL    HW231146   0.226   1.905   0.102 -0.4615  0.9439 -1.8157
10083SOL     OW31147   5.792   2.877   3.055  0.0913  0.1634 -0.1118
10083SOL    HW131148   5.853   2.943   3.009  0.1308  1.7403  2.0623
10083SOL    HW231149   5.772   2.909   3.147 -1.1373 -2.1777  0.5050
10084SOL     OW31150   1.146   0.094   0.831 -0.0929 -0.4513 -0.5003
10084SOL    HW131151   1.226   0.082   0.889 -0.4813 -0.8879 -0.0527
10084SOL    HW231152   1.109   0.005   0.805  1.0365 -0.3307 -2.7925
10085SOL     OW31153   1.391   0.935   1.560  0.3141  0.0651  0.9030
10085SOL    HW131154   1.319   0.912   1.495 -0.7583  1.5432  1.5135
10085SOL    HW231155   1.475   0.887   1.536 -0.2604  0.0115 -1.1170
10086SOL     OW31156   0.808   4.322   2.603  0.0898 -0.2282  0.2147
10086SOL    HW131157   0.796   4.414   2.566  1.4120  0.7465  2.0840
10086SOL    HW231158   0.724   4.292   2.648 -0.1690  0.2727  0.0655
10087SOL     OW31159   1.897   0.866   2.946  0.2077  0.0171 -0.1279
10087SOL    HW131160   1.869   0.885   3.040  1.8731 -1.9554  0.8321
10087SOL    HW231161   1.936   0.775   2.940  1.5725  0.6710 -2.4286
10088SOL     OW31162   5.106   1.113   3.118  0.1454 -0.0053  0.2097
10088SOL    HW131163   5.062   1.122   3.029 -1.3191  0.4750  0.9486
10088SOL    HW231164   5.193   1.065   3.108 -0.3068 -0.5412 -1.3849
10089SOL     OW31165   1.506   3.058   0.821  0.8970 -0.1395 -0.0719
10089SOL    HW131166   1.527   2.999   0.899  0.8109 -1.1857 -0.8202
10089SOL    HW231167   1.575   3.044   0.749 -0.6556 -1.4717 -1.3909
10090SOL     OW31168   6.348   6.386   3.370  0.2982  0.0177  0.4547
10090SOL    HW131169   6.355   6.294   3.407  0.0831 -0.3086 -0.3017
10090SOL    HW231170   6.258   6.399   3.329  0.8595  0.0143 -0.8528
10091SOL     OW31171   0.607   1.455   4.203 -0.2014  0.2791 -0.2146
10091SOL    HW131172   0.540   1.483   4.272 -2.2184 -0.7114 -1.6504
10091SOL    HW231173   0.696   1.444   4.245 -1.3444 -0.2534  2.2085
10092SOL     OW31174   0.556   2.080   5.594  0.0732 -0.2547  0.0428
10092SOL    HW131175   0.597   1.999   5.551 -1.5396 -0.3921 -1.3524
10092SOL    HW231176   0.495   2.051   5.668 -0.5970 -0.3708 -0.5340
10093SOL     OW31177   0.028   5.839   4.759 -0.1947 -0.3166 -0.1859
10093SOL    HW131178   0.058   5.889   4.840 -0.9282 -0.8861  0.4499
10093SOL    HW231179   0.067   5.747   4.761  0.2324 -0.1589 -0.7766
10094SOL     OW31180   0.605   1.951   0.709 -0.0638  0.2815 -0.2377
10094SOL    HW131181   0.535   1.886   0.738  0.7905 -0.2409  0.6929
10094SOL    HW231182   0.680   1.902   0.664  0.8828  0.5283  1.0362
10095SOL     OW31183   0.506   2.172   6.006  0.5983  0.0610 -0.4784
10095SOL    HW131184   0.468   2.220   6.086  0.7910 -0.4520 -0.0751
10095SOL    HW231185   0.568   2.234   5.957  0.6399  0.3158 -0.1137
10096SOL     OW31186   5.431   4.884   3.389  0.2745  0.4214  0.0124
10096SOL    HW131187   5.427   4.930   3.478  0.6508  0.9304 -0.2312
10096SOL    HW231188   5.418   4.785   3.402  2.1957  0.2340  0.8508
10097SOL     OW31189   1.628   1.095   4.324  0.4283  0.2291 -0.1104
10097SOL    HW131190   1.676   1.111   4.410 -0.1324 -1.9599  0.6696
10097SOL    HW231191   1.570   1.015   4.333  0.0258  0.2025 -2.4247
10098SOL     OW31192   5.799   4.654   0.847  0.8045  0.6784 -0.4459
10098SOL    HW131193   5.707   4.689   0.829 -0.7663 -1.8892  1.7369
10098SOL    HW231194   5.847   4.717   0.908  0.7078  2.2302 -1.8950
10099SOL     OW31195   1.540   4.305   4.000  0.2849  0.3997 -0.0582
10099SOL    HW131196   1.472   4.374   4.022 -0.3246  0.5195 -2.1106
10099SOL    HW231197   1.497   4.231   3.948  1.3841 -0.4102  0.1411
10100SOL     OW31198   5.056   6.764   6.243  0.4560 -0.2470 -0.0025
10100SOL    HW131199   5.047   6.696   6.316 -1.0916  0.6346  0.6669
10100SOL    HW231200   5.153   6.783   6.227  0.8770 -1.8193  0.5142
10101SOL     OW31201   0.918   2.661   4.079 -0.0124  0.0665  0.1128
10101SOL    HW131202   0.850   2.629   4.144 -0.1238 -1.1611 -0.5863
10101SOL    HW231203   0.995   2.598   4.077  0.8867  1.1181  0.4464
10102SOL     OW31204   5.284   0.904   3.582  0.2107 -0.1635 -0.0361
10102SOL    HW131205   5.262   0.959   3.502 -0.7221  0.6967  0.7809
10102SOL    HW231206   5.269   0.958   3.665  2.5410 -0.5332  0.7175
10103SOL     OW31207   6.349   2.286   6.218  0.3992  0.4138  0.9657
10103SOL    HW131208   6.415   2.221   6.256  0.2583 -0.0879  0.3839
10103SOL    HW231209   6.298   2.241   6.145  1.0279  1.4860 -0.1794
10104SOL     OW31210   3.221   4.367   5.484  0.0720  0.2120  0.1154
10104SOL    HW131211   3.148   4.421   5.442  0.1401  1.5774  1.6492
10104SOL    HW231212   3.190   4.332   5.572  1.0759  0.3714  0.5524
10105SOL     OW31213   3.159   5.218   6.302 -0.0588  0.3331  0.2521
10105SOL    HW131214   3.217   5.288   6.261 -0.0568  0.0062 -0.3308
10105SOL    HW231215   3.066   5.253   6.312  0.1517  0.7305  0.8354
10106SOL     OW31216   5.313   3.862   0.217  0.0057 -0.3375  0.0037
10106SOL    HW131217   5.326   3.929   0.144  0.9513  0.4568  0.8703
10106SOL    HW231218   5.264   3.905   0.293 -1.3638 -1.2815 -0.3211
10107SOL     OW31219   6.499   1.611   4.165 -0.1718  0.0166 -0.4596
10107SOL    HW131220   6.512   1.632   4.068 -0.5568 -0.6102 -0.6497
10107SOL    HW231221   6.443   1.683   4.207 -0.2547  0.1356 -0.7710
10108SOL     OW31222   6.048   0.264   5.500  0.3806  0.0029 -0.2534
10108SOL    HW131223   6.128   0.280   5.442  0.4257 -0.8053 -0.4269
10108SOL    HW231224   5.965   0.281   5.446  0.4253  0.0955 -0.2946
10109SOL     OW31225   5.210   6.280   3.898 -0.0318 -0.0228 -0.0471
10109SOL    HW131226   5.213   6.232   3.985  2.3470  2.2030  1.2290
10109SOL    HW231227   5.163   6.367   3.909  0.6335  0.4573 -0.8860
10110SOL     OW31228   2.854   2.857   6.765  0.0379 -0.1435  0.1584
10110SOL    HW131229   2.902   2.773   6.740 -0.0169 -0.9446  2.5552
10110SOL    HW231230   2.917   2.934   6.759  0.7008 -0.6789  0.0875
10111SOL     OW31231   5.939   3.175   1.941 -0.2947 -0.5676  0.1273
10111SOL    HW131232   5.926   3.182   1.842 -0.9046 -0.0882  0.2317
10111SOL    HW231233   5.915   3.262   1.984 -3.3083 -1.6978  1.0118
10112SOL     OW31234   4.941   4.312   4.801  0.0638 -0.4832  0.2709
10112SOL    HW131235   4.845   4.286   4.795 -0.2519  0.3501  1.4290
10112SOL    HW231236   4.950   4.411   4.785  1.1708 -1.0138 -3.4862
10113SOL     OW31237   4.792   0.391   1.454 -0.2028  0.4620 -0.2892
10113SOL    HW131238   4.843   0.311   1.425 -1.5091  0.2315 -2.0920
10113SOL    HW231239   4.703   0.363   1.490  0.4583  0.9334  1.9345
10114SOL     OW31240   3.289   0.593   1.598  0.9079  0.4029 -0.5352
10114SOL    HW131241   3.378   0.605   1.642  1.0868  1.4604 -1.1380
10114SOL    HW231242   3.301   0.590   1.499  0.3409 -0.1936 -0.5911
10115SOL     OW31243   0.941   3.094   3.808  0.0070  0.0636 -0.3201
10115SOL    HW131244   0.960   3.010   3.858 -0.3782  0.6834  0.9275
10115SOL    HW231245   0.990   3.093   3.721  0.4276 -1.2074 -0.0949
10116SOL     OW31246   6.800   0.334   6.815  0.1339  0.1630 -0.6999
10116SOL    HW131247   6.702   0.323   6.832  0.1822 -0.2277 -0.6621
10116SOL    HW231248   6.848   0.335   6.903  0.1505  0.4895 -0.7119
10117SOL     OW31249   3.338   6.636   6.301  0.2252  0.5052  0.0496
10117SOL    HW131250   3.387   6.599   6.222  0.8527  0.2622  0.5403
10117SOL    HW231251   3.313   6.562   6.362 -0.0963  0.7130  0.1715
10118SOL     OW31252   6.097   4.745   4.440  0.3277 -0.3103 -0.3368
10118SOL    HW131253   6.135   4.807   4.509  1.5075 -0.3897 -0.8957
10118SOL    HW231254   6.168   4.681   4.410 -0.5619 -1.1853 -0.6070
10119SOL     OW31255   0.853   2.481   1.144  0.5160 -0.2975  0.0440
10119SOL    HW131256   0.754   2.472   1.152  0.4995 -1.2572 -1.0174
10119SOL    HW231257   0.891   2.398   1.103  1.8684 -0.3007  1.2055
10120SOL     OW31258   4.884   3.274   3.714 -0.9079  0.4041  0.0828
10120SOL    HW131259   4.882   3.176   3.730  1.0899  0.6722  2.6245
10120SOL    HW231260   4.908   3.292   3.618 -0.2631 -1.5917 -0.1667
10121SOL     OW31261   5.755   4.250   5.093 -0.3485  0.7862  0.1522
10121SOL    HW131262   5.829   4.264   5.027  0.9928 -0.9101  1.1998
10121SOL    HW231263   5.722   4.156   5.087 -0.1527  0.5633  1.8911
10122SOL     OW31264   4.598   2.806   0.859 -0.5441  0.1991  0.0060
10122SOL    HW131265   4.525   2.807   0.791  0.8599  0.2093 -1.5506
10122SOL    HW231266   4.636   2.898   0.869  0.5195 -0.1615 -0.6229
10123SOL     OW31267   0.319   4.960   0.550  0.3014 -0.1045  0.3600
10123SOL    HW131268   0.272   4.936   0.466  2.6152 -2.3882 -0.4086
10123SOL    HW231269   0.305   4.888   0.618 -0.6423  1.1926  1.6131
10124SOL     OW31270   6.981   3.708   0.488 -0.3041 -0.1154 -0.2721
10124SOL    HW131271   6.922   3.658   0.425 -2.1551  1.4073  0.1489
10124SOL    HW231272   7.071   3.720   0.446 -1.2706  0.3000 -2.3889
10125SOL     OW31273   2.401   6.709   0.457  0.0026  0.0058 -0.5046
10125SOL    HW131274   2.453   6.790   0.433  2.1296 -1.5654 -1.5866
10125SOL    HW231275   2.390   6.705   0.557  0.7400  1.1046 -0.3591
10126SOL     OW31276   5.699   5.598   6.476 -0.5707  0.1094  0.9574
10126SOL    HW131277   5.622   5.537   6.493  0.1380 -1.8430 -2.0417
10126SOL    HW231278   5.785   5.551   6.496 -0.0539  0.9057  0.6680
10127SOL     OW31279   3.982   4.383   6.874  0.6575  0.2383  0.0598
10127SOL    HW131280   4.059   4.430   6.916  1.7498 -1.2341 -0.2138
10127SOL    HW231281   4.015   4.326   6.799 -0.9320  0.8922 -1.2084
10128SOL     OW31282   1.348   1.559   6.946 -0.7244 -0.0771 -0.4874
10128SOL    HW131283   1.405   1.576   7.026  1.7667 -1.4283 -1.8760
10128SOL    HW231284   1.394   1.593   6.864 -1.3431 -2.2320 -1.8054
10129SOL     OW31285   6.353   3.953   2.693 -0.1562  0.8869  0.0741
10129SOL    HW131286   6.354   3.875   2.755 -1.1687  2.3870  2.0596
10129SOL    HW231287   6.442   4.000   2.696  0.0149  0.5849 -0.1448
10130SOL     OW31288   5.849   3.604   2.564  0.5003 -0.2407 -0.4423
10130SOL    HW131289   5.921   3.609   2.633  1.0579 -1.0548 -0.9458
10130SOL    HW231290   5.788   3.528   2.584 -0.9509  1.1571  0.6402
10131SOL     OW31291   0.498   6.297   0.671  0.1763 -0.0993  0.4529
10131SOL    HW131292   0.425   6.345   0.718 -0.2458 -0.8012  0.5300
10131SOL    HW231293   0.460   6.247   0.593  0.6020 -0.3255  0.3864
10132SOL     OW31294   1.286   6.543   2.866 -0.2188  0.2046 -0.3784
10132SOL    HW131295   1.279   6.451   2.905 -1.6221  1.6154  3.0833
10132SOL    HW231296   1.304   6.609   2.939  0.0014  2.8306 -2.6382
10133SOL     OW31297   6.517   5.120   2.785 -0.0633  0.5759 -0.3378
10133SOL    HW131298   6.485   5.170   2.704 -2.6297  0.7216  0.6745
10133SOL    HW231299   6.442   5.111   2.850  1.2353 -1.7605  0.9582
10134SOL     OW31300   0.918   0.571   1.717 -0.2778 -0.2593 -0.2008
10134SOL    HW131301   0.821   0.553   1.735  0.0801 -1.0283  1.0387
10134SOL    HW231302   0.968   0.573   1.803  1.1693 -1.9930 -0.9374
10135SOL     OW31303   3.189   6.161   0.725 -0.0041  0.7268  0.9732
10135SOL    HW131304   3.217   6.250   0.690 -0.5982  0.0355 -1.3837
10135SOL    HW231305   3.101   6.170   0.772 -1.0547  1.0769 -0.9927
10136SOL     OW31306   5.972   0.446   2.279 -0.0905 -0.0220  0.4703
10136SOL    HW131307   5.945   0.494   2.195 -1.7149 -0.8071  0.5101
10136SOL    HW231308   5.899   0.384   2.307  1.3706 -1.4679  1.2165
10137SOL     OW31309   6.545   3.375   3.509  0.0144 -0.4076  0.4439
10137SOL    HW131310   6.633   3.422   3.509  0.9054 -1.9751 -0.1650
10137SOL    HW231311   6.531   3.332   3.419 -2.1698  1.1914 -0.0504
10138SOL     OW31312   5.141   2.924   6.337  0.5445 -0.3307 -0.1384
10138SOL    HW131313   5.185   2.952   6.423  1.8365  1.1238 -1.2284
10138SOL    HW231314   5.090   3.000   6.298  2.0265 -0.1614 -1.8866
10139SOL     OW31315   3.967   3.275   3.883 -0.0887 -0.1067 -0.6563
10139SOL    HW131316   3.879   3.310   3.914 -0.7031 -1.4088 -0.8672
10139SOL    HW231317   3.962   3.256   3.785  0.7084  0.6148 -0.8478
10140SOL     OW31318   6.897   4.484   4.555 -0.0449 -0.2377  0.6537
10140SOL    HW131319   6.835   4.445   4.487 -0.5491  0.3244  0.7853
10140SOL    HW231320   6.947   4.410   4.600 -2.2438 -0.9336  2.1312
10141SOL     OW31321   2.258   0.970   3.734  0.6811 -0.1408  0.2237
10141SOL    HW131322   2.177   0.957   3.677 -0.2466 -0.9806  1.7068
10141SOL    HW231323   2.234   0.961   3.830  2.6238 -0.9185  0.6830
10142SOL     OW31324   5.219   5.242   4.012 -0.3338  0.2987  0.4247
10142SOL    HW131325   5.287   5.169   4.011  0.8613  1.3835 -0.0845
10142SOL    HW231326   5.128   5.202   4.000  0.4285 -0.9580 -1.6968
10143SOL     OW31327   5.587   5.520   1.638 -0.3196 -0.2287  0.1875
10143SOL    HW131328   5.658   5.475   1.584 -0.1495 -1.6576  1.5244
10143SOL    HW231329   5.516   5.453   1.662 -0.6172  0.4690  1.3174
10144SOL     OW31330   2.207   6.814   1.750 -0.8428 -0.5272 -0.0824
10144SOL    HW131331   2.227   6.893   1.808  0.7702  0.7379 -2.1825
10144SOL    HW231332   2.288   6.755   1.745 -0.5453 -0.0438 -1.7703
10145SOL     OW31333   2.037   0.837   6.532 -0.4054  0.1291 -0.4132
10145SOL    HW131334   2.131   0.803   6.527 -0.4161  0.2482 -2.2309
10145SOL    HW231335   2.006   0.862   6.440 -1.9844  0.7461  0.2501
10146SOL     OW31336   4.779   4.192   2.340  0.5186  0.4084  0.0703
10146SOL    HW131337   4.852   4.204   2.407  1.2725  1.9210 -0.9492
10146SOL    HW231338   4.699   4.245   2.368  1.1921  1.8843 -0.6742
10147SOL     OW31339   4.712   5.524   4.570 -0.1239  0.4537  0.0950
10147SOL    HW131340   4.697   5.426   4.559  0.4510  0.5720 -2.0510
10147SOL    HW231341   4.747   5.541   4.662  2.4698 -1.7155 -0.3572
10148SOL     OW31342   6.735   6.319   5.765  0.0795 -0.1353 -0.2321
10148SOL    HW131343   6.742   6.358   5.673 -0.8902 -1.4284 -0.8819
10148SOL    HW231344   6.641   6.289   5.781  0.2547  0.0054  1.1681
10149SOL     OW31345   3.319   1.281   0.721 -0.1360 -0.4023 -0.1639
10149SOL    HW131346   3.283   1.371   0.694  0.4976 -0.0542  0.1358
10149SOL    HW231347   3.391   1.253   0.657  1.2951  0.3740  1.0301
10150SOL     OW31348   5.812   5.734   2.195 -0.6464  0.8061 -0.8969
10150SOL    HW131349   5.874   5.673   2.146 -1.0330  0.2167 -0.6633
10150SOL    HW231350   5.718   5.701   2.185 -0.8218  1.1784 -0.4927
10151SOL     OW31351   0.843   5.581   5.521  0.5178  0.2024 -0.2477
10151SOL    HW131352   0.895   5.499   5.498  0.1850 -0.2445  0.5786
10151SOL    HW231353   0.747   5.558   5.532  0.5895  0.4847  1.1094
10152SOL     OW31354   6.325   6.722   2.795  0.1444 -0.2722  0.3192
10152SOL    HW131355   6.412   6.724   2.844 -0.4014 -1.5642  1.4093
10152SOL    HW231356   6.297   6.815   2.772  0.3778  0.4122  2.5741
10153SOL     OW31357   0.611   4.715   3.938  0.0990  0.6603  0.7281
10153SOL    HW131358   0.515   4.743   3.937 -0.1165  0.0026  1.9549
10153SOL    HW231359   0.617   4.616   3.946  0.8930  0.6448  0.1201
10154SOL     OW31360   6.595   5.558   4.110  0.0998  0.0068 -0.1118
10154SOL    HW131361   6.528   5.497   4.069  2.4045 -0.9379 -2.8006
10154SOL    HW231362   6.668   5.504   4.154  0.8636  0.8738 -0.2763
10155SOL     OW31363   4.670   1.693   3.802 -0.5959 -0.1854  0.9796
10155SOL    HW131364   4.621   1.773   3.837 -1.9549  0.4361 -1.9995
10155SOL    HW231365   4.605   1.618   3.790 -0.3743 -0.1441 -0.7188
10156SOL     OW31366   4.618   0.038   2.069 -0.4006 -0.4629 -0.0795
10156SOL    HW131367   4.701   0.093   2.077 -0.2041 -0.5974 -1.0885
10156SOL    HW231368   4.538   0.094   2.092 -0.2611  0.4305 -1.6398
10157SOL     OW31369   5.076   0.416   4.439  0.1063  0.0445 -0.8361
10157SOL    HW131370   5.042   0.465   4.518  1.2156 -1.1753  0.4655
10157SOL    HW231371   5.143   0.348   4.468  1.4745  0.3709 -2.9450
10158SOL     OW31372   6.015   2.358   5.162 -0.3408  0.1309 -0.1717
10158SOL    HW131373   5.932   2.308   5.185  0.3901 -1.0001  0.0727
10158SOL    HW231374   6.007   2.453   5.194 -1.9154  0.3092 -1.0373
10159SOL     OW31375   1.305   0.121   0.593 -0.0636  0.0571  0.6876
10159SOL    HW131376   1.382   0.057   0.598  1.3739  1.7452  1.0779
10159SOL    HW231377   1.249   0.113   0.676 -0.6100 -1.4861  0.2084
10160SOL     OW31378   6.723   6.961   1.626 -0.3415  0.2665  0.2195
10160SOL    HW131379   6.676   7.047   1.607 -0.7936 -0.1838 -0.7712
10160SOL    HW231380   6.658   6.894   1.660 -0.6097 -0.5811 -1.8407
10161SOL     OW31381   1.156   4.527   6.226  0.1979 -0.4109 -1.0032
10161SOL    HW131382   1.221   4.602   6.215 -0.0883 -0.3542 -2.5752
10161SOL    HW231383   1.093   4.526   6.148 -1.2998 -0.8514  0.1607
10162SOL     OW31384   2.236   1.711   5.070 -0.1195 -0.3509 -0.1008
10162SOL    HW131385   2.211   1.807   5.081  1.8374  0.1607  0.2916
10162SOL    HW231386   2.188   1.656   5.137 -1.0456  0.3867 -0.1428
10163SOL     OW31387   5.678   4.720   5.543 -0.0104  0.2392  0.0334
10163SOL    HW131388   5.629   4.635   5.525  2.2729 -1.4086  1.0820
10163SOL    HW231389   5.759   4.725   5.484 -0.1289  1.7258 -0.0420
10164SOL     OW31390   6.149   3.388   5.542 -0.7035  0.2924  0.3886
10164SOL    HW131391   6.228   3.328   5.555  0.2419  1.3576 -0.1882
10164SOL    HW231392   6.180   3.483   5.541 -1.7986  0.6702 -1.2342
10165SOL     OW31393   5.649   3.688   1.832 -0.9543 -0.4542  0.2017
10165SOL    HW131394   5.689   3.625   1.765  1.3875  0.2728  0.8293
10165SOL    HW231395   5.669   3.655   1.924 -0.1390  0.9043  0.5343
10166SOL     OW31396   1.259   1.012   1.811 -0.9000 -0.0589 -0.3359
10166SOL    HW131397   1.316   0.963   1.876 -0.8731  0.4554  0.0272
10166SOL    HW231398   1.283   0.984   1.718 -0.3684 -0.1782 -0.1637
10167SOL     OW31399   4.399   1.589   0.274 -0.0674  0.0649 -0.0270
10167SOL    HW131400   4.396   1.680   0.234 -0.6573 -0.0312 -0.2040
10167SOL    HW231401   4.369   1.593   0.369 -1.7392 -0.1929 -0.5109
10168SOL     OW31402   5.899   5.033   5.417  0.2727  0.0935  0.4273
10168SOL    HW131403   5.940   4.942   5.419 -0.8226 -0.4098  0.4998
10168SOL    HW231404   5.971   5.102   5.403  0.8761 -0.9600 -2.2833
10169SOL     OW31405   0.674   4.653   4.339  0.1188  0.4491  0.6317
10169SOL    HW131406   0.621   4.711   4.277 -0.6696 -0.7455  0.1420
10169SOL    HW231407   0.611   4.603   4.399  0.5741 -1.5802 -0.4821
10170SOL     OW31408   1.479   5.236   4.198  0.5063 -0.6243 -0.1639
10170SOL    HW131409   1.382   5.227   4.224  0.2939 -0.7942 -0.9959
10170SOL    HW231410   1.503   5.333   4.194 -0.3720 -0.4336 -2.5320
10171SOL     OW31411   5.716   1.208   5.917 -0.6507  0.0366  0.2027
10171SOL    HW131412   5.626   1.166   5.903 -0.9010 -0.1966  2.1624
10171SOL    HW231413   5.774   1.146   5.970 -0.2975  1.2749  1.3240
10172SOL     OW31414   4.934   6.813   5.223 -0.9252 -0.3567  0.5913
10172SOL    HW131415   4.857   6.843   5.168  0.9027  0.0672 -1.9242
10172SOL    HW231416   4.988   6.746   5.171  1.6222  1.0198  1.3068
10173SOL     OW31417   1.681   2.720   4.906  0.0229 -0.4454 -0.7026
10173SOL    HW131418   1.642   2.809   4.929 -0.7392 -1.1207  0.7526
10173SOL    HW231419   1.609   2.663   4.865  0.2776 -0.7034 -0.7888
10174SOL     OW31420   1.422   5.525   1.836 -0.0365 -0.0764  0.1602
10174SOL    HW131421   1.510   5.551   1.877 -0.3307 -0.0432  0.7872
10174SOL    HW231422   1.390   5.600   1.778  1.5889 -1.1117 -2.1873
10175SOL     OW31423   5.192   1.200   5.453 -0.3744 -0.6477  0.2199
10175SOL    HW131424   5.170   1.175   5.358 -1.7840 -0.5685  0.5036
10175SOL    HW231425   5.194   1.300   5.461  0.3445 -0.6570  0.1429
10176SOL     OW31426   2.439   2.494   1.433 -0.1880  0.0536 -0.6218
10176SOL    HW131427   2.479   2.417   1.383 -1.6163 -0.8582 -0.4254
10176SOL    HW231428   2.397   2.461   1.518  0.3073  1.2545  0.1153
10177SOL     OW31429   1.429   6.215   5.424  0.0494 -0.2796  0.2433
10177SOL    HW131430   1.529   6.204   5.421 -0.0924 -1.4809 -2.1440
10177SOL    HW231431   1.387   6.128   5.449 -0.4255  0.5528  2.6051
10178SOL     OW31432   4.577   3.537   6.490  0.1853 -0.1284  0.0157
10178SOL    HW131433   4.512   3.581   6.429  0.3556 -1.0275 -0.8345
10178SOL    HW231434   4.535   3.456   6.531  1.2123 -1.6421 -1.7615
10179SOL     OW31435   6.373   2.052   0.042  0.5754  0.4684 -0.1614
10179SOL    HW131436   6.396   2.050   0.139  0.7921  3.2182 -0.0755
10179SOL    HW231437   6.280   2.017   0.028 -0.1026  1.6188  1.2726
10180SOL     OW31438   1.527   4.150   0.568  0.2428 -0.1237 -0.3454
10180SOL    HW131439   1.482   4.087   0.505  1.5672  1.0790 -2.6410
10180SOL    HW231440   1.481   4.239   0.564  0.5377  0.0540  0.1786
10181SOL     OW31441   4.398   4.405   1.641 -0.1262  0.1343  0.3099
10181SOL    HW131442   4.310   4.452   1.635  0.0153  0.3587 -0.0367
10181SOL    HW231443   4.399   4.346   1.722 -1.0796 -0.8361 -0.3412
10182SOL     OW31444   3.414   1.177   0.225 -0.0796 -0.1149 -0.0646
10182SOL    HW131445   3.509   1.148   0.226 -0.4768 -1.5934  1.3256
10182SOL    HW231446   3.355   1.096   0.222 -1.2836  0.7393 -0.2135
10183SOL     OW31447   2.028   1.246   5.646  0.9068 -0.3339  0.5149
10183SOL    HW131448   1.929   1.242   5.655  0.9224 -1.8540  0.2491
10183SOL    HW231449   2.060   1.338   5.669 -0.7052  0.6526 -0.9291
10184SOL     OW31450   5.505   6.105   0.543  0.7082 -0.2253  0.2553
10184SOL    HW131451   5.530   6.202   0.550  1.6821 -0.3059 -1.6066
10184SOL    HW231452   5.472   6.073   0.632  1.2997  1.5489  1.1603
10185SOL     OW31453   4.392   0.595   1.209 -0.3959 -0.3284 -0.5186
10185SOL    HW131454   4.300   0.610   1.172  0.8472  1.5713 -3.1626
10185SOL    HW231455   4.391   0.611   1.307 -2.6775  0.8409 -0.6524
10186SOL     OW31456   6.806   2.377   2.416  0.1756 -0.2048  0.0852
10186SOL    HW131457   6.819   2.439   2.338 -0.4408 -2.0371 -1.5502
10186SOL    HW231458   6.869   2.300   2.409 -0.0915 -0.5518  1.2638
10187SOL     OW31459   6.887   3.479   3.497  0.0064  0.0794 -0.3641
10187SOL    HW131460   6.841   3.563   3.526 -0.6690 -1.1083  2.2588
10187SOL    HW231461   6.831   3.433   3.427 -1.9669 -0.3886  1.4149
10188SOL     OW31462   3.828   6.493   2.185 -0.1468  0.3384  0.6401
10188SOL    HW131463   3.873   6.482   2.096  0.7667 -0.0454  1.1393
10188SOL    HW231464   3.729   6.480   2.174 -0.2383  1.7706 -0.5808
10189SOL     OW31465   6.967   6.267   3.713 -0.0660 -0.1687  0.2156
10189SOL    HW131466   6.996   6.363   3.718  1.4860 -0.6142  0.3267
10189SOL    HW231467   6.977   6.224   3.802 -0.5904 -0.4825  0.1260
10190SOL     OW31468   4.664   3.071   0.908  0.0812 -0.0409 -0.4449
10190SOL    HW131469   4.684   3.166   0.882  0.1973 -0.3883 -1.6822
10190SOL    HW231470   4.584   3.069   0.967  1.5389  1.0562  1.7283
10191SOL     OW31471   5.827   2.676   6.888  0.2554  0.0040 -0.0349
10191SOL    HW131472   5.731   2.665   6.913  0.5597  0.2185  1.3131
10191SOL    HW231473   5.866   2.586   6.867 -0.0026 -0.1895  0.3075
10192SOL     OW31474   3.247   0.586   6.332 -0.4010 -0.1814 -0.0375
10192SOL    HW131475   3.280   0.510   6.388 -0.2992  0.5633  0.9516
10192SOL    HW231476   3.322   0.649   6.315 -1.0374  1.0619  1.4628
10193SOL     OW31477   5.379   5.507   1.986  0.4107 -0.0028  0.1509
10193SOL    HW131478   5.375   5.433   1.919  0.1417 -0.6080  0.8373
10193SOL    HW231479   5.361   5.472   2.077  0.2844  0.9064  0.4909
10194SOL     OW31480   5.590   3.304   3.725  0.2929  0.1815  0.1791
10194SOL    HW131481   5.611   3.398   3.697  0.8678 -0.3743 -1.3198
10194SOL    HW231482   5.491   3.289   3.718  0.2392  0.5620  0.0722
10195SOL     OW31483   4.210   5.198   1.654 -0.7528 -0.1468 -0.0804
10195SOL    HW131484   4.289   5.159   1.700 -1.0761 -0.0750  0.5485
10195SOL    HW231485   4.126   5.166   1.699 -1.0135  1.7453  0.8456
10196SOL     OW31486   2.014   6.795   4.737 -0.4968  0.0401 -0.2539
10196SOL    HW131487   2.005   6.783   4.836 -0.2541 -1.3977 -0.3871
10196SOL    HW231488   2.057   6.714   4.697  0.2601  0.9894 -1.4329
10197SOL     OW31489   3.492   1.659   4.746  1.2414 -0.4186  0.3384
10197SOL    HW131490   3.488   1.753   4.779  2.2547 -0.2557  0.0243
10197SOL    HW231491   3.525   1.599   4.818  1.9534 -0.3075  0.1093
10198SOL     OW31492   5.128   6.272   1.359  0.4987  0.2794 -0.6293
10198SOL    HW131493   5.178   6.286   1.444  1.0965  0.8086 -1.0613
10198SOL    HW231494   5.111   6.360   1.314 -1.5785  0.2246 -0.0885
10199SOL     OW31495   6.885   4.399   4.146 -0.0423  0.0556 -0.3731
10199SOL    HW131496   6.819   4.402   4.220 -0.5388  0.7097 -0.8314
10199SOL    HW231497   6.845   4.352   4.067  0.6984 -1.1866 -0.0336
10200SOL     OW31498   5.717   1.288   2.928 -0.4398 -0.4818 -0.0786
10200SOL    HW131499   5.636   1.255   2.976 -1.4836  1.0506 -0.7257
10200SOL    HW231500   5.709   1.269   2.830  0.4889 -1.2561 -0.0265
10201SOL     OW31501   3.673   3.565   1.493  0.4561 -0.2136 -0.4546
10201SOL    HW131502   3.726   3.493   1.448  0.4373 -0.2615 -0.3996
10201SOL    HW231503   3.730   3.646   1.506  0.9058 -0.7104  0.7938
10202SOL     OW31504   5.421   0.304   2.497  0.3183 -0.0576 -0.6545
10202SOL    HW131505   5.519   0.318   2.505  0.3403 -0.8806  1.0050
10202SOL    HW231506   5.373   0.363   2.562 -0.1961 -0.4575 -0.6591
10203SOL     OW31507   1.056   3.292   6.314  0.3938 -0.0554 -0.0196
10203SOL    HW131508   0.970   3.337   6.335  0.3447 -0.1484 -0.0211
10203SOL    HW231509   1.126   3.321   6.379  0.1076 -0.7577  0.6210
10204SOL     OW31510   6.150   3.201   0.735  0.0317 -0.2871  0.4590
10204SOL    HW131511   6.226   3.152   0.778  0.0261 -0.4907  0.2400
10204SOL    HW231512   6.169   3.299   0.734  0.3379 -0.3490  0.3076
10205SOL     OW31513   5.496   2.277   4.240 -0.4057 -0.0490  0.1331
10205SOL    HW131514   5.478   2.359   4.186  2.3960 -0.1554 -1.1460
10205SOL    HW231515   5.421   2.261   4.303 -0.8793  3.7379  0.7373
10206SOL     OW31516   2.170   1.317   3.674 -0.5810 -0.2080  0.0752
10206SOL    HW131517   2.073   1.333   3.653 -1.1138  1.0776  3.0424
10206SOL    HW231518   2.185   1.220   3.691 -1.7959 -0.2257  1.2376
10207SOL     OW31519   2.015   2.224   6.374 -0.8125 -0.2694  0.5039
10207SOL    HW131520   2.115   2.221   6.381 -0.6883  0.8647 -0.3976
10207SOL    HW231521   1.978   2.282   6.446 -0.5461  1.6097 -0.7846
10208SOL     OW31522   0.336   2.056   3.321  0.3694  0.2537  0.3145
10208SOL    HW131523   0.363   2.016   3.234 -0.2607  2.4458 -0.9724
10208SOL    HW231524   0.277   2.136   3.305  1.4997  1.6905  2.6639
10209SOL     OW31525   0.457   5.157   6.185 -0.2320  0.7599 -0.1320
10209SOL    HW131526   0.450   5.153   6.285  1.4477 -0.5209 -0.0161
10209SOL    HW231527   0.492   5.246   6.158  5.3849 -0.6648  1.0540
10210SOL     OW31528   2.480   0.051   2.184  0.2100  0.3383  0.0482
10210SOL    HW131529   2.544   0.039   2.259  0.3087  1.4785  0.1642
10210SOL    HW231530   2.387   0.057   2.220 -0.4200 -4.1530 -0.2925
10211SOL     OW31531   5.963   4.301   5.883 -0.3762  0.0518  0.2346
10211SOL    HW131532   5.968   4.203   5.898 -0.8611  0.0174  0.1582
10211SOL    HW231533   6.023   4.348   5.948  2.2668 -0.4663 -1.6601
10212SOL     OW31534   1.083   6.300   0.018  0.1974  0.0700  0.2444
10212SOL    HW131535   1.173   6.257   0.025 -0.1208 -0.6342  0.0836
10212SOL    HW231536   1.083   6.363  -0.060  1.7080  2.9623  2.4034
10213SOL     OW31537   5.769   3.459   1.696  0.1421 -0.1191 -0.4136
10213SOL    HW131538   5.742   3.365   1.715 -0.6710 -0.1875 -1.7783
10213SOL    HW231539   5.785   3.470   1.598  0.6261  1.0759 -0.2245
10214SOL     OW31540   1.894   2.277   6.996 -0.7119 -0.3231 -0.0326
10214SOL    HW131541   1.988   2.285   6.962  0.0667 -0.5108  1.9756
10214SOL    HW231542   1.842   2.359   6.969 -0.1788 -0.4878 -1.6788
10215SOL     OW31543   2.254   4.112   1.161 -0.5781  0.0872 -0.5705
10215SOL    HW131544   2.186   4.185   1.164  0.6345  1.2764 -0.4675
10215SOL    HW231545   2.212   4.027   1.131 -2.2166  0.6215  0.1312
10216SOL     OW31546   6.116   1.041   4.744  0.2553 -0.4136 -0.2919
10216SOL    HW131547   6.048   1.112   4.724  0.5271 -0.2697 -0.7016
10216SOL    HW231548   6.070   0.964   4.788  0.0281  0.1879  0.5463
10217SOL     OW31549   3.839   0.048   5.901  0.4596  0.3685  0.1546
10217SOL    HW131550   3.781  -0.007   5.961  1.3537  2.1450  2.7895
10217SOL    HW231551   3.922  -0.003   5.879 -0.4004 -0.7509 -0.6107
10218SOL     OW31552   1.425   3.253   2.765 -0.3797  0.1536 -0.4325
10218SOL    HW131553   1.343   3.281   2.715 -0.6068 -1.0323 -0.7590
10218SOL    HW231554   1.491   3.215   2.701  0.1325  0.4245 -0.0704
10219SOL     OW31555   0.673   6.440   1.705  0.1572 -0.4438 -0.3003
10219SOL    HW131556   0.635   6.412   1.617  0.1416 -1.3863  0.0012
10219SOL    HW231557   0.616   6.404   1.779  0.0003  0.5920  0.1018
10220SOL     OW31558   3.847   2.888   6.732  0.6099 -0.0838  0.8110
10220SOL    HW131559   3.789   2.968   6.717 -0.6154 -0.8720  1.2317
10220SOL    HW231560   3.794   2.815   6.776  1.1677 -1.8172 -1.2173
10221SOL     OW31561   2.182   5.386   3.955  0.4064  0.0924  0.1185
10221SOL    HW131562   2.158   5.311   4.017 -2.2009 -0.8568 -1.8544
10221SOL    HW231563   2.123   5.465   3.974 -0.3259 -0.1623 -0.9817
10222SOL     OW31564   3.881   3.720   1.572  0.3635  0.1682  0.2945
10222SOL    HW131565   3.864   3.802   1.626  1.4698 -0.8136  2.2548
10222SOL    HW231566   3.897   3.643   1.634  1.2751 -1.1170 -1.4732
10223SOL     OW31567   3.045   5.877   5.884  0.3452  0.1907  0.6521
10223SOL    HW131568   2.956   5.901   5.920 -0.5914 -2.0639  0.0150
10223SOL    HW231569   3.077   5.792   5.926  2.0870  0.8136  0.6785
10224SOL     OW31570   0.530   2.848   3.918  0.3474 -0.0608  0.3704
10224SOL    HW131571   0.487   2.767   3.958 -1.2178  1.1134  1.1809
10224SOL    HW231572   0.476   2.879   3.840 -0.4037  1.4704  1.4399
10225SOL     OW31573   3.091   2.604   5.343  0.6107  0.4057  0.1522
10225SOL    HW131574   3.113   2.523   5.289 -1.9942 -1.1848  1.3031
10225SOL    HW231575   2.993   2.622   5.340  0.5197  1.0229  3.2236
10226SOL     OW31576   4.082   4.820   6.387 -0.1869  0.2412 -0.3396
10226SOL    HW131577   4.136   4.893   6.345 -1.1210 -0.1168 -2.2721
10226SOL    HW231578   4.044   4.762   6.315 -2.5661  0.0637  0.9697
10227SOL     OW31579   4.580   3.018   5.586  0.2258  0.8467 -0.0431
10227SOL    HW131580   4.519   3.070   5.527 -2.4591 -0.1636  1.6383
10227SOL    HW231581   4.644   2.965   5.531 -1.2411  0.9863 -1.9732
10228SOL     OW31582   6.864   1.549   6.098 -0.2861  0.4014 -0.4906
10228SOL    HW131583   6.868   1.601   6.012 -2.7406  1.2178 -0.1962
10228SOL    HW231584   6.800   1.473   6.088 -0.8105  0.6641  0.6914
10229SOL     OW31585   6.308   1.590   5.131  0.1056  0.9573  0.0121
10229SOL    HW131586   6.227   1.605   5.074 -0.5454 -2.2274 -0.1175
10229SOL    HW231587   6.300   1.643   5.216 -2.4364  0.3288  0.2521
10230SOL     OW31588   6.655   5.204   1.859  0.5710  0.4629 -0.3960
10230SOL    HW131589   6.738   5.218   1.913  0.3547  0.3599 -0.0286
10230SOL    HW231590   6.671   5.132   1.792  0.8510  0.6021 -0.4785
10231SOL     OW31591   0.759   3.622   2.360  0.0686  0.0978 -0.6326
10231SOL    HW131592   0.837   3.680   2.385 -0.0977 -0.4496  1.3162
10231SOL    HW231593   0.674   3.671   2.377 -0.0665 -0.5896  0.7642
10232SOL     OW31594   4.489   4.807   3.506  0.4870 -0.3889 -0.4392
10232SOL    HW131595   4.491   4.840   3.411  1.0433 -1.3696 -0.7904
10232SOL    HW231596   4.432   4.867   3.561 -0.5344 -0.2545 -1.5809
10233SOL     OW31597   3.904   3.992   3.982 -0.0949 -0.2046 -0.5982
10233SOL    HW131598   3.948   3.907   4.011 -0.3084 -0.8963 -2.2164
10233SOL    HW231599   3.902   3.997   3.882 -1.3758  1.0299 -0.5527
10234SOL     OW31600   6.721   0.365   1.009 -0.3616  1.0255  0.2336
10234SOL    HW131601   6.677   0.354   0.919  1.1784 -0.3022 -0.4012
10234SOL    HW231602   6.707   0.282   1.063  0.5012  0.9883  0.4060
10235SOL     OW31603   1.614   1.189   2.200 -0.2659  0.4068  0.5059
10235SOL    HW131604   1.598   1.203   2.102  0.1193  0.2460  0.4203
10235SOL    HW231605   1.616   1.091   2.220  1.5588  0.3820  0.3514
10236SOL     OW31606   1.056   0.624   2.628 -0.1657  0.6523  0.2726
10236SOL    HW131607   1.007   0.613   2.542 -0.5361  2.1340  0.2740
10236SOL    HW231608   0.991   0.641   2.702 -0.0968 -3.1051  1.4054
10237SOL     OW31609   5.402   5.417   6.710 -0.3252 -0.1293 -0.4182
10237SOL    HW131610   5.423   5.430   6.613  0.3966  1.2974 -0.0963
10237SOL    HW231611   5.447   5.488   6.764 -0.5826 -0.9886  0.9934
10238SOL     OW31612   3.023   0.254   5.835 -0.6799  0.1647  0.4207
10238SOL    HW131613   3.120   0.262   5.811 -1.2457  0.9914 -1.8519
10238SOL    HW231614   2.972   0.222   5.755 -2.5184  1.4575  1.0189
10239SOL     OW31615   1.502   3.999   5.436 -0.7487  0.3773  0.1882
10239SOL    HW131616   1.419   4.024   5.387 -0.8494 -0.2636  0.0213
10239SOL    HW231617   1.522   4.068   5.505 -0.4026  1.5058 -0.9900
10240SOL     OW31618   2.553   4.999   2.057 -0.1086  0.1935  0.6685
10240SOL    HW131619   2.502   4.987   1.972 -1.8818 -2.0933  1.9328
10240SOL    HW231620   2.648   5.024   2.036 -0.4600 -0.4305 -1.9694
10241SOL     OW31621   2.745   3.584   1.712 -0.2249  0.3326 -0.7373
10241SOL    HW131622   2.811   3.575   1.786 -0.8662  0.8069 -0.0890
10241SOL    HW231623   2.705   3.495   1.692 -0.0632  0.2050 -0.4951
10242SOL     OW31624   0.313   4.030   1.420 -0.3524 -1.0229  0.5526
10242SOL    HW131625   0.290   3.970   1.343 -1.0700  2.8279 -2.5838
10242SOL    HW231626   0.394   4.084   1.396 -1.6676  1.6102  1.6393
10243SOL     OW31627   4.093   5.433   3.254 -0.1883 -0.1366  0.0496
10243SOL    HW131628   4.001   5.448   3.218 -0.1923  1.1399  0.5331
10243SOL    HW231629   4.106   5.335   3.272 -1.4307 -0.3410 -0.0672
10244SOL     OW31630   2.322   5.566   3.755 -1.0581 -0.5076  0.0693
10244SOL    HW131631   2.293   5.558   3.659  1.3020 -3.3237 -0.5684
10244SOL    HW231632   2.277   5.496   3.809 -1.4909  0.3277  0.8136
10245SOL     OW31633   4.975   3.349   6.499  0.0408  0.2246  0.3627
10245SOL    HW131634   5.035   3.422   6.532 -0.0088 -0.3051  1.7004
10245SOL    HW231635   4.916   3.318   6.574 -1.7399  0.5489 -0.8310
10246SOL     OW31636   3.147   3.185   3.689 -0.4345 -0.3738 -0.3346
10246SOL    HW131637   3.199   3.245   3.628 -0.7791  0.1634 -0.1082
10246SOL    HW231638   3.065   3.233   3.721  0.4890 -0.0794  1.7478
10247SOL     OW31639   6.786   2.011   3.807  0.3672 -0.4780  0.5953
10247SOL    HW131640   6.817   1.916   3.812  0.4666 -0.4397  0.7268
10247SOL    HW231641   6.686   2.014   3.809  0.3236 -0.6489 -0.6766
10248SOL     OW31642   1.417   1.474   5.218 -0.1702  0.0066  0.2215
10248SOL    HW131643   1.400   1.567   5.186 -1.2427 -1.2595 -3.3375
10248SOL    HW231644   1.515   1.456   5.221  0.0058  0.8061 -0.5483
10249SOL     OW31645   3.679   4.395   0.358 -0.3171  0.0360 -0.1288
10249SOL    HW131646   3.663   4.369   0.263 -0.9994 -0.5997  0.1493
10249SOL    HW231647   3.593   4.426   0.400 -0.1518 -0.2668  0.4482
10250SOL     OW31648   3.116   3.328   0.658 -0.7593  0.4498 -0.3084
10250SOL    HW131649   3.064   3.399   0.706 -0.0703 -1.0497  2.9665
10250SOL    HW231650   3.175   3.370   0.590 -1.9919  2.7558 -0.0564
10251SOL     OW31651   1.176   0.325   6.446  0.1946 -0.6161  0.5505
10251SOL    HW131652   1.122   0.242   6.427  1.3296 -1.1878 -0.3609
10251SOL    HW231653   1.153   0.395   6.378 -0.4246 -0.3360  1.0370
10252SOL     OW31654   5.259   2.345   5.562 -0.2498 -0.6015 -0.1518
10252SOL    HW131655   5.268   2.286   5.642 -0.4788 -1.0609 -0.4627
10252SOL    HW231656   5.177   2.402   5.571  0.2515  0.0515  0.3895
10253SOL     OW31657   3.418   0.644   0.800  0.1895  0.5330 -0.3928
10253SOL    HW131658   3.379   0.736   0.796 -1.2765  0.0244  1.0396
10253SOL    HW231659   3.512   0.649   0.832 -0.4787  1.4626  1.6312
10254SOL     OW31660   0.326   1.252   6.074  0.4180 -0.8468 -0.4210
10254SOL    HW131661   0.274   1.204   6.003 -0.5698 -3.9816  2.1666
10254SOL    HW231662   0.266   1.319   6.120  0.1529 -0.9491 -0.6165
10255SOL     OW31663   5.520   5.613   2.525  0.4200  0.1205 -0.0527
10255SOL    HW131664   5.617   5.588   2.526  0.1762 -1.1842 -2.4977
10255SOL    HW231665   5.464   5.531   2.514 -1.0537  0.8025  1.8279
10256SOL     OW31666   3.988   1.594   4.228  0.5125  0.0655  0.0779
10256SOL    HW131667   3.915   1.659   4.248  0.5740  0.0854  0.2401
10256SOL    HW231668   3.948   1.509   4.192  0.5490  0.8443 -1.8932
10257SOL     OW31669   3.363   5.335   3.339 -0.1539 -0.4526  0.0464
10257SOL    HW131670   3.394   5.247   3.303 -3.4387 -0.4994 -3.2175
10257SOL    HW231671   3.327   5.322   3.431 -0.4937 -2.5144 -0.3284
10258SOL     OW31672   2.365   1.531   3.542 -0.5252 -0.0523  0.0483
10258SOL    HW131673   2.425   1.483   3.605  0.4420 -0.5245 -1.1937
10258SOL    HW231674   2.288   1.571   3.592 -0.1817 -1.0411  1.3961
10259SOL     OW31675   0.831   4.591   4.814 -0.4583 -0.0109  0.1481
10259SOL    HW131676   0.918   4.561   4.852 -1.1385  0.9873  2.7306
10259SOL    HW231677   0.833   4.690   4.800 -0.6322 -0.2073 -1.4209
10260SOL     OW31678   0.855   1.061   3.624  0.1366 -1.0947 -0.2129
10260SOL    HW131679   0.823   0.975   3.585 -1.1335 -1.4806  1.5506
10260SOL    HW231680   0.813   1.075   3.714  2.9888 -0.3319  1.1478
10261SOL     OW31681   1.694   4.185   0.992  0.0547  0.0727  0.3157
10261SOL    HW131682   1.746   4.212   1.073 -1.0892 -0.6251  1.3215
10261SOL    HW231683   1.675   4.086   0.997 -0.8151  0.1970 -0.3318
10262SOL     OW31684   4.196   0.495   0.372  0.0174 -0.2920  0.0398
10262SOL    HW131685   4.252   0.575   0.351 -1.0592 -0.2016 -2.8826
10262SOL    HW231686   4.121   0.522   0.432  0.1010  0.7401 -0.3006
10263SOL     OW31687   5.693   1.510   3.376 -0.0629 -0.6449  0.1364
10263SOL    HW131688   5.607   1.516   3.325  0.9269  1.1836 -1.4569
10263SOL    HW231689   5.767   1.549   3.322  1.6536 -1.4274  1.7940
10264SOL     OW31690   5.926   1.408   4.875 -0.1788 -0.0411 -0.5376
10264SOL    HW131691   5.973   1.357   4.803  0.4429 -2.1518  1.2700
10264SOL    HW231692   5.828   1.396   4.865 -0.1292  0.1291 -1.3239
10265SOL     OW31693   1.394   0.873   2.044  0.0255  0.1910 -0.1329
10265SOL    HW131694   1.396   0.786   2.094 -0.5415 -1.0881 -2.2030
10265SOL    HW231695   1.453   0.866   1.964 -0.7704  1.3918 -0.8491
10266SOL     OW31696   2.532   4.514   2.431  0.3818 -0.4150 -0.5139
10266SOL    HW131697   2.505   4.467   2.347 -0.9955 -0.2417 -0.1953
10266SOL    HW231698   2.570   4.604   2.408 -0.8443  0.0170 -0.9215
10267SOL     OW31699   4.533   0.684   6.345 -0.2219  0.6186  0.3728
10267SOL    HW131700   4.493   0.722   6.262 -2.4103  0.5364  1.3096
10267SOL    HW231701   4.498   0.592   6.360 -2.5305  1.7512  2.9701
10268SOL     OW31702   2.992   6.137   4.751  0.2507 -0.7216  0.0847
10268SOL    HW131703   3.015   6.040   4.750  1.9663 -0.3979  1.3057
10268SOL    HW231704   3.014   6.178   4.663 -0.0534 -1.3452 -0.2852
10269SOL     OW31705   2.058   6.444   0.527 -0.7722  0.4820 -0.2694
10269SOL    HW131706   2.055   6.498   0.443 -0.3440  1.0294  0.0601
10269SOL    HW231707   2.092   6.501   0.602  2.4889 -0.9539 -0.4843
10270SOL     OW31708   1.967   1.328   1.683  0.3247  0.9623  0.2733
10270SOL    HW131709   2.067   1.335   1.682  0.3327  0.8395  0.2263
10270SOL    HW231710   1.927   1.419   1.669  0.4313  0.9608 -0.0392
10271SOL     OW31711   1.308   0.143   6.753  0.0091 -0.8855  0.0370
10271SOL    HW131712   1.326   0.085   6.833 -2.7926 -1.0666  0.6391
10271SOL    HW231713   1.272   0.087   6.679  0.9456 -0.4491 -0.7646
10272SOL     OW31714   5.340   6.784   5.698  0.1190  0.5688 -0.1339
10272SOL    HW131715   5.411   6.753   5.762  0.1279 -1.7700 -1.1734
10272SOL    HW231716   5.382   6.801   5.609 -0.4615  0.0829 -0.5062
10273SOL     OW31717   2.271   5.148   2.613 -0.6477 -0.2576  0.0890
10273SOL    HW131718   2.307   5.206   2.540 -0.0882  0.2193  0.7275
10273SOL    HW231719   2.175   5.127   2.595 -0.0999 -1.4984 -1.6127
10274SOL     OW31720   1.924   2.419   6.557 -0.5866 -0.1225  0.2628
10274SOL    HW131721   1.939   2.484   6.483  2.0026 -0.7841  0.0883
10274SOL    HW231722   1.963   2.456   6.642 -1.7626 -0.2153  0.8663
10275SOL     OW31723   5.945   1.025   1.682  0.0583 -0.6933 -0.6152
10275SOL    HW131724   5.895   1.078   1.751  1.0418 -1.0053  0.3702
10275SOL    HW231725   5.891   0.944   1.657 -0.0395 -0.9152  0.2714
10276SOL     OW31726   3.491   4.164   4.253  0.4464 -0.1347  0.3561
10276SOL    HW131727   3.572   4.135   4.202 -0.6669 -0.7532 -1.1366
10276SOL    HW231728   3.422   4.197   4.188 -1.9997 -3.2580  1.1513
10277SOL     OW31729   1.277   5.841   3.673  0.1435 -0.4689 -0.2581
10277SOL    HW131730   1.226   5.799   3.599 -1.4917  1.1183 -0.0895
10277SOL    HW231731   1.375   5.831   3.656 -0.1854 -0.3014 -2.5355
10278SOL     OW31732   0.533   5.771   5.733 -0.2399  0.0936  0.3492
10278SOL    HW131733   0.613   5.825   5.706 -0.7072 -1.1053 -4.1558
10278SOL    HW231734   0.563   5.680   5.763  0.1793  0.6230  1.5993
10279SOL     OW31735   0.216   5.278   2.855  0.3066  0.0517  0.4560
10279SOL    HW131736   0.314   5.270   2.871  0.3224  0.5072  0.5917
10279SOL    HW231737   0.168   5.202   2.899  0.6086 -0.2364  0.2864
10280SOL     OW31738   1.451   6.542   0.549  0.1121  0.5086 -0.3789
10280SOL    HW131739   1.543   6.556   0.512  0.0351  1.2507 -0.3131
10280SOL    HW231740   1.448   6.572   0.644  0.4541 -1.9078  0.4593
10281SOL     OW31741   6.114   2.163   4.620  0.2233  0.1560 -0.5015
10281SOL    HW131742   6.048   2.090   4.606  1.8492 -1.2468 -1.2975
10281SOL    HW231743   6.088   2.218   4.699 -1.5439 -0.7062 -0.4566
10282SOL     OW31744   4.489   1.589   2.700 -0.1784 -0.4690 -0.1447
10282SOL    HW131745   4.529   1.639   2.777  0.3092  0.1336 -0.7679
10282SOL    HW231746   4.389   1.597   2.703 -0.1515 -0.2932  0.3188
10283SOL     OW31747   0.772   4.047   2.097  0.2025  0.0285 -0.1967
10283SOL    HW131748   0.805   3.971   2.153 -0.3472  1.3002  1.9580
10283SOL    HW231749   0.783   4.133   2.147 -0.7366  1.1863 -1.8776
10284SOL     OW31750   0.487   6.107   3.974  0.2895  0.0385  0.0487
10284SOL    HW131751   0.552   6.144   4.040  0.1692 -1.6145  1.1487
10284SOL    HW231752   0.532   6.038   3.917 -0.4625 -1.1433  0.8385
10285SOL     OW31753   0.949   6.460   0.224  0.2867 -0.5891  0.4198
10285SOL    HW131754   1.016   6.447   0.297  0.2740 -1.0636  0.3498
10285SOL    HW231755   0.980   6.415   0.141 -0.0363 -0.6584  0.3356
10286SOL     OW31756   3.296   6.126   0.099  0.0345  0.5559  0.4790
10286SOL    HW131757   3.242   6.202   0.065  1.3523  0.9994 -0.7323
10286SOL    HW231758   3.288   6.048   0.037  2.2188  1.2677 -0.8049
10287SOL     OW31759   6.295   6.886   3.633 -0.7518  0.2672  0.2381
10287SOL    HW131760   6.253   6.884   3.542  0.5305 -0.9408 -0.3678
10287SOL    HW231761   6.341   6.974   3.645 -0.4425  0.2214 -0.5227
10288SOL     OW31762   3.198   5.690   5.345  0.2942 -0.3405 -0.4180
10288SOL    HW131763   3.124   5.733   5.397 -0.6435 -0.9696 -1.2000
10288SOL    HW231764   3.168   5.601   5.311  0.6293  0.3209 -2.5788
10289SOL     OW31765   3.907   5.167   6.356  0.1076 -0.5939 -0.3909
10289SOL    HW131766   3.987   5.198   6.407 -0.1227 -0.4272 -0.1306
10289SOL    HW231767   3.933   5.091   6.297  0.1206 -1.5540  0.8246
10290SOL     OW31768   4.120   3.921   1.716 -0.7188 -0.2775  0.6716
10290SOL    HW131769   4.175   4.004   1.713  0.8072 -1.2684 -1.0723
10290SOL    HW231770   4.025   3.944   1.738  0.1442  1.5998  2.8511
10291SOL     OW31771   4.881   0.858   2.379 -0.0888 -0.1943 -0.2424
10291SOL    HW131772   4.962   0.909   2.350 -0.2958 -1.0927 -2.5884
10291SOL    HW231773   4.901   0.811   2.465  0.5682  2.5725  1.2453
10292SOL     OW31774   6.547   6.676   6.535  0.1701  0.2212 -0.1721
10292SOL    HW131775   6.524   6.620   6.455  0.7484 -0.7697  0.3456
10292SOL    HW231776   6.646   6.680   6.546  0.0743 -1.3372  1.6404
10293SOL     OW31777   2.129   4.910   6.327  0.0746  0.0791  0.0062
10293SOL    HW131778   2.193   4.840   6.360  0.8038  0.0259 -1.4325
10293SOL    HW231779   2.042   4.868   6.304  0.2939 -0.2444 -0.2381
10294SOL     OW31780   1.862   0.737   1.800 -0.5513  0.1837 -0.1995
10294SOL    HW131781   1.832   0.714   1.893 -0.6180  0.4416 -0.1560
10294SOL    HW231782   1.916   0.662   1.763 -2.7648 -1.1330 -0.9745
10295SOL     OW31783   1.488   1.497   0.819 -0.2049 -0.0899 -0.1197
10295SOL    HW131784   1.402   1.518   0.865 -1.1111 -1.4873 -1.1223
10295SOL    HW231785   1.481   1.409   0.772  2.2343 -0.9704  0.9408
10296SOL     OW31786   0.285   2.718   5.994  0.5439 -0.8314 -0.2937
10296SOL    HW131787   0.275   2.751   6.087  0.0465 -2.1247  0.1365
10296SOL    HW231788   0.335   2.785   5.939  0.4964  0.1101  0.7958
10297SOL     OW31789   1.148   1.143   0.486  0.0038 -0.0470  0.1911
10297SOL    HW131790   1.139   1.241   0.471  0.8849  0.0242  0.0746
10297SOL    HW231791   1.076   1.095   0.437  0.8294  0.4104 -1.5291
10298SOL     OW31792   3.134   6.576   2.601  0.0114 -0.1461 -0.2946
10298SOL    HW131793   3.150   6.636   2.679  1.1543  0.5526 -1.0316
10298SOL    HW231794   3.191   6.495   2.610  1.0730  0.5041 -0.9812
10299SOL     OW31795   4.991   6.484   2.164 -0.1117  0.3115  0.3199
10299SOL    HW131796   5.040   6.434   2.092  0.5943  0.4718  0.6770
10299SOL    HW231797   5.013   6.581   2.158  1.9552  0.0443  2.2457
10300SOL     OW31798   0.184   5.019   1.243  0.2175 -0.1538 -0.5288
10300SOL    HW131799   0.146   5.092   1.186  1.4967  0.5540 -0.5064
10300SOL    HW231800   0.276   5.045   1.273 -1.1541  0.5162  3.6763
10301SOL     OW31801   4.334   0.894   0.478 -0.5228  0.5523 -0.1010
10301SOL    HW131802   4.286   0.980   0.461 -1.9326  0.0068  0.9463
10301SOL    HW231803   4.375   0.895   0.569  0.1401  0.4162 -0.3921
10302SOL     OW31804   3.331   6.711   5.585  0.2177  0.4130 -0.1269
10302SOL    HW131805   3.359   6.684   5.677  0.1014  1.5140  0.2534
10302SOL    HW231806   3.296   6.632   5.536  0.3179 -0.2012  0.7674
10303SOL     OW31807   1.739   3.458   6.969 -0.1764 -0.0647  0.0633
10303SOL    HW131808   1.737   3.422   7.063  0.6440 -0.4180 -0.0405
10303SOL    HW231809   1.769   3.386   6.907 -0.5958  0.2064 -0.4533
10304SOL     OW31810   4.898   5.425   0.688  0.1306 -0.1682  0.5103
10304SOL    HW131811   4.987   5.422   0.734  0.8463 -2.9851 -0.8033
10304SOL    HW231812   4.900   5.494   0.616  0.6281  0.9846  1.5985
10305SOL     OW31813   3.663   4.048   3.310 -0.2037  0.0533 -0.2271
10305SOL    HW131814   3.611   3.996   3.242  1.7689 -2.6025  0.1423
10305SOL    HW231815   3.630   4.025   3.402  1.0163 -1.0100 -0.0346
10306SOL     OW31816   2.908   6.006   2.333  0.4106 -0.4250 -0.0964
10306SOL    HW131817   2.875   6.005   2.427  1.4842 -0.5654  0.2962
10306SOL    HW231818   2.901   6.099   2.296 -3.5530 -0.9735 -1.2370
10307SOL     OW31819   1.968   0.256   3.756 -0.0223 -0.0128  0.5103
10307SOL    HW131820   2.022   0.204   3.690 -0.4703 -0.4497  0.4783
10307SOL    HW231821   2.000   0.237   3.849 -0.1148 -0.2627  0.4911
10308SOL     OW31822   0.930   3.844   2.212 -0.0308 -0.1860 -0.1999
10308SOL    HW131823   0.983   3.814   2.291  1.3461 -1.0378 -1.4088
10308SOL    HW231824   0.920   3.768   2.147  0.2373  0.9220 -1.5869
10309SOL     OW31825   0.149   6.980   5.536 -0.2301 -0.2807 -0.4514
10309SOL    HW131826   0.232   6.926   5.525 -1.0219 -1.6486  0.1086
10309SOL    HW231827   0.113   7.004   5.445  0.4024 -0.2441 -0.6998
10310SOL     OW31828   2.741   4.384   0.441 -0.8466 -0.3239  0.3166
10310SOL    HW131829   2.715   4.363   0.536  0.1945 -0.8713  0.5046
10310SOL    HW231830   2.779   4.301   0.399  2.5862  0.8375  0.7847
10311SOL     OW31831   6.611   3.694   6.756 -0.2407  0.2000  0.0877
10311SOL    HW131832   6.529   3.662   6.707  0.6245 -2.4979  0.2322
10311SOL    HW231833   6.592   3.698   6.854 -0.9736  2.3597 -0.0852
10312SOL     OW31834   3.525   6.432   3.186 -0.5221  0.3109  0.3055
10312SOL    HW131835   3.503   6.344   3.228  2.3692  0.4849  2.5310
10312SOL    HW231836   3.601   6.420   3.121  1.0187  1.2722  1.8280
10313SOL     OW31837   3.784   6.077   2.376  0.5744 -0.5920 -0.2093
10313SOL    HW131838   3.790   5.977   2.375 -0.1034 -0.6345 -0.7217
10313SOL    HW231839   3.790   6.110   2.470 -0.4570 -1.2060  0.0905
10314SOL     OW31840   2.377   5.386   0.287  1.0482  0.4052  0.0852
10314SOL    HW131841   2.447   5.401   0.355  1.3630 -0.3162 -0.0638
10314SOL    HW231842   2.333   5.473   0.263  0.4981  0.5935  1.6485
10315SOL     OW31843   3.598   5.545   2.375  0.0387  0.1970 -0.6178
10315SOL    HW131844   3.535   5.618   2.401 -0.5320 -0.5257  0.0764
10315SOL    HW231845   3.546   5.462   2.357  0.7817 -0.3773 -0.1525
10316SOL     OW31846   3.096   0.713   6.739  0.6289 -0.4496 -0.3966
10316SOL    HW131847   3.063   0.706   6.645 -2.0507 -2.4994  0.5782
10316SOL    HW231848   3.116   0.809   6.761  0.4853  0.1607 -2.7557
10317SOL     OW31849   3.653   5.458   4.368  0.3522 -0.0871 -0.6332
10317SOL    HW131850   3.711   5.520   4.421  1.6362 -0.4013 -1.6326
10317SOL    HW231851   3.557   5.474   4.392  0.8176  0.5473  0.9432
10318SOL     OW31852   0.627   0.002   0.512 -0.1126  0.6538 -0.2837
10318SOL    HW131853   0.561  -0.043   0.453 -0.3286  1.9510 -1.0753
10318SOL    HW231854   0.618   0.102   0.502  1.1387  0.8681  0.5039
10319SOL     OW31855   0.151   3.132   4.352 -0.1991  0.0011 -0.7480
10319SOL    HW131856   0.238   3.101   4.313  0.9083  3.2439 -1.2103
10319SOL    HW231857   0.109   3.198   4.290 -0.1977  2.6073  1.7861
10320SOL     OW31858   5.527   6.489   2.511  0.2866  0.6619 -0.6283
10320SOL    HW131859   5.557   6.431   2.435 -1.2422 -1.2119  0.1330
10320SOL    HW231860   5.480   6.569   2.474 -1.9973 -1.0752 -1.7285
10321SOL     OW31861   5.270   2.175   2.828 -0.1483 -0.3931  0.1301
10321SOL    HW131862   5.254   2.076   2.832  2.9391 -1.0036  0.3169
10321SOL    HW231863   5.269   2.205   2.733  0.1798 -0.8852 -0.0364
10322SOL     OW31864   5.081   5.885   3.877 -0.5313 -0.6877 -0.2800
10322SOL    HW131865   5.089   5.809   3.942 -0.5402 -1.1078 -0.7553
10322SOL    HW231866   5.165   5.891   3.823 -0.6292 -0.5177 -0.4117
10323SOL     OW31867   6.344   4.347   6.125  0.0167  0.2045 -0.3873
10323SOL    HW131868   6.383   4.439   6.116  0.1639  0.2693  0.6947
10323SOL    HW231869   6.357   4.315   6.219  0.7272 -1.2766 -0.9492
10324SOL     OW31870   2.921   3.248   2.984  0.2317  0.0802  0.3669
10324SOL    HW131871   2.854   3.202   2.927  1.0854  0.4873 -1.0103
10324SOL    HW231872   2.900   3.346   2.988  0.2907  0.0844  0.5785
10325SOL     OW31873   0.585   5.577   3.988 -0.2459 -0.5043  0.4566
10325SOL    HW131874   0.578   5.676   3.998  1.7364 -0.3147  0.3859
10325SOL    HW231875   0.681   5.551   3.977 -0.5270 -2.6239  2.2891
10326SOL     OW31876   5.793   5.098   6.329  0.0256 -0.3236  0.1588
10326SOL    HW131877   5.856   5.076   6.255 -2.3226 -3.1627 -1.1703
10326SOL    HW231878   5.795   5.026   6.398 -0.0424  0.7938  1.3839
10327SOL     OW31879   0.853   3.522   7.005  0.5105  0.3032  0.1753
10327SOL    HW131880   0.883   3.614   6.980  0.4282  0.0773 -0.7822
10327SOL    HW231881   0.925   3.478   7.058  1.0416  0.5056 -0.3618
10328SOL     OW31882   6.249   1.728   6.136  0.2659  0.1736  0.0274
10328SOL    HW131883   6.295   1.745   6.049 -1.1934  1.9064 -0.4720
10328SOL    HW231884   6.294   1.779   6.209 -0.9914  2.1971 -0.5315
10329SOL     OW31885   2.103   2.321   1.510  1.1266  0.2041  0.3726
10329SOL    HW131886   2.104   2.267   1.426  1.7302  1.8354 -0.7199
10329SOL    HW231887   2.009   2.350   1.529  1.1926  1.1891 -0.6871
10330SOL     OW31888   0.082   0.166   0.903  0.2547 -0.4422 -0.0370
10330SOL    HW131889   0.153   0.096   0.901  1.2170  0.5130 -0.3200
10330SOL    HW231890   0.041   0.169   0.994  1.0260 -0.5849  0.3255
10331SOL     OW31891   3.835   5.038   5.830  0.1588  0.6888 -0.1803
10331SOL    HW131892   3.905   4.986   5.781  0.7359  1.3946 -0.1270
10331SOL    HW231893   3.750   5.035   5.779  0.4411  0.4678 -0.6466
10332SOL     OW31894   3.047   0.530   5.868 -0.0601  0.2395 -0.4483
10332SOL    HW131895   3.075   0.490   5.956 -0.0287  0.1966 -0.4777
10332SOL    HW231896   2.954   0.501   5.846 -0.7036  1.5659  0.3718
10333SOL     OW31897   1.526   4.063   3.844  0.2425  0.4213 -0.0455
10333SOL    HW131898   1.497   4.067   3.939 -0.5395  0.9890 -0.2959
10333SOL    HW231899   1.529   3.968   3.813 -2.3794  0.3695 -0.2948
10334SOL     OW31900   2.125   6.551   4.132  0.0804 -0.1182  1.2068
10334SOL    HW131901   2.098   6.546   4.035  0.2062  0.9356  1.1094
10334SOL    HW231902   2.103   6.641   4.168 -1.2338 -0.9208  2.5532
10335SOL     OW31903   0.546   3.862   4.720 -0.4557 -0.0805 -0.1049
10335SOL    HW131904   0.604   3.817   4.652 -0.3091 -0.8284  0.5039
10335SOL    HW231905   0.576   3.957   4.731 -0.3481 -0.0065 -0.9216
10336SOL     OW31906   5.811   0.094   3.743  0.0863 -0.2679 -0.1196
10336SOL    HW131907   5.905   0.101   3.711 -0.5104 -1.0941 -2.2633
10336SOL    HW231908   5.805   0.026   3.816  1.2082  0.1518  0.3833
10337SOL     OW31909   5.977   6.969   0.954 -0.1681 -0.1092 -0.0690
10337SOL    HW131910   5.900   6.949   0.893 -1.9581  1.3328  1.6141
10337SOL    HW231911   5.988   6.893   1.018  0.4492 -0.7266 -0.8722
10338SOL     OW31912   0.521   6.826   1.587  0.1386  0.5358  0.0878
10338SOL    HW131913   0.445   6.813   1.524 -2.2586 -0.1182  2.9099
10338SOL    HW231914   0.506   6.909   1.641  1.8372  0.7876  0.2381
10339SOL     OW31915   5.669   2.688   4.009  0.0195  0.2320  0.0442
10339SOL    HW131916   5.649   2.683   4.107  1.3390 -0.2826  0.3082
10339SOL    HW231917   5.715   2.604   3.981 -1.5897 -0.2378 -1.3380
10340SOL     OW31918   3.413   4.684   0.266  0.0838  0.6584  0.1003
10340SOL    HW131919   3.390   4.626   0.345  1.7172 -1.1895 -0.6775
10340SOL    HW231920   3.347   4.668   0.193  1.5271 -1.7952 -0.7933
10341SOL     OW31921   3.238   5.673   3.422  0.5710 -0.1848  0.0878
10341SOL    HW131922   3.308   5.651   3.355  0.9266 -0.0053  0.3959
10341SOL    HW231923   3.204   5.766   3.405  0.4434 -0.2528 -0.0298
10342SOL     OW31924   1.238   1.445   2.583  0.1665  0.8549 -0.0161
10342SOL    HW131925   1.223   1.468   2.679  0.9867  2.5650 -0.2670
10342SOL    HW231926   1.288   1.519   2.538 -0.3420  0.1593 -1.8126
10343SOL     OW31927   4.002   5.342   1.455 -0.1999 -0.3153  0.1450
10343SOL    HW131928   4.036   5.258   1.499  2.7073 -0.3730 -1.9419
10343SOL    HW231929   4.009   5.333   1.356 -2.6658  1.3571 -0.2777
10344SOL     OW31930   5.035   6.625   5.994 -0.2601 -0.0030 -0.2400
10344SOL    HW131931   5.041   6.709   5.939 -1.6870  0.1502 -0.1971
10344SOL    HW231932   5.045   6.648   6.091 -0.1841  0.0450 -0.2586
10345SOL     OW31933   6.575   3.664   4.673 -0.6878  0.3041 -0.6345
10345SOL    HW131934   6.597   3.722   4.595  1.9014 -0.3023 -0.4666
10345SOL    HW231935   6.574   3.569   4.645 -0.4192  0.1300 -0.0783
10346SOL     OW31936   0.578   4.426   0.122 -0.4241 -0.5015 -0.2017
10346SOL    HW131937   0.614   4.365   0.194 -0.0843  0.8005  0.7637
10346SOL    HW231938   0.485   4.455   0.147  0.7992  2.4107  1.3555
10347SOL     OW31939   5.548   1.527   4.383  0.2336 -0.4239  0.1771
10347SOL    HW131940   5.562   1.513   4.481  0.4394 -0.3916  0.1525
10347SOL    HW231941   5.495   1.611   4.368 -0.6230 -0.9255  0.3058
10348SOL     OW31942   0.821   5.283   2.041 -0.0774  0.1573 -0.5401
10348SOL    HW131943   0.813   5.379   2.015 -1.7917 -0.1268 -1.1727
10348SOL    HW231944   0.862   5.231   1.966  0.5837  0.3419 -0.3090
10349SOL     OW31945   0.484   0.781   5.974  0.5609 -0.4062 -0.1455
10349SOL    HW131946   0.460   0.837   6.054 -0.0670  0.4224 -0.8886
10349SOL    HW231947   0.450   0.688   5.987  0.1249 -0.1804  0.3949
10350SOL     OW31948   4.232   0.659   4.927 -0.2390 -0.6223 -0.0516
10350SOL    HW131949   4.165   0.706   4.869  1.4316  0.7570 -0.9558
10350SOL    HW231950   4.300   0.613   4.869 -0.1535 -1.6638  0.8377
10351SOL     OW31951   4.592   3.930   6.320  0.4989  0.2061  0.0868
10351SOL    HW131952   4.688   3.904   6.319  0.7343  1.0647 -0.7036
10351SOL    HW231953   4.537   3.851   6.349  1.3213 -0.6932 -0.7147
10352SOL     OW31954   5.450   4.937   4.989  0.2389  0.5665 -0.1612
10352SOL    HW131955   5.455   4.941   5.089 -0.0963  0.3874 -0.1377
10352SOL    HW231956   5.451   5.030   4.952 -2.6989  0.8209  0.1601
10353SOL     OW31957   0.814   4.241   0.055  0.2600 -0.0333  0.1709
10353SOL    HW131958   0.909   4.247   0.084 -0.0502  0.9481  1.0548
10353SOL    HW231959   0.755   4.236   0.136 -0.4193 -1.2159 -0.3719
10354SOL     OW31960   4.968   0.561   2.048 -0.0606 -0.6478 -0.2140
10354SOL    HW131961   4.900   0.628   2.077  1.6684  1.8007 -1.5563
10354SOL    HW231962   4.950   0.534   1.953  1.7573  1.3589 -1.1877
10355SOL     OW31963   0.478   6.009   2.817 -0.4847  0.4673  0.6237
10355SOL    HW131964   0.551   5.999   2.885  0.2153 -0.8201 -0.2668
10355SOL    HW231965   0.450   6.105   2.812  0.4901  0.8274  1.6500
10356SOL     OW31966   1.529   1.472   4.322  0.5895 -0.1552  0.6777
10356SOL    HW131967   1.553   1.403   4.391  1.6439 -1.2964 -0.7665
10356SOL    HW231968   1.602   1.539   4.314  1.1161 -0.8255 -0.2847
10357SOL     OW31969   2.730   4.024   5.255 -0.1770 -0.0671 -0.6121
10357SOL    HW131970   2.638   4.031   5.217 -0.6497 -0.4329  0.4450
10357SOL    HW231971   2.755   3.928   5.268 -1.1765  0.0031  2.6369
10358SOL     OW31972   1.023   1.409   2.823  0.1081 -0.3760  0.4921
10358SOL    HW131973   1.047   1.320   2.862  0.4537 -0.1181  0.8811
10358SOL    HW231974   1.048   1.481   2.887  0.6272  0.0547 -0.1800
10359SOL     OW31975   1.797   0.514   5.685  0.3578 -0.1129 -0.3404
10359SOL    HW131976   1.813   0.586   5.618 -1.4191  0.0764 -0.6079
10359SOL    HW231977   1.704   0.520   5.719 -0.1984 -2.8476 -1.0923
10360SOL     OW31978   0.468   5.082   3.067  0.4117 -0.5566  0.0451
10360SOL    HW131979   0.414   5.047   3.143 -2.6661 -1.2667 -2.2822
10360SOL    HW231980   0.459   5.181   3.063 -1.5277 -0.7243 -0.7823
10361SOL     OW31981   2.458   5.472   5.570  0.1048 -0.9520 -0.5720
10361SOL    HW131982   2.414   5.425   5.493  0.3722 -0.1739 -1.2177
10361SOL    HW231983   2.496   5.405   5.633  0.0849 -1.6126 -1.2503
10362SOL     OW31984   1.900   3.786   0.102 -0.4061 -0.2050  0.3428
10362SOL    HW131985   1.838   3.744   0.036 -0.7047 -0.4270  0.7603
10362SOL    HW231986   1.857   3.868   0.140  1.0817  1.9708 -2.2190
10363SOL     OW31987   6.093   0.089   4.814  0.2816 -0.5586  0.3872
10363SOL    HW131988   6.160   0.067   4.744 -1.0291  0.4489 -1.2748
10363SOL    HW231989   6.050   0.005   4.847  0.9381 -1.0555 -0.0072
10364SOL     OW31990   1.501   3.928   0.434 -0.8118  0.3011 -0.1426
10364SOL    HW131991   1.509   3.881   0.346 -0.2386 -0.5160  0.3302
10364SOL    HW231992   1.530   3.866   0.507 -1.0051  1.0700  0.5960
10365SOL     OW31993   6.297   3.570   6.354 -0.3084  0.2451  0.6485
10365SOL    HW131994   6.248   3.527   6.278  1.8797 -0.0544 -0.6798
10365SOL    HW231995   6.232   3.622   6.410 -1.9793  0.6872 -1.5412
10366SOL     OW31996   3.796   0.831   3.511 -0.3294 -0.2074  0.4320
10366SOL    HW131997   3.730   0.888   3.462 -0.6552  0.3747  1.5018
10366SOL    HW231998   3.817   0.749   3.457  0.1145  0.8821 -1.1280
10367SOL     OW31999   6.791   2.717   2.805 -0.3193  0.1620  0.1134
10367SOL    HW132000   6.836   2.759   2.726 -0.3939  1.0295  0.5224
10367SOL    HW232001   6.728   2.782   2.846  0.6141  0.1778  1.6197
10368SOL     OW32002   1.718   6.711   2.059 -0.0623  0.2369  0.2438
10368SOL    HW132003   1.802   6.670   2.024  1.2317  0.2984  2.9808
10368SOL    HW232004   1.663   6.746   1.983  1.8982 -0.6714 -1.7023
10369SOL     OW32005   5.084   1.789   3.307  0.0614  0.0558  0.4792
10369SOL    HW132006   5.018   1.800   3.232 -0.2013  3.2237  1.0456
10369SOL    HW232007   5.142   1.870   3.312  0.9845 -0.6837  2.8535
10370SOL     OW32008   2.938   5.361   5.965  0.5868 -0.2812 -0.2147
10370SOL    HW132009   2.975   5.338   5.874 -0.3973  1.7944 -1.1891
10370SOL    HW232010   2.935   5.278   6.021 -0.9440 -2.1517 -2.8508
10371SOL     OW32011   3.488   7.003   1.042 -0.8053 -0.3772  0.1124
10371SOL    HW132012   3.454   7.073   1.104  2.7574  0.9747  0.8053
10371SOL    HW232013   3.531   6.929   1.095  2.8396  1.0895 -0.4859
10372SOL     OW32014   0.255   0.847   5.332 -0.5279  0.5545  0.1692
10372SOL    HW132015   0.291   0.871   5.422 -1.3350  0.2777  0.5730
10372SOL    HW232016   0.215   0.928   5.289 -1.3140  0.4105  0.6181
10373SOL     OW32017   1.470   5.433   4.708  0.4171 -0.1731  0.5071
10373SOL    HW132018   1.538   5.474   4.647  1.3994  0.0404  1.6929
10373SOL    HW232019   1.408   5.376   4.656  1.0655  0.2143 -0.7207
10374SOL     OW32020   3.721   1.346   2.348 -0.2099 -0.9663 -0.6898
10374SOL    HW132021   3.662   1.273   2.381  0.1473 -0.9921 -0.0932
10374SOL    HW232022   3.799   1.357   2.410 -0.3251 -0.0037 -0.6931
10375SOL     OW32023   0.664   2.421   0.902  0.5338  0.6764  0.0038
10375SOL    HW132024   0.698   2.333   0.869 -1.0418  0.3651 -0.9409
10375SOL    HW232025   0.719   2.495   0.863 -0.4967  0.2514 -2.4556
10376SOL     OW32026   6.036   6.710   4.175  0.6848  0.1308 -0.4703
10376SOL    HW132027   6.067   6.779   4.240  1.4480 -1.7333  1.2463
10376SOL    HW232028   5.937   6.700   4.181  0.7314  0.0913  0.3204
10377SOL     OW32029   5.591   1.155   2.313 -0.3753 -0.2199  0.3353
10377SOL    HW132030   5.623   1.103   2.393  0.9155  0.1486  0.0778
10377SOL    HW232031   5.635   1.244   2.312  0.5798 -0.6835 -1.4592
10378SOL     OW32032   4.588   6.952   6.627 -0.1255  0.0124  0.7211
10378SOL    HW132033   4.511   6.962   6.689  0.2711  2.5217  0.9201
10378SOL    HW232034   4.605   6.855   6.609 -1.8394 -0.6671  2.4862
10379SOL     OW32035   5.176   6.530   5.752  0.9715 -0.3343  0.3373
10379SOL    HW132036   5.150   6.626   5.745  0.7624 -0.2846  1.5580
10379SOL    HW232037   5.275   6.521   5.740  1.1930  0.2204  1.5972
10380SOL     OW32038   3.562   6.483   2.830 -0.0402  0.0925  0.7561
10380SOL    HW132039   3.494   6.432   2.777  0.5074  0.1188  0.0176
10380SOL    HW232040   3.590   6.565   2.778  0.9086 -0.1749  0.8325
10381SOL     OW32041   3.413   5.104   6.897 -0.1535  0.4262 -0.4089
10381SOL    HW132042   3.399   5.169   6.971 -0.7887 -1.2377  0.9945
10381SOL    HW232043   3.340   5.035   6.898 -1.4638  1.5293 -3.9545
10382SOL     OW32044   0.676   4.778   3.152 -0.0399  0.6626  0.1468
10382SOL    HW132045   0.630   4.750   3.068  0.3058  1.0280 -0.1714
10382SOL    HW232046   0.746   4.710   3.176  0.2139  0.8193 -0.1487
10383SOL     OW32047   2.957   3.175   0.239  0.5009 -0.3377  0.2247
10383SOL    HW132048   3.053   3.160   0.216  0.6768 -0.2122  0.8668
10383SOL    HW232049   2.943   3.160   0.337 -0.4052 -1.7093 -0.0872
10384SOL     OW32050   3.549   1.084   0.590 -0.1810  0.0682 -0.6845
10384SOL    HW132051   3.608   1.003   0.597  0.2948  0.5291  1.1954
10384SOL    HW232052   3.592   1.151   0.530 -0.2116 -0.7539 -1.6537
10385SOL     OW32053   5.950   3.550   6.590  0.1642  0.4284  0.0220
10385SOL    HW132054   6.017   3.534   6.662  2.7554 -0.0519 -2.3227
10385SOL    HW232055   5.989   3.609   6.520 -1.2266 -1.1582 -2.2676
10386SOL     OW32056   0.136   2.154   6.016  0.8130  0.4383  0.4350
10386SOL    HW132057   0.110   2.233   6.072  0.0695  0.3059  0.2801
10386SOL    HW232058   0.147   2.074   6.075  0.9976  0.5209  0.5155
10387SOL     OW32059   1.854   5.092   2.759 -0.3657  0.7597 -0.7422
10387SOL    HW132060   1.891   5.014   2.809  1.8201  0.6749 -2.3176
10387SOL    HW232061   1.866   5.077   2.660 -0.2340  2.8868 -1.1057
10388SOL     OW32062   0.854   4.285   3.526  0.2607  0.1028  0.5413
10388SOL    HW132063   0.811   4.371   3.495 -2.3283 -1.1129  0.4292
10388SOL    HW232064   0.851   4.218   3.451  1.2943 -0.4281  0.9575
10389SOL     OW32065   0.557   6.436   1.083 -0.6875 -0.5596  0.3513
10389SOL    HW132066   0.485   6.493   1.044 -0.3084 -0.6110 -0.4545
10389SOL    HW232067   0.587   6.370   1.014 -0.4505 -1.0899  0.9561
10390SOL     OW32068   1.658   4.669   4.235  0.4420 -0.0991  0.1195
10390SOL    HW132069   1.671   4.673   4.334  0.4452 -0.2663  0.1259
10390SOL    HW232070   1.703   4.588   4.198  1.2108  0.4393 -0.1415
10391SOL     OW32071   2.779   0.438   4.975  0.0226 -0.2264 -0.0866
10391SOL    HW132072   2.786   0.537   4.965  0.9440 -0.1062  1.3954
10391SOL    HW232073   2.684   0.413   4.995 -0.2773  0.3071 -0.7976
10392SOL     OW32074   6.407   6.185   0.844 -0.5555 -0.3977 -0.4894
10392SOL    HW132075   6.484   6.238   0.810 -0.4551 -0.7203 -0.7737
10392SOL    HW232076   6.439   6.094   0.872 -0.6149 -0.1112  0.5638
10393SOL     OW32077   1.908   1.322   3.607  0.5430 -0.2154  0.0814
10393SOL    HW132078   1.928   1.360   3.516  0.2408 -1.7882 -0.6840
10393SOL    HW232079   1.817   1.351   3.635 -0.0729 -1.0680 -0.9199
10394SOL     OW32080   3.703   0.161   1.104 -0.0150 -0.0442  0.2124
10394SOL    HW132081   3.631   0.101   1.067 -0.7000  0.2882  0.9642
10394SOL    HW232082   3.661   0.232   1.159  0.8119  0.9795 -0.4345
10395SOL     OW32083   1.209   6.045   1.642 -0.4159 -0.8270  0.1233
10395SOL    HW132084   1.249   6.048   1.734 -0.9607 -0.3475  0.3514
10395SOL    HW232085   1.282   6.038   1.574 -0.0190 -1.4758  0.6022
10396SOL     OW32086   0.888   1.899   3.356 -0.0827 -0.0266  0.1537
10396SOL    HW132087   0.818   1.970   3.363  0.7824  0.7212  1.7723
10396SOL    HW232088   0.976   1.935   3.388  0.8726 -1.2055 -1.0125
10397SOL     OW32089   4.914   3.554   3.137  0.0494 -0.5173  0.5014
10397SOL    HW132090   4.916   3.579   3.040 -1.5431  0.4343  0.6723
10397SOL    HW232091   4.978   3.611   3.188  1.2438 -1.3413 -0.0235
10398SOL     OW32092   1.894   4.543   1.497  0.0568  0.3987 -0.4195
10398SOL    HW132093   1.897   4.578   1.403  0.2254  0.7110 -0.3000
10398SOL    HW232094   1.908   4.444   1.495 -1.7614  0.1206 -0.8661
10399SOL     OW32095   5.395   3.039   4.156 -0.6004  0.1765  0.3940
10399SOL    HW132096   5.482   3.063   4.113 -0.6183 -0.7255 -0.1672
10399SOL    HW232097   5.320   3.076   4.102 -0.5654  2.5803  1.8779
10400SOL     OW32098   2.413   4.761   4.185 -0.4226 -0.5754 -0.6695
10400SOL    HW132099   2.424   4.807   4.273 -1.5655  0.6502 -1.1303
10400SOL    HW232100   2.457   4.672   4.188  0.5821 -0.0586  0.7453
10401SOL     OW32101   1.918   5.876   2.818  0.2622 -0.4650  0.0299
10401SOL    HW132102   1.849   5.804   2.826 -0.0412 -0.4422 -1.8074
10401SOL    HW232103   1.917   5.933   2.900 -1.2974 -0.9806  0.4100
10402SOL     OW32104   1.878   1.023   3.707  0.0248 -0.4767  0.4452
10402SOL    HW132105   1.803   1.018   3.774 -0.6542 -1.7726 -0.3840
10402SOL    HW232106   1.918   0.933   3.694  1.0182  0.0072  0.0605
10403SOL     OW32107   4.908   0.979   3.250 -0.0382 -0.2634  0.4925
10403SOL    HW132108   4.992   1.022   3.216  0.7169 -0.1711  2.3976
10403SOL    HW232109   4.829   1.020   3.204  0.7883  1.6006  0.6420
10404SOL     OW32110   0.626   7.006   5.665  0.0635 -0.3041 -0.1056
10404SOL    HW132111   0.556   6.965   5.722 -0.6593 -2.0473 -2.1197
10404SOL    HW232112   0.592   7.093   5.628  0.5984  0.9154  2.1144
10405SOL     OW32113   3.357   6.387   6.066  0.3617 -0.4656  0.0330
10405SOL    HW132114   3.415   6.330   6.124 -0.2684 -1.4594 -0.2776
10405SOL    HW232115   3.289   6.329   6.021  0.0069  0.4784 -0.6712
10406SOL     OW32116   0.455   6.199   5.302 -0.2316  0.0276 -0.2506
10406SOL    HW132117   0.424   6.164   5.391  1.6575  0.8577  0.7984
10406SOL    HW232118   0.551   6.172   5.288 -0.3922  0.2230 -1.8898
10407SOL     OW32119   3.118   6.752   6.234 -0.4438  0.1061 -0.1136
10407SOL    HW132120   3.203   6.707   6.261 -1.6283 -1.4487  1.2208
10407SOL    HW232121   3.121   6.848   6.262  1.0402  0.2069 -0.5308
10408SOL     OW32122   1.965   6.591   1.998  0.2201 -0.1278 -0.4767
10408SOL    HW132123   1.975   6.653   1.920  1.7237 -0.0299 -0.2316
10408SOL    HW232124   2.008   6.503   1.976  0.1535 -0.2917  0.0470
10409SOL     OW32125   0.352   5.083   0.803  0.2816 -0.3721  0.0393
10409SOL    HW132126   0.259   5.080   0.840  0.4955  2.5273  1.1116
10409SOL    HW232127   0.349   5.086   0.704 -0.9401  1.2800  0.0772
10410SOL     OW32128   5.692   6.947   1.621 -0.1599  0.1098  0.1078
10410SOL    HW132129   5.660   6.933   1.527 -0.5746  0.2564  0.2281
10410SOL    HW232130   5.616   6.974   1.679  0.1949  0.5365  0.3799
10411SOL     OW32131   1.047   6.932   2.513 -0.1291 -0.1435 -0.1248
10411SOL    HW132132   0.958   6.887   2.515 -0.2943  0.1233 -1.1400
10411SOL    HW232133   1.120   6.862   2.512 -0.3681 -0.3922 -1.0289
10412SOL     OW32134   1.006   2.289   6.081 -0.0842 -0.5793  0.4246
10412SOL    HW132135   1.100   2.314   6.059 -0.7828  0.7910 -1.2106
10412SOL    HW232136   0.983   2.322   6.173  0.8558 -0.4548  0.6228
10413SOL     OW32137   0.443   6.488   4.435 -0.2898 -0.4232  0.5443
10413SOL    HW132138   0.352   6.457   4.464 -0.4028  1.6457  2.7669
10413SOL    HW232139   0.436   6.583   4.404  1.1727 -0.0102  1.4015
10414SOL     OW32140   6.484   0.145   4.908 -0.3965  0.6530 -0.1514
10414SOL    HW132141   6.469   0.057   4.953 -0.3990 -0.0230 -1.4269
10414SOL    HW232142   6.483   0.218   4.976  1.2279 -0.4744  1.1684
10415SOL     OW32143   6.714   0.028   3.226 -0.2576 -0.1623 -0.0129
10415SOL    HW132144   6.804   0.070   3.215  0.3793 -1.6843 -0.7778
10415SOL    HW232145   6.723  -0.063   3.266 -1.4709 -0.3079 -0.0171
10416SOL     OW32146   5.798   0.095   1.134  0.1124 -0.2592  0.1101
10416SOL    HW132147   5.863   0.052   1.072  0.8906 -0.9979  1.4132
10416SOL    HW232148   5.795   0.194   1.116 -1.1702 -0.6643 -2.4201
10417SOL     OW32149   4.914   3.824   3.482  0.0642  0.6056 -0.1547
10417SOL    HW132150   4.966   3.901   3.443  0.0432 -0.6606 -2.9588
10417SOL    HW232151   4.942   3.740   3.437 -1.3467 -0.7562  1.4051
10418SOL     OW32152   5.660   4.195   5.970 -0.2667 -0.2014  0.2673
10418SOL    HW132153   5.606   4.147   5.901  0.2170 -1.2539  0.6088
10418SOL    HW232154   5.657   4.293   5.951 -1.7842 -0.2750 -0.0799
10419SOL     OW32155   1.157   5.613   3.886  0.1402 -0.0727  0.1587
10419SOL    HW132156   1.227   5.677   3.918  1.3740 -1.0814 -0.4179
10419SOL    HW232157   1.195   5.556   3.814 -0.9245 -1.4547  0.6487
10420SOL     OW32158   1.248   2.391   3.143 -0.0750 -0.4476 -0.2205
10420SOL    HW132159   1.179   2.394   3.216 -1.0112  0.2473 -1.1133
10420SOL    HW232160   1.267   2.296   3.120 -1.0034 -0.6466 -0.2104
10421SOL     OW32161   0.677   3.571   4.261  0.8084  0.1327  0.3699
10421SOL    HW132162   0.759   3.588   4.205 -0.0206  1.6099 -0.4664
10421SOL    HW232163   0.651   3.656   4.307 -0.2070 -0.3419  0.6805
10422SOL     OW32164   5.695   2.641   5.556 -0.0266 -0.4061 -0.1748
10422SOL    HW132165   5.747   2.671   5.476  0.6105 -0.1618  0.3218
10422SOL    HW232166   5.633   2.567   5.530 -0.7611  0.5138 -1.1743
10423SOL     OW32167   3.276   3.173   0.430  0.0421 -0.3686 -0.6296
10423SOL    HW132168   3.213   3.107   0.472  1.2636 -0.9305  0.3750
10423SOL    HW232169   3.264   3.172   0.331 -2.5407  0.6050 -0.4007
10424SOL     OW32170   5.109   6.923   4.221 -0.5577 -0.5105  0.5095
10424SOL    HW132171   5.172   6.847   4.240  2.2952  0.5836 -3.3848
10424SOL    HW232172   5.127   6.997   4.286  1.6467 -0.5666  0.0433
10425SOL     OW32173   0.792   1.050   1.811  0.0036  0.0055  0.0379
10425SOL    HW132174   0.812   1.139   1.853 -0.8380  0.5929 -0.7384
10425SOL    HW232175   0.861   0.984   1.837 -0.1379  0.5100  1.7992
10426SOL     OW32176   6.031   2.289   4.908 -0.2081  0.1592 -0.1070
10426SOL    HW132177   5.963   2.329   4.847  0.3020  0.5159 -0.4521
10426SOL    HW232178   6.019   2.327   5.000 -0.9704 -0.3689  0.0168
10427SOL     OW32179   1.163   1.663   4.589 -0.1660  0.3877  0.6127
10427SOL    HW132180   1.221   1.743   4.604  2.9099 -1.2498 -1.3104
10427SOL    HW232181   1.214   1.581   4.613 -2.8689 -1.0994  1.6017
10428SOL     OW32182   2.985   1.490   3.711 -0.1710 -0.2605 -0.1467
10428SOL    HW132183   3.058   1.557   3.696  0.7801 -0.8542  1.4984
10428SOL    HW232184   3.027   1.399   3.724 -1.3227 -0.8846 -0.6792
10429SOL     OW32185   1.427   4.908   2.414 -0.6814  0.0142  0.5152
10429SOL    HW132186   1.503   4.858   2.455  0.9069  0.1387 -2.0873
10429SOL    HW232187   1.455   5.001   2.390 -1.1261 -0.3504 -1.7171
10430SOL     OW32188   3.729   1.912   5.320 -0.4189  0.2915 -0.4548
10430SOL    HW132189   3.762   1.824   5.352  0.3084  1.1096  1.1709
10430SOL    HW232190   3.719   1.974   5.398 -2.8996  1.0403 -1.2749
10431SOL     OW32191   5.030   0.700   3.269 -0.5691 -0.6404 -0.3115
10431SOL    HW132192   5.031   0.788   3.222 -0.0010  0.5800  1.8576
10431SOL    HW232193   5.117   0.686   3.316 -1.6221 -1.0651  1.6110
10432SOL     OW32194   1.301   1.795   2.047  0.0046  1.3046 -0.8274
10432SOL    HW132195   1.340   1.790   1.956 -0.5421 -0.3969 -0.9990
10432SOL    HW232196   1.239   1.718   2.062 -0.1371  1.6924  0.8861
10433SOL     OW32197   2.306   6.744   2.112  0.1156  0.8367 -0.5901
10433SOL    HW132198   2.287   6.676   2.041 -0.9196  1.0444 -0.5268
10433SOL    HW232199   2.279   6.707   2.201 -0.5397  1.3682 -0.5666
10434SOL     OW32200   3.040   0.878   1.535 -0.1028  0.0408 -0.2907
10434SOL    HW132201   3.112   0.821   1.495 -0.2590 -1.1139  1.0196
10434SOL    HW232202   2.951   0.832   1.524 -0.7960  1.7138 -2.4257
10435SOL     OW32203   3.421   2.513   0.637  0.0699 -0.3229 -0.1146
10435SOL    HW132204   3.357   2.511   0.714 -0.2214 -0.3039 -0.3547
10435SOL    HW232205   3.507   2.556   0.665 -0.6651  1.2964 -0.2941
10436SOL     OW32206   6.911   2.046   6.360  0.1101 -0.6569 -0.4683
10436SOL    HW132207   6.889   1.982   6.433 -0.6013 -0.1151 -0.1925
10436SOL    HW232208   6.843   2.038   6.287 -0.2687  0.1075 -0.2118
10437SOL     OW32209   6.050   0.404   4.420 -0.1748 -0.4879  0.4039
10437SOL    HW132210   6.010   0.482   4.373  0.8994 -0.7536 -1.0173
10437SOL    HW232211   5.979   0.356   4.472 -0.8913  1.2692  1.1325
10438SOL     OW32212   0.449   4.381   6.836  0.1941 -0.3721  0.2793
10438SOL    HW132213   0.492   4.400   6.924  0.2074  0.4593  0.1063
10438SOL    HW232214   0.357   4.422   6.834  1.1276  1.8645 -0.9786
10439SOL     OW32215   4.394   6.229   5.118 -0.0239 -0.8045  0.1662
10439SOL    HW132216   4.353   6.240   5.208 -0.3386  0.1186 -0.0788
10439SOL    HW232217   4.322   6.213   5.050  0.0860 -0.1476 -0.1165
10440SOL     OW32218   5.416   1.995   2.097 -0.5297  0.1044  0.3731
10440SOL    HW132219   5.471   1.913   2.106 -1.5444 -0.8439 -1.4882
10440SOL    HW232220   5.337   1.989   2.158 -1.8841 -1.4745 -1.4283
10441SOL     OW32221   0.328   0.110   5.744 -0.0777  0.2767 -0.2411
10441SOL    HW132222   0.327   0.108   5.644  0.6065  0.3579 -0.2558
10441SOL    HW232223   0.285   0.027   5.779  1.0142 -0.4770 -0.6211
10442SOL     OW32224   3.673   0.957   0.885  0.4979 -0.1902  0.1830
10442SOL    HW132225   3.610   0.984   0.958 -0.5384  1.0220 -1.1086
10442SOL    HW232226   3.757   1.012   0.893 -0.9334  2.4389 -1.4213
10443SOL     OW32227   0.597   1.657   0.149 -0.0984 -0.3107  0.5284
10443SOL    HW132228   0.574   1.581   0.089 -1.1169 -0.4177  1.0269
10443SOL    HW232229   0.689   1.643   0.187 -0.0170 -0.9566  0.1079
10444SOL     OW32230   4.676   5.636   4.260  0.1125 -0.0362  0.4970
10444SOL    HW132231   4.592   5.634   4.206 -0.0238  0.6983  0.6668
10444SOL    HW232232   4.657   5.607   4.354  0.0989 -0.0869  0.4788
10445SOL     OW32233   0.217   3.703   3.720  0.2138  0.0885 -0.4409
10445SOL    HW132234   0.154   3.753   3.662 -0.6613 -1.6785 -1.1054
10445SOL    HW232235   0.221   3.607   3.690  3.4044  0.1592 -0.5623
10446SOL     OW32236   4.159   6.022   6.124  0.0612  0.6086  0.2438
10446SOL    HW132237   4.140   5.936   6.077 -1.9301  0.4770  1.1925
10446SOL    HW232238   4.106   6.095   6.082  1.5606  1.3728 -0.4040
10447SOL     OW32239   1.850   1.868   3.037  0.2134 -0.3039 -0.2891
10447SOL    HW132240   1.927   1.932   3.045  0.3712 -0.5783  0.5135
10447SOL    HW232241   1.796   1.891   2.956 -0.3803  1.5892  0.5880
10448SOL     OW32242   1.032   4.771   3.407 -0.9634  0.2952 -0.4003
10448SOL    HW132243   1.111   4.832   3.398 -0.9218  0.2689 -0.2099
10448SOL    HW232244   1.004   4.740   3.316 -0.3374 -0.2325 -0.4232
10449SOL     OW32245   3.763   5.910   4.869 -0.8576  0.0749 -0.1848
10449SOL    HW132246   3.761   5.825   4.921  0.7647 -0.2206 -0.5568
10449SOL    HW232247   3.708   5.900   4.786 -0.1285 -0.8601 -0.5683
10450SOL     OW32248   6.372   4.467   3.400  0.5740 -0.6234 -0.4108
10450SOL    HW132249   6.393   4.443   3.495  0.7336  0.7740 -0.0645
10450SOL    HW232250   6.400   4.562   3.383 -1.2099 -0.2105 -1.2915
10451SOL     OW32251   2.428   0.820   4.560  0.0033  0.1478  0.0707
10451SOL    HW132252   2.502   0.881   4.534  0.7254 -0.7955 -0.1113
10451SOL    HW232253   2.411   0.829   4.658  0.4666  0.2453  0.1436
10452SOL     OW32254   0.274   3.445   3.592 -0.3145  0.2433 -0.5804
10452SOL    HW132255   0.315   3.479   3.507  0.3689  0.9192  0.0000
10452SOL    HW232256   0.346   3.405   3.650 -0.6556  0.4307 -0.0154
10453SOL     OW32257   2.996   5.748   3.642  0.4248  0.5060  0.0674
10453SOL    HW132258   2.930   5.745   3.568 -1.2656  2.2417  1.4018
10453SOL    HW232259   3.013   5.655   3.676 -0.5728 -0.0710 -0.9459
10454SOL     OW32260   3.855   2.097   1.372 -0.2645 -0.1683  0.0626
10454SOL    HW132261   3.808   2.148   1.299 -1.5647 -0.4085  0.7053
10454SOL    HW232262   3.940   2.145   1.395  0.6301 -0.5419 -2.1686
10455SOL     OW32263   6.796   2.717   3.580  0.1920 -0.0579 -0.0929
10455SOL    HW132264   6.860   2.707   3.656  0.6219  0.3358 -0.3958
10455SOL    HW232265   6.783   2.815   3.561 -1.2424 -0.0874  0.5854
10456SOL     OW32266   1.758   0.023   5.365  0.2891  0.0378  0.0885
10456SOL    HW132267   1.793  -0.071   5.356  0.1245  0.0636 -0.8713
10456SOL    HW232268   1.786   0.060   5.454  0.0916 -1.0268  0.6134
10457SOL     OW32269   4.372   1.684   1.931 -0.0646 -0.3773  0.4378
10457SOL    HW132270   4.288   1.662   1.981  0.3996  1.9809  2.3818
10457SOL    HW232271   4.437   1.609   1.942 -0.8875 -0.9996  1.2600
10458SOL     OW32272   1.835   4.377   0.518  0.5241  1.2239  0.1734
10458SOL    HW132273   1.788   4.411   0.437 -0.3774  1.4257  0.7668
10458SOL    HW232274   1.769   4.365   0.593  0.9894 -0.8036  0.3190
10459SOL     OW32275   4.629   5.811   2.378 -0.2352 -0.1338  0.1750
10459SOL    HW132276   4.720   5.850   2.393 -1.0242  2.1553 -0.5153
10459SOL    HW232277   4.626   5.769   2.287 -0.1591  0.8129 -0.2835
10460SOL     OW32278   6.299   1.369   0.722  0.2869 -0.0886  0.1494
10460SOL    HW132279   6.323   1.448   0.666 -0.3298  0.7756  1.0796
10460SOL    HW232280   6.270   1.294   0.662 -0.0504  0.7083 -0.7105
10461SOL     OW32281   6.406   3.053   6.323 -1.3665  0.0265  0.1033
10461SOL    HW132282   6.334   2.991   6.292 -1.1882 -0.6850  1.0651
10461SOL    HW232283   6.476   3.063   6.252  0.7215 -4.1029  1.3140
10462SOL     OW32284   3.120   2.683   1.425  0.3467  0.7219  0.3375
10462SOL    HW132285   3.195   2.654   1.484  0.2825  0.7181  0.4162
10462SOL    HW232286   3.070   2.758   1.468 -0.2822  0.0967  0.7162
10463SOL     OW32287   4.419   3.058   6.092 -0.0455 -0.2453  0.3203
10463SOL    HW132288   4.481   3.044   6.170  0.3716  0.0353  0.0390
10463SOL    HW232289   4.472   3.085   6.012 -0.3957 -1.2057 -0.2534
10464SOL     OW32290   5.885   3.837   2.856 -0.2422  1.0151 -0.4748
10464SOL    HW132291   5.792   3.807   2.834  0.7034 -1.8341 -1.0224
10464SOL    HW232292   5.915   3.905   2.789 -0.3779 -1.4348 -3.2350
10465SOL     OW32293   4.073   3.576   0.642 -0.0718 -0.4839  0.3116
10465SOL    HW132294   4.143   3.557   0.711 -0.9434 -1.2177  1.0193
10465SOL    HW232295   4.061   3.674   0.633  0.9906 -0.3456  0.2244
10466SOL     OW32296   5.084   2.510   5.248  0.0943  0.2504  0.4758
10466SOL    HW132297   5.091   2.526   5.346 -2.3304 -1.5662  1.0553
10466SOL    HW232298   5.097   2.596   5.199  1.1133  1.2507  2.3846
10467SOL     OW32299   6.400   4.730   1.372  0.1342  0.6857  0.3783
10467SOL    HW132300   6.433   4.648   1.326 -0.7429  0.8388 -0.5718
10467SOL    HW232301   6.315   4.709   1.420  0.2936  0.8687  0.7448
10468SOL     OW32302   0.298   3.027   3.595 -0.3268  0.0843  0.4257
10468SOL    HW132303   0.393   3.058   3.604  0.1856 -1.1600 -0.5098
10468SOL    HW232304   0.237   3.106   3.604  0.9994  1.8724 -3.8052
10469SOL     OW32305   1.634   2.469   4.538  0.4060 -0.1256  0.7169
10469SOL    HW132306   1.583   2.402   4.485  1.9345  0.3465 -1.4795
10469SOL    HW232307   1.599   2.561   4.519  0.0892 -0.0569  1.5958
10470SOL     OW32308   2.252   3.599   1.357  0.1406 -0.2290  0.4154
10470SOL    HW132309   2.345   3.614   1.323 -0.2835  1.0051 -0.2612
10470SOL    HW232310   2.249   3.614   1.456  0.7115 -0.5245  0.4786
10471SOL     OW32311   3.422   5.437   4.874  0.6828 -0.6331  0.3422
10471SOL    HW132312   3.519   5.443   4.852  0.5457 -0.6095 -0.2806
10471SOL    HW232313   3.369   5.481   4.801  0.2124 -0.5602  0.7270
10472SOL     OW32314   5.422   4.593   4.667 -0.4239 -0.4924  0.0871
10472SOL    HW132315   5.415   4.501   4.705 -1.1286 -0.8073 -0.7728
10472SOL    HW232316   5.341   4.613   4.611  1.2388 -0.6963 -2.5903
10473SOL     OW32317   6.093   6.683   1.864  0.1103  0.2563 -0.5324
10473SOL    HW132318   6.050   6.594   1.874 -0.3670  0.4056 -1.1674
10473SOL    HW232319   6.146   6.705   1.946 -0.6174 -0.1544  0.0545
10474SOL     OW32320   5.231   5.361   6.091 -0.4497 -0.0483 -0.1746
10474SOL    HW132321   5.260   5.310   6.011 -0.3552  0.2222 -0.3141
10474SOL    HW232322   5.147   5.411   6.071 -0.3439  0.1420 -0.1580
10475SOL     OW32323   0.801   0.022   2.133 -0.1853  0.0636 -1.2689
10475SOL    HW132324   0.706   0.053   2.125 -0.1900  0.0812 -1.1473
10475SOL    HW232325   0.803  -0.066   2.180  0.0882  1.5498  1.7388
10476SOL     OW32326   5.901   3.704   0.712 -0.6580 -0.1566  0.0285
10476SOL    HW132327   5.842   3.731   0.787 -1.4179 -0.4505 -0.4569
10476SOL    HW232328   5.854   3.717   0.625  0.0812 -0.1558 -0.3851
10477SOL     OW32329   0.302   5.827   2.773 -0.7041 -0.0357 -0.4728
10477SOL    HW132330   0.285   5.826   2.674 -1.0073 -0.4934 -0.4195
10477SOL    HW232331   0.364   5.902   2.795  2.1183 -1.8836 -1.4647
10478SOL     OW32332   4.820   2.066   6.186  0.5985 -0.3498 -0.3497
10478SOL    HW132333   4.760   2.069   6.266  0.2782  0.9208 -0.6081
10478SOL    HW232334   4.890   1.996   6.199  0.8271  0.1259  1.2466
10479SOL     OW32335   1.240   4.596   2.342  0.2818 -0.2251  0.1758
10479SOL    HW132336   1.338   4.614   2.345  0.4912  0.3947 -3.8697
10479SOL    HW232337   1.224   4.497   2.333  0.5490 -0.3031  0.5731
10480SOL     OW32338   3.820   0.798   5.486  0.0410 -0.4738 -0.0006
10480SOL    HW132339   3.733   0.814   5.441 -1.3936 -1.2325  2.3521
10480SOL    HW232340   3.864   0.717   5.446 -0.8169 -0.6849 -0.5453
10481SOL     OW32341   5.604   6.412   2.026  0.2153 -0.0394  0.4011
10481SOL    HW132342   5.507   6.392   2.015  0.3813 -1.0382  0.6556
10481SOL    HW232343   5.658   6.342   1.980  0.8271  1.2277 -0.8765
10482SOL     OW32344   4.231   5.696   4.531  0.4260  0.2435  0.4319
10482SOL    HW132345   4.329   5.701   4.548  0.5471 -1.0068  0.2055
10482SOL    HW232346   4.204   5.600   4.515 -0.3806  0.8026 -2.0750
10483SOL     OW32347   6.078   1.331   6.739 -0.1201 -0.4562  0.0956
10483SOL    HW132348   6.032   1.245   6.762 -0.7055 -0.1873 -0.0389
10483SOL    HW232349   6.137   1.317   6.659 -0.3597 -0.6901 -0.0437
10484SOL     OW32350   4.226   1.717   1.653 -0.2829  0.1980 -0.3238
10484SOL    HW132351   4.292   1.688   1.584  0.9174  0.0676  0.8375
10484SOL    HW232352   4.268   1.714   1.743 -0.9919  2.8161  0.1754
10485SOL     OW32353   5.956   3.684   6.333  0.0966  0.0953  0.3425
10485SOL    HW132354   5.994   3.726   6.251 -0.2448  0.7766  0.5296
10485SOL    HW232355   5.891   3.613   6.306  2.8980 -2.5558 -0.0380
10486SOL     OW32356   0.072   3.762   3.229  0.1525 -0.1957  0.3120
10486SOL    HW132357   0.165   3.798   3.222  0.9386 -2.0622  0.4892
10486SOL    HW232358   0.036   3.779   3.320  0.0795  1.0150  0.0783
10487SOL     OW32359   3.552   5.714   3.589 -0.3342 -0.3268 -0.2173
10487SOL    HW132360   3.520   5.637   3.534  1.7260 -1.3024 -0.1495
10487SOL    HW232361   3.527   5.700   3.684 -0.8533 -0.4043 -0.3631
10488SOL     OW32362   4.320   2.769   6.352 -0.1531  0.4989  0.8927
10488SOL    HW132363   4.302   2.825   6.433 -1.1658  1.1716  0.2238
10488SOL    HW232364   4.267   2.804   6.275 -0.9817 -1.5183  0.4964
10489SOL     OW32365   1.059   6.797   4.921 -0.5041 -0.7905 -0.5642
10489SOL    HW132366   1.013   6.868   4.976  0.8759 -0.8523  0.7560
10489SOL    HW232367   1.045   6.815   4.824 -3.6439 -1.0683 -0.2485
10490SOL     OW32368   0.687   6.134   5.584 -0.3072 -0.4584  0.1755
10490SOL    HW132369   0.709   6.172   5.494 -0.2798 -1.8015 -0.4042
10490SOL    HW232370   0.598   6.167   5.613  0.2336  1.0239  0.2696
10491SOL     OW32371   7.009   6.165   4.905 -0.0793 -0.3130  0.1522
10491SOL    HW132372   6.939   6.222   4.946 -2.8927 -1.7255 -2.2929
10491SOL    HW232373   7.028   6.196   4.812  2.7538  0.1128  0.7886
10492SOL     OW32374   5.335   3.864   6.950  0.4888 -0.3868  0.8300
10492SOL    HW132375   5.417   3.921   6.954 -0.3860  0.9218  0.5765
10492SOL    HW232376   5.362   3.767   6.947  2.0125  0.0190  0.5776
10493SOL     OW32377   3.690   2.502   6.230 -0.1183  0.3636  0.5608
10493SOL    HW132378   3.710   2.436   6.157  2.1607 -2.0572  3.1480
10493SOL    HW232379   3.755   2.577   6.226 -1.1595  1.2404 -0.9092
10494SOL     OW32380   0.434   0.500   5.894 -0.1228  0.3149  0.3924
10494SOL    HW132381   0.336   0.493   5.914 -0.3511  1.8685 -0.0301
10494SOL    HW232382   0.447   0.552   5.810  1.1060  2.3505  1.7556
10495SOL     OW32383   6.210   0.462   6.217 -0.3752 -0.3248  0.6041
10495SOL    HW132384   6.115   0.489   6.237 -0.4488 -0.7533  0.8467
10495SOL    HW232385   6.257   0.442   6.303  0.3119  1.0920  0.5815
10496SOL     OW32386   1.249   6.876   6.295 -0.5478 -0.1145 -0.2597
10496SOL    HW132387   1.170   6.819   6.273 -0.1998 -0.3996 -0.7747
10496SOL    HW232388   1.315   6.872   6.220 -0.7396  1.3578 -0.5533
10497SOL     OW32389   2.604   2.008   5.277  0.2569 -0.0924 -0.5533
10497SOL    HW132390   2.534   2.070   5.314  1.2818  1.1689 -0.6432
10497SOL    HW232391   2.561   1.944   5.214 -0.8364  0.6279 -0.5815
10498SOL     OW32392   2.190   4.606   4.241 -0.5702 -0.4648  0.4068
10498SOL    HW132393   2.134   4.610   4.158  1.0736 -3.0743 -0.9699
10498SOL    HW232394   2.266   4.671   4.233 -0.1165 -1.0736 -0.4254
10499SOL     OW32395   5.286   5.807   2.147  0.0742  0.1885  0.2711
10499SOL    HW132396   5.320   5.789   2.055  0.8625  1.4553  0.2934
10499SOL    HW232397   5.249   5.900   2.152  1.4419  0.7056  1.5952
10500SOL     OW32398   3.047   1.302   6.717  0.2558  0.3460  0.0851
10500SOL    HW132399   2.993   1.304   6.801  0.9936 -0.3158  0.5916
10500SOL    HW232400   2.987   1.313   6.638 -0.7349 -1.2336  0.5729
10501SOL     OW32401   1.201   3.757   4.338 -0.2685  1.2140  0.6381
10501SOL    HW132402   1.165   3.850   4.342  1.2173  1.7963  3.2781
10501SOL    HW232403   1.245   3.741   4.250  0.7740  3.5792  0.6793
10502SOL     OW32404   2.218   5.605   5.142 -0.1616 -0.4345  0.4509
10502SOL    HW132405   2.156   5.663   5.089  0.3903 -0.2228  0.0309
10502SOL    HW232406   2.306   5.651   5.152 -0.7212  0.2592  2.9019
10503SOL     OW32407   2.475   2.642   5.630  0.0317  0.0858 -0.0301
10503SOL    HW132408   2.492   2.566   5.694 -0.7469 -0.5444 -0.5605
10503SOL    HW232409   2.379   2.667   5.632 -0.5259 -1.4578 -2.5483
10504SOL     OW32410   1.620   2.621   6.394  0.2996  0.4938  0.6837
10504SOL    HW132411   1.529   2.600   6.430  0.1417  0.8104  0.4787
10504SOL    HW232412   1.650   2.548   6.333 -0.5717  1.1800 -0.6249
10505SOL     OW32413   0.780   4.895   1.586  0.1673  0.6570 -0.2755
10505SOL    HW132414   0.824   4.841   1.657 -0.7839 -0.9305 -0.8257
10505SOL    HW232415   0.811   4.863   1.496  0.1250  1.5231 -0.6061
10506SOL     OW32416   1.815   5.612   6.944 -0.1158 -0.2327 -0.8798
10506SOL    HW132417   1.840   5.680   6.874  1.1842 -0.6027 -0.7991
10506SOL    HW232418   1.841   5.647   7.034 -1.1528 -0.0570 -0.6360
10507SOL     OW32419   4.562   1.339   5.484  0.3347  0.0235 -0.6805
10507SOL    HW132420   4.538   1.247   5.454  1.6929 -0.1613 -1.2564
10507SOL    HW232421   4.653   1.363   5.451  1.5276  0.2233  2.4070
10508SOL     OW32422   6.194   6.946   3.383  0.0146  0.1772  0.3450
10508SOL    HW132423   6.105   6.987   3.362  0.0516  0.4669  0.7428
10508SOL    HW232424   6.267   7.007   3.352  0.0702  0.3951  0.8893
10509SOL     OW32425   3.191   0.877   5.394  0.0035  0.4632 -0.0198
10509SOL    HW132426   3.106   0.839   5.356  0.5533 -0.2230 -0.5996
10509SOL    HW232427   3.169   0.945   5.463 -1.0280 -0.5857  0.7234
10510SOL     OW32428   6.119   1.512   0.469 -0.1552 -0.0403  0.0247
10510SOL    HW132429   6.112   1.486   0.373  0.4033  0.4602 -0.1572
10510SOL    HW232430   6.215   1.520   0.495 -0.2661 -1.3859  0.9735
10511SOL     OW32431   5.351   4.190   0.592  0.3332 -0.1752  0.4569
10511SOL    HW132432   5.390   4.122   0.654  0.9592  0.3740  0.6791
10511SOL    HW232433   5.324   4.271   0.644 -1.3457 -0.6320  0.3385
10512SOL     OW32434   1.492   1.245   6.572  0.4683 -0.0035  0.0915
10512SOL    HW132435   1.463   1.218   6.664  0.4149 -0.1750  0.0245
10512SOL    HW232436   1.536   1.168   6.527 -2.6992 -1.0992 -1.3668
10513SOL     OW32437   5.917   1.779   6.956  0.4989  0.2180 -0.6995
10513SOL    HW132438   5.863   1.696   6.971  1.0186  0.0484  0.4039
10513SOL    HW232439   5.857   1.858   6.945  0.0115 -0.0834 -0.2313
10514SOL     OW32440   1.065   1.092   1.559  0.1657  0.1760 -0.1147
10514SOL    HW132441   0.966   1.091   1.575  0.3905  1.0935  1.6062
10514SOL    HW232442   1.088   1.024   1.489 -1.8124  0.8463 -1.5075
10515SOL     OW32443   0.186   5.205   6.572  0.5139  0.2640  0.4884
10515SOL    HW132444   0.117   5.182   6.503  0.5739 -0.8061  0.7599
10515SOL    HW232445   0.191   5.304   6.583 -1.2959  0.3578  0.7709
10516SOL     OW32446   4.033   6.973   5.231  0.1667  0.1067 -0.4776
10516SOL    HW132447   4.018   6.944   5.326  0.7197  0.0577 -0.4030
10516SOL    HW232448   3.964   7.041   5.206  0.3476  0.5302  0.1388
10517SOL     OW32449   1.975   1.496   0.957  0.1053 -0.2203  0.1441
10517SOL    HW132450   1.980   1.396   0.948 -2.0473 -0.2219 -2.3369
10517SOL    HW232451   1.879   1.524   0.965  0.5150  1.7077 -0.9942
10518SOL     OW32452   1.654   0.057   0.833 -0.5165  0.2994  0.2295
10518SOL    HW132453   1.724   0.069   0.763  0.2832 -1.7774  0.6169
10518SOL    HW232454   1.616   0.147   0.858  0.5819  1.2629 -1.3934
10519SOL     OW32455   2.555   3.719   6.030  0.3452 -0.7122 -0.1166
10519SOL    HW132456   2.587   3.634   6.073 -0.1202 -0.4453  0.7790
10519SOL    HW232457   2.544   3.704   5.932  1.9250 -1.1921 -0.2521
10520SOL     OW32458   3.747   6.144   0.104  0.2581 -0.2026  0.4541
10520SOL    HW132459   3.739   6.244   0.110 -0.1098 -0.2379  0.5839
10520SOL    HW232460   3.762   6.117   0.009 -0.8560 -0.1033  0.2372
10521SOL     OW32461   0.987   5.212   0.450  0.5481  0.0729 -0.5618
10521SOL    HW132462   0.907   5.270   0.435  0.1120 -0.6154 -0.9220
10521SOL    HW232463   1.043   5.209   0.368  0.2850 -0.4431 -0.7277
10522SOL     OW32464   4.808   7.005   2.995 -0.0351  0.5922 -0.2946
10522SOL    HW132465   4.803   6.996   3.094  1.0838  1.4338 -0.1382
10522SOL    HW232466   4.897   7.043   2.970 -0.8268  1.7058 -1.5203
10523SOL     OW32467   3.163   4.720   6.770  0.3230  0.5467 -0.0755
10523SOL    HW132468   3.209   4.631   6.769  2.5378  1.6115 -0.5693
10523SOL    HW232469   3.164   4.756   6.864  0.9832  0.7680 -0.1587
10524SOL     OW32470   5.245   2.986   4.404 -0.4916 -0.4980  0.2677
10524SOL    HW132471   5.299   3.026   4.330 -0.0690 -0.8948  0.3578
10524SOL    HW232472   5.159   2.950   4.367 -0.9664  0.6313  0.2079
10525SOL     OW32473   2.352   1.452   4.640 -0.3628  0.4018 -0.4019
10525SOL    HW132474   2.396   1.364   4.661 -1.6542  0.2714  2.0747
10525SOL    HW232475   2.268   1.435   4.588 -0.3754  0.2032 -0.3187
10526SOL     OW32476   6.202   4.543   1.951 -0.0264 -0.6809  0.1765
10526SOL    HW132477   6.116   4.583   1.984  0.1633  0.0722 -0.2234
10526SOL    HW232478   6.254   4.508   2.029  0.8733  1.9735  0.8859
10527SOL     OW32479   1.722   1.920   2.817  0.1071  0.7014  0.5851
10527SOL    HW132480   1.649   1.918   2.749  1.0662  0.1299 -0.4653
10527SOL    HW232481   1.805   1.959   2.777  0.1553  2.1706  2.0179
10528SOL     OW32482   6.157   3.699   0.251 -0.0010  0.3299  0.0978
10528SOL    HW132483   6.110   3.784   0.271 -0.6262 -0.1877  0.9004
10528SOL    HW232484   6.205   3.707   0.164 -1.6106  0.8670 -0.7864
10529SOL     OW32485   0.278   4.576   5.676 -0.1423 -0.1812 -0.0832
10529SOL    HW132486   0.237   4.659   5.713  0.2967 -0.3145  0.7205
10529SOL    HW232487   0.356   4.601   5.617  0.7637 -0.0436  1.1306
10530SOL     OW32488   0.275   6.982   3.161  0.0004 -0.0795  0.0047
10530SOL    HW132489   0.242   6.931   3.240  0.3469 -0.4838 -0.1077
10530SOL    HW232490   0.344   6.927   3.112 -2.4358 -1.2612 -2.4008
10531SOL     OW32491   2.951   1.454   2.616 -0.0030 -0.6915 -0.7774
10531SOL    HW132492   2.936   1.490   2.708 -0.8711 -2.9059  0.0240
10531SOL    HW232493   2.984   1.527   2.556 -2.0548  1.4835  0.5764
10532SOL     OW32494   3.594   3.279   3.282  0.1734 -0.1018  0.0139
10532SOL    HW132495   3.524   3.261   3.213  0.2281 -1.2369  0.2435
10532SOL    HW232496   3.674   3.221   3.265  0.4464  0.0788  0.6459
10533SOL     OW32497   4.364   1.647   0.553  0.0468  0.4158  0.0560
10533SOL    HW132498   4.318   1.573   0.601  1.1131 -0.6667 -0.5411
10533SOL    HW232499   4.463   1.633   0.557  0.4483  3.0452  1.9078
10534SOL     OW32500   0.506   5.436   2.631  0.7643 -0.5841  0.8344
10534SOL    HW132501   0.440   5.482   2.691 -1.4737 -1.6529 -0.6295
10534SOL    HW232502   0.471   5.437   2.537  1.6413 -3.3099  0.3924
10535SOL     OW32503   1.365   1.892   6.597 -0.0593  0.3058  0.9071
10535SOL    HW132504   1.296   1.861   6.531  0.6405 -2.0049  1.1578
10535SOL    HW232505   1.326   1.889   6.689 -0.3112  1.2709  0.8450
10536SOL     OW32506   5.828   1.034   3.168  0.2703  0.1663  0.0900
10536SOL    HW132507   5.800   1.039   3.265  1.3544  0.4339  0.4010
10536SOL    HW232508   5.895   1.105   3.150  2.1917 -1.6121 -0.1435
10537SOL     OW32509   4.613   4.803   2.048  0.1076  0.0412 -0.2358
10537SOL    HW132510   4.618   4.725   2.111 -1.7126  0.5479  0.5999
10537SOL    HW232511   4.681   4.791   1.976  0.0984 -2.1776  0.0354
10538SOL     OW32512   4.035   3.979   5.815  0.3118 -0.0482  0.0573
10538SOL    HW132513   4.101   4.021   5.753  1.6215  0.4080  1.6880
10538SOL    HW232514   3.950   4.032   5.816  0.7594  0.6818 -0.3474
10539SOL     OW32515   2.194   3.303   5.275  0.1961  0.4007  0.1666
10539SOL    HW132516   2.183   3.401   5.258 -0.6607  0.3252  0.2235
10539SOL    HW232517   2.161   3.252   5.195 -0.4459  0.1366  0.5886
10540SOL     OW32518   2.863   1.060   0.990  0.6306 -0.7417 -0.3818
10540SOL    HW132519   2.765   1.040   0.982 -0.0240  2.1792 -0.6216
10540SOL    HW232520   2.888   1.062   1.087  0.7902 -2.6373 -0.3375
10541SOL     OW32521   2.572   3.174   1.442 -0.4879 -0.0427 -0.3677
10541SOL    HW132522   2.623   3.259   1.454  0.2087 -0.6620  1.5448
10541SOL    HW232523   2.534   3.146   1.530  2.0832 -3.3885 -0.1026
10542SOL     OW32524   0.406   2.093   0.570  0.1519 -0.1153 -0.0628
10542SOL    HW132525   0.473   2.047   0.628  0.3427 -0.1165 -0.2828
10542SOL    HW232526   0.394   2.188   0.602 -1.2208 -0.6736  1.2201
10543SOL     OW32527   2.862   0.390   5.519 -0.0122 -0.5644  0.6786
10543SOL    HW132528   2.942   0.440   5.552  0.5467  0.6360 -2.2595
10543SOL    HW232529   2.818   0.440   5.445 -0.4636 -3.6069 -1.2948
10544SOL     OW32530   0.826   3.415   6.395 -0.8361  0.4833 -0.1352
10544SOL    HW132531   0.830   3.513   6.414 -1.6180  0.5578 -0.3292
10544SOL    HW232532   0.779   3.368   6.470  0.1802  0.1467  0.3116
10545SOL     OW32533   2.884   6.805   3.456  0.3663  0.1818 -0.3226
10545SOL    HW132534   2.822   6.862   3.509  1.9018  1.6785 -0.0670
10545SOL    HW232535   2.958   6.773   3.515  0.8384 -0.0633 -1.0400
10546SOL     OW32536   2.764   6.292   6.586  0.3077  0.1439 -0.4086
10546SOL    HW132537   2.675   6.337   6.582 -0.4495 -1.2409  0.0563
10546SOL    HW232538   2.778   6.239   6.503  0.7402  0.4254 -0.5158
10547SOL     OW32539   4.051   6.281   0.379 -0.2949 -0.4448  0.1246
10547SOL    HW132540   4.114   6.206   0.398 -0.3688 -0.3609  0.7276
10547SOL    HW232541   3.983   6.286   0.452 -0.8610 -0.3892 -0.3999
10548SOL     OW32542   4.736   4.203   5.125 -0.3822 -0.1753 -0.1697
10548SOL    HW132543   4.740   4.109   5.091 -0.9914  0.5081 -2.3391
10548SOL    HW232544   4.672   4.209   5.201 -0.7285 -1.4284 -0.3476
10549SOL     OW32545   7.001   1.685   2.125 -0.0440 -0.6247  0.1571
10549SOL    HW132546   7.049   1.723   2.046 -0.7842 -0.7940 -0.3878
10549SOL    HW232547   7.027   1.589   2.136  0.6908 -0.3825  0.6345
10550SOL     OW32548   4.008   6.141   3.617 -0.2733 -0.3221  0.6239
10550SOL    HW132549   4.092   6.195   3.623 -0.5035 -0.0021  0.9574
10550SOL    HW232550   3.988   6.122   3.521 -0.6590  0.9348  0.4331
10551SOL     OW32551   0.647   4.126   4.717  0.2379 -0.1251 -0.1392
10551SOL    HW132552   0.703   4.206   4.694 -0.8582  1.1033  1.2337
10551SOL    HW232553   0.599   4.143   4.803 -0.5681 -2.0080 -0.1712
10552SOL     OW32554   3.866   1.143   3.719 -0.6060  0.6773  0.2457
10552SOL    HW132555   3.775   1.103   3.718 -1.0627  1.7054 -0.3148
10552SOL    HW232556   3.862   1.236   3.755 -0.1289  1.4934 -1.6821
10553SOL     OW32557   3.988   4.514   5.553 -0.4556 -0.4993  0.5284
10553SOL    HW132558   3.900   4.561   5.552 -0.0749  0.2663  1.6299
10553SOL    HW232559   4.007   4.481   5.645 -0.2891 -2.0393 -0.0303
10554SOL     OW32560   6.097   4.698   0.135  0.1770 -0.4032  0.3596
10554SOL    HW132561   6.170   4.653   0.187  1.0684  1.0774  0.4666
10554SOL    HW232562   6.076   4.645   0.053  1.3179 -0.9079  0.3761
10555SOL     OW32563   3.230   3.209   0.171 -0.0449  0.4409 -0.0054
10555SOL    HW132564   3.252   3.129   0.114 -0.2768  0.8125 -0.6280
10555SOL    HW232565   3.192   3.281   0.113 -0.5645  0.7175  0.6756
10556SOL     OW32566   1.113   5.140   4.623  0.0911 -0.2898  0.1092
10556SOL    HW132567   1.171   5.076   4.674 -0.1298 -0.2206  0.4491
10556SOL    HW232568   1.053   5.088   4.561  1.0667 -0.3213 -0.8379
10557SOL     OW32569   6.696   2.240   2.945  0.6652  0.0592  0.0666
10557SOL    HW132570   6.698   2.150   2.901  0.1912 -0.0465  0.2500
10557SOL    HW232571   6.737   2.308   2.885  1.2944 -0.3306  0.0450
10558SOL     OW32572   6.646   5.445   0.014  0.3778  0.1033  0.3029
10558SOL    HW132573   6.717   5.381  -0.014 -0.0206  0.5398 -1.9483
10558SOL    HW232574   6.651   5.527  -0.043  0.5939  1.9463  2.8136
10559SOL     OW32575   3.774   3.148   2.253  0.7553  0.4842  0.1273
10559SOL    HW132576   3.808   3.212   2.184 -1.1008  1.6698  0.2504
10559SOL    HW232577   3.699   3.189   2.303  0.8099 -1.0828  1.5904
10560SOL     OW32578   1.905   1.680   3.444 -0.1881  0.1865 -0.4277
10560SOL    HW132579   1.955   1.619   3.382 -0.8078  0.5782 -1.3235
10560SOL    HW232580   1.909   1.773   3.410  1.3641  0.8167  1.3133
10561SOL     OW32581   2.297   4.859   5.786  0.2317 -0.0429  0.2961
10561SOL    HW132582   2.200   4.858   5.812  0.1174 -1.3287 -0.0991
10561SOL    HW232583   2.307   4.898   5.694  0.1025  0.2684  0.4168
10562SOL     OW32584   5.331   1.808   0.940 -0.4969  0.1375  0.0394
10562SOL    HW132585   5.254   1.775   0.994 -0.3559  0.1924  0.2737
10562SOL    HW232586   5.323   1.907   0.927 -1.9707 -0.2067 -2.3065
10563SOL     OW32587   1.828   3.314   1.768  0.1575  0.7525  0.1800
10563SOL    HW132588   1.801   3.234   1.822 -0.2827  0.6812 -0.1310
10563SOL    HW232589   1.866   3.284   1.681  2.5556  0.8036  1.1279
10564SOL     OW32590   6.122   1.418   1.653  0.2239 -0.1407  0.0502
10564SOL    HW132591   6.137   1.320   1.655  1.5908  0.0543 -0.0678
10564SOL    HW232592   6.172   1.459   1.577  1.4001  0.8951  1.3250
10565SOL     OW32593   5.878   2.690   6.067  0.0485  0.0340 -0.4948
10565SOL    HW132594   5.807   2.711   6.000  2.0472  1.2296 -2.3692
10565SOL    HW232595   5.839   2.694   6.159 -2.9092 -2.1106 -1.5100
10566SOL     OW32596   4.624   4.161   0.599 -0.2443  0.3172 -0.0750
10566SOL    HW132597   4.631   4.254   0.561 -1.5726  0.0181 -1.1249
10566SOL    HW232598   4.681   4.154   0.681  0.1632  1.9499 -0.1864
10567SOL     OW32599   1.124   6.070   5.151  0.2152 -0.1306 -0.1175
10567SOL    HW132600   1.039   6.048   5.104  1.2631 -1.4190 -1.4924
10567SOL    HW232601   1.117   6.162   5.190 -2.7910 -1.2097  2.2630
10568SOL     OW32602   4.067   5.932   4.057 -0.0565  0.0011  0.1608
10568SOL    HW132603   4.048   5.904   4.151 -0.9717  0.0203 -0.0081
10568SOL    HW232604   4.144   5.996   4.056 -0.6122  0.7126  1.0142
10569SOL     OW32605   1.231   1.571   2.242  0.0211  0.6252  0.0303
10569SOL    HW132606   1.153   1.628   2.265 -0.1253  1.8630 -3.0001
10569SOL    HW232607   1.209   1.475   2.258 -2.1552  0.9350 -0.7982
10570SOL     OW32608   1.330   3.130   0.544  0.2040 -0.1710  0.5725
10570SOL    HW132609   1.344   3.072   0.624 -0.6222 -0.7853  0.2873
10570SOL    HW232610   1.384   3.095   0.467 -0.3620 -0.6288  0.3758
10571SOL     OW32611   6.543   0.000   5.489  0.3568 -0.5348 -0.4386
10571SOL    HW132612   6.451  -0.034   5.508  0.2884 -0.2097 -0.1576
10571SOL    HW232613   6.583   0.034   5.574 -0.0246  1.1309 -0.8820
10572SOL     OW32614   6.658   2.981   2.854  0.3018 -0.0979  0.1612
10572SOL    HW132615   6.682   3.050   2.922 -0.2327  0.7614 -0.4956
10572SOL    HW232616   6.558   2.970   2.852  0.2811  0.1860 -0.7581
10573SOL     OW32617   6.439   3.366   6.920 -0.4827  0.1835  0.2139
10573SOL    HW132618   6.416   3.341   6.826 -0.0537 -0.3206  0.2321
10573SOL    HW232619   6.443   3.465   6.929  0.7172  0.2314 -0.6266
10574SOL     OW32620   6.866   1.655   0.923 -0.1769 -0.0115  0.2044
10574SOL    HW132621   6.957   1.698   0.924  0.6523 -1.6934 -0.3453
10574SOL    HW232622   6.812   1.694   0.848  1.6576 -1.9971 -2.3149
10575SOL     OW32623   1.055   0.994   6.368  0.0137  0.4565 -0.1961
10575SOL    HW132624   1.044   1.073   6.307 -0.2365 -0.0751 -0.8571
10575SOL    HW232625   1.056   0.910   6.313  1.0170  0.0463  0.4273
10576SOL     OW32626   0.770   5.496   2.677 -0.3945 -0.0039 -0.3011
10576SOL    HW132627   0.805   5.576   2.630  0.0808 -1.2756 -2.2163
10576SOL    HW232628   0.672   5.488   2.661 -0.1729 -0.6318 -1.4524
10577SOL     OW32629   0.337   2.452   4.105 -0.0484 -0.2958  0.0911
10577SOL    HW132630   0.357   2.402   4.189  0.2887  0.5311  0.5088
10577SOL    HW232631   0.414   2.443   4.042 -1.0183 -2.4158 -0.8922
10578SOL     OW32632   5.015   0.308   0.470 -0.0697  0.0023 -0.3833
10578SOL    HW132633   5.047   0.216   0.446 -0.8160  0.4896 -3.6308
10578SOL    HW232634   4.915   0.310   0.468 -0.0743  0.7590  0.2146
10579SOL     OW32635   4.506   5.762   1.585  0.3308  0.5326  0.4880
10579SOL    HW132636   4.427   5.787   1.640  1.2274 -1.1053  2.6621
10579SOL    HW232637   4.493   5.670   1.548  0.8867  0.5527  0.2383
10580SOL     OW32638   0.649   4.803   2.830  0.3208 -0.1781  0.7290
10580SOL    HW132639   0.563   4.827   2.874 -0.1493 -0.1923 -0.1672
10580SOL    HW232640   0.673   4.872   2.762  2.0875  0.9488  2.3746
10581SOL     OW32641   5.401   1.762   4.292 -0.4783 -0.3379  0.0092
10581SOL    HW132642   5.356   1.849   4.310  0.8304  0.5897 -1.0200
10581SOL    HW232643   5.349   1.712   4.222 -0.4210  0.3166 -0.5144
10582SOL     OW32644   4.261   3.931   0.855  0.1055  0.3776  0.0536
10582SOL    HW132645   4.248   4.030   0.865  2.0998  0.7798 -0.9216
10582SOL    HW232646   4.228   3.903   0.765  0.2022  0.2768  0.0507
10583SOL     OW32647   5.473   0.348   1.248  0.2372  0.3489  0.1221
10583SOL    HW132648   5.504   0.327   1.155  0.5717  0.2187  0.2624
10583SOL    HW232649   5.489   0.269   1.307  1.6023  1.0000  0.6816
10584SOL     OW32650   4.868   5.789   0.324 -0.5789  0.5326  0.2427
10584SOL    HW132651   4.963   5.815   0.307 -0.3519 -0.0949  0.5135
10584SOL    HW232652   4.809   5.831   0.255 -0.1040  0.8910  0.0474
10585SOL     OW32653   2.991   3.203   4.540  0.1062 -0.0629 -0.0125
10585SOL    HW132654   3.088   3.228   4.543 -0.0615  0.5915  0.0549
10585SOL    HW232655   2.964   3.165   4.629  0.3515 -0.4636 -0.1037
10586SOL     OW32656   5.242   0.665   1.705 -0.5670  0.3939  0.5449
10586SOL    HW132657   5.219   0.650   1.609  2.0226 -0.5994  0.0047
10586SOL    HW232658   5.213   0.586   1.759 -0.3306  0.1078  0.2537
10587SOL     OW32659   6.102   4.009   6.391  0.3494  0.2995  0.4785
10587SOL    HW132660   6.003   4.013   6.373  0.4638 -0.4166 -0.3835
10587SOL    HW232661   6.129   4.088   6.446 -0.2995  1.8866 -1.3776
10588SOL     OW32662   0.474   4.785   3.342 -0.4622  0.1646 -0.1495
10588SOL    HW132663   0.554   4.760   3.287  1.2003  0.6044  1.9084
10588SOL    HW232664   0.487   4.751   3.436 -0.8570  3.5345  1.2496
10589SOL     OW32665   6.171   6.391   5.771 -0.0715  0.1094 -0.0235
10589SOL    HW132666   6.177   6.292   5.781 -1.1388 -0.1134 -1.2852
10589SOL    HW232667   6.117   6.413   5.690 -0.4906  1.7304  0.6559
10590SOL     OW32668   0.095   6.773   4.581 -0.0630 -0.3104 -0.3504
10590SOL    HW132669   0.160   6.750   4.654  0.2386  2.0930  0.2277
10590SOL    HW232670   0.007   6.730   4.600  0.3861 -0.7935  0.7275
10591SOL     OW32671   1.427   4.312   0.072 -0.1757  0.1567 -0.2223
10591SOL    HW132672   1.438   4.404   0.108  0.7282 -0.1394  0.2967
10591SOL    HW232673   1.336   4.277   0.097  0.1583  0.2318  1.1780
10592SOL     OW32674   6.107   1.878   4.024 -0.0091  0.0740  0.2135
10592SOL    HW132675   6.092   1.783   3.996 -0.5107  0.3584 -0.5224
10592SOL    HW232676   6.022   1.916   4.058 -0.0342  0.5298 -0.3454
10593SOL     OW32677   2.028   5.596   4.028 -0.2071 -0.5118  0.0303
10593SOL    HW132678   1.990   5.647   3.951 -0.4476 -0.7986 -0.0448
10593SOL    HW232679   2.030   5.654   4.110 -0.8773 -0.5125  0.0536
10594SOL     OW32680   3.246   1.004   5.063 -0.1953 -0.2406 -0.2657
10594SOL    HW132681   3.276   1.058   5.141 -1.1250 -0.0715 -0.0098
10594SOL    HW232682   3.252   1.059   4.979  1.2000 -0.5591 -0.3877
10595SOL     OW32683   6.861   0.317   4.092  0.2331 -0.7393 -0.0580
10595SOL    HW132684   6.953   0.352   4.110  0.2207 -0.2172 -0.9694
10595SOL    HW232685   6.813   0.380   4.032 -0.6859 -1.0761  0.3140
10596SOL     OW32686   2.650   1.537   6.606  0.2668 -0.3431 -0.0238
10596SOL    HW132687   2.649   1.535   6.706  0.2570  2.1223  0.0748
10596SOL    HW232688   2.743   1.553   6.574 -0.2224  2.5410 -0.2146
10597SOL     OW32689   1.229   0.377   3.536 -0.4141 -0.3192 -0.3784
10597SOL    HW132690   1.188   0.329   3.459  1.1690  1.2629 -2.3400
10597SOL    HW232691   1.266   0.465   3.504 -0.2649  0.7026  2.3494
10598SOL     OW32692   2.713   1.526   1.573  0.4402  0.3893 -0.6702
10598SOL    HW132693   2.742   1.466   1.648  1.6108 -0.5621 -1.8256
10598SOL    HW232694   2.636   1.485   1.525 -1.0025  1.5054  0.6080
10599SOL     OW32695   0.762   0.688   6.939  0.5225 -0.5388 -0.3167
10599SOL    HW132696   0.753   0.788   6.937  0.5050 -0.5498 -0.9679
10599SOL    HW232697   0.685   0.647   6.891  0.1276 -0.9009  0.5951
10600SOL     OW32698   0.493   2.563   6.113  0.2115  0.6065  0.1250
10600SOL    HW132699   0.531   2.488   6.059  1.8278  1.2294  0.3402
10600SOL    HW232700   0.419   2.606   6.062  1.2750  0.7776 -1.3493
10601SOL     OW32701   4.148   6.537   0.345 -0.6439 -0.3086  0.1190
10601SOL    HW132702   4.109   6.445   0.350  1.3095 -1.1213  2.8993
10601SOL    HW232703   4.076   6.605   0.363 -1.6914 -1.4156  0.2235
10602SOL     OW32704   4.439   1.050   3.755 -0.2163  0.4404  0.0997
10602SOL    HW132705   4.401   0.964   3.790 -0.4786  1.1081  1.5294
10602SOL    HW232706   4.523   1.072   3.805  1.2262 -0.2089 -1.9407
10603SOL     OW32707   0.012   6.376   5.422 -0.1160 -0.1631 -0.2052
10603SOL    HW132708  -0.053   6.452   5.425 -0.6221 -0.4976 -1.7631
10603SOL    HW232709   0.066   6.376   5.506  0.2884  2.2457 -0.3877
10604SOL     OW32710   3.593   4.232   6.867  0.4852 -0.1977 -0.6922
10604SOL    HW132711   3.598   4.145   6.818  1.0323  0.1506 -1.2679
10604SOL    HW232712   3.599   4.307   6.802 -0.4466  0.2814 -0.2460
10605SOL     OW32713   3.223   3.781   6.713 -0.4093 -0.3461 -0.2242
10605SOL    HW132714   3.268   3.754   6.628 -0.2114 -0.8943  0.0506
10605SOL    HW232715   3.226   3.880   6.722  0.8092 -0.3624 -0.1939
10606SOL     OW32716   1.911   2.034   6.680 -0.5864  0.0904 -0.5145
10606SOL    HW132717   1.920   1.964   6.609  1.1378  1.0042 -1.2457
10606SOL    HW232718   1.867   2.115   6.642 -0.9732  0.0476 -0.1545
10607SOL     OW32719   6.476   3.098   0.191  0.3554  0.3775 -0.2241
10607SOL    HW132720   6.536   3.175   0.169  2.2120 -0.4731  1.5384
10607SOL    HW232721   6.492   3.024   0.127  2.0277 -0.2153  0.8032
10608SOL     OW32722   4.804   5.061   2.419  0.0837  0.2788 -0.2086
10608SOL    HW132723   4.745   5.104   2.488  0.2245  2.2303 -1.2246
10608SOL    HW232724   4.898   5.063   2.452  0.1181  0.9774 -0.3247
10609SOL     OW32725   4.149   6.347   1.787  0.2634  0.0498 -0.7139
10609SOL    HW132726   4.165   6.370   1.691 -1.7826 -0.5892 -1.2716
10609SOL    HW232727   4.051   6.352   1.806  0.2610 -2.8025  0.5314
10610SOL     OW32728   2.160   5.219   4.837 -0.1824  0.0174 -0.2489
10610SOL    HW132729   2.146   5.312   4.869 -2.1310 -0.2961 -0.0503
10610SOL    HW232730   2.230   5.218   4.766  0.8563  1.4074  0.7181
10611SOL     OW32731   5.654   0.801   5.483 -0.7162 -0.2448 -0.3219
10611SOL    HW132732   5.558   0.787   5.458 -0.9074 -0.0185  0.2647
10611SOL    HW232733   5.666   0.893   5.519 -0.3206 -0.3498 -0.1824
10612SOL     OW32734   1.383   1.407   1.884  0.7452 -0.1307 -0.2498
10612SOL    HW132735   1.323   1.330   1.906 -1.5289  1.4844 -0.4483
10612SOL    HW232736   1.406   1.457   1.968  1.6567 -0.5780 -0.2116
10613SOL     OW32737   1.356   6.377   1.138  0.0218 -0.4087  0.1439
10613SOL    HW132738   1.267   6.340   1.166  1.2465 -1.8018  2.5608
10613SOL    HW232739   1.364   6.471   1.172 -0.6671 -0.1027 -0.4944
10614SOL     OW32740   1.064   0.564   3.159  0.0362 -0.2795 -0.2831
10614SOL    HW132741   1.027   0.657   3.162  1.8234  0.4766 -0.5734
10614SOL    HW232742   1.126   0.555   3.081  0.7647 -1.3745  0.3842
10615SOL     OW32743   6.715   4.254   1.060 -0.0047 -0.3743 -0.1248
10615SOL    HW132744   6.664   4.340   1.047 -0.8677 -1.0278 -1.2086
10615SOL    HW232745   6.797   4.273   1.113  0.6977  1.4468 -1.7070
10616SOL     OW32746   4.236   5.329   3.806  0.0596  0.4874 -0.0020
10616SOL    HW132747   4.311   5.388   3.836  0.9605 -0.5438 -0.1533
10616SOL    HW232748   4.168   5.383   3.756  1.2247  1.2651 -0.7752
10617SOL     OW32749   4.295   0.979   1.052 -0.3221 -0.1586 -0.1506
10617SOL    HW132750   4.251   1.031   1.124 -2.3149 -0.6285 -0.9758
10617SOL    HW232751   4.395   0.984   1.063 -0.5610  0.1494  2.3295
10618SOL     OW32752   4.873   1.974   2.259 -0.5272  0.1130  0.9318
10618SOL    HW132753   4.836   1.924   2.181 -0.1582  1.0810  0.1288
10618SOL    HW232754   4.842   1.931   2.344  0.1290 -1.7470  0.2762
10619SOL     OW32755   6.968   2.746   4.731  0.0284 -0.2058  0.0486
10619SOL    HW132756   6.931   2.679   4.666 -1.5247 -0.9846  1.6549
10619SOL    HW232757   7.012   2.697   4.806 -0.1426  0.6107  0.6872
10620SOL     OW32758   2.385   4.986   4.055  0.0440 -0.0080 -0.0288
10620SOL    HW132759   2.286   4.999   4.053  0.2654  2.0473  0.2884
10620SOL    HW232760   2.406   4.891   4.077 -1.8384 -0.8678 -1.6839
10621SOL     OW32761   3.815   0.626   1.371  0.3106  0.1735  0.7890
10621SOL    HW132762   3.859   0.715   1.358  1.1749 -0.3518 -0.0172
10621SOL    HW232763   3.746   0.613   1.299  1.6532 -0.6658 -0.3956
10622SOL     OW32764   3.949   2.929   1.267  0.4564  0.3018 -0.2535
10622SOL    HW132765   4.015   2.894   1.334  2.5612  0.2785 -2.2085
10622SOL    HW232766   3.955   3.029   1.263 -0.3230  0.3777  0.1932
10623SOL     OW32767   0.278   1.837   5.356 -0.2139  0.4866 -0.6201
10623SOL    HW132768   0.263   1.739   5.351  0.8918  0.2916 -0.4951
10623SOL    HW232769   0.232   1.883   5.280 -1.1782 -0.0607 -0.3760
10624SOL     OW32770   5.633   2.605   3.587  0.7367  0.0304 -0.4425
10624SOL    HW132771   5.717   2.658   3.574  1.3123 -0.7417 -0.0368
10624SOL    HW232772   5.612   2.601   3.685 -0.1848  0.8159 -0.6010
10625SOL     OW32773   0.935   1.008   6.817  0.1264 -0.2321 -0.0995
10625SOL    HW132774   0.942   0.994   6.718  1.1909  1.3018 -0.2832
10625SOL    HW232775   0.839   1.013   6.843 -0.1683 -0.6147 -1.0628
10626SOL     OW32776   0.437   1.522   4.421  0.3370  0.1954 -0.0716
10626SOL    HW132777   0.342   1.527   4.389  0.6821 -1.7259 -1.5516
10626SOL    HW232778   0.454   1.598   4.484 -1.8541  1.2110 -0.5817
10627SOL     OW32779   4.957   0.526   4.690  0.2427  0.8908  0.0329
10627SOL    HW132780   4.858   0.529   4.674  0.3374  2.1909 -0.4388
10627SOL    HW232781   4.975   0.509   4.787 -0.4109 -0.4808 -0.0586
10628SOL     OW32782   0.212   6.080   4.042  0.3809  0.0395  0.6139
10628SOL    HW132783   0.196   5.982   4.031  2.0369 -0.4633  2.1844
10628SOL    HW232784   0.308   6.100   4.026  0.3807  1.1474  1.8541
10629SOL     OW32785   3.499   2.988   0.668  0.4771 -0.4116  0.4131
10629SOL    HW132786   3.528   2.933   0.589  2.2793  0.2350  0.5749
10629SOL    HW232787   3.505   3.085   0.646  0.1625 -0.2347  1.0696
10630SOL     OW32788   4.680   2.715   1.363  0.3000  0.1860 -0.2252
10630SOL    HW132789   4.635   2.652   1.426  0.2208  1.0666  0.6147
10630SOL    HW232790   4.741   2.775   1.414  3.2802 -1.5898 -1.3894
10631SOL     OW32791   6.941   5.398   3.883 -0.2225 -0.8322 -0.0024
10631SOL    HW132792   7.029   5.366   3.919  0.3377 -0.4030 -0.9614
10631SOL    HW232793   6.941   5.497   3.880 -0.8154 -0.8261  0.1610
10632SOL     OW32794   0.221   2.314   5.795  0.4089 -1.3501 -0.6794
10632SOL    HW132795   0.162   2.270   5.863  0.2058  1.0538  0.8087
10632SOL    HW232796   0.167   2.336   5.713 -0.7550  0.4504  0.5067
10633SOL     OW32797   2.281   4.726   6.439 -0.1277  0.4604  0.1764
10633SOL    HW132798   2.368   4.689   6.405 -0.9442 -0.0738 -1.4694
10633SOL    HW232799   2.228   4.653   6.482  0.9595  1.1630  2.9281
10634SOL     OW32800   2.830   4.816   2.160  0.1078 -0.1808 -0.2836
10634SOL    HW132801   2.832   4.906   2.117  1.1661 -0.2527 -0.4174
10634SOL    HW232802   2.866   4.748   2.096  1.7535 -0.2800  0.7011
10635SOL     OW32803   2.626   5.866   0.193  0.4670  0.2957 -0.1483
10635SOL    HW132804   2.704   5.912   0.234  0.3597 -0.5851  1.0953
10635SOL    HW232805   2.542   5.918   0.214  0.6445  1.0181 -1.1379
10636SOL     OW32806   4.603   1.625   5.794  1.2469  0.0988  0.4083
10636SOL    HW132807   4.667   1.548   5.802  0.3665 -0.6937 -0.0684
10636SOL    HW232808   4.551   1.634   5.878 -1.0319 -2.0014 -0.6647
10637SOL     OW32809   4.524   3.053   0.504  0.2622 -0.7081 -0.3128
10637SOL    HW132810   4.601   2.990   0.500  0.7705 -0.2124  1.0970
10637SOL    HW232811   4.557   3.147   0.492  0.0163 -0.4242  1.0427
10638SOL     OW32812   1.125   3.050   4.490  0.0988  0.4921 -0.3419
10638SOL    HW132813   1.133   3.042   4.390  0.4979 -0.1507 -0.2688
10638SOL    HW232814   1.151   3.142   4.518  0.6220  0.4832 -0.7769
10639SOL     OW32815   3.826   1.474   3.598 -0.3200 -0.0467  0.1240
10639SOL    HW132816   3.802   1.447   3.692  1.0625 -2.8741 -0.2173
10639SOL    HW232817   3.859   1.568   3.598 -3.1491  1.1043  1.9198
10640SOL     OW32818   4.046   0.846   0.877  0.1018 -0.2632  0.1158
10640SOL    HW132819   4.038   0.847   0.777  0.2107 -0.4750  0.1052
10640SOL    HW232820   4.006   0.929   0.914 -0.3231 -0.3812 -0.0772
10641SOL     OW32821   2.786   5.894   6.971  0.4997 -0.6115 -0.1026
10641SOL    HW132822   2.781   5.855   7.063  2.4244 -0.0333  0.2922
10641SOL    HW232823   2.800   5.993   6.977 -1.6526 -0.1774 -1.0802
10642SOL     OW32824   6.899   0.088   2.859  0.2812  0.2399 -0.6969
10642SOL    HW132825   6.819   0.126   2.905  0.7228  0.4315 -0.0883
10642SOL    HW232826   6.943   0.020   2.918  0.8200  0.4505 -0.8513
10643SOL     OW32827   5.095   3.691   6.754  0.3509  0.2139 -0.0330
10643SOL    HW132828   5.047   3.702   6.841  1.3739  0.2275  0.5482
10643SOL    HW232829   5.043   3.736   6.681 -0.2419  0.6725  0.6582
10644SOL     OW32830   5.677   1.352   4.221  0.2820  0.4284 -0.4132
10644SOL    HW132831   5.627   1.405   4.289 -2.2087  1.1727 -2.6805
10644SOL    HW232832   5.671   1.255   4.244 -0.4461  0.6698  0.4513
10645SOL     OW32833   0.567   1.688   5.062  0.0504 -0.1948  1.1020
10645SOL    HW132834   0.582   1.686   5.160  2.4549  2.1068  0.9073
10645SOL    HW232835   0.652   1.712   5.016 -1.9650  3.7334 -1.1377
10646SOL     OW32836   6.741   3.295   1.761 -0.4365  0.3793 -0.5358
10646SOL    HW132837   6.668   3.234   1.792 -0.6948  0.5216 -0.8588
10646SOL    HW232838   6.762   3.276   1.665 -2.4349  2.6041 -1.5351
10647SOL     OW32839   6.130   6.706   6.967 -0.0851  0.0853  0.0487
10647SOL    HW132840   6.053   6.652   6.933  0.8658 -0.7029 -0.9611
10647SOL    HW232841   6.212   6.648   6.968  0.5126  0.9308  0.9976
10648SOL     OW32842   4.418   4.709   5.349 -0.3312  0.2841  0.1685
10648SOL    HW132843   4.445   4.709   5.253  1.5016 -1.9762  0.5812
10648SOL    HW232844   4.441   4.620   5.390  0.5990  1.7677  3.1313
10649SOL     OW32845   6.879   6.041   1.994 -0.1442 -0.0651 -0.4641
10649SOL    HW132846   6.848   6.075   2.083 -0.0487  1.1364 -0.8753
10649SOL    HW232847   6.897   5.943   2.000 -0.1150  0.0090  0.8442
10650SOL     OW32848   2.200   0.535   4.572  1.0237 -0.7979  0.1209
10650SOL    HW132849   2.248   0.448   4.569  1.0822 -0.7492 -0.4774
10650SOL    HW232850   2.224   0.589   4.492  0.3732 -0.5597  0.0811
10651SOL     OW32851   0.788   6.412   6.201  0.5804 -0.3570  0.1108
10651SOL    HW132852   0.851   6.364   6.262  1.7018 -1.0348 -1.4966
10651SOL    HW232853   0.747   6.490   6.250  1.1602 -1.0546  1.7957
10652SOL     OW32854   5.747   0.622   1.063 -0.3381 -0.8435 -0.1674
10652SOL    HW132855   5.716   0.617   1.158 -0.1026  0.8395  0.0250
10652SOL    HW232856   5.773   0.716   1.041  0.4120 -1.3626 -1.6541
10653SOL     OW32857   6.749   4.791   4.196 -0.3975 -0.0598  0.2807
10653SOL    HW132858   6.666   4.847   4.184 -0.1283  0.1982 -0.4526
10653SOL    HW232859   6.796   4.820   4.279 -0.1961  0.9090 -0.1529
10654SOL     OW32860   4.613   0.743   1.487 -0.3394  0.5549  0.0989
10654SOL    HW132861   4.654   0.695   1.410 -0.9866  2.5438 -1.5590
10654SOL    HW232862   4.539   0.688   1.525  0.7924 -1.0065  0.1711
10655SOL     OW32863   3.019   4.784   6.558 -0.3346 -0.5824 -0.0992
10655SOL    HW132864   3.070   4.849   6.501 -1.6926  0.8278  0.2140
10655SOL    HW232865   3.071   4.764   6.641 -0.4155  1.1542  0.4132
10656SOL     OW32866   5.618   2.188   0.477  0.1502 -0.2206 -0.3666
10656SOL    HW132867   5.702   2.199   0.424 -0.0955 -0.2237 -0.7633
10656SOL    HW232868   5.625   2.105   0.533  2.0402  1.7942  2.6891
10657SOL     OW32869   6.034   0.797   5.487  0.0440 -0.5170  0.3625
10657SOL    HW132870   5.990   0.716   5.524 -0.5384  0.0125  0.8370
10657SOL    HW232871   5.985   0.879   5.516  1.6903  0.1340  1.4402
10658SOL     OW32872   6.674   0.245   2.457 -0.2063  0.6273 -0.1067
10658SOL    HW132873   6.665   0.314   2.528 -0.0369  2.7958 -2.0867
10658SOL    HW232874   6.731   0.170   2.490 -1.6147  0.6355  2.6271
10659SOL     OW32875   0.661   2.496   2.002 -0.7364  0.2783  0.0954
10659SOL    HW132876   0.753   2.517   1.971 -1.5428  0.6107 -2.2491
10659SOL    HW232877   0.630   2.566   2.066  0.9798 -0.4188  1.7837
10660SOL     OW32878   3.828   5.741   4.194  0.3083  0.1345  0.1236
10660SOL    HW132879   3.736   5.756   4.229 -0.2694  0.4832 -1.4201
10660SOL    HW232880   3.895   5.756   4.267 -0.7855  1.1335  0.9692
10661SOL     OW32881   4.018   0.726   1.790  0.3323 -0.2251 -0.6294
10661SOL    HW132882   3.926   0.689   1.775 -0.3326  1.3744 -0.6692
10661SOL    HW232883   4.011   0.818   1.828  1.9457 -0.7243  0.9895
10662SOL     OW32884   1.263   1.843   6.860  0.3560 -0.7125  0.2495
10662SOL    HW132885   1.359   1.822   6.881  0.3579  0.2823  1.3629
10662SOL    HW232886   1.208   1.831   6.942  0.1384  2.1026  0.6070
10663SOL     OW32887   1.177   2.981   1.429  0.1612  0.0725 -0.6290
10663SOL    HW132888   1.238   2.912   1.390  1.1942  0.8547 -0.4379
10663SOL    HW232889   1.092   2.984   1.376  0.9996  0.1869 -2.0160
10664SOL     OW32890   1.401   3.863   6.483 -0.5793  0.3501 -0.0175
10664SOL    HW132891   1.450   3.934   6.534 -1.6020  1.2171 -0.2135
10664SOL    HW232892   1.397   3.888   6.387  0.8682 -1.0193 -0.4845
10665SOL     OW32893   4.460   1.862   6.919  0.0792  0.0359  0.1731
10665SOL    HW132894   4.554   1.840   6.944  0.2929  2.2117  1.5606
10665SOL    HW232895   4.399   1.843   6.997 -0.7860 -1.9087 -0.8990
10666SOL     OW32896   1.566   0.180   0.299 -0.9363 -0.4364  0.0489
10666SOL    HW132897   1.647   0.209   0.248 -1.1585 -1.5855 -1.0158
10666SOL    HW232898   1.569   0.081   0.312 -1.6886 -0.3621  0.8770
10667SOL     OW32899   2.699   2.302   6.241  0.3797 -0.2211  0.4038
10667SOL    HW132900   2.700   2.304   6.341  1.2096  0.0252  0.4000
10667SOL    HW232901   2.714   2.209   6.209  0.2915 -0.2696  0.5025
10668SOL     OW32902   6.962   4.861   6.445  0.7563  0.5781  0.9199
10668SOL    HW132903   6.901   4.782   6.451 -0.4114  1.3253 -0.5719
10668SOL    HW232904   7.034   4.853   6.515  0.1995 -1.3734  1.3252
10669SOL     OW32905   0.588   4.725   0.518 -0.0051 -0.3821  0.4592
10669SOL    HW132906   0.681   4.689   0.533 -0.8238 -2.6218  0.6084
10669SOL    HW232907   0.587   4.781   0.436  1.6014  0.2355  0.8113
10670SOL     OW32908   6.949   4.219   6.679  0.0404  0.5752 -0.0477
10670SOL    HW132909   6.849   4.222   6.671 -0.0309  0.0152  0.5634
10670SOL    HW232910   6.975   4.173   6.764  0.8153  1.4604  0.2219
10671SOL     OW32911   1.634   1.450   2.323 -0.2292  0.2703 -0.0781
10671SOL    HW132912   1.718   1.490   2.287 -0.2859 -0.6641 -1.3178
10671SOL    HW232913   1.645   1.351   2.333 -0.9034  0.2499  0.5391
10672SOL     OW32914   0.946   2.896   0.416  0.1863 -0.7064  0.7213
10672SOL    HW132915   0.870   2.962   0.408  0.9918  0.0341 -1.4723
10672SOL    HW232916   0.917   2.808   0.379  0.5994 -0.2001 -0.8778
10673SOL     OW32917   4.020   3.751   3.257 -0.2594  0.1190  0.0334
10673SOL    HW132918   3.987   3.837   3.218  0.3478  0.5122  0.3739
10673SOL    HW232919   4.026   3.760   3.357 -1.9113 -0.9111  0.2696
10674SOL     OW32920   4.869   1.191   2.566  0.3290  0.6468  0.3441
10674SOL    HW132921   4.849   1.174   2.469  1.1248  0.0705  0.2698
10674SOL    HW232922   4.836   1.114   2.621 -1.7638  1.7805  0.7702
10675SOL     OW32923   1.068   1.621   5.277 -0.1721  0.0063 -0.1782
10675SOL    HW132924   1.144   1.675   5.314  0.2721 -1.0578  0.4999
10675SOL    HW232925   1.065   1.532   5.322 -0.9929 -0.4906 -1.1689
10676SOL     OW32926   0.454   6.831   0.384 -0.1714  0.0132  0.1241
10676SOL    HW132927   0.499   6.806   0.298 -0.4205  0.0250 -0.0101
10676SOL    HW232928   0.467   6.757   0.450  2.9749  1.3942  1.2371
10677SOL     OW32929   5.338   0.467   6.252 -0.0594  0.0129 -0.4469
10677SOL    HW132930   5.272   0.392   6.254 -1.7962  1.4697  1.1267
10677SOL    HW232931   5.397   0.462   6.332 -0.1179  0.2800 -0.3865
10678SOL     OW32932   1.912   5.276   3.709 -0.7336 -0.7424  0.1135
10678SOL    HW132933   1.915   5.245   3.804 -1.4427 -2.9388 -0.5266
10678SOL    HW232934   1.864   5.208   3.653 -2.3207  1.5228 -1.4495
10679SOL     OW32935   6.476   4.630   5.659 -0.6094  0.5787 -0.3444
10679SOL    HW132936   6.508   4.681   5.738  1.2401 -1.1362  0.1038
10679SOL    HW232937   6.509   4.673   5.575 -0.9538  1.3413 -0.0901
10680SOL     OW32938   1.557   3.793   2.820 -0.2377  0.1394  0.1932
10680SOL    HW132939   1.516   3.734   2.750 -1.3929  0.1978  0.8034
10680SOL    HW232940   1.512   3.883   2.819 -3.6659 -1.2273  4.0300
10681SOL     OW32941   0.668   3.018   6.217  0.3829  0.1294 -0.2481
10681SOL    HW132942   0.608   3.027   6.137  0.0219  1.0672  0.1152
10681SOL    HW232943   0.763   3.026   6.189  0.4820 -2.8555 -1.0591
10682SOL     OW32944   1.007   2.593   3.261 -0.3385 -0.0573 -0.0239
10682SOL    HW132945   0.914   2.629   3.250 -0.0539  0.2482 -1.6152
10682SOL    HW232946   1.003   2.501   3.300 -1.3921 -0.6015 -1.3598
10683SOL     OW32947   2.080   0.198   3.314  0.9478 -0.0554 -0.3243
10683SOL    HW132948   2.057   0.127   3.248 -1.1083  1.8576 -1.8214
10683SOL    HW232949   1.996   0.243   3.345  2.0673  0.7850  1.6961
10684SOL     OW32950   4.169   5.418   6.598 -0.2322 -0.2130 -0.2612
10684SOL    HW132951   4.248   5.438   6.656 -1.2189  1.1145  0.6918
10684SOL    HW232952   4.199   5.405   6.504  1.2410 -0.9223  0.2763
10685SOL     OW32953   0.834   2.399   3.919 -1.2450  0.0300  0.0139
10685SOL    HW132954   0.832   2.488   3.874  1.8542 -0.0992 -0.5622
10685SOL    HW232955   0.907   2.397   3.987 -0.7283 -2.2990 -0.5298
10686SOL     OW32956   4.152   4.550   1.725  0.3466 -0.2603 -0.1407
10686SOL    HW132957   4.082   4.620   1.735  0.8236  0.4153 -1.3941
10686SOL    HW232958   4.109   4.460   1.721 -0.3198  0.0048  0.7638
10687SOL     OW32959   6.576   5.292   1.534  0.2643 -0.0982  0.0942
10687SOL    HW132960   6.657   5.330   1.579  0.8025  1.3057 -1.8867
10687SOL    HW232961   6.595   5.198   1.504  0.4878 -0.4297  1.2411
10688SOL     OW32962   2.530   5.943   2.214  0.1840  0.1268 -0.1820
10688SOL    HW132963   2.605   5.878   2.204 -0.2154 -0.2816 -0.5479
10688SOL    HW232964   2.530   5.980   2.307  0.0156 -0.8877  0.2304
10689SOL     OW32965   5.026   2.387   2.915 -0.2201  0.1131 -0.2006
10689SOL    HW132966   5.086   2.308   2.909 -0.1947  0.0951  0.2338
10689SOL    HW232967   5.052   2.455   2.846 -0.2761 -0.2789 -0.6079
10690SOL     OW32968   5.308   0.151   3.672  0.0282 -0.1356 -0.0347
10690SOL    HW132969   5.404   0.179   3.676  0.1066 -0.4715  0.6232
10690SOL    HW232970   5.293   0.073   3.733 -0.5919 -0.3113 -0.3974
10691SOL     OW32971   6.993   2.118   1.781 -0.0262  0.0524 -0.3832
10691SOL    HW132972   7.071   2.083   1.729 -0.2555 -0.6145 -0.2870
10691SOL    HW232973   7.018   2.206   1.823  0.5971 -0.0500 -0.5259
10692SOL     OW32974   5.793   6.758   4.283  0.2211 -0.1917  1.0797
10692SOL    HW132975   5.765   6.701   4.360 -0.9651  0.0045  0.8267
10692SOL    HW232976   5.743   6.729   4.201  1.3031 -0.2613  0.4250
10693SOL     OW32977   5.241   2.020   3.288 -0.0379  0.6158 -0.3489
10693SOL    HW132978   5.274   2.049   3.378 -1.3687  3.9394 -0.7980
10693SOL    HW232979   5.296   2.064   3.217 -0.4733 -0.1180 -1.1573
10694SOL     OW32980   2.102   6.112   6.746 -0.1423 -0.4554  0.0192
10694SOL    HW132981   2.049   6.054   6.809 -0.0924 -0.0392  0.4539
10694SOL    HW232982   2.196   6.078   6.741 -0.0476 -0.2744  0.4678
10695SOL     OW32983   6.913   2.949   5.067  0.0083  0.4769 -0.0853
10695SOL    HW132984   6.900   2.962   4.968 -1.2923  2.5204  0.3060
10695SOL    HW232985   6.825   2.951   5.113  0.7606  2.4424  1.4184
10696SOL     OW32986   6.614   1.256   0.312  0.0182 -0.6836  0.5117
10696SOL    HW132987   6.628   1.246   0.214  0.7446 -0.5245  0.5936
10696SOL    HW232988   6.538   1.198   0.341 -0.2581 -0.6575 -0.1598
10697SOL     OW32989   0.925   6.362   1.857  0.4610  0.1313 -0.3823
10697SOL    HW132990   0.941   6.315   1.770 -0.4522  4.0655 -2.9769
10697SOL    HW232991   0.830   6.394   1.860  0.4897  0.1690  2.0828
10698SOL     OW32992   5.633   6.635   4.086 -0.0682 -0.3828 -0.2891
10698SOL    HW132993   5.686   6.560   4.045 -1.7717 -2.3018  0.8304
10698SOL    HW232994   5.552   6.652   4.030 -0.0954  0.1037 -0.1007
10699SOL     OW32995   6.591   1.763   3.602  0.1880  0.0033 -0.1368
10699SOL    HW132996   6.689   1.742   3.597  0.0718 -0.3021 -1.7915
10699SOL    HW232997   6.579   1.862   3.614  0.7226  0.2698 -1.5919
10700SOL     OW32998   1.385   2.628   2.591  0.6842 -0.1806  0.3533
10700SOL    HW132999   1.316   2.560   2.615 -1.9591  0.6787 -3.8716
10700SOL    HW233000   1.356   2.718   2.625 -0.8675  0.3211 -2.1083
10701SOL     OW33001   1.174   6.560   1.837  0.5011  0.3109 -0.3678
10701SOL    HW133002   1.221   6.472   1.825  0.9070  0.2820  1.2141
10701SOL    HW233003   1.081   6.544   1.871 -0.5718  0.3958 -3.0010
10702SOL     OW33004   4.582   2.555   0.561  0.9243  0.3096 -0.3642
10702SOL    HW133005   4.561   2.523   0.654  1.2429 -0.2760 -0.4904
10702SOL    HW233006   4.518   2.626   0.536  1.5309  1.2967  0.7471
10703SOL     OW33007   2.904   3.352   4.341 -0.2386  0.0045 -0.3700
10703SOL    HW133008   2.981   3.353   4.276  0.2094  1.5871  0.1533
10703SOL    HW233009   2.932   3.303   4.423 -0.1452 -0.3084 -0.5831
10704SOL     OW33010   6.676   4.618   1.435  0.4827 -0.4659  0.0243
10704SOL    HW133011   6.604   4.598   1.369 -0.8168 -0.5822  1.4368
10704SOL    HW233012   6.663   4.564   1.517  1.0949  0.8718  1.0522
10705SOL     OW33013   1.619   3.376   1.056 -0.4385  0.2060 -0.1528
10705SOL    HW133014   1.628   3.410   0.962  1.2114 -0.2554 -0.1916
10705SOL    HW233015   1.651   3.282   1.060 -1.7304 -0.2153  0.6387
10706SOL     OW33016   2.259   4.758   1.043 -0.0886 -0.7569  0.2099
10706SOL    HW133017   2.340   4.806   1.077 -0.7996  1.1277 -0.5978
10706SOL    HW233018   2.244   4.783   0.947 -2.1381 -0.2943  0.5969
10707SOL     OW33019   6.122   1.357   6.322 -0.7395  0.0848  0.0508
10707SOL    HW133020   6.079   1.281   6.372  0.0055 -0.4383 -0.0809
10707SOL    HW233021   6.163   1.421   6.386 -1.1193  0.2248  0.1550
10708SOL     OW33022   6.243   2.351   0.942 -0.3118  0.9875  0.4051
10708SOL    HW133023   6.327   2.398   0.968 -0.2400  0.7788  0.5538
10708SOL    HW233024   6.255   2.306   0.854 -0.0812  0.4900  0.6857
10709SOL     OW33025   0.979   2.655   5.198  0.0581  0.0038  0.0069
10709SOL    HW133026   0.950   2.750   5.205  0.6142  0.3311 -1.7268
10709SOL    HW233027   0.906   2.601   5.157  0.9272  0.3620 -2.1148
10710SOL     OW33028   1.097   0.628   1.948  0.1298  0.7381 -0.1565
10710SOL    HW133029   1.033   0.571   1.999 -0.6863  2.5432  0.9168
10710SOL    HW233030   1.175   0.572   1.919 -1.9382 -1.5809 -1.6971
10711SOL     OW33031   0.404   3.396   5.388  0.0470 -0.4208  0.3431
10711SOL    HW133032   0.445   3.359   5.304 -1.6843  0.4768 -0.9631
10711SOL    HW233033   0.417   3.495   5.391  0.2884 -0.4754  1.2564
10712SOL     OW33034   2.305   0.954   5.027 -0.7004 -0.2792  0.3088
10712SOL    HW133035   2.302   0.898   4.944  0.5169  0.7546 -0.4762
10712SOL    HW233036   2.376   0.918   5.088 -1.0561 -0.5663  0.5596
10713SOL     OW33037   2.603   5.450   0.457 -0.0018  0.0152  0.4773
10713SOL    HW133038   2.625   5.434   0.553  1.0937  1.9604  0.6010
10713SOL    HW233039   2.662   5.392   0.400 -0.7287 -1.2237  0.9307
10714SOL     OW33040   4.992   4.869   4.922  0.0734 -0.0915  0.1742
10714SOL    HW133041   4.900   4.831   4.931 -0.3458  0.8544  0.0039
10714SOL    HW233042   5.049   4.837   4.997 -0.5380 -0.2803  0.5646
10715SOL     OW33043   5.158   6.508   1.745  0.3149  0.7778 -0.1385
10715SOL    HW133044   5.221   6.471   1.676  0.5352 -0.1390  0.5375
10715SOL    HW233045   5.192   6.595   1.778  0.7160  0.7605 -0.4968
10716SOL     OW33046   5.923   2.664   1.957 -0.1956 -0.5670  0.6394
10716SOL    HW133047   5.877   2.712   1.882  1.6410  0.7397  0.2746
10716SOL    HW233048   5.855   2.623   2.017 -1.7432 -1.7764 -1.7814
10717SOL     OW33049   6.177   5.973   0.748  0.3393  0.0484  0.2693
10717SOL    HW133050   6.197   5.971   0.846  0.6466 -1.0765  0.1979
10717SOL    HW233051   6.200   5.884   0.707 -0.5988  0.2067 -0.6591
10718SOL     OW33052   0.953   4.511   4.172 -0.0024  0.0228 -0.4413
10718SOL    HW133053   1.003   4.443   4.117  1.7224  0.9535 -0.0892
10718SOL    HW233054   0.998   4.600   4.163 -1.5498  0.8788  0.0287
10719SOL     OW33055   3.512   6.206   3.331 -0.7341 -0.4730  0.0060
10719SOL    HW133056   3.601   6.235   3.365 -0.5098 -1.7523  0.5847
10719SOL    HW233057   3.469   6.146   3.399 -2.2084  0.4226 -0.1016
10720SOL     OW33058   6.652   3.850   5.761  0.3597  0.3312  0.1003
10720SOL    HW133059   6.651   3.950   5.766 -1.1069  0.3467  0.0738
10720SOL    HW233060   6.746   3.817   5.762  0.8524  1.6765  0.8390
10721SOL     OW33061   0.057   0.029   5.256  0.4297 -0.3623 -0.3631
10721SOL    HW133062   0.108   0.002   5.174  0.3468  1.7845 -1.1674
10721SOL    HW233063   0.026   0.123   5.247 -1.5651 -0.7975  1.1877
10722SOL     OW33064   4.278   0.341   0.818 -0.1644  0.7167  0.0790
10722SOL    HW133065   4.368   0.315   0.784 -0.7243 -0.4295 -0.6025
10722SOL    HW233066   4.279   0.343   0.918  0.4962  0.2572  0.0875
10723SOL     OW33067   6.593   3.868   6.442 -0.5250 -0.1356  0.0796
10723SOL    HW133068   6.581   3.776   6.478 -0.3246 -0.5880 -1.0087
10723SOL    HW233069   6.548   3.876   6.353 -0.8622  0.9253  0.3238
10724SOL     OW33070   3.513   5.809   6.301 -0.5660  0.2850  0.1961
10724SOL    HW133071   3.449   5.822   6.377 -1.2370  0.1015 -0.3202
10724SOL    HW233072   3.602   5.784   6.336 -1.2949 -1.4953  0.8803
10725SOL     OW33073   6.643   0.497   0.373 -0.7519 -0.0103  0.0647
10725SOL    HW133074   6.671   0.488   0.278 -1.9748  0.4526 -0.3608
10725SOL    HW233075   6.612   0.591   0.390 -0.0544  0.0560  1.0683
10726SOL     OW33076   5.873   0.897   4.038 -0.1062  0.3500  0.3368
10726SOL    HW133077   5.927   0.898   3.954  0.4057 -1.3323  0.6118
10726SOL    HW233078   5.907   0.966   4.101  0.9657  0.1088  0.0312
10727SOL     OW33079   4.828   5.555   6.729 -0.0920  0.7323  0.3091
10727SOL    HW133080   4.880   5.640   6.724  0.4347  0.3953 -0.0295
10727SOL    HW233081   4.888   5.480   6.757 -0.0257  0.0402 -1.5235
10728SOL     OW33082   4.132   6.559   4.007 -0.0153 -0.2912  0.6173
10728SOL    HW133083   4.218   6.554   3.956 -1.5781 -0.1555 -2.2595
10728SOL    HW233084   4.093   6.467   4.016 -0.5623 -0.1241  0.0189
10729SOL     OW33085   6.400   4.551   5.305  0.1283  0.7043  0.2077
10729SOL    HW133086   6.430   4.636   5.349 -3.0889  1.3872  1.3805
10729SOL    HW233087   6.423   4.473   5.363  1.1453  0.9825  0.1942
10730SOL     OW33088   2.281   6.845   4.497  0.9643  0.2301 -0.7561
10730SOL    HW133089   2.281   6.849   4.597 -2.0261 -2.1544 -0.5120
10730SOL    HW233090   2.340   6.770   4.466  1.0848  0.3082 -0.7154
10731SOL     OW33091   4.927   3.827   6.582  0.5134 -0.3411 -0.6827
10731SOL    HW133092   4.942   3.926   6.589 -1.1087 -0.1295  0.5342
10731SOL    HW233093   4.895   3.804   6.490 -0.4239  0.4824 -0.5758
10732SOL     OW33094   6.897   4.431   1.991  0.1318 -0.2746 -0.6537
10732SOL    HW133095   6.974   4.480   1.952 -2.3769  2.0778 -3.1245
10732SOL    HW233096   6.856   4.371   1.922 -2.3311  1.3266 -0.7369
10733SOL     OW33097   0.957   1.727   5.970 -0.3492  0.0241  0.2541
10733SOL    HW133098   0.914   1.639   5.951 -2.7296  1.3406 -0.9325
10733SOL    HW233099   0.952   1.746   6.067 -0.2441 -0.9326  0.4610
10734SOL     OW33100   6.972   1.386   2.752  0.2171  0.1723  0.2304
10734SOL    HW133101   7.021   1.473   2.748  0.1638  0.3207  1.9040
10734SOL    HW233102   7.027   1.315   2.710  0.0731  1.0597 -1.5684
10735SOL     OW33103   6.801   6.683   0.717  0.1331  0.1495  0.2750
10735SOL    HW133104   6.829   6.696   0.812  1.4304  0.4082 -0.1245
10735SOL    HW233105   6.773   6.771   0.678 -1.6490 -0.1562  0.7669
10736SOL     OW33106   5.386   6.693   3.331  0.7605  0.1256 -0.7365
10736SOL    HW133107   5.342   6.779   3.358  2.5341  0.6768  0.5265
10736SOL    HW233108   5.481   6.693   3.360  0.4462 -2.9138  0.7108
10737SOL     OW33109   4.637   1.175   0.956  0.8491  0.1774 -0.2142
10737SOL    HW133110   4.613   1.256   1.009  1.3305  0.1912 -0.0138
10737SOL    HW233111   4.673   1.202   0.867 -1.9537  0.1360 -1.4707
10738SOL     OW33112   1.513   6.771   2.629 -0.0050  0.7214 -0.6750
10738SOL    HW133113   1.560   6.777   2.540  1.3855 -2.6264 -0.3212
10738SOL    HW233114   1.578   6.740   2.698 -1.9468 -0.5051  0.6658
10739SOL     OW33115   5.878   1.832   2.890 -0.0113 -0.0522  0.6816
10739SOL    HW133116   5.853   1.762   2.957 -1.0184 -0.1009  0.2831
10739SOL    HW233117   5.896   1.789   2.802 -0.1337  0.1338  0.5627
10740SOL     OW33118   2.895   1.833   4.618  0.3846 -0.3328 -0.4266
10740SOL    HW133119   2.938   1.778   4.690 -0.1428 -1.0537 -0.6555
10740SOL    HW233120   2.920   1.929   4.631  0.4562 -0.4786  0.6016
10741SOL     OW33121   2.133   3.910   4.295  0.4087 -0.1947  0.3838
10741SOL    HW133122   2.129   3.927   4.394 -0.1431 -0.1629  0.3583
10741SOL    HW233123   2.167   3.817   4.279 -1.7917 -1.1200  0.6917
10742SOL     OW33124   5.534   6.738   1.985  0.1034 -0.4274  0.6742
10742SOL    HW133125   5.550   6.646   2.021  0.0772 -0.2019  1.2824
10742SOL    HW233126   5.617   6.793   1.994  0.3793 -0.6391 -0.4777
10743SOL     OW33127   4.800   1.383   5.378  0.1636  0.3346 -0.0019
10743SOL    HW133128   4.838   1.475   5.369 -0.1530  0.5142  0.4433
10743SOL    HW233129   4.840   1.337   5.457  2.7429 -1.1429 -2.0095
10744SOL     OW33130   6.543   2.045   1.750 -0.1828 -0.0612 -0.0488
10744SOL    HW133131   6.572   2.136   1.721 -1.7324  0.0654 -1.3539
10744SOL    HW233132   6.443   2.040   1.751 -0.1348 -1.5191  0.7567
10745SOL     OW33133   3.755   5.243   1.574  0.5795 -0.6774 -0.1365
10745SOL    HW133134   3.772   5.147   1.550 -2.2931 -0.7029 -2.6786
10745SOL    HW233135   3.759   5.299   1.492  1.9660  1.4296  1.2698
10746SOL     OW33136   2.466   6.993   6.489 -0.5315  0.6297  0.5427
10746SOL    HW133137   2.537   6.990   6.558 -0.9591 -0.8295  0.9487
10746SOL    HW233138   2.491   6.934   6.412  0.2382  2.7104 -0.9027
10747SOL     OW33139   1.215   1.405   5.686  0.6917  0.1367  0.3166
10747SOL    HW133140   1.178   1.455   5.765 -1.0700 -1.6734  0.7190
10747SOL    HW233141   1.296   1.354   5.714  0.1945 -0.3315  0.9470
10748SOL     OW33142   5.804   5.618   0.888 -0.0769  0.0679 -0.2037
10748SOL    HW133143   5.843   5.660   0.807 -0.0070 -1.0671 -0.7729
10748SOL    HW233144   5.706   5.637   0.891 -0.0448  0.2771 -0.4528
10749SOL     OW33145   0.499   2.213   2.953 -0.4280 -0.9349 -0.0922
10749SOL    HW133146   0.454   2.256   2.875 -0.4141  0.0909  0.4479
10749SOL    HW233147   0.486   2.269   3.034  2.8163  0.0991 -0.1347
10750SOL     OW33148   3.966   2.169   3.011  0.1977 -0.1691 -0.4347
10750SOL    HW133149   3.909   2.187   2.931  0.6406  1.4011 -0.4372
10750SOL    HW233150   4.058   2.204   2.994 -0.3951  2.9284  1.7537
10751SOL     OW33151   4.506   0.168   2.661  0.2591  0.6003 -0.8099
10751SOL    HW133152   4.525   0.075   2.629  0.1476  0.0215  0.7117
10751SOL    HW233153   4.575   0.196   2.727 -0.6530  0.9257  0.0286
10752SOL     OW33154   1.710   6.507   5.649 -0.4308  0.7305 -0.2122
10752SOL    HW133155   1.806   6.513   5.676 -0.5378 -0.0806  0.4037
10752SOL    HW233156   1.665   6.436   5.703 -1.0637  0.2110 -1.3751
10753SOL     OW33157   6.110   6.699   5.343 -0.3371 -0.1662 -0.4456
10753SOL    HW133158   6.159   6.643   5.275  1.5628  2.7973 -1.7344
10753SOL    HW233159   6.041   6.753   5.297 -1.9107 -1.0988  0.7290
10754SOL     OW33160   0.286   5.417   1.299  0.1216 -0.0735 -0.3055
10754SOL    HW133161   0.366   5.390   1.352 -0.5798 -1.9282 -0.1005
10754SOL    HW233162   0.278   5.357   1.219 -2.0926 -1.2451  0.7066
10755SOL     OW33163   6.458   2.179   2.103 -0.2293  0.0357  0.2745
10755SOL    HW133164   6.419   2.248   2.163 -0.1366  0.8900 -0.6329
10755SOL    HW233165   6.394   2.158   2.029  0.0429 -0.3237  0.1366
10756SOL     OW33166   6.400   6.029   0.445  0.0453  0.1964 -0.3450
10756SOL    HW133167   6.444   6.117   0.459 -0.8681  0.5064  0.7290
10756SOL    HW233168   6.430   5.965   0.517 -0.9513  0.3008  0.1762
10757SOL     OW33169   0.609   3.848   2.393  0.6997  0.2741 -0.2439
10757SOL    HW133170   0.550   3.871   2.315 -0.1077 -0.9520 -0.0131
10757SOL    HW233171   0.662   3.929   2.419  1.9876  0.3871 -2.9011
10758SOL     OW33172   5.807   1.067   6.139 -0.4894 -0.1602 -0.1759
10758SOL    HW133173   5.735   0.999   6.123 -0.8187  0.0395  0.4361
10758SOL    HW233174   5.808   1.093   6.235 -2.9294  3.4824 -0.9132
10759SOL     OW33175   4.880   5.103   5.745 -0.4967 -0.5300  0.3951
10759SOL    HW133176   4.918   5.196   5.739  0.4761 -0.9523 -0.2345
10759SOL    HW233177   4.822   5.086   5.665  1.7668 -1.4926 -1.1391
10760SOL     OW33178   1.199   4.895   4.270  0.1254  0.2823  0.3068
10760SOL    HW133179   1.166   4.871   4.179  0.7192 -0.3660  0.2547
10760SOL    HW233180   1.296   4.871   4.278  0.0405  0.1826  1.1629
10761SOL     OW33181   2.653   1.199   0.398 -0.1378 -0.2558 -0.3770
10761SOL    HW133182   2.614   1.236   0.314 -2.6898 -1.7119  0.0732
10761SOL    HW233183   2.631   1.102   0.405 -0.1917 -0.1280  2.0875
10762SOL     OW33184   2.321   4.480   6.796 -0.0167 -0.4052  0.6456
10762SOL    HW133185   2.371   4.564   6.774  2.4794 -1.7615  0.8223
10762SOL    HW233186   2.321   4.466   6.895 -0.9813 -0.3098  0.6659
10763SOL     OW33187   5.599   1.513   2.097 -0.5913  0.4745 -0.4672
10763SOL    HW133188   5.591   1.548   2.004  0.0150 -0.2616 -0.8112
10763SOL    HW233189   5.627   1.417   2.094  2.2416  1.1661  0.4905
10764SOL     OW33190   6.011   0.531   5.121  0.5897  0.3221 -0.3681
10764SOL    HW133191   5.999   0.500   5.026  1.6213 -1.5457  0.0566
10764SOL    HW233192   6.098   0.580   5.128  0.7541  0.0276 -0.3074
10765SOL     OW33193   0.587   2.437   2.760 -0.3267  0.1255  0.1456
10765SOL    HW133194   0.668   2.494   2.771 -0.8811  0.9957 -0.1889
10765SOL    HW233195   0.505   2.493   2.767 -0.8595 -0.2657 -2.1764
10766SOL     OW33196   4.018   4.867   5.740 -0.1774 -0.1667  0.0322
10766SOL    HW133197   4.065   4.841   5.656  0.1738 -2.9300  1.0016
10766SOL    HW233198   3.990   4.785   5.790 -0.6349  1.3745  2.4795
10767SOL     OW33199   1.091   4.261   0.106 -0.6874  0.5763 -0.0719
10767SOL    HW133200   1.128   4.170   0.126 -1.7011  0.5346  1.9156
10767SOL    HW233201   1.135   4.297   0.024  1.1984 -0.8766  0.2077
10768SOL     OW33202   0.805   6.085   1.848  0.3727 -0.3975 -0.1671
10768SOL    HW133203   0.771   6.100   1.755  0.4472 -1.0978 -0.3145
10768SOL    HW233204   0.894   6.131   1.858 -0.5696  1.4264  0.2233
10769SOL     OW33205   3.652   4.032   4.062  0.3385  0.2640 -0.3423
10769SOL    HW133206   3.625   4.078   3.978 -0.3427  1.3510  0.4567
10769SOL    HW233207   3.752   4.023   4.064  0.5178  2.0351 -0.3541
10770SOL     OW33208   4.296   0.818   6.548 -0.2888  0.0586 -0.4947
10770SOL    HW133209   4.391   0.801   6.525 -0.6949 -0.9436 -1.5032
10770SOL    HW233210   4.252   0.868   6.473 -0.5939  0.4112 -0.0876
10771SOL     OW33211   4.218   5.523   6.996  0.6752  0.5025  0.2592
10771SOL    HW133212   4.292   5.528   7.064  1.2851  0.0228 -0.3556
10771SOL    HW233213   4.249   5.469   6.918  0.2458  1.6501 -0.7309
10772SOL     OW33214   5.388   3.556   3.949 -0.5514 -0.7145 -0.2282
10772SOL    HW133215   5.399   3.577   3.852 -0.0578  0.5182  0.0752
10772SOL    HW233216   5.304   3.597   3.983  0.5724  1.1582  0.4392
10773SOL     OW33217   2.304   4.489   1.040 -0.3278 -0.1217  0.3465
10773SOL    HW133218   2.294   4.588   1.040 -0.6494 -0.1529 -0.1610
10773SOL    HW233219   2.262   4.451   0.958 -1.5029 -0.8098  1.2465
10774SOL     OW33220   0.501   2.385   2.302 -0.5702  0.1614 -0.2818
10774SOL    HW133221   0.535   2.360   2.392 -2.2010 -0.7056  0.1261
10774SOL    HW233222   0.553   2.463   2.267  0.3511  0.2475  1.2108
10775SOL     OW33223   1.788   4.255   5.349 -0.0980 -0.0043 -0.1002
10775SOL    HW133224   1.782   4.191   5.272 -0.5501  0.6947 -0.6582
10775SOL    HW233225   1.742   4.341   5.325 -0.8033 -0.0034  1.1868
10776SOL     OW33226   0.848   5.812   3.801 -0.1495 -0.1313 -0.0135
10776SOL    HW133227   0.882   5.771   3.886  2.6928 -0.9390 -1.4372
10776SOL    HW233228   0.849   5.743   3.729 -0.3333  1.1219 -1.2524
10777SOL     OW33229   6.608   6.398   3.433  0.2333  0.2190  0.0300
10777SOL    HW133230   6.519   6.358   3.412 -0.1644  1.9584 -1.9416
10777SOL    HW233231   6.608   6.432   3.527 -2.1386  2.3613 -0.6216
10778SOL     OW33232   4.618   6.727   2.341  0.4907  0.1496 -0.0560
10778SOL    HW133233   4.587   6.636   2.370 -2.9496  1.4184  0.7622
10778SOL    HW233234   4.581   6.748   2.251  0.2895  1.1731  0.2538
10779SOL     OW33235   6.363   2.668   2.714  0.2757  0.2477 -0.1171
10779SOL    HW133236   6.359   2.568   2.716 -1.9371  0.2907  0.1833
10779SOL    HW233237   6.428   2.697   2.644  1.0864 -1.3821 -0.1056
10780SOL     OW33238   0.455   5.052   4.428  0.1669 -0.2970 -0.1628
10780SOL    HW133239   0.489   5.131   4.377 -0.6689  0.6792  0.7166
10780SOL    HW233240   0.462   4.970   4.372  1.2071  0.3676 -1.0510
10781SOL     OW33241   4.982   1.855   5.169 -0.0476  0.6605 -0.4207
10781SOL    HW133242   5.044   1.778   5.182 -0.4626  0.0484 -1.8615
10781SOL    HW233243   4.888   1.822   5.165 -0.3082  1.3542 -0.1710
10782SOL     OW33244   0.811   2.054   0.277  0.2706  0.5319 -0.5545
10782SOL    HW133245   0.719   2.015   0.287  0.3843  0.6463  1.4589
10782SOL    HW233246   0.805   2.154   0.282  0.4748  0.5541 -0.7394
10783SOL     OW33247   1.352   3.665   5.108  0.2379 -0.2393  0.8686
10783SOL    HW133248   1.303   3.751   5.123  0.9713  0.2810  0.3705
10783SOL    HW233249   1.353   3.644   5.010  0.5253 -0.5229  0.9297
10784SOL     OW33250   3.624   5.294   4.654 -0.4790 -0.1701 -0.2884
10784SOL    HW133251   3.530   5.264   4.638 -0.0479 -0.7736 -1.9057
10784SOL    HW233252   3.626   5.394   4.659 -1.2906 -0.1816  0.4581
10785SOL     OW33253   1.068   6.471   1.509 -0.1711  0.4791 -0.3590
10785SOL    HW133254   1.040   6.395   1.567  0.9710  0.6732  0.4883
10785SOL    HW233255   0.988   6.524   1.481 -0.9217 -0.7418 -0.5537
10786SOL     OW33256   4.057   0.192   2.540 -0.1891 -0.5041  1.1022
10786SOL    HW133257   4.061   0.291   2.525  2.1845 -0.2645  2.7281
10786SOL    HW233258   3.964   0.165   2.562 -0.6434  1.6159  2.0366
10787SOL     OW33259   4.852   6.848   4.159  0.4396 -0.5777  0.0944
10787SOL    HW133260   4.948   6.878   4.158  0.2675 -0.0274 -0.0877
10787SOL    HW233261   4.840   6.772   4.095  1.4515 -2.8620  2.4201
10788SOL     OW33262   0.475   2.150   5.340  0.3334  0.0614  0.4676
10788SOL    HW133263   0.476   2.130   5.438  2.8561 -1.1655  0.2762
10788SOL    HW233264   0.466   2.065   5.289  0.6015  0.5265 -0.3697
10789SOL     OW33265   6.320   1.770   1.510  0.7747  0.7537 -0.1418
10789SOL    HW133266   6.380   1.754   1.589  1.3974 -0.4249 -0.8339
10789SOL    HW233267   6.238   1.819   1.541 -0.4290 -2.1876  1.8471
10790SOL     OW33268   5.358   2.514   4.465  0.2789  0.9136 -0.2964
10790SOL    HW133269   5.283   2.579   4.459  0.4811  1.1840  0.0530
10790SOL    HW233270   5.429   2.551   4.525  0.5461  0.5210 -0.3696
10791SOL     OW33271   2.310   1.240   4.090  0.4676  0.4331 -0.0858
10791SOL    HW133272   2.218   1.241   4.049  0.5501  0.1687 -0.2764
10791SOL    HW233273   2.342   1.335   4.102  0.1833  0.5256 -0.0459
10792SOL     OW33274   1.246   6.949   3.078 -0.1421  0.2206  0.4679
10792SOL    HW133275   1.222   6.864   3.125 -1.7545 -0.3694 -1.2626
10792SOL    HW233276   1.241   6.934   2.979  2.9163  1.4539  0.0135
10793SOL     OW33277   4.951   0.715   4.382  0.1595  0.4594 -0.0617
10793SOL    HW133278   4.883   0.739   4.452 -0.6306  0.2302 -0.7429
10793SOL    HW233279   4.906   0.674   4.303  1.0356  0.7437 -0.7341
10794SOL     OW33280   4.316   1.807   0.118 -0.1989 -0.1701  0.0261
10794SOL    HW133281   4.281   1.886   0.168 -1.1804  0.6579 -1.8627
10794SOL    HW233282   4.240   1.758   0.075  0.7061  0.7592 -2.8729
10795SOL     OW33283   6.863   2.433   3.571 -0.8379  0.4295 -0.1895
10795SOL    HW133284   6.827   2.522   3.542  0.4858  1.0153 -0.1020
10795SOL    HW233285   6.960   2.428   3.549 -0.7025 -0.6626  0.5941
10796SOL     OW33286   5.565   1.737   0.711  0.6850  0.3650 -0.3259
10796SOL    HW133287   5.642   1.714   0.771  0.4853 -0.6535 -0.4335
10796SOL    HW233288   5.484   1.755   0.767  1.0669  1.7868 -0.1953
10797SOL     OW33289   5.810   5.199   6.593  0.3262  0.3795 -0.4839
10797SOL    HW133290   5.768   5.199   6.502 -0.0206  0.2072 -0.3285
10797SOL    HW233291   5.756   5.140   6.654 -0.9983  2.4994  0.5290
10798SOL     OW33292   2.426   5.711   6.589 -0.0509 -0.6504 -0.0151
10798SOL    HW133293   2.462   5.799   6.621 -1.9958  0.0490  0.3880
10798SOL    HW233294   2.459   5.692   6.497  1.3663 -0.0956  0.3636
10799SOL     OW33295   2.290   0.679   2.621 -0.3294  0.0388  0.0305
10799SOL    HW133296   2.369   0.716   2.571 -0.1622  1.3443  1.2013
10799SOL    HW233297   2.322   0.620   2.695 -0.5327 -0.9450 -0.6588
10800SOL     OW33298   0.759   6.458   4.199 -0.1678  0.1646 -0.1850
10800SOL    HW133299   0.825   6.457   4.123 -0.2030  1.3798 -0.2526
10800SOL    HW233300   0.779   6.535   4.259 -0.6447 -0.3156  0.6140
10801SOL     OW33301   1.295   6.781   0.382  0.1615 -0.2275 -0.0174
10801SOL    HW133302   1.219   6.792   0.447  0.3288 -0.2672  0.1864
10801SOL    HW233303   1.295   6.688   0.346 -0.3432 -0.0131 -0.5955
10802SOL     OW33304   1.792   3.967   5.788 -0.3786  0.0237 -0.2608
10802SOL    HW133305   1.790   3.867   5.792  1.8796 -0.0491  0.2414
10802SOL    HW233306   1.826   3.997   5.699  1.3400  0.2390  0.4322
10803SOL     OW33307   5.340   4.687   6.759  0.3851  0.7126  0.1272
10803SOL    HW133308   5.408   4.759   6.749 -0.0202  1.3317  1.5766
10803SOL    HW233309   5.250   4.722   6.733  0.6218 -0.2360 -2.2373
10804SOL     OW33310   5.830   6.764   5.018 -0.4031  0.6147  0.4110
10804SOL    HW133311   5.818   6.837   5.086  0.7562  0.1692  1.1297
10804SOL    HW233312   5.810   6.676   5.060 -3.1697  0.5522 -0.8284
10805SOL     OW33313   0.308   6.272   3.218  0.0348  0.0850  0.3182
10805SOL    HW133314   0.388   6.213   3.211 -1.3115 -1.7141 -1.0715
10805SOL    HW233315   0.237   6.225   3.270 -1.5302 -0.1515 -1.8828
10806SOL     OW33316   6.629   1.681   5.960 -0.0484 -0.0570 -0.4385
10806SOL    HW133317   6.623   1.589   5.998  1.5733 -0.2976 -0.7095
10806SOL    HW233318   6.620   1.748   6.034 -1.3008 -0.4125 -0.2480
10807SOL     OW33319   5.006   3.186   6.278  0.2974  0.6079 -0.5892
10807SOL    HW133320   4.916   3.185   6.235  0.8982  3.2953 -2.1989
10807SOL    HW233321   5.003   3.243   6.360  0.5998  1.0592 -0.8865
10808SOL     OW33322   5.848   2.426   0.069 -0.2299 -0.4837 -0.3508
10808SOL    HW133323   5.759   2.402   0.032 -0.2513 -2.7732  0.9678
10808SOL    HW233324   5.913   2.439  -0.006 -1.5178  0.7147 -1.2998
10809SOL     OW33325   0.670   0.604   5.424  0.5136  0.1827 -0.2784
10809SOL    HW133326   0.737   0.578   5.354  0.1105 -0.5574 -0.4045
10809SOL    HW233327   0.582   0.625   5.380  0.2682 -0.2467 -0.0029
10810SOL     OW33328   0.044   2.590   5.959  0.0011 -0.2362  0.6115
10810SOL    HW133329  -0.028   2.648   5.922  0.6148 -0.8395 -1.6841
10810SOL    HW233330   0.131   2.639   5.953  0.4581 -1.1579 -0.9710
10811SOL     OW33331   4.538   6.209   6.428 -0.5553  0.6825  0.4069
10811SOL    HW133332   4.515   6.266   6.507  1.1035 -0.6871  1.9657
10811SOL    HW233333   4.477   6.129   6.425 -1.1242  1.1269 -0.1894
10812SOL     OW33334   0.881   2.788   2.020  0.3924 -0.1774 -0.0776
10812SOL    HW133335   0.949   2.829   2.080  0.5203 -0.2488 -0.1743
10812SOL    HW233336   0.789   2.811   2.054  0.4633 -0.3898  0.2621
10813SOL     OW33337   3.188   5.991   2.334 -0.5403 -0.4837  0.2463
10813SOL    HW133338   3.178   6.014   2.237 -2.3687 -1.5665  0.1349
10813SOL    HW233339   3.103   5.951   2.368  0.1946 -0.4854  2.2166
10814SOL     OW33340   0.407   0.594   5.289  0.0488  0.1471 -0.3076
10814SOL    HW133341   0.372   0.516   5.342 -1.1237 -0.4464 -1.8830
10814SOL    HW233342   0.350   0.674   5.304 -2.1405 -0.7941 -2.8005
10815SOL     OW33343   5.186   3.926   5.300 -0.0448  0.4462  0.2566
10815SOL    HW133344   5.155   3.847   5.246 -0.3756  0.0368  1.0307
10815SOL    HW233345   5.280   3.949   5.276 -0.7426  1.3969 -1.7898
10816SOL     OW33346   0.703   3.836   1.238  0.1129 -0.2323  0.1897
10816SOL    HW133347   0.644   3.882   1.171  2.0723 -0.3598 -1.7084
10816SOL    HW233348   0.748   3.905   1.295  1.4239  0.1534 -1.2541
10817SOL     OW33349   3.352   0.304   0.399  0.3318  0.1936  0.7996
10817SOL    HW133350   3.394   0.390   0.371 -0.7000  0.8321  1.1321
10817SOL    HW233351   3.421   0.241   0.433  1.1879  0.6345 -0.0872
10818SOL     OW33352   5.741   3.971   4.448 -0.5491  0.3098 -0.6461
10818SOL    HW133353   5.736   3.889   4.505 -0.8951  1.5607  1.1909
10818SOL    HW233354   5.836   3.989   4.423 -0.3467 -0.0611 -0.1529
10819SOL     OW33355   0.763   3.593   4.709 -0.0933  0.3242 -0.0269
10819SOL    HW133356   0.831   3.666   4.715 -0.0038  0.6481 -3.1517
10819SOL    HW233357   0.809   3.505   4.703 -0.1664  0.0648  2.3018
10820SOL     OW33358   0.077   4.792   5.159 -0.3421  0.0268 -1.0400
10820SOL    HW133359   0.044   4.783   5.065 -0.1889  0.5033 -1.1445
10820SOL    HW233360   0.054   4.710   5.211 -1.8204  0.3989 -1.0625
10821SOL     OW33361   1.713   1.486   5.755  0.3155  0.3087 -0.0216
10821SOL    HW133362   1.673   1.408   5.803  1.7846  0.4999  1.6521
10821SOL    HW233363   1.778   1.532   5.816 -0.3843  2.7661 -0.9970
10822SOL     OW33364   1.118   4.849   6.227 -0.0133 -0.4635 -0.0093
10822SOL    HW133365   1.024   4.849   6.191  0.0825 -0.4437 -0.2629
10822SOL    HW233366   1.179   4.806   6.160  0.1622 -0.4612  0.1477
10823SOL     OW33367   2.881   3.236   6.853  0.2118  0.0958 -0.6406
10823SOL    HW133368   2.810   3.208   6.917 -0.3647  1.1510 -0.7896
10823SOL    HW233369   2.915   3.156   6.803 -3.0997 -0.1355 -2.8452
10824SOL     OW33370   4.737   1.120   4.059  0.3978 -0.1778 -0.2342
10824SOL    HW133371   4.680   1.182   4.112  1.3855  0.3677  0.1902
10824SOL    HW233372   4.808   1.080   4.117  2.1263  1.1882 -1.3195
10825SOL     OW33373   3.341   0.991   2.584 -0.0569 -0.6462 -0.1456
10825SOL    HW133374   3.316   0.932   2.508 -0.2756 -0.3177 -0.3310
10825SOL    HW233375   3.281   1.071   2.587 -2.2510 -2.2306  2.3579
10826SOL     OW33376   0.782   4.553   6.567 -0.2906  0.1264  0.3420
10826SOL    HW133377   0.762   4.496   6.488  0.4527  0.5196 -0.1384
10826SOL    HW233378   0.795   4.495   6.648 -2.4046 -0.2051  0.5106
10827SOL     OW33379   0.162   4.928   6.172  0.1833 -0.0312  0.1900
10827SOL    HW133380   0.140   4.833   6.196 -1.0149  0.3341  0.6348
10827SOL    HW233381   0.238   4.960   6.228  2.7812 -1.6815 -2.1414
10828SOL     OW33382   4.090   4.401   6.251  0.1961 -0.5254  0.2158
10828SOL    HW133383   4.102   4.409   6.152 -0.0221 -0.9678  0.1524
10828SOL    HW233384   4.001   4.439   6.277  0.3221 -0.2613  0.2643
10829SOL     OW33385   3.246   4.237   0.833  0.2042 -0.5822  0.0063
10829SOL    HW133386   3.151   4.268   0.845  0.9900  2.2704 -0.3312
10829SOL    HW233387   3.295   4.245   0.920 -0.1124 -3.3574  0.5300
10830SOL     OW33388   0.053   6.333   4.679  0.1996  0.1631  0.0015
10830SOL    HW133389   0.120   6.343   4.606  0.1528  0.7644  0.0406
10830SOL    HW233390   0.055   6.413   4.739  0.1504 -0.2682  0.5918
10831SOL     OW33391   5.617   5.914   3.923  0.2295 -0.0553 -0.1615
10831SOL    HW133392   5.662   6.003   3.922  0.1109  0.0191  0.5812
10831SOL    HW233393   5.586   5.893   4.016 -0.2592 -0.6106 -0.4398
10832SOL     OW33394   2.168   3.891   2.596  0.4905  0.0685 -0.3077
10832SOL    HW133395   2.208   3.802   2.571  0.8467  0.4395 -1.1171
10832SOL    HW233396   2.146   3.941   2.512 -1.7572 -0.1439  0.0951
10833SOL     OW33397   3.727   1.437   5.624 -0.3952  0.4611 -0.5238
10833SOL    HW133398   3.632   1.467   5.616 -0.1795  1.3062 -0.0371
10833SOL    HW233399   3.767   1.473   5.708  0.1677 -0.4383 -0.3870
10834SOL     OW33400   4.727   1.774   5.159  0.0075  0.8297 -0.0761
10834SOL    HW133401   4.629   1.776   5.179  0.1338 -0.0630  0.6838
10834SOL    HW233402   4.740   1.766   5.060 -0.6753  1.3879 -0.2197
10835SOL     OW33403   2.456   0.333   0.809 -0.2199  0.0105  0.1217
10835SOL    HW133404   2.505   0.254   0.773 -1.8415 -1.0779  0.1881
10835SOL    HW233405   2.386   0.302   0.875 -1.0907  1.4601 -0.0707
10836SOL     OW33406   5.609   1.060   2.058  0.0521 -0.2108 -0.1469
10836SOL    HW133407   5.530   1.017   2.015 -0.3099  0.2531  0.0503
10836SOL    HW233408   5.578   1.125   2.128  0.6137 -1.2108  1.0901
10837SOL     OW33409   2.609   4.342   0.695 -0.0350  0.1014 -0.0947
10837SOL    HW133410   2.660   4.257   0.708  0.1564  0.5332  2.5587
10837SOL    HW233411   2.511   4.322   0.686  0.0347 -0.4090  0.2592
10838SOL     OW33412   6.635   6.512   0.542  0.2937  0.3116 -0.3889
10838SOL    HW133413   6.600   6.599   0.574 -0.6266 -0.8106  1.9019
10838SOL    HW233414   6.714   6.486   0.598 -0.8109 -1.3127  0.5048
10839SOL     OW33415   2.776   0.736   5.740 -0.5868  0.0078 -0.2279
10839SOL    HW133416   2.769   0.799   5.818  1.8157  0.4059 -0.2633
10839SOL    HW233417   2.745   0.645   5.768 -2.5264  0.7738  0.3003
10840SOL     OW33418   0.190   6.948   4.975 -0.3656 -0.2971 -0.0215
10840SOL    HW133419   0.108   6.973   4.923 -0.2946  0.5124  0.2399
10840SOL    HW233420   0.260   7.017   4.961  0.6980 -1.5714 -1.1599
10841SOL     OW33421   3.745   4.984   0.270 -0.2044 -0.5005  0.0613
10841SOL    HW133422   3.740   5.001   0.368  1.4414 -1.3713  0.3319
10841SOL    HW233423   3.811   5.046   0.228  0.2227 -1.1232 -0.2168
10842SOL     OW33424   6.320   2.433   3.018  0.7979  0.3210 -0.3662
10842SOL    HW133425   6.379   2.359   3.051 -0.0589 -0.3612 -0.3208
10842SOL    HW233426   6.344   2.518   3.065  0.1336 -0.4566  1.5073
10843SOL     OW33427   1.055   2.805   1.597  0.0728  0.1969  0.6205
10843SOL    HW133428   1.127   2.735   1.592  0.2695  0.3811  0.8595
10843SOL    HW233429   1.081   2.883   1.540 -0.3286 -0.0856  0.0429
10844SOL     OW33430   4.446   6.619   3.495 -0.0810 -0.1838 -0.7415
10844SOL    HW133431   4.473   6.712   3.469  0.6059  0.7331  2.7326
10844SOL    HW233432   4.524   6.572   3.535 -1.2283 -1.0187  0.5836
10845SOL     OW33433   3.107   4.762   1.348 -0.3800 -0.4394  0.4148
10845SOL    HW133434   3.110   4.678   1.401 -0.2791 -0.6350  0.1008
10845SOL    HW233435   3.146   4.837   1.402 -0.6234 -0.5575  0.7557
10846SOL     OW33436   3.520   1.211   1.745  0.3645  0.0979  0.0083
10846SOL    HW133437   3.526   1.310   1.732 -1.3446  0.1937 -0.3370
10846SOL    HW233438   3.441   1.190   1.802  1.1573 -1.0422  0.7175
10847SOL     OW33439   4.374   2.010   5.029  0.4685 -0.7688  0.1782
10847SOL    HW133440   4.353   1.927   5.082 -1.4695 -0.5819 -0.2348
10847SOL    HW233441   4.428   2.072   5.086 -0.3239 -1.1913  1.4416
10848SOL     OW33442   0.691   6.411   0.091  0.5546  0.1518  0.0455
10848SOL    HW133443   0.717   6.420  -0.005 -2.8053  2.5167 -0.8281
10848SOL    HW233444   0.728   6.486   0.144  0.2697  0.3091  0.0245
10849SOL     OW33445   0.669   5.987   4.362  0.4182 -0.4906  0.6316
10849SOL    HW133446   0.624   6.056   4.420  5.0851  1.4927  2.3325
10849SOL    HW233447   0.713   5.918   4.419  2.8327 -0.0515 -0.5660
10850SOL     OW33448   5.683   2.037   2.581 -0.5225  0.2091 -0.0329
10850SOL    HW133449   5.752   2.028   2.509 -1.8289  0.4632 -1.3729
10850SOL    HW233450   5.721   2.091   2.657 -0.2766  3.4740 -2.2504
10851SOL     OW33451   3.652   2.084   0.648  0.0977 -0.0837  0.2415
10851SOL    HW133452   3.652   2.182   0.626 -0.1652 -0.5363 -1.9359
10851SOL    HW233453   3.557   2.054   0.659  0.1878 -0.0784  1.1234
10852SOL     OW33454   4.294   0.549   6.845  0.5832 -0.5554 -0.4187
10852SOL    HW133455   4.255   0.513   6.930  2.9051 -1.9382  0.1605
10852SOL    HW233456   4.283   0.648   6.842  0.0862 -0.5357  1.2863
10853SOL     OW33457   1.890   5.616   5.369 -0.1376 -0.7302  0.3990
10853SOL    HW133458   1.838   5.609   5.454  0.5275 -1.2733  0.7660
10853SOL    HW233459   1.862   5.699   5.320  0.4246  0.3295  1.8062
10854SOL     OW33460   0.550   1.124   5.044  0.2775  0.3493  0.0847
10854SOL    HW133461   0.621   1.194   5.053  1.0335 -0.2563 -0.9435
10854SOL    HW233462   0.526   1.089   5.135  2.2410 -0.3470  0.3686
10855SOL     OW33463   1.685   5.364   6.905 -0.6320 -0.0716  0.1922
10855SOL    HW133464   1.724   5.449   6.939  0.6177  0.8207 -3.0671
10855SOL    HW233465   1.744   5.287   6.930  0.9736  0.7194 -1.0211
10856SOL     OW33466   3.325   0.217   1.159 -0.7410 -0.4550 -0.1631
10856SOL    HW133467   3.415   0.255   1.181 -0.6723 -0.5806 -0.2295
10856SOL    HW233468   3.287   0.265   1.080 -1.5163  0.8305  0.9410
10857SOL     OW33469   0.464   5.384   5.261 -0.0195  0.2964 -0.0144
10857SOL    HW133470   0.551   5.358   5.220 -0.1269  0.2660 -0.2202
10857SOL    HW233471   0.405   5.304   5.271  0.5572  0.0187  1.5473
10858SOL     OW33472   1.141   4.274   1.788  0.1215 -0.2892 -0.0632
10858SOL    HW133473   1.101   4.203   1.846  0.3168  0.5183  1.0894
10858SOL    HW233474   1.105   4.265   1.695 -0.2170 -1.5940  0.1779
10859SOL     OW33475   2.159   4.180   2.704  0.0628 -0.0334 -0.6871
10859SOL    HW133476   2.187   4.089   2.674  1.0011  0.0856 -0.2288
10859SOL    HW233477   2.096   4.220   2.638  1.5987 -0.0178 -2.1919
10860SOL     OW33478   5.525   0.265   2.231 -0.3592 -0.1182 -0.0444
10860SOL    HW133479   5.528   0.172   2.194 -2.3304 -0.6771  1.0585
10860SOL    HW233480   5.472   0.266   2.316  0.3320  1.8861  0.4261
10861SOL     OW33481   3.349   3.690   2.136 -0.2885  0.0306 -0.0611
10861SOL    HW133482   3.325   3.603   2.180 -3.7429  0.6409 -0.4871
10861SOL    HW233483   3.441   3.683   2.097 -0.3238 -3.3188  0.1555
10862SOL     OW33484   3.071   3.707   6.204 -0.1866 -0.0686 -0.5614
10862SOL    HW133485   3.006   3.636   6.178  1.1565 -2.1802  1.4840
10862SOL    HW233486   3.039   3.753   6.287  0.5426 -0.6191  0.0379
10863SOL     OW33487   6.500   0.450   4.785  0.9019 -0.3072 -0.0605
10863SOL    HW133488   6.498   0.381   4.713  1.6854  0.3550 -0.7433
10863SOL    HW233489   6.406   0.476   4.810  0.6080 -1.4246  0.0366
10864SOL     OW33490   3.745   3.428   1.828  0.6904  0.2297  0.2889
10864SOL    HW133491   3.841   3.457   1.826  0.6409  0.3851 -0.4316
10864SOL    HW233492   3.687   3.508   1.846  0.7559 -0.0777  1.9901
10865SOL     OW33493   4.670   6.529   2.663  0.5007 -0.2158 -0.4705
10865SOL    HW133494   4.687   6.430   2.658  2.7692  0.0706  0.2649
10865SOL    HW233495   4.728   6.576   2.596 -0.5527  0.6461 -0.8120
10866SOL     OW33496   6.015   2.996   6.072 -0.3053  0.5876 -0.6745
10866SOL    HW133497   6.061   2.999   6.161 -0.6589  0.2090 -0.4760
10866SOL    HW233498   6.008   3.088   6.034 -1.4072  0.9419  0.3335
10867SOL     OW33499   6.371   2.050   0.314 -0.1426 -0.3520  0.1263
10867SOL    HW133500   6.381   1.973   0.377 -0.4035 -1.1656 -0.7897
10867SOL    HW233501   6.454   2.105   0.315  0.9203 -1.8400 -0.7077
10868SOL     OW33502   1.490   2.130   5.708  0.6256  0.5138 -0.2864
10868SOL    HW133503   1.459   2.170   5.794  0.3166  2.3183 -1.1850
10868SOL    HW233504   1.420   2.142   5.638  0.8145 -1.0441 -0.7901
10869NA      NA33505   6.790   0.719   1.266  0.6496 -0.2699  0.0179
10870NA      NA33506   5.772   4.413   4.468  0.4707  0.4875 -0.1511
10871NA      NA33507   0.497   4.316   4.129  0.4040  0.3335  0.0092
10872NA      NA33508   6.559   2.645   3.585 -0.1973  0.4874 -0.4301
10873NA      NA33509   4.300   2.353   5.211 -0.3400  0.0819 -0.4592
10874NA      NA33510   3.305   3.770   6.299  0.3171 -0.0141 -0.7423
10875NA      NA33511   3.570   4.836   0.140 -0.0795  0.4058  0.3640
10876NA      NA33512   3.704   4.473   1.468 -0.1415 -0.2911 -0.3803
10877NA      NA33513   5.547   3.255   0.870 -0.5745  0.1170  0.2953
10878NA      NA33514   2.797   1.960   1.378  0.6422  0.0728  0.2908
10879NA      NA33515   4.982   6.615   0.711  0.5226  0.5200 -0.3981
10880NA      NA33516   3.129   0.098   4.509 -0.0163  0.1934 -0.0333
10881NA      NA33517   2.639   5.366   3.558 -0.3512  0.3137  0.3558
10882NA      NA33518   3.669   5.661   5.504 -0.0722  0.0137 -0.6223
   7.01436   7.01436   7.01436
